/*--------------------------------*- C++ -*----------------------------------*\
| =========                 |                                                 |
| \\      /  F ield         | OpenFOAM: The Open Source CFD Toolbox           |
|  \\    /   O peration     | Version:  5.x                                   |
|   \\  /    A nd           | Web:      www.OpenFOAM.org                      |
|    \\/     M anipulation  |                                                 |
\*---------------------------------------------------------------------------*/
FoamFile
{
    version     2.0;
    format      ascii;
    class       volVectorField;
    location    "2150";
    object      wallShearStress;
}
// * * * * * * * * * * * * * * * * * * * * * * * * * * * * * * * * * * * * * //

dimensions      [0 2 -2 0 0 0 0];

internalField   uniform (0 0 0);

boundaryField
{
    inlet
    {
        type            calculated;
        value           uniform (0 0 0);
    }
    outlet
    {
        type            calculated;
        value           uniform (0 0 0);
    }
    walls
    {
        type            calculated;
        value           nonuniform List<vector> 
82
(
(0.310748 -1.72083 -7.52316e-37)
(0.010081 -2.40174 1.13819e-20)
(-0.341378 -2.93594 -1.43839e-18)
(-0.84181 -2.92568 -1.54654e-18)
(-1.21468 -2.61321 -3.34989e-18)
(-1.45387 -2.1816 1.60298e-18)
(-1.57325 -1.7339 1.4729e-18)
(-1.59612 -1.32539 -1.31072e-18)
(-1.54546 -0.978826 -2.8093e-18)
(-1.43251 -0.693526 -8.79882e-20)
(-1.22671 -0.437783 -1.04736e-18)
(-0.991262 -0.243215 3.9622e-20)
(-0.811534 -0.136335 -5.31651e-19)
(-0.696742 -0.0882313 -3.30039e-19)
(-0.59143 -0.0574413 -1.27857e-19)
(-0.471475 -0.0299016 2.50328e-20)
(-0.34494 -0.00977794 -1.12179e-19)
(-0.225697 0.00122633 -2.50368e-20)
(-0.121952 0.00507903 2.28702e-20)
(-0.0427305 0.0041375 2.25389e-19)
(-0.00343243 0.000979202 1.59627e-19)
(0.0104728 -0.000573261 2.97851e-19)
(0.0252079 -0.00213464 7.59999e-19)
(0.03664 -0.00354586 5.54231e-20)
(0.0437199 -0.00474735 2.49379e-22)
(0.0472363 -0.00568967 -3.18946e-20)
(0.0487266 -0.00651249 2.09992e-18)
(0.0494977 -0.00738273 -3.31293e-20)
(0.0503527 -0.00831278 2.17167e-18)
(0.0517851 -0.00930764 -2.11428e-18)
(0.0541221 -0.0104657 -3.33155e-20)
(0.0576759 -0.0118687 -1.63422e-20)
(0.0626358 -0.013524 1.59069e-20)
(0.0687118 -0.015274 -3.00927e-36)
(0.0745098 -0.0166666 -3.79586e-18)
(0.0769618 -0.0169489 3.00927e-36)
(0.0725611 -0.0154259 -2.40976e-37)
(0.0611426 -0.0119863 6.35698e-21)
(0.0404721 -0.0055915 -4.30101e-21)
(0.0178499 0.00357225 2.25952e-18)
(0.017225 0.0197065 2.20425e-18)
(0.380567 -1.19821 -4.56496e-19)
(0.26981 -0.60172 -6.71438e-20)
(0.141748 -0.258524 -3.4494e-18)
(0.040579 -0.0782049 -1.69116e-18)
(-0.00177274 -0.0116733 -1.13612e-18)
(-0.0288729 0.00514493 -1.9602e-18)
(-0.0788578 0.0286657 -4.59184e-18)
(-0.136616 0.0505095 -2.19723e-18)
(-0.195062 0.0675892 1.97827e-18)
(-0.259547 0.0865294 1.37367e-19)
(-0.334512 0.103548 -4.22538e-18)
(-0.404811 0.106509 1.93911e-18)
(-0.463261 0.0995062 3.84744e-21)
(-0.514764 0.0901679 1.21151e-18)
(-0.561871 0.0795671 1.87151e-18)
(-0.603526 0.0670582 -1.14417e-19)
(-0.639222 0.05298 -2.82119e-37)
(-0.669254 0.0379491 -7.36651e-19)
(-0.694017 0.0224899 -5.1649e-20)
(-0.714043 0.00702664 -3.89355e-19)
(-0.729289 -0.00797345 6.89154e-22)
(-0.740526 -0.0218307 -5.64237e-37)
(-0.747538 -0.0330727 -7.90557e-19)
(-0.752885 -0.0431112 -6.81516e-19)
(-0.75707 -0.0521946 1.41798e-18)
(-0.760436 -0.0604722 1.38253e-18)
(-0.763332 -0.0680336 2.69641e-18)
(-0.765997 -0.0749698 1.3147e-18)
(-0.768618 -0.0813731 3.97422e-20)
(-0.771364 -0.0873409 -1.28753e-18)
(-0.774388 -0.0929751 -1.23536e-18)
(-0.777866 -0.0983817 2.3867e-18)
(-0.781967 -0.103675 2.32044e-18)
(-0.786872 -0.108967 -2.25279e-18)
(-0.792767 -0.114376 1.67879e-20)
(-0.799919 -0.120023 -1.6534e-20)
(-0.808555 -0.126051 -2.35099e-38)
(-0.819943 -0.132734 0)
(-0.83205 -0.140185 3.59938e-21)
(-0.86094 -0.150082 -1.80211e-18)
(-0.857701 -0.159673 1.63188e-21)
)
;
    }
    frontAndBack
    {
        type            empty;
    }
}


// ************************************************************************* //
