/*--------------------------------*- C++ -*----------------------------------*\
| =========                 |                                                 |
| \\      /  F ield         | OpenFOAM: The Open Source CFD Toolbox           |
|  \\    /   O peration     | Version:  5.x                                   |
|   \\  /    A nd           | Web:      www.OpenFOAM.org                      |
|    \\/     M anipulation  |                                                 |
\*---------------------------------------------------------------------------*/
FoamFile
{
    version     2.0;
    format      ascii;
    class       volVectorField;
    location    "2050";
    object      wallShearStress;
}
// * * * * * * * * * * * * * * * * * * * * * * * * * * * * * * * * * * * * * //

dimensions      [0 2 -2 0 0 0 0];

internalField   uniform (0 0 0);

boundaryField
{
    inlet
    {
        type            calculated;
        value           uniform (0 0 0);
    }
    outlet
    {
        type            calculated;
        value           uniform (0 0 0);
    }
    walls
    {
        type            calculated;
        value           nonuniform List<vector> 
82
(
(0.310751 -1.72083 0)
(0.0100834 -2.40176 1.13823e-20)
(-0.341377 -2.93594 -1.4384e-18)
(-0.841799 -2.92568 -1.54654e-18)
(-1.21468 -2.61321 -3.3499e-18)
(-1.45387 -2.1816 1.60299e-18)
(-1.57325 -1.7339 1.4729e-18)
(-1.59612 -1.32538 -1.31073e-18)
(-1.54546 -0.978826 -2.80931e-18)
(-1.43251 -0.693526 -8.79882e-20)
(-1.22671 -0.437782 -1.04736e-18)
(-0.991262 -0.243215 3.9622e-20)
(-0.811533 -0.136335 -5.31646e-19)
(-0.696742 -0.0882306 -3.30033e-19)
(-0.591431 -0.0574412 -1.27847e-19)
(-0.471495 -0.0299015 2.50457e-20)
(-0.344996 -0.00977967 -1.12205e-19)
(-0.225757 0.00122303 -2.50443e-20)
(-0.121957 0.00507636 2.28768e-20)
(-0.0427062 0.00413777 2.25382e-19)
(-0.00342701 0.000979725 1.59587e-19)
(0.0104733 -0.000572999 2.97892e-19)
(0.0252079 -0.00213478 7.60047e-19)
(0.0366416 -0.00354643 5.54235e-20)
(0.0437207 -0.00474791 2.49404e-22)
(0.047233 -0.00568958 -3.18925e-20)
(0.0487217 -0.00651185 2.09981e-18)
(0.049495 -0.00738207 -3.31286e-20)
(0.0503529 -0.00831255 2.17165e-18)
(0.0517861 -0.00930765 -2.11423e-18)
(0.0541226 -0.0104657 -3.33148e-20)
(0.0576761 -0.0118686 -1.63417e-20)
(0.0626351 -0.0135237 1.59063e-20)
(0.0687078 -0.0152732 -3.00927e-36)
(0.0745031 -0.0166654 -3.79556e-18)
(0.0769544 -0.0169475 9.0278e-36)
(0.0725607 -0.0154256 -1.70447e-37)
(0.0611426 -0.0119859 6.35727e-21)
(0.0404711 -0.00559111 -4.30037e-21)
(0.0178491 0.0035722 2.25915e-18)
(0.017225 0.0197064 2.20423e-18)
(0.380566 -1.19821 -4.56497e-19)
(0.26981 -0.60172 -6.71442e-20)
(0.141748 -0.258526 -3.44944e-18)
(0.040579 -0.078206 -1.69117e-18)
(-0.00177356 -0.0116724 -1.13617e-18)
(-0.0288776 0.0051469 -1.96068e-18)
(-0.0788627 0.0286672 -4.59244e-18)
(-0.136619 0.0505081 -2.19723e-18)
(-0.195065 0.0675886 1.97843e-18)
(-0.259547 0.0865276 1.37363e-19)
(-0.334509 0.103543 -4.22511e-18)
(-0.404806 0.106507 1.93902e-18)
(-0.46326 0.0995059 3.84687e-21)
(-0.514764 0.090169 1.21148e-18)
(-0.561872 0.079569 1.8715e-18)
(-0.603528 0.0670595 -1.14417e-19)
(-0.639222 0.0529806 -1.88079e-37)
(-0.669255 0.0379493 -7.36647e-19)
(-0.694017 0.0224897 -5.16486e-20)
(-0.714043 0.00702645 -3.89352e-19)
(-0.729289 -0.00797343 6.89128e-22)
(-0.740521 -0.0218308 -1.50463e-36)
(-0.747538 -0.0330728 -7.90552e-19)
(-0.752885 -0.0431111 -6.81507e-19)
(-0.757065 -0.0521948 1.41796e-18)
(-0.760436 -0.0604723 1.38252e-18)
(-0.763332 -0.0680336 2.69638e-18)
(-0.765997 -0.0749698 1.31468e-18)
(-0.768618 -0.0813731 3.97417e-20)
(-0.771364 -0.0873409 -1.28752e-18)
(-0.774388 -0.0929751 -1.23535e-18)
(-0.777866 -0.0983817 2.38667e-18)
(-0.781967 -0.103675 2.32042e-18)
(-0.786871 -0.108967 -2.25275e-18)
(-0.792767 -0.114376 1.67877e-20)
(-0.799919 -0.120023 -1.65338e-20)
(-0.808555 -0.126051 1.17549e-38)
(-0.819943 -0.132734 -2.93874e-39)
(-0.83205 -0.140185 3.59934e-21)
(-0.86094 -0.150082 -1.80209e-18)
(-0.857701 -0.159673 1.63186e-21)
)
;
    }
    frontAndBack
    {
        type            empty;
    }
}


// ************************************************************************* //
