/*--------------------------------*- C++ -*----------------------------------*\
| =========                 |                                                 |
| \\      /  F ield         | OpenFOAM: The Open Source CFD Toolbox           |
|  \\    /   O peration     | Version:  5.x                                   |
|   \\  /    A nd           | Web:      www.OpenFOAM.org                      |
|    \\/     M anipulation  |                                                 |
\*---------------------------------------------------------------------------*/
FoamFile
{
    version     2.0;
    format      ascii;
    class       volScalarField;
    location    "750";
    object      nut;
}
// * * * * * * * * * * * * * * * * * * * * * * * * * * * * * * * * * * * * * //

dimensions      [0 2 -1 0 0 0 0];

internalField   nonuniform List<scalar> 
41860
(
5.37689e-06
8.29094e-06
1.76491e-05
2.06732e-05
1.63431e-05
1.28196e-05
8.68666e-06
5.9052e-06
4.13078e-06
2.95932e-06
2.13231e-06
1.6483e-06
1.21271e-06
1.04485e-06
8.01999e-07
7.36179e-07
6.32964e-07
5.6712e-07
5.27575e-07
9.06591e-07
9.96823e-07
5.4997e-07
1.24164e-06
5.41246e-07
1.33521e-06
5.28056e-07
5.17679e-07
1.35524e-06
5.04085e-07
4.98829e-07
4.92293e-07
1.32949e-06
1.31525e-06
4.77132e-07
1.28023e-06
4.70956e-07
1.2364e-06
1.21175e-06
1.18306e-06
4.67717e-07
1.09527e-06
1.03736e-06
4.20278e-07
4.20514e-07
1.21409e-06
4.16834e-07
4.15394e-07
4.13726e-07
4.12546e-07
4.11546e-07
4.10806e-07
4.10331e-07
4.10035e-07
4.09967e-07
4.10133e-07
1.16077e-06
1.15693e-06
4.10884e-07
1.14768e-06
4.12253e-07
4.14047e-07
4.1414e-07
1.12855e-06
4.14824e-07
1.11571e-06
4.14748e-07
1.10214e-06
1.09273e-06
4.11115e-07
4.11347e-07
1.05992e-06
4.04399e-07
4.01957e-07
1.01428e-06
9.99161e-07
3.83384e-07
9.51109e-07
9.2396e-07
8.98254e-07
3.31474e-07
8.68826e-07
7.74426e-08
0.000181603
0.000217151
0.000283248
0.000300513
0.000276793
0.000254951
0.000224231
0.000197843
0.000176143
0.000157749
0.000141085
0.000128841
0.000115051
0.000108675
9.77366e-05
9.4313e-05
8.78222e-05
8.28781e-05
7.94314e-05
7.28661e-05
7.1136e-05
6.6665e-05
6.45311e-05
6.24402e-05
6.01165e-05
5.9313e-05
5.70449e-05
5.68383e-05
5.52715e-05
5.48379e-05
5.41569e-05
5.40339e-05
5.39003e-05
5.33149e-05
5.39585e-05
5.36719e-05
5.47446e-05
5.5172e-05
5.63967e-05
5.72791e-05
5.9061e-05
6.0694e-05
4.73188e-05
4.72196e-05
4.77457e-05
4.69469e-05
4.69078e-05
4.68143e-05
4.68207e-05
4.68435e-05
4.69107e-05
4.70138e-05
4.71426e-05
4.73041e-05
4.75126e-05
4.8255e-05
4.855e-05
4.81469e-05
4.90787e-05
4.86816e-05
4.91713e-05
4.93017e-05
5.02593e-05
4.98804e-05
5.07424e-05
5.04286e-05
5.10687e-05
5.13652e-05
5.07614e-05
5.13922e-05
5.15355e-05
5.10474e-05
5.13581e-05
5.13782e-05
5.0982e-05
5.02799e-05
5.0436e-05
4.95732e-05
4.86526e-05
4.66347e-05
4.79706e-05
1.63995e-07
0.000234364
0.000274019
0.000360804
0.000385002
0.00035559
0.000327935
0.000289099
0.000255993
0.000229153
0.000206911
0.000187679
0.000173497
0.000160338
0.000153272
0.000147657
0.000145591
0.000144528
0.000143944
0.00014327
0.000142855
0.000141799
0.000143396
0.000140716
0.000141872
0.000139313
0.000139978
0.000139405
0.000136114
0.000137035
0.000135705
0.000134523
0.000131616
0.000130421
0.000130955
0.000128279
0.000128869
0.000126528
0.000125828
0.000125349
0.000126314
0.000124956
0.000125074
0.000123475
0.000123065
0.000121331
0.000122266
0.000121887
0.000121535
0.000121224
0.000120951
0.000120718
0.000120526
0.00012037
0.000120252
0.000120172
0.000118864
0.00011887
0.000120078
0.000118938
0.000120165
0.000120325
0.000120357
0.000119309
0.000120504
0.000119423
0.000120609
0.000119433
0.000119478
0.000120447
0.000120601
0.000119149
0.000120037
0.000119928
0.000118316
0.000117743
0.000118215
0.000116478
0.000115297
0.000114053
0.000112712
0.000112708
3.45093e-07
0.000324929
0.000368875
0.00043527
0.000472976
0.000462967
0.000432548
0.000404828
0.000382063
0.0003618
0.000343105
0.000326733
0.000306284
0.000293732
0.000274952
0.000271739
0.000265197
0.000263941
0.000261727
0.000258781
0.000257133
0.000253527
0.000252906
0.000248563
0.000247283
0.000243453
0.000241783
0.000239677
0.000235267
0.000234303
0.00023157
0.000229107
0.000225416
0.00022304
0.000222069
0.000218738
0.000217964
0.000215047
0.000213465
0.000212102
0.00021188
0.000210039
0.000209392
0.000207724
0.000206608
0.000204736
0.000204939
0.000204153
0.000203425
0.000202761
0.000202163
0.000201632
0.000201161
0.00020075
0.000200399
0.000200102
0.000198895
0.000198722
0.000199464
0.000198476
0.000199264
0.000199299
0.000199223
0.00019838
0.000199149
0.000198274
0.000199026
0.00019805
0.000197974
0.000198493
0.000198496
0.000197213
0.00019761
0.000197305
0.000195774
0.000194933
0.000194815
0.000192999
0.000191366
0.000189635
0.000187289
0.000187208
7.2022e-07
0.000452021
0.000547553
0.000643237
0.000698156
0.000719473
0.000679948
0.000655204
0.000629531
0.000601149
0.000571531
0.000543557
0.000508467
0.000484632
0.00045047
0.000436784
0.000420772
0.000414293
0.000407494
0.000400438
0.00039566
0.00038855
0.00038439
0.000377808
0.000373132
0.000367622
0.000362797
0.000358589
0.00035283
0.000349253
0.000344687
0.000340545
0.000335954
0.000332061
0.000329023
0.000325005
0.000322379
0.000318912
0.000316264
0.000313891
0.000312216
0.000310029
0.000308658
0.000305623
0.000303471
0.000301546
0.000300633
0.000299315
0.000298093
0.000296972
0.000295955
0.000295037
0.000294212
0.000293477
0.000292832
0.000292267
0.000291322
0.000290926
0.000290961
0.000290294
0.000290415
0.000290312
0.000290105
0.000289636
0.00028979
0.000289275
0.000289415
0.000288778
0.000288568
0.000288448
0.000288311
0.000287299
0.000287022
0.000286504
0.000285145
0.000283973
0.000283055
0.000281245
0.000279063
0.000276716
0.000273067
0.000272673
1.48427e-06
0.000618568
0.000788985
0.000992877
0.00108026
0.00111381
0.00105128
0.00100779
0.000962567
0.000914098
0.000864659
0.000817739
0.000763688
0.000723433
0.000672273
0.00064444
0.000615941
0.000601321
0.000587841
0.000575078
0.000565425
0.000553645
0.000545053
0.000534894
0.000526323
0.000517909
0.000509627
0.000502606
0.000494566
0.000488151
0.000481259
0.000474967
0.000468718
0.000462934
0.000457778
0.000452466
0.000447985
0.00044345
0.000439507
0.000435959
0.000432934
0.000430049
0.000427914
0.000422838
0.000419245
0.000416806
0.000414864
0.000412871
0.00041102
0.000409321
0.000407771
0.000406369
0.0004051
0.00040396
0.000402947
0.000402051
0.000401076
0.000400412
0.000399922
0.000399311
0.000398958
0.000398694
0.000398327
0.000397993
0.000397737
0.000397343
0.000397078
0.000396535
0.000396177
0.000395605
0.000395321
0.00039433
0.000393554
0.000392801
0.000391355
0.000389791
0.000388212
0.000386144
0.000383323
0.00038023
0.000375378
0.000373847
3.00013e-06
0.000848183
0.00108628
0.00143846
0.00156881
0.00159866
0.00150638
0.00143502
0.00136429
0.0012915
0.00121877
0.00114965
0.00107417
0.00101455
0.000944566
0.000900233
0.000856771
0.000831312
0.000809048
0.000788881
0.000772723
0.000754977
0.000740948
0.000725925
0.000712744
0.000700285
0.000688023
0.000677435
0.000666198
0.000656565
0.000646771
0.000637796
0.000629173
0.00062105
0.000613575
0.000606386
0.000599902
0.000593796
0.000588279
0.000583326
0.000578909
0.000574984
0.000571998
0.000564414
0.000558898
0.000555504
0.000552527
0.000549689
0.000547054
0.000544635
0.000542426
0.000540423
0.000538603
0.000536964
0.000535496
0.000534193
0.000532951
0.00053196
0.000531052
0.000530289
0.000529579
0.00052912
0.000528559
0.000528183
0.00052765
0.000527203
0.000526666
0.000526042
0.000525521
0.000524618
0.000524171
0.000523028
0.000521862
0.000520845
0.000519131
0.00051712
0.000514962
0.000512436
0.0005089
0.000504936
0.000499012
0.000495298
5.88851e-06
0.00118326
0.00144578
0.00196647
0.00214642
0.00216545
0.00203953
0.00193627
0.00183742
0.00173824
0.00164022
0.00154675
0.00144782
0.00136649
0.00127571
0.00121271
0.00115194
0.0011129
0.00107953
0.00104999
0.00102555
0.00100031
0.000979552
0.000958312
0.000939498
0.000921855
0.000904776
0.000889747
0.000874405
0.000860913
0.000847533
0.000835238
0.00082355
0.000812547
0.000802343
0.000792723
0.000783902
0.000775753
0.000768315
0.000761648
0.000755643
0.000750364
0.000746389
0.000735871
0.000727873
0.0007231
0.000718938
0.000715055
0.00071145
0.000708146
0.000705122
0.00070238
0.000699882
0.00069763
0.000695604
0.000693803
0.000692135
0.000690743
0.000689425
0.000688381
0.000687333
0.000686635
0.000685842
0.000685327
0.000684564
0.000683972
0.000683212
0.000682415
0.000681715
0.000680519
0.000679889
0.000678512
0.000676985
0.000675676
0.000673601
0.000671095
0.000668365
0.000665263
0.000660953
0.000655991
0.000649145
0.000641938
1.10742e-05
0.00163091
0.00188342
0.00258218
0.00281728
0.00282117
0.00265809
0.00252018
0.0023915
0.0022645
0.00213964
0.00202002
0.00189574
0.00179052
0.00167685
0.00159294
0.00151248
0.00145701
0.00140988
0.00136864
0.00133387
0.00129927
0.00127015
0.00124114
0.00121536
0.00119124
0.00116822
0.0011477
0.00112722
0.001109
0.00109119
0.0010748
0.00105929
0.00104474
0.00103122
0.00101856
0.00100691
0.000996209
0.000986413
0.00097764
0.000969725
0.000962751
0.000957588
0.00094375
0.000932618
0.000925996
0.000920384
0.000915208
0.000910408
0.000906013
0.000901988
0.000898338
0.00089501
0.000892006
0.000889297
0.000886884
0.000884665
0.000882781
0.000881
0.000879577
0.000878157
0.000877163
0.000876094
0.000875381
0.000874388
0.000873602
0.000872622
0.000871607
0.000870709
0.000869222
0.000868387
0.000866741
0.000864847
0.000863218
0.000860739
0.000857697
0.000854372
0.00085062
0.000845496
0.00083941
0.000831868
0.000819498
1.96545e-05
0.00221193
0.00242662
0.00329851
0.00359368
0.00357869
0.0033747
0.00319967
0.00303973
0.00288375
0.00273072
0.00258332
0.00243182
0.0023006
0.00216181
0.00205464
0.00195199
0.00187708
0.00181321
0.00175752
0.00170996
0.00166375
0.00162426
0.00158561
0.00155116
0.00151901
0.00148863
0.00146131
0.00143447
0.00141041
0.00138713
0.00136567
0.00134544
0.0013265
0.00130891
0.0012925
0.00127737
0.0012635
0.0012508
0.00123942
0.00122916
0.00122008
0.00121346
0.00119596
0.00118095
0.0011719
0.00116447
0.00115769
0.00115141
0.00114568
0.00114042
0.00113566
0.00113131
0.00112738
0.00112384
0.00112067
0.00111777
0.00111529
0.00111295
0.00111106
0.0011092
0.00110784
0.00110644
0.00110548
0.00110424
0.00110322
0.00110201
0.00110075
0.00109964
0.00109785
0.00109679
0.00109486
0.00109259
0.00109062
0.00108772
0.00108411
0.00108016
0.00107572
0.00106976
0.00106243
0.00105455
0.00103492
3.24948e-05
0.00295809
0.00311384
0.00413318
0.00449249
0.00445456
0.00420539
0.00399076
0.0037983
0.0036124
0.00343008
0.00325344
0.00307293
0.00291363
0.0027474
0.00261451
0.00248701
0.00238951
0.00230562
0.00223226
0.00216901
0.00210841
0.00205611
0.00200551
0.0019603
0.00191821
0.00187867
0.00184294
0.0018082
0.00177692
0.00174686
0.00171914
0.00169306
0.0016687
0.00164608
0.00162502
0.00160559
0.0015878
0.00157152
0.0015569
0.00154374
0.00153203
0.00152359
0.0015021
0.0014824
0.00147019
0.00146045
0.00145167
0.00144358
0.00143618
0.00142941
0.00142328
0.00141768
0.00141262
0.00140804
0.00140396
0.00140023
0.001397
0.001394
0.00139152
0.00138913
0.00138732
0.00138552
0.00138427
0.00138275
0.00138147
0.00138001
0.00137848
0.00137714
0.00137505
0.00137374
0.00137154
0.00136888
0.00136656
0.00136324
0.00135907
0.00135448
0.00134932
0.00134256
0.00133386
0.00132617
0.00129678
4.97653e-05
0.00391002
0.00398204
0.00510819
0.00553444
0.00546855
0.00516934
0.00491254
0.00468649
0.00447001
0.00425756
0.00405048
0.0038393
0.00364997
0.00345393
0.00329275
0.00313755
0.00301416
0.00290667
0.00281199
0.00272963
0.00265136
0.00258324
0.00251788
0.00245931
0.00240489
0.00235397
0.00230781
0.00226328
0.00222303
0.00218457
0.00214907
0.00211575
0.00208467
0.00205581
0.00202898
0.00200424
0.00198157
0.00196083
0.00194218
0.0019254
0.0019104
0.00189964
0.00187391
0.00184861
0.00183235
0.00181965
0.00180837
0.00179802
0.00178858
0.00177994
0.00177211
0.00176497
0.00175851
0.00175268
0.00174747
0.0017427
0.00173857
0.00173475
0.00173155
0.00172852
0.00172616
0.00172388
0.00172226
0.00172044
0.00171887
0.00171714
0.00171533
0.00171375
0.00171137
0.00170979
0.00170734
0.00170431
0.00170163
0.00169793
0.00169321
0.001688
0.00168212
0.00167463
0.00166447
0.00165771
0.00161575
7.09091e-05
0.00511799
0.0050676
0.00624994
0.00674434
0.00664393
0.00628906
0.00598747
0.00572698
0.00547968
0.00523669
0.00499832
0.00475508
0.00453395
0.00430575
0.00411363
0.00392773
0.003775
0.00364007
0.00351999
0.00341459
0.00331477
0.00322721
0.00314369
0.00306854
0.00299888
0.0029338
0.00287471
0.002818
0.00276659
0.0027177
0.00267254
0.00263023
0.00259079
0.00255419
0.00252018
0.00248883
0.00246006
0.00243378
0.00241007
0.00238877
0.00236963
0.0023559
0.00232565
0.00229383
0.0022724
0.00225592
0.0022415
0.00222834
0.00221636
0.0022054
0.00219548
0.00218643
0.00217826
0.00217086
0.00216426
0.00215824
0.00215298
0.00214816
0.00214407
0.00214027
0.00213722
0.00213436
0.00213229
0.00213012
0.00212823
0.00212622
0.00212412
0.0021223
0.00211964
0.0021178
0.00211514
0.00211178
0.00210876
0.00210474
0.00209954
0.00209376
0.00208721
0.00207911
0.00206741
0.00206256
0.00200526
9.51472e-05
0.00664334
0.00641818
0.00758962
0.00815154
0.00800783
0.00759076
0.00724172
0.00694636
0.00666855
0.00639519
0.00612522
0.00584894
0.00559453
0.00533193
0.00510621
0.00488643
0.00470074
0.00453432
0.0043844
0.00425155
0.00412572
0.00401444
0.00390867
0.00381306
0.00372454
0.00364188
0.00356674
0.00349492
0.00342961
0.00336775
0.00331055
0.00325705
0.00320719
0.00316096
0.00311798
0.00307839
0.00304201
0.0030088
0.00297874
0.00295176
0.00292738
0.00290978
0.00287475
0.00283546
0.00280756
0.00278623
0.00276784
0.00275117
0.00273603
0.0027222
0.00270967
0.00269826
0.00268795
0.00267863
0.0026703
0.00266273
0.00265608
0.00265004
0.00264485
0.00264011
0.0026362
0.00263264
0.00263001
0.00262743
0.00262518
0.00262288
0.00262049
0.00261844
0.00261554
0.00261345
0.00261064
0.00260702
0.00260373
0.00259947
0.00259391
0.00258767
0.00258054
0.00257207
0.0025588
0.00255704
0.00248232
0.000122008
0.00856043
0.00809561
0.00916462
0.00978841
0.00959114
0.00910447
0.00870539
0.00837531
0.00806816
0.00776544
0.00746431
0.0071546
0.00686587
0.00656683
0.00630491
0.00604797
0.00582556
0.00562341
0.00543893
0.0052738
0.00511694
0.00497701
0.00484421
0.00472347
0.00461175
0.00450735
0.00441229
0.00432172
0.00423912
0.00416111
0.0040889
0.00402146
0.0039586
0.00390034
0.00384617
0.00379627
0.00375035
0.00370844
0.00367039
0.00363624
0.00360526
0.00358258
0.00354241
0.00349474
0.00345886
0.00343135
0.00340792
0.00338685
0.00336776
0.00335034
0.00333458
0.00332023
0.00330727
0.00329556
0.00328507
0.00327558
0.00326721
0.00325966
0.00325311
0.0032472
0.00324225
0.00323781
0.00323449
0.00323144
0.00322877
0.00322617
0.0032235
0.00322123
0.00321816
0.00321585
0.00321299
0.00320924
0.00320576
0.00320142
0.00319566
0.00318916
0.00318162
0.00317308
0.00315828
0.00316093
0.00306871
0.000151476
0.0109588
0.0101772
0.011021
0.0116807
0.0114222
0.0108599
0.0104094
0.0100466
0.00971324
0.0093838
0.00905326
0.00871071
0.00838739
0.00805033
0.00774985
0.00745253
0.00718958
0.00694738
0.00672342
0.0065209
0.00632758
0.00615347
0.00598819
0.0058369
0.00569681
0.00556565
0.00544601
0.00533225
0.00522816
0.00513009
0.00503919
0.00495438
0.0048753
0.00480202
0.00473384
0.00467105
0.00461314
0.0045603
0.00451218
0.00446897
0.00442961
0.00440026
0.00435441
0.00429752
0.00425198
0.00421665
0.00418683
0.00416022
0.00413617
0.00411428
0.00409448
0.00407647
0.00406021
0.00404551
0.00403234
0.00402047
0.00400995
0.00400052
0.00399228
0.00398494
0.00397868
0.00397315
0.00396896
0.00396533
0.00396218
0.00395926
0.00395632
0.00395388
0.00395073
0.00394827
0.00394547
0.00394175
0.00393823
0.00393401
0.00392832
0.00392181
0.00391411
0.00390594
0.00388972
0.00389813
0.00379215
0.00018384
0.0139458
0.0127579
0.0132164
0.0138336
0.013498
0.0128618
0.0123659
0.0119813
0.0116325
0.0112846
0.0109303
0.0105582
0.0102019
0.00982664
0.00948608
0.00914571
0.00883866
0.00855228
0.00828401
0.00803892
0.00780352
0.00758932
0.00738557
0.00719763
0.00702325
0.00685949
0.00670972
0.00656748
0.00643685
0.00631395
0.00619984
0.00609343
0.00599414
0.00590213
0.00581644
0.0057375
0.00566457
0.00559797
0.00553715
0.00548246
0.00543248
0.00539435
0.00534201
0.00527509
0.00521815
0.00517303
0.0051351
0.00510151
0.00507126
0.00504376
0.00501891
0.00499632
0.00497592
0.00495749
0.00494098
0.00492612
0.00491292
0.00490115
0.0048908
0.00488167
0.0048738
0.00486691
0.0048616
0.00485724
0.00485354
0.00485026
0.00484708
0.00484449
0.00484137
0.00483886
0.00483628
0.00483281
0.00482948
0.00482564
0.00482035
0.00481422
0.0048067
0.00479944
0.00478203
0.00479739
0.00468696
0.00022255
0.01765
0.0159528
0.0158225
0.0162421
0.0157777
0.0150676
0.014541
0.0141588
0.0138219
0.0134794
0.0131191
0.0127298
0.0123483
0.011939
0.0115598
0.0111758
0.0108225
0.0104888
0.0101721
0.00987975
0.00959695
0.00933678
0.0090884
0.00885734
0.00864218
0.0084393
0.00825306
0.0080762
0.00791309
0.00775971
0.00761698
0.00748385
0.00735951
0.00724421
0.00713673
0.00703762
0.00694588
0.00686202
0.00678521
0.006716
0.00665258
0.00660294
0.00654282
0.00646511
0.00639498
0.00633783
0.00628971
0.00624733
0.00620929
0.00617477
0.00614358
0.00611527
0.00608969
0.0060666
0.00604589
0.0060273
0.00601074
0.00599604
0.00598305
0.00597168
0.0059618
0.00595321
0.00594647
0.00594116
0.00593676
0.00593307
0.00592965
0.00592696
0.005924
0.00592158
0.0059194
0.00591646
0.0059136
0.00591047
0.005906
0.00590072
0.00589384
0.00588817
0.00586991
0.00589311
0.00579087
0.000900634
0.0222262
0.0198993
0.0189249
0.0189082
0.0182237
0.0174272
0.0168822
0.0165269
0.0162354
0.0159354
0.0156043
0.0152274
0.0148432
0.0144157
0.0140077
0.0135857
0.0131883
0.0128073
0.0124403
0.012098
0.0117639
0.0114528
0.0111543
0.0108739
0.0106115
0.0103627
0.0101332
0.00991501
0.00971276
0.00952245
0.00934486
0.00917906
0.00902395
0.00887995
0.00874552
0.0086214
0.00850628
0.00840083
0.008304
0.00821649
0.00813613
0.00807154
0.00800167
0.00791237
0.00782735
0.00775572
0.00769495
0.00764156
0.00759377
0.00755049
0.00751137
0.0074759
0.00744384
0.00741492
0.00738894
0.00736568
0.0073449
0.00732652
0.00731023
0.00729605
0.00728366
0.00727292
0.00726434
0.00725777
0.00725246
0.00724826
0.00724458
0.00724183
0.00723915
0.00723698
0.00723541
0.00723331
0.00723126
0.00722924
0.00722608
0.00722224
0.00721652
0.00721319
0.00719454
0.00722625
0.00712955
0.00295977
0.0278623
0.0247585
0.0226184
0.0218449
0.0208148
0.019906
0.0193482
0.0190367
0.0188172
0.0185944
0.0183322
0.0180089
0.0176608
0.0172483
0.0168369
0.0163959
0.0159667
0.0155464
0.0151336
0.0147433
0.0143578
0.0139938
0.0136419
0.0133077
0.0129927
0.0126919
0.0124127
0.0121466
0.0118984
0.0116644
0.0114452
0.0112401
0.0110478
0.010869
0.0107017
0.0105469
0.010403
0.0102709
0.0101492
0.0100389
0.00993734
0.00985357
0.00977117
0.00966925
0.00956782
0.00947922
0.00940302
0.00933601
0.0092761
0.00922192
0.00917295
0.00912857
0.00908843
0.00905223
0.00901966
0.00899055
0.00896449
0.00894151
0.00892109
0.00890336
0.00888785
0.0088744
0.00886346
0.00885519
0.00884867
0.00884374
0.00883972
0.00883691
0.00883463
0.00883287
0.00883213
0.0088312
0.00883034
0.00882987
0.00882855
0.00882676
0.00882281
0.0088226
0.00880405
0.0088448
0.00875157
0.00521028
0.0347792
0.0307129
0.0269882
0.0250687
0.0235391
0.0224799
0.0219093
0.0216525
0.0215225
0.0214015
0.0212401
0.021009
0.0207391
0.0203845
0.0200097
0.0195846
0.0191521
0.0187143
0.0182718
0.0178452
0.0174163
0.0170042
0.0166011
0.016213
0.0158435
0.0154874
0.0151542
0.0148349
0.014535
0.0142511
0.0139839
0.0137331
0.0134971
0.013277
0.0130705
0.012879
0.0127004
0.0125359
0.0123839
0.0122455
0.0121179
0.01201
0.0119113
0.0117954
0.0116763
0.0115684
0.0114739
0.0113903
0.0113156
0.011248
0.0111869
0.0111315
0.0110814
0.0110362
0.0109955
0.0109591
0.0109265
0.0108977
0.0108722
0.01085
0.0108306
0.0108138
0.0107998
0.0107892
0.010781
0.0107751
0.0107705
0.0107676
0.0107658
0.0107645
0.0107648
0.0107653
0.0107661
0.0107675
0.0107686
0.0107695
0.0107678
0.0107715
0.0107534
0.0108036
0.0107065
0.0077838
0.042999
0.0379338
0.0320628
0.0285841
0.0263837
0.0251257
0.0245395
0.0243447
0.0243159
0.0243128
0.0242739
0.0241639
0.0240071
0.02375
0.0234542
0.0230876
0.0226924
0.022273
0.0218315
0.0213944
0.020943
0.0204987
0.0200565
0.019623
0.0192044
0.0187956
0.018409
0.0180355
0.0176814
0.0173441
0.0170245
0.016723
0.0164379
0.0161709
0.0159195
0.0156853
0.0154661
0.0152635
0.0150755
0.0149035
0.0147445
0.0146072
0.0144878
0.014356
0.0142181
0.0140891
0.0139736
0.0138706
0.0137781
0.0136944
0.0136186
0.01355
0.0134877
0.0134315
0.0133808
0.0133355
0.0132948
0.013259
0.013227
0.0131994
0.0131752
0.0131542
0.0131364
0.0131228
0.0131123
0.0131048
0.0130995
0.0130961
0.0130947
0.013094
0.0130954
0.0130976
0.0131002
0.013104
0.0131078
0.0131118
0.0131129
0.0131208
0.0131035
0.0131631
0.0130526
0.0107619
0.0520121
0.046306
0.0377473
0.0323529
0.0293198
0.0278114
0.0272071
0.0270812
0.0271628
0.0272886
0.0273868
0.0274185
0.0274004
0.0272711
0.0270895
0.0268206
0.0265048
0.0261454
0.0257449
0.0253344
0.0248937
0.0244463
0.0239898
0.0235315
0.0230803
0.0226316
0.022201
0.02178
0.0213758
0.0209871
0.0206155
0.0202623
0.0199261
0.0196091
0.0193092
0.0190283
0.0187642
0.0185187
0.0182899
0.0180793
0.0178841
0.0177122
0.0175672
0.0174173
0.0172598
0.0171088
0.0169704
0.0168454
0.0167325
0.0166301
0.0165371
0.0164527
0.0163761
0.0163069
0.0162442
0.0161882
0.0161379
0.0160935
0.0160539
0.0160197
0.0159897
0.0159635
0.015941
0.0159236
0.01591
0.0159004
0.0158936
0.0158896
0.0158883
0.0158881
0.0158905
0.0158945
0.015899
0.0159052
0.0159119
0.0159193
0.0159233
0.0159355
0.0159185
0.0159868
0.0158546
0.0141808
0.0613818
0.0552984
0.0437704
0.0362378
0.0322765
0.0304843
0.029868
0.0298203
0.030021
0.0302836
0.0305291
0.0307186
0.0308582
0.0308795
0.0308388
0.030699
0.0304991
0.0302376
0.0299184
0.0295747
0.0291837
0.0287704
0.0283345
0.0278834
0.0274276
0.0269635
0.0265098
0.0260584
0.0256182
0.0251891
0.0247739
0.0243751
0.0239919
0.0236276
0.0232802
0.0229525
0.0226425
0.0223524
0.0220804
0.0218284
0.0215938
0.0213838
0.0212091
0.0210389
0.0208618
0.0206889
0.0205272
0.0203789
0.0202438
0.0201207
0.0200085
0.0199064
0.0198134
0.0197294
0.0196531
0.0195848
0.0195233
0.019469
0.0194206
0.0193786
0.0193418
0.0193098
0.0192816
0.0192594
0.0192419
0.0192293
0.0192205
0.0192152
0.0192137
0.0192136
0.0192169
0.0192223
0.0192287
0.0192372
0.0192466
0.0192571
0.0192635
0.0192793
0.0192617
0.0193369
0.0191778
0.0180632
0.0708137
0.0643989
0.0495899
0.0398912
0.035093
0.0330536
0.0324613
0.0325066
0.0328358
0.03324
0.0336391
0.034
0.0343124
0.0345018
0.0346232
0.0346379
0.0345843
0.0344527
0.0342506
0.034011
0.0337076
0.0333665
0.0329893
0.0325828
0.0321577
0.0317115
0.0312653
0.030811
0.030359
0.0299109
0.0294704
0.0290415
0.0286241
0.0282229
0.0278365
0.0274687
0.0271177
0.0267866
0.0264738
0.0261817
0.0259082
0.0256597
0.0254538
0.0252623
0.0250664
0.0248735
0.0246901
0.0245195
0.0243622
0.024218
0.0240858
0.0239652
0.023855
0.0237551
0.0236641
0.0235826
0.0235089
0.0234439
0.0233857
0.0233353
0.0232911
0.0232526
0.0232183
0.0231907
0.0231684
0.0231521
0.0231406
0.0231334
0.0231311
0.0231306
0.0231343
0.0231408
0.0231485
0.0231589
0.0231704
0.0231832
0.0231911
0.0232091
0.0231891
0.0232679
0.0230811
0.0224131
0.0800296
0.0729773
0.0551753
0.0431775
0.0377539
0.0355646
0.0350095
0.0351232
0.0355445
0.0360871
0.0366403
0.0371841
0.037679
0.0380489
0.0383493
0.0385405
0.0386603
0.0386857
0.0386329
0.0385313
0.0383494
0.0381158
0.0378345
0.03751
0.0371523
0.0367607
0.0363576
0.035934
0.035502
0.0350642
0.0346255
0.0341908
0.0337613
0.0333426
0.0329342
0.032541
0.0321618
0.0318003
0.0314559
0.0311311
0.0308248
0.0305428
0.0303083
0.0300973
0.0298854
0.0296766
0.0294758
0.0292866
0.0291101
0.0289469
0.0287963
0.0286584
0.0285317
0.0284166
0.0283115
0.028217
0.0281314
0.0280558
0.027988
0.0279293
0.0278778
0.0278329
0.0277924
0.0277593
0.0277321
0.0277118
0.0276972
0.0276876
0.0276841
0.0276828
0.0276864
0.0276935
0.0277019
0.0277134
0.0277262
0.0277402
0.0277481
0.0277665
0.0277417
0.0278198
0.027608
0.0272295
0.0886859
0.0805407
0.0616504
0.0473955
0.0409208
0.0385169
0.0379117
0.0379985
0.0384133
0.0389902
0.0396093
0.040251
0.0408644
0.0414141
0.0419041
0.0422889
0.0426062
0.0428101
0.042938
0.0430064
0.0429765
0.0428834
0.0427338
0.0425273
0.0422726
0.0419729
0.0416496
0.0412925
0.0409155
0.0405219
0.0401175
0.0397077
0.0392947
0.0388852
0.0384795
0.0380832
0.0376961
0.0373228
0.036963
0.0366202
0.0362939
0.0359898
0.0357351
0.0355104
0.0352883
0.0350703
0.0348593
0.0346585
0.0344691
0.0342926
0.0341283
0.0339772
0.0338376
0.0337104
0.0335937
0.0334887
0.0333933
0.033309
0.0332333
0.0331677
0.0331103
0.0330605
0.0330151
0.0329775
0.0329461
0.0329223
0.0329049
0.0328932
0.0328885
0.0328864
0.0328898
0.0328973
0.0329061
0.0329182
0.0329314
0.0329456
0.0329523
0.0329688
0.0329375
0.0330097
0.0327794
0.0325294
0.096343
0.0870771
0.0691653
0.0540938
0.0463001
0.0431646
0.0420517
0.0418126
0.0419956
0.0424133
0.0429419
0.0435348
0.0441453
0.0447426
0.045318
0.0458104
0.0462871
0.0466752
0.0470149
0.047281
0.0474277
0.0475062
0.0475248
0.0474701
0.0473524
0.0471828
0.0469766
0.0467222
0.0464368
0.0461238
0.0457892
0.0454385
0.0450752
0.0447065
0.0443335
0.0439626
0.0435943
0.0432339
0.0428818
0.0425421
0.0422154
0.041907
0.0416464
0.0414186
0.041196
0.0409785
0.0407674
0.0405652
0.0403727
0.0401919
0.0400223
0.0398653
0.0397196
0.0395864
0.0394638
0.0393534
0.0392527
0.0391638
0.0390841
0.0390153
0.0389552
0.0389035
0.0388561
0.0388168
0.0387834
0.0387583
0.0387398
0.0387274
0.0387227
0.0387208
0.038725
0.0387334
0.0387431
0.0387559
0.0387697
0.0387838
0.0387888
0.0388023
0.0387641
0.0388255
0.0385869
0.0383446
0.102532
0.0931161
0.0774628
0.063017
0.0545335
0.0502717
0.0481417
0.047185
0.0468502
0.0468755
0.0471167
0.047474
0.047923
0.0484041
0.0489229
0.0494036
0.0499027
0.0503567
0.0507932
0.051187
0.0515139
0.0517926
0.0520147
0.0521386
0.0521889
0.0521893
0.0521364
0.0520204
0.0518644
0.0516704
0.0514431
0.0511884
0.0509113
0.050619
0.050313
0.0500004
0.0496824
0.049365
0.0490493
0.0487397
0.0484379
0.048149
0.0479025
0.0476872
0.0474778
0.0472739
0.0470758
0.0468851
0.0467024
0.0465295
0.0463662
0.0462144
0.0460726
0.0459428
0.0458229
0.045715
0.0456167
0.0455301
0.0454528
0.0453866
0.0453295
0.045281
0.0452366
0.0452002
0.0451695
0.0451469
0.045131
0.0451213
0.0451196
0.0451206
0.0451278
0.0451394
0.045152
0.0451675
0.0451834
0.0451987
0.0452034
0.0452146
0.0451717
0.0452191
0.0449867
0.0446848
0.107153
0.0993012
0.0862207
0.0731441
0.0642632
0.0587917
0.0555552
0.0537761
0.0528376
0.0523875
0.052241
0.0522559
0.0524312
0.0526735
0.0530076
0.0533543
0.0537431
0.0541367
0.0545421
0.0549443
0.0553221
0.0556851
0.0560119
0.0563075
0.056549
0.0567608
0.056888
0.0569408
0.0569522
0.0569155
0.0568329
0.0567126
0.0565607
0.0563831
0.0561816
0.0559642
0.0557325
0.0554928
0.0552467
0.0549994
0.0547532
0.054513
0.0543056
0.0541233
0.0539455
0.0537721
0.0536032
0.05344
0.0532827
0.0531331
0.0529908
0.0528581
0.0527337
0.0526198
0.0525145
0.0524203
0.0523347
0.0522603
0.0521945
0.0521396
0.0520935
0.0520559
0.0520219
0.0519956
0.0519742
0.0519606
0.0519533
0.0519519
0.0519584
0.0519673
0.0519823
0.0520014
0.0520211
0.0520432
0.0520652
0.0520856
0.0520941
0.0521065
0.0520648
0.0520982
0.0518897
0.0515076
0.111534
0.10544
0.0949836
0.0833205
0.0733662
0.0665801
0.0626692
0.0604186
0.0591108
0.0583303
0.0578569
0.0575699
0.057483
0.0574773
0.0575823
0.0577292
0.0579325
0.0581775
0.058453
0.0587596
0.0590745
0.0594068
0.0597341
0.0600676
0.0603851
0.0606947
0.0609767
0.0612148
0.0614286
0.061578
0.0616692
0.0617182
0.0617292
0.0617036
0.0616445
0.0615607
0.0614536
0.0613292
0.0611898
0.0610411
0.0608858
0.0607284
0.06059
0.0604655
0.0603422
0.0602204
0.0601006
0.0599841
0.0598707
0.0597625
0.0596589
0.0595624
0.0594718
0.0593895
0.0593139
0.0592476
0.0591883
0.059139
0.059097
0.0590648
0.0590405
0.0590241
0.0590106
0.059004
0.0590015
0.059006
0.0590159
0.0590311
0.0590537
0.0590781
0.0591082
0.0591419
0.0591758
0.0592114
0.0592463
0.0592786
0.0592983
0.0593189
0.0592888
0.0593129
0.0591473
0.0587014
0.116332
0.111628
0.103319
0.0932984
0.0837977
0.0761401
0.0704332
0.0670287
0.0651119
0.0639584
0.0632693
0.0628418
0.0626252
0.0624617
0.0623761
0.0623355
0.0623606
0.0624391
0.0625473
0.0627003
0.0628786
0.0630953
0.0633353
0.0636048
0.0638922
0.0641951
0.0645068
0.0648109
0.0651154
0.0654009
0.0656663
0.0659077
0.0661062
0.0662561
0.0663686
0.0664512
0.0665025
0.0665282
0.0665315
0.0665177
0.0664898
0.0664517
0.0664145
0.0663757
0.0663329
0.0662872
0.0662395
0.0661916
0.0661436
0.0660975
0.0660528
0.0660122
0.0659746
0.0659425
0.0659145
0.0658934
0.065877
0.0658684
0.0658654
0.0658703
0.0658815
0.0658994
0.0659192
0.0659447
0.0659732
0.0660075
0.0660462
0.0660891
0.0661385
0.066189
0.0662445
0.0663029
0.066361
0.0664202
0.0664781
0.0665327
0.0665749
0.0666151
0.0666108
0.0666377
0.0665331
0.0660675
0.120469
0.117181
0.110862
0.102879
0.0947807
0.087551
0.081454
0.0766754
0.0730572
0.0706607
0.0692832
0.0684033
0.0678068
0.0673553
0.067084
0.0669177
0.0668488
0.0667962
0.0667436
0.0667314
0.0667483
0.0668111
0.0669127
0.0670549
0.0672339
0.0674432
0.0676834
0.067944
0.0682292
0.068528
0.0688398
0.069156
0.0694708
0.0697733
0.0700621
0.0703221
0.0705435
0.0707365
0.0709052
0.0710523
0.0711797
0.0712908
0.0713832
0.0714553
0.0715172
0.0715711
0.0716183
0.0716613
0.0717002
0.0717374
0.0717727
0.0718086
0.0718443
0.0718823
0.0719214
0.0719643
0.0720093
0.0720591
0.0721121
0.0721706
0.0722332
0.0723006
0.0723687
0.0724409
0.0725148
0.0725931
0.0726744
0.0727588
0.0728482
0.0729381
0.0730321
0.0731281
0.0732234
0.0733196
0.0734139
0.0735046
0.0735843
0.0736599
0.0736996
0.0737492
0.0737226
0.0733022
0.123926
0.121718
0.117294
0.111472
0.10499
0.0985668
0.0928377
0.0880156
0.0840335
0.0807938
0.0782391
0.0760874
0.0744039
0.073182
0.0724415
0.0719461
0.0715844