/*--------------------------------*- C++ -*----------------------------------*\
| =========                 |                                                 |
| \\      /  F ield         | OpenFOAM: The Open Source CFD Toolbox           |
|  \\    /   O peration     | Version:  5.x                                   |
|   \\  /    A nd           | Web:      www.OpenFOAM.org                      |
|    \\/     M anipulation  |                                                 |
\*---------------------------------------------------------------------------*/
FoamFile
{
    version     2.0;
    format      ascii;
    class       volScalarField;
    location    "750";
    object      p;
}
// * * * * * * * * * * * * * * * * * * * * * * * * * * * * * * * * * * * * * //

dimensions      [0 2 -2 0 0 0 0];

internalField   nonuniform List<scalar> 
41860
(
0.147514
52544
30198
93220.6
104253
114896
123356
130214
136134
141190
145584
149449
152955
156071
158969
161544
163985
166237
168341
170334
172190
173972
175655
177276
178828
180321
181767
183159
184520
185837
187133
188390
189635
190846
192052
193227
194399
195546
196693
197818
198947
200046
201063
201954
202839
203687
204529
205351
206153
206953
207725
208504
209251
210009
210739
211480
212196
212920
213627
214334
215032
215721
216420
217148
217873
218624
219376
220158
220947
221765
222613
223480
224394
225349
226349
227406
228550
229762
231143
232497
234544
235047
378.318
52557.1
30185.5
93164.6
104239
114883
123346
130206
136128
141185
145579
149446
152952
156068
158967
161542
163983
166235
168340
170333
172189
173971
175654
177275
178827
180321
181766
183158
184519
185836
187133
188390
189635
190845
192051
193226
194399
195546
196693
197818
198947
200045
201062
201954
202839
203687
204528
205351
206153
206953
207725
208503
209251
210009
210739
211479
212196
212920
213627
214334
215032
215721
216419
217148
217872
218624
219376
220158
220947
221765
222613
223480
224394
225349
226348
227406
228550
229761
231143
232497
234544
235044
950.179
52580.5
30180.8
93095.5
104223
114869
123334
130197
136120
141178
145574
149441
152948
156065
158964
161539
163981
166233
168338
170331
172187
173970
175653
177274
178826
180320
181765
183158
184519
185836
187133
188389
189635
190845
192051
193226
194398
195546
196693
197817
198947
200045
201062
201954
202839
203687
204528
205351
206153
206953
207725
208503
209251
210009
210739
211479
212196
212920
213627
214334
215032
215721
216419
217148
217872
218624
219376
220158
220947
221765
222613
223480
224394
225349
226348
227405
228549
229761
231143
232497
234545
235040
1654.19
52615.9
30185.1
93022.9
104208
114854
123323
130187
136112
141172
145569
149437
152944
156061
158961
161537
163979
166231
168336
170330
172186
173969
175652
177273
178825
180319
181765
183157
184518
185835
187132
188389
189634
190845
192051
193226
194398
195545
196693
197817
198946
200045
201062
201954
202839
203687
204528
205350
206153
206953
207724
208503
209251
210009
210739
211479
212196
212920
213626
214334
215032
215721
216419
217148
217872
218624
219376
220158
220947
221765
222613
223480
224394
225349
226348
227405
228549
229761
231143
232496
234545
235036
2540.39
52669.1
30199.8
92940.3
104191
114838
123310
130177
136104
141165
145563
149431
152940
156057
158958
161534
163976
166229
168334
170328
172184
173967
175651
177272
178824
180318
181764
183156
184518
185835
187132
188388
189634
190844
192050
193225
194398
195545
196692
197817
198946
200045
201062
201953
202838
203686
204528
205350
206153
206953
207724
208503
209251
210009
210739
211479
212196
212920
213626
214334
215032
215721
216419
217148
217872
218624
219376
220158
220947
221765
222612
223480
224394
225349
226348
227405
228549
229761
231143
232496
234545
235030
3659.04
52746.4
30229.1
92842.2
104172
114819
123295
130165
136093
141156
145556
149425
152935
156053
158954
161531
163974
166226
168332
170326
172183
173966
175650
177271
178823
180317
181763
183155
184517
185834
187131
188388
189633
190844
192050
193225
194397
195545
196692
197817
198946
200045
201062
201953
202838
203686
204528
205350
206153
206952
207724
208503
209251
210008
210738
211479
212196
212920
213626
214334
215032
215721
216419
217148
217872
218624
219376
220158
220947
221765
222612
223480
224394
225349
226348
227405
228549
229761
231143
232496
234545
235024
5044.88
52853.8
30276.4
92725
104150
114797
123278
130150
136081
141146
145547
149418
152928
156048
158949
161527
163970
166223
168330
170324
172181
173964
175648
177269
178822
180316
181762
183154
184516
185833
187130
188387
189633
190843
192049
193225
194397
195544
196692
197816
198946
200044
201061
201953
202838
203686
204528
205350
206152
206952
207724
208503
209250
210008
210738
211479
212196
212920
213626
214333
215032
215721
216419
217148
217872
218624
219376
220158
220947
221765
222612
223480
224394
225349
226348
227405
228549
229761
231143
232496
234546
235017
6736.98
52998.3
30345.4
92584.5
104124
114772
123257
130133
136067
141134
145537
149410
152921
156042
158944
161522
163966
166220
168326
170321
172178
173962
175646
177267
178820
180315
181761
183153
184515
185832
187129
188386
189632
190843
192049
193224
194396
195544
196691
197816
198945
200044
201061
201953
202838
203686
204527
205350
206152
206952
207724
208503
209250
210008
210738
211479
212196
212920
213626
214333
215032
215721
216419
217148
217872
218624
219376
220158
220947
221765
222612
223480
224394
225349
226348
227405
228549
229761
231143
232496
234546
235008
8784.81
53189.1
30441.1
92415.9
104094
114741
123233
130113
136050
141120
145525
149400
152912
156034
158938
161517
163961
166216
168323
170318
172175
173959
175644
177266
178819
180313
181759
183152
184514
185831
187128
188385
189631
190842
192048
193223
194396
195543
196691
197815
198945
200043
201060
201952
202837
203685
204527
205349
206152
206952
207724
208502
209250
210008
210738
211479
212195
212920
213626
214333
215031
215721
216419
217148
217872
218624
219376
220158
220947
221764
222612
223480
224394
225349
226348
227405
228549
229761
231143
232496
234546
234998
11247.3
53437.7
30571
92213.7
104059
114705
123203
130089
136029
141103
145511
149388
152902
156025
158930
161510
163956
166211
168319
170314
172172
173956
175641
177263
178817
180311
181757
183151
184512
185830
187127
188384
189630
190841
192047
193223
194395
195543
196690
197815
198944
200043
201060
201952
202837
203685
204527
205349
206152
206951
207723
208502
209250
210008
210738
211478
212195
212919
213626
214333
215031
215721
216419
217148
217872
218624
219376
220158
220947
221764
222612
223480
224394
225349
226348
227405
228549
229761
231143
232496
234546
234985
14192.3
53759.3
30744.3
91971.6
104017
114662
123169
130060
136005
141083
145494
149373
152890
156015
158921
161503
163949
166205
168314
170310
172168
173953
175638
177260
178814
180309
181755
183149
184511
185828
187126
188383
189629
190840
192046
193222
194394
195542
196690
197814
198944
200042
201059
201951
202836
203685
204526
205349
206151
206951
207723
208502
209250
210007
210738
211478
212195
212919
213626
214333
215031
215721
216419
217148
217872
218624
219376
220158
220947
221764
222612
223480
224394
225349
226348
227405
228549
229761
231143
232496
234546
234971
17696.7
54172.9
30972.5
91682.2
103967
114611
123128
130026
135977
141059
145474
149357
152876
156003
158911
161494
163941
166198
168308
170304
172164
173949
175635
177257
178811
180307
181753
183147
184509
185827
187124
188382
189628
190839
192045
193221
194393
195541
196689
197814
198943
200042
201059
201951
202836
203684
204526
205348
206151
206951
207723
208502
209249
210007
210737
211478
212195
212919
213625
214333
215031
215720
216419
217147
217872
218624
219376
220158
220947
221764
222612
223480
224394
225349
226348
227405
228549
229761
231143
232495
234546
234954
21846.9
54703.5
31270.3
91337.2
103908
114551
123079
129986
135943
141031
145451
149337
152859
155988
158898
161483
163932
166190
168301
170298
172158
173944
175630
177254
178808
180304
181751
183144
184507
185825
187123
188380
189626
190838
192044
193220
194392
195540
196688
197813
198942
200041
201058
201950
202835
203684
204525
205348
206150
206950
207722
208501
209249
210007
210737
211478
212195
212919
213625
214333
215031
215720
216419
217147
217872
218624
219376
220158
220947
221764
222612
223480
224394
225349
226348
227405
228549
229761
231143
232495
234546
234935
26738.8
55383.3
31656.4
90927.2
103838
114480
123022
129938
135903
140998
145423
149313
152838
155971
158883
161471
163921
166181
168292
170291
172152
173939
175626
177249
178804
180300
181748
183142
184504
185823
187121
188379
189625
190836
192043
193219
194391
195539
196687
197812
198942
200041
201057
201949
202835
203683
204525
205347
206150
206950
207722
208501
209249
210006
210737
211477
212194
212919
213625
214332
215031
215720
216419
217147
217872
218624
219376
220157
220947
221764
222612
223480
224394
225349
226348
227405
228549
229761
231143
232495
234546
234913
32476.1
56254.8
32154.7
90441.7
103754
114397
122954
129882
135855
140959
145390
149285
152815
155951
158866
161456
163908
166170
168283
170283
172145
173932
175620
177244
178800
180296
181744
183138
184502
185820
187118
188376
189623
190834
192041
193217
194390
195538
196686
197811
198941
200040
201057
201949
202834
203682
204524
205347
206149
206949
207721
208500
209248
210006
210736
211477
212194
212918
213625
214332
215031
215720
216419
217147
217872
218624
219376
220157
220947
221764
222612
223480
224394
225349
226348
227405
228549
229761
231143
232495
234546
234888
39169
57373.1
32796.3
89869.3
103655
114300
122874
129816
135799
140912
145351
149252
152787
155927
158845
161438
163893
166157
168272
170273
172136
173925
175613
177238
178794
180292
181740
183135
184498
185817
187116
188374
189621
190833
192039
193216
194388
195537
196685
197810
198940
200039
201056
201948
202833
203682
204523
205346
206149
206949
207721
208500
209248
210006
210736
211477
212194
212918
213625
214332
215031
215720
216419
217147
217872
218624
219376
220157
220947
221764
222612
223480
224394
225349
226348
227405
228549
229761
231143
232494
234545
234862
46930
58810.4
33621.6
89197.9
103535
114187
122780
129738
135733
140858
145306
149214
152754
155899
158821
161418
163875
166141
168258
170261
172126
173916
175605
177232
178788
180287
181735
183131
184495
185814
187113
188371
189618
190830
192037
193214
194387
195535
196683
197809
198939
200038
201055
201947
202832
203681
204523
205345
206148
206948
207720
208499
209248
210005
210736
211476
212194
212918
213624
214332
215030
215720
216419
217147
217872
218624
219376
220158
220947
221764
222612
223480
224394
225349
226348
227405
228549
229761
231143
232494
234544
234833
55868.9
60660.6
34683.8
88416.2
103390
114055
122670
129646
135656
140793
145252
149168
152715
155866
158793
161394
163855
166124
168243
170248
172115
173906
175597
177224
178782
180280
181730
183126
184490
185810
187109
188368
189616
190828
192035
193212
194385
195534
196682
197807
198937
200037
201053
201946
202831
203680
204522
205345
206148
206948
207720
208499
209247
210005
210735
211476
212193
212917
213624
214332
215030
215720
216419
217147
217872
218624
219376
220158
220947
221765
222613
223480
224394
225349
226349
227406
228550
229761
231143
232494
234542
234802
66083.5
63045.3
36053
87515.8
103213
113903
122540
129538
135565
140718
145189
149115
152670
155828
158760
161366
163830
166103
168225
170232
172101
173894
175586
177215
178774
180274
181724
183120
184486
185806
187106
188365
189612
190825
192033
193210
194383
195532
196680
197806
198936
200036
201052
201945
202830
203679
204521
205344
206147
206947
207719
208498
209247
210004
210735
211476
212193
212917
213624
214332
215030
215720
216419
217147
217872
218624
219376
220158
220947
221765
222613
223481
224395
225350
226349
227406
228550
229762
231144
232493
234543
234767
77647.5
66119.6
37823
86495.2
102994
113728
122389
129412
135458
140630
145115
149053
152617
155783
158721
161333
163802
166079
168204
170214
172086
173880
175574
177204
178765
180266
181717
183114
184480
185801
187101
188361
189609
190822
192030
193207
194381
195530
196678
197804
198934
200034
201051
201943
202829
203678
204520
205343
206146
206946
207719
208498
209246
210004
210735
211475
212193
212917
213624
214331
215030
215721
216419
217148
217873
218624
219377
220158
220948
221765
222613
223481
224395
225350
226350
227407
228551
229762
231145
232493
234545
234736
90599.3
70078.7
40118.7
85365.2
102726
113529
122214
129265
135333
140527
145029
148981
152555
155731
158677
161296
163770
166051
168181
170193
172068
173865
175561
177193
178754
180257
181709
183107
184474
185796
187097
188357
189605
190819
192027
193205
194378
195528
196676
197803
198933
200033
201050
201942
202828
203677
204519
205342
206145
206946
207718
208497
209246
210003
210735
211475
212193
212917
213624
214331
215030
215721
216420
217148
217873
218625
219377
220159
220948
221766
222614
223482
224396
225351
226351
227407
228551
229763
231145
232493
234547
234717
104934
75163.4
43106.9
84158.5
102395
113308
122014
129096
135189
140408
144930
148898
152484
155671
158625
161252
163732
166019
168153
170170
172048
173847
175546
177180
178743
180247
181700
183100
184468
185790
187091
188353
189601
190816
192024
193202
194376
195526
196674
197801
198931
200032
201048
201941
202826
203676
204518
205341
206145
206945
207718
208497
209246
210003
210735
211475
212193
212917
213624
214332
215031
215722
216421
217149
217874
218626
219378
220160
220949
221767
222615
223483
224397
225352
226352
227409
228552
229764
231146
232492
234550
234711
120585
81663.6
47009.1
82944.7
101990
113066
121791
128904
135024
140271
144816
148802
152403
155603
158567
161203
163690
165982
168122
170143
172025
173828
175528
177165
178730
180236
181691
183091
184460
185784
187086
188348
189597
190812
192020
193199
194373
195524
196672
197799
198930
200031
201047
201940
202825
203675
204517
205341
206144
206944
207718
208496
209246
210003
210735
211475
212193
212917
213624
214332
215031
215723
216422
217150
217875
218627
219379
220161
220951
221768
222616
223484
224398
225354
226353
227410
228554
229765
231147
232492
234553
234722
137369
89907.8
52115.4
81852.3
101503
112811
121547
128689
134838
140117
144687
148694
152311
155526
158500
161147
163642
165941
168088
170113
172000
173806
175510
177149
178716
180224
181681
183083
184453
185777
187080
188343
189593
190808
192017
193197
194371
195522
196670
197798
198928
200030
201046
201939
202824
203675
204517
205340
206144
206944
207718
208496
209246
210003
210735
211475
212193
212917
213625
214332
215032
215724
216423
217151
217877
218628
219381
220162
220952
221770
222618
223486
224400
225355
226355
227412
228555
229766
231149
232492
234557
234753
154940
100226
58794.2
81105.3
100940
112552
121295
128456
134634
139946
144544
148574
152209
155440
158426
161085
163589
165896
168050
170080
171972
173782
175489
177131
178701
180211
181670
183073
184445
185770
187074
188338
189588
190805
192014
193194
194368
195520
196669
197797
198927
200030
201045
201938
202823
203674
204516
205340
206144
206944
207718
208496
209246
210003
210736
211475
212194
212918
213626
214333
215033
215726
216425
217153
217879
218630
219383
220164
220955
221772
222620
223489
224402
225358
226357
227414
228557
229768
231150
232492
234561
234801
172764
112879
67488.2
81070.5
100348
112310
121055
128217
134416
139762
144389
148445
152097
155347
158346
161018
163532
165848
168009
170045
171943
173757
175468
177113
178686
180198
181659
183064
184437
185764
187069
188334
189585
190802
192011
193192
194367
195519
196667
197796
198926
200030
201045
201938
202823
203675
204516
205340
206144
206944
207719
208496
209247
210004
210737
211476
212195
212919
213627
214335
215035
215728
216428
217156
217882
218633
219386
220167
220958
221775
222623
223492
224405
225360
226360
227416
228559
229770
231151
232492
234563
234862
190111
127930
78678.9
82305.9
99858.8
112115
120868
127994
134199
139574
144230
148310
151981
155250
158263
160949
163473
165798
167968
170010
171914
173733
175447
177096
178672
180186
181649
183056
184431
185759
187064
188331
189582
190800
192009
193191
194366
195518
196667
197796
198926
200031
201045
201939
202823
203675
204517
205341
206145
206945
207720
208497
209249
210005
210738
211477
212197
212920
213629
214337
215038
215732
216432
217159
217886
218636
219390
220171
220961
221779
222627
223495
224408
225364
226363
227419
228562
229772
231152
232491
234563
234933
206101
145070
92794
85582.7
99765.1
112029
120792
127832
134008
139399
144078
148181
151868
155156
158181
160882
163416
165749
167928
169976
171886
173710
175428
177081
178659
180177
181642
183050
184426
185755
187062
188330
189581
190800
192009
193192
194366
195520
196668
197798
198928
200033
201047
201940
202824
203677
204519
205343
206148
206947
207722
208499
209251
210007
210741
211480
212200
212923
213632
214340
215041
215736
216437
217163
217891
218641
219395
220175
220966
221783
222631
223500
224413
225368
226367
227423
228565
229775
231153
232491
234558
235014
219821
163463
110020
91850.6
100611
112177
120902
127802
133885
139263
143954
148073
151771
155074
158109
160823
163367
165708
167895
169949
171865
173693
175415
177070
178651
180171
181638
183048
184425
185756
187063
188331
189583
190803
192012
193195
194369
195523
196671
197801
198931
200038
201050
201944
202827
203681
204522
205346
206151
206950
207726
208502
209255
210010
210745
211483
212204
212927
213636
214344
215046
215742
216443
217169
217897
218646
219401
220181
220972
221789
222637
223506
224418
225373
226372
227427
228568
229777
231152
232489
234546
235102
230543
181741
130014
102069
103298
112852
121301
128001
133906
139212
143888
148010
151709
155020
158061
160785
163335
165683
167876
169934
171855
173686
175411
177069
178652
180174
181642
183053
184431
185762
187069
188339
189590
190811
192019
193203
194376
195530
196678
197808
198937
200045
201056
201950
202832
203687
204527
205352
206157
206955
207732
208507
209261
210015
210751
211488
212210
212932
213642
214350
215052
215749
216451
217177
217905
218654
219409
220188
220980
221797
222644
223513
224424
225379
226378
227432
228571
229778
231149
232487
234523
235194
238024
198343
151651
116816
109070
114687
122187
128558
134187
139323
143929
148027
151710
155019
158055
160782
163334
165684
167882
169941
171865
173698
175424
177083
178667
180189
181658
183069
184447
185778
187084
188354
189604
190826
192032
193216
194389
195543
196689
197820
198947
200056
201066
201959
202841
203696
204536
205360
206165
206963
207740
208515
209269
210022
210759
211495
212218
212939
213650
214358
215061
215759
216462
217187
217916
218664
219420
220198
220990
221806
222653
223522
224432
225386
226384
227436
228573
229778
231142
232481
234485
235283
242604
211978
173057
135728
119189
118800
124022
129669
134883
139726
144165
148183
151819
155103
158119
160839
163384
165730
167926
169982
171906
173737
175462
177120
178703
180224
181691
183101
184478
185808
187113
188382
189630
190851
192056
193239
194409
195563
196708
197838
198964
200074
201082
201974
202854
203710
204548
205372
206178
206974
207752
208525
209281
210033
210770
211505
212228
212949
213661
214369
215072
215772
216476
217200
217929
218676
219433
220210
221002
221817
222664
223532
224441
225394
226390
227441
228574
229776
231131
232471
234428
235357
245019
222093
192116
157100
134186
126602
127732
131734
136211
140594
144735
148577
152105
155325
158295
160987
163512
165842
168028
170075
171993
173818
175538
177191
178769
180288
181751
183158
184531
185859
187161
188428
189673
190891
192093
193275
194443
195595
196737
197866
198990
200099
201105
201996
202875
203730
204568
205391
206196
206991
207770
208541
209297
210048
210786
211520
212243
212963
213675
214384
215088
215789
216493
217216
217946
218693
219449
220225
221017
221832
222677
223545
224452
225403
226397
227444
228572
229770
231111
232452
234346
235400
246023
229025
207290
178156
153028
139052
134648
135579
138577
142169
145823
149353
152678
155766
158643
161275
163755
166052
168214
170241
172145
173956
175666
177310
178879
180391
181847
183249
184616
185939
187235
188497
189738
190953
192150
193329
194492
195642
196780
197907
199028
200137
201139
202029
202905
203759
204596
205417
206222
207016
207794
208564
209320
210069
210807
211540
212264
212983
213695
214403
215108
215811
216516
217238
217968
218713
219469
220245
221036
221849
222693
223559
224464
225413
226403
227446
228566
229757
231081
232418
234232
235394
246159
233540
218219
196188
173040
155583
145781
142413
142789
144905
147708
150709
153691
156548
159259
161777
164172
166406
168522
170511
172388
174175
175865
177492
179047
180546
181991
183383
184740
186055
187344
188599
189833
191042
192233
193406
194565
195710
196844
197967
199083
200189
201189
202075
202948
203801
204635
205455
206258
207050
207828
208596
209351
210099
210837
211568
212291
213010
213722
214430
215135
215839
216545
217266
217996
218740
219495
220269
221058
221870
222712
223576
224477
225422
226407
227443
228554
229734
231034
232362
234080
235318
245756
236305
225488
209848
191134
173796
160682
153064
149916
149628
150924
152985
155374
157838
160277
162601
164849
166974
169007
170931
172759
174505
176163
177762
179292
180772
182198
183575
184918
186221
187497
188743
189966
191167
192349
193515
194666
195804
196932
198049
199160
200262
201257
202140
203008
203858
204690
205507
206309
207098
207874
208640
209394
210140
210876
211606
212329
213046
213758
214466
215171
215875
216583
217302
218031
218773
219527
220299
221086
221895
222734
223594
224491
225429
226407
227434
228531
229695
230965
232274
233882
235155
245014
237838
230046
219226
205396
190704
177166
166922
160461
157214
156282
156790
158146
159923
161900
163902
165912
167858
169753
171570
173314
174993
176597
178151
179644
181092
182490
183844
185165
186450
187709
188939
190149
191337
192508
193662
194804
195933
197051
198161
199264
200361
201349
202227
203090
203937
204765
205578
206377
207163
207936
208699
209451
210195
210930
211657
212378
213094
213805
214512
215217
215922
216629
217347
218075
218815
219567
220335
221119
221925
222759
223614
224504
225434
226401
227415
228493
229635
230865
232141
233628
234891
244057
238514
232752
225215
215464
204277
192509
181902
173540
167762
164377
162835
162638
163292
164482
165939
167553
169209
170882
172529
174138
175709
177227
178709
180143
181541
182898
184216
185505
186762
187997
189205
190395
191565
192720
193860
194987
196103
197210
198310
199402
200490
201472
202343
203199
204040
204863
205672
206466
207248
208018
208777
209527
210267
210999
211724
212443
213157
213866
214571
215276
215980
216688
217404
218129
218866
219614
220379
221158
221959
222786
223633
224514
225432
226385
227380
228434
229544
230725
231950
233310
234522
242968
238608
234233
228847
222027
213985
204849
195589
187118
180098
174874
171357
169356
168510
168531
169121
170087
171267
172581
173956
175353
176756
178138
179509
180851
182173
183465
184729
185971
187187
188386
189563
190725
191870
193002
194121
195229
196329
197420
198504
199584
200660
201631
202493
203342
204175
204992
205794
206582
207359
208124
208879
209624
210360
211088
211810
212526
213236
213943
214647
215349
216052
216758
217472
218193
218926
219670
220429
221202
221996
222814
223651
224519
225421
226354
227325
228345
229414
230536
231693
232921
234050
241808
238318
234911
230938
226084
220391
213719
206470
199150
192294
186383
181627
178133
175782
174438
173888
173924
174381
175133
176077
177141
178281
179455
180656
181859
183064
184259
185441
186613
187769
188915
190046
191168
192277
193376
194466
195549
196624
197694
198759
199820
200879
201837
202689
203526
204349
205157
205951
206732
207502
208260
209008
209748
210478
211202
211919
212630
213337
214040
214740
215440
216140
216844
217553
218270
218997
219735
220487
221251
222034
222840
223663
224514
225396
226303
227242
228221
229238
230290
231364
232463
233486
240630
237790
235074
232048
228489
224406
219623
214265
208533
202716
197175
192172
187942
184561
182053
180361
179340
178885
178869
179191
179756
180497
181352
182295
183288
184320
185370
186431
187500
188567
189637
190702
191765
192822
193876
194926
195971
197014
198054
199092
200128
201165
202105
202941
203764
204575
205371
206154
206924
207684
208434
209174
209905
210629
211345
212056
212761
213462
214160
214855
215551
216246
216945
217649
218359
219079
219808
220550
221303
222073
222863
223667
224496
225351
226226
227125
228055
229011
229983
230964
231940
232848
239481
237138
234927
232555
229861
226852
223387
219492
215218
210679
206068
201570
197392
193681
190542
188047
186136
184798
183950
183530
183455
183653
184059
184627
185312
186087
186925
187807
188725
189665
190624
191593
192573
193557
194547
195539
196534
197530
198529
199530
200532
201538
202452
203269
204073
204866
205646
206414
207171
207918
208655
209384
210105
210819
211526
212228
212925
213618
214308
214997
215685
216374
217065
217761
218462
219172
219889
220617
221355
222108
222878
223658
224459
225281
226116
226968
227840
228726
229615
230499
231359
232156
238411
236449
234614
232699
230589
228291
225705
222830
219664
216238
212634
208947
205304
201834
198640
195849
193451
191509
189995
188901
188182
187786
187665
187769
188055
188489
189037
189674
190382
191142
191947
192783
193647
194531
195431
196345
197270
198204
199147
200097
201054
202018
202899
203688
204467
205237
205995
206744
207482
208212
208934
209648
210355
211055
211751
212440
213126
213809
214489
215167
215845
216524
217204
217889
218578
219273
219975
220686
221404
222135
222880
223631
224399
225181
225970
226768
227577
228390
229195
229985
230743
231442
237464
235786
234225
232630
230913
229083
227069
224864
222455
219844
217058
214139
211149
208176
205284
202597
200121
197944
196075
194544
193345
192454
191853
191502
191372
191430
191647
191993
192447
192987
193599
194268
194985
195740
196528
197342
198178
199034
199905
200792
201691
202603
203442
204197
204944
205684
206416
207140
207856
208564
209266
209962
210651
211335
212015
212690
213361
214030
214696
215361
216026
216691
217358
218028
218701
219380
220063
220753
221448
222153
222868
223587
224317
225056
225796
226539
227286
228028
228756
229463
230136
230756
236646
235185
233827
232463
231021
229511
227879
226121
224224
222178
219991
217679
215268
212808
210333
207940
205631
203490
201537
199820
198357
197146
196195
195479
194990
194703
194596
194647
194833
195132
195530
196009
196558
197163
197818
198515
199246
200007
200795
201606
202437
203287
204075
204789
205499
206204
206904
207598
208287
208970
209648
210321
210990
211654
212315
212972
213626
214278
214928
215577
216225
216874
217524
218177
218831
219489
220151
220818
221487
222163
222847
223531
224221
224916
225608
226298
226985
227663
228322
228959
229563
230120
235941
234650
233452
232262
231023
229743
228382
226936
225393
223745
221991
220135
218184
216170
214103
212052
210013
208053
206191
204473
202929
201567
200413
199455
198701
198137
197754
197537
197467
197530
197708
197987
198354
198796
199304
199867
200479
201134
201824
202548
203299
204077
204806
205472
206138
206802
207465
208125
208781
209435
210085
210732
211376
212017
212655
213291
213925
214556
215187
215816
216446
217075
217705
218337
218970
219605
220242
220883
221524
222169
222819
223466
224117
224768
225413
226051
226683
227303
227903
228480
229027
229532
235330
234177
233109
232056
230973
229867
228705
227487
226201
224841
223402
221885
220290
218634
216917
215188
213436
211710
210025
208417
206917
205536
204306
203225
202309
201556
200966
200534
200247
200097
200070
200156
200342
200616
200969
201392
201875
202411
202995
203620
204283
204979
205641
206252
206867
207485
208104
208724
209344
209963
210581
211198
211813
212427
213040
213650
214260
214868
215476
216083
216690
217297
217904
218512
219120
219730
220340
220952
221563
222176
222790
223400
224010
224618
225217
225807
226388
226957
227504
228030
228528
228991
234800
233763
232801
231859
230901
229930
228923
227876
226783
225637
224434
223172
221848
220473
219042
217589
216100
214611
213129
211682
210296
208981
207767
206657
205672
204816
204095
203512
203061
202739
202538
202452
202470
202585
202786
203067
203417
203831
204301
204822
205387
205994
206582
207131
207690
208255
208826
209401
209979
210560
211141
211723
212306
212889
213472
214054
214636
215218
215799
216381
216962
217543
218124
218705
219286
219868
220449
221030
221608
222187
222766
223338
223908
224474
225029
225574
226109
226630
227132
227613
228070
228497
234338
233399
232528
231679
230822
229961
229075
228164
227220
226238
225215
224148
223033
221878
220676
219450
218187
216912
215628
214355
213112
211906
210766
209693
208708
207819
207035
206364
205805
205360
205026
204799
204676
204648
204711
204857
205080
205372
205727
206140
206605
207118
207626
208109
208606
209114
209632
210157
210689
211226
211767
212310
212857
213405
213954
214504
215056
215607
216159
216712
217264
217816
218369
218921
219472
220023
220572
221121
221666
222210
222752
223286
223817
224342
224856
225359
225851
226330
226791
227233
227654
228048
233936
233081
232287
231518
230746
229975
229189
228385
227560
226708
225825
224911
223960
222979
221958
220917
219843
218751
217645
216537
215442
214363
213323
212325
211386
210515
209722
209017
208400
207880
207455
207126
206892
206749
206693
206721
206826
207004
207249
207557
207921
208338
208765
209179
209610
210057
210518
210991
211473
211962
212459
212960
213466
213976
214489
215004
215521
216039
216559
217079
217600
218121
218641
219162
219681
220199
220715
221230
221741
222249
222754
223251
223744
224230
224704
225168
225621
226062
226485
226892
227281
227647
233584
232803
232077
231376
230677
229982
229278
228564
227835
227087
226317
225525
224705
223861
222987
222095
221175
220239
219287
218327
217370
216417
215488
214582
213714
212893
212127
211427
210795
210241
209764
209370
209058
208828
208680
208609
208615
208692
208837
209046
209314
209639
209984
210328
210693
211078
211480
211897
212326
212766
213215