/*--------------------------------*- C++ -*----------------------------------*\
| =========                 |                                                 |
| \\      /  F ield         | OpenFOAM: The Open Source CFD Toolbox           |
|  \\    /   O peration     | Version:  5.x                                   |
|   \\  /    A nd           | Web:      www.OpenFOAM.org                      |
|    \\/     M anipulation  |                                                 |
\*---------------------------------------------------------------------------*/
FoamFile
{
    version     2.0;
    format      ascii;
    class       volScalarField;
    location    "750";
    object      p;
}
// * * * * * * * * * * * * * * * * * * * * * * * * * * * * * * * * * * * * * //

dimensions      [0 2 -2 0 0 0 0];

internalField   nonuniform List<scalar> 
11040
(
-0.000305513
-53.787
-181.631
-216.397
-228.117
-235.299
-236.156
-230.658
-220.658
-206.755
-188.707
-161.045
-134.436
-115.437
-102.081
-87.8496
-73.4154
-59.786
-46.8834
-34.4369
-22.4073
-12.0359
-3.3853
4.68715
12.2183
19.2141
25.6645
31.5549
36.8526
41.5037
45.4408
48.6171
51.0524
52.8264
54.089
54.9346
55.1815
54.8695
54.9342
57.0773
56.9538
19.1699
-32.8883
-115.261
-157.442
-179.684
-196.023
-205.664
-207.892
-204.102
-195.237
-181.433
-158.462
-134.295
-115.628
-101.982
-87.9141
-73.641
-60.0795
-47.216
-34.7999
-22.7881
-12.4383
-3.76766
4.32434
11.8765
18.8967
25.3764
31.3013
36.6369
41.327
45.3058
48.5266
51.001
52.7979
54.0762
54.9493
55.2259
54.8912
54.7302
56.3251
55.8964
31.9309
-18.6048
-77.9564
-127.331
-156.856
-176.439
-188.638
-193.305
-191.693
-184.884
-173.446
-154.382
-132.557
-114.331
-100.638
-87.0946
-73.2218
-59.8662
-47.1448
-34.8427
-22.9125
-12.6017
-3.95093
4.12776
11.6731
18.6934
25.1805
31.1194
36.4743
41.1894
45.2003
48.458
50.966
52.7893
54.0832
54.9773
55.2824
54.9657
54.7194
55.8782
55.2528
40.7768
-4.41966
-48.9038
-94.0043
-125.448
-147.801
-163.724
-172.599
-174.835
-171.444
-163.261
-148.303
-129.4
-112.204
-98.6876
-85.7336
-72.3805
-59.3372
-46.8381
-34.7142
-22.9154
-12.6888
-4.08679
3.9601
11.4849
18.4945
24.9808
30.9276
36.2987
41.0388
45.0837
48.3816
50.9305
52.7891
54.1015
55.0049
55.3292
55.0328
54.7439
55.6161
55.1023
47.6698
8.91582
-25.6438
-64.2589
-95.8801
-120.089
-138.481
-150.554
-156.205
-156.148
-151.253
-140.362
-124.86
-109.239
-96.1253
-83.7866
-71.0802
-58.4756
-46.2884
-34.4186
-22.8185
-12.7276
-4.2073
3.78004
11.261
18.2409
24.7118
30.6562
36.0377
40.8021
44.8854
48.2348
50.8415
52.7545
54.1013
55.0167
55.3619
55.099
54.7843
55.5188
55.3232
52.8725
20.5507
-7.01895
-39.0727
-68.3869
-92.6246
-112.25
-126.722
-135.457
-138.722
-137.219
-130.356
-118.563
-105.074
-92.7543
-81.1432
-69.2186
-57.1941
-45.4206
-33.8878
-22.5606
-12.6589
-4.26367
3.62569
11.0298
17.9516
24.3829
30.3054
35.683
40.4632
44.5839
47.9917
50.6712
52.6599
54.0633
55.0049
55.3862
55.1902
54.8877
55.5817
55.7234
56.7859
30.2824
7.90324
-18.3139
-43.9584
-66.7064
-86.2636
-101.992
-113.031
-119.23
-120.988
-117.984
-110.066
-99.2893
-88.3185
-77.6599
-66.6693
-55.387
-44.1563
-33.0606
-22.0917
-12.4439
-4.22656
3.52008
10.8082
17.6363
23.9963
29.8696
35.2215
40.0021
44.1531
47.6218
50.3866
52.4731
53.9616
54.9575
55.4052
55.3221
55.0957
55.7908
56.2481
59.7279
38.1614
19.8292
-1.47734
-23.0912
-43.3438
-61.7174
-77.5338
-89.8672
-98.2693
-102.825
-103.278
-99.1374
-91.4803
-82.4419
-73.0799
-63.2297
-52.8896
-42.3704
-31.8401
-21.3384
-12.0283
-4.05376
3.49547
10.6194
17.3098
23.5577
29.3448
34.6389
39.3947
43.5593
47.0832
49.9405
52.1453
53.7532
54.8481
55.4126
55.5016
55.4257
56.1716
56.8944
61.9238
44.3957
29.3054
12.022
-5.7943
-23.1164
-39.5305
-54.4382
-67.0147
-76.6897
-83.3083
-86.5807
-85.826
-81.3967
-74.7571
-67.093
-58.6424
-49.4803
-39.8847
-30.0856
-20.1863
-11.3164
-3.6638
3.61806
10.5167
17.0151
23.1008
28.755
33.9483
38.6413
42.7887
46.3477
49.2916
51.6256
53.3856
54.635
55.3859
55.7233
55.8836
56.7612
57.6531
63.5336
49.2521
36.7904
22.7681
8.26174
-6.14859
-20.2371
-33.5692
-45.5019
-55.4994
-63.2881
-68.5467
-70.5183
-69.0793
-65.0507
-59.4281
-52.6518
-44.9133
-36.4808
-27.6176
-18.4885
-10.1831
-2.94721
3.98156
10.5805
16.8227
22.6885
28.1568
33.2001
37.7843
41.8726
45.4306
48.436
50.8907
52.8192
54.2712
55.2781
55.9454
56.4347
57.5312
58.5219
64.6854
52.9984
42.6785
31.2869
19.545
7.76367
-3.98191
-15.4293
-26.1234
-35.6543
-43.7426
-50.081
-53.9395
-54.9368
-53.3913
-49.9595
-45.0667
-38.9687
-31.9323
-24.2291
-16.0681
-8.47797
-1.77238
4.70173
10.9123
16.823
22.4044
27.6301
32.4726
36.9015
40.8868
44.4022
47.4317
49.9786
52.0658
53.7369
55.0351
56.077
56.9596
58.3315
59.4516
65.4857
55.8742
47.3059
38.0319
28.5461
19.0076
9.403
-0.134908
-9.31521
-17.8635
-25.5628
-32.1604
-37.0321
-39.7137
-40.2043
-38.8285
-35.8603
-31.5242
-26.0603
-19.7208
-12.7305
-6.02318
0.0205287
5.92296
11.6419
17.1327
22.3544
27.2738
31.8612
36.0882
39.9287
43.3625
46.3785
48.9827
51.1994
53.07
54.6417
56.0307
57.2958
58.9288
60.2631
66.0263
58.0838
50.9533
43.384
35.7172
28.0291
20.2648
12.4767
4.83429
-2.49073
-9.36563
-15.6116
-20.7452
-24.3337
-26.2237
-26.503
-25.2692
-22.648
-18.8125
-13.9637
-8.30752
-2.64108
2.6059
7.81345
12.9288
17.8998
22.6756
27.2149
31.4844
35.456
39.1057
42.4165
45.3804
48.004
50.3108
52.3375
54.1273
55.7805
57.3425
59.1424
60.7243
66.3835
59.7934
53.8491
47.6545
41.447
35.2577
29.0182
22.7377
16.5084
10.4292
4.56806
-0.967323
-5.82969
-9.67342
-12.3089
-13.6976
-13.8094
-12.6639
-10.3453
-6.98105
-2.72764
1.79053
6.13026
10.5345
14.9418
19.2945
23.5338
27.6119
31.4921
35.1449
38.5469
41.6818
44.5424
47.1339
49.476
51.5966
53.5286
55.3456
57.0872
58.9396
60.664
66.6162
61.1319
56.1711
51.0892
46.0519
41.0661
36.0638
31.0338
26.0229
21.0837
16.2474
11.5658
7.27361
3.62161
0.775758
-1.18282
-2.16442
-2.11683
-1.04673
0.993126
3.90945
7.26482
10.6459
14.1813
17.8069
21.4637
25.0889
28.6304
32.049
35.314
38.4018
41.2955
43.9862
46.4753
48.7767
50.9078
52.8888
54.7664
56.5698
58.3886
60.1089
66.7778
62.2057
58.0633
53.8838
49.7854
45.7618
41.7515
37.7352
33.7349
29.7765
25.8704
22.0361
18.425
15.2085
12.5095
10.4062
8.99731
8.36291
8.54241
9.53851
11.3151
13.6062
16.0623
18.7324
21.5572
24.4819
27.4463
30.3983
33.2978
36.1136
38.8212
41.403
43.8478
46.1527
48.3244
50.3699
52.2977
54.1342
55.8965
57.6221
59.2531
66.927
63.1127
59.6535
56.2094
52.8666
49.6119
46.3913
43.1843
40
36.8499
33.7339
30.6568
27.7124
25.0139
22.6449
20.6649
19.1563
18.1969
17.8414
18.1209
19.0372
20.4559
22.1076
23.9954
26.071
28.2882
30.5945
32.9434
35.2974
37.6266
39.9066
42.1189
44.25
46.293
48.2487
50.1166
51.8965
53.6012
55.2385
56.8206
58.3188
67.059
63.8451
60.9254
58.0503
55.2868
52.6164
49.9926
47.3965
44.8313
42.3017
39.8039
37.3377
34.9621
32.7498
30.7561
29.0222
27.6095
26.5808
25.9869
25.8661
26.2371
27.0467
28.0987
29.3764
30.8444
32.4667
34.2011
36.0092
37.859
39.7238
41.5814
43.4136
45.2063
46.9501
48.6414
50.2753
51.8466
53.3607
54.8198
56.2248
57.563
67.1659
64.4162
61.9141
59.4736
57.1487
54.9177
52.7402
50.5995
48.4957
46.43
44.3974
42.3956
40.4643
38.6517
36.9943
35.5205
34.274
33.3018
32.6451
32.3386
32.4052
32.8341
33.4839
34.3329
35.3569
36.5286
37.8159
39.1884
40.6202
42.089
43.5755
45.0632
46.5387
47.9919
49.4173
50.8075
52.1557
53.4627
54.7274
55.9461
57.1135
67.2636
64.881
62.7098
60.6094
58.6239
56.7303
54.8933
53.0983
51.344
49.6298
47.9507
46.3038
44.7168
43.2231
41.8468
40.6076
39.5365
38.6677
38.0327
37.6598
37.5697
37.7718
38.1625
38.7216
39.4331
40.2769
41.2284
42.2646
43.3651
44.5119
45.6889
46.882
48.0792
49.2709
50.4509
51.6115
52.7453
53.8514
54.9268
55.9663
56.9676
67.3569
65.2715
63.3686
61.541
59.8252
58.1979
56.6281
55.1032
53.6209
52.1797
50.7751
49.4042
48.0867
46.8467
45.7004
44.6614
43.752
42.997
42.4197
42.042
41.8807
41.953
42.1807
42.5476
43.0431
43.6522
44.3566
45.1386
45.9827
46.8745
47.8009
48.7505
49.7128
50.6794
51.6444
52.6005
53.5409
54.4636
55.3653
56.2407
57.088
67.4481
65.6077
63.9265
62.3221
60.825
59.4124
58.0568
56.7472
55.481
54.2561
53.0684
51.9154
50.8115
49.7742
48.815
47.9431
47.1748
46.528
46.0198
45.6666
45.4813
45.4828
45.61
45.8508
46.1985
46.6416
47.166
47.7585
48.4071
49.1006
49.8285
50.5816
51.3513
52.1303
52.9135
53.6944
54.4671
55.2295
55.9781
56.7083
57.4184
67.5377
65.9021
64.4067
62.9877
61.6711
60.4346
59.2538
58.1191
57.0275
55.977
54.9637
53.9855
53.0529
52.179
51.3722
50.6385
49.9901
49.4399
49.0004
48.6836
48.4993
48.4647
48.5313
48.6901
48.937
49.2629
49.657
50.1091
50.6101
51.1511
51.7239
52.3211
52.9357
53.5619
54.1951
54.8298
55.4612
56.0873
56.7049
57.3101
57.9009
67.6253
66.1631
64.8252
63.5623
62.3966
61.3065
60.2705
59.2799
58.3317
57.4238
56.5527
55.7164
54.9229
54.182
53.4997
52.8804
52.3326
51.866
51.4897
51.2124
51.0411
50.9908
51.0215
51.1271
51.3051
51.5483
51.8479
52.1962
52.586
53.0105
53.4631
53.9379
54.4294
54.9327
55.4441
55.9591
56.4738
56.9864
57.494
57.9937
58.4829
67.7107
66.3966
65.1935
64.0634
63.0251
62.0583
61.1436
60.2732
59.4443
58.6545
57.9007
57.1811
56.5018
55.8701
55.2903
54.7656
54.302
53.9067
53.5863
53.3471
53.1939
53.1391
53.1494
53.2205
53.3513
53.5356
53.7665
54.0377
54.3438
54.6793
55.039
55.4182
55.8125
56.2179
56.6316
57.0497
57.4692
57.8886
58.3053
58.7171
59.1213
67.7935
66.6068
65.5199
64.5037
63.5742
62.7122
61.9001
61.1312
60.4025
59.7115
59.0556
58.433
57.8482
57.3069
56.8121
56.3659
55.9728
55.6379
55.3659
55.1614
55.0276
54.9745
54.9736
55.0225
55.1206
55.2627
55.443
55.6568
55.8995
56.1669
56.4548
56.7594
57.0772
57.4052
57.7408
58.0811
58.4235
58.767
59.1092
59.4486
59.7823
67.8731
66.7969
65.8109
64.8931
64.0571
63.2848
62.5605
61.8779
61.2341
60.6267
60.0532
59.5119
59.0062
58.5403
58.1163
57.7357
57.4016
57.1176
56.8871
56.7134
56.5983
56.5499
56.5435
56.578
56.6532
56.7647
56.9076
57.0781
57.2725
57.4875
57.7197
57.966
58.2237
58.4903
58.7637
59.0416
59.322
59.604
59.8856
60.1658
60.4415
67.9495
66.9693
66.0715
65.2391
64.4841
63.7892
63.1403
62.5317
61.9604
61.4242
60.9207
60.4481
60.009
59.6066
59.2421
58.9164
58.6319
58.3909
58.1957
58.0487
57.9508
57.9084
57.8998
57.925
57.984
58.073
58.1879
58.3255
58.4829
58.6573
58.846
59.0467
59.2569
59.4748
59.6986
59.9266
60.157
60.3892
60.6217
60.8534
61.0817
68.0222
67.1261
66.3054
65.5477
64.863
64.2353
63.6517
63.107
62.5982
62.1231
61.6793
61.2653
60.8828
60.534
60.2197
59.9405
59.6976
59.4929
59.3278
59.2038
59.1213
59.0851
59.0763
59.0955
59.1428
59.2151
59.3087
59.421
59.5496
59.6924
59.847
60.0115
60.1842
60.3632
60.5475
60.7353
60.9255
61.1175
61.31
61.5023
61.6917
68.0911
67.2688
66.516
65.8237
65.2005
64.6314
64.1046
63.6153
63.1606
62.7382
62.3459
61.982
61.6478
61.3447
61.0731
60.8331
60.6256
60.4517
60.3121
60.2078
60.1387
60.1085
60.1005
60.1158
60.1547
60.2143
60.2915
60.3841
60.4903
60.6081
60.7358
60.8716
61.0143
61.1623
61.3148
61.4703
61.628
61.7874
61.9473
62.1075
62.2651
68.1562
67.3988
66.7058
66.071
65.5017
64.9838
64.5067
64.0657
63.6581
63.2815
62.9337
62.6131
62.3204
62.0564
61.8213
61.6148
61.4373
61.2894
61.1715
61.084
61.0266
61.0019
60.9953
61.0081
61.0407
61.0906
61.155
61.2322
61.3206
61.4186
61.5247
61.6376
61.7562
61.8792
62.006
62.1354
62.2667
62.3995
62.5329
62.6668
62.7983
68.2174
67.517
66.8769
66.2928
65.7709
65.298
64.8645
64.4658
64.0994
63.7627
63.4536
63.1705
62.9136
62.6834
62.4795
62.3016
62.1498
62.0241
61.9247
61.8515
61.8041
61.7844
61.7794
61.7906
61.8185
61.8608
61.9152
61.9801
62.0543
62.1364
62.2252
62.3196
62.4187
62.5215
62.6274
62.7356
62.8454
62.9565
63.0681
63.1803
63.2904
68.2747
67.6246
67.0311
66.4917
66.0115
65.5784
65.1831
64.8217
64.4914
64.1897
63.9144
63.664
63.4382
63.2371
63.0603
62.907
62.7771
62.6704
62.5867
62.5259
62.4871
62.4717
62.4684
62.4786
62.5029
62.5392
62.5855
62.6406
62.7032
62.7725
62.8472
62.9266
63.0098
63.0962
63.1851
63.2758
63.3679
63.4612
63.555
63.6492
63.7417
68.328
67.7222
67.17
66.67
66.2267
65.8285
65.467
65.1385
64.8399
64.569
64.3234
64.1016
63.903
63.7273
63.5738
63.4418
63.3308
63.2404
63.1702
63.1198
63.0884
63.0769
63.0751
63.0848
63.1062
63.1378
63.1776
63.2247
63.2781
63.3368
63.4001
63.4672
63.5374
63.6102
63.6851
63.7615
63.839
63.9175
63.9965
64.076
64.1537
68.3774
67.8105
67.2947
66.8296
66.4187
66.0513
65.7198
65.4203
65.1499
64.9061
64.6867
64.49
64.3151
64.1616
64.0285
63.9149
63.8202
63.7439
63.6852
63.6438
63.6188
63.6106
63.6103
63.6196
63.6389
63.6666
63.7011
63.7417
63.7873
63.8375
63.8913
63.9482
64.0077
64.0693
64.1326
64.1971
64.2626
64.3289
64.3955
64.4626
64.5282
68.4229
67.8902
67.4064
66.9719
66.5896
66.2496
65.9445
65.6706
65.4251
65.2054
65.0092
64.8346
64.6807
64.5466
64.4314
64.3339
64.2534
64.1891
64.1405
64.1069
64.0873
64.0821
64.0832
64.0923
64.1099
64.1345
64.1648
64.1999
64.2393
64.2823
64.3283
64.3768
64.4274
64.4797
64.5333
64.588
64.6434
64.6995
64.7558
64.8125
64.8678
68.4646
67.9616
67.5059
67.0984
66.7412
66.4252
66.1436
65.8925
65.6691
65.4708
65.2951
65.1402
65.0048
64.8878
64.7882
64.7048
64.6367
64.583
64.5431
64.5161
64.5012
64.4985
64.5009
64.51
64.5261
64.5481
64.5748
64.6055
64.6396
64.6766
64.7161
64.7576
64.8008
64.8453
64.8909
64.9373
64.9843
65.0317
65.0794
65.1275
65.1742
68.5024
68.0251
67.5939
67.21
66.8749
66.5801
66.3192
66.0884
65.8847
65.7054
65.548
65.4105
65.2915
65.1898
65.1041
65.0331
64.9758
64.9314
64.899
64.878
64.8672
64.8668
64.8705
64.8797
64.8949
64.9148
64.9386
64.9656
64.9954
65.0275
65.0616
65.0973
65.1342
65.1722
65.211
65.2505
65.2903
65.3306
65.371
65.4117
65.4512
68.5366
68.0813
67.6712
67.3077
66.9918
66.7157
66.473
66.2602
66.0741
65.9117
65.7707
65.6489
65.5445
65.4563
65.3828
65.3228
65.2752
65.2389
65.2131
65.1971
65.1899
65.1914
65.1961
65.2054
65.2197
65.2379
65.2592
65.2831
65.3092
65.3371
65.3666
65.3974
65.4291
65.4616
65.4948
65.5284
65.5623
65.5965
65.6307
65.6652
65.6985
68.567
68.1302
67.7381
67.3921
67.093
66.8331
66.6065
66.4097
66.2392
66.0921
65.9657
65.8579
65.7666
65.6906
65.6281
65.5779
65.5389
65.5099
65.4902
65.4788
65.475
65.4785
65.4845
65.4942
65.5081
65.5251
65.5445
65.566
65.5891
65.6137
65.6395
65.6661
65.6935
65.7214
65.7497
65.7784
65.8072
65.8362
65.8652
65.8944
65.9225
68.5937
68.1722
67.7952
67.4641
67.1791
66.9333
66.7209
66.5381
66.3816
66.2482
66.135
66.0397
65.9603
65.8951
65.8426
65.8012
65.7697
65.7471
65.7325
65.7251
65.7239
65.7289
65.7357
65.7457
65.759
65.7748
65.7925
65.8118
65.8324
65.854
65.8766
65.8997
65.9234
65.9475
65.9719
65.9964
66.021
66.0457
66.0703
66.0951
66.1188
68.6168
68.2073
67.8426
67.5237
67.2508
67.017
66.817
66.6467
66.5026
66.3814
66.2801
66.1962
66.1276
66.0724
66.0288
65.9956
65.9713
65.9549
65.9455
65.9422
65.9442
65.9512
65.9596
65.9704
65.9839
65.9992
66.016
66.0339
66.0526
66.0721
66.0921
66.1125
66.1331
66.1539
66.1749
66.1958
66.2168
66.2377
66.2586
66.2794
66.2993
68.6362
68.2355
67.8802
67.5712
67.308
67.0846
66.8953
66.736
66.603
66.4929
66.4024
66.3288
66.27
66.2237
66.1883
66.1622
66.144
66.1327
66.1272
66.1269
66.1309
66.139
66.1481
66.1592
66.1723
66.1869
66.2025
66.2188
66.2358
66.2533
66.2711
66.2891
66.3072
66.3254
66.3436
66.3618
66.3798
66.3978
66.4156
66.4333
66.4502
68.6519
68.2571
67.9085
67.6068
67.3513
67.1361
66.9559
66.8063
66.6832
66.583
66.5024
66.4384
66.3886
66.351
66.3236
66.3048
66.2934
66.2882
66.288
66.2922
66.2998
66.3105
66.3218
66.3344
66.3485
66.3635
66.379
66.3949
66.411
66.4273
66.4436
66.4598
66.4759
66.4919
66.5077
66.5233
66.5386
66.5538
66.5687
66.5836
66.5976
68.6643
68.2729
67.9288
67.6323
67.3824
67.1736
67.0006
66.8589
66.7442
66.6528
66.581
66.5257
66.4842
66.4541
66.4334
66.4203
66.4135
66.4119
66.4145
66.4206
66.4297
66.4412
66.4531
66.466
66.48
66.4945
66.5093
66.5242
66.5392
66.5542
66.5691
66.5838
66.5983
66.6126
66.6266
66.6404
66.654
66.6672
66.6802
66.693
66.7052
68.6732
68.2819
67.9397
67.6464
67.4005
67.1968
67.0298
66.8948
66.7873
66.7034
66.6393
66.5919
66.5585
66.5366
66.5242
66.5194
66.5208
66.5267
66.5362
66.5483
66.5621
66.5774
66.5925
66.6081
66.624
66.6399
66.6556
66.671
66.6861
66.7008
66.715
66.7288
66.7422
66.755
66.7675
66.7795
66.7911
66.8023
66.8131
66.8236
66.8336
68.6771
68.28
67.9349
67.6412
67.3969
67.1967
67.035
66.9066
66.8066
66.7304
66.674
66.6339
66.607
66.5905
66.5824
66.5809
66.5845
66.5923
66.6033
66.617
66.6321
66.6481
66.6639
66.6799
66.696
66.7118
66.7273
66.7423
66.7569
66.7709
66.7844
66.7974
66.8098
66.8218
66.8332
66.8441
66.8546
66.8646
66.8742
66.8834
66.8924
68.6759
68.2687
67.9169
67.6192
67.3734
67.1743
67.0159
66.8926
66.7991
66.7308
66.6835
66.6535
66.6379
66.6338
66.6389
66.6509
66.6677
66.6876
66.7091
66.7312
66.7531
66.7746
66.7952
66.8152
66.8344
66.8526
66.87
66.8864
66.9018
66.9163
66.93
66.9428
66.9549
66.9662
66.9768
66.9867
66.9961
67.0049
67.0131
67.0209
67.0285
62.3364
66.4097
69.7661
71.7162
72.9007
73.6937
74.1485
74.3559
74.4014
74.3372
74.2001
74.0173
73.8082
73.5859
73.359
73.1338
72.9142
72.7027
72.5008
72.3092
72.1284
71.9582
71.7986
71.6491
71.5093
71.3787
71.2569
71.1432
71.0371
70.9381
70.8455
70.759
70.6779
70.6018
70.5302
70.4629
70.3995
70.3398
70.2835
70.2305
70.1805
70.1335
70.0892
70.0475
70.0082
69.9711
69.9361
69.9029
69.8715
69.8417
69.8133
69.7864
69.7607
69.7361
69.7126
69.69
69.6683
69.6473
69.6271
69.6075
69.5885
69.57
69.5521
69.5346
69.5175
69.501
69.4849
69.4697
69.4546
69.4416
69.4272
69.4195
69.4018
69.4102
61.7267
66.125
69.6247
71.7154
72.964
73.7659
74.2116
74.4059
74.4379
74.3614
74.2137
74.0222
73.8062
73.5784
73.3473
73.1188
72.8969
72.6837
72.4806
72.2884
72.1072
71.9369
71.7773
71.6281
71.4887
71.3586
71.2373
71.1242
71.0188
70.9204
70.8285
70.7426
70.6621
70.5867
70.5157
70.449
70.3862
70.327
70.2712
70.2187
70.1692
70.1227
70.0789
70.0376
69.9987
69.9619
69.9273
69.8945
69.8634
69.8339
69.8059
69.7792
69.7538
69.7295
69.7062
69.6839
69.6624
69.6417
69.6217
69.6023
69.5835
69.5652
69.5474
69.5301
69.5133
69.4969
69.481
69.4659
69.451
69.4381
69.4238
69.4162
69.3987
69.4071
61.2683
65.4344
69.2871
71.6359
72.9958
73.8326
74.2813
74.4647
74.4813
74.39
74.2296
74.0277
73.8034
73.5691
73.333
73.1009
72.8763
72.6613
72.4569
72.2639
72.0824
71.9121
71.7527
71.6039
71.465
71.3355
71.2149
71.1025
70.9979
70.9003
70.8092
70.7241
70.6444
70.5697
70.4995
70.4334
70.3713
70.3127
70.2575
70.2056
70.1567
70.1107
70.0674
70.0266
69.9882
69.9519
69.9177
69.8853
69.8546
69.8255
69.7978
69.7715
69.7464
69.7224
69.6994
69.6773
69.6561
69.6356
69.6159
69.5967
69.5781
69.5601
69.5425
69.5254
69.5087
69.4925
69.4768
69.4618
69.4471
69.4343
69.4201
69.4127
69.3953
69.4038
61.0145
64.8318
68.8588
71.4545
72.9687
73.867
74.3361
74.5209
74.5275
74.4217
74.2472
74.0332
73.7991
73.5573
73.3156
73.0792
72.8516
72.6345
72.4288
72.2351
72.0533
71.8831
71.724
71.5757
71.4375
71.3088
71.1891
71.0777
70.974
70.8773
70.7872
70.7031
70.6243
70.5505
70.4811
70.4159
70.3546
70.2968
70.2423
70.1911
70.1428
70.0974
70.0547
70.0145
69.9766
69.9409
69.9071
69.8752
69.8449
69.8163
69.789
69.7631
69.7383
69.7146
69.692
69.6702
69.6493
69.6291
69.6096
69.5907
69.5724
69.5546
69.5372
69.5203
69.5038
69.4878
69.4723
69.4575
69.4429
69.4303
69.4163
69.4089
69.3918
69.4003
61.0655
64.5877
68.4995
71.198
72.8665
73.8521
74.3563
74.5525
74.5592
74.4469
74.2618
74.0362
73.7918
73.5417
73.2935
73.0525
72.8216
72.6023
72.3953
72.2009
72.0189
71.8489
71.6904
71.5428
71.4056
71.2779
71.1593
71.049
70.9465
70.8511
70.7621
70.6791
70.6015
70.5287
70.4604
70.3962
70.3358
70.2788
70.2253
70.1748
70.1273
70.0827
70.0407
70.0011
69.9639
69.9287
69.8955
69.8641
69.8344
69.8062
69.7794
69.7539
69.7295
69.7063
69.684
69.6626
69.642
69.6221
69.6029
69.5843
69.5662
69.5487
69.5315
69.5149
69.4986
69.4828
69.4675
69.4529
69.4385
69.426
69.4122
69.405
69.3881
69.3966
61.2766
64.6304
68.3136
70.9753
72.7147
73.7765
74.331
74.5483
74.5589
74.4456
74.2577
74.0271
73.776
73.5189
73.2646
73.0188
72.7846
72.5631
72.3548
72.1599
71.978
71.8084
71.6507
71.5042
71.3681
71.2418
71.1246
71.0158
70.9147
70.8208
70.7333
70.6517
70.5754
70.5039
70.4369
70.3738
70.3145
70.2586
70.2061
70.1566
70.11
70.0662
70.025
69.9862
69.9497
69.9152
69.8827
69.8519
69.8228
69.7951
69.7689
69.7438
69.7199
69.6971
69.6752
69.6542
69.634
69.6145
69.5956
69.5773
69.5596
69.5423
69.5255
69.509
69.493
69.4775
69.4623
69.448
69.4338
69.4215
69.4079
69.4008
69.3841
69.3927
61.5574
64.8334
68.2936
70.8686
72.5822
73.6603
74.2534
74.5016
74.5237
74.4101
74.2196
73.9879
73.7369
73.4791
73.2226
72.9741
72.7375
72.5143
72.3052
72.1102
71.9287
71.76
71.6035
71.4585
71.324
71.1994
71.084
70.977
70.8778
70.7856
70.6999
70.6201
70.5454
70.4755
70.41
70.3483
70.2903
70.2357
70.1843
70.136
70.0905
70.0477
70.0074
69.9696
69.9339
69.9002
69.8685
69.8384
69.81
69.7829
69.7573
69.7328
69.7095
69.6871
69.6657
69.6452
69.6254
69.6063
69.5878
69.5698
69.5524
69.5355
69.5189
69.5028
69.4871
69.4718
69.4569
69.4427
69.4287
69.4167
69.4033
69.3963
69.3799
69.3885
61.9313
65.0905
68.3411
70.8405
72.5041
73.5509
74.1437
74.4099
74.4488
74.3424
74.1503
73.9142
73.6614
73.4056
73.1529
72.908
72.6735
72.4515
72.243
72.0489
71.8687
71.7016
71.547
71.404
71.2717
71.1493
71.0362
70.9316
70.8346
70.7447
70.6612
70.5834
70.5108
70.4428
70.3791
70.3191
70.2627
70.2096
70.1596
70.1126
70.0684
70.0268
69.9877
69.9509
69.9162
69.8835
69.8526
69.8234
69.7957
69.7695
69.7445
69.7207
69.6979
69.6762
69.6553
69.6353
69.6159
69.5973
69.5792
69.5617
69.5447
69.5281
69.5119
69.4961
69.4806
69.4657
69.451
69.4371
69.4234
69.4115
69.3984
69.3916
69.3754
69.3841
62.4782
65.377
68.3353
70.782
72.4307
73.453
74.0278
74.2906
74.3356
74.2379
74.0509
73.8143
73.5576
73.2984
73.046
72.8056
72.5784
72.3634
72.1608
71.971
71.7941
71.63
71.4783
71.3383
71.209
71.0897
70.9796
70.8779
70.7839
70.6968
70.616
70.5408
70.4706
70.405
70.3434
70.2855
70.231
70.1797
70.1314
70.086
70.0433
70.0031
69.9653
69.9298
69.8963
69.8647
69.8349
69.8066
69.7799
69.7545
69.7303
69.7072
69.6852
69.6641
69.6439
69.6244
69.6056
69.5875
69.5699
69.5529
69.5363
69.5201
69.5043
69.4888
69.4737
69.4591
69.4447
69.4311
69.4177
69.406
69.3931
69.3865
69.3707
69.3794
63.1847
65.6766
68.2417
70.6041
72.2525
73.2798
73.8743
74.1502
74.1997
74.103
73.9186
73.6855
73.4307
73.17
72.9143
72.6722
72.447
72.2383
72.0447
71.8647
71.6966
71.5395
71.3934
71.2582
71.1332
71.0181
70.912
70.8141
70.7238
70.6402
70.5628
70.4908
70.4237
70.3609
70.302
70.2466
70.1944
70.1453
70.099
70.0555
70.0146
69.9761
69.9399
69.9059
69.8738
69.8435
69.8149
69.7878
69.7621
69.7377
69.7145
69.6923
69.6711
69.6508
69.6313
69.6125
69.5943
69.5768
69.5598
69.5432
69.5271
69.5114
69.496
69.481
69.4663
69.452
69.438
69.4247
69.4115
69.4002
69.3876
69.3811
69.3657
69.3745
63.8165
65.8783
68.0029
70.2218
71.8793
72.9317
73.5714
73.9061
74.0044
73.936
73.7643
73.5355
73.2811
73.0201
72.7641
72.5212
72.2947
72.0858
71.8952
71.7222
71.5641
71.4182
71.2829
71.157
71.0397
70.9309
70.8303
70.7377
70.6521
70.5731
70.5
70.4321
70.3687
70.3094
70.2537
70.2013
70.152
70.1055
70.0617
70.0204
69.9817
69.9452
69.9109
69.8786
69.8482
69.8195
69.7923
69.7666
69.7422
69.719
69.6968
69.6757
69.6554
69.636
69.6173
69.5993
69.5819
69.565
69.5487
69.5327
69.5172
69.502
69.4871
69.4725
69.4583
69.4444
69.4307
69.4178
69.405
69.3939
69.3816
69.3754
69.3603
69.3692
64.0346
65.7764
67.5138
69.5043
71.147
72.2641
72.9889
73.4238
73.6211
73.6375
73.531
73.3462
73.1151
72.8627
72.6073
72.3613
72.1312
71.9196
71.7279
71.556
71.4016
71.2628
71.1377
71.0237
70.9185
70.8206
70.7294
70.6446
70.5659
70.4929
70.4252
70.3624
70.3037
70.2487
70.1971
70.1484
70.1025
70.0592
70.0183
69.9799
69.9437
69.9096
69.8776
69.8475
69.819
69.7922
69.7667
69.7426
69.7197
69.6978
69.677
69.657
69.6379
69.6195
69.6018
69.5847
69.5681
69.5521
69.5364
69.5212
69.5063
69.4917
69.4774
69.4633
69.4496
69.4361
69.4229
69.4104
69.3979
69.3872
69.3752
69.3693
69.3547
69.3637
63.7431
65.2731
66.7397
68.4436
69.9714
71.1165
71.9408
72.5169
72.8723
73.0388
73.0613
72.9824
72.8347
72.6437
72.4284
72.2029
71.9785
71.7641
71.5656
71.3865
71.2274
71.0874
70.9654
70.8584
70.7634
70.6778
70.5996
70.527
70.459
70.3951
70.3352
70.2791
70.2265
70.177
70.1304
70.0863
70.0446
70.0051
69.9679
69.9327
69.8997
69.8685
69.8392
69.8116
69.7855
69.7609
69.7375
69.7153
69.6941
69.6739
69.6546
69.636
69.6182
69.601
69.5845
69.5684
69.5529
69.5377
69.5229
69.5085
69.4943
69.4804
69.4668
69.4533
69.4401
69.4272
69.4145
69.4024
69.3904
69.38
69.3685
69.3627
69.3486
69.3578
63.0269
64.3908
65.6841
67.1288
68.4891
69.6051
70.4867
71.1723
71.6753
72.0099
72.2028
72.2835
72.2767
72.2041
72.0851
71.9357
71.7688
71.5936
71.4167
71.2437
71.0802
70.9305
70.798
70.6838
70.5868
70.5052
70.4361
70.376
70.3217
70.2713
70.2236
70.1777
70.1335
70.0913
70.051
70.0127
69.9762
69.9416
69.9088
69.8777
69.8484
69.8208
69.7948
69.7702
69.747
69.7249
69.704
69.684
69.6649
69.6467
69.6291
69.6123
69.596
69.5803
69.5651
69.5503
69.5358
69.5218
69.508
69.4944
69.4811
69.4681
69.4551
69.4424
69.4298
69.4175
69.4054
69.3938
69.3822
69.3722
69.3612
69.3558
69.3422
69.3516
62.0135
63.2367
64.4105
65.6647
66.8685
67.9227
68.8175
69.5657
70.1706
70.6366
70.9778
71.2128
71.3595
71.4338
71.4497
71.4198
71.3548
71.2642
71.1563
71.0379
70.9144
70.7896
70.6665
70.549
70.4412
70.3468
70.2679
70.2041
70.1534
70.1128
70.0787
70.0476
70.0174
69.987
69.9563
69.9256
69.8955
69.8666
69.839
69.813
69.7883
69.7651
69.7431
69.7222
69.7023
69.6834
69.6654
69.6481
69.6316
69.6156
69.6002
69.5853
69.5709
69.5568
69.5432
69.5298
69.5168
69.5039
69.4913
69.4789
69.4666
69.4544
69.4424
69.4304
69.4186
69.407
69.3955
69.3844
69.3734
69.3639
69.3534
69.3483
69.3353
69.345
60.8468
61.9513
63.0251
64.1372
65.212
66.1937
67.0719
67.8466
68.5143
69.0733
69.5285
69.8894
70.1669
70.3726
70.5176
70.6121
70.6653
70.6844
70.6758
70.6445
70.5956
70.5337
70.4627
70.3863
70.307
70.2269
70.1484
70.075
70.0102
69.957
69.9161
69.8861
69.8643
69.8472
69.8316
69.8152
69.7973
69.7779
69.7578
69.7378
69.7185
69.7001
69.6827
69.6662
69.6505
69.6354
69.6208
69.6068
69.5932
69.58
69.5671
69.5546
69.5423
69.5303
69.5184
69.5068
69.4953
69.484
69.4727
69.4615
69.4504
69.4393
69.4283
69.4173
69.4063
69.3955
69.3847
69.3743
69.3639
69.355
69.345
69.3404
69.328
69.3381
59.6726
60.6685
61.6452
62.6376
63.6024
64.5096
65.3513
66.1234
66.8198
67.436
67.9715
68.4288
68.8128
69.1296
69.3862
69.5903
69.7491
69.8699
69.9585
70.0203
70.0595
70.0794
70.0829
70.0726
70.0513
70.0216
69.9856
69.9454
69.9018
69.856
69.8103
69.7677
69.7315
69.7037
69.6845
69.6721
69.6641
69.6578
69.6511
69.643
69.6335
69.623
69.612
69.601
69.5902
69.5796
69.5692
69.559
69.5489
69.5389
69.5291
69.5193
69.5096
69.5
69.4903
69.4807
69.4711
69.4615
69.4518
69.4421
69.4324
69.4225
69.4127
69.4027
69.3928
69.3828
69.3729
69.3633
69.3536
69.3453
69.3359
69.3318
69.3202
69.3309
58.7145
59.6023
60.4797
61.3615
62.225
63.054
63.8426
64.586
65.278
65.9137
66.4901
67.0062
67.4628
67.8618
68.2064
68.5009
68.7498
68.9581
69.1309
69.273
69.3887
69.4819
69.5555
69.6119
69.653
69.6803
69.6952
69.6996
69.6953
69.6845
69.669
69.6499
69.6281
69.6047
69.5815
69.5611
69.5457
69.5361
69.5318
69.5308
69.5311
69.5308
69.5292
69.526
69.5217
69.5166
69.5111
69.5054
69.4994
69.4932
69.4868
69.4801
69.4733
69.4664
69.4592
69.4519
69.4444
69.4367
69.4289
69.4208
69.4126
69.4042
69.3957
69.3869
69.3781
69.3692
69.3602
69.3514
69.3426
69.3349
69.3263
69.3227
69.3118
69.3232
58.0894
58.8677
59.6432
60.4195
61.1858
61.9334
62.6575
63.3535
64.0163
64.6411
65.2244
65.7636
66.2573
66.705
67.1073
67.4657
67.7823
68.0599
68.3016
68.5107
68.6905
68.8444
68.9752
69.0859
69.1787
69.2555
69.318
69.3675
69.4052
69.4325
69.451
69.4623
69.4681
69.4695
69.4675
69.4625
69.4552
69.4467
69.4389
69.4338
69.4324
69.4344
69.4384
69.4429
69.4463
69.4482
69.4486
69.4479
69.4463
69.4441
69.4413
69.4381
69.4345
69.4304
69.4259
69.421
69.4158
69.4102
69.4043
69.3981
69.3915
69.3847
69.3775
69.3701
69.3624
69.3546
69.3467
69.3388
69.3308
69.3239
69.316
69.3131
69.3029
69.3152
57.7914
58.4612
59.1339
59.8081
60.4791
61.1423
61.7937
62.4294
63.0452
63.6373
64.2019
64.7362
65.2377
65.7045
66.1359
66.5313
66.8912
67.2165
67.5087
67.7696
68.0013
68.206
68.3861
68.5438
68.6813
68.8007
68.904
68.9928
69.0686
69.1326
69.1859
69.2295
69.2643
69.2915
69.3124
69.3282
69.3397
69.3476
69.3521
69.3538
69.3537
69.3536
69.3551
69.3592
69.3656
69.3729
69.3798
69.3854
69.3893
69.3917
69.393
69.3934
69.3931
69.3921
69.3904
69.3882
69.3854
69.382
69.3782
69.3739
69.3691
69.3639
69.3582
69.3522
69.3458
69.3392
69.3323
69.3254
69.3183
69.3122
69.3051
69.3029
69.2935
69.3069
57.7792
58.3445
58.9165
59.4926
60.0709
60.6489
61.2233
61.7911
62.3488
62.8933
63.4215
63.9303
64.4171
64.8798
65.3164
65.7257
66.1069
66.4595
66.7837
67.0802
67.3497
67.5935
67.813
68.0098
68.1854
68.3416
68.4799
68.6022
68.71
68.8048
68.8879
68.9606
69.0238
69.0781
69.1242
69.1627
69.1944
69.2201
69.2409
69.2574
69.27
69.2791
69.2854
69.29
69.2945
69.3005
69.3083
69.3173
69.3264
69.3345
69.3409
69.3457
69.3491
69.3513
69.3527
69.3533
69.3531
69.3521
69.3505
69.3482
69.3453
69.3418
69.3377
69.3332
69.3282
69.3228
69.317
69.3112
69.305
69.2998
69.2934
69.292
69.2834
69.2983
57.9942
58.4631
58.9407
59.4251
59.9155
60.4105
60.9076
61.4042
61.8981
62.3865
62.8669
63.3367
63.7934
64.2346
64.6583
65.0627
65.4463
65.808
66.1471
66.4631
66.7561
67.0263
67.2743
67.5008
67.7068
67.8933
68.0616
68.213
68.3487
68.4702
68.5787
68.6756
68.762
68.8391
68.9076
68.9681
69.0211
69.0668
69.1057
69.1383
69.1653
69.1876
69.2057
69.2201
69.2312
69.2397
69.247
69.2546
69.2634
69.2734
69.2838
69.2934
69.3015
69.3078
69.3127
69.3162
69.3187
69.3203
69.321
69.3209
69.32
69.3183
69.316
69.313
69.3095
69.3054
69.3009
69.2961
69.291
69.2866
69.2811
69.2805
69.2726
69.2895
58.3779
58.7611
59.1537
59.555
59.9648
60.3819
60.8046
61.2311
61.6597
62.0885
62.5152
62.9378
63.3542
63.7623
64.1599
64.5453
64.9167
65.2725
65.6116
65.933
66.2359
66.52
66.785
67.0312
67.2587
67.4681
67.66
67.8353
67.9948
68.1396
68.2706
68.389
68.4958
68.5922
68.6791
68.7574
68.828
68.8912
68.9476
68.9972
69.0403
69.0772
69.1083
69.1344
69.1562
69.1741
69.1886
69.2001
69.2097
69.2187
69.2283
69.2388
69.2498
69.2602
69.2693
69.2766
69.2823
69.2866
69.2898