/*--------------------------------*- C++ -*----------------------------------*\
| =========                 |                                                 |
| \\      /  F ield         | OpenFOAM: The Open Source CFD Toolbox           |
|  \\    /   O peration     | Version:  5.x                                   |
|   \\  /    A nd           | Web:      www.OpenFOAM.org                      |
|    \\/     M anipulation  |                                                 |
\*---------------------------------------------------------------------------*/
FoamFile
{
    version     2.0;
    format      ascii;
    class       surfaceScalarField;
    location    "750";
    object      phi;
}
// * * * * * * * * * * * * * * * * * * * * * * * * * * * * * * * * * * * * * //

dimensions      [0 3 -1 0 0 0 0];

internalField   nonuniform List<scalar> 
83317
(
0.000497021
0.0001058
-0.000608524
0.000402081
9.49346e-05
0.000326897
7.51854e-05
0.000294907
3.19893e-05
0.000277313
1.75946e-05
0.000263224
1.40877e-05
0.000252722
1.0502e-05
0.000244859
7.8624e-06
0.000238476
6.38267e-06
0.000232826
5.65013e-06
0.000227833
4.92746e-06
0.000222625
5.26771e-06
0.000218534
4.02757e-06
0.000214468
4.13345e-06
0.000211966
2.44025e-06
0.000210115
1.9114e-06
0.000208211
1.84469e-06
0.000206758
1.51125e-06
0.000204768
1.93148e-06
0.000203153
1.67048e-06
0.000201482
1.67217e-06
0.000199671
1.81093e-06
0.000198325
1.34613e-06
0.000196668
1.65713e-06
0.000195372
1.2955e-06
0.000194098
1.27417e-06
0.00019255
1.54873e-06
0.000191293
1.25586e-06
0.000190249
1.04443e-06
0.000189094
1.15547e-06
0.000187648
1.44507e-06
0.000186324
1.26364e-06
0.000185581
7.93664e-07
0.000184737
7.98065e-07
0.000183941
8.38969e-07
0.000183356
5.44169e-07
0.000182638
7.6126e-07
0.000182363
2.32383e-07
0.000182457
-5.3471e-08
0.000182543
-1.24337e-07
0.000182606
-2.78965e-08
0.00017811
4.46917e-06
0.000174302
3.83438e-06
0.000173817
4.55383e-07
0.000173423
4.1741e-07
0.000173371
4.69685e-08
0.000172985
3.88333e-07
0.00017263
3.47766e-07
0.000172329
3.05743e-07
0.000172071
2.51473e-07
0.000171856
2.13482e-07
0.000171687
1.65799e-07
0.000171554
1.34361e-07
0.000171469
9.40408e-08
0.000171057
4.00336e-07
0.000170707
3.4116e-07
0.000171032
-3.17563e-07
0.000171091
-4.66042e-08
0.00017113
-5.23766e-08
0.000171543
-3.83482e-07
0.000171642
-1.30054e-07
0.000171418
2.48369e-07
0.000171398
-5.4911e-09
0.000171344
9.21479e-08
0.000171241
6.2044e-08
0.000171047
2.47906e-07
0.00017059
4.01696e-07
0.000170461
1.98674e-07
0.000170376
1.39756e-08
0.000169658
8.01599e-07
0.00016886
7.12069e-07
0.000168394
6.03175e-07
0.000167181
1.07738e-06
0.000165573
1.77806e-06
0.000164274
1.12565e-06
0.000162555
1.99919e-06
0.000159995
2.28064e-06
0.000157182
3.20242e-06
0.000153372
3.42044e-06
0.000151877
1.20947e-06
7.80629e-05
7.44009e-05
-0.000372489
0.000450419
0.000750808
0.000250813
-0.000895924
0.000578506
0.000267232
0.000459404
0.000194288
0.000411974
7.94192e-05
0.000391522
3.80467e-05
0.000377417
2.8192e-05
0.000369823
1.80962e-05
0.000365913
1.17715e-05
0.000363926
8.37027e-06
0.000363144
6.43179e-06
0.000362802
5.23533e-06
0.000362501
5.59937e-06
0.000362618
3.87714e-06
0.000362817
3.97002e-06
0.00036464
5.85494e-07
0.000366246
3.36735e-07
0.000368817
-7.5723e-07
0.000370944
-5.86274e-07
0.000373233
-3.87219e-07
0.000375277
-3.45689e-07
0.000376533
4.16787e-07
0.000377993
3.50571e-07
0.00037852
8.19215e-07
0.000379029
1.14841e-06
0.000378991
1.33388e-06
0.000378477
1.7879e-06
0.000378267
1.75867e-06
0.000377324
2.19829e-06
0.000376147
2.22163e-06
0.000374821
2.48151e-06
0.000373695
2.57048e-06
0.000372365
2.56259e-06
0.000370461
2.72262e-06
0.000368663
2.5712e-06
0.000366775
2.74861e-06
0.00036481
2.48866e-06
0.000362952
2.64211e-06
0.000360855
2.30665e-06
0.000358463
2.35913e-06
0.000356273
2.04524e-06
0.000354099
2.16456e-06
0.00035571
2.84314e-06
0.000358317
1.24063e-06
0.000358533
2.22872e-07
0.000357987
9.74706e-07
0.000357088
9.4311e-07
0.000356417
1.06032e-06
0.000355768
9.92798e-07
0.000355117
9.58601e-07
0.000354492
8.71995e-07
0.000353883
8.20887e-07
0.000353304
7.42794e-07
0.000352746
6.9157e-07
0.000352211
6.33811e-07
0.000351939
6.65821e-07
0.000351687
5.88912e-07
0.00035098
3.92796e-07
0.000350531
4.08108e-07
0.000350113
3.58808e-07
0.000349495
2.49523e-07
0.000349117
2.3129e-07
0.000348905
4.73159e-07
0.000348357
5.28872e-07
0.000347755
7.13536e-07
0.000347067
7.28246e-07
0.000346339
1.00488e-06
0.000345685
1.02596e-06
0.00034458
1.33929e-06
0.000343338
1.2185e-06
0.000342248
1.9359e-06
0.000340948
1.96683e-06
0.000339161
2.46305e-06
0.000337433
2.7331e-06
0.000335539
3.76258e-06
0.000332901
3.67169e-06
0.000329905
5.14496e-06
0.000326392
5.64519e-06
0.000322336
7.46406e-06
0.00031608
9.46925e-06
0.000313926
3.24214e-06
0.000171283
0.000217393
-0.000754592
0.000553174
0.000994759
0.00043091
-0.00117476
0.000759131
0.000502857
0.000596226
0.000357194
0.000533838
0.000141807
0.000509163
6.27224e-05
0.000493731
4.36228e-05
0.000487589
2.42388e-05
0.000486279
1.30808e-05
0.000487423
7.22656e-06
0.000490203
3.65161e-06
0.000493286
2.12997e-06
0.000496393
2.51318e-06
0.000499381
8.67382e-07
0.000501927
1.44765e-06
0.000506045
-3.5532e-06
0.000509162
-2.76069e-06
0.000513513
-5.12718e-06
0.000517018
-4.07262e-06
0.000520668
-4.05497e-06
0.000523914
-3.57514e-06
0.000526188
-1.8567e-06
0.000528545
-2.00607e-06
0.00052963
-2.66436e-07
0.000530639
1.39424e-07
0.000530923
1.04985e-06
0.000530793
1.91815e-06
0.000530593
1.95874e-06
0.000529646
3.14532e-06
0.000528628
3.2391e-06
0.000527171
3.93879e-06
0.000525715
4.0261e-06
0.000523966
4.29481e-06
0.000521923
4.78033e-06
0.000519763
4.71795e-06
0.000517416
5.10904e-06
0.00051494
4.9516e-06
0.000512308
5.28783e-06
0.000509517
5.08397e-06
0.000506429
5.46059e-06
0.000503346
5.1159e-06
0.000499979
5.54275e-06
0.000503261
-4.47053e-07
0.000507893
-3.38415e-06
0.000508054
5.37546e-08
0.000507414
1.62242e-06
0.000506549
1.80679e-06
0.000505725
1.88487e-06
0.000504919
1.7965e-06
0.000504098
1.78188e-06
0.000503297
1.67113e-06
0.000502504
1.61319e-06
0.000501738
1.50808e-06
0.000500992
1.43884e-06
0.000500257
1.37079e-06
0.000499644
1.27571e-06
0.000499042
1.1883e-06
0.000498281
1.15617e-06
0.000497633
1.06025e-06
0.000497013
9.74773e-07
0.000496335
9.37089e-07
0.000495752
8.04121e-07
0.000495183
1.04986e-06
0.000494367
1.33746e-06
0.000493494
1.59868e-06
0.000492485
1.7248e-06
0.000491451
2.05617e-06
0.000490295
2.16479e-06
0.000488964
2.69125e-06
0.000487409
2.75176e-06
0.00048568
3.69128e-06
0.000483936
3.6834e-06
0.000481655
4.78797e-06
0.000479118
5.22703e-06
0.000476443
6.4911e-06
0.000473102
6.95777e-06
0.00046909
9.24613e-06
0.000464269
1.03788e-05
0.000458971
1.28856e-05
0.000450894
1.74236e-05
0.00044819
5.84464e-06
0.000264889
0.000400869
-0.00117901
0.00068913
0.00129075
0.000645846
-0.00150576
0.000986015
0.00080759
0.000768765
0.000574444
0.000686768
0.000223804
0.00065595
9.35412e-05
0.000638269
6.13038e-05
0.00063272
2.97875e-05
0.000633222
1.2578e-05
0.000636752
3.69698e-06
0.000642251
-1.84808e-06
0.000648196
-3.83204e-06
0.000653951
-3.2265e-06
0.000659438
-4.63478e-06
0.000663626
-2.72404e-06
0.000669005
-8.9464e-06
0.000672947
-6.68894e-06
0.000677962
-1.0156e-05
0.000682143
-8.24026e-06
0.000686232
-8.15759e-06
0.000689966
-7.29708e-06
0.000692636
-4.52617e-06
0.000695278
-4.64823e-06
0.000696641
-1.62889e-06
0.000697777
-9.96947e-07
0.000698203
6.24402e-07
0.000698165
1.95537e-06
0.000697897
2.22707e-06
0.0006969
4.14178e-06
0.000695879
4.26086e-06
0.000694307
5.51095e-06
0.000692601
5.73146e-06
0.000690583
6.29863e-06
0.000688415
6.95898e-06
0.000686032
7.09077e-06
0.000683416
7.73326e-06
0.000680669
7.69039e-06
0.000677634
8.3327e-06
0.000674509
8.19813e-06
0.000671115
8.86426e-06
0.000667633
8.58826e-06
0.000663711
9.47339e-06
0.00066673
-3.47347e-06
0.000671526
-8.17494e-06
0.000671719
-1.46274e-07
0.00067101
2.336e-06
0.000670139
2.67656e-06
0.000669194
2.82917e-06
0.000668268
2.7216e-06
0.000667323
2.72763e-06
0.000666402
2.58995e-06
0.000665489
2.52435e-06
0.000664607
2.38896e-06
0.000663746
2.29919e-06
0.000662901
2.21778e-06
0.000662079
2.09468e-06
0.000661273
1.99217e-06
0.0006605
1.93047e-06
0.000659753
1.81025e-06
0.000659029
1.69574e-06
0.00065835
1.62253e-06
0.00065767
1.47713e-06
0.000656892
1.83273e-06
0.000655901
2.32264e-06
0.000654833
2.67439e-06
0.000653588
2.96034e-06
0.000652297
3.35986e-06
0.000650755
3.69387e-06
0.000649168
4.29356e-06
0.000647309
4.59412e-06
0.000645025
5.99532e-06
0.000642775
5.91329e-06
0.000639969
7.62553e-06
0.00063663
8.53431e-06
0.000633073
1.00883e-05
0.00062886
1.11301e-05
0.000623711
1.4462e-05
0.000617398
1.66251e-05
0.000610536
1.98395e-05
0.000600185
2.76829e-05
0.000596786
9.20526e-06
0.000385401
0.000612425
-0.00165982
0.000865975
0.00164501
0.000890479
-0.00188953
0.00126293
0.00118967
0.000982016
0.000855359
0.000873954
0.000331865
0.000833925
0.00013357
0.000812285
8.29439e-05
0.000805653
3.64195e-05
0.000806765
1.14656e-05
0.000811885
-1.42252e-06
0.000819538
-9.50155e-06
0.00082815
-1.24545e-05
0.00083651
-1.15763e-05
0.000844807
-1.29421e-05
0.000851201
-9.10666e-06
0.000858359
-1.61142e-05
0.000863704
-1.20242e-05
0.000869846
-1.63075e-05
0.000875157
-1.35415e-05
0.000880147
-1.31566e-05
0.000884797
-1.19386e-05
0.000888183
-7.91223e-06
0.000891459
-7.92484e-06
0.000893367
-3.53662e-06
0.000894888
-2.51825e-06
0.000895653
-1.39953e-07
0.000895796
1.81253e-06
0.00089568
2.34229e-06
0.000894739
5.08331e-06
0.000893716
5.28321e-06
0.000892086
7.1411e-06
0.000890259
7.55839e-06
0.000888086
8.46272e-06
0.000885723
9.3303e-06
0.000883119
9.68792e-06
0.000880237
1.06218e-05
0.00087721
1.07114e-05
0.000873848
1.17017e-05
0.000870387
1.16522e-05
0.000866619
1.26388e-05
0.000862746
1.24546e-05
0.000858359
1.38675e-05
0.000860997
-6.1162e-06
0.000865876
-1.30494e-05
0.000866234
-5.08737e-07
0.000865483
3.09079e-06
0.000864529
3.62978e-06
0.000863473
3.88579e-06
0.000862432
3.76157e-06
0.000861372
3.78855e-06
0.000860336
3.62589e-06
0.000859312
3.54832e-06
0.000858322
3.37849e-06
0.000857356
3.26535e-06
0.000856408
3.16703e-06
0.000855472
3.02923e-06
0.000854558
2.905e-06
0.0008537
2.78986e-06
0.000852866
2.64661e-06
0.000852051
2.50863e-06
0.000851304
2.3738e-06
0.000850541
2.23561e-06
0.000849641
2.73646e-06
0.000848475
3.48458e-06
0.000847203
3.95326e-06
0.000845707
4.45001e-06
0.000844133
4.94242e-06
0.000842249
5.56924e-06
0.000840286
6.26792e-06
0.000838003
6.86533e-06
0.000835167
8.84537e-06
0.000832324
8.74188e-06
0.000828829
1.11441e-05
0.000824628
1.27119e-05
0.0008201
1.46452e-05
0.000814764
1.64365e-05
0.000808255
2.10186e-05
0.000800235
2.45989e-05
0.000791476
2.86652e-05
0.000778297
4.07954e-05
0.00077403
1.3415e-05
0.000542156
0.000844387
-0.00220816
0.00109035
0.00206688
0.0011617
-0.00233816
0.00159508
0.00166146
0.00123829
0.00121216
0.00109828
0.000471872
0.00104638
0.000185467
0.00101962
0.000109709
0.00101137
4.46648e-05
0.00101307
9.76448e-06
0.00102007
-8.41797e-06
0.00103036
-1.97911e-05
0.00104221
-2.43182e-05
0.00105381
-2.31678e-05
0.00106562
-2.47536e-05
0.00107503
-1.8508e-05
0.00108489
-2.59856e-05
0.00109239
-1.95144e-05
0.00110031
-2.42328e-05
0.00110728
-2.05039e-05
0.00111364
-1.95265e-05
0.00111963
-1.79223e-05
0.00112408
-1.2362e-05
0.00112832
-1.21633e-05
0.00113103
-6.2544e-06
0.00113317
-4.65661e-06
0.00113447
-1.43658e-06
0.00113494
1.3416e-06
0.00113513
2.15277e-06
0.00113434
5.87065e-06
0.00113339
6.23071e-06
0.00113176
8.77189e-06
0.00112988
9.44443e-06
0.0011276
1.07349e-05
0.00112504
1.18929e-05
0.00112222
1.25004e-05
0.00111907
1.37772e-05
0.00111575
1.4022e-05
0.00111206
1.53987e-05
0.00110825
1.54619e-05
0.00110407
1.68207e-05
0.00109979
1.67341e-05
0.00109492
1.87432e-05
0.00109715
-8.35029e-06
0.00110213
-1.80264e-05
0.00110272
-1.10459e-06
0.00110196
3.85459e-06
0.00110091
4.66924e-06
0.00109975
5.04685e-06
0.0010986
4.90896e-06
0.00109743
4.96148e-06
0.00109629
4.76943e-06
0.00109515
4.68009e-06
0.00109406
4.47162e-06
0.00109299
4.3316e-06
0.00109195
4.21287e-06
0.00109092
4.0541e-06
0.00108992
3.90239e-06
0.00108896
3.7488e-06
0.00108805
3.56404e-06
0.00108715
3.40657e-06
0.00108632
3.20284e-06
0.00108548
3.07264e-06
0.00108448
3.74443e-06
0.00108312
4.83486e-06
0.00108162
5.45857e-06
0.00107984
6.22178e-06
0.00107795
6.84759e-06
0.00107569
7.82311e-06
0.00107327
8.69709e-06
0.00107047
9.65147e-06
0.001067
1.23264e-05
0.00106345
1.22817e-05
0.00105911
1.54973e-05
0.0010539
1.79061e-05
0.00104822
2.03556e-05
0.00104151
2.31186e-05
0.00103336
2.92088e-05
0.00102329
3.4629e-05
0.00101223
3.97841e-05
0.000995598
5.73664e-05
0.000990238
1.87636e-05
0.000739703
0.00109505
-0.00283567
0.00136698
0.00257135
0.00145707
-0.00286662
0.00199572
0.00223709
0.00154709
0.00166079
0.00136874
0.000650227
0.00130236
0.000251846
0.00126943
0.000142635
0.00125942
5.46791e-05
0.00126199
7.19765e-06
0.00127138
-1.78168e-05
0.00128501
-3.34141e-05
0.00130087
-4.0191e-05
0.0013165
-3.87927e-05
0.00133264
-4.08944e-05
0.0013459
-3.17592e-05
0.0013594
-3.94893e-05
0.00136985
-2.99651e-05
0.00138026
-3.46464e-05
0.00138949
-2.97256e-05
0.00139775
-2.77905e-05
0.00140555
-2.57191e-05
0.00141147
-1.82828e-05
0.00141704
-1.7734e-05
0.00142087
-1.00822e-05
0.00142389
-7.68055e-06
0.00142595
-3.49369e-06
0.00142693
3.56383e-07
0.00142759
1.49902e-06
0.00142708
6.38079e-06
0.00142631
6.99887e-06
0.00142475
1.03259e-05
0.00142287
1.13339e-05
0.00142051
1.30814e-05
0.00141779
1.4621e-05
0.00141477
1.55154e-05
0.00141135
1.72012e-05
0.00140774
1.76272e-05
0.0014037
1.9442e-05
0.00139951
1.96477e-05
0.0013949
2.14364e-05
0.00139018
2.14563e-05
0.00138478
2.414e-05
0.00138658
-1.01529e-05
0.0013917
-2.3137e-05
0.00139258
-1.99109e-06
0.00139185
4.59118e-06
0.00139073
5.78104e-06
0.00138948
6.30118e-06
0.00138823
6.15806e-06
0.00138695
6.239e-06
0.0013857
6.01873e-06
0.00138447
5.918e-06
0.00138328
5.66281e-06
0.00138211
5.49547e-06
0.00138097
5.35109e-06
0.00137986
5.16707e-06
0.00137878
4.9791e-06
0.00137773
4.80303e-06
0.00137674
4.55764e-06
0.00137576
4.38752e-06
0.00137486
4.10161e-06
0.00137395
3.98318e-06
0.00137283
4.85877e-06
0.00137127
6.3956e-06
0.00136952
7.21794e-06
0.00136741
8.3213e-06
0.00136514
9.12828e-06
0.00136243
1.05235e-05
0.00135947
1.16619e-05
0.00135607
1.30487e-05
0.00135184
1.65602e-05
0.00134744
1.66781e-05
0.0013421
2.08506e-05
0.00133566
2.43301e-05
0.00132857
2.74612e-05
0.0013202
3.14695e-05
0.00131007
3.93766e-05
0.0012975
4.71653e-05
0.00128363
5.36928e-05
0.00126281
7.81514e-05
0.00125606
2.54745e-05
0.000983288
0.00136787
-0.00355435
0.00170189
0.00317628
0.00177228
-0.00349155
0.00248216
0.00293121
0.00192249
0.00222045
0.00169778
0.000874942
0.00161356
0.000336062
0.00157313
0.000183068
0.00156108
6.6726e-05
0.0015648
3.48303e-06
0.00157719
-3.02153e-05
0.00159495
-5.1173e-05
0.00161575
-6.09987e-05
0.00163636
-5.93964e-05
0.00165783
-6.23614e-05
0.00167588
-4.98089e-05
0.00169405
-5.76598e-05
0.00170839
-4.43003e-05
0.00172212
-4.83871e-05
0.00173432
-4.1921e-05
0.0017451
-3.85698e-05
0.00175528
-3.58992e-05
0.00176315
-2.61556e-05
0.00177049
-2.50741e-05
0.0017758
-1.53912e-05
0.00178004
-1.19131e-05
0.00178313
-6.58546e-06
0.00178486
-1.37447e-06
0.00178617
1.84594e-07
0.00178609
6.4605e-06
0.00178564
7.44851e-06
0.00178426
1.17073e-05
0.00178244
1.3152e-05
0.00178007
1.54453e-05
0.00177723
1.74722e-05
0.00177403
1.87069e-05
0.00177035
2.08839e-05
0.00176645
2.15254e-05
0.00176205
2.38469e-05
0.00175747
2.42228e-05
0.0017524
2.65088e-05
0.00174721
2.66442e-05
0.00174125
3.00985e-05
0.00174258
-1.14846e-05
0.00174785
-2.84021e-05
0.00174908
-3.23113e-06
0.00174843
5.24801e-06
0.00174728
6.93299e-06
0.00174594
7.63378e-06
0.00174461
7.49324e-06
0.00174324
7.61086e-06
0.00174189
7.36185e-06
0.00174056
7.25022e-06
0.00173928
6.94253e-06
0.00173803
6.74657e-06
0.00173681
6.57139e-06
0.00173561
6.36379e-06
0.00173446
6.12898e-06
0.00173332
5.94231e-06
0.00173226
5.61893e-06
0.0017312
5.44102e-06
0.00173025
5.05827e-06
0.00172927
4.95824e-06
0.00172805
6.08469e-06
0.00172625
8.18617e-06
0.00172421
9.26789e-06
0.00172173
1.07955e-05
0.00171901
1.18476e-05
0.00171578
1.37516e-05
0.00171218
1.52637e-05
0.00170806
1.71637e-05
0.00170293
2.17049e-05
0.00169749
2.21025e-05
0.00169095
2.74123e-05
0.00168302
3.22378e-05
0.00167423
3.62759e-05
0.00166384
4.18393e-05
0.00165128
5.19612e-05
0.00163568
6.27412e-05
0.00161839
7.10231e-05
0.00159245
0.000104047
0.00158392
3.40095e-05
0.00128261
0.00166928
-0.00437745
0.00210551
0.00390287
0.00210291
-0.00423339
0.00307472
0.00375936
0.00238136
0.00291381
0.00210026
0.00115604
0.00199382
0.000442504
0.0019441
0.000232791
0.00192961
8.12168e-05
0.00193474
-1.65082e-06
0.00195082
-4.62922e-05
0.00197366
-7.40108e-05
0.0020005
-8.78426e-05
0.00202722
-8.6113e-05
0.00205521
-9.03597e-05
0.00207921
-7.37996e-05
0.00210325
-8.17068e-05
0.00212257
-6.36216e-05
0.00214065
-6.64615e-05
0.0021567
-5.79689e-05
0.00217075
-5.26241e-05
0.00218401
-4.91573e-05
0.00219443
-3.65753e-05
0.00220408
-3.47226e-05
0.00221133
-2.26435e-05
0.00221717
-1.77511e-05
0.00222164
-1.10621e-05
0.0022244
-4.13434e-06
0.00222663
-2.04174e-06
0.00222718
5.91212e-06
0.00222722
7.40885e-06
0.00222614
1.27827e-05
0.0022245
1.47973e-05
0.00222219
1.77521e-05
0.00221927
2.0391e-05
0.00221594
2.20329e-05
0.00221202
2.4806e-05
0.00220785
2.57019e-05
0.00220308
2.86179e-05
0.0021981
2.91965e-05
0.00219256
3.20537e-05
0.00218688
3.23214e-05
0.00218033
3.6652e-05
0.00218113
-1.229e-05
0.00218655
-3.38196e-05
0.00218821
-4.89001e-06
0.0021877
5.76329e-06
0.00218654
8.08841e-06
0.00218515
9.02079e-06
0.00218375
8.89555e-06
0.0021823
9.06136e-06
0.00218088
8.78486e-06
0.00217946
8.66387e-06
0.00217811
8.29892e-06
0.00217678
8.07255e-06
0.00217549
7.86083e-06
0.00217422
7.633e-06
0.00217301
7.34075e-06
0.0021718
7.15399e-06
0.00217069
6.73149e-06
0.00216957
6.55878e-06
0.00216858
6.05434e-06
0.00216755
5.98582e-06
0.00216621
7.42176e-06
0.00216416
1.02323e-05
0.00216179
1.16465e-05
0.00215887
1.3706e-05
0.00215564
1.50815e-05
0.00215179
1.76065e-05
0.00214744
1.96177e-05
0.00214246
2.21401e-05
0.00213623
2.79387e-05
0.00212955
2.87727e-05
0.00212154
3.54274e-05
0.00211183
4.19488e-05
0.00210095
4.71615e-05
0.00208811
5.46691e-05
0.00207261
6.74769e-05
0.0020533
8.20303e-05
0.00203183
9.25183e-05
0.00199968
0.000136181
0.00198883
4.48283e-05
0.00165236
0.00200578
-0.00531796
0.00259285
0.00477655
0.00244291
-0.00511661
0.00379752
0.00473839
0.00294395
0.00376738
0.00259417
0.00150582
0.00245982
0.00057685
0.00239849
0.000294121
0.00238095
9.87579e-05
0.00238778
-8.47778e-06
0.00240832
-6.68341e-05
0.00243735
-0.000103039
0.00247156
-0.000122057
0.00250575
-0.000120305
0.00254174
-0.000126355
0.00257305
-0.000105098
0.00260441
-0.000113075
0.00263004
-8.92498e-05
0.00265368
-9.01043e-05
0.00267467
-7.89542e-05
0.00269294
-7.08947e-05
0.00271014
-6.63596e-05
0.00272384
-5.02762e-05
0.00273647
-4.73522e-05
0.00274624
-3.24114e-05
0.00275419
-2.56975e-05
0.00276049
-1.73599e-05
0.00276464
-8.28609e-06
0.0027681
-5.50176e-06
0.00276953
4.48084e-06
0.00277028
6.65734e-06
0.00276968
1.33796e-05
0.00276835
1.61265e-05
0.00276621
1.98882e-05
0.00276331
2.32912e-05
0.00275991
2.54298e-05
0.0027558
2.89261e-05
0.00275137
3.01254e-05
0.00274625
3.37464e-05
0.00274088
3.456e-05
0.00273486
3.80781e-05
0.00272868
3.8494e-05
0.00272151
4.38215e-05
0.00272172
-1.24995e-05
0.00272727
-3.9369e-05
0.00272942
-7.04395e-06
0.00272913
6.05453e-06
0.00272803
9.1922e-06
0.00272662
1.04249e-05
0.00272518
1.03334e-05
0.00272368
1.05635e-05
0.00272221
1.02587e-05
0.00272073
1.01359e-05
0.00271933
9.70371e-06
0.00271795
9.45003e-06
0.00271662
9.19469e-06
0.00271529
8.95572e-06
0.00271404
8.59082e-06
0.00271278
8.41781e-06
0.00271164
7.87447e-06
0.00271048
7.71731e-06
0.00270947
7.06601e-06
0.00270841
7.04506e-06
0.00270697
8.8628e-06
0.00270464
1.25569e-05
0.00270189
1.43972e-05
0.00269848
1.71181e-05
0.00269464
1.89173e-05
0.00269005
2.21993e-05
0.0026848
2.48704e-05
0.0026788
2.81375e-05
0.00267125
3.54857e-05
0.00266308
3.69401e-05
0.00265331
4.5206e-05
0.00264142
5.38344e-05
0.00262801
6.05774e-05
0.00261219
7.04801e-05
0.00259311
8.65752e-05
0.0025693
0.000105823
0.00254273
0.000119116
0.002503
0.000175881
0.00248911
5.87332e-05
0.00211169
0.00238329
-0.00638909
0.00318267
0.00582767
0.00278505
-0.00616971
0.0046795
0.00588657
0.00363492
0.00481195
0.00320158
0.00193916
0.00303203
0.000746398
0.00295606
0.000370087
0.00293464
0.000120185
0.00294342
-1.72573e-05
0.00296933
-9.27458e-05
0.00300586
-0.000139572
0.00304903
-0.000165223
0.00309233
-0.000163608
0.00313808
-0.000172106
0.00317834
-0.000145356
0.00321877
-0.000153502
0.0032523
-0.000122783
0.003283
-0.000120809
0.00331027
-0.000106217
0.00333392
-9.45493e-05
0.00335614
-8.85793e-05
0.00337405
-6.81784e-05
0.00339049
-6.37982e-05
0.0034035
-4.54177e-05
0.00341418
-3.6379e-05
0.00342285
-2.60344e-05
0.00342885
-1.42866e-05
0.00343396
-1.06043e-05
0.0034366
1.83698e-06
0.00343835
4.90443e-06
0.00343846
1.32692e-05
0.00343764
1.69536e-05
0.00343582
2.17047e-05
0.00343305
2.60582e-05
0.00342968
2.88049e-05
0.00342543
3.3179e-05
0.00342081
3.47436e-05
0.00341536
3.91997e-05
0.00340962
4.029e-05
0.00340313
4.45731e-05
0.00339647
4.51562e-05
0.00338868
5.16128e-05
0.00338821
-1.2035e-05
0.00339385
-4.50074e-05
0.00339657
-9.76078e-06
0.0033966
6.0225e-06
0.00339562
1.01732e-05
0.00339425
1.17945e-05
0.00339282
1.17634e-05
0.00339131
1.20778e-05
0.00338982
1.17492e-05
0.00338832
1.16319e-05
0.0033869
1.11235e-05
0.0033855
1.08465e-05
0.00338416
1.05384e-05
0.00338282
1.03007e-05
0.00338156
9.84836e-06
0.00338027
9.7037e-06
0.00337914
9.01286e-06
0.00337796
8.89167e-06
0.00337697
8.05782e-06
0.00337591
8.10654e-06
0.00337438
1.03948e-05
0.00337175
1.51827e-05
0.00336858
1.75642e-05
0.00336459
2.11107e-05
0.00336005
2.34564e-05
0.00335459
2.76642e-05
0.00334827
3.11889e-05
0.00334105
3.53578e-05
0.00333193
4.46024e-05
0.00332195
4.69178e-05
0.00331006
5.7108e-05
0.00329553
6.83563e-05
0.00327906
7.70528e-05
0.00325961
8.99247e-05
0.00323618
0.000110013
0.00320689
0.000135106
0.0031741
0.000151916
0.00312519
0.000224784
0.00310723
7.66674e-05
0.00268455
0.00280599
-0.00760204
0.0038975
0.00709261
0.00311863
-0.00742625
0.00575585
0.00722332
0.00448454
0.00608327
0.00394982
0.00247388
0.00373574
0.000960474
0.00364119
0.000464644
0.00361471
0.000146665
0.00362567
-2.82182e-05
0.00365798
-0.000125059
0.00370356
-0.000185152
0.00375757
-0.000219236
0.00381194
-0.000217971
0.00386956
-0.000229734
0.00392075
-0.000196546
0.00397232
-0.000205074
0.00401568
-0.000166138
0.00405527
-0.000160401
0.00409046
-0.000141402
0.00412094
-0.000125031
0.00414951
-0.00011715
0.00417275
-9.14218e-05
0.00419406
-8.51053e-05
0.00421121
-6.25644e-05
0.00422541
-5.05875e-05
0.00423716
-3.77798e-05
0.00424559
-2.27134e-05
0.00425286
-1.78744e-05
0.00425713
-2.43975e-06
0.00426026
1.7796e-06
0.00426137
1.21537e-05
0.0042613
1.70262e-05
0.00426001
2.29929e-05
0.00425754
2.85296e-05
0.00425432
3.202e-05
0.00425003
3.74679e-05
0.00424531
3.94698e-05
0.00423959
4.49221e-05
0.00423354
4.63337e-05
0.00422661
5.1509e-05
0.00421948
5.2278e-05
0.00421109
6.0003e-05
0.00420988
-1.08233e-05
0.00421554
-5.06702e-05
0.00421889
-1.31115e-05
0.00421937
5.54258e-06
0.00421861
1.09339e-05
0.00421735
1.30552e-05
0.00421599
1.31205e-05
0.00421452
1.35451e-05
0.00421307
1.3199e-05
0.00421161
1.3097e-05
0.00421023
1.25046e-05
0.00420886
1.22102e-05
0.00420756
1.18414e-05
0.00420624
1.16214e-05
0.00420502
1.1061e-05
0.00420376
1.09683e-05
0.00420268
1.00972e-05
0.00420153
1.00351e-05
0.00420061
8.98276e-06
0.00419959
9.12467e-06
0.00419799
1.19901e-05
0.00419505
1.81274e-05
0.00419141
2.11974e-05
0.00418676
2.57652e-05
0.0041814
2.88154e-05
0.00417491
3.41519e-05
0.00416733
3.87749e-05
0.00415865
4.40313e-05
0.00414765
5.56032e-05
0.0041355
5.90668e-05
0.00412104
7.15804e-05
0.00410333
8.60549e-05
0.00408314
9.72487e-05
0.00405929
0.00011377
0.00403058
0.000138737
0.00399463
0.000171038
0.00395428
0.00019229
0.00389423
0.000284811
0.00387079
0.000100133
0.00340109
0.00327576
-0.00896584
0.00476476
0.00861536
0.00342933
-0.00892597
0.00706971
0.00876898
0.00553004
0.00762293
0.00487288
0.00313104
0.0046024
0.00123095
0.00448406
0.000582988
0.0044509
0.000179819
0.00446419
-4.15086e-05
0.00450407
-0.000164932
0.00456048
-0.000241569
0.00462757
-0.000286325
0.00469531
-0.000285708
0.00476734
-0.000301765
0.00483182
-0.000261028
0.00489703
-0.000270286
0.00495252
-0.000221618
0.00500319
-0.000211075
0.00504831
-0.000186521
0.00508739
-0.000164112
0.00512396
-0.000153719
0.00515396
-0.000121419
0.00518142
-0.000112571
0.00520383
-8.49745e-05
0.00522255
-6.93052e-05
0.00523824
-5.34744e-05
0.00524983
-3.42964e-05
0.00525992
-2.7969e-05
0.00526637
-8.8893e-06
0.00527134
-3.18897e-06
0.00527385
9.6429e-06
0.00527486
1.60188e-05
0.00527436
2.34856e-05
0.00527241
3.04871e-05
0.00526953
3.48966e-05
0.00526535
4.16488e-05
0.00526064
4.41819e-05
0.00525474
5.08191e-05
0.00524846
5.26112e-05
0.00524115
5.88211e-05
0.00523363
5.97998e-05
0.0052247
6.8938e-05
0.00522267
-8.8004e-06
0.00522827
-5.627e-05
0.00523231
-1.71476e-05
0.00523338
4.47248e-06
0.00523297
1.13484e-05
0.00523191
1.4108e-05
0.00523072
1.43152e-05
0.00522938
1.48886e-05
0.00522805
1.45298e-05
0.00522668
1.44638e-05
0.00522541
1.37724e-05
0.00522415
1.34736e-05
0.00522296
1.30313e-05
0.00522173
1.28522e-05
0.00522063
1.21627e-05
0.00521945
1.2148e-05
0.00521848
1.10597e-05
0.00521743
1.10891e-05
0.00521664
9.76963e-06
0.00521573
1.00396e-05
0.00521411
1.36069e-05
0.00521083
2.1406e-05
0.00520669
2.53389e-05
0.00520128
3.11802e-05
0.00519497
3.51221e-05
0.00518728
4.18429e-05
0.0051782
4.78595e-05
0.00516779
5.4438e-05
0.00515454
6.88499e-05
0.00513978
7.38299e-05
0.00512222
8.91397e-05
0.00510068
0.000107592
0.005076
0.000121934
0.00504681
0.000142955
0.0050117
0.000173855
0.00496769
0.000215045
0.00491814
0.000241849
0.00484465
0.000358292
0.0048137
0.000131068
0.00429859
0.00379087
-0.0104843
0.00581713
0.0104494
0.00369588
-0.010716
0.00867407
0.0105443
0.00681739
0.00947961
0.00601308
0.00393535
0.00567117
0.00157286
0.00552221
0.000731951
0.00548013
0.000221897
0.00549574
-5.71214e-05
0.00554445
-0.000213636
0.00561377
-0.000310893
0.00569656
-0.000369115
0.00578039
-0.000369542
0.00586984
-0.00039121
0.0059504
-0.00034159
0.00603223
-0.000352121
0.00610258
-0.000291966
0.00616699
-0.000275483
0.00622448
-0.000244007
0.00627432
-0.000213959
0.0063209
-0.0002003
0.00635939
-0.00015991
0.00639462
-0.000147792
0.00642368
-0.000114038
0.00644814
-9.37634e-05
0.00646886
-7.42023e-05
0.00648452
-4.99487e-05
0.00649827
-4.17207e-05
0.00650757
-1.81879e-05
0.00651499
-1.06089e-05
0.00651939
5.24434e-06
0.0065219
1.35045e-05
0.00652256
2.28255e-05
0.00652141
3.1639e-05
0.00651912
3.71828e-05
0.00651524
4.55245e-05
0.00651072
4.87028e-05
0.00650479
5.67545e-05
0.0064984
5.89916e-05
0.00649082
6.64095e-05
0.006483
6.76199e-05
0.00647362
7.83191e-05
0.00647075
-5.93551e-06
0.00647619
-6.17068e-05
0.00648095
-2.19108e-05
0.00648277
2.65012e-06
0.00648286
1.12537e-05
0.00648216
1.48134e-05
0.00648125
1.52268e-05
0.00648014
1.59962e-05
0.00647904
1.56315e-05
0.00647787
1.56273e-05
0.00647682
1.48227e-05
0.00647575
1.45387e-05
0.00647478
1.40055e-05
0.00647373
1.3902e-05
0.00647284
1.30532e-05
0.00647183
1.31565e-05
0.00647109
1.18037e-05
0.00647021
1.19664e-05
0.00646965
1.03252e-05
0.00646893
1.07639e-05
0.00646735
1.51845e-05
0.00646374
2.50175e-05
0.00645905
3.00326e-05
0.00645277
3.74512e-05
0.00644538
4.25219e-05
0.00643628
5.09366e-05
0.00642543
5.87134e-05
0.00641297
6.68974e-05
0.00639704
8.47795e-05
0.00637915
9.1717e-05
0.00635787
0.000110423
0.00633172
0.000133738
0.00630161
0.000152049
0.00626597
0.000178591
0.00622311
0.000216728
0.00616934
0.000268803
0.00610863
0.000302574
0.00601897
0.000447937
0.00597768
0.000172383
0.00542425
0.00434437
-0.0121549
0.00709471
0.01266
0.00388826
-0.0128523
0.0106342
0.0125701
0.00840345
0.0117104
0.00742329
0.00491552
0.00699104
0.00200512
0.00680243
0.000920557
0.00674828
0.000276047
0.00676596
-7.47987e-05
0.00682484
-0.000272522
0.00690942
-0.00039547
0.00701096
-0.000470654
0.00711409
-0.000472666
0.0072245
-0.000501625
0.00732444
-0.000441531
0.00742644
-0.000454117
0.00751491
-0.000380442
0.00759621
-0.000356776
0.00766899
-0.00031679
0.00773221
-0.000277181
0.00779127
-0.000259351
0.00784037
-0.000209016
0.00788531
-0.000192732
0.00792274
-0.000151464
0.00795444
-0.000125469
0.00798156
-0.000101314
0.00800241
-7.08066e-05
0.00802085
-6.0161e-05
0.00803385
-3.11872e-05
0.00804448
-2.12378e-05
0.0080514
-1.67164e-06
0.00805596
8.94327e-06
0.00805823
2.05585e-05
0.00805826
3.16087e-05
0.00805689
3.85536e-05
0.00805358
4.88299e-05
0.00804949
5.27931e-05
0.00804371
6.2533e-05
0.00803741
6.52927e-05
0.0080297
7.41187e-05
0.00802173
7.55881e-05
0.00801206
8.79898e-05
0.00800837
-2.23972e-06
0.00801354
-6.68746e-05
0.00801903
-2.74073e-05
0.00802178
-9.9824e-08
0.00802259
1.04477e-05
0.00802241
1.49974e-05
0.00802194
1.56934e-05
0.00802122
1.67204e-05
0.00802049
1.63636e-05
0.00801966
1.64525e-05
0.00801896
1.55187e-05
0.00801823
1.52733e-05
0.00801761
1.46298e-05
0.00801686
1.46457e-05
0.00801632
1.36007e-05
0.0080156
1.3873e-05
0.0080152
1.22004e-05
0.00801462
1.25505e-05
0.00801442
1.05219e-05
0.008014
1.1183e-05
0.00801256
1.66301e-05
0.00800863
2.89485e-05
0.00800335
3.53095e-05
0.00799611
4.46874e-05
0.00798746
5.11718e-05
0.00797674
6.16643e-05
0.00796381
7.16452e-05
0.00794891
8.17895e-05
0.0079298
0.000103895
0.00790817
0.000113339
0.00788244
0.00013616
0.00785074
0.000165431
0.0078141
0.00018869
0.00777068
0.000222018
0.00771846
0.00026895
0.00765291
0.000334349
0.00757868
0.000376801
0.00746964
0.000556984
0.00741406
0.000227945
0.0068389
0.00491952
-0.0139636
0.00864765
0.0153269
0.00396215
-0.0154008
0.0130309
0.0148661
0.0103587
0.0143825
0.00916962
0.00610464
0.00862341
0.00255133
0.00838325
0.00116071
0.00831265
0.000346655
0.0083317
-9.38525e-05
0.00840214
-0.000342959
0.00850459
-0.000497925
0.0086284
-0.000594467
0.00875452
-0.000598782