/*--------------------------------*- C++ -*----------------------------------*\
| =========                 |                                                 |
| \\      /  F ield         | OpenFOAM: The Open Source CFD Toolbox           |
|  \\    /   O peration     | Version:  5.x                                   |
|   \\  /    A nd           | Web:      www.OpenFOAM.org                      |
|    \\/     M anipulation  |                                                 |
\*---------------------------------------------------------------------------*/
FoamFile
{
    version     2.0;
    format      ascii;
    class       volVectorField;
    location    "750";
    object      U;
}
// * * * * * * * * * * * * * * * * * * * * * * * * * * * * * * * * * * * * * //

dimensions      [0 1 -1 0 0 0 0];

internalField   nonuniform List<vector> 
11040
(
(-4.50709 25.0888 0)
(-0.63194 30.5776 -1.53158e-19)
(5.69829 33.779 1.58426e-17)
(11.5762 32.7426 1.83038e-17)
(16.0357 29.4381 3.79915e-17)
(19.1038 25.279 -1.81779e-17)
(21.0031 20.9323 -1.77027e-17)
(21.9292 16.791 1.76581e-17)
(22.0562 13.0683 3.85958e-17)
(21.4741 9.79741 1.24204e-18)
(19.8738 6.69364 1.67343e-17)
(17.6943 4.20192 -7.1013e-19)
(15.8089 2.69512 1.02753e-17)
(14.4963 1.91551 6.85698e-18)
(13.2026 1.32215 2.82814e-18)
(11.5916 0.75641 -6.12026e-19)
(9.67361 0.2877 3.14718e-18)
(7.55144 -0.0363839 8.32745e-19)
(5.24782 -0.223164 -9.81652e-19)
(2.77283 -0.276393 -1.46326e-17)
(0.474926 -0.155841 -2.23044e-17)
(-1.1215 0.0324226 -3.17495e-17)
(-2.00284 0.149643 -6.02726e-17)
(-2.53695 0.235778 -3.82936e-18)
(-2.83356 0.305357 -1.63659e-20)
(-2.97518 0.360476 2.00848e-18)
(-3.03636 0.408844 -1.30781e-16)
(-3.06993 0.458257 2.05329e-18)
(-3.10657 0.50901 -1.33855e-16)
(-3.16468 0.560784 1.2906e-16)
(-3.25558 0.617311 2.0013e-18)
(-3.38864 0.681168 9.5883e-19)
(-3.56715 0.751775 -9.04574e-19)
(-3.77709 0.823141 0)
(-3.97081 0.881181 2.02193e-16)
(-4.05407 0.903887 0)
(-3.91901 0.867775 0)
(-3.53955 0.759084 -3.6967e-19)
(-2.75403 0.492002 4.42013e-19)
(-1.62334 -0.141803 -2.16338e-16)
(-1.56401 -0.999025 -1.95364e-16)
(-0.273951 24.3953 0)
(4.02906 28.5192 0)
(11.7128 30.0625 -8.95869e-18)
(18.2452 28.7812 9.33195e-18)
(22.9265 26.6871 -2.24982e-17)
(26.1933 24.3335 2.28362e-17)
(28.3046 21.6614 1.08302e-17)
(29.3781 18.7255 1.38848e-18)
(29.5629 15.6789 -9.00769e-19)
(29.0208 12.6894 1.05307e-17)
(27.636 9.65967 -1.17142e-18)
(25.3314 7.05286 0)
(22.7289 5.18352 0)
(20.4154 3.88536 -3.15045e-18)
(18.363 2.82109 -1.49481e-18)
(16.276 1.96065 5.84797e-19)
(14.0227 1.2998 0)
(11.5487 0.805965 -3.55504e-19)
(8.81121 0.462074 1.33173e-18)
(5.85579 0.260455 1.29591e-18)
(2.84729 0.182662 7.69942e-18)
(0.497343 0.197274 1.11379e-17)
(-0.917401 0.232554 1.68509e-18)
(-1.82099 0.273615 -2.95209e-17)
(-2.37555 0.319361 2.79698e-17)
(-2.69994 0.366187 2.00368e-18)
(-2.90342 0.416606 6.74048e-17)
(-3.05441 0.470339 -1.092e-18)
(-3.1883 0.52729 7.2554e-17)
(-3.32791 0.588961 -7.21572e-17)
(-3.48093 0.656155 -7.25841e-17)
(-3.64834 0.729062 7.14561e-17)
(-3.82192 0.804619 -1.40513e-21)
(-3.9816 0.875176 -1.45411e-18)
(-4.08998 0.927427 -5.76992e-17)
(-4.09176 0.939993 0)
(-3.93905 0.893459 -3.98706e-19)
(-3.52493 0.77709 9.46378e-17)
(-2.56003 0.554544 9.64559e-17)
(-0.745619 -0.0336902 9.00466e-17)
(-0.277395 -1.14699 1.27757e-16)
(1.51382 23.4648 0)
(5.47005 26.6002 0)
(10.8828 28.2014 2.34371e-18)
(15.9452 28.0851 -6.76673e-18)
(20.0429 26.7065 6.97734e-18)
(23.4049 24.6128 -8.31458e-18)
(26.0915 22.1198 -6.31479e-18)
(28.0387 19.4049 0)
(29.2175 16.5973 -9.66933e-18)
(29.6706 13.8088 -5.38959e-18)
(29.3386 10.9691 0)
(28.0527 8.44121 0)
(26.134 6.47778 -3.5466e-18)
(24.055 4.98814 -2.23602e-18)
(21.9279 3.72783 -4.95641e-20)
(19.6756 2.70107 5.19823e-20)
(17.2597 1.91218 0)
(14.6572 1.3285 0)
(11.8065 0.919393 -2.91772e-19)
(8.67605 0.648572 8.21215e-19)
(5.35279 0.478728 -9.26372e-19)
(2.54667 0.37892 4.39665e-18)
(0.636777 0.320039 -3.52985e-20)
(-0.682053 0.299876 -1.40423e-17)
(-1.53762 0.311954 -1.14266e-18)
(-2.08424 0.344338 -1.24263e-18)
(-2.45102 0.392008 -1.58004e-21)
(-2.71166 0.448082 1.38994e-18)
(-2.91643 0.509483 0)
(-3.09725 0.575186 0)
(-3.2698 0.644188 9.52607e-17)
(-3.4415 0.715733 -9.2896e-17)
(-3.61304 0.786374 4.42775e-17)
(-3.77635 0.849157 0)
(-3.90644 0.892695 3.95392e-17)
(-3.94989 0.893616 3.72061e-17)
(-3.83912 0.8169 0)
(-3.47986 0.641836 1.3209e-19)
(-2.58611 0.335643 -2.19843e-19)
(-0.792345 -0.366181 0)
(-0.210291 -1.7019 -5.49688e-17)
(3.33154 22.4026 1.03313e-19)
(7.0312 24.8594 -1.06668e-19)
(11.2588 26.2142 2.95674e-19)
(15.6865 26.3224 0)
(19.5511 25.2839 -7.23375e-18)
(22.6769 23.5577 0)
(25.147 21.4181 1.40581e-17)
(26.987 19.0289 1.19284e-20)
(28.2188 16.5289 1.35787e-18)
(28.8934 14.0335 8.25939e-18)
(29.0153 11.5061 1.18786e-18)
(28.4414 9.18774 2.75889e-18)
(27.2846 7.31359 6.29112e-18)
(25.8348 5.8479 1.74471e-18)
(24.1786 4.57405 0)
(22.2503 3.48217 1.7668e-19)
(20.0298 2.60181 2.52655e-19)
(17.5332 1.92975 7.03624e-19)
(14.7391 1.44743 4.71984e-19)
(11.6087 1.11364 -5.01834e-19)
(8.15226 0.871254 -2.75206e-18)
(5.00929 0.671889 -3.94011e-18)
(2.59961 0.506172 0)
(0.787534 0.397934 2.51685e-17)
(-0.449706 0.349708 -1.52363e-17)
(-1.26906 0.346787 1.4264e-17)
(-1.82287 0.37667 -2.98377e-17)
(-2.20866 0.424981 0)
(-2.49704 0.483569 0)
(-2.72799 0.548031 0)
(-2.92797 0.616203 -3.39699e-17)
(-3.1149 0.687188 3.47314e-17)
(-3.29964 0.757338 -1.00541e-18)
(-3.48243 0.818392 -3.18252e-17)
(-3.64339 0.856441 -2.7866e-17)
(-3.73064 0.844209 -2.74254e-17)
(-3.67821 0.739204 -4.80594e-17)
(-3.40695 0.513463 -4.20501e-17)
(-2.65969 0.140831 -1.51268e-19)
(-1.07719 -0.602789 -3.49376e-17)
(-0.504225 -2.03243 2.12287e-17)
(5.15183 21.237 0)
(8.39452 23.1644 1.53935e-19)
(11.7665 24.281 -5.16382e-20)
(15.4071 24.6025 2.86686e-19)
(18.8016 24.0296 5.43247e-18)
(21.71 22.7727 -5.05332e-18)
(24.1173 21.0224 -1.85306e-18)
(25.9842 18.9271 -6.50695e-18)
(27.2855 16.6436 0)
(28.0563 14.3107 -7.61027e-18)
(28.3348 11.9476 0)
(28.0643 9.74609 -1.68316e-18)
(27.3181 7.92393 -3.3943e-18)
(26.3104 6.48843 0)
(25.1352 5.26064 5.44169e-19)
(23.715 4.1959 0)
(21.9783 3.31379 0)
(19.9015 2.61746 -3.74308e-19)
(17.4515 2.0967 -5.54326e-19)
(14.58 1.71769 0)
(11.2386 1.4169 2.0619e-18)
(7.96957 1.13218 0)
(5.16364 0.851963 0)
(2.80811 0.61826 -8.38074e-18)
(1.05093 0.468086 0)
(-0.158442 0.399172 1.15153e-17)
(-0.974521 0.390256 2.41208e-17)
(-1.53568 0.416475 0)
(-1.94024 0.463105 0)
(-2.24462 0.520788 0)
(-2.48925 0.585188 2.76306e-17)
(-2.70295 0.654612 2.34457e-17)
(-2.90684 0.724712 -2.43572e-17)
(-3.11051 0.785019 -7.58395e-19)
(-3.30183 0.817874 6.99277e-19)
(-3.43584 0.791899 0)
(-3.45393 0.658913 3.76695e-17)
(-3.29222 0.383345 -3.28264e-17)
(-2.73147 -0.052361 2.96102e-17)
(-1.45391 -0.814072 2.67262e-17)
(-0.961374 -2.22491 3.60012e-20)
(6.82475 20.0093 -2.3016e-19)
(9.58878 21.516 -2.76388e-20)
(12.3242 22.424 7.08273e-19)
(15.281 22.8464 -1.40318e-19)
(18.196 22.6034 -6.49367e-19)
(20.8287 21.7586 4.95768e-18)
(23.1116 20.4272 -6.1055e-18)
(24.977 18.71 5.31834e-18)
(26.3595 16.7332 2.40587e-18)
(27.2518 14.6261 -1.22262e-18)
(27.6736 12.4367 0)
(27.5959 10.3287 0)
(27.0744 8.5121 6.17924e-19)
(26.2877 7.04798 -6.55125e-19)
(25.3687 5.82384 -8.18856e-19)
(24.2986 4.78503 -2.3417e-19)
(23.0103 3.93298 7.85542e-19)
(21.453 3.26488 1.50062e-19)
(19.5601 2.7647 1.13486e-18)
(17.2392 2.39605 -2.5571e-18)
(14.3573 2.08721 3.81839e-18)
(11.3019 1.76361 -2.05987e-18)
(8.36654 1.39741 1.21843e-18)
(5.57385 1.0275 1.50833e-18)
(3.22575 0.73185 -9.12754e-18)
(1.46666 0.54623 1.19852e-20)
(0.239404 0.460262 -2.28501e-17)
(-0.600396 0.441389 -1.88349e-17)
(-1.19005 0.461603 0)
(-1.61584 0.503278 0)
(-1.93827 0.558341 -1.99525e-17)
(-2.19894 0.623106 -4.34024e-17)
(-2.43023 0.691797 -1.27506e-18)
(-2.65399 0.751259 1.94011e-17)
(-2.87172 0.77976 1.92841e-17)
(-3.0522 0.741697 -1.75616e-17)
(-3.14774 0.583655 4.83891e-19)
(-3.11024 0.262811 5.37867e-17)
(-2.76142 -0.230383 -4.7987e-17)
(-1.84282 -1.00664 8.24313e-20)
(-1.48586 -2.32347 1.55967e-17)
(8.33047 18.7576 0)
(10.6514 19.9298 -5.96944e-19)
(12.8886 20.6656 -1.31642e-18)
(15.2807 21.1084 -2.76334e-19)
(17.7219 21.0818 -2.26873e-19)
(20.031 20.5663 7.73042e-19)
(22.1269 19.6143 -2.80108e-18)
(23.931 18.2823 1.20403e-18)
(25.3592 16.6574 0)
(26.3718 14.8426 1.5132e-18)
(26.9622 12.8908 -2.90225e-18)
(27.0936 10.9327 2.60111e-18)
(26.786 9.15489 -2.81226e-19)
(26.1718 7.65681 0)
(25.3924 6.39772 2.79563e-19)
(24.4933 5.34138 2.28983e-19)
(23.4586 4.48548 -2.08372e-19)
(22.2679 3.83029 -5.81256e-19)
(20.8778 3.36193 3.9987e-19)
(19.1991 3.04339 9.71806e-19)
(17.0446 2.79098 -1.08356e-18)
(14.5895 2.50897 -1.49045e-18)
(11.9548 2.13877 0)
(9.08625 1.68268 2.13312e-18)
(6.29467 1.23102 5.15218e-18)
(3.90862 0.873728 -7.78712e-18)
(2.08972 0.648941 5.6247e-18)
(0.797774 0.538202 1.74475e-17)
(-0.103644 0.502798 -2.39792e-18)
(-0.741618 0.510719 -2.39338e-21)
(-1.20604 0.54517 -1.41557e-17)
(-1.55743 0.598178 -4.60064e-18)
(-1.84208 0.661676 -1.54152e-17)
(-2.09653 0.719391 0)
(-2.34058 0.744934 -1.53706e-17)
(-2.56324 0.698402 1.52262e-17)
(-2.73489 0.521913 -1.36949e-17)
(-2.82718 0.166056 -4.5758e-17)
(-2.70316 -0.373193 2.00028e-17)
(-2.16916 -1.16402 6.97653e-20)
(-2.00077 -2.36612 -2.8216e-17)
(9.6604 17.5134 1.4026e-18)
(11.5949 18.4223 -4.01394e-19)
(13.433 19.017 -2.80875e-19)
(15.3706 19.4337 1.12627e-18)
(17.38 19.531 -3.9872e-19)
(19.3471 19.2588 -8.46281e-19)
(21.2049 18.6253 1.7922e-18)
(22.882 17.649 1.75829e-18)
(24.2926 16.3797 -1.42959e-18)
(25.3814 14.8888 0)
(26.1236 13.222 -8.52189e-19)
(26.4694 11.4776 1.35503e-19)
(26.4007 9.80681 -9.79489e-21)
(25.9941 8.32155 3.57059e-19)
(25.3672 7.03639 -2.336e-20)
(24.5939 5.94561 2.43043e-20)
(23.6985 5.0534 0)
(22.6989 4.36837 0)
(21.6035 3.8891 -1.78609e-18)
(20.3905 3.59561 1.57216e-18)
(18.9296 3.41358 -1.0566e-18)
(17.2514 3.234 1.10016e-18)
(15.3077 2.96537 1.3115e-18)
(12.9052 2.54937 0)
(10.1671 2.02834 1.77569e-18)
(7.3968 1.503 -2.11692e-18)
(4.93889 1.0749 -5.14946e-18)
(3.00005 0.792624 0)
(1.58373 0.64149 0)
(0.576627 0.578096 2.06347e-18)
(-0.143485 0.567807 1.76035e-17)
(-0.669122 0.592669 1.50901e-17)
(-1.06579 0.640483 3.05245e-17)
(-1.38697 0.691827 1.89248e-18)
(-1.67419 0.715489 0)
(-1.94185 0.666252 -7.92258e-19)
(-2.18534 0.481924 1.25273e-17)
(-2.40076 0.107961 6.79469e-20)
(-2.4968 -0.458446 1.79313e-17)
(-2.34328 -1.25636 1.52879e-17)
(-2.41685 -2.34808 1.29913e-17)
(10.82 16.3039 -8.44655e-19)
(12.4283 17.0076 -1.03726e-20)
(13.943 17.4866 1.11828e-18)
(15.5165 17.8556 -2.11137e-18)
(17.154 18.0106 0)
(18.7925 17.8998 -5.21989e-19)
(20.3891 17.5095 1.40225e-18)
(21.8894 16.8347 -1.11554e-18)
(23.2188 15.8943 3.87769e-19)
(24.3202 14.729 8.34442e-19)
(25.161 13.3699 3.91116e-20)
(25.6852 11.8849 -1.48702e-18)
(25.8477 10.3868 0)
(25.6749 8.97955 -6.55657e-20)
(25.2458 7.71117 -2.37022e-19)
(24.6322 6.60595 2.65409e-19)
(23.8744 5.67793 6.13606e-19)
(23.0068 4.94332 -6.33058e-19)
(22.0668 4.41125 5.25268e-19)
(21.0892 4.08159 0)
(20.0528 3.91259 -2.00418e-18)
(18.9847 3.81343 3.61168e-18)
(17.7848 3.68615 -3.06552e-18)
(16.1952 3.43084 -2.18214e-20)
(14.1183 3.01262 2.50098e-18)
(11.6202 2.46738 -2.84943e-18)
(8.94522 1.88664 0)
(6.42279 1.37642 1.01925e-17)
(4.31307 1.0071 4.90202e-18)
(2.70224 0.78649 2.87607e-18)
(1.52719 0.678045 -1.32102e-17)
(0.676858 0.64096 -3.66128e-18)
(0.0565201 0.648966 3.89233e-18)
(-0.40957 0.679121 -1.85428e-18)
(-0.788231 0.695718 -1.00236e-17)
(-1.12449 0.647952 -1.50286e-18)
(-1.44505 0.469606 0)
(-1.77353 0.100575 1.9734e-17)
(-2.06764 -0.466291 -1.67332e-17)
(-2.25761 -1.25191 -1.42061e-17)
(-2.61023 -2.24867 0)
(11.8213 15.151 0)
(13.1585 15.6959 0)
(14.4099 16.0798 0)
(15.6918 16.3942 5.83508e-18)
(17.0202 16.5647 -3.33069e-18)
(18.3642 16.55 1.49177e-18)
(19.702 16.3305 1.33521e-18)
(20.9989 15.8905 -3.47324e-19)
(22.1984 15.2292 -3.44983e-19)
(23.251 14.363 1.12378e-19)
(24.1247 13.3072 -1.10602e-19)
(24.7655 12.1023 5.15554e-19)
(25.1154 10.8243 -1.24888e-19)
(25.1651 9.55669 1.26608e-19)
(24.955 8.36002 6.87533e-19)
(24.5379 7.28026 -5.83235e-19)
(23.9539 6.34332 -1.07101e-18)
(23.2388 5.57096 1.10386e-18)
(22.434 4.97897 -8.6524e-19)
(21.5888 4.57643 0)
(20.7453 4.35106 -2.9122e-18)
(19.9862 4.24967 2.07623e-18)
(19.2622 4.19777 8.3238e-19)
(18.3754 4.10188 -1.67923e-18)
(17.1637 3.88958 3.64087e-18)
(15.5015 3.52119 0)
(13.3795 3.00742 0)
(10.9423 2.41219 -2.60322e-18)
(8.45138 1.83066 -1.53872e-17)
(6.18265 1.35052 -7.32695e-18)
(4.3165 1.01754 8.60925e-18)
(2.89013 0.826208 2.48919e-18)
(1.83927 0.739657 -1.3928e-17)
(1.06986 0.7142 -2.98815e-18)
(0.489711 0.703895 1.83811e-17)
(0.0194945 0.653301 -2.99174e-18)
(-0.407045 0.492152 -1.098e-17)
(-0.850699 0.152702 1.21836e-18)
(-1.3173 -0.382926 1.50358e-17)
(-1.78797 -1.12731 0)
(-2.42135 -2.03814 0)
(12.6795 14.0706 0)
(13.7929 14.4934 0)
(14.8295 14.7995 -2.15186e-19)
(15.8772 15.0601 -4.08636e-18)
(16.9538 15.2229 0)
(18.0459 15.2584 -3.34906e-18)
(19.1465 15.1493 -9.87199e-19)
(20.2367 14.8779 0)
(21.2787 14.4345 1.21353e-18)
(22.2355 13.8204 -1.05626e-18)
(23.0812 13.0387 -2.45944e-19)
(23.77 12.1078 -1.34751e-19)
(24.2434 11.0719 2.05175e-21)
(24.4723 9.98947 0)
(24.4668 8.91674 1.26224e-18)
(24.2554 7.90841 -1.02901e-18)
(23.8684 7.0005 0)
(23.3359 6.2204 0)
(22.6942 5.5889 -8.45856e-19)
(21.9862 5.11845 3.45928e-18)
(21.2625 4.81114 -1.84672e-18)
(20.6332 4.64548 0)
(20.1053 4.57304 2.61164e-18)
(19.5761 4.52975 9.79601e-20)
(18.9535 4.46164 -2.83256e-18)
(18.106 4.3118 1.50563e-18)
(16.9027 4.03333 0)
(15.273 3.6093 0)
(13.254 3.06588 -1.99081e-18)
(10.9962 2.4679 9.0308e-18)
(8.71939 1.89754 -5.24025e-18)
(6.63973 1.42637 6.13574e-18)
(4.90221 1.093 3.53481e-18)
(3.54914 0.894185 0)
(2.5332 0.788488 6.5274e-18)
(1.76342 0.70615 6.5617e-21)
(1.13449 0.561307 2.08471e-17)
(0.537753 0.272703 0)
(-0.088554 -0.198252 -1.76214e-17)
(-0.775674 -0.868937 1.43324e-17)
(-1.66427 -1.69072 0)
(13.4107 13.0735 0)
(14.3394 13.4022 -2.34407e-18)
(15.2003 13.6452 2.13549e-18)
(16.0594 13.857 0)
(16.9329 14.0009 3.37116e-18)
(17.8167 14.0575 -9.63357e-19)
(18.7114 14.014 -1.15017e-17)
(19.6094 13.8553 1.28546e-17)
(20.4878 13.57 -6.95179e-18)
(21.3218 13.152 -4.49163e-18)
(22.094 12.5979 3.01797e-18)
(22.7703 11.9113 7.29939e-19)
(23.2998 11.1127 -1.11041e-18)
(23.6474 10.2364 6.67834e-19)
(23.8043 9.3256 -1.72786e-18)
(23.7777 8.43091 1.2974e-18)
(23.5837 7.59186 9.22652e-19)
(23.2432 6.83991 5.41908e-19)
(22.7842 6.20018 2.34834e-18)
(22.2405 5.6887 -5.40979e-18)
(21.6523 5.31398 3.08152e-18)
(21.1216 5.07547 1.19453e-19)
(20.6771 4.9391 5.19228e-19)
(20.2717 4.8576 0)
(19.8852 4.80612 -3.47067e-18)
(19.4654 4.75388 1.15771e-18)
(18.9235 4.66081 3.74842e-18)
(18.1509 4.4828 -2.59904e-18)
(17.0532 4.18599 5.57265e-18)
(15.5896 3.76211 -2.99786e-18)
(13.7986 3.23587 0)
(11.7956 2.65949 -5.54429e-18)
(9.74439 2.09735 -2.09688e-18)
(7.81264 1.60731 2.37715e-18)
(6.12605 1.22386 -1.61254e-17)
(4.74746 0.944238 -3.00357e-18)
(3.65531 0.717383 -6.40336e-18)
(2.74369 0.45404 6.82916e-18)
(1.89105 0.0736861 7.261e-18)
(1.02246 -0.479445 -1.42372e-17)
(-0.0889007 -1.18853 -4.08293e-19)
(14.0302 12.1652 0)
(14.8065 12.4216 1.28236e-19)
(15.5232 12.6136 1.93959e-18)
(16.2299 12.7832 7.09803e-18)
(16.9406 12.9047 -4.16663e-18)
(17.6552 12.9655 2.38034e-18)
(18.3783 12.9576 2.09223e-18)
(19.1082 12.8699 -1.10689e-17)
(19.8324 12.6919 2.11449e-18)
(20.5365 12.4162 4.12225e-18)
(21.2101 12.037 -5.55173e-18)
(21.8306 11.5504 3.42806e-18)
(22.3591 10.9616 1.73093e-18)
(22.7633 10.2869 -5.73514e-19)
(23.0263 9.55383 0)
(23.1419 8.80153 0)
(23.1126 8.06537 -4.38602e-18)
(22.9489 7.37648 -8.62332e-19)
(22.6691 6.76181 4.15474e-18)
(22.298 6.24094 -3.05291e-19)
(21.8651 5.82717 3.21997e-18)
(21.4517 5.53596 -6.36554e-18)
(21.089 5.34258 3.27087e-18)
(20.7511 5.20307 0)
(20.4427 5.10386 -4.65049e-19)
(20.1594 5.03338 3.90476e-18)
(19.8793 4.97739 -4.95841e-18)
(19.556 4.91382 4.13975e-18)
(19.1198 4.81159 -3.16536e-18)
(18.4894 4.6364 0)
(17.5961 4.3618 2.32145e-18)
(16.4069 3.97945 4.92065e-18)
(14.9407 3.5036 -2.65239e-18)
(13.2665 2.96695 2.89053e-18)
(11.4844 2.41061 1.56501e-18)
(9.71551 1.87573 -3.58857e-18)
(8.06762 1.38856 5.90916e-18)
(6.58782 0.943265 -4.2678e-18)
(5.26001 0.506058 -3.5004e-18)
(4.05036 0.0137739 -6.4075e-19)
(2.68428 -0.556156 1.04334e-17)
(14.5527 11.3472 -2.03285e-18)
(15.2027 11.548 -7.57686e-18)
(15.8007 11.6992 7.44877e-18)
(16.3841 11.8334 0)
(16.9642 11.9326 -2.0891e-19)
(17.543 11.9891 0)
(18.1263 11.9982 -1.72347e-17)
(18.7155 11.9524 1.38996e-17)
(19.3044 11.8436 9.93423e-18)
(19.8853 11.6654 -1.1811e-17)
(20.4535 11.412 4.09145e-18)
(20.9951 11.0772 -2.08045e-18)
(21.4832 10.6585 -1.50662e-18)
(21.8925 10.1606 -3.33449e-18)
(22.2061 9.59847 2.9362e-20)
(22.4118 8.99786 3.34217e-18)
(22.5037 8.38531 -2.6372e-18)
(22.483 7.78698 3.62413e-18)
(22.3586 7.22776 0)
(22.1464 6.7282 4.53157e-18)
(21.8664 6.30468 3.1979e-20)
(21.5784 5.98539 -4.95553e-18)
(21.3112 5.75553 4.38371e-20)
(21.0512 5.5739 0)
(20.8051 5.42911 3.83158e-19)
(20.5778 5.31272 3.97841e-19)
(20.3712 5.2191 0)
(20.1808 5.14323 0)
(19.9904 5.07665 2.40502e-21)
(19.7673 5.00403 0)
(19.4629 4.90289 -2.68673e-18)
(19.0207 4.7476 0)
(18.3895 4.51621 3.81861e-18)
(17.5369 4.19655 -3.98177e-18)
(16.4547 3.78802 0)
(15.1696 3.30411 2.20394e-18)
(13.7366 2.76737 -2.36647e-18)
(12.2122 2.19743 1.33234e-18)
(10.6389 1.61513 4.302e-18)
(9.10136 1.0225 -3.94726e-19)
(7.36534 0.422542 -9.92937e-18)
(14.9918 10.618 5.39765e-18)
(15.5368 10.7757 2.09289e-19)
(16.0369 10.8943 -3.29728e-18)
(16.5199 10.9996 -6.30447e-18)
(16.9952 11.0787 -1.48223e-17)
(17.4654 11.1271 1.76193e-17)
(17.9364 11.1424 -4.25744e-19)
(18.4109 11.1199 -1.0268e-17)
(18.8862 11.0539 2.02905e-17)
(19.3587 10.9393 -5.52275e-19)
(19.8269 10.772 -1.1021e-17)
(20.2834 10.5456 3.98529e-18)
(20.7105 10.2549 -7.46105e-18)
(21.0908 9.89889 1.13465e-17)
(21.4107 9.48419 -1.89997e-18)
(21.6579 9.02559 0)
(21.8232 8.54017 -7.91291e-18)
(21.9024 8.04672 7.1617e-18)
(21.8969 7.56493 7.6917e-18)
(21.8147 7.11301 -1.48518e-17)
(21.6674 6.7072 8.14114e-18)
(21.4943 6.38313 -4.26432e-19)
(21.3206 6.13576 -3.6382e-20)
(21.1429 5.92986 -5.02005e-18)
(20.9672 5.75695 1.01979e-17)
(20.798 5.60925 -5.54227e-18)
(20.6387 5.48061 5.12483e-18)
(20.492 5.36712 -6.20797e-18)
(20.3598 5.26664 -6.39872e-18)
(20.2401 5.17708 5.73086e-18)
(20.1239 5.09383 1.46383e-18)
(19.9919 5.00764 2.22672e-18)
(19.8149 4.9041 -6.75704e-18)
(19.5567 4.76546 6.10195e-18)
(19.1783 4.57301 -3.12524e-18)
(18.6481 4.3126 -1.63232e-18)
(17.948 3.97793 0)
(17.0729 3.56736 -1.71899e-18)
(16.0125 3.08953 -1.81402e-18)
(14.847 2.56148 -2.01699e-18)
(13.3498 1.97511 2.0797e-18)
(15.359 9.97355 1.45432e-20)
(15.8165 10.0976 7.56413e-19)
(16.2354 10.1903 2.8844e-18)
(16.6366 10.2721 -5.48017e-18)
(17.0275 10.3339 2.18479e-17)
(17.4112 10.3732 -2.03444e-17)
(17.7927 10.3889 2.57016e-17)
(18.1752 10.3783 1.42891e-17)
(18.5578 10.3375 -5.7635e-18)
(18.9393 10.263 -7.90852e-19)
(19.3198 10.1521 -1.78415e-17)
(19.6957 9.99957 2.43793e-19)
(20.056 9.79998 0)
(20.3897 9.5502 -3.41033e-18)
(20.6873 9.25231 3.54871e-18)
(20.939 8.9138 -3.72192e-18)
(21.1361 8.54422 0)
(21.2723 8.15528 7.05893e-18)
(21.3452 7.76048 -1.52365e-17)
(21.3567 7.37364 5.42376e-18)
(21.312 7.00812 -7.63294e-18)
(21.2326 6.70077 8.57681e-18)
(21.1386 6.45367 2.60244e-19)
(21.0336 6.23879 -1.01492e-19)
(20.9233 6.05152 8.75114e-18)
(20.812 5.8867 -8.81813e-18)
(20.7025 5.73912 2.82626e-19)
(20.5968 5.60409 5.77753e-19)
(20.4966 5.47808 -4.77416e-18)
(20.404 5.35892 5.40819e-18)
(20.3204 5.24555 -6.06074e-19)
(20.2459 5.13713 6.131e-19)
(20.1767 5.03167 -2.49973e-18)
(20.1037 4.92473 1.23326e-18)
(20.011 4.80838 5.12189e-18)
(19.8775 4.67232 -1.30819e-18)
(19.678 4.50554 1.32712e-18)
(19.3895 4.29684 -2.7137e-18)
(18.9748 4.0366 1.41081e-18)
(18.4608 3.73094 1.40867e-18)
(17.6854 3.34611 0)
(15.6642 9.40721 -8.27098e-18)
(16.0485 9.50474 1.52187e-17)
(16.3997 9.57689 1.50722e-17)
(16.7337 9.6401 -3.99528e-17)
(17.0563 9.68776 1.49694e-17)
(17.3706 9.71841 -3.29349e-17)
(17.681 9.732 2.76335e-17)
(17.9904 9.72693 -4.11059e-17)
(18.2988 9.70062 3.97611e-17)
(18.6062 9.6507 -5.52659e-19)
(18.9134 9.57539 -1.70416e-17)
(19.219 9.47116 -1.87235e-18)
(19.5163 9.33331 -1.49011e-17)
(19.7985 9.15854 1.4747e-17)
(20.0597 8.9469 -1.37658e-17)
(20.2932 8.70173 1.53206e-17)
(20.4921 8.42773 0)
(20.6506 8.13132 -1.17151e-17)
(20.7649 7.82064 1.42992e-17)
(20.834 7.50482 -1.28986e-17)
(20.8585 7.19329 -1.99895e-19)
(20.8472 6.91937 2.08029e-17)
(20.8142 6.68889 -1.06761e-19)
(20.7663 6.48031 -7.41105e-18)
(20.7084 6.29193 -1.4036e-23)
(20.6445 6.12132 0)
(20.5774 5.96555 -7.84345e-18)
(20.5092 5.82139 7.75292e-18)
(20.4409 5.68563 0)
(20.3732 5.55536 -5.04564e-19)
(20.3068 5.42829 0)
(20.2425 5.30293 4.21474e-18)
(20.1812 5.1786 -4.74899e-18)
(20.1232 5.05502 -4.31035e-18)
(20.0671 4.93159 8.67156e-18)
(20.0095 4.80745 -4.9192e-18)
(19.9429 4.6807 -5.62653e-19)
(19.8583 4.54791 1.10239e-18)
(19.7363 4.40287 -1.11933e-18)
(19.5765 4.24789 0)
(19.3173 4.05819 -1.19912e-18)
(15.9057 8.93389 0)
(16.231 9.0113 -2.0685e-17)
(16.528 9.06821 5.44884e-19)
(16.8088 9.11757 2.8601e-17)
(17.0781 9.15439 1.83127e-17)
(17.3389 9.17804 -1.87112e-17)
(17.5949 9.18891 1.79267e-17)
(17.8486 9.18611 1.76661e-17)
(18.1005 9.16788 3.45727e-17)
(18.351 9.13264 -4.38273e-17)
(18.6011 9.0792 4.35579e-18)
(18.8504 9.005 4.15891e-18)
(19.0947 8.90644 -1.5383e-17)
(19.33 8.7807 1.13152e-17)
(19.5527 8.62719 1.64587e-17)
(19.7584 8.44731 -1.2646e-17)
(19.9423 8.24316 -1.5705e-17)
(20.0999 8.018 1.57861e-17)
(20.2275 7.77641 0)
(20.3231 7.52394 1.7682e-18)
(20.3856 7.26661 1.76048e-18)
(20.4156 7.03221 1.39913e-17)
(20.4224 6.82773 -2.79949e-17)
(20.4135 6.63671 1.43129e-17)
(20.3926 6.45896 7.21228e-18)
(20.3626 6.29369 -1.54769e-19)
(20.3261 6.13966 -7.32682e-18)
(20.2852 5.99525 1.14649e-19)
(20.2411 5.85862 7.48967e-21)
(20.1944 5.72784 7.61877e-18)
(20.1454 5.60101 -7.69407e-18)
(20.094 5.47644 -3.92625e-18)
(20.0401 5.35278 4.18287e-18)
(19.9836 5.22915 -4.01194e-18)
(19.9246 5.10498 3.50448e-18)
(19.8629 4.98078 3.06822e-18)
(19.7983 4.8576 -1.54459e-18)
(19.7297 4.7363 5.27929e-19)
(19.6541 4.61725 0)
(19.5693 4.50401 0)
(19.4676 4.39071 -2.55605e-20)
(16.0904 8.55518 -9.27653e-18)
(16.3699 8.61779 1.04142e-17)
(16.6249 8.66336 -4.51953e-18)
(16.8649 8.70226 -8.88659e-18)
(17.0939 8.73062 0)
(17.3144 8.74837 1.75862e-17)
(17.5297 8.75613 -4.32657e-17)
(17.742 8.75341 2.65453e-17)
(17.9519 8.73903 -8.74459e-18)
(18.1599 8.7119 8.40058e-18)
(18.3672 8.67134 -4.17221e-18)
(18.5736 8.61546 -3.68337e-17)
(18.7766 8.54151 6.36161e-17)
(18.9735 8.44719 -2.72987e-17)
(19.1623 8.33177 -3.61238e-18)
(19.34 8.19572 -1.44999e-17)
(19.5034 8.03988 4.46349e-17)
(19.649 7.86583 -1.9521e-17)
(19.7741 7.67603 -2.97895e-17)
(19.8765 7.47378 1.2255e-17)
(19.9544 7.26272 -3.43944e-18)
(20.0048 7.06533 0)
(20.0333 6.8884 0)
(20.0473 6.71917 -1.40298e-17)
(20.0489 6.55814 1.40405e-17)
(20.0404 6.40536 2.17461e-19)
(20.0238 6.26049 0)
(20.0008 6.12288 7.25491e-18)
(19.9724 5.99168 -7.26692e-18)
(19.9397 5.86591 5.65604e-20)
(19.9029 5.74459 -5.87677e-20)
(19.8623 5.6267 0)
(19.8176 5.51135 3.59006e-18)
(19.7685 5.39774 -3.79364e-18)
(19.7145 5.28506 4.73799e-19)
(19.6552 5.17328 -4.78425e-19)
(19.5905 5.0629 0)
(19.5202 4.95432 -4.8821e-19)
(19.4443 4.8486 -1.00548e-18)
(19.3628 4.74823 4.96832e-19)
(19.2781 4.65354 1.50079e-18)
(16.2346 8.24811 0)
(16.4777 8.29942 0)
(16.6995 8.33629 -1.68209e-17)
(16.9075 8.36714 -3.3357e-17)
(17.105 8.38893 5.09616e-17)
(17.2943 8.40192 -4.17824e-17)
(17.4784 8.40684 -1.64202e-17)
(17.659 8.40343 3.39467e-17)
(17.8369 8.39088 -3.35754e-17)
(18.0126 8.36843 3.38776e-17)
(18.1871 8.33565 0)
(18.3605 8.29118 0)
(18.5312 8.23294 3.17145e-17)
(18.6974 8.15914 -6.18769e-17)
(18.8578 8.0691 6.01847e-17)
(19.0105 7.9629 -2.95826e-17)
(19.1532 7.84078 -3.6778e-18)
(19.2835 7.70343 3.37046e-17)
(19.3992 7.55212 -2.29303e-17)
(19.4984 7.38874 0)
(19.5794 7.21543 1.68214e-18)
(19.6374 7.05013 0)
(19.6762 6.89891 -1.46715e-17)
(19.702 6.75173 2.84915e-17)
(19.7163 6.60935 -1.38224e-17)
(19.7205 6.47221 0)
(19.7161 6.34044 0)
(19.7044 6.21396 6.60864e-18)
(19.6865 6.09247 -7.051e-18)
(19.663 5.97558 -7.14382e-18)
(19.6346 5.86287 7.19383e-18)
(19.6015 5.75391 7.23883e-18)
(19.564 5.64832 -7.26017e-18)
(19.5219 5.54573 0)
(19.4751 5.44568 -5.81161e-20)
(19.4233 5.34816 0)
(19.3664 5.25342 -1.47312e-20)
(19.3041 5.16134 -5.93189e-20)
(19.2362 5.07231 2.02476e-18)
(19.163 4.98736 -2.86315e-18)
(19.0857 4.90659 9.44493e-19)
(16.3494 7.99427 0)
(16.5629 8.03674 -1.96736e-18)
(16.7576 8.06677 0)
(16.9398 8.09131 1.57708e-17)
(17.1121 8.10791 -1.58459e-17)
(17.2766 8.11704 0)
(17.436 8.11948 1.59837e-17)
(17.5917 8.1151 1.585e-17)
(17.7445 8.10333 -4.10562e-17)
(17.8948 8.08364 0)
(18.0436 8.05576 3.25043e-17)
(18.1911 8.0187 -6.54397e-17)
(18.3361 7.97087 3.18967e-17)
(18.4775 7.9109 0)
(18.6144 7.83823 -2.97519e-17)
(18.7455 7.75279 3.31103e-17)
(18.8692 7.65457 3.21314e-17)
(18.9839 7.54382 -3.54812e-17)
(19.0877 7.4212 -3.42401e-18)
(19.1794 7.28775 0)
(19.257 7.1447 0)
(19.3158 7.00636 -1.7398e-18)
(19.3581 6.87791 8.32736e-19)
(19.3891 6.75133 1.3631e-17)
(19.4097 6.62741 9.02096e-19)
(19.421 6.50672 -1.35982e-17)
(19.424 6.38964 1.36885e-17)
(19.4197 6.27636 -1.32478e-17)
(19.4088 6.1669 -7.76539e-18)
(19.392 6.06121 6.88441e-18)
(19.3699 5.95919 -6.95501e-18)
(19.3428 5.86071 6.94289e-18)
(19.3111 5.76568 0)
(19.2749 5.67399 -7.50088e-18)
(19.2344 5.58543 7.09499e-18)
(19.1897 5.50011 0)
(19.1408 5.41831 1.38021e-20)
(19.0876 5.33989 1.85662e-18)
(19.0302 5.26499 -1.90829e-18)
(18.9688 5.19412 8.53469e-19)
(18.9039 5.12709 -8.92227e-19)
(16.4424 7.78116 0)
(16.6313 7.81654 1.81251e-18)
(16.8036 7.8411 -1.4733e-17)
(16.9644 7.8606 2.94438e-17)
(17.1159 7.87306 -6.00019e-17)
(17.2603 7.87906 3.05319e-17)
(17.3996 7.8794 0)
(17.5352 7.87402 1.53515e-17)
(17.6678 7.86253 9.3161e-17)
(17.7979 7.84456 -6.31308e-17)
(17.9261 7.81991 0)
(18.0528 7.78787 -7.99861e-18)
(18.177 7.74723 2.31468e-17)
(18.2982 7.69693 -2.89217e-19)
(18.4155 7.63653 -2.95752e-17)
(18.5283 7.56592 3.24484e-17)
(18.6353 7.48501 -2.84235e-17)
(18.7352 7.39386 2.77333e-17)
(18.8269 7.29279 -2.76786e-17)
(18.9091 7.1824 -2.732e-17)
(18.9804 7.06338 2.36265e-17)
(19.0362 6.94725 -1.18071e-17)
(19.0781 6.83829 1.5034e-17)
(19.1103 6.73003 -1.41429e-17)
(19.1335 6.62318 -2.52775e-18)
(19.1483 6.51833 1.32869e-17)
(19.1554 6.41594 0)
(19.1557 6.31632 0)
(19.1497 6.21964 -1.25626e-17)
(19.138 6.12604 1.33559e-17)
(19.1209 6.03557 0)
(19.0991 5.94827 8.49526e-19)
(19.0727 5.8642 8.51648e-19)
(19.0421 5.78335 7.20791e-18)
(19.0076 5.70563 -7.19688e-18)
(18.9693 5.63119 -3.41675e-18)
(18.9274 5.5603 3.40669e-18)
(18.8823 5.49283 -1.28804e-18)
(18.8339 5.42889 3.43916e-18)
(18.7826 5.3688 -1.66574e-18)
(18.7288 5.31254 -2.13294e-19)
(16.5187 7.59992 1.31991e-17)
(16.6868 7.62954 1.64915e-17)
(16.8401 7.64965 -1.76402e-19)
(16.9829 7.66509 0)
(17.1173 7.6742 0)
(17.2448 7.67767 0)
(17.3675 7.67624 0)
(17.4866 7.66995 -5.85662e-17)
(17.6026 7.65851 1.04303e-16)
(17.716 7.64164 -6.04107e-17)
(17.8275 7.61924 6.04023e-17)
(17.9371 7.59075 -3.83861e-17)
(18.0445 7.55528 6.81232e-17)
(18.1489 7.512 -8.12187e-17)
(18.25 7.46057 2.88729e-17)
(18.3472 7.40089 2.1124e-17)
(18.4396 7.33286 -2.77833e-17)
(18.5263 7.25647 3.36694e-18)
(18.6064 7.17186 -3.41417e-18)
(18.6789 7.07941 3.35173e-17)
(18.7427 6.97949 2.96225e-17)
(18.7937 6.88148 -4.93322e-17)
(18.833 6.78889 -1.60536e-18)
(18.8641 6.69643 0)
(18.8874 6.60473 1.59786e-18)
(18.9034 6.51432 -1.6359e-18)
(18.9126 6.42565 -1.13223e-17)
(18.9155 6.33907 1.29217e-17)
(18.9128 6.25482 -1.29685e-17)
(18.9048 6.17311 1.29322e-17)
(18.8919 6.09406 1.29969e-17)
(18.8745 6.01781 -1.37605e-17)
(18.853 5.94443 -8.04327e-19)
(18.8276 5.87401 6.52883e-18)
(18.7987 5.80649 -5.28005e-18)
(18.7665 5.74201 0)
(18.7312 5.6808 0)
(18.6932 5.62274 -4.06397e-19)
(18.6527 5.56788 8.25353e-19)
(18.6099 5.51645 8.26137e-19)
(18.5651 5.46856 2.00094e-19)
(16.5819 7.44413 0)
(16.7322 7.469 -3.0895e-18)
(16.8693 7.48545 2.52113e-17)
(16.9969 7.49756 -2.59364e-17)
(17.1165 7.50396 -5.24796e-17)
(17.2299 7.50537 5.40953e-17)
(17.3387 7.5025 2.70878e-17)
(17.4439 7.49541 -5.60305e-17)
(17.5461 7.48392 -5.63752e-17)
(17.6456 7.46783 5.75615e-17)
(17.7431 7.44706 0)
(17.8387 7.42123 -2.92e-17)
(17.932 7.38962 5.85048e-17)
(18.0225 7.35162 -6.4582e-17)
(18.11 7.30698 0)
(18.194 7.25561 -6.8961e-18)
(18.2738 7.19743 6.78603e-18)
(18.3489 7.13241 0)
(18.4184 7.06063 3.24599e-18)
(18.4817 6.98234 -6.43606e-18)
(18.5379 6.89774 2.89711e-17)
(18.5833 6.81452 -2.87492e-17)
(18.619 6.73559 3.19631e-18)
(18.6477 6.65657 2.36454e-17)
(18.6698 6.57798 -2.3563e-17)
(18.6855 6.5003 1.5507e-18)
(18.6953 6.42394 -1.40962e-17)
(18.6996 6.34924 1.25079e-17)
(18.6989 6.27645 1.57789e-18)
(18.6935 6.20577 0)
(18.6838 6.13739 0)
(18.67 6.07142 0)
(18.6526 6.008 -6.26784e-18)
(18.6318 5.9472 6.24517e-18)
(18.608 5.88899 -7.75729e-19)
(18.5813 5.8335 -6.27445e-18)
(18.552 5.78091 7.03697e-18)
(18.5205 5.7311 0)
(18.4868 5.68409 9.33048e-21)
(18.4514 5.64003 -1.56299e-18)
(18.4142 5.59911 7.63066e-19)
(16.6347 7.30896 1.12048e-17)
(16.7696 7.32989 0)
(16.8927 7.3433 -5.83843e-17)
(17.0071 7.35269 4.82597e-17)
(17.1142 7.35687 0)
(17.2154 7.3566 5.03174e-17)
(17.3123 7.35255 -2.25319e-19)
(17.4057 7.34482 5.25121e-17)
(17.4962 7.33327 -8.07723e-17)
(17.5841 7.31776 -5.42703e-17)
(17.6698 7.29827 5.53907e-17)
(17.7536 7.2745 1.38433e-17)
(17.835 7.2459 0)
(17.9138 7.21203 0)
(17.9898 7.17268 -1.35758e-17)
(18.0626 7.12782 5.93127e-17)
(18.1317 7.07739 -1.17091e-16)
(18.1966 7.02135 5.14821e-17)
(18.2567 6.95976 6.40618e-18)
(18.3116 6.89282 6.35623e-18)
(18.3605 6.82064 -3.08407e-18)
(18.4004 6.74959 4.63455e-17)
(18.4321 6.68204 -7.96316e-17)
(18.458 6.61438 1.50575e-18)
(18.478 6.54702 2.2807e-17)
(18.4927 6.48037 0)
(18.5023 6.41481 1.21095e-17)
(18.5071 6.35062 -1.20675e-17)