/*--------------------------------*- C++ -*----------------------------------*\
| =========                 |                                                 |
| \\      /  F ield         | OpenFOAM: The Open Source CFD Toolbox           |
|  \\    /   O peration     | Version:  5.x                                   |
|   \\  /    A nd           | Web:      www.OpenFOAM.org                      |
|    \\/     M anipulation  |                                                 |
\*---------------------------------------------------------------------------*/
FoamFile
{
    version     2.0;
    format      ascii;
    class       volVectorField;
    location    "750";
    object      wallShearStress;
}
// * * * * * * * * * * * * * * * * * * * * * * * * * * * * * * * * * * * * * //

dimensions      [0 2 -2 0 0 0 0];

internalField   uniform (0 0 0);

boundaryField
{
    inlet
    {
        type            calculated;
        value           uniform (0 0 0);
    }
    outlet
    {
        type            calculated;
        value           uniform (0 0 0);
    }
    walls
    {
        type            calculated;
        value           nonuniform List<vector> 
82
(
(0.310756 -1.72085 0)
(0.010085 -2.40177 1.13826e-20)
(-0.341375 -2.93595 -1.43841e-18)
(-0.841797 -2.92569 -1.54654e-18)
(-1.21468 -2.61321 -3.34991e-18)
(-1.45387 -2.1816 1.603e-18)
(-1.57325 -1.7339 1.47291e-18)
(-1.59612 -1.32538 -1.31074e-18)
(-1.54546 -0.978826 -2.80932e-18)
(-1.43251 -0.693525 -8.79889e-20)
(-1.22671 -0.437782 -1.04737e-18)
(-0.991261 -0.243214 3.96222e-20)
(-0.811533 -0.136335 -5.31651e-19)
(-0.696741 -0.0882305 -3.30036e-19)
(-0.59143 -0.0574406 -1.27849e-19)
(-0.47149 -0.0299014 2.50443e-20)
(-0.344992 -0.0097795 -1.12204e-19)
(-0.225754 0.00122304 -2.50441e-20)
(-0.121954 0.0050763 2.28766e-20)
(-0.0427039 0.00413767 2.25379e-19)
(-0.00342636 0.000979639 1.59581e-19)
(0.0104741 -0.000573062 2.97894e-19)
(0.0252085 -0.00213484 7.60047e-19)
(0.0366423 -0.0035465 5.54235e-20)
(0.0437212 -0.00474795 2.494e-22)
(0.0472332 -0.00568962 -3.18922e-20)
(0.0487219 -0.00651188 2.0998e-18)
(0.0494952 -0.00738211 -3.31283e-20)
(0.0503532 -0.00831262 2.17163e-18)
(0.0517862 -0.00930768 -2.11421e-18)
(0.0541229 -0.0104658 -3.33145e-20)
(0.0576762 -0.0118686 -1.63416e-20)
(0.0626353 -0.0135237 1.59061e-20)
(0.0687084 -0.0152733 3.00927e-36)
(0.0745037 -0.0166655 -3.79554e-18)
(0.0769546 -0.0169475 6.01853e-36)
(0.0725607 -0.0154255 -2.82119e-37)
(0.0611423 -0.0119858 6.3572e-21)
(0.0404708 -0.00559106 -4.30034e-21)
(0.0178487 0.00357219 2.25912e-18)
(0.017225 0.0197065 2.2042e-18)
(0.380567 -1.19821 -4.56494e-19)
(0.269811 -0.601721 -6.71438e-20)
(0.141749 -0.258526 -3.44945e-18)
(0.0405793 -0.0782065 -1.69117e-18)
(-0.00177347 -0.0116725 -1.13617e-18)
(-0.0288773 0.00514681 -1.96067e-18)
(-0.0788622 0.0286671 -4.59243e-18)
(-0.136619 0.0505081 -2.19723e-18)
(-0.195065 0.0675882 1.97843e-18)
(-0.259547 0.0865276 1.37363e-19)
(-0.334508 0.103543 -4.2251e-18)
(-0.404806 0.106507 1.93902e-18)
(-0.463256 0.0995061 3.84692e-21)
(-0.514764 0.0901689 1.21148e-18)
(-0.561872 0.079569 1.8715e-18)
(-0.603527 0.0670595 -1.14416e-19)
(-0.639222 0.0529806 1.88079e-37)
(-0.669254 0.0379493 -7.36642e-19)
(-0.694016 0.0224897 -5.16485e-20)
(-0.714042 0.00702646 -3.8935e-19)
(-0.729289 -0.00797343 6.89127e-22)
(-0.740521 -0.0218308 -1.88079e-37)
(-0.747538 -0.0330728 -7.90547e-19)
(-0.752885 -0.043111 -6.81507e-19)
(-0.757064 -0.0521947 1.41795e-18)
(-0.760436 -0.0604723 1.38251e-18)
(-0.763332 -0.0680336 2.69637e-18)
(-0.765996 -0.0749697 1.31468e-18)
(-0.768618 -0.0813731 3.97415e-20)
(-0.771364 -0.0873409 -1.28751e-18)
(-0.774388 -0.0929751 -1.23534e-18)
(-0.777866 -0.0983817 2.38666e-18)
(-0.781966 -0.103675 2.3204e-18)
(-0.786871 -0.108967 -2.25274e-18)
(-0.792767 -0.114376 1.67876e-20)
(-0.799919 -0.120023 -1.65337e-20)
(-0.808555 -0.126051 1.17549e-38)
(-0.819943 -0.132734 0)
(-0.83205 -0.140185 3.59932e-21)
(-0.86094 -0.150082 -1.80208e-18)
(-0.857701 -0.159673 1.63185e-21)
)
;
    }
    frontAndBack
    {
        type            empty;
    }
}


// ************************************************************************* //
