/*--------------------------------*- C++ -*----------------------------------*\
| =========                 |                                                 |
| \\      /  F ield         | OpenFOAM: The Open Source CFD Toolbox           |
|  \\    /   O peration     | Version:  5.x                                   |
|   \\  /    A nd           | Web:      www.OpenFOAM.org                      |
|    \\/     M anipulation  |                                                 |
\*---------------------------------------------------------------------------*/
FoamFile
{
    version     2.0;
    format      ascii;
    class       volVectorField;
    location    "2500";
    object      wallShearStress;
}
// * * * * * * * * * * * * * * * * * * * * * * * * * * * * * * * * * * * * * //

dimensions      [0 2 -2 0 0 0 0];

internalField   uniform (0 0 0);

boundaryField
{
    inlet
    {
        type            calculated;
        value           uniform (0 0 0);
    }
    outlet
    {
        type            calculated;
        value           uniform (0 0 0);
    }
    walls
    {
        type            calculated;
        value           nonuniform List<vector> 
82
(
(0.310747 -1.72083 -7.52316e-37)
(0.0100806 -2.40174 1.13817e-20)
(-0.341378 -2.93594 -1.43839e-18)
(-0.84181 -2.92568 -1.54653e-18)
(-1.21468 -2.61321 -3.34988e-18)
(-1.45387 -2.1816 1.60298e-18)
(-1.57325 -1.7339 1.4729e-18)
(-1.59612 -1.32539 -1.31072e-18)
(-1.54546 -0.978826 -2.80928e-18)
(-1.43251 -0.693527 -8.79875e-20)
(-1.22671 -0.437783 -1.04735e-18)
(-0.991262 -0.243215 3.96213e-20)
(-0.811534 -0.136335 -5.31636e-19)
(-0.696742 -0.0882313 -3.30019e-19)
(-0.591431 -0.0574412 -1.27835e-19)
(-0.471495 -0.0299016 2.50536e-20)
(-0.344996 -0.00977966 -1.12212e-19)
(-0.225758 0.00122303 -2.5045e-20)
(-0.121957 0.00507638 2.28775e-20)
(-0.0427066 0.0041378 2.25388e-19)
(-0.00342714 0.00097974 1.59591e-19)
(0.0104732 -0.000572985 2.97896e-19)
(0.0252076 -0.00213476 7.60057e-19)
(0.0366416 -0.00354643 5.54245e-20)
(0.0437207 -0.00474789 2.49404e-22)
(0.0472327 -0.00568957 -3.1893e-20)
(0.0487217 -0.00651185 2.09984e-18)
(0.049495 -0.00738207 -3.31292e-20)
(0.0503529 -0.00831255 2.17168e-18)
(0.0517861 -0.00930765 -2.11428e-18)
(0.0541226 -0.0104657 -3.33154e-20)
(0.0576759 -0.0118686 -1.6342e-20)
(0.0626351 -0.0135237 1.59066e-20)
(0.0687078 -0.0152732 3.00927e-36)
(0.0745031 -0.0166654 -3.79564e-18)
(0.0769544 -0.0169475 0)
(0.0725607 -0.0154256 -3.64403e-37)
(0.0611426 -0.0119859 6.35737e-21)
(0.0404714 -0.00559114 -4.30043e-21)
(0.0178492 0.00357221 2.25918e-18)
(0.0172252 0.0197064 2.20426e-18)
(0.380567 -1.19821 -4.565e-19)
(0.269811 -0.601721 -6.71448e-20)
(0.141749 -0.258527 -3.44948e-18)
(0.040579 -0.078206 -1.69118e-18)
(-0.00177351 -0.0116725 -1.13618e-18)
(-0.0288773 0.00514684 -1.96068e-18)
(-0.0788627 0.0286672 -4.59248e-18)
(-0.136619 0.0505081 -2.19725e-18)
(-0.195065 0.0675886 1.97844e-18)
(-0.259547 0.0865276 1.37364e-19)
(-0.334509 0.103543 -4.22515e-18)
(-0.404806 0.106507 1.93904e-18)
(-0.46326 0.0995059 3.84692e-21)
(-0.514764 0.090169 1.2115e-18)
(-0.561872 0.079569 1.87152e-18)
(-0.603527 0.0670595 -1.14418e-19)
(-0.639222 0.0529806 -1.88079e-37)
(-0.669255 0.0379493 -7.36652e-19)
(-0.694017 0.0224897 -5.1649e-20)
(-0.714043 0.00702646 -3.89356e-19)
(-0.729289 -0.00797343 6.89128e-22)
(-0.740521 -0.0218308 -5.64237e-37)
(-0.747538 -0.0330728 -7.90557e-19)
(-0.752885 -0.0431111 -6.81516e-19)
(-0.757064 -0.0521947 1.41798e-18)
(-0.760436 -0.0604723 1.38253e-18)
(-0.763332 -0.0680336 2.69642e-18)
(-0.765997 -0.0749698 1.3147e-18)
(-0.768618 -0.0813731 3.97422e-20)
(-0.771364 -0.0873409 -1.28753e-18)
(-0.774388 -0.0929751 -1.23536e-18)
(-0.777866 -0.0983817 2.3867e-18)
(-0.781966 -0.103675 2.32044e-18)
(-0.786871 -0.108967 -2.25278e-18)
(-0.792767 -0.114376 1.67879e-20)
(-0.799919 -0.120023 -1.6534e-20)
(-0.808555 -0.126051 -2.35099e-38)
(-0.819943 -0.132734 -2.93874e-39)
(-0.83205 -0.140185 3.59939e-21)
(-0.860939 -0.150082 -1.80211e-18)
(-0.857701 -0.159673 1.63188e-21)
)
;
    }
    frontAndBack
    {
        type            empty;
    }
}


// ************************************************************************* //
