/*--------------------------------*- C++ -*----------------------------------*\
| =========                 |                                                 |
| \\      /  F ield         | OpenFOAM: The Open Source CFD Toolbox           |
|  \\    /   O peration     | Version:  5.x                                   |
|   \\  /    A nd           | Web:      www.OpenFOAM.org                      |
|    \\/     M anipulation  |                                                 |
\*---------------------------------------------------------------------------*/
FoamFile
{
    version     2.0;
    format      ascii;
    class       volScalarField;
    location    "200";
    object      nut;
}
// * * * * * * * * * * * * * * * * * * * * * * * * * * * * * * * * * * * * * //

dimensions      [0 2 -1 0 0 0 0];

internalField   nonuniform List<scalar> 
41860
(
4.29983e-06
7.4818e-06
1.79953e-05
2.14134e-05
1.62237e-05
1.23873e-05
8.18357e-06
5.45009e-06
3.73642e-06
2.64447e-06
1.89858e-06
1.53849e-06
1.20235e-06
1.13395e-06
9.19368e-07
8.72092e-07
7.63186e-07
6.95616e-07
6.55117e-07
1.07012e-06
1.19234e-06
6.9913e-07
1.52449e-06
7.04036e-07
1.58983e-06
7.06349e-07
6.98961e-07
1.28227e-06
6.86665e-07
6.82628e-07
6.35599e-07
2.29485e-06
2.34184e-06
6.18696e-07
2.2781e-06
6.11511e-07
2.20295e-06
2.18275e-06
1.10895e-06
6.63377e-07
1.56723e-06
1.35869e-06
6.09429e-07
6.10959e-07
1.10122e-06
5.83609e-07
6.10935e-07
6.10827e-07
6.11861e-07
5.81209e-07
5.79128e-07
5.79731e-07
5.79671e-07
6.21778e-07
6.25279e-07
9.89091e-07
9.45748e-07
5.88343e-07
9.40403e-07
5.91675e-07
6.50891e-07
5.96413e-07
2.37766e-06
5.99917e-07
2.34432e-06
6.70462e-07
9.894e-07
9.82073e-07
6.77193e-07
6.19011e-07
1.01858e-06
6.79015e-07
6.78275e-07
2.06524e-06
1.08713e-06
6.62089e-07
1.14921e-06
1.10624e-06
1.10023e-06
5.65455e-07
1.13837e-06
2.07144e-07
0.000171915
0.000210281
0.000285357
0.000304581
0.000276331
0.000252233
0.00022004
0.000192829
0.000170442
0.000151841
0.000135387
0.000125513
0.000114434
0.000111835
0.000102913
0.000100687
9.4887e-05
9.04367e-05
8.73863e-05
8.10466e-05
7.95432e-05
7.57245e-05
7.33164e-05
7.2093e-05
6.92939e-05
6.99172e-05
6.81432e-05
6.66109e-05
6.67864e-05
6.6571e-05
6.32762e-05
6.38233e-05
6.37946e-05
6.2598e-05
6.40949e-05
6.3159e-05
6.5132e-05
6.56921e-05
6.73656e-05
6.97597e-05
7.01645e-05
7.2037e-05
6.09021e-05
6.10063e-05
5.94589e-05
5.77724e-05
6.10538e-05
6.12114e-05
6.13811e-05
5.80712e-05
5.81615e-05
5.83974e-05
5.8626e-05
6.26308e-05
6.31111e-05
6.14189e-05
6.18698e-05
6.04292e-05
6.27172e-05
6.12561e-05
6.57176e-05
6.2214e-05
6.43309e-05
6.31489e-05
6.51601e-05
6.77747e-05
6.61791e-05
6.66878e-05
6.87156e-05
6.63096e-05
6.75157e-05
6.95121e-05
6.99268e-05
6.78181e-05
6.79518e-05
6.94794e-05
6.79547e-05
6.7402e-05
6.67625e-05
6.51194e-05
6.71399e-05
4.37125e-07
0.000223546
0.000265822
0.0003641
0.000390826
0.000355499
0.000324756
0.000283795
0.000249372
0.000221346
0.000198493
0.000179101
0.00016783
0.000157881
0.000155998
0.000153038
0.0001526
0.000152477
0.000152558
0.000152433
0.000152472
0.000151766
0.000153944
0.000151317
0.000153015
0.000150477
0.000151537
0.000151188
0.000148082
0.000149175
0.000147989
0.000147162
0.000143639
0.000142525
0.000143955
0.000140647
0.000142083
0.000139158
0.000138593
0.000138934
0.000140043
0.000138424
0.000138817
0.000138159
0.000137887
0.00013628
0.000137315
0.000137163
0.000136981
0.000136828
0.00013659
0.000136497
0.000136464
0.000136456
0.000136689
0.000136781
0.000135657
0.000135874
0.000137001
0.000136296
0.000137439
0.000138011
0.000137996
0.000136388
0.000138533
0.000136934
0.000139329
0.000138365
0.000138651
0.000139908
0.000140059
0.000139056
0.000140308
0.00014048
0.000138303
0.000138772
0.000139756
0.000138115
0.000137324
0.00013648
0.000135485
0.000136582
9.13166e-07
0.000312434
0.000358411
0.000441757
0.000484805
0.000469271
0.000430382
0.000394269
0.000364572
0.000339192
0.000317073
0.000298646
0.000280216
0.000276149
0.000270905
0.000275246
0.000272527
0.000273234
0.000272213
0.000270216
0.000269393
0.000266352
0.000266402
0.000262455
0.000261609
0.000258124
0.00025666
0.000254858
0.000250654
0.00024989
0.0002473
0.000245438
0.000241731
0.000239451
0.000238856
0.000235381
0.000234976
0.000231902
0.000230464
0.000229139
0.000228996
0.000227306
0.000226811
0.000226104
0.000225133
0.000223542
0.000224223
0.000223167
0.000222619
0.000222122
0.000222168
0.00022182
0.000221544
0.000221312
0.000220715
0.000220587
0.000219795
0.000219823
0.000221008
0.000219999
0.00022123
0.000221053
0.000221622
0.000220683
0.00022202
0.00022108
0.000222041
0.000221518
0.000221727
0.000222399
0.000222984
0.000221915
0.000222514
0.00022257
0.000221425
0.000221107
0.000221294
0.000219995
0.000218794
0.000217619
0.000215534
0.000217378
1.88061e-06
0.000438358
0.000533213
0.00065441
0.000717884
0.000731547
0.000677465
0.000637677
0.000599512
0.000562123
0.000526611
0.000495214
0.000461369
0.000447063
0.000432653
0.000433696
0.000425759
0.000423084
0.000418365
0.000412918
0.000409334
0.000403138
0.000399898
0.000393971
0.000389873
0.000384917
0.000380422
0.000376667
0.00037118
0.000367931
0.000363586
0.000359895
0.000355565
0.000351794
0.000349002
0.000345056
0.00034266
0.000339239
0.000336792
0.00033435
0.00033283
0.000330806
0.000329592
0.000327838
0.000325887
0.000324168
0.00032366
0.000322267
0.000321278
0.000320346
0.00031984
0.000319129
0.000318544
0.000318013
0.000317339
0.000316973
0.000316391
0.000316212
0.000316675
0.000316069
0.000316627
0.000316492
0.00031683
0.000316545
0.000317076
0.000316776
0.000317069
0.000316851
0.00031697
0.000317149
0.000317523
0.000316838
0.000316881
0.000316785
0.000315991
0.000315299
0.000314758
0.000313582
0.000311882
0.00031028
0.000306787
0.000309482
3.78795e-06
0.00060661
0.000770549
0.00101083
0.00111173
0.00113344
0.00104807
0.000981041
0.000916508
0.000854285
0.000795951
0.000743993
0.000690797
0.000661096
0.000634581
0.000628584
0.000613617
0.000605606
0.000595597
0.000585478
0.000577602
0.000567301
0.000560076
0.000550942
0.000543275
0.000535695
0.000528002
0.000521666
0.000514087
0.000508174
0.000501662
0.000495845
0.000490013
0.000484413
0.000479632
0.000474447
0.000470296
0.000465848
0.000462204
0.000458667
0.000455882
0.000453123
0.000451204
0.000447772
0.000444472
0.000442199
0.000440617
0.000438703
0.00043715
0.000435669
0.00043455
0.00043338
0.000432403
0.000431492
0.000430642
0.000429973
0.000429358
0.000428931
0.000428827
0.000428383
0.000428427
0.000428284
0.000428376
0.000428297
0.000428421
0.00042832
0.000428327
0.000428199
0.000428209
0.00042804
0.000428197
0.000427655
0.000427289
0.000427018
0.000426148
0.000425186
0.000424059
0.000422732
0.000420445
0.000418327
0.000413588
0.000416689
7.37787e-06
0.000846544
0.00106463
0.00146486
0.00161514
0.00162763
0.00150257
0.00139747
0.0012992
0.0012068
0.00112136
0.00104504
0.000969763
0.000921475
0.000880107
0.00086414
0.000840271
0.000825187
0.000808401
0.000792386
0.000778903
0.000763484
0.000751499
0.000738083
0.000726315
0.000715128
0.000703863
0.000694314
0.00068385
0.000675003
0.000665846
0.000657519
0.000649549
0.000641739
0.00063486
0.000627882
0.00062191
0.000615946
0.000610874
0.000606023
0.000601966
0.000598163
0.000595475
0.000589907
0.00058482
0.000581565
0.000578964
0.000576301
0.000574041
0.000571875
0.000570094
0.000568352
0.000566881
0.000565495
0.000564317
0.000563264
0.000562401
0.00056166
0.000561133
0.000560594
0.000560271
0.000560011
0.000559874
0.000559769
0.000559646
0.000559516
0.000559341
0.000559135
0.000559004
0.000558571
0.000558521
0.00055791
0.000557211
0.000556725
0.000555584
0.000554301
0.000552644
0.000550982
0.000548023
0.000545292
0.000539492
0.000542449
1.36942e-05
0.00118899
0.00142248
0.00200269
0.00221027
0.00220563
0.00203548
0.00188655
0.00175035
0.00162442
0.00150885
0.00140526
0.00130534
0.00123553
0.00117625
0.00114735
0.00111239
0.00108834
0.00106314
0.00103983
0.00101938
0.000997674
0.000979933
0.000961166
0.00094451
0.000928797
0.000913316
0.000899854
0.000885757
0.000873481
0.000861129
0.000849798
0.000839136
0.000828666
0.000819361
0.000810116
0.000802051
0.00079416
0.000787371
0.00078091
0.000775426
0.000770307
0.000766733
0.000758634
0.000751265
0.000746615
0.000742882
0.000739241
0.000736101
0.000733087
0.000730538
0.000728088
0.000726003
0.000724023
0.000722376
0.000720837
0.000719575
0.000718435
0.000717507
0.000716702
0.000716044
0.000715568
0.000715181
0.00071493
0.000714587
0.000714313
0.000713949
0.000713561
0.000713244
0.000712553
0.000712273
0.000711467
0.000710427
0.000709673
0.00070816
0.000706478
0.000704264
0.000702149
0.00069844
0.000694984
0.000688333
0.000690453
2.38521e-05
0.00164158
0.00186044
0.00262953
0.00290138
0.00287461
0.00265436
0.00245699
0.00227935
0.00211692
0.00196844
0.00183485
0.00170761
0.00161328
0.00153267
0.00148754
0.00143882
0.00140357
0.00136802
0.00133571
0.00130674
0.00127733
0.00125259
0.00122728
0.0012047
0.00118345
0.00116289
0.00114468
0.00112614
0.00110976
0.00109354
0.00107859
0.00106464
0.00105097
0.00103876
0.00102675
0.00101618
0.00100593
0.000997058
0.000988632
0.00098145
0.000974718
0.000970084
0.000959122
0.000948906
0.000942408
0.000937299
0.000932421
0.000928185
0.000924127
0.00092065
0.000917329
0.000914478
0.000911761
0.000909495
0.000907347
0.000905553
0.000903907
0.000902522
0.000901319
0.000900281
0.000899489
0.000898799
0.000898314
0.000897719
0.00089722
0.000896619
0.000895972
0.000895414
0.000894424
0.000893863
0.00089278
0.000891347
0.00089026
0.000888301
0.000886141
0.000883301
0.000880642
0.000876116
0.000871797
0.000864607
0.000864953
3.85463e-05
0.00222746
0.00240543
0.00335825
0.003701
0.00364775
0.00337204
0.00312166
0.00289911
0.00269722
0.00251302
0.00234662
0.00218925
0.00206732
0.00196169
0.00189652
0.00183082
0.00178161
0.00173334
0.00168994
0.00165058
0.00161172
0.00157845
0.00154514
0.00151535
0.00148736
0.00146061
0.00143665
0.0014127
0.00139133
0.00137043
0.00135111
0.00133317
0.00131562
0.0012999
0.00128452
0.00127092
0.00125779
0.00124638
0.00123555
0.0012263
0.0012176
0.00121166
0.00119756
0.00118387
0.00117498
0.00116813
0.00116171
0.00115611
0.00115076
0.00114614
0.00114175
0.00113794
0.00113431
0.00113125
0.00112834
0.00112587
0.00112359
0.00112164
0.00111991
0.0011184
0.00111717
0.0011161
0.00111529
0.00111438
0.00111358
0.00111267
0.00111169
0.00111082
0.00110947
0.00110856
0.00110712
0.00110523
0.00110373
0.00110125
0.00109853
0.00109499
0.0010917
0.0010863
0.00108095
0.0010737
0.00107103
5.7669e-05
0.00297901
0.00309266
0.00420653
0.00462627
0.00454194
0.00420479
0.00389657
0.00362547
0.00338108
0.00315827
0.00295619
0.00276567
0.00261297
0.00247846
0.00238901
0.00230248
0.00223593
0.00217203
0.0021149
0.00206286
0.00201235
0.00196863
0.00192555
0.0018869
0.0018507
0.00181636
0.0017854
0.00175485
0.00172741
0.00170081
0.00167616
0.00165335
0.00163109
0.00161109
0.00159162
0.00157432
0.00155767
0.00154315
0.00152938
0.00151758
0.00150644
0.00149887
0.0014814
0.00146356
0.0014516
0.00144254
0.00143417
0.00142687
0.00141993
0.0014139
0.00140817
0.00140317
0.00139841
0.00139435
0.00139049
0.00138717
0.00138408
0.00138142
0.00137901
0.0013769
0.00137511
0.00137354
0.00137229
0.00137098
0.00136978
0.00136849
0.0013671
0.00136583
0.00136404
0.00136268
0.00136083
0.00135838
0.00135638
0.00135331
0.00134996
0.00134561
0.0013416
0.0013353
0.00132871
0.00132211
0.00131484
8.05093e-05
0.00393697
0.00395607
0.00519628
0.00569825
0.00557731
0.005172
0.00480074
0.0044773
0.00418728
0.00392293
0.0036822
0.00345543
0.00326872
0.00310145
0.00298317
0.00287135
0.0027833
0.00270019
0.00262602
0.00255845
0.00249357
0.00243697
0.00238189
0.00233232
0.00228603
0.00224236
0.00220281
0.00216419
0.00212929
0.00209572
0.00206455
0.00203576
0.00200777
0.00198252
0.00195804
0.0019362
0.00191523
0.00189686
0.00187948
0.00186451
0.00185036
0.0018407
0.00181967
0.00179697
0.00178111
0.0017692
0.00175841
0.00174898
0.00174007
0.00173227
0.00172489
0.0017184
0.00171224
0.00170691
0.00170186
0.00169747
0.00169337
0.0016898
0.00168653
0.00168365
0.00168113
0.00167891
0.00167709
0.00167527
0.00167356
0.00167178
0.00166988
0.00166811
0.0016658
0.00166389
0.00166152
0.00165844
0.00165583
0.0016521
0.00164802
0.0016428
0.00163796
0.00163077
0.00162267
0.0016177
0.00160397
0.000106374
0.00515144
0.00503185
0.00635335
0.00694211
0.00677747
0.00629639
0.00585651
0.0054768
0.00513805
0.00482922
0.00454689
0.00428067
0.0040567
0.00385284
0.00370106
0.00355899
0.00344455
0.0033379
0.0032426
0.00315592
0.00307326
0.00300073
0.00293081
0.00286772
0.00280898
0.00275376
0.00270362
0.00265502
0.00261094
0.00256877
0.00252957
0.0024934
0.00245839
0.00242666
0.00239603
0.00236857
0.00234229
0.00231913
0.00229728
0.00227834
0.00226044
0.00224807
0.00222331
0.00219502
0.00217428
0.00215872
0.00214488
0.00213277
0.0021214
0.00211138
0.00210196
0.00209359
0.00208568
0.00207876
0.00207223
0.00206649
0.00206112
0.00205639
0.00205204
0.00204817
0.00204472
0.00204165
0.00203908
0.00203661
0.00203426
0.00203187
0.00202934
0.00202696
0.00202401
0.00202142
0.00201845
0.00201465
0.0020113
0.00200683
0.00200195
0.00199578
0.00199001
0.00198195
0.00197204
0.00196998
0.00194778
0.000135017
0.00668328
0.00636697
0.00770655
0.00838728
0.00816987
0.00760437
0.00708993
0.00664998
0.00625948
0.0059034
0.00557662
0.00526777
0.00500328
0.00475911
0.00456927
0.00439171
0.00424535
0.00411
0.00398859
0.0038784
0.00377373
0.0036814
0.00359311
0.00351316
0.00343897
0.00336937
0.00330608
0.00324512
0.00318962
0.00313679
0.00308763
0.00304231
0.00299862
0.00295886
0.00292063
0.00288618
0.00285332
0.00282419
0.00279677
0.00277284
0.00275025
0.00273433
0.0027056
0.00267102
0.00264428
0.00262404
0.00260633
0.00259084
0.0025764
0.00256359
0.00255161
0.0025409
0.00253081
0.00252188
0.0025135
0.00250605
0.00249908
0.0024929
0.00248716
0.00248204
0.0024774
0.00247325
0.00246971
0.0024664
0.00246324
0.00246008
0.00245677
0.00245363
0.00244994
0.00244653
0.00244283
0.00243821
0.00243401
0.00242871
0.00242295
0.00241576
0.00240896
0.00240011
0.00238802
0.00239045
0.00235787
0.000166647
0.00860581
0.00802157
0.00928774
0.010063
0.00978534
0.00912625
0.00853113
0.00802707
0.00758212
0.00717629
0.00680243
0.0064479
0.00613975
0.00585161
0.00561939
0.0054011
0.00521688
0.00504702
0.00489362
0.00475458
0.00462275
0.0045058
0.00439468
0.00429369
0.00420022
0.00411264
0.00403293
0.00395654
0.00388678
0.00382067
0.00375908
0.00370231
0.00364783
0.00359805
0.00355038
0.00350719
0.00346613
0.00342949
0.00339509
0.00336487
0.00333636
0.00331577
0.00328274
0.00324121
0.00320719
0.00318102
0.0031584
0.00313863
0.00312034
0.00310402
0.00308883
0.00307516
0.00306234
0.00305089
0.00304017
0.00303056
0.00302159
0.00301355
0.00300608
0.00299937
0.00299321
0.00298768
0.00298288
0.00297848
0.00297429
0.00297018
0.00296593
0.00296186
0.00295727
0.00295289
0.00294833
0.00294279
0.0029376
0.00293137
0.00292465
0.00291642
0.00290846
0.00289895
0.00288423
0.00289297
0.00284872
0.00020171
0.0110066
0.0100704
0.0111349
0.0119771
0.0116463
0.0108927
0.0102132
0.00964234
0.00914103
0.0086836
0.00826052
0.00785758
0.00750283
0.0071672
0.00688855
0.00662451
0.00639645
0.0061858
0.00599383
0.00581973
0.00565459
0.00550716
0.0053677
0.00524043
0.00512286
0.00501275
0.00491243
0.00481673
0.00472907
0.0046463
0.00456913
0.00449797
0.00443
0.00436764
0.00430816
0.004254
0.00420266
0.00415655
0.00411337
0.00407514
0.00403915
0.00401237
0.00397449
0.00392538
0.00388273
0.00384909
0.00382026
0.00379505
0.00377191
0.00375115
0.00373193
0.00371453
0.00369827
0.00368363
0.00366997
0.00365765
0.00364614
0.00363576
0.00362609
0.00361736
0.00360929
0.00360198
0.00359555
0.00358976
0.00358427
0.00357896
0.00357355
0.00356834
0.00356269
0.00355716
0.00355157
0.003545
0.00353867
0.00353142
0.00352366
0.00351436
0.00350515
0.00349513
0.00347729
0.00349422
0.00343842
0.000240668
0.0139895
0.0126047
0.0132969
0.0141111
0.0137256
0.0129055
0.0121589
0.0115285
0.0109734
0.0104648
0.00999172
0.00953852
0.00913476
0.00874841
0.00841965
0.00810527
0.00782769
0.00756997
0.00733246
0.00711638
0.00691096
0.00672614
0.00655177
0.00639183
0.00624419
0.00610585
0.00597966
0.00585973
0.00574954
0.00564581
0.00554903
0.00545969
0.00537476
0.00529655
0.00522222
0.00515423
0.00508994
0.00503184
0.00497753
0.0049291
0.00488362
0.00484865
0.00480501
0.00474769
0.00469499
0.0046521
0.0046154
0.00458331
0.00455404
0.00452766
0.00450334
0.00448124
0.00446065
0.00444198
0.0044246
0.00440883
0.00439412
0.00438078
0.00436833
0.00435704
0.00434655
0.00433697
0.00432846
0.00432085
0.0043137
0.00430689
0.00430004
0.00429345
0.00428653
0.00427962
0.00427281
0.00426507
0.00425746
0.00424908
0.0042402
0.00422982
0.00421925
0.0042089
0.0041874
0.00421415
0.00414963
0.000283814
0.0176767
0.0157345
0.0158371
0.0164514
0.0159685
0.0151073
0.0143383
0.0136881
0.0131033
0.012555
0.0120369
0.0115348
0.0110815
0.0106424
0.0102606
0.0098921
0.00956008
0.00924949
0.00895966
0.00869453
0.00844139
0.00821151
0.00799468
0.00779459
0.00760972
0.00743625
0.00727768
0.0071274
0.00698889
0.00685878
0.00673729
0.006625
0.00651866
0.00642043
0.00632738
0.00624188
0.00616125
0.00608791
0.00601948
0.00595801
0.00590041
0.00585466
0.00580378
0.00573753
0.00567336
0.00561921
0.00557264
0.00553183
0.0054948
0.00546132
0.00543054
0.00540247
0.00537641
0.00535264
0.00533056
0.00531042
0.00529166
0.00527456
0.0052586
0.00524406
0.00523051
0.00521805
0.00520686
0.00519689
0.00518763
0.00517889
0.00517027
0.00516196
0.0051535
0.00514498
0.0051367
0.00512763
0.00511857
0.00510891
0.0050988
0.00508732
0.00507527
0.00506477
0.00503907
0.00507657
0.00501074
0.000331129
0.0222119
0.0195905
0.0188333
0.0190022
0.01834
0.0174391
0.0166831
0.0160647
0.0155033
0.0149562
0.0144181
0.013881
0.0133849
0.0128953
0.0124605
0.0120362
0.0116466
0.0112788
0.010931
0.0106104
0.0103024
0.0100197
0.00975239
0.00950393
0.0092737
0.00905708
0.00885843
0.00867044
0.00849657
0.00833342
0.00818091
0.00803966
0.00790635
0.00778284
0.00766617
0.00755852
0.00745721
0.00736453
0.00727814
0.00720001
0.00712694
0.00706706
0.0070067
0.00693053
0.00685346
0.00678586
0.00672706
0.00667528
0.00662845
0.00658599
0.00654704
0.00651142
0.00647841
0.00644819
0.00642015
0.00639448
0.00637057
0.00634871
0.00632831
0.00630964
0.00629223
0.00627612
0.00626148
0.00624848
0.00623647
0.00622528
0.00621441
0.00620397
0.00619362
0.00618317
0.00617312
0.00616249
0.00615175
0.00614065
0.00612916
0.00611653
0.00610285
0.00609228
0.00606189
0.00610979
0.00605669
0.00038212
0.0277639
0.0243246
0.0223722
0.0217816
0.0208233
0.0198638
0.0191385
0.0185884
0.0181012
0.0176114
0.0171046
0.0165721
0.0160599
0.0155361
0.0150571
0.0145821
0.0141366
0.0137111
0.0133026
0.0129225
0.0125543
0.0122122
0.011887
0.0115821
0.0112981
0.0110297
0.0107825
0.0105484
0.010331
0.010127
0.00993596
0.00975854
0.00959143
0.0094362
0.00928984
0.00915431
0.00902692
0.00890976
0.00880059
0.00870122
0.00860844
0.00853019
0.00845716
0.00836956
0.00827807
0.00819476
0.00812104
0.0080556
0.00799646
0.00794269
0.00789341
0.00784825
0.00780646
0.00776807
0.00773247
0.00769979
0.00766937
0.00764148
0.00761543
0.00759155
0.00756925
0.00754852
0.0075295
0.00751255
0.00749699
0.00748262
0.00746888
0.00745577
0.00744305
0.00743024
0.00741802
0.0074055
0.00739281
0.00737999
0.00736691
0.00735298
0.00733742
0.00732673
0.00729124
0.00734747
0.00732688
0.000435668
0.0345305
0.030108
0.0265334
0.0248127
0.0234092
0.0223556
0.0216671
0.0212072
0.020828
0.0204405
0.0200176
0.0195443
0.019065
0.0185463
0.0180516
0.0175462
0.0170585
0.0165841
0.0161197
0.015682
0.015253
0.0148484
0.0144608
0.0140934
0.0137486
0.0134205
0.0131164
0.0128278
0.0125583
0.0123048
0.0120668
0.0118451
0.0116363
0.0114418
0.0112585
0.0110882
0.0109283
0.0107804
0.0106426
0.0105163
0.0103986
0.0102968
0.0102067
0.0101054
0.00999779
0.00989645
0.0098049
0.00972274
0.00964829
0.00958041
0.00951816
0.009461
0.00940814
0.00935946
0.00931431
0.00927278
0.00923412
0.00919859
0.00916542
0.00913493
0.00910647
0.00907991
0.00905531
0.00903328
0.00901312
0.00899463
0.00897718
0.00896064
0.0089449
0.00892915
0.00891422
0.00889935
0.00888428
0.00886935
0.00885428
0.00883876
0.00882093
0.00880975
0.00876879
0.00882963
0.008851
0.00135716
0.0426583
0.0371132
0.0313561
0.0281082
0.0260865
0.0248887
0.0242366
0.0238813
0.023632
0.0233764
0.0230753
0.0227079
0.0223133
0.0218509
0.0213872
0.0208911
0.0203938
0.0198961
0.019395
0.0189137
0.0184332
0.0179717
0.0175238
0.0170933
0.016685
0.0162927
0.0159258
0.0155758
0.0152467
0.0149359
0.0146427
0.0143683
0.0141095
0.0138676
0.0136395
0.0134268
0.0132269
0.0130412
0.0128679
0.0127082
0.0125593
0.0124278
0.0123152
0.0121968
0.0120709
0.0119492
0.0118369
0.0117347
0.0116415
0.0115563
0.0114779
0.0114059
0.0113392
0.0112776
0.0112205
0.0111679
0.0111188
0.0110737
0.0110316
0.0109928
0.0109566
0.0109227
0.0108911
0.0108626
0.0108364
0.0108126
0.0107903
0.0107693
0.0107497
0.0107302
0.0107118
0.0106939
0.0106758
0.0106581
0.0106405
0.0106228
0.010602
0.0105895
0.0105427
0.0106035
0.0106476
0.00389907
0.0518085
0.0453424
0.0367843
0.031642
0.0288292
0.0274282
0.026809
0.0265702
0.0264682
0.0263648
0.0262108
0.0259825
0.0257124
0.0253518
0.024967
0.0245281
0.0240674
0.0235875
0.0230859
0.0225918
0.022085
0.0215861
0.0210927
0.0206095
0.0201441
0.0196905
0.0192613
0.0188483
0.018456
0.018083
0.0177289
0.0173952
0.0170794
0.0167826
0.0165023
0.0162396
0.0159922
0.0157613
0.0155452
0.015345
0.0151581
0.0149902
0.0148486
0.0147087
0.0145618
0.0144174
0.0142815
0.014156
0.0140406
0.0139344
0.0138365
0.0137462
0.0136625
0.0135851
0.0135132
0.0134468
0.0133849
0.0133279
0.0132746
0.0132254
0.0131796
0.0131366
0.0130962
0.0130595
0.0130257
0.012995
0.0129664
0.0129397
0.0129149
0.0128905
0.0128676
0.0128456
0.0128236
0.0128023
0.0127811
0.0127602
0.0127354
0.0127202
0.0126666
0.0127231
0.0127461
0.00790608
0.0614014
0.054304
0.0425796
0.0352944
0.031573
0.0299202
0.0293341
0.0292236
0.0292846
0.0293501
0.0293622
0.0292983
0.0291819
0.0289571
0.0286899
0.0283506
0.0279721
0.0275553
0.0270983
0.026634
0.0261397
0.025638
0.0251292
0.0246186
0.0241163
0.0236172
0.0231375
0.0226694
0.022219
0.0217861
0.0213713
0.0209768
0.0206008
0.0202452
0.0199076
0.0195894
0.0192886
0.0190063
0.0187411
0.0184938
0.0182623
0.0180516
0.0178744
0.017708
0.0175368
0.0173674
0.0172055
0.0170538
0.0169129
0.0167824
0.0166615
0.0165495
0.0164455
0.0163491
0.0162593
0.0161762
0.0160987
0.0160271
0.0159601
0.0158983
0.0158407
0.0157866
0.0157354
0.0156885
0.0156452
0.0156056
0.0155689
0.0155347
0.0155032
0.0154725
0.0154437
0.0154163
0.0153889
0.0153626
0.0153365
0.0153109
0.0152804
0.0152603
0.0151983
0.0152461
0.0152189
0.0118045
0.0710175
0.0633676
0.0481958
0.0387403
0.0341698
0.0322776
0.0317477
0.0317787
0.0320169
0.0322642
0.0324579
0.0325813
0.0326426
0.0325804
0.0324611
0.0322556
0.0319982
0.0316841
0.0313146
0.0309237
0.0304852
0.0300227
0.0295388
0.0290384
0.0285327
0.0280179
0.0275132
0.0270113
0.02652
0.0260409
0.0255757
0.0251279
0.0246967
0.0242849
0.023891
0.0235169
0.0231611
0.0228248
0.022507
0.0222087
0.0219282
0.0216698
0.0214519
0.0212542
0.0210554
0.020859
0.0206696
0.0204899
0.0203213
0.0201639
0.020017
0.0198805
0.0197531
0.0196347
0.0195241
0.0194215
0.0193256
0.0192368
0.0191538
0.0190769
0.0190052
0.0189379
0.0188738
0.0188146
0.0187596
0.0187091
0.0186623
0.0186186
0.0185784
0.0185395
0.0185029
0.0184683
0.0184339
0.0184007
0.0183677
0.0183352
0.0182967
0.0182687
0.0181956
0.0182309
0.0181271
0.0160136
0.080316
0.0717567
0.0537046
0.041865
0.0366007
0.0345398
0.0340681
0.0342134
0.0345947
0.035026
0.0354105
0.0357426
0.0360017
0.0361245
0.0361796
0.0361379
0.0360361
0.0358577
0.0356139
0.035336
0.0349927
0.0346101
0.0341931
0.0337446
0.0332755
0.0327834
0.0322897
0.0317866
0.0312839
0.0307843
0.0302912
0.029809
0.0293384
0.0288834
0.0284433
0.0280212
0.0276162
0.02723
0.0268623
0.0265142
0.0261847
0.025878
0.0256175
0.0253861
0.0251578
0.0249336
0.0247166
0.024509
0.0243122
0.0241269
0.0239529
0.0237901
0.0236375
0.0234952
0.0233617
0.0232375
0.023121
0.023013
0.0229117
0.0228178
0.0227301
0.0226476
0.0225688
0.0224955
0.0224267
0.0223632
0.0223042
0.0222489
0.0221981
0.0221488
0.0221024
0.0220586
0.0220148
0.0219725
0.0219302
0.0218882
0.0218387
0.0217992
0.0217113
0.02173
0.0215382
0.0204539
0.0889309
0.0789571
0.060144
0.0461403
0.0395113
0.0371742
0.0366755
0.03684
0.0372682
0.0377863
0.0382834
0.0387509
0.0391554
0.0394743
0.0397259
0.0398758
0.0399623
0.039948
0.0398666
0.0397384
0.0395251
0.0392594
0.0389494
0.038593
0.0381999
0.0377714
0.0373285
0.0368623
0.0363845
0.0358989
0.0354098
0.0349225
0.0344387
0.0339639
0.0334982
0.033046
0.0326069
0.0321839
0.0317771
0.0313882
0.0310171
0.0306678
0.0303683
0.0301052
0.0298487
0.0295984
0.0293561
0.0291231
0.0289005
0.0286893
0.0284894
0.0283012
0.0281238
0.0279576
0.0278009
0.0276546
0.0275169
0.0273888
0.0272683
0.0271563
0.0270515
0.0269529
0.0268582
0.0267695
0.0266857
0.0266078
0.0265348
0.0264663
0.0264029
0.0263414
0.0262833
0.026228
0.0261728
0.026119
0.0260649
0.0260106
0.025947
0.025892
0.0257852
0.0257823
0.0255112
0.0250402
0.0964118
0.0854517
0.0676869
0.0529264
0.0446301
0.0414392
0.040446
0.0403272
0.0405765
0.0409921
0.0414545
0.0419242
0.0423679
0.0427663
0.0431246
0.043393
0.0436407
0.0438054
0.0439253
0.0439806
0.0439266
0.043813
0.0436499
0.0434228
0.0431426
0.0428185
0.0424664
0.042076
0.0416618
0.0412284
0.0407802
0.0403228
0.0398592
0.0393957
0.0389335
0.0384776
0.0380288
0.0375908
0.0371646
0.0367525
0.0363551
0.0359768
0.035649
0.0353619
0.0350835
0.034813
0.0345511
0.0342985
0.0340558
0.0338241
0.0336031
0.0333938
0.0331951
0.033008
0.0328307
0.0326644
0.0325071
0.0323603
0.0322217
0.0320926
0.0319713
0.031857
0.0317467
0.0316429
0.031544
0.0314515
0.0313642
0.0312817
0.0312049
0.03113
0.0310589
0.0309908
0.0309225
0.0308553
0.0307874
0.0307184
0.0306382
0.0305645
0.0304355
0.0304053
0.0300781
0.0298149
0.102333
0.0922223
0.0762914
0.0619956
0.0527576
0.0482957
0.0462162
0.0453639
0.0451127
0.0451759
0.0454021
0.045692
0.0460274
0.0463579
0.0466988
0.0469841
0.0472723
0.0475104
0.0477268
0.0479036
0.0480191
0.0480921
0.0481164
0.0480489
0.0479155
0.047738
0.0475153
0.047238
0.0469269
0.0465853
0.0462168
0.0458272
0.045421
0.0450048
0.0445802
0.0441532
0.0437256
0.0433016
0.0428829
0.0424725
0.042072
0.0416859
0.0413473
0.04105
0.0407617
0.0404815
0.0402101
0.0399477
0.0396943
0.0394511
0.0392175
0.038995
0.0387823
0.0385809
0.038389
0.0382081
0.0380362
0.0378749
0.0377222
0.0375792
0.0374446
0.0373174
0.0371941
0.0370775
0.0369655
0.0368601
0.0367599
0.0366645
0.0365751
0.0364875
0.0364036
0.0363228
0.0362412
0.0361603
0.036078
0.0359933
0.0358956
0.0358015
0.0356497
0.0355867
0.0352307
0.0349336
0.106862
0.0988406
0.0854678
0.0723874
0.0627232
0.0569042
0.0535478
0.0517661
0.0508558
0.0504336
0.0502903
0.0502737
0.0503822
0.0505268
0.0507342
0.0509296
0.0511428
0.0513451
0.0515463
0.0517394
0.0519066
0.0520591
0.0521782
0.052268
0.052309
0.0523235
0.0522597
0.052128
0.0519595
0.0517495
0.0514989
0.051216
0.0509064
0.0505758
0.0502263
0.0498649
0.0494937
0.0491177
0.0487389
0.0483612
0.0479867
0.0476203
0.0472944
0.0470061
0.0467252
0.0464512
0.0461848
0.0459262
0.0456753
0.0454333
0.0451993
0.0449751
0.0447594
0.044554
0.0443569
0.0441704
0.043992
0.0438241
0.0436642
0.043514
0.043372
0.0432375
0.0431065
0.042982
0.0428617
0.0427476
0.0426385
0.0425338
0.0424351
0.0423376
0.0422436
0.0421524
0.0420598
0.0419671
0.0418721
0.0417735
0.0416599
0.0415468
0.0413753
0.0412762
0.0409166
0.0405002
0.111583
0.105367
0.0946432
0.0828714
0.0726758
0.0652073
0.0608531
0.0584374
0.0570548
0.0562523
0.0557578
0.0554378
0.0553074
0.0552452
0.0552713
0.0553127
0.0553824
0.0554728
0.055576
0.0556996
0.0558224
0.0559552
0.0560777
0.0562009
0.0563076
0.0564054
0.0564789
0.056513
0.0565257
0.0564788
0.0563768
0.0562361
0.0560612
0.0558537
0.055617
0.0553592
0.0550821
0.0547909
0.0544881
0.054178
0.0538634
0.0535491
0.0532642
0.0530087
0.0527573
0.0525099
0.0522673
0.0520304
0.0517988
0.051574
0.0513552
0.0511443
0.0509398
0.0507441
0.050555
0.0503751
0.0502022
0.0500385
0.0498819
0.0497342
0.049594
0.0494608
0.0493304
0.0492059
0.0490849
0.0489695
0.0488583
0.0487509
0.048649
0.0485476
0.0484491
0.0483528
0.0482543
0.0481548
0.0480521
0.0479443
0.0478203
0.047693
0.0475096
0.0473764
0.047034
0.0464993
0.116388
0.111685
0.103263
0.0931117
0.0835281
0.0756788
0.0697468
0.0656076
0.0632637
0.0619763
0.0611958
0.060698
0.0604438
0.060251
0.0601148
0.0599947
0.0599161
0.0598757
0.0598517
0.0598625
0.059884
0.0599281
0.0599813
0.0600507
0.060131
0.0602209
0.0603175
0.0604059
0.0604933
0.0605627
0.0606124
0.0606402
0.060627
0.0605677
0.0604739
0.060353
0.0602043
0.0600324
0.0598407
0.0596337
0.0594141
0.0591868
0.0589739
0.058778
0.0585811
0.058384
0.0581877
0.0579935
0.0578014
0.0576132
0.0574281
0.0572483
0.0570725
0.0569031
0.0567383
0.0565805
0.0564278
0.0562826
0.0561429
0.0560107
0.0558845
0.0557643
0.0556459
0.0555324
0.0554213
0.0553148
0.0552115
0.0551111
0.0550152
0.054919
0.0548248
0.054732
0.0546362
0.0545383
0.0544365
0.0543282
0.0542031
0.0540709
0.0538879
0.0537299
0.0534218
0.0528094
0.120499
0.117228
0.110913
0.102875
0.0947294
0.0874486
0.0813162
0.0764075
0.0726065
0.0697343
0.067774
0.0665869
0.0659069
0.0654152
0.0650657
0.0647928
0.0646232
0.0644796
0.0643397
0.0642333
0.0641319
0.0640506
0.0639884
0.0639519
0.0639446
0.063959
0.0639974
0.0640478
0.0641145
0.0641884
0.0642703
0.0643543
0.0644363
0.0645074
0.0645666
0.0645985
0.0645929
0.0645595
0.0645028
0.0644251
0.0643287
0.0642179
0.0641051
0.0639936
0.0638752
0.0637515
0.0636239
0.0634944
0.063363
0.0632319
0.0631006
0.0629714
0.0628435
0.0627189
0.0625964
0.0624784
0.0623631
0.0622529
0.0621462
0.0620448
0.0619475
0.0618545
0.0617622
0.0616732
0.0615854
0.0615007
0.061418
0.0613369
0.0612591
0.0611801
0.0611022
0.0610246
0.0609433
0.060859
0.0607701
0.0606737
0.0605608
0.0604376
0.0602712
0.0601061
0.0598467
0.059218
0.123938
0.121732
0.117329
0.111527
0.105041
0.0986013
0.0928681
0.0880414
0.0840543
0.080776
0.0781207
0.0758287