/*--------------------------------*- C++ -*----------------------------------*\
| =========                 |                                                 |
| \\      /  F ield         | OpenFOAM: The Open Source CFD Toolbox           |
|  \\    /   O peration     | Version:  5.x                                   |
|   \\  /    A nd           | Web:      www.OpenFOAM.org                      |
|    \\/     M anipulation  |                                                 |
\*---------------------------------------------------------------------------*/
FoamFile
{
    version     2.0;
    format      ascii;
    class       volScalarField;
    location    "200";
    object      nut;
}
// * * * * * * * * * * * * * * * * * * * * * * * * * * * * * * * * * * * * * //

dimensions      [0 2 -1 0 0 0 0];

internalField   nonuniform List<scalar> 
11040
(
0.00235188
0.00282946
0.00306173
0.00311119
0.00302195
0.00286777
0.00269761
0.00255799
0.00243729
0.00230784
0.00213504
0.00196152
0.00182894
0.00173471
0.00164523
0.00155665
0.00146903
0.00138506
0.00130459
0.00122603
0.00114768
0.00107771
0.001015
0.000952247
0.00088848
0.000822559
0.000750435
0.000642354
0.0004751
0.00041339
0.00036642
0.000332004
0.000304036
0.000275591
0.000249004
0.000231146
0.000241484
0.000291149
0.000345298
0.000385842
0.000563722
0.00622383
0.00666473
0.00607979
0.0054809
0.00488238
0.00436634
0.0039185
0.00381545
0.00381556
0.00378073
0.00368544
0.00353918
0.00341793
0.0032991
0.00315566
0.00300815
0.00287116
0.00274806
0.00263743
0.00253699
0.00244519
0.0023686
0.00230202
0.00223951
0.00218075
0.00212441
0.00206714
0.00199377
0.00188378
0.00179923
0.00173507
0.00170686
0.00161914
0.00151709
0.00137966
0.00126008
0.00121945
0.00131406
0.00150094
0.00181999
0.00245056
0.0128118
0.0134943
0.0126688
0.0116338
0.0104904
0.00935767
0.00831421
0.0073858
0.00658854
0.00589975
0.00526447
0.00473714
0.0046207
0.00458188
0.00451794
0.00444401
0.00436271
0.00427933
0.00419943
0.00412547
0.00405736
0.0040026
0.00395333
0.0039036
0.0038534
0.00380269
0.00375043
0.00369259
0.00362401
0.00355906
0.00349921
0.00345139
0.00339239
0.00333004
0.0032216
0.00304449
0.00299481
0.00321544
0.00350956
0.00385393
0.00469473
0.0204963
0.0212631
0.0203603
0.0189984
0.0174114
0.0157787
0.0142039
0.012715
0.0113372
0.0100633
0.00882199
0.00773916
0.00694043
0.00634632
0.00604051
0.00591088
0.00581682
0.00574457
0.00568811
0.00564238
0.00560409
0.00557733
0.0055541
0.00552896
0.00550048
0.00546824
0.00543151
0.00538891
0.00533901
0.00528554
0.00523115
0.00518212
0.00513941
0.0051126
0.00507678
0.00497489
0.00492685
0.0051788
0.00564334
0.00634299
0.00719267
0.0290439
0.0298099
0.0289098
0.0273432
0.025423
0.0233499
0.0212611
0.0191893
0.0172257
0.0153825
0.0135715
0.0119506
0.0106568
0.00963756
0.00878349
0.008077
0.00762969
0.00741872
0.00729551
0.00721593
0.0071659
0.00714056
0.00712584
0.00711331
0.00710002
0.00708434
0.00706455
0.00703893
0.00700613
0.00696678
0.00692327
0.0068821
0.0068526
0.00685118
0.00687509
0.00686658
0.00686594
0.00713658
0.00778506
0.00887457
0.00997367
0.0381954
0.0389202
0.0380714
0.0364232
0.0342989
0.0318495
0.02926
0.0266694
0.0241726
0.021786
0.01941
0.0172213
0.0154002
0.0139364
0.0126819
0.0115919
0.0106775
0.00988891
0.00941291
0.00914455
0.00898418
0.00889018
0.00882975
0.0087849
0.00875192
0.00872662
0.00870466
0.00868233
0.00865675
0.00862658
0.00859281
0.00856083
0.00854166
0.0085551
0.00861722
0.00869473
0.00877642
0.00905942
0.00978463
0.011092
0.0131382
0.0477284
0.0483737
0.047601
0.0459736
0.04375
0.0411059
0.0382374
0.0352834
0.0323585
0.0294947
0.0265935
0.0238474
0.0214805
0.0195112
0.0177881
0.0162651
0.0149207
0.0137223
0.0126848
0.0118648
0.0114062
0.011123
0.0109198
0.010768
0.0106568
0.0105701
0.0104999
0.0104403
0.010387
0.0103374
0.0102908
0.0102509
0.010227
0.0102373
0.0103072
0.0104362
0.010603
0.0109079
0.0116035
0.0128936
0.0151909
0.0573682
0.057936
0.0572556
0.0557228
0.0535318
0.0508739
0.04792
0.0447895
0.0416002
0.0383933
0.035078
0.0318517
0.0289725
0.0264918
0.0242722
0.0222752
0.0204778
0.0188545
0.0173828
0.0160549
0.0149131
0.0141609
0.0136928
0.0133596
0.0131031
0.0128933
0.0127141
0.0125565
0.0124148
0.0122864
0.0121711
0.0120721
0.0119977
0.0119629
0.0119925
0.0121087
0.0123105
0.0126323
0.0132443
0.0143495
0.0163981
0.0669083
0.0673883
0.066797
0.0654038
0.0633544
0.0608236
0.0579493
0.0548255
0.0515566
0.0481797
0.0446139
0.0410467
0.0377507
0.0348109
0.0321235
0.0296617
0.0274087
0.0253449
0.0234483
0.0216986
0.0200811
0.0187567
0.0177879
0.0170895
0.0165682
0.0161461
0.0157795
0.0154468
0.0151374
0.0148471
0.0145762
0.0143291
0.0141153
0.0139492
0.0138525
0.0138545
0.0139784
0.0142446
0.0147363
0.015583
0.0171202
0.0761055
0.0765011
0.0759953
0.0747666
0.072926
0.0706197
0.0679523
0.0649896
0.0618136
0.058431
0.0547894
0.0510535
0.0474883
0.0442095
0.0411668
0.0383176
0.0356576
0.0331815
0.030875
0.0287213
0.0267022
0.0249915
0.0235941
0.0224302
0.0215113
0.0207661
0.0201264
0.0195479
0.0190051
0.0184854
0.0179846
0.0175051
0.017056
0.0166522
0.0163141
0.0160719
0.0159609
0.0160125
0.0162758
0.0168126
0.017791
0.0847605
0.0850813
0.0846551
0.0835982
0.0819966
0.0799681
0.0775887
0.0748826
0.071917
0.0687168
0.0652136
0.0615321
0.0579053
0.0544532
0.0511479
0.0480042
0.0450286
0.0422307
0.0395795
0.0370661
0.0346814
0.0326446
0.0309375
0.0293874
0.0280622
0.0269515
0.0259928
0.02513
0.0243241
0.0235504
0.0227956
0.0220547
0.0213309
0.0206344
0.0199807
0.0193976
0.0189216
0.0185897
0.0184505
0.0185489
0.0189332
0.0927277
0.0929847
0.0926284
0.091736
0.0903757
0.0886408
0.0865863
0.0842119
0.0815755
0.0786889
0.0754874
0.072057
0.0685827
0.0651684
0.0618015
0.0585167
0.0553391
0.0522863
0.0493634
0.0465682
0.0438975
0.0415902
0.0396238
0.0377799
0.0360765
0.0345994
0.0333214
0.0321808
0.0311258
0.0301206
0.0291414
0.0281742
0.0272131
0.0262591
0.0253169
0.0244054
0.0235533
0.0227886
0.0221561
0.0217068
0.0214115
0.0999203
0.10012
0.0998196
0.0990747
0.0979396
0.0964878
0.094759
0.0927428
0.0904854
0.0879904
0.0851979
0.0821602
0.078999
0.0758065
0.0725836
0.0693759
0.0661971
0.0630703
0.0600138
0.0570391
0.054152
0.0516281
0.0494653
0.047425
0.0454897
0.0436623
0.0419831
0.0405128
0.0392094
0.0380076
0.0368605
0.0357378
0.0346246
0.0335083
0.0323821
0.0312535
0.0301388
0.0290491
0.0280125
0.0270782
0.0261413
0.106301
0.106441
0.106184
0.105568
0.104634
0.103439
0.102012
0.100342
0.0984633
0.0963766
0.0940298
0.0914365
0.0887034
0.0858853
0.0829785
0.0800152
0.0770218
0.0740312
0.0710446
0.068076
0.0651381
0.0625259
0.0602584
0.0581035
0.056046
0.0540728
0.0521771
0.0503666
0.0486765
0.0471715
0.0458175
0.0445506
0.0433272
0.0421198
0.0409073
0.0396846
0.0384544
0.037212
0.0359654
0.0347511
0.0334061
0.111846
0.111946
0.11173
0.111224
0.110466
0.109494
0.108332
0.10697
0.105438
0.103733
0.101802
0.099671
0.0974046
0.0950339
0.0925493
0.0899699
0.0873147
0.0846024
0.0818489
0.079068
0.076279
0.0737533
0.0715157
0.0693631
0.0672905
0.065297
0.0633664
0.0614884
0.0596598
0.0578895
0.0561911
0.0546202
0.053202
0.0518831
0.0506076
0.0493481
0.0480918
0.0468199
0.0455259
0.0442298
0.0427555
0.116627
0.116694
0.116508
0.116094
0.115489
0.114699
0.113757
0.112658
0.111424
0.110054
0.108504
0.106796
0.10497
0.103045
0.100998
0.0988502
0.0966221
0.0943119
0.0919283
0.0894807
0.0869792
0.084676
0.0826085
0.0805979
0.0786426
0.0767401
0.0748862
0.0730755
0.0713014
0.0695576
0.0678398
0.066157
0.0645151
0.0629217
0.0614115
0.0600218
0.0587169
0.0574424
0.0561685
0.0548962
0.0534676
0.120714
0.120755
0.120595
0.120254
0.119761
0.119124
0.118367
0.117488
0.116503
0.115413
0.114186
0.112838
0.111397
0.109863
0.108233
0.106512
0.104708
0.102823
0.100869
0.0988403
0.0967389
0.0947719
0.0929793
0.0912185
0.0894902
0.0877935
0.086127
0.0844889
0.0828764
0.0812857
0.0797125
0.0781527
0.0766032
0.0750613
0.0735245
0.0720052
0.0705147
0.0690486
0.0676451
0.066339
0.0649597
0.124027
0.124053
0.123916
0.123634
0.12323
0.122712
0.122098
0.121394
0.120599
0.119721
0.11874
0.117668
0.116526
0.11531
0.114019
0.112657
0.111225
0.109724
0.108155
0.106518
0.104815
0.103203
0.101718
0.100249
0.0987967
0.0973629
0.0959468
0.0945522
0.093173
0.0918068
0.0904513
0.0891041
0.0877623
0.0864223
0.0850752
0.0837213
0.0823633
0.0809923
0.0796117
0.0782377
0.0768029
0.126611
0.126626
0.126509
0.126273
0.125937
0.125516
0.125007
0.124426
0.123774
0.123056
0.122265
0.121398
0.120476
0.119497
0.118461
0.11737
0.116225
0.115026
0.113772
0.112462
0.111096
0.109794
0.108586
0.107387
0.106198
0.10502
0.103853
0.102697
0.101551
0.100414
0.0992882
0.0981688
0.0970531
0.0959386
0.0948184
0.0936923
0.0925611
0.0914144
0.0902486
0.0890666
0.0878239
0.128657
0.128665
0.128565
0.128366
0.128082
0.127726
0.1273
0.126815
0.126276
0.12568
0.125026
0.124313
0.123557
0.122762
0.121918
0.121032
0.120104
0.119135
0.118124
0.11707
0.115973
0.114923
0.113945
0.112972
0.112008
0.111051
0.110103
0.109162
0.108228
0.107302
0.106381
0.105466
0.104555
0.103649
0.10274
0.101828
0.100913
0.0999881
0.0990493
0.098098
0.0971071
0.130314
0.130319
0.130234
0.130063
0.12982
0.129515
0.129157
0.128745
0.128289
0.127786
0.127237
0.126648
0.126019
0.12536
0.124664
0.123935
0.123175
0.122383
0.12156
0.120704
0.119816
0.118964
0.11817
0.11738
0.116598
0.115823
0.115051
0.114286
0.113531
0.112784
0.112043
0.111306
0.110573
0.109846
0.109119
0.10839
0.107661
0.106926
0.106182
0.105431
0.104659
0.13168
0.131685
0.131611
0.131463
0.131253
0.130989
0.130679
0.13033
0.129939
0.129514
0.129048
0.128549
0.12802
0.127467
0.126889
0.126283
0.125653
0.124999
0.124322
0.123621
0.122896
0.122199
0.121549
0.120904
0.120263
0.119633
0.119005
0.118384
0.11777
0.117167
0.116571
0.11598
0.115394
0.114815
0.114236
0.113659
0.113083
0.112504
0.111921
0.111333
0.110737
0.132825
0.132829
0.132764
0.132635
0.132451
0.132221
0.131951
0.131647
0.131313
0.130946
0.130549
0.130122
0.129675
0.129206
0.128717
0.12821
0.127686
0.127141
0.126578
0.125998
0.125401
0.124828
0.124292
0.123762
0.123236
0.122719
0.122206
0.1217
0.1212
0.120708
0.120227
0.119753
0.119286
0.118824
0.118363
0.117906
0.117451
0.116996
0.11654
0.116082
0.115623
0.133796
0.133799
0.133742
0.133628
0.133466
0.133264
0.133027
0.132761
0.132468
0.132149
0.131806
0.131438
0.131054
0.130656
0.13024
0.12981
0.129367
0.128911
0.128443
0.12796
0.127465
0.126988
0.126543
0.126104
0.125672
0.125247
0.124826
0.12441
0.124002
0.123601
0.123207
0.122822
0.122446
0.122076
0.121709
0.121346
0.120987
0.120629
0.120272
0.119918
0.119565
0.134627
0.13463
0.134578
0.134477
0.134334
0.134156
0.133947
0.133712
0.133455
0.133178
0.132879
0.132562
0.132229
0.131884
0.131529
0.131163
0.130785
0.130398
0.130002
0.129597
0.129186
0.128787
0.128415
0.128048
0.127689
0.127334
0.126986
0.126644
0.126308
0.12598
0.125658
0.125344
0.125037
0.124737
0.124442
0.124154
0.123871
0.12359
0.12331
0.123033
0.122761
0.135345
0.135346
0.135301
0.135211
0.135084
0.134926
0.13474
0.134532
0.134305
0.134061
0.1338
0.133523
0.133235
0.132935
0.132627
0.132311
0.131989
0.13166
0.131323
0.13098
0.130632
0.130298
0.129986
0.129679
0.129377
0.129081
0.128791
0.128507
0.128229
0.127958
0.127694
0.127436
0.127185
0.12694
0.126701
0.126468
0.126241
0.126019
0.125799
0.125583
0.125372
0.135969
0.13597
0.135929
0.13585
0.135736
0.135595
0.13543
0.135245
0.135043
0.134827
0.134596
0.134354
0.134101
0.133842
0.133575
0.133303
0.133024
0.13274
0.132453
0.132162
0.131867
0.131583
0.131318
0.131059
0.130805
0.130556
0.130312
0.130075
0.129844
0.129619
0.1294
0.129187
0.128981
0.128781
0.128586
0.128396
0.128212
0.128032
0.127856
0.127685
0.127521
0.136515
0.136516
0.13648
0.136409
0.136308
0.136181
0.136034
0.135869
0.135689
0.135496
0.135292
0.135077
0.134856
0.134629
0.134397
0.13416
0.133918
0.133674
0.133426
0.133176
0.132925
0.132684
0.132458
0.132237
0.132021
0.13181
0.131605
0.131405
0.131212
0.131024
0.130842
0.130666
0.130495
0.13033
0.13017
0.130015
0.129865
0.129719
0.129577
0.129439
0.129308
0.136996
0.136997
0.136965
0.136901
0.136811
0.136698
0.136566
0.136418
0.136257
0.136085
0.135903
0.135712
0.135516
0.135315
0.135111
0.134904
0.134694
0.134482
0.134268
0.134053
0.133838
0.133631
0.133436
0.133247
0.133063
0.132884
0.13271
0.132541
0.132378
0.13222
0.132068
0.131921
0.13178
0.131643
0.131511
0.131384
0.131261
0.131142
0.131027
0.130916
0.130811
0.137421
0.137423
0.137394
0.137338
0.137256
0.137155
0.137037
0.136904
0.13676
0.136606
0.136443
0.136273
0.136099
0.135921
0.13574
0.135556
0.135372
0.135187
0.135002
0.134816
0.134631
0.134452
0.134285
0.134122
0.133964
0.13381
0.133662
0.133518
0.13338
0.133247
0.133119
0.132996
0.132878
0.132764
0.132655
0.13255
0.132449
0.132352
0.132258
0.132167
0.132083
0.137799
0.137801
0.137776
0.137725
0.137652
0.137561
0.137455
0.137336
0.137207
0.137069
0.136923
0.136771
0.136616
0.136457
0.136297
0.136135
0.135972
0.135809
0.135647
0.135485
0.135326
0.135171
0.135026
0.134885
0.134748
0.134616
0.134489
0.134366
0.134249
0.134136
0.134028
0.133924
0.133825
0.13373
0.133639
0.133551
0.133468
0.133388
0.133311
0.133237
0.133169
0.138135
0.138139
0.138117
0.138071
0.138006
0.137924
0.137828
0.137722
0.137606
0.137482
0.137352
0.137216
0.137077
0.136936
0.136793
0.136649
0.136505
0.136362
0.136219
0.136078
0.135939
0.135804
0.135677
0.135554
0.135436
0.135322
0.135213
0.135108
0.135007
0.134911
0.134819
0.134731
0.134647
0.134567
0.134491
0.134418
0.134349
0.134283
0.13422
0.134159
0.134104
0.138437
0.138441
0.138422
0.138381
0.138322
0.138249
0.138163
0.138068
0.137964
0.137853
0.137737
0.137616
0.137492
0.137366
0.137239
0.137111
0.136983
0.136856
0.136731
0.136606
0.136485
0.136366
0.136255
0.136149
0.136046
0.135947
0.135852
0.135762
0.135675
0.135593
0.135514
0.135439
0.135369
0.135301
0.135237
0.135176
0.135119
0.135064
0.135011
0.134962
0.134917
0.138707
0.138712
0.138695
0.138659
0.138607
0.138541
0.138465
0.13838
0.138288
0.138189
0.138085
0.137977
0.137867
0.137755
0.137641
0.137528
0.137414
0.137302
0.137191
0.137081
0.136974
0.136871
0.136774
0.13668
0.13659
0.136504
0.136422
0.136344
0.136269
0.136198
0.136131
0.136067
0.136007
0.13595
0.135895
0.135844
0.135796
0.13575
0.135707
0.135666
0.135629
0.13895
0.138955
0.138941
0.138909
0.138863
0.138806
0.138739
0.138664
0.138583
0.138495
0.138403
0.138307
0.138208
0.138108
0.138007
0.137906
0.137806
0.137706
0.137608
0.137511
0.137417
0.137326
0.137241
0.137159
0.13708
0.137005
0.136934
0.136866
0.136801
0.13674
0.136682
0.136627
0.136576
0.136527
0.136481
0.136438
0.136397
0.136359
0.136323
0.136289
0.136259
0.139169
0.139175
0.139163
0.139135
0.139096
0.139047
0.13899
0.138924
0.138853
0.138776
0.138694
0.138609
0.138522
0.138433
0.138343
0.138254
0.138164
0.138076
0.137989
0.137904
0.137821
0.137741
0.137666
0.137594
0.137525
0.137459
0.137397
0.137337
0.137281
0.137228
0.137178
0.137131
0.137087
0.137046
0.137007
0.13697
0.136936
0.136904
0.136874
0.136846
0.136821
0.139366
0.139373
0.139363
0.139341
0.139309
0.139268
0.13922
0.139165
0.139103
0.139036
0.138965
0.13889
0.138813
0.138734
0.138655
0.138575
0.138496
0.138418
0.138341
0.138266
0.138193
0.138123
0.138057
0.137993
0.137933
0.137875
0.13782
0.137769
0.13772
0.137674
0.13763
0.13759
0.137552
0.137516
0.137483
0.137452
0.137423
0.137396
0.137371
0.137348
0.137327
0.139544
0.13955
0.139544
0.139528
0.139504
0.139473
0.139434
0.139388
0.139336
0.13928
0.139219
0.139154
0.139087
0.139018
0.138948
0.138878
0.138808
0.138739
0.138671
0.138605
0.138541
0.138479
0.138421
0.138365
0.138312
0.138261
0.138213
0.138168
0.138125
0.138085
0.138048
0.138012
0.13798
0.137949
0.137921
0.137894
0.13787
0.137847
0.137826
0.137807
0.13779
0.139703
0.13971
0.139707
0.139699
0.139683
0.139661
0.139632
0.139597
0.139556
0.139511
0.139461
0.139407
0.139351
0.139293
0.139233
0.139172
0.139112
0.139052
0.138992
0.138934
0.138878
0.138824
0.138772
0.138723
0.138676
0.138632
0.138589
0.13855
0.138513
0.138478
0.138445
0.138415
0.138387
0.138361
0.138337
0.138315
0.138294
0.138276
0.138259
0.138244
0.138231
0.139841
0.139848
0.13985
0.139848
0.139841
0.139828
0.13981
0.139787
0.139759
0.139728
0.139692
0.139653
0.139611
0.139567
0.13952
0.139472
0.139424
0.139375
0.139326
0.139278
0.139232
0.139186
0.139143
0.139101
0.139061
0.139023
0.138987
0.138953
0.138922
0.138893
0.138866
0.138841
0.138819
0.138799
0.138781
0.138765
0.138752
0.138741
0.138731
0.138724
0.138719
0.139944
0.13995
0.139953
0.139954
0.139951
0.139945
0.139937
0.139926
0.139912
0.139897
0.139879
0.139859
0.139836
0.139813
0.139787
0.139761
0.139733
0.139705
0.139676
0.139648
0.139621
0.139593
0.139565
0.139539
0.139513
0.139488
0.139464
0.139442
0.139421
0.139402
0.139384
0.139369
0.139355
0.139342
0.139332
0.139323
0.139315
0.13931
0.139305
0.139302
0.1393
0.139995
0.14
0.140003
0.140004
0.140003
0.140001
0.139998
0.139993
0.139988
0.139981
0.139973
0.139964
0.139953
0.139942
0.13993
0.139917
0.139904
0.139891
0.139877
0.139863
0.139849
0.139836
0.139822
0.139809
0.139796
0.139783
0.139771
0.139759
0.139748
0.139738
0.139729
0.139721
0.139713
0.139706
0.1397
0.139695
0.139691
0.139688
0.139685
0.139683
0.139681
0.140021
0.140025
0.140028
0.14003
0.140031
0.140032
0.140031
0.14003
0.140029
0.140027
0.140024
0.14002
0.140016
0.140011
0.140006
0.14
0.139994
0.139988
0.139981
0.139974
0.139968
0.139961
0.139955
0.139949
0.139942
0.139936
0.13993
0.139925
0.13992
0.139915
0.13991
0.139906
0.139902
0.139898
0.139895
0.139892
0.13989
0.139888
0.139886
0.139885
0.139884
0.140034
0.140037
0.14004
0.140042
0.140044
0.140046
0.140048
0.140049
0.14005
0.14005
0.14005
0.14005
0.140049
0.140048
0.140047
0.140045
0.140043
0.140041
0.140039
0.140036
0.140034
0.140031
0.140029
0.140026
0.140023
0.140021
0.140018
0.140016
0.140013
0.140011
0.140009
0.140007
0.140005
0.140003
0.140002
0.14
0.139999
0.139998
0.139997
0.139997
0.139996
0.140037
0.14004
0.140042
0.140045
0.140047
0.14005
0.140052
0.140055
0.140057
0.140059
0.140061
0.140063
0.140064
0.140065
0.140066
0.140067
0.140067
0.140068
0.140068
0.140068
0.140068
0.140068
0.140068
0.140067
0.140067
0.140066
0.140066
0.140065
0.140065
0.140064
0.140063
0.140063
0.140062
0.140061
0.140061
0.14006
0.14006
0.140059
0.140059
0.140059
0.140058
0.140033
0.140035
0.140037
0.14004
0.140042
0.140045
0.140048
0.14005
0.140053
0.140056
0.140058
0.14006
0.140062
0.140064
0.140066
0.140068
0.14007
0.140072
0.140074
0.140075
0.140077
0.140078
0.14008
0.140081
0.140082
0.140083
0.140084
0.140084
0.140085
0.140085
0.140086
0.140086
0.140086
0.140087
0.140087
0.140087
0.140087
0.140087
0.140087
0.140087
0.140087
0.140024
0.140025
0.140026
0.140028
0.14003
0.140032
0.140034
0.140037
0.140039
0.140041
0.140043
0.140044
0.140046
0.140047
0.140047
0.140048
0.140049
0.140049
0.140049
0.14005
0.140051
0.140053
0.140054
0.140056
0.140058
0.14006
0.140062
0.140064
0.140066
0.140067
0.140069
0.140071
0.140072
0.140074
0.140075
0.140076
0.140077
0.140078
0.140078
0.140079
0.14008
0.140009
0.140009
0.14001
0.140011
0.140012
0.140012
0.140013
0.140014
0.140015
0.140016
0.140016
0.140016
0.140016
0.140015
0.140013
0.140009
0.140003
0.139988
0.139965
0.139949
0.139936
0.139924
0.139914
0.139905
0.139897
0.13989
0.139885
0.139879
0.139875
0.139871
0.139867
0.139864
0.139861
0.139858
0.139855
0.139852
0.139849
0.139846
0.139843
0.139839
0.139836
0.00281622
0.00353784
0.00421086
0.0054155
0.00710936
0.00911133
0.0113173
0.0136722
0.0161401
0.0187062
0.0213554
0.0240735
0.026859
0.0297037
0.0325982
0.0355344
0.0385084
0.0415144
0.0445449
0.0475935
0.0506551
0.0537225
0.0567899
0.0598625
0.0629609
0.0661132
0.0693362
0.072616
0.0759066
0.0791495
0.0822962
0.0853173
0.088201
0.0909472
0.0935571
0.0960338
0.0983797
0.100604
0.102716
0.104724
0.106637
0.108461
0.110205
0.111874
0.113471
0.115
0.116466
0.117872
0.119227
0.120525
0.121755
0.12292
0.124024
0.12507
0.126059
0.126992
0.127873
0.128707
0.129497
0.130246
0.130957
0.131632
0.132272
0.132881
0.133459
0.134009
0.134531
0.135029
0.135505
0.135959
0.136394
0.136823
0.137183
0.1378
0.00591918
0.00638404
0.00606833
0.00613025
0.00699042
0.0085301
0.010496
0.0127175
0.0151053
0.0176188
0.0202332
0.022929
0.0256992
0.0285349
0.031425
0.0343602
0.0373381
0.0403518
0.0433925
0.0464533
0.0495297
0.0526146
0.0557012
0.0587949
0.0619182
0.0651021
0.0683664
0.0716988
0.0750514
0.0783608
0.0815732
0.0846554
0.0875936
0.0903868
0.0930379
0.0955505
0.0979246
0.100172
0.102305
0.104331
0.106261
0.108101
0.10986
0.111544
0.113156
0.114701
0.116183
0.117609
0.118984
0.120298
0.121539
0.122715
0.123828
0.124882
0.125878
0.126819
0.127709
0.12855
0.129348
0.130104
0.130822
0.131504
0.132152
0.132767
0.133351
0.133907
0.134436
0.13494
0.135421
0.13588
0.136319
0.136752
0.137115
0.137736
0.00905171
0.0099961
0.0094812
0.0086431
0.00828297
0.00876867
0.0100496
0.011884
0.0140563
0.0164426
0.0189783
0.021625
0.0243637
0.0271805
0.0300617
0.0329954
0.0359765
0.0389977
0.0420494
0.045124
0.0482179
0.0513238
0.0544337
0.0575516
0.060701
0.063915
0.067217
0.070599
0.0740138
0.0773942
0.0806807
0.0838349
0.0868393
0.0896917
0.0923953
0.0949549
0.0973686
0.09965
0.101812
0.103864
0.105817
0.107679
0.109459
0.111163
0.112793
0.114356
0.115856
0.117305
0.118703
0.120035
0.12129
0.122478
0.123603
0.124668
0.125674
0.126624
0.127523
0.128374
0.12918
0.129945
0.130671
0.131361
0.132016
0.132639
0.133231
0.133794
0.134329
0.134839
0.135326
0.135791
0.136234
0.136671
0.137038
0.137664
0.0112348
0.0131318
0.0132263
0.0123653
0.0113142
0.0106693
0.0107858
0.0117215
0.0133152
0.015356
0.0176856
0.0202074
0.0228681
0.0256368
0.0284909
0.0314126
0.0343914
0.0374181
0.0404821
0.0435741
0.0466892
0.0498197
0.0529566
0.0561017
0.0592786
0.0625218
0.0658576
0.069285
0.0727611
0.0762165
0.0795856
0.0828238
0.0859081
0.0888336
0.091603
0.0942221
0.0966899
0.0990174
0.101219
0.103307
0.105292
0.107183
0.10899
0.110719
0.112373
0.113956
0.11548
0.116955
0.118376
0.119729
0.121003
0.122206
0.123346
0.124424
0.125442
0.126404
0.127314
0.128176
0.128992
0.129767
0.130503
0.131201
0.131865
0.132496
0.133096
0.133666
0.134209
0.134726
0.135219
0.135691
0.136139
0.136581
0.136952
0.137583
0.0126423
0.0154511
0.0164094
0.0161339
0.0152104
0.014123
0.0133036
0.0130856
0.0136212
0.0148677
0.0166698
0.0188604
0.0213152
0.0239555
0.0267312
0.0296082
0.0325647
0.0355851
0.0386551
0.0417627
0.0449
0.0480585
0.051228
0.0544074
0.0576165
0.0608886
0.0642539
0.0677207
0.0712553
0.0747877
0.0782474
0.0815824
0.0847621
0.0877769
0.090628
0.0933204
0.0958586
0.0982482
0.100504
0.102639
0.104666
0.106596
0.108438
0.110199
0.111882
0.113491
0.115044
0.116547
0.117994
0.119373
0.120669
0.121893
0.123051
0.124145
0.125179
0.126156
0.12708
0.127954
0.128782
0.129568
0.130315
0.131023
0.131697
0.132337
0.132946
0.133525
0.134076
0.134601
0.135101
0.135579
0.136033
0.136481
0.136856
0.137493
0.0140852
0.0170109
0.0186608
0.0191237
0.0188299
0.018042
0.0170495
0.0161667
0.0156881
0.0158231
0.0166438
0.0180904
0.020033
0.0223375
0.0248988
0.0276425
0.0305194
0.0334965
0.0365494
0.0396589
0.0428116
0.0459961
0.0491999
0.0524179
0.0556638
0.0589677
0.062363
0.0658666
0.0694547
0.0730633
0.0766188
0.0800629
0.0833548
0.0864775
0.0894289
0.0922134
0.0948371
0.0973078
0.0996347
0.101833
0.103916
0.105896
0.107783
0.109586
0.111305
0.112946
0.114536
0.116072
0.117548
0.118956
0.120282
0.121531
0.122711
0.123826
0.124879
0.125874
0.126814
0.127704
0.128547
0.129346
0.130105
0.130825
0.13151
0.13216
0.132779
0.133367
0.133927
0.13446
0.134969
0.135454
0.135916
0.13637
0.136749
0.137394
0.0170485
0.0182733
0.0200703
0.0209825
0.021422
0.0213157
0.0207833
0.0199991
0.0191764
0.0185554
0.018359
0.0187387
0.0197405
0.0213134
0.0233528
0.0257444
0.0283924
0.0312263
0.0341956
0.0372637
0.0404047
0.043599
0.0468292
0.0500839
0.0533683
0.0567061
0.0601304
0.063666
0.0673023
0.0709861
0.0746443
0.0782104
0.081631
0.0848814
0.0879552
0.0908538
0.0935829
0.0961518
0.0985714
0.100852
0.103008
0.105053
0.106999
0.108855
0.110622
0.112306
0.113938
0.115513
0.117025
0.118466
0.119828
0.12111
0.122319
0.12346
0.124537
0.125553
0.126513
0.127422
0.128281
0.129096
0.129869
0.130603
0.131301
0.131963
0.132593
0.133192
0.133762
0.134305
0.134822
0.135316
0.135785
0.136246
0.136631
0.137284
0.0186743
0.0202532
0.0214378
0.0219547
0.0228579
0.023339
0.0234844
0.023288
0.0228062
0.0221723
0.0215628
0.0211737
0.0211869
0.0217279
0.0228403
0.0244891
0.0265896
0.029043
0.0317606
0.0346711
0.0377218
0.040874
0.0440975
0.04737
0.0506841
0.0540521
0.0575019
0.0610626
0.0647374
0.0684885
0.0722487
0.0759462
0.0795171
0.0829236
0.0861438
0.0891826
0.0920417
0.0947324
0.097263
0.0996495
0.1019
0.10403
0.106053
0.107977
0.109804
0.111546
0.11323
0.114853
0.116408
0.117889
0.119293
0.120616
0.121861
0.123035
0.124141
0.125185
0.12617
0.127101
0.127981
0.128815
0.129605
0.130355
0.131067
0.131744
0.132386
0.132998
0.133579
0.134132
0.134659
0.135162
0.13564
0.136109
0.136501
0.137163
0.0191978
0.0210147
0.0225168
0.023484
0.0241036
0.0243648
0.0249161
0.0252914
0.025397
0.0252627
0.0249307
0.0244939
0.024096
0.023904
0.0240747
0.0247229
0.0258979
0.0275828
0.0297134
0.0322043
0.0349717
0.0379445
0.0410662
0.0442932
0.0475977
0.0509732
0.054434
0.0580058
0.0617027
0.0655043
0.0693557
0.0731848
0.0769194
0.0805068
0.0839122
0.087127
0.0901441
0.0929856
0.095655
0.0981693
0.100537
0.102776
0.104897
0.10691
0.108817
0.110634
0.112383
0.114067
0.115677
0.117209
0.11866
0.120032
0.121323
0.122538
0.123682
0.12476
0.125775
0.126733
0.127639
0.128495
0.129307
0.130075
0.130805
0.131498
0.132155
0.13278
0.133375
0.13394
0.134479
0.134992
0.13548
0.135958
0.136357
0.13703
0.0192919
0.0208788
0.0225083
0.0239841
0.0251627
0.0259229
0.0263852
0.026567
0.026799
0.0270974
0.0272567
0.027238
0.0270818
0.0268568
0.0266687
0.0266541
0.0269524
0.0276743
0.0288791
0.0305696
0.0327015
0.0352045
0.0380008
0.0410183
0.0441992
0.0475064
0.0509285
0.0544754
0.0581615
0.0619812
0.0658959
0.0698404
0.0737384
0.0775227
0.0811431
0.0845737
0.0878008
0.0908319
0.0936708
0.0963448
0.0988599
0.101233
0.103477
0.105602
0.107615
0.109528
0.111362
0.113122
0.114802
0.116398
0.117909
0.119337
0.120684
0.121952
0.123143
0.124263
0.125317
0.12631
0.127246
0.128131
0.128967
0.129759
0.130509
0.131221
0.131896
0.132538
0.133147
0.133727
0.134278
0.134804
0.135302
0.135791
0.136198
0.136883
0.019868
0.0209721
0.0222385
0.0236181
0.025028
0.0263379
0.0274275
0.0281886
0.0286426
0.0288646
0.0288528
0.02893
0.0290948
0.0292045
0.0292191
0.0291873
0.0291938
0.0293448
0.0297579
0.0305378
0.0317538
0.0334275
0.0355364
0.0380259
0.0408272
0.0438749
0.0471219
0.0505463
0.0541457
0.0579168
0.0618356
0.0658491
0.0698831
0.0738594
0.0777108
0.0813904
0.084871
0.0881445
0.0912119
0.0940889
0.0967839
0.0993264
0.101725
0.103993
0.106138
0.108173
0.110115
0.111973
0.113744
0.115424
0.117012
0.11851
0.119922
0.121251
0.122503
0.123678
0.12478
0.125816
0.126791
0.127711
0.128578
0.129398
0.130174
0.130908
0.131605
0.132266
0.132893
0.133488
0.134055
0.134594
0.135106
0.135606
0.136023
0.136722
0.0218711
0.0225504
0.0233508
0.0242498
0.0252529
0.0263564
0.0275247
0.0286779
0.0297119
0.0305334
0.0310606
0.031323
0.0313862
0.0312619
0.0311741
0.0312311
0.0313419
0.0314574
0.0316209
0.0319144
0.0324321
0.0332659
0.0344873
0.0361331
0.0382005
0.0406547
0.0434455
0.0465261
0.0498659
0.0534467
0.0572468
0.0612249
0.0653147
0.0694334
0.0734977
0.0774376
0.0812035
0.0847672
0.0881179
0.0912597
0.0942003
0.0969607
0.0995486
0.101996
0.104308
0.106496
0.108576
0.11056
0.112448
0.114237
0.115925
0.117515
0.11901
0.120414
0.121735
0.122978
0.124142
0.125234
0.126258
0.127221
0.128128
0.128983
0.12979
0.130552
0.131274
0.131958
0.132606
0.133221
0.133805
0.134361
0.134887
0.135401
0.13583
0.136545
0.0261959
0.0265395
0.0269702
0.0274442
0.0279598
0.0285314
0.0291797
0.0299201
0.030748
0.0316285
0.0324933
0.033257
0.0338433
0.0341844
0.0342832
0.034198
0.0339664
0.03369
0.0336259
0.0337349
0.0339672
0.0343467
0.0349377
0.0358137
0.0370385
0.0386538
0.040673
0.0430852
0.045867
0.0489945
0.0524433
0.0561796
0.0601486
0.0642721
0.068457
0.0726109
0.0766556
0.0805346
0.0842137
0.0876789
0.0909288
0.0939747
0.0968262
0.0995078
0.102021
0.104402
0.106658
0.108802
0.11084
0.112769
0.114588
0.116299
0.117903
0.119406
0.120815
0.122136
0.123374
0.124537
0.125625
0.126644
0.1276
0.128499
0.129345
0.130143
0.130897
0.131609
0.132282
0.13292
0.133525
0.1341
0.134644
0.135174
0.135616
0.136349
0.0331465
0.0332209
0.0333623
0.033518
0.0336756
0.0338358
0.034007
0.0342054
0.0344534
0.0347743
0.0351835
0.0356775
0.036228
0.0367809
0.0372646
0.0376093
0.0377566
0.037676
0.0374195
0.037052
0.03659
0.0363612
0.0364197
0.0367372
0.0373105
0.038176
0.0393791
0.0409563
0.0429296
0.0453084
0.0480928
0.0512718
0.0548162
0.0586701
0.0627497
0.066953
0.071176
0.0753269
0.0793363
0.0831596
0.086773
0.090171
0.0933567
0.096345
0.0991431
0.101776
0.104251
0.106596
0.108823
0.11093
0.112918
0.114786
0.116536
0.118171
0.119697
0.121121
0.12245
0.123695
0.124862
0.125953
0.126974
0.127929
0.128826
0.129668
0.13046
0.131207
0.131913
0.132579
0.133209
0.133807
0.134371
0.13492
0.135378
0.136134
0.0422908
0.0421638
0.0420877
0.0420125
0.0419248
0.04182
0.0416968
0.041557
0.041407
0.0412587
0.0411306
0.0410458
0.041027
0.04109
0.0412356
0.0414435
0.0416724
0.0418617
0.0419453
0.0418708
0.0415871
0.041131
0.0405768
0.0399869
0.0395309
0.0394525
0.0397694
0.0404664
0.0415501
0.0430381
0.0449486
0.047296
0.0500862
0.0533068
0.0569162
0.0608396
0.0649755
0.0692113
0.0734407
0.0775772
0.0815585
0.0853476
0.0889264
0.0922933
0.0954514
0.0984153
0.101195
0.103812
0.106281
0.108605
0.110804
0.112873
0.114813
0.116625
0.118311
0.119875
0.121328
0.122679
0.123939
0.125115
0.126219
0.127248
0.128209
0.129108
0.129951
0.130742
0.131487
0.132188
0.13285
0.133476
0.134065
0.134637
0.135114
0.135895
0.0528877
0.0526216
0.0523933
0.05216
0.0519106
0.0516406
0.0513464
0.0510254
0.0506755
0.0502966
0.0498911
0.0494658
0.0490327
0.0486094
0.0482173
0.0478785
0.04761
0.0474174
0.0472885
0.0471922
0.0470787
0.0468862
0.0465613
0.0460631
0.0453904
0.0446161
0.043841
0.0431328