/*--------------------------------*- C++ -*----------------------------------*\
| =========                 |                                                 |
| \\      /  F ield         | OpenFOAM: The Open Source CFD Toolbox           |
|  \\    /   O peration     | Version:  5.x                                   |
|   \\  /    A nd           | Web:      www.OpenFOAM.org                      |
|    \\/     M anipulation  |                                                 |
\*---------------------------------------------------------------------------*/
FoamFile
{
    version     2.0;
    format      ascii;
    class       volScalarField;
    location    "200";
    object      nut;
}
// * * * * * * * * * * * * * * * * * * * * * * * * * * * * * * * * * * * * * //

dimensions      [0 2 -1 0 0 0 0];

internalField   nonuniform List<scalar> 
11040
(
0.00248505
0.00103028
0.000481107
0.000558633
0.000509195
0.000453893
0.00040511
0.000367373
0.000343887
0.000333356
0.000327684
0.000325661
0.00032728
0.000332159
0.000340038
0.000351041
0.000365322
0.000382745
0.0004031
0.000425641
0.000448736
0.000470093
0.000488407
0.00050459
0.000517811
0.000523784
0.00051613
0.000489842
0.000441983
0.000425594
0.000459731
0.000494133
0.000554509
0.000626003
0.000839385
0.00119504
0.00129236
0.00161745
0.00183065
0.00199303
0.000425695
0.0053598
0.00385208
0.00282967
0.00246513
0.00173436
0.0013197
0.00107696
0.000910898
0.000821127
0.000811315
0.000824758
0.000846939
0.000875956
0.000908578
0.000942723
0.000974877
0.00100557
0.00103494
0.00106391
0.00109282
0.0011221
0.00115322
0.00118828
0.00124078
0.00133302
0.00146207
0.00160583
0.00176303
0.00193659
0.00213272
0.00234139
0.0025655
0.00280942
0.00308886
0.00340704
0.00378436
0.00412009
0.00447412
0.00471791
0.00475766
0.00344383
0.00994524
0.00732802
0.0053126
0.00444493
0.00406157
0.00304615
0.00245168
0.00203665
0.00172744
0.00162026
0.00160972
0.0016356
0.00168186
0.00173239
0.00178233
0.00183239
0.00188356
0.00193797
0.00200302
0.00208664
0.00219206
0.00232431
0.00250498
0.00274693
0.00302459
0.00332528
0.00364892
0.00399766
0.00437578
0.00479178
0.00525055
0.00576089
0.00633257
0.00699437
0.00776637
0.00864852
0.00953745
0.0103692
0.0109818
0.0111344
0.0097934
0.016844
0.0124917
0.00891234
0.00677178
0.00610471
0.00574361
0.00461993
0.00385267
0.00313575
0.0027844
0.00261744
0.0025444
0.00257079
0.00263887
0.00272072
0.00280985
0.00290937
0.00302323
0.0031727
0.00339145
0.00368898
0.00404198
0.00443698
0.00488058
0.00536881
0.0058981
0.00646742
0.00707784
0.0077372
0.00846126
0.00926339
0.0101635
0.0111915
0.012397
0.0138164
0.0154304
0.0170694
0.0185894
0.0197299
0.020154
0.0189772
0.0249979
0.0197794
0.0146466
0.0106911
0.00855444
0.00807947
0.00801757
0.00703407
0.00561759
0.0047171
0.0042369
0.00396096
0.00389773
0.00392517
0.00402324
0.00416811
0.00436784
0.00461923
0.00493809
0.00534485
0.00584513
0.00642096
0.00705479
0.00775648
0.00852191
0.00934709
0.0102302
0.0111719
0.0121842
0.0132939
0.0145261
0.0159207
0.0175396
0.0194726
0.0217785
0.024406
0.0270639
0.0295324
0.0314334
0.0323801
0.0317839
0.0338617
0.0287741
0.0222901
0.0168439
0.0127924
0.0107349
0.0105135
0.0106702
0.00972344
0.00805851
0.00704904
0.00628165
0.00596227
0.00584108
0.00592013
0.00613495
0.00645446
0.00685772
0.00735525
0.00797879
0.0087288
0.0095812
0.0105163
0.0115456
0.0126591
0.0138506
0.0151171
0.0164587
0.0178902
0.0194565
0.0211986
0.0231864
0.0255314
0.0283887
0.0318625
0.0358468
0.0398505
0.0435898
0.0465653
0.0483977
0.0490695
0.0432644
0.03866
0.0321173
0.0251943
0.0195471
0.0154021
0.0133775
0.0133057
0.0136826
0.0130238
0.0116226
0.0100509
0.0092652
0.0088076
0.0087473
0.00893803
0.00931058
0.00984695
0.0105603
0.0114606
0.0125289
0.0137235
0.0150301
0.0164621
0.0179981
0.0196271
0.0213437
0.0231455
0.0250468
0.0271206
0.0294297
0.0320855
0.0352706
0.0392432
0.0442056
0.0499624
0.0557037
0.0611172
0.0655345
0.0686767
0.0682783
0.0530326
0.0489553
0.0430769
0.0359599
0.0290842
0.0231568
0.0187411
0.0165466
0.0164681
0.017089
0.0168106
0.015715
0.0143724
0.0132641
0.012876
0.0129387
0.0133045
0.0139261
0.0148109
0.0159706
0.0173982
0.0190179
0.0207812
0.0227101
0.0247657
0.0269271
0.0291666
0.0314713
0.0338615
0.0364518
0.0393358
0.0426784
0.0467569
0.051995
0.0587644
0.0667839
0.0746781
0.0821326
0.087464
0.0891752
0.0862721
0.0629253
0.0593873
0.0543254
0.0479294
0.0406996
0.0337913
0.0276068
0.0228384
0.0202941
0.0200325
0.0208458
0.0210833
0.0204091
0.0194929
0.0188481
0.0186285
0.018877
0.0195292
0.0205744
0.0220127
0.023815
0.0258941
0.0281786
0.0306618
0.0332923
0.036038
0.0388445
0.0416849
0.0445833
0.0476297
0.0510097
0.0549514
0.0598516
0.0663666
0.0751643
0.0859309
0.095741
0.102648
0.106271
0.106071
0.101172
0.0726745
0.0696917
0.0654224
0.0600022
0.0535088
0.0463044
0.0392796
0.0328645
0.0277072
0.0246739
0.0240318
0.0249324
0.0257939
0.0257541
0.0254441
0.0253687
0.0258091
0.0267901
0.0282588
0.0301259
0.0323518
0.0349272
0.0378067
0.0409097
0.0441759
0.0475702
0.0509872
0.0543925
0.0577907
0.0611981
0.0648338
0.0690986
0.0744993
0.0819642
0.0926779
0.104851
0.113561
0.118843
0.120615
0.118404
0.111371
0.0820194
0.0795836
0.0760698
0.0715884
0.0661708
0.0598054
0.0527429
0.0454229
0.0388429
0.0333312
0.0297279
0.028521
0.0293139
0.0307879
0.0317182
0.0322186
0.0329888
0.0344019
0.0365516
0.0393724
0.0427804
0.046528
0.0503169
0.0540923
0.0580103
0.0621031
0.0661224
0.0700572
0.0739032
0.0775575
0.0811815
0.0852743
0.0904899
0.0978675
0.108916
0.119871
0.126902
0.130382
0.130218
0.125927
0.116854
0.0907312
0.0887961
0.0859867
0.0823675
0.0779809
0.072791
0.0667275
0.0598441
0.0525206
0.0458093
0.03992
0.0356337
0.0336465
0.034013
0.0359047
0.0380232
0.0397613
0.0417427
0.0445045
0.0482788
0.0530573
0.0584889
0.0641537
0.0698595
0.0753853
0.0804662
0.0849748
0.0892947
0.093522
0.0972338
0.100556
0.103944
0.107925
0.113481
0.121934
0.130861
0.136195
0.137991
0.136241
0.130795
0.121985
0.0986404
0.0971381
0.0949512
0.0921046
0.0886309
0.0845316
0.0797095
0.0740747
0.0675892
0.0605234
0.0537941
0.0475727
0.0425789
0.0396399
0.0392098
0.0410402
0.0442043
0.0476886
0.0514037
0.0560352
0.0619459
0.0689314
0.0764881
0.0843653
0.0922554
0.0998498
0.106812
0.112885
0.117695
0.121038
0.123687
0.126223
0.128296
0.130555
0.134291
0.139847
0.143337
0.143978
0.141723
0.136934
0.130637
0.105637
0.104493
0.102824
0.100638
0.0979543
0.0947818
0.0910616
0.0867259
0.0816429
0.0757493
0.069241
0.0623465
0.0559992
0.0504916
0.0466131
0.0450985
0.0462622
0.0498335
0.0550696
0.0612393
0.0684001
0.0767117
0.085855
0.0956281
0.105659
0.115565
0.124984
0.133577
0.141024
0.147031
0.15136
0.153758
0.153931
0.15291
0.152422
0.152139
0.152082
0.152182
0.14994
0.146377
0.142557
0.111695
0.110834
0.109579
0.107927
0.105894
0.103487
0.100667
0.0973971
0.0936069
0.0891836
0.0840663
0.0781916
0.0717256
0.0654368
0.0595801
0.0548426
0.0520625
0.0519545
0.0549125
0.060934
0.0695872
0.079712
0.0905256
0.102021
0.113925
0.125861
0.137455
0.148325
0.158122
0.16653
0.173278
0.178166
0.181098
0.182133
0.181331
0.178639
0.174116
0.168573
0.163738
0.159944
0.157683
0.116854
0.11621
0.115272
0.114034
0.11251
0.110709
0.108604
0.10617
0.103379
0.100177
0.0964781
0.0921745
0.0871534
0.081513
0.0753483
0.0694964
0.0642481
0.0603362
0.0586342
0.0599995
0.0651776
0.0741975
0.0862043
0.0999092
0.114101
0.128245
0.142055
0.155167
0.167246
0.178016
0.187228
0.194688
0.200279
0.203964
0.20575
0.205731
0.204125
0.201276
0.197665
0.193807
0.190436
0.1212
0.120721
0.12002
0.119094
0.117953
0.116613
0.115053
0.113258
0.111215
0.108901
0.10628
0.10328
0.099789
0.0957329
0.0910919
0.0859159
0.0801373
0.0747267
0.0700371
0.0668246
0.0660753
0.0686988
0.0751904
0.085692
0.0997223
0.116016
0.132931
0.149233
0.164353
0.178064
0.190205
0.200606
0.209199
0.215985
0.220969
0.224207
0.225827
0.226017
0.224994
0.223063
0.220695
0.124675
0.124316
0.123777
0.123066
0.122193
0.121174
0.119998
0.118666
0.117156
0.115463
0.113571
0.11145
0.10905
0.106298
0.103114
0.0994233
0.095356
0.0907296
0.0853797
0.080376
0.0761448
0.0735273
0.0732943
0.0760757
0.0824045
0.0924934
0.106031
0.122113
0.139412
0.156576
0.172604
0.186946
0.199398
0.209966
0.218682
0.225593
0.230785
0.23439
0.236455
0.237112
0.236487
0.127344
0.127056
0.126629
0.126066
0.125386
0.124586
0.12367
0.122641
0.121488
0.120209
0.118796
0.117234
0.115502
0.113573
0.111397
0.108899
0.106073
0.102976
0.099355
0.0951781
0.0902817
0.0858534
0.0823086
0.0800798
0.0796777
0.0816012
0.0862552
0.0938256
0.104165
0.116762
0.130822
0.145431
0.159736
0.173115
0.185116
0.195463
0.20406
0.211003
0.216233
0.219726
0.221318
0.129425
0.129187
0.128838
0.128382
0.127833
0.127189
0.126459
0.125639
0.124733
0.123731
0.122636
0.12144
0.120131
0.1187
0.117129
0.115387
0.113436
0.111248
0.108785
0.106177
0.103032
0.0994687
0.0957061
0.0920951
0.0890055
0.086768
0.0857131
0.0861309
0.0882388
0.0921331
0.0977458
0.104835
0.113015
0.121857
0.130877
0.139606
0.147657
0.154877
0.161002
0.165902
0.169466
0.131085
0.130884
0.130593
0.130221
0.129767
0.129236
0.128637
0.127968
0.127233
0.126432
0.12556
0.124615
0.123592
0.122486
0.121291
0.119997
0.118588
0.117039
0.115324
0.113449
0.111366
0.109242
0.106908
0.10433
0.101575
0.0987264
0.096128
0.0939415
0.0923481
0.091487
0.0914451
0.0922498
0.0938614
0.0961874
0.0990745
0.102324
0.105717
0.109119
0.11232
0.115187
0.117809
0.132436
0.132264
0.13202
0.131706
0.131325
0.130884
0.130384
0.129831
0.129222
0.128563
0.127853
0.127091
0.126271
0.125393
0.124452
0.123449
0.122376
0.121225
0.119983
0.118634
0.117164
0.115636
0.114067
0.11249
0.110868
0.109143
0.10731
0.105414
0.103524
0.101635
0.100053
0.0987647
0.0978061
0.097184
0.0968859
0.0968828
0.0971265
0.0975615
0.0981262
0.0987682
0.099437
0.133555
0.133406
0.133201
0.132932
0.13261
0.132235
0.131814
0.131346
0.130837
0.130288
0.129697
0.129067
0.128398
0.127687
0.126933
0.126134
0.125288
0.124392
0.123444
0.122436
0.121357
0.120265
0.119194
0.118097
0.116986
0.115856
0.114717
0.113629
0.112521
0.111384
0.110246
0.109132
0.108074
0.107083
0.106133
0.105309
0.104676
0.104173
0.103801
0.103548
0.103322
0.134495
0.134365
0.134188
0.133956
0.133679
0.13336
0.132999
0.132601
0.132166
0.1317
0.131203
0.130677
0.130121
0.129535
0.128917
0.128268
0.127587
0.126873
0.126125
0.12534
0.124511
0.123711
0.123005
0.122333
0.121663
0.120985
0.1203
0.119615
0.118921
0.118197
0.11748
0.116778
0.1161
0.115452
0.114834
0.114259
0.113738
0.113268
0.11286
0.112529
0.112279
0.135292
0.135181
0.135026
0.134827
0.134589
0.134311
0.133999
0.133654
0.13328
0.132881
0.132458
0.132009
0.131538
0.131045
0.130532
0.129997
0.129441
0.128862
0.128261
0.127634
0.126983
0.126382
0.125872
0.125415
0.124988
0.124578
0.124181
0.123794
0.123416
0.123045
0.122683
0.122333
0.121997
0.121676
0.121374
0.121096
0.120844
0.120615
0.120416
0.120249
0.120096
0.135976
0.135881
0.135746
0.135572
0.135363
0.135121
0.134848
0.134549
0.134225
0.13388
0.133513
0.133128
0.132724
0.132305
0.131871
0.131422
0.13096
0.130481
0.129986
0.129481
0.128988
0.12856
0.128187
0.12785
0.12754
0.127254
0.126988
0.126741
0.126511
0.126298
0.126102
0.125921
0.125755
0.125603
0.125466
0.125343
0.125237
0.125142
0.125062
0.124996
0.124936
0.136569
0.136488
0.136371
0.136219
0.136035
0.135822
0.135583
0.13532
0.135037
0.134736
0.134416
0.134081
0.133732
0.133371
0.132999
0.132615
0.132222
0.131819
0.131408
0.131012
0.130654
0.130347
0.130076
0.129828
0.129599
0.129388
0.129193
0.129014
0.12885
0.128702
0.128568
0.128449
0.128343
0.128249
0.128167
0.128096
0.128035
0.127983
0.127939
0.127904
0.127873
0.137087
0.137019
0.136919
0.136787
0.136625
0.136436
0.136224
0.135991
0.13574
0.135473
0.135192
0.134898
0.134593
0.134279
0.133956
0.133625
0.133288
0.132942
0.132602
0.132294
0.132023
0.131793
0.131592
0.13141
0.131243
0.131089
0.130947
0.130817
0.130697
0.130589
0.130491
0.130403
0.130324
0.130254
0.130192
0.130137
0.130089
0.130046
0.130009
0.129976
0.129949
0.137543
0.137487
0.137402
0.137288
0.137146
0.13698
0.136792
0.136585
0.13636
0.136121
0.13587
0.135609
0.135338
0.13506
0.134776
0.134488
0.134195
0.133897
0.133608
0.133357
0.133144
0.132966
0.132811
0.132673
0.132548
0.132435
0.132332
0.132237
0.132152
0.132074
0.132003
0.131939
0.131882
0.131829
0.131781
0.131738
0.131699
0.131662
0.131627
0.131595
0.131567
0.137948
0.137903
0.137831
0.137733
0.13761
0.137464
0.137299
0.137114
0.136914
0.1367
0.136474
0.136239
0.135996
0.135747
0.135494
0.135237
0.134978
0.134715
0.134463
0.13425
0.134074
0.133927
0.133803
0.133694
0.133596
0.133509
0.133431
0.133361
0.133298
0.133241
0.13319
0.133144
0.133102
0.133064
0.133028
0.132994
0.132962
0.132931
0.132901
0.132871
0.132844
0.138309
0.138274
0.138214
0.138132
0.138026
0.1379
0.137754
0.137591
0.137413
0.137221
0.137018
0.136806
0.136586
0.136362
0.136133
0.135902
0.13567
0.135434
0.135204
0.135009
0.134851
0.134725
0.134619
0.134528
0.134448
0.134378
0.134316
0.134261
0.134213
0.13417
0.134131
0.134097
0.134065
0.134036
0.134008
0.133981
0.133955
0.133928
0.133901
0.133873
0.133846
0.138632
0.138606
0.138561
0.138493
0.138404
0.138294
0.138166
0.138022
0.137864
0.137692
0.13751
0.137318
0.13712
0.136916
0.136709
0.136499
0.136289
0.136078
0.135865
0.135675
0.135524
0.135406
0.13531
0.135228
0.135158
0.135097
0.135044
0.134998
0.134958
0.134923
0.134892
0.134864
0.134838
0.134814
0.13479
0.134767
0.134744
0.13472
0.134694
0.134666
0.134639
0.138923
0.138909
0.138877
0.138823
0.138748
0.138652
0.13854
0.138412
0.138272
0.138119
0.137956
0.137783
0.137604
0.137419
0.137231
0.13704
0.136849
0.136657
0.136465
0.136277
0.136122
0.136004
0.135911
0.135833
0.135766
0.13571
0.135661
0.135618
0.135581
0.135549
0.135521
0.135496
0.135472
0.13545
0.135429
0.135407
0.135385
0.135361
0.135335
0.135307
0.135277
0.139187
0.139187
0.139168
0.139125
0.13906
0.138977
0.138877
0.138765
0.13864
0.138504
0.138359
0.138206
0.138044
0.137877
0.137706
0.137533
0.137358
0.137183
0.13701
0.136835
0.13667
0.136544
0.136447
0.136368
0.136301
0.136244
0.136195
0.136153
0.136116
0.136084
0.136056
0.13603
0.136006
0.135984
0.135962
0.13594
0.135916
0.135891
0.135864
0.135834
0.135802
0.139431
0.139445
0.139434
0.139398
0.139342
0.139269
0.139183
0.139084
0.138974
0.138855
0.138726
0.13859
0.138446
0.138296
0.138142
0.137984
0.137825
0.137665
0.137506
0.137347
0.137189
0.137047
0.136938
0.136853
0.136782
0.136721
0.136669
0.136624
0.136585
0.13655
0.136519
0.136492
0.136466
0.136441
0.136417
0.136392
0.136366
0.136339
0.136309
0.136276
0.13624
0.139659
0.139681
0.139674
0.139644
0.139598
0.139538
0.139466
0.139382
0.139287
0.139182
0.139069
0.138948
0.138821
0.138687
0.138548
0.138404
0.138258
0.138112
0.137965
0.137819
0.137675
0.137533
0.137403
0.137302
0.137222
0.137155
0.137097
0.137047
0.137003
0.136964
0.136929
0.136897
0.136867
0.136838
0.13681
0.136781
0.136752
0.136721
0.136686
0.13665
0.136608
0.139868
0.13989
0.139885
0.139864
0.139833
0.13979
0.139736
0.13967
0.139592
0.139503
0.139404
0.139297
0.139184
0.139064
0.138939
0.138809
0.138676
0.13854
0.138403
0.138267
0.138132
0.138
0.137871
0.137749
0.137645
0.137561
0.137493
0.137434
0.137382
0.137336
0.137294
0.137256
0.13722
0.137185
0.137151
0.137117
0.137082
0.137044
0.137003
0.136958
0.136898
0.140034
0.140055
0.140057
0.140051
0.140039
0.140019
0.139989
0.139947
0.139892
0.139823
0.139742
0.139651
0.139554
0.139449
0.139337
0.13922
0.139098
0.138972
0.138844
0.138714
0.138585
0.138458
0.138334
0.138214
0.138099
0.13799
0.137891
0.137809
0.13774
0.13768
0.137626
0.137576
0.137529
0.137484
0.13744
0.137395
0.137347
0.137296
0.137238
0.137173
0.137084
0.14012
0.140134
0.140142
0.140145
0.140145
0.140141
0.140132
0.140117
0.140095
0.140067
0.140027
0.139975
0.139907
0.139827
0.139738
0.139642
0.139539
0.139429
0.139314
0.139194
0.139072
0.138948
0.138826
0.138705
0.138588
0.138475
0.138366
0.138263
0.138166
0.138076
0.137993
0.137915
0.137841
0.137772
0.137705
0.137639
0.137575
0.137511
0.137451
0.137397
0.137367
0.140159
0.140174
0.140185
0.140194
0.1402
0.140203
0.140203
0.1402
0.140193
0.140183
0.140168
0.140148
0.140122
0.140089
0.140049
0.139999
0.13994
0.13987
0.139789
0.139698
0.139599
0.139493
0.139384
0.139271
0.139157
0.139043
0.13893
0.138819
0.138713
0.13861
0.138511
0.138417
0.138328
0.138245
0.138173
0.138114
0.138071
0.138035
0.138007
0.137985
0.137978
0.14018
0.140196
0.140209
0.140221
0.140231
0.140239
0.140245
0.140249
0.14025
0.140249
0.140245
0.140238
0.140229
0.140217
0.140202
0.140185
0.140165
0.14014
0.14011
0.140073
0.140029
0.139977
0.139917
0.139849
0.139774
0.139694
0.139609
0.139523
0.139435
0.139347
0.139261
0.139177
0.139097
0.139022
0.138955
0.138895
0.138844
0.138803
0.13877
0.138745
0.138737
0.140188
0.140204
0.140219
0.140233
0.140246
0.140258
0.140268
0.140277
0.140284
0.140289
0.140292
0.140292
0.140292
0.140289
0.140285
0.14028
0.140274
0.140267
0.14026
0.14025
0.140239
0.140224
0.140205
0.140181
0.140152
0.140117
0.140077
0.140032
0.139983
0.13993
0.139875
0.13982
0.139764
0.139711
0.139659
0.139612
0.13957
0.139534
0.139504
0.139482
0.139475
0.140185
0.140202
0.140218
0.140234
0.140249
0.140263
0.140276
0.140289
0.1403
0.140309
0.140318
0.140324
0.14033
0.140334
0.140336
0.140339
0.14034
0.140341
0.140341
0.140341
0.140341
0.14034
0.140339
0.140336
0.140331
0.140324
0.140314
0.1403
0.140284
0.140264
0.140242
0.140218
0.140192
0.140166
0.14014
0.140115
0.140092
0.140072
0.140056
0.140044
0.140046
0.140173
0.14019
0.140206
0.140222
0.140238
0.140254
0.14027
0.140285
0.140299
0.140313
0.140326
0.140337
0.140347
0.140357
0.140365
0.140373
0.14038
0.140387
0.140393
0.140399
0.140405
0.14041
0.140415
0.14042
0.140424
0.140428
0.140431
0.140432
0.140433
0.140432
0.14043
0.140426
0.140421
0.140416
0.14041
0.140404
0.140399
0.140395
0.140393
0.140393
0.140406
0.140152
0.140167
0.140183
0.140198
0.140214
0.140231
0.140248
0.140264
0.140281
0.140298
0.140314
0.140329
0.140344
0.140358
0.140372
0.140385
0.140398
0.14041
0.140422
0.140434
0.140445
0.140456
0.140466
0.140476
0.140486
0.140495
0.140504
0.140512
0.14052
0.140528
0.140534
0.140541
0.140546
0.140552
0.140557
0.140563
0.140568
0.140575
0.140582
0.140591
0.140612
0.140121
0.140134
0.140148
0.140162
0.140176
0.140192
0.140207
0.140223
0.140239
0.140256
0.140274
0.140292
0.140311
0.14033
0.140348
0.140367
0.140385
0.140403
0.140421
0.140438
0.140455
0.140471
0.140487
0.140502
0.140517
0.140531
0.140545
0.140558
0.140571
0.140583
0.140595
0.140606
0.140617
0.140629
0.140639
0.14065
0.140662
0.140673
0.140685
0.140699
0.140723
0.140081
0.14009
0.1401
0.140111
0.140122
0.140133
0.140144
0.140154
0.140166
0.140173
0.140184
0.140199
0.140218
0.14024
0.140265
0.140293
0.140323
0.140353
0.140383
0.140413
0.140443
0.140471
0.140498
0.140523
0.140548
0.140571
0.140592
0.140612
0.140631
0.140649
0.140666
0.140682
0.140697
0.140711
0.140725
0.140739
0.140752
0.140765
0.140778
0.140792
0.140815
0.14003
0.140034
0.140038
0.140042
0.140047
0.140051
0.140055
0.140055
0.140059
0.140014
0.140002
0.140001
0.140005
0.140013
0.140026
0.140043
0.140066
0.140093
0.140124
0.140158
0.140195
0.140233
0.140272
0.140312
0.140351
0.14039
0.140428
0.140465
0.1405
0.140535
0.140567
0.140599
0.140629
0.140657
0.140684
0.14071
0.140735
0.140759
0.140781
0.140804
0.140832
0.0208039
0.031161
0.0192221
0.0145693
0.0474709
0.0960908
0.131679
0.15527
0.169942
0.178248
0.182193
0.183291
0.182639
0.180986
0.178807
0.17639
0.173937
0.171602
0.169497
0.167679
0.166142
0.164831
0.163671
0.162584
0.161505
0.160386
0.159197
0.157927
0.156584
0.155195
0.153799
0.152447
0.151195
0.150092
0.149176
0.14847
0.147971
0.147662
0.147507
0.147469
0.147512
0.147606
0.147735
0.14789
0.148065
0.148254
0.148447
0.14863
0.148791
0.148914
0.148988
0.149002
0.148953
0.148841
0.148671
0.14845
0.148188
0.147895
0.147581
0.147257
0.146935
0.146624
0.146332
0.146077
0.145864
0.145704
0.145614
0.14556
0.145502
0.145413
0.145282
0.145091
0.144841
0.144383
0.0262707
0.0369392
0.0222684
0.0156767
0.0548061
0.103286
0.137122
0.159309
0.172847
0.180261
0.183514
0.18408
0.183012
0.181027
0.178579
0.175956
0.173365
0.170969
0.168885
0.167163
0.165793
0.164708
0.163813
0.163012
0.162223
0.161381
0.160439
0.159372
0.158177
0.156871
0.155492
0.154093
0.152737
0.151486
0.150399
0.149518
0.148861
0.148424
0.148182
0.148099
0.148133
0.148249
0.148415
0.148612
0.148821
0.14903
0.149224
0.149391
0.149518
0.149593
0.149611
0.149567
0.14946
0.149294
0.149076
0.148813
0.148516
0.148194
0.147856
0.147514
0.147178
0.146856
0.146559
0.146299
0.146082
0.145908
0.145778
0.145658
0.145525
0.145355
0.145147
0.144888
0.144588
0.144092
0.0330682
0.0432918
0.0259653
0.0180448
0.0622309
0.109733
0.14182
0.162795
0.17532
0.181919
0.184533
0.184591
0.183106
0.180759
0.177991
0.175098
0.172306
0.169798
0.167703
0.166077
0.164908
0.164118
0.16359
0.163208
0.162864
0.162467
0.161947
0.161255
0.160367
0.159284
0.158028
0.15665
0.155214
0.153796
0.152477
0.151329
0.150402
0.149721
0.149281
0.149056
0.149003
0.149075
0.149228
0.149424
0.149634
0.149835
0.150011
0.150146
0.150231
0.150257
0.150223
0.150127
0.149971
0.149761
0.149502
0.149205
0.148878
0.14853
0.14817
0.147808
0.147454
0.147117
0.146804
0.146529
0.146286
0.146072
0.145882
0.145689
0.145479
0.145233
0.144956
0.144641
0.144303
0.143787
0.0415666
0.0501007
0.0301537
0.0219716
0.0699098
0.115526
0.145836
0.165803
0.177398
0.183227
0.185224
0.184774
0.182843
0.180077
0.176907
0.173652
0.170567
0.167866
0.165702
0.164143
0.163181
0.162729
0.16265
0.162798
0.163038
0.163249
0.163329
0.163201
0.162809
0.162128
0.161159
0.159934
0.15851
0.15697
0.155414
0.153948
0.15266
0.15162
0.150859
0.150374
0.150131
0.150077
0.150153
0.150304
0.150482
0.150653
0.150795
0.15089
0.150931
0.150912
0.150831
0.15069
0.150494
0.150246
0.149954
0.149628
0.149275
0.148903
0.148521
0.148137
0.147762
0.147404
0.147067
0.146756
0.146466
0.146195
0.145935
0.145668
0.145383
0.145067
0.144731
0.144369
0.144005
0.143484
0.0519092
0.0571509
0.0346228
0.0277832
0.0780159
0.120707
0.149278
0.168396
0.179097
0.184169
0.185541
0.184555
0.182125
0.178858
0.17518
0.171442
0.167946
0.164947
0.162627
0.161074
0.160289
0.160183
0.160595
0.161351
0.162287
0.163248
0.164098
0.164725
0.165037
0.164974
0.164506
0.163635
0.162399
0.160872
0.159158
0.157391
0.155702
0.154213
0.153008
0.152128
0.151568
0.15128
0.151199
0.151248
0.151358
0.151477
0.151574
0.151626
0.151624
0.151562
0.151442
0.151264
0.151033
0.150755
0.150436
0.150085
0.149709
0.149315
0.14891
0.148504
0.148104
0.147715
0.147337
0.146974
0.146624
0.146285
0.145952
0.14561
0.145256
0.144877
0.14449
0.144093
0.143712
0.143195
0.0637134
0.0640084
0.0392203
0.0360758
0.0865711
0.125681
0.152412
0.170627
0.180414
0.1847
0.185412
0.183842
0.180845
0.176981
0.172672
0.16832
0.164281
0.16086
0.158273
0.156633
0.155956
0.156154
0.157049
0.158442
0.160138
0.161951
0.16371
0.165268
0.166491
0.167281
0.167567
0.167314
0.166522
0.165236
0.16355
0.161604
0.159559
0.157589
0.155847
0.154439
0.153414
0.152757
0.152408
0.152278
0.152272
0.152314
0.152352
0.152357
0.152314
0.152216
0.152062
0.151853
0.151596
0.151293
0.150951
0.150578
0.150181
0.149767
0.149341
0.148911
0.148479
0.148045
0.147612
0.147187
0.146768
0.146356
0.145948
0.145535
0.145115
0.144681
0.144251
0.143826
0.143434
0.142928
0.075755
0.0700148
0.0441703
0.0476142
0.0954342
0.13065
0.155374
0.172535
0.181319
0.184755
0.184748
0.182537
0.178908
0.174361
0.169308
0.164222
0.15952
0.155557
0.152583
0.150735
0.15005
0.150452
0.151752
0.153736
0.156187
0.158888
0.161638
0.164256
0.16657
0.168437
0.169743
0.170405
0.170375
0.16965
0.168287
0.166404
0.164171
0.161795
0.159494
0.157459
0.15582
0.15463
0.153867
0.15345
0.153258
0.153181
0.153142
0.153093
0.153009
0.152878
0.152696
0.152464
0.152185
0.151863
0.151503
0.151112
0.150696
0.150262
0.149816
0.149357
0.148883
0.148395
0.147899
0.147403
0.14691
0.146422
0.145939
0.145458
0.144979
0.144496
0.14403
0.143582
0.143181
0.142688
0.0865414
0.0744224
0.051157
0.0622952
0.104436
0.135756
0.158289
0.174133
0.181754
0.184246
0.183458
0.180562
0.176277
0.171013
0.165168
0.159291
0.153857
0.149267
0.145794
0.143601
0.142746
0.143175
0.14471
0.147136
0.150228
0.153749
0.157474
0.161195
0.164706
0.16782
0.170381
0.172254
0.173331
0.173546
0.172893
0.171441
0.169328
0.166766
0.164011
0.161335
0.158973
0.15708
0.155722
0.154864
0.154378
0.154117
0.153966
0.153847
0.153719
0.153556
0.153352
0.153102
0.152807
0.15247
0.152095
0.151688
0.151255
0.150804
0.150337
0.149842
0.149318
0.14877
0.148206
0.147636
0.147065
0.1465
0.145943
0.145396
0.144862
0.144336
0.143837
0.143369
0.14296
0.142478
0.0945665
0.0778765
0.0625909
0.0790687
0.113684
0.141116
0.161258
0.175387
0.181625
0.183086
0.181493
0.177933
0.173092
0.167205
0.160663
0.154062
0.147922
0.142681
0.138629
0.135942
0.134706
0.1349
0.13638
0.138961
0.14243
0.146549
0.151079
0.1558
0.160485
0.164905
0.168866
0.172182
0.174684
0.176227
0.176725
0.176166
0.17462
0.172254
0.169323
0.166145
0.163053
0.160331
0.158181
0.156681
0.155743
0.155191
0.154864
0.154644
0.154457
0.154261
0.154035
0.153771
0.153466
0.153119
0.152733
0.152313
0.151864
0.151396
0.150904
0.150368
0.149792
0.149181
0.148547
0.147899
0.147249
0.146606
0.145977
0.145366
0.144778
0.144212
0.143683
0.143195
0.142775
0.142298
0.0992218
0.0838939
0.0787015
0.0966661
0.123592
0.146808
0.164318
0.176164
0.180821
0.181262
0.17899
0.174956
0.169923
0.163737
0.156798
0.149673
0.142926
0.137051
0.132353
0.129022
0.127163
0.126795
0.12783
0.130136
0.133543
0.13784
0.142796
0.148195
0.153825
0.159417
0.16475
0.169601
0.173739
0.176938
0.179015
0.179852
0.179416
0.177781
0.17514
0.171803
0.168157
0.1646
0.161504
0.159135
0.157528
0.15652
0.155908
0.155523
0.155247
0.155004
0.154755
0.154479
0.154167
0.153814
0.153421
0.152991
0.152527
0.152041
0.151519
0.150943
0.150315
0.149642
0.148936
0.148211
0.14748
0.146758
0.146055
0.145381
0.144742
0.144135
0.143575
0.143065
0.142629
0.14215
0.103971
0.0951598
0.0977075
0.113891
0.133923
0.152774
0.167376
0.176273
0.179368
0.17912
0.176674
0.172587
0.168204
0.162265
0.155239
0.147703
0.140354
0.133766
0.128306
0.124191
0.121525
0.12033
0.120559
0.122134
0.124946
0.128842
0.133637
0.139144
0.145211
0.151557
0.157967
0.164198
0.169975
0.174991
0.178963
0.181653
0.182892
0.182615
0.180896
0.177964
0.174182
0.170005
0.165947
0.162518
0.159986
0.158288
0.157219
0.156558
0.156129
0.155808
0.155523
0.155232
0.154915
0.154561
0.154165
0.153729
0.153252
0.152744
0.152193
0.151579
0.150901
0.150168
0.149392
0.148589
0.147776
0.146974
0.146196
0.145456
0.144763
0.144115
0.143521
0.142982
0.142525
0.142031
0.11285
0.110907
0.116963
0.129733
0.144175
0.15861
0.169586
0.175882
0.17802
0.178161
0.176917
0.173925
0.169708
0.163677
0.156146
0.147857
0.139711
0.132362
0.126203
0.121422
0.118066
0.116105
0.115475
0.116116
0.117973
0.12098
0.125048
0.130062
0.135868
0.142252
0.149092
0.156188
0.163272
0.169971
0.175916
0.180741
0.184127
0.185831
0.185751
0.183961
0.180715
0.176426
0.171655
0.167127
0.163442
0.160768
0.158991
0.157873
0.157176
0.156714
0.156361
0.156044
0.15572
0.155367
0.154973
0.154536
0.15405
0.153519
0.152938
0.15229
0.151568
0.150779
0.149934
0.149054
0.148159
0.147273
0.146416
0.145606
0.144855
0.144159
0.143526
0.142952
0.142462
0.141941
0.125884
0.127959
0.134229
0.143567
0.154431
0.165163
0.173306
0.178833
0.181508
0.182145
0.18118
0.178515
0.173872
0.166859
0.158078
0.148646
0.139586
0.131568
0.124938
0.119803
0.116112
0.113745
0.112573
0.112491
0.113439
0.115395
0.118356
0.122315
0.127228
0.133001
0.139516
0.146605
0.154223
0.162026
0.169626
0.176537
0.182288
0.186443
0.188672
0.188829
0.186977
0.183378
0.178501
0.173139
0.168231
0.164315
0.161513
0.159667
0.158513
0.157792
0.157309
0.156935
0.156594
0.15624
0.155853
0.15542
0.154932
0.154388
0.153777
0.153099
0.152337
0.151497
0.150589
0.149633
0.148653
0.147678
0.146735
0.145846
0.145028
0.144278
0.143596
0.142976
0.142443
0.141878
0.140782
0.144468
0.150222
0.158414
0.167901
0.176826
0.183177
0.187368
0.189546
0.189993
0.188622
0.184988
0.178454
0.169288
0.158719
0.14806
0.138278
0.129936
0.123254
0.118207
0.114638
0.112337
0.111101
0.110764
0.11122
0.112418
0.114366
0.117113
0.120727
0.125263
0.130742
0.137125
0.144335
0.152182
0.160591
0.169025
0.176916
0.183646
0.188622
0.191429
0.191863
0.189946
0.185921
0.18042
0.17456
0.169299
0.165164
0.162245
0.160346
0.159169
0.158437
0.157944
0.157557
0.157195
0.156815
0.156392
0.155912
0.155366
0.154742
0.154037
0.15324
0.152356
0.151388
0.150357
0.149288
0.148217
0.147177
0.146197
0.1453
0.144481
0.143738
0.143058
0.142468
0.141841
0.158789
0.16511
0.172736
0.180288
0.18725
0.192995
0.197149
0.199729
0.20065
0.199623
0.196115
0.18935
0.179446
0.167741
0.155648
0.144318
0.13449
0.1265
0.120375
0.115947
0.11296
0.111145
0.110258
0.1101
0.110529
0.111455
0.112844
0.114718
0.117156
0.120286
0.124262
0.129226
0.135264
0.142344
0.150345
0.159129
0.168305
0.177174
0.184876
0.190702
0.194132
0.194876
0.192858
0.188339
0.18229
0.17595
0.170343
0.166003
0.162985
0.161051
0.159868
0.159139
0.158648
0.158253
0.157875
0.157468
0.157005
0.156474
0.155855
0.155143
0.154325
0.1534
0.152375
0.151268
0.150104
0.148926
0.147773
0.146684
0.145687
0.144781
0.14396
0.143203
0.14254
0.141829
0.190073
0.194917
0.199751
0.204172
0.207887
0.210628
0.212128
0.212051
0.209948
0.205116
0.196788
0.185605
0.172778
0.15964
0.147331
0.13662
0.127887
0.121178
0.116325
0.113047
0.11104
0.110016
0.109737
0.110012
0.110699
0.111698
0.112949
0.114433
0.116175
0.118266
0.120863
0.124193
0.128515
0.134038
0.140851
0.148866
0.157847
0.167723
0.177436
0.186058
0.192737
0.196829
0.197886
0.195697
0.19071
0.184107
0.177285
0.171347
0.16683
0.163745
0.161805
0.160641
0.159933
0.159453
0.159058
0.158668
0.158234
0.157733
0.157142
0.156449
0.155635
0.154693
0.15362
0.152431
0.151161
0.149857
0.148567
0.147341
0.146216
0.145196
0.144273
0.143418
0.14266
0.141841
0.219821
0.221588
0.222984
0.223822
0.223834
0.222662
0.219807
0.214556
0.206544
0.195881
0.183323
0.169898
0.156673
0.144556
0.134162
0.125783
0.119424
0.1149
0.111925
0.110188
0.109399
0.109314