/*--------------------------------*- C++ -*----------------------------------*\
| =========                 |                                                 |
| \\      /  F ield         | OpenFOAM: The Open Source CFD Toolbox           |
|  \\    /   O peration     | Version:  5.x                                   |
|   \\  /    A nd           | Web:      www.OpenFOAM.org                      |
|    \\/     M anipulation  |                                                 |
\*---------------------------------------------------------------------------*/
FoamFile
{
    version     2.0;
    format      ascii;
    class       volScalarField;
    location    "200";
    object      nut;
}
// * * * * * * * * * * * * * * * * * * * * * * * * * * * * * * * * * * * * * //

dimensions      [0 2 -1 0 0 0 0];

internalField   nonuniform List<scalar> 
11040
(
0.0031262
0.00375913
0.00408119
0.00416373
0.00405903
0.0038606
0.00364486
0.00346817
0.00330935
0.00313474
0.00290046
0.00266771
0.00249114
0.00236617
0.00224772
0.0021305
0.00201432
0.00190295
0.00179638
0.00169261
0.00158949
0.00149787
0.00141619
0.00133489
0.00125279
0.00116879
0.0010819
0.000995116
0.000951602
0.000986922
0.000874509
0.000660738
0.000440327
0.000398592
0.000358239
0.000324624
0.000334448
0.000584903
0.000730867
0.000749269
0.000757965
0.00791288
0.00848039
0.00774943
0.0069973
0.0062439
0.00558877
0.00509122
0.00502259
0.00503633
0.00499152
0.00486687
0.0046913
0.00454501
0.00439443
0.00420996
0.00401836
0.00383874
0.00367628
0.00352973
0.00339654
0.0032751
0.00317417
0.00308724
0.00300632
0.00293106
0.00286008
0.00279208
0.00272844
0.00268682
0.002679
0.00261849
0.00251403
0.00235564
0.00220008
0.00200242
0.00176956
0.00166982
0.00180907
0.00221226
0.00285001
0.00327694
0.0161109
0.0169781
0.0159608
0.0146811
0.0132582
0.0118395
0.0105304
0.00937043
0.00837817
0.00752482
0.00673254
0.00614095
0.00601952
0.00597571
0.00590958
0.00582928
0.00573636
0.00563721
0.00553933
0.00544704
0.00536139
0.00529268
0.00523148
0.00517031
0.00510906
0.00504774
0.0049858
0.00492366
0.00486589
0.00481595
0.00475393
0.00467895
0.00458924
0.0045042
0.00439947
0.00419789
0.00406439
0.00431916
0.00482776
0.00546839
0.0062657
0.0254672
0.0264236
0.0253378
0.023693
0.0217622
0.0197642
0.017828
0.0159922
0.0142892
0.0127113
0.0111659
0.00982466
0.00883967
0.00810113
0.00777673
0.00763504
0.00753574
0.00746031
0.00740121
0.00735337
0.00731351
0.00728666
0.00726368
0.0072388
0.00721029
0.00717753
0.0071397
0.0070963
0.007048
0.00699575
0.00693604
0.00687078
0.00680587
0.00675691
0.00672394
0.00662877
0.00651692
0.00676185
0.00744282
0.00853978
0.00960235
0.0356266
0.0365589
0.0355039
0.0336607
0.031384
0.028912
0.026408
0.0239123
0.0215327
0.0192864
0.0170641
0.0150643
0.0134641
0.0121998
0.0111477
0.0102738
0.00976902
0.00952417
0.00938267
0.00929584
0.00924599
0.00922571
0.00921821
0.00921437
0.00921039
0.00920409
0.00919325
0.00917588
0.00915053
0.00911641
0.00907312
0.00902396
0.00897819
0.00895376
0.00897004
0.00897816
0.0089464
0.00918028
0.00998748
0.0114844
0.013291
0.0462022
0.047059
0.0460929
0.0442118
0.041769
0.0389333
0.035911
0.0328624
0.0299007
0.0270495
0.0241883
0.021534
0.019313
0.0175196
0.0159767
0.0146314
0.0135095
0.0125468
0.0119912
0.0116766
0.0114885
0.0113813
0.0113172
0.0112742
0.0112473
0.0112311
0.0112205
0.0112108
0.0111981
0.0111797
0.0111543
0.0111241
0.0110978
0.0110932
0.0111397
0.0112288
0.0113097
0.0115583
0.0123685
0.0139908
0.0167707
0.0568729
0.0576102
0.0567589
0.0549657
0.0524955
0.0495322
0.0462848
0.0429053
0.039525
0.0361852
0.0327691
0.0295077
0.0266763
0.0243066
0.022222
0.0203714
0.0187327
0.0172699
0.0160027
0.0150383
0.0144878
0.0141463
0.0139041
0.0137249
0.0135962
0.0134996
0.0134256
0.0133673
0.0133191
0.0132768
0.013238
0.0132032
0.0131785
0.0131783
0.0132311
0.0133589
0.0135375
0.0138312
0.0145597
0.0160382
0.0188896
0.0672839
0.067908
0.0671856
0.0655618
0.063219
0.0603476
0.0571197
0.0536573
0.0500871
0.0464572
0.0426603
0.0389256
0.0355621
0.0326423
0.030012
0.0276318
0.0254792
0.0235279
0.0217518
0.0201508
0.0187928
0.0179092
0.0173497
0.016945
0.0166316
0.016376
0.0161601
0.0159733
0.0158089
0.0156631
0.0155344
0.0154242
0.0153382
0.0152882
0.0152966
0.015396
0.0155985
0.0159236
0.0165505
0.017737
0.0200926
0.077195
0.0777017
0.0770989
0.0756841
0.0735816
0.0709564
0.0679384
0.064616
0.0610924
0.0574059
0.0534587
0.0494581
0.0457191
0.0423517
0.039245
0.0363775
0.0337365
0.0313041
0.0290586
0.0269785
0.0250534
0.0234955
0.0223787
0.0215562
0.0209261
0.020409
0.0199589
0.0195516
0.019175
0.0188233
0.0184957
0.0181956
0.0179313
0.0177164
0.0175707
0.0175258
0.0176153
0.0178639
0.0183543
0.0192237
0.0208726
0.0863669
0.0867679
0.0862744
0.0850804
0.0832721
0.0809811
0.0782992
0.0752817
0.0720026
0.0684604
0.0645862
0.0605507
0.0566461
0.0530113
0.0495997
0.0463745
0.0433381
0.0404904
0.037821
0.0353152
0.0329554
0.0309545
0.0293453
0.0280204
0.0269538
0.0260681
0.025297
0.0245961
0.0239384
0.0233089
0.0227014
0.0221167
0.0215625
0.0210536
0.0206104
0.0202648
0.0200577
0.0200284
0.0202339
0.020737
0.0217131
0.0946485
0.0949618
0.0945642
0.093581
0.0920742
0.0901457
0.0878586
0.0852245
0.082298
0.0790941
0.075529
0.0717201
0.0679093
0.0642303
0.0606599
0.0572231
0.0539348
0.0508134
0.0478316
0.0449843
0.0422659
0.0399321
0.0379751
0.0362196
0.0347235
0.0334519
0.0323372
0.0313232
0.0303707
0.0294537
0.0285565
0.0276716
0.0267999
0.0259499
0.0251363
0.0243881
0.0237457
0.0232507
0.0229623
0.0229349
0.023208
0.101974
0.102217
0.101898
0.101101
0.0998724
0.0982912
0.0964011
0.0941911
0.0917058
0.0889481
0.0858406
0.0824556
0.0789716
0.075495
0.0720143
0.0685702
0.0651948
0.0619136
0.0587385
0.0556733
0.0527207
0.0501528
0.0479524
0.0458834
0.043972
0.0423139
0.0408712
0.0395741
0.0383672
0.0372118
0.0360818
0.0349603
0.0338388
0.0327152
0.0315913
0.0304853
0.0294268
0.0284448
0.0275896
0.0269247
0.0263991
0.108348
0.10853
0.10827
0.107628
0.10664
0.105367
0.103839
0.10204
0.100003
0.0977258
0.0951409
0.0922868
0.0892697
0.0861753
0.0830018
0.0797953
0.0765716
0.0733568
0.0701739
0.0670397
0.0639657
0.061255
0.0589147
0.0566932
0.0545755
0.0525663
0.0506979
0.0490468
0.0475841
0.0462364
0.0449492
0.0436866
0.0424295
0.0411611
0.0398703
0.0385621
0.0372512
0.0359462
0.0346745
0.0334956
0.032263
0.113815
0.113941
0.113724
0.113208
0.11242
0.111407
0.110191
0.108755
0.107125
0.105298
0.10322
0.100894
0.0984088
0.09581
0.0930893
0.0902746
0.0873888
0.0844643
0.081503
0.0785201
0.0755311
0.0728445
0.0704905
0.0682356
0.0660673
0.0639745
0.0619502
0.060002
0.0581471
0.0564576
0.0549445
0.0535411
0.0521912
0.0508585
0.0495153
0.0481521
0.0467685
0.0453552
0.0439163
0.0424953
0.040879
0.11843
0.118518
0.11834
0.117927
0.117304
0.116503
0.115542
0.114408
0.113123
0.111683
0.110037
0.108202
0.106229
0.104142
0.101928
0.0995985
0.0971682
0.0946512
0.0920607
0.0894082
0.086713
0.0842434
0.0820322
0.0798846
0.0777987
0.0757766
0.0738039
0.0718718
0.0699747
0.0681183
0.0663144
0.0645834
0.0629942
0.0615357
0.0601427
0.0587732
0.0574058
0.0560149
0.0545884
0.0531509
0.0514828
0.122315
0.122373
0.122223
0.12189
0.121405
0.12077
0.120009
0.119117
0.11811
0.116986
0.115706
0.114285
0.112754
0.111125
0.109377
0.107523
0.10558
0.103541
0.101412
0.0991984
0.0969076
0.0947738
0.0928375
0.0909358
0.0890691
0.0872367
0.0854363
0.0836638
0.0819141
0.0801813
0.0784604
0.0767546
0.0750679
0.0734093
0.0717801
0.0702314
0.0687946
0.0674154
0.0660472
0.0646864
0.0631388
0.125571
0.125607
0.125479
0.12521
0.124822
0.124318
0.123718
0.123019
0.122233
0.12136
0.120372
0.119281
0.118108
0.116851
0.115506
0.114076
0.112564
0.11097
0.109304
0.107557
0.105728
0.104
0.102409
0.100832
0.0992715
0.0977258
0.0961949
0.0946779
0.0931727
0.0916765
0.0901857
0.0886964
0.0872048
0.0857072
0.084196
0.082679
0.0811705
0.0796664
0.0781669
0.0767376
0.0752194
0.12817
0.128192
0.128085
0.127866
0.127552
0.12715
0.126671
0.126122
0.125498
0.124807
0.124032
0.123181
0.122271
0.121298
0.12026
0.119159
0.117995
0.116768
0.115476
0.114119
0.112697
0.111341
0.110083
0.108829
0.107581
0.106339
0.105104
0.10388
0.10266
0.101443
0.100228
0.0990107
0.0977905
0.0965631
0.0953203
0.0940611
0.0927867
0.0914866
0.090159
0.0888192
0.0873895
0.13017
0.130184
0.130094
0.129913
0.129656
0.129332
0.128941
0.128493
0.127988
0.127431
0.126816
0.126138
0.125415
0.124645
0.123827
0.122963
0.122052
0.121095
0.120088
0.119032
0.117925
0.116864
0.115875
0.114888
0.113904
0.112924
0.111948
0.110975
0.110006
0.10904
0.108077
0.107115
0.10615
0.10518
0.1042
0.103208
0.102205
0.101182
0.100135
0.0990655
0.0979238
0.13174
0.131749
0.131673
0.131522
0.131307
0.131036
0.130712
0.13034
0.129929
0.129471
0.128967
0.128417
0.127832
0.127216
0.126559
0.125867
0.12514
0.124379
0.123582
0.122749
0.121878
0.121041
0.120259
0.11948
0.118703
0.11793
0.117161
0.116395
0.115633
0.114872
0.114114
0.113357
0.1126
0.111844
0.111083
0.110314
0.109541
0.108754
0.107951
0.107135
0.106276
0.133002
0.13301
0.132946
0.132818
0.132635
0.132405
0.132135
0.131822
0.131476
0.131093
0.130675
0.130224
0.129742
0.129236
0.1287
0.128137
0.127549
0.126936
0.126296
0.125629
0.124935
0.124267
0.123643
0.123021
0.122403
0.12179
0.121177
0.120569
0.119968
0.11937
0.118776
0.118184
0.117593
0.117006
0.116416
0.115823
0.115228
0.114626
0.114015
0.113397
0.112756
0.134038
0.134045
0.133991
0.133882
0.133725
0.133527
0.133295
0.133031
0.132737
0.132415
0.132062
0.131683
0.131281
0.13086
0.130419
0.129955
0.129472
0.12897
0.12845
0.127909
0.12735
0.126811
0.126307
0.125806
0.125307
0.124815
0.124325
0.123839
0.123358
0.122884
0.122416
0.12195
0.121488
0.12103
0.120573
0.120115
0.119657
0.119196
0.118731
0.118261
0.117782
0.134902
0.134909
0.134863
0.134768
0.134632
0.13446
0.134259
0.134031
0.133781
0.133505
0.133206
0.132884
0.132546
0.132191
0.13182
0.131435
0.131037
0.130622
0.130193
0.12975
0.129293
0.128853
0.128442
0.128035
0.12763
0.127232
0.126836
0.126445
0.126058
0.125677
0.125304
0.124936
0.124574
0.124214
0.123856
0.123499
0.123145
0.122789
0.122432
0.122074
0.121714
0.135632
0.135639
0.135599
0.135516
0.135397
0.135248
0.135072
0.134874
0.134656
0.134417
0.13416
0.133884
0.133595
0.133295
0.132981
0.132656
0.132321
0.131977
0.131622
0.131256
0.13088
0.130517
0.130178
0.129844
0.129514
0.129189
0.128867
0.12855
0.128237
0.127929
0.127627
0.127331
0.127042
0.126758
0.126476
0.126197
0.125921
0.125645
0.12537
0.125096
0.124825
0.136256
0.136262
0.136227
0.136154
0.13605
0.135919
0.135765
0.135591
0.1354
0.135194
0.134971
0.134734
0.134485
0.134226
0.133959
0.133685
0.133401
0.133109
0.132811
0.132505
0.132195
0.131894
0.131612
0.131334
0.131062
0.130793
0.130529
0.130269
0.130014
0.129764
0.129519
0.12928
0.129046
0.128817
0.128593
0.128373
0.128157
0.127942
0.127729
0.127518
0.12731
0.136792
0.136798
0.136768
0.136704
0.136613
0.136497
0.136361
0.136208
0.13604
0.135858
0.135665
0.135458
0.135244
0.13502
0.13479
0.134554
0.134312
0.134066
0.133813
0.133555
0.133294
0.133043
0.132808
0.132577
0.132349
0.132126
0.131907
0.131693
0.131483
0.131278
0.131078
0.130883
0.130693
0.130508
0.130327
0.13015
0.129978
0.12981
0.129644
0.12948
0.12932
0.137258
0.137264
0.137238
0.137182
0.137101
0.136999
0.136879
0.136743
0.136594
0.136434
0.136263
0.136083
0.135896
0.135702
0.135504
0.135301
0.135093
0.134881
0.134666
0.134449
0.134228
0.134016
0.133817
0.133623
0.133433
0.133246
0.133063
0.132885
0.132711
0.132541
0.132377
0.132217
0.132062
0.131911
0.131764
0.131621
0.131482
0.131347
0.131214
0.131085
0.130962
0.137664
0.137671
0.137649
0.1376
0.137528
0.137437
0.13733
0.137209
0.137077
0.136935
0.136783
0.136625
0.136461
0.136293
0.136121
0.135944
0.135765
0.135584
0.135399
0.135213
0.135026
0.134846
0.134677
0.134513
0.134351
0.134194
0.13404
0.133891
0.133746
0.133605
0.133469
0.133337
0.133209
0.133085
0.132965
0.132849
0.132737
0.132627
0.132521
0.132417
0.132319
0.138021
0.138029
0.13801
0.137967
0.137904
0.137822
0.137726
0.137618
0.1375
0.137374
0.13724
0.137099
0.136954
0.136806
0.136655
0.136501
0.136346
0.136189
0.13603
0.135871
0.135711
0.135557
0.135413
0.135272
0.135135
0.135002
0.134872
0.134746
0.134624
0.134507
0.134393
0.134284
0.134178
0.134076
0.133977
0.133882
0.13379
0.133702
0.133615
0.133532
0.133454
0.138337
0.138346
0.13833
0.138292
0.138235
0.138162
0.138076
0.137979
0.137874
0.137761
0.137641
0.137517
0.137388
0.137257
0.137124
0.136989
0.136853
0.136716
0.13658
0.136442
0.136305
0.136173
0.136048
0.135928
0.13581
0.135696
0.135586
0.13548
0.135377
0.135278
0.135183
0.135091
0.135003
0.134919
0.134837
0.134759
0.134684
0.134611
0.134541
0.134473
0.134411
0.138617
0.138627
0.138614
0.13858
0.138528
0.138463
0.138386
0.138299
0.138205
0.138104
0.137998
0.137887
0.137773
0.137657
0.137539
0.13742
0.137301
0.137181
0.137061
0.136942
0.136825
0.136711
0.136603
0.136499
0.136398
0.1363
0.136206
0.136115
0.136028
0.135944
0.135864
0.135787
0.135713
0.135643
0.135575
0.13551
0.135448
0.135389
0.135331
0.135276
0.135226
0.138866
0.138877
0.138866
0.138835
0.138789
0.13873
0.138662
0.138585
0.138501
0.138412
0.138317
0.138219
0.138118
0.138015
0.137911
0.137805
0.1377
0.137595
0.13749
0.137386
0.137284
0.137185
0.137091
0.137001
0.136914
0.13683
0.136749
0.136671
0.136597
0.136525
0.136457
0.136392
0.13633
0.136271
0.136215
0.136161
0.136109
0.13606
0.136013
0.135968
0.135927
0.139089
0.139101
0.139091
0.139063
0.139022
0.13897
0.138909
0.138842
0.138768
0.138689
0.138606
0.138518
0.138429
0.138338
0.138245
0.138152
0.138059
0.137967
0.137875
0.137784
0.137695
0.137608
0.137527
0.137448
0.137372
0.1373
0.13723
0.137163
0.137099
0.137039
0.136981
0.136926
0.136873
0.136823
0.136776
0.136731
0.136688
0.136647
0.136609
0.136572
0.136538
0.139289
0.139301
0.139291
0.139267
0.139231
0.139186
0.139134
0.139075
0.139011
0.138942
0.138869
0.138792
0.138713
0.138632
0.138551
0.138469
0.138386
0.138305
0.138224
0.138144
0.138066
0.137991
0.137919
0.137851
0.137785
0.137722
0.137662
0.137604
0.137549
0.137497
0.137447
0.1374
0.137356
0.137314
0.137274
0.137236
0.1372
0.137166
0.137134
0.137104
0.137077
0.139469
0.139479
0.139471
0.13945
0.13942
0.139383
0.139339
0.13929
0.139235
0.139176
0.139112
0.139045
0.138975
0.138904
0.138832
0.13876
0.138687
0.138615
0.138544
0.138474
0.138406
0.13834
0.138277
0.138217
0.13816
0.138105
0.138053
0.138003
0.137955
0.137911
0.137868
0.137828
0.13779
0.137754
0.13772
0.137689
0.137659
0.137631
0.137604
0.137579
0.137557
0.13963
0.139639
0.139631
0.139615
0.139593
0.139564
0.13953
0.13949
0.139444
0.139394
0.139339
0.139281
0.139221
0.139159
0.139096
0.139032
0.138968
0.138905
0.138842
0.138781
0.138721
0.138663
0.138609
0.138556
0.138506
0.138458
0.138412
0.138369
0.138328
0.138289
0.138253
0.138218
0.138186
0.138156
0.138127
0.1381
0.138075
0.138051
0.138029
0.138008
0.13799
0.139773
0.13978
0.139775
0.139765
0.139751
0.139732
0.139707
0.139676
0.13964
0.139599
0.139555
0.139506
0.139455
0.139403
0.139348
0.139293
0.139238
0.139183
0.139128
0.139074
0.139022
0.138972
0.138924
0.138878
0.138834
0.138792
0.138752
0.138715
0.138679
0.138646
0.138614
0.138585
0.138557
0.138531
0.138507
0.138484
0.138463
0.138443
0.138425
0.138408
0.138394
0.139897
0.139902
0.1399
0.139898
0.139892
0.139882
0.139866
0.139846
0.139821
0.139792
0.139759
0.139723
0.139685
0.139643
0.1396
0.139556
0.139511
0.139465
0.13942
0.139375
0.139331
0.139288
0.139247
0.139207
0.139169
0.139133
0.139099
0.139066
0.139036
0.139007
0.138981
0.138956
0.138934
0.138913
0.138894
0.138877
0.138862
0.138848
0.138836
0.138826
0.138818
0.139988
0.139993
0.139995
0.139996
0.139995
0.139991
0.139984
0.139974
0.139963
0.139948
0.139931
0.139912
0.139891
0.139868
0.139844
0.139817
0.13979
0.139763
0.139735
0.139707
0.13968
0.139653
0.139625
0.139599
0.139574
0.139549
0.139525
0.139503
0.139482
0.139463
0.139446
0.13943
0.139415
0.139402
0.13939
0.13938
0.139371
0.139363
0.139357
0.139352
0.139347
0.140033
0.140037
0.14004
0.140042
0.140043
0.140042
0.14004
0.140037
0.140032
0.140026
0.140019
0.14001
0.140001
0.13999
0.139979
0.139967
0.139954
0.139941
0.139928
0.139914
0.139901
0.139888
0.139875
0.139862
0.13985
0.139837
0.139825
0.139814
0.139803
0.139794
0.139784
0.139776
0.139769
0.139762
0.139756
0.139751
0.139746
0.139742
0.139739
0.139737
0.139735
0.140056
0.14006
0.140064
0.140067
0.140069
0.14007
0.140071
0.140071
0.14007
0.140068
0.140066
0.140063
0.140059
0.140055
0.14005
0.140045
0.140039
0.140033
0.140027
0.140021
0.140015
0.140009
0.140003
0.139997
0.139991
0.139986
0.13998
0.139975
0.13997
0.139965
0.139961
0.139957
0.139953
0.13995
0.139947
0.139945
0.139943
0.139941
0.139939
0.139938
0.139937
0.140067
0.140071
0.140075
0.140078
0.140081
0.140084
0.140086
0.140088
0.14009
0.140092
0.140092
0.140093
0.140093
0.140092
0.140091
0.14009
0.140088
0.140087
0.140085
0.140082
0.14008
0.140078
0.140076
0.140073
0.140071
0.140068
0.140066
0.140064
0.140062
0.14006
0.140058
0.140056
0.140055
0.140053
0.140052
0.140051
0.14005
0.140049
0.140049
0.140049
0.140048
0.14007
0.140074
0.140078
0.140081
0.140085
0.140089
0.140092
0.140096
0.140099
0.140102
0.140105
0.140108
0.14011
0.140112
0.140114
0.140115
0.140117
0.140117
0.140118
0.140118
0.140119
0.140119
0.140119
0.140119
0.140118
0.140118
0.140118
0.140117
0.140117
0.140117
0.140116
0.140116
0.140116
0.140115
0.140115
0.140115
0.140115
0.140115
0.140115
0.140115
0.140115
0.140067
0.140071
0.140074
0.140078
0.140082
0.140086
0.14009
0.140095
0.140099
0.140104
0.140108
0.140112
0.140116
0.14012
0.140123
0.140127
0.14013
0.140132
0.140135
0.140137
0.140139
0.140141
0.140143
0.140144
0.140146
0.140147
0.140148
0.140149
0.140149
0.14015
0.140151
0.140151
0.140152
0.140153
0.140153
0.140154
0.140154
0.140154
0.140155
0.140155
0.140156
0.140059
0.140062
0.140065
0.140069
0.140073
0.140077
0.140082
0.140086
0.140091
0.140096
0.140101
0.140106
0.140111
0.140116
0.14012
0.140125
0.140129
0.140133
0.140137
0.14014
0.140144
0.140147
0.14015
0.140153
0.140155
0.140157
0.140159
0.140161
0.140163
0.140165
0.140166
0.140167
0.140168
0.140169
0.14017
0.140171
0.140172
0.140173
0.140174
0.140174
0.140175
0.140047
0.140049
0.140052
0.140055
0.140058
0.140062
0.140066
0.140071
0.140075
0.14008
0.140085
0.14009
0.140094
0.140099
0.140104
0.140109
0.140114
0.140118
0.140123
0.140127
0.140132
0.140136
0.140139
0.140143
0.140146
0.140149
0.140152
0.140155
0.140157
0.14016
0.140162
0.140164
0.140165
0.140167
0.140168
0.14017
0.140171
0.140172
0.140173
0.140173
0.140174
0.140031
0.140032
0.140034
0.140036
0.140039
0.140042
0.140045
0.140048
0.140051
0.140055
0.140058
0.140062
0.140066
0.140069
0.140072
0.140076
0.140079
0.140082
0.140085
0.140089
0.140092
0.140096
0.1401
0.140104
0.140108
0.140111
0.140115
0.140118
0.140122
0.140125
0.140128
0.14013
0.140133
0.140135
0.140137
0.140139
0.140141
0.140143
0.140144
0.140145
0.140146
0.140011
0.140012
0.140012
0.140013
0.140014
0.140015
0.140016
0.140018
0.140019
0.14002
0.140022
0.140023
0.140024
0.140024
0.140024
0.140024
0.140022
0.14002
0.140007
0.140002
0.139999
0.139997
0.139996
0.139995
0.139994
0.139994
0.139994
0.139994
0.139994
0.139995
0.139995
0.139996
0.139997
0.139997
0.139998
0.139998
0.139998
0.139998
0.139998
0.139998
0.139998
0.00366332
0.004506
0.00519993
0.00650749
0.00840525
0.0106736
0.0131698
0.0158279
0.018604
0.0214817
0.0244447
0.0274783
0.0305741
0.0337277
0.0369293
0.0401692
0.043439
0.0467319
0.0500399
0.0533538
0.0566643
0.0599627
0.063241
0.0664916
0.0697108
0.0729014
0.0760708
0.0792229
0.0823499
0.0854298
0.0884334
0.091334
0.0941155
0.0967723
0.0993107
0.101746
0.104077
0.106289
0.108379
0.110352
0.112213
0.113968
0.115621
0.117176
0.11864
0.120016
0.121309
0.122524
0.123665
0.124737
0.125745
0.126694
0.127588
0.128432
0.129231
0.129989
0.13071
0.131398
0.132056
0.132683
0.133276
0.133836
0.134358
0.13485
0.135315
0.135759
0.136184
0.136592
0.136986
0.13737
0.137741
0.138111
0.138425
0.138944
0.00774459
0.00830641
0.00779309
0.00764697
0.00843225
0.0100602
0.0122251
0.0147032
0.0173747
0.020186
0.0231068
0.0261151
0.0291968
0.032344
0.0355461
0.0387917
0.0420717
0.04538
0.0487075
0.0520443
0.0553803
0.0587069
0.0620158
0.0652991
0.0685528
0.07178
0.0749894
0.0781865
0.081364
0.0844994
0.0875611
0.09052
0.0933578
0.0960672
0.0986533
0.101131
0.103501
0.10575
0.107874
0.109877
0.111766
0.113546
0.115222
0.116801
0.118286
0.119683
0.120995
0.122229
0.123388
0.124477
0.125501
0.126466
0.127374
0.128231
0.129043
0.129813
0.130547
0.131247
0.131917
0.132554
0.133158
0.133725
0.134255
0.134754
0.135226
0.135676
0.136106
0.136519
0.136918
0.137304
0.137679
0.138051
0.138368
0.138895
0.0118132
0.013038
0.0123424
0.0111444
0.0104229
0.0106676
0.0118838
0.0138105
0.0161763
0.0188113
0.021626
0.0245705
0.0276148
0.0307417
0.0339366
0.0371855
0.0404766
0.0438013
0.0471503
0.0505128
0.0538786
0.0572385
0.0605838
0.0639062
0.0672009
0.0704706
0.0737247
0.0769704
0.0802024
0.0833984
0.0865255
0.0895519
0.0924563
0.095229
0.0978734
0.100403
0.102819
0.105114
0.10728
0.109322
0.111245
0.113058
0.114765
0.116372
0.117884
0.119306
0.120642
0.121899
0.12308
0.124191
0.125234
0.126215
0.127139
0.128011
0.128837
0.129621
0.130369
0.131083
0.131767
0.132417
0.13303
0.133605
0.134143
0.134649
0.135129
0.135586
0.136022
0.13644
0.136843
0.137233
0.137611
0.137987
0.138306
0.13884
0.0145712
0.017064
0.0171657
0.0160283
0.0145753
0.0135018
0.0132539
0.0139676
0.01551
0.0176419
0.0201578
0.0229238
0.0258612
0.028925
0.0320862
0.0353226
0.0386163
0.0419544
0.0453253
0.0487169
0.0521177
0.0555172
0.0589058
0.0622747
0.0656179
0.0689371
0.0722418
0.0755408
0.0788316
0.0820937
0.0852938
0.0883976
0.0913802
0.0942289
0.0969444
0.0995373
0.102011
0.10436
0.106579
0.108669
0.110637
0.11249
0.114236
0.115878
0.117424
0.118878
0.120245
0.12153
0.122737
0.123871
0.124936
0.125936
0.126878
0.127767
0.128609
0.12941
0.130175
0.130906
0.131605
0.132267
0.132889
0.133473
0.13402
0.134535
0.135023
0.135487
0.13593
0.136354
0.136762
0.137156
0.137537
0.137917
0.138238
0.13878
0.0163441
0.0199797
0.0210966
0.020739
0.0195712
0.0181266
0.016882
0.0162337
0.0164152
0.0174495
0.0191999
0.0214745
0.0241076
0.0269852
0.030035
0.0332097
0.0364758
0.0398097
0.0431933
0.0466107
0.0500475
0.0534908
0.0569295
0.0603531
0.0637541
0.0671321
0.0704955
0.0738546
0.07721
0.0805446
0.0838258
0.0870174
0.090091
0.0930302
0.0958317
0.0985033
0.101049
0.103465
0.105747
0.107897
0.109921
0.111826
0.11362
0.115308
0.116897
0.11839
0.119794
0.121112
0.12235
0.123511
0.1246
0.125623
0.126585
0.127493
0.128355
0.129177
0.129961
0.130712
0.131426
0.1321
0.132734
0.133328
0.133885
0.13441
0.134907
0.135379
0.135829
0.136259
0.136673
0.137072
0.137457
0.13784
0.138164
0.138713
0.0185875
0.0219498
0.02368
0.0242519
0.0239436
0.0230151
0.0217593
0.0205088
0.0195975
0.0193001
0.0197667
0.0209972
0.0228775
0.0252518
0.0279795
0.0309551
0.0341048
0.037378
0.0407393
0.0441619
0.0476242
0.0511082
0.0545988
0.0580829
0.0615501
0.0649968
0.0684288
0.0718565
0.075284
0.0786987
0.082071
0.0853633
0.0885422
0.0915877
0.0944926
0.0972608
0.099896
0.102396
0.104757
0.106981
0.109075
0.111045
0.112899
0.114644
0.116285
0.117827
0.119274
0.120632
0.121906
0.1231
0.124218
0.125267
0.126253
0.127185
0.128071
0.128916
0.129725
0.130496
0.131226
0.131915
0.132561
0.133167
0.133735
0.134271
0.134778
0.135259
0.135717
0.136155
0.136575
0.136979
0.137369
0.137756
0.138084
0.138641
0.0216232
0.0237054
0.0251416
0.026242
0.02682
0.026805
0.0262493
0.0253197
0.0242318
0.0232398
0.0226069
0.0225511
0.023193
0.0245364
0.0264937
0.0289359
0.0317364
0.0347922
0.0380278
0.0413886
0.0448345
0.0483347
0.051865
0.0554062
0.0589425
0.0624652
0.0659751
0.0694808
0.0729885
0.0764913
0.0799645
0.0833708
0.0866735
0.0898458
0.0928741
0.0957596
0.0985051
0.101109
0.103568
0.105885
0.108066
0.110117
0.112047
0.113861
0.115566
0.117167
0.118668
0.120075
0.121393
0.122626
0.123779
0.124859
0.125874
0.126834
0.127747
0.128621
0.129459
0.130253
0.131001
0.131706
0.132368
0.132987
0.133569
0.134117
0.134635
0.135127
0.135594
0.13604
0.136467
0.136878
0.137273
0.137665
0.137996
0.13856
0.0230155
0.0252441
0.0267006
0.0273534
0.0282289
0.0289077
0.0291806
0.0290594
0.0285613
0.0277938
0.0269311
0.0261837
0.025771
0.0258805
0.0266256
0.0280252
0.0300176
0.0324953
0.035343
0.0384595
0.0417654
0.0452004
0.0487191
0.0522872
0.0558778
0.0594726
0.0630638
0.066654
0.0702493
0.0738472
0.0774292
0.0809616
0.0844053
0.0877272
0.0909064
0.0939367
0.0968175
0.0995489
0.10213
0.104563
0.106851
0.109003
0.111026
0.112927
0.114711
0.116385
0.117953
0.11942
0.120791
0.122073
0.123269
0.124387
0.125437
0.126431
0.127377
0.128286
0.129156
0.129975
0.130746
0.13147
0.132149
0.132785
0.133382
0.133944
0.134475
0.134979
0.135457
0.135912
0.136348
0.136766
0.137167
0.137565
0.137899
0.138472
0.023255
0.0255065
0.027456
0.028817
0.0296974
0.0301134
0.030544
0.0310421
0.0312632
0.0311958
0.0308713
0.0303442
0.0297356
0.0292202
0.0289912
0.0292202
0.0300226
0.0314362
0.0334253
0.035905
0.0387713
0.0419249
0.0452818
0.0487759
0.0523564
0.0559854
0.059639
0.0633073
0.0669896
0.0706845
0.0743792
0.0780451
0.0816435
0.0851361
0.0884938
0.0917013
0.0947525
0.0976454
0.100378
0.102951
0.105374
0.10765
0.109789
0.111797
0.113681
0.115446
0.117097
0.118639
0.120079
0.121421
0.122671
0.123837
0.12493
0.125964
0.126948
0.127899
0.128805
0.129655
0.130453
0.131201
0.131901
0.132557
0.133172
0.13375
0.134296
0.134813
0.135303
0.13577
0.136215
0.136641
0.13705
0.137454
0.137794
0.138375
0.0233041
0.0250534
0.0269412
0.0287754
0.0303656
0.0315194
0.0322327
0.0326194
0.0326185
0.0328812
0.0331764
0.0332706
0.0331506
0.0328726
0.0325264
0.0322439
0.0321873
0.0325157
0.0333495
0.034747
0.0366998
0.0391473
0.0420001
0.0451626
0.0485482
0.0520852
0.0557196
0.0594166
0.0631576
0.0669332
0.0707309
0.0745267
0.0782843
0.0819619
0.0855222
0.0889393
0.0921986
0.0952931
0.098218
0.100973
0.10356
0.105991
0.108274
0.110417
0.112424
0.114304
0.116059
0.117697
0.119222
0.120642
0.121961
0.123187
0.124334
0.125417
0.126447
0.127445
0.128394
0.129283
0.130114
0.13089
0.131617
0.132296
0.132932
0.13353
0.134093
0.134626
0.13513
0.13561
0.136066
0.136503
0.136919
0.137332
0.137677
0.138268
0.0241525
0.0252956
0.0266196
0.0280998
0.0296875
0.0312812
0.0327298
0.0338909
0.0346245
0.0350254
0.0351824
0.0350522
0.0351204
0.035278
0.0353558
0.0353159
0.0352167
0.0351609
0.0352778
0.0357062
0.0365662
0.0379334
0.0398262
0.0422107
0.0450164
0.0481568
0.0515464
0.0551135
0.0588064
0.062591
0.066443
0.0703356
0.0742331
0.0780913
0.0818653
0.0855171
0.0890204
0.0923589
0.0955226
0.0985067
0.10131
0.10394
0.1064
0.108709
0.110872
0.112895
0.114783
0.116542
0.118178
0.119697
0.121105
0.12241
0.123625
0.124768
0.125853
0.126906
0.127908
0.128844
0.129716
0.130529
0.131287
0.131995
0.132657
0.133278
0.133862
0.134413
0.134935
0.135429
0.135899
0.136348
0.136775
0.137196
0.137548
0.13815
0.0268146
0.0274921
0.0282897
0.0291785
0.0301728
0.0312925
0.0325344
0.0338516
0.0351393
0.0362724
0.0371484
0.0376659
0.0378858
0.0378858
0.0376654
0.0375329
0.0375688
0.0376628
0.0377583
0.0379008
0.0381842
0.0387206
0.039618
0.040959
0.0427837
0.0450844
0.0478144
0.0509033
0.0542765
0.057868
0.0616258
0.065506
0.0694647
0.073452
0.0774143
0.0813002
0.0850676
0.0886857
0.0921336
0.0953984
0.0984735
0.101358
0.104057
0.106579
0.108934
0.111138
0.113193
0.115107
0.116885
0.118533
0.120057
0.121465
0.122769
0.12399
0.125143
0.126258
0.127324
0.12832
0.129245
0.130103
0.130902
0.131645
0.132339
0.132987
0.133597
0.13417
0.134712
0.135224
0.13571
0.136173
0.136612
0.137044
0.137405
0.13802
0.0322365
0.0325512
0.0329534
0.0333875
0.0338476
0.034348
0.0349156
0.035582
0.0363692
0.0372703
0.0382414
0.0391978
0.0400361
0.0406668
0.0410064
0.0410661
0.0409139
0.0405888
0.0402333
0.0401277
0.040225
0.0404635
0.0408637
0.0414941
0.0424378
0.0437686
0.0455347
0.0477488
0.0503891
0.0534093
0.0567523
0.0603595
0.0641725
0.0681303
0.0721678
0.076218
0.080219
0.0841187
0.0878773
0.0914664
0.0948675
0.0980704
0.101073
0.103877
0.106491
0.108923
0.111189
0.113299
0.115259
0.117074
0.118751
0.120294
0.121717
0.123039
0.124281
0.125471
0.126613
0.127685
0.128677
0.129595
0.130444
0.131233
0.131966
0.132649
0.133289
0.13389
0.134456
0.13499
0.135495
0.135975
0.136429
0.136874
0.137246
0.137875
0.0405294
0.04056
0.0406581
0.040762
0.0408557
0.0409371
0.0410124
0.0410963
0.0412132
0.0413948
0.0416727
0.0420679
0.042577
0.0431659
0.0437693
0.0442999
0.0446731
0.0448149
0.04469
0.0443562
0.0438909
0.0433081
0.0430138
0.0430594
0.0434045
0.0440368
0.0449884
0.0463049
0.0480243
0.050165
0.052723
0.0556743
0.058979
0.0625844
0.0664255
0.0704277
0.0745117
0.0786011
0.0826292
0.0865416
0.0902977
0.0938689
0.0972383
0.100397
0.103347
0.106089
0.108637
0.110996
0.113186
0.115216
0.117091
0.118815
0.120398
0.121858
0.123216
0.124502
0.125738
0.126902
0.127981
0.128976
0.129893
0.130739
0.131523
0.132251
0.132929
0.133564
0.13416
0.13472
0.135249
0.135749
0.136222
0.136683
0.137067
0.137714
0.0509448
0.0507748
0.0506553
0.0505307
0.0503855
0.0502137
0.0500122
0.0497807
0.0495228
0.0492479
0.0489728
0.0487227
0.0485281
0.0484194
0.0484187
0.048529
0.048728
0.0489665
0.0491714
0.0492605
0.0491678
0.0488258
0.048277
0.0476095
0.0468953
0.0463459
0.0462393
0.0465905
0.0473725
0.0485791
0.0502144
0.0522803
0.05477
0.0576651
0.0609322
0.0645209
0.0683637
0.0723806
0.0764866
0.0806004
0.0846508
0.0885795
0.0923432
0.0959115
0.0992674
0.102402
0.105319
0.108019
0.110519
0.112821
0.114949
0.11691
0.118707
0.120355
0.121875
0.123294
0.124642
0.125923
0.127114
0.12821
0.129216
0.130139
0.130989
0.131774
0.132502
0.13318
0.133813
0.134406
0.134964
0.13549
0.135985
0.136466
0.136866
0.137534
0.0625105
0.0622112
0.0619489
0.0616779
0.0613862
0.0610683
0.0607201
0.0603376
0.0599176
0.0594577
0.058958
0.0584216
0.0578574
0.0572808
0.0567144
0.0561863
0.0557258
0.0553567
0.0550891
0.0549111
0.0547871
0.0546572
0.0544446
0.0540813
0.0535133
0.0527366
0.0518352
0.0509292
0.050094
0.0497441
0.0499899
0.0508196
0.0521997
0.054099
0.0564848
0.0593185
0.0625519
0.0661245
0.0699629
0.0739843
0.0781023