/*--------------------------------*- C++ -*----------------------------------*\
| =========                 |                                                 |
| \\      /  F ield         | OpenFOAM: The Open Source CFD Toolbox           |
|  \\    /   O peration     | Version:  5.x                                   |
|   \\  /    A nd           | Web:      www.OpenFOAM.org                      |
|    \\/     M anipulation  |                                                 |
\*---------------------------------------------------------------------------*/
FoamFile
{
    version     2.0;
    format      ascii;
    class       volScalarField;
    location    "200";
    object      nuTilda;
}
// * * * * * * * * * * * * * * * * * * * * * * * * * * * * * * * * * * * * * //

dimensions      [0 2 -1 0 0 0 0];

internalField   nonuniform List<scalar> 
11040
(
0.00326932
0.00385138
0.00414155
0.00418871
0.00402039
0.00376191
0.00353812
0.00334555
0.00314749
0.00292056
0.00263441
0.00236308
0.00215101
0.00198612
0.00181818
0.00163612
0.00142514
0.00104181
0.000764562
0.000619714
0.000534464
0.000452602
0.000391069
0.000417327
0.000516016
0.000523153
0.000472184
0.000410745
0.000396435
0.000396124
0.000404484
0.000421269
0.000446774
0.000479011
0.000511964
0.000528658
0.000497416
0.000434786
0.000427874
0.000513409
0.000874715
0.00770162
0.0082236
0.00747877
0.00670716
0.00597692
0.00532033
0.00521048
0.00523789
0.00520722
0.00507575
0.00488182
0.00472891
0.00461997
0.0044989
0.00432245
0.00412403
0.00391951
0.00367042
0.00341761
0.00320871
0.00290743
0.00248709
0.00207663
0.00185786
0.00163017
0.00142851
0.00126508
0.00111967
0.00101899
0.000944524
0.000908063
0.000909357
0.000952863
0.00104135
0.00117768
0.00135816
0.00157022
0.00179747
0.00207991
0.00267015
0.00424365
0.0157108
0.0165057
0.0154321
0.0141098
0.0126377
0.0111791
0.00986705
0.0087364
0.00779569
0.00697416
0.00640103
0.00621916
0.00615384
0.00614363
0.00611159
0.00603909
0.0059259
0.00577092
0.00558891
0.00540911
0.00520469
0.00499692
0.00475994
0.00438727
0.00385813
0.00338599
0.00303605
0.00272886
0.0025078
0.00233397
0.00222884
0.00221028
0.0022918
0.00248174
0.00278167
0.00318411
0.00366643
0.00418998
0.00476493
0.0058062
0.00869439
0.0248757
0.0257367
0.0245649
0.0228461
0.0208508
0.018794
0.0168024
0.0149229
0.0131954
0.0116042
0.0100921
0.00885079
0.00810287
0.00784594
0.007734
0.00766765
0.00760513
0.00752251
0.0074115
0.00728871
0.00717642
0.00712317
0.00709398
0.006997
0.00675605
0.00631727
0.0057155
0.00515637
0.00475748
0.00443719
0.0042256
0.00415713
0.00425969
0.00455453
0.00504902
0.0057294
0.00655114
0.00745028
0.00841096
0.0099651
0.0140382
0.0348687
0.0356815
0.0345102
0.03256
0.0301862
0.0276315
0.0250579
0.0225055
0.0200769
0.0177859
0.0155268
0.013492
0.0118823
0.0106526
0.00996483
0.00957497
0.00933401
0.00916929
0.00903966
0.0089357
0.00888505
0.0089475
0.00911152
0.00930367
0.00940895
0.00933182
0.00904105
0.00858009
0.00802929
0.00751013
0.00713718
0.00697273
0.00706412
0.00745265
0.00815852
0.00916451
0.0103852
0.0117231
0.0131058
0.0151512
0.0200526
0.0453099
0.0460282
0.0449202
0.0429018
0.0403285
0.0373802
0.0342643
0.0311335
0.0280977
0.0251775
0.0222526
0.0195263
0.0172166
0.0153029
0.0136918
0.0123862
0.0116788
0.0111929
0.0108254
0.01056
0.0104321
0.0105041
0.0107831
0.0112255
0.0116979
0.0120456
0.0121717
0.0120667
0.0117826
0.0114061
0.011054
0.010865
0.0109677
0.0114411
0.0123472
0.0137038
0.0153581
0.0171737
0.0189559
0.0213725
0.0266384
0.0558872
0.0564736
0.0554617
0.0535074
0.0508787
0.0477686
0.0443841
0.0408779
0.0373804
0.0339321
0.0304165
0.0270512
0.0240938
0.0215603
0.0192766
0.0172007
0.0153797
0.0141966
0.0133307
0.0126417
0.0121583
0.0119883
0.0121674
0.0126906
0.0134564
0.0142596
0.0149011
0.0152811
0.0154079
0.0153569
0.0152532
0.0152741
0.015629
0.0164791
0.0178578
0.0196519
0.0217326
0.0240369
0.0261181
0.0286991
0.0337109
0.0662507
0.0667179
0.065825
0.0640253
0.0615027
0.058453
0.0550465
0.0514099
0.0476707
0.0438782
0.0399268
0.0360374
0.032502
0.0293774
0.0264994
0.023815
0.0212748
0.0189487
0.0172442
0.0158717
0.0147301
0.0139738
0.0136883
0.0139023
0.0146284
0.0157196
0.0168987
0.0179046
0.0186177
0.0190581
0.0193397
0.0196664
0.0203278
0.0216159
0.0236969
0.0265086
0.0296846
0.0326201
0.0348317
0.0372635
0.0414292
0.0761598
0.0765111
0.0757371
0.0741411
0.0718471
0.0690229
0.0657974
0.0622606
0.0585199
0.054616
0.0504522
0.0462327
0.0422617
0.0386346
0.0352282
0.0320052
0.0289239
0.0259173
0.0231535
0.0209099
0.0189432
0.0173715
0.0162872
0.0157057
0.0157794
0.0165565
0.0178952
0.019472
0.0209387
0.0221066
0.0229897
0.0237633
0.0247458
0.0263509
0.0289297
0.0325585
0.0369625
0.0415287
0.0452646
0.0473134
0.0503788
0.0853713
0.085624
0.0849661
0.0835951
0.0815952
0.0790982
0.0761948
0.072939
0.0694101
0.0656098
0.0614663
0.0571506
0.0529512
0.0489947
0.0452191
0.0415781
0.0380524
0.0345952
0.0311748
0.0280754
0.025295
0.0229246
0.0209844
0.0193827
0.0183179
0.0179965
0.0185401
0.0198871
0.0217546
0.0237352
0.0255095
0.0270208
0.0284979
0.0303892
0.0332181
0.0373078
0.0425673
0.0484952
0.0542351
0.0586927
0.0611099
0.0937245
0.0939005
0.0933514
0.0922036
0.0905155
0.0883874
0.0858805
0.0830056
0.0798184
0.0763336
0.0724633
0.0683266
0.0641663
0.0601088
0.0561196
0.0522113
0.0483812
0.044617
0.0408366
0.0371461
0.0337367
0.0307737
0.0281999
0.0257726
0.0236161
0.0219335
0.0209639
0.0209089
0.0218387
0.0236179
0.0259152
0.0283391
0.0306718
0.0330715
0.036059
0.0402123
0.0457661
0.0524588
0.0595931
0.06617
0.0711929
0.101141
0.101261
0.100808
0.0998641
0.0984722
0.0967084
0.0946138
0.092176
0.0894368
0.0863979
0.0829759
0.0792426
0.0753792
0.0714877
0.0675466
0.063588
0.05963
0.0556785
0.0517082
0.0476798
0.043814
0.0404944
0.0375826
0.0347247
0.0319357
0.029308
0.0270091
0.0252671
0.0243248
0.0243679
0.0254477
0.0274368
0.0300672
0.033085
0.0364802
0.0405943
0.0459089
0.052626
0.0603784
0.0683209
0.0754278
0.107615
0.10769
0.107316
0.106547
0.105417
0.103984
0.102276
0.100273
0.0980066
0.0954693
0.0925868
0.0893952
0.0860035
0.0824927
0.0788509
0.0751159
0.0712939
0.0673958
0.0634239
0.0593527
0.0551924
0.0514926
0.0483848
0.0454049
0.0424535
0.0395074
0.0366089
0.0338659
0.0314514
0.0295861
0.0284971
0.028362
0.029255
0.0311333
0.0339057
0.0375563
0.0422505
0.0482793
0.0557082
0.0640892
0.0725818
0.113182
0.113218
0.112905
0.112283
0.111376
0.110227
0.108857
0.107247
0.105421
0.103369
0.101031
0.0984052
0.0955804
0.0925976
0.0894387
0.0861249
0.0826697
0.079091
0.0753759
0.0715172
0.0674942
0.0637393
0.0603674
0.0571984
0.0542257
0.0513165
0.0484002
0.0454662
0.0425558
0.039764
0.0372384
0.035167
0.0337473
0.0331476
0.0334839
0.0348288
0.0372613
0.0409607
0.0461694
0.0530061
0.0612487
0.117892
0.117906
0.117648
0.117146
0.116424
0.115511
0.114423
0.113147
0.111699
0.110074
0.108214
0.10613
0.103872
0.101458
0.0988658
0.0961019
0.0931711
0.0900768
0.0868184
0.083391
0.0797877
0.0763642
0.0731902
0.0700287
0.0669158
0.063944
0.0611295
0.0583654
0.0555886
0.052784
0.0499756
0.0472274
0.0446446
0.0423638
0.0405323
0.0393028
0.0388096
0.0391856
0.0406096
0.0432999
0.0475925
0.121862
0.121858
0.121642
0.121236
0.120669
0.119942
0.11908
0.118073
0.116936
0.115665
0.114215
0.112596
0.110838
0.108949
0.106899
0.104696
0.102346
0.0998359
0.0971587
0.0943069
0.091271
0.0883557
0.085627
0.0828615
0.0800639
0.0772583
0.0744764
0.0717317
0.0690776
0.0665041
0.0639527
0.0613937
0.0588196
0.0562542
0.053744
0.0513755
0.0492533
0.0474705
0.046143
0.045402
0.0454536
0.12519
0.125173
0.12499
0.12466
0.124205
0.123627
0.122946
0.122156
0.121268
0.12028
0.119161
0.117918
0.116571
0.115116
0.113541
0.111846
0.110026
0.108075
0.105992
0.103759
0.101362
0.0990358
0.0968382
0.0946003
0.0923221
0.090003
0.0876471
0.0852629
0.0828679
0.0804784
0.0780995
0.0757304
0.0733728
0.0710393
0.0687389
0.0664606
0.0642025
0.0619699
0.0598028
0.0577714
0.055841
0.127844
0.127822
0.127667
0.127396
0.127027
0.126563
0.126017
0.125395
0.12469
0.12391
0.123034
0.122068
0.121028
0.119908
0.1187
0.117403
0.116014
0.114526
0.112933
0.111226
0.109395
0.107609
0.105913
0.104181
0.102417
0.100619
0.0987862
0.0969217
0.0950223
0.0930906
0.0911316
0.0891504
0.0871514
0.0851375
0.0831058
0.0810608
0.0790058
0.0769253
0.0748109
0.0727779
0.0706857
0.129886
0.12986
0.129728
0.129503
0.129198
0.128824
0.128378
0.12787
0.1273
0.126671
0.125975
0.125208
0.124385
0.123502
0.122557
0.121547
0.12047
0.119322
0.118098
0.11679
0.115393
0.114027
0.112728
0.111404
0.110058
0.108689
0.107296
0.105879
0.104437
0.102969
0.101477
0.0999584
0.0984134
0.096842
0.0952381
0.0936045
0.0919456
0.0902492
0.0885089
0.0867426
0.0848778
0.131486
0.131459
0.131346
0.131156
0.130901
0.130587
0.130217
0.129796
0.129331
0.128814
0.128246
0.127623
0.126958
0.126253
0.125497
0.124694
0.123842
0.122939
0.121981
0.120964
0.119884
0.118829
0.117827
0.116809
0.115778
0.114732
0.113673
0.1126
0.111512
0.110408
0.109288
0.108151
0.106996
0.105824
0.104627
0.103406
0.102162
0.100886
0.099575
0.0982307
0.0968076
0.13277
0.132744
0.132647
0.132486
0.132269
0.132003
0.131694
0.13134
0.130949
0.130518
0.130045
0.129535
0.128989
0.128412
0.127797
0.127146
0.12646
0.125738
0.124975
0.124171
0.123323
0.122495
0.12171
0.120917
0.120117
0.119311
0.118494
0.11767
0.116842
0.116008
0.115164
0.114312
0.11345
0.11258
0.111695
0.110795
0.109881
0.108947
0.107989
0.10701
0.105987
0.133822
0.133799
0.133715
0.133577
0.13339
0.133162
0.132896
0.132598
0.132266
0.131904
0.131506
0.131078
0.130623
0.130143
0.129639
0.129104
0.128544
0.127956
0.12734
0.126694
0.126017
0.125357
0.124733
0.124105
0.123473
0.122841
0.122204
0.121564
0.120922
0.120281
0.119638
0.118992
0.118342
0.11769
0.11703
0.116363
0.115689
0.115003
0.114304
0.113592
0.112859
0.134698
0.134678
0.134606
0.134486
0.134324
0.134126
0.133896
0.133638
0.133355
0.133045
0.132709
0.132346
0.131964
0.131561
0.131138
0.130696
0.130234
0.129751
0.129246
0.128719
0.128172
0.127639
0.127135
0.126631
0.126126
0.125623
0.125118
0.124613
0.12411
0.123608
0.123109
0.122613
0.122117
0.12162
0.12112
0.120618
0.120113
0.119603
0.119086
0.118563
0.118031
0.135438
0.135421
0.135358
0.135253
0.135111
0.134938
0.134738
0.134513
0.134268
0.133999
0.13371
0.133399
0.133073
0.132733
0.132376
0.132004
0.131618
0.131218
0.130803
0.13037
0.129922
0.129486
0.129075
0.128666
0.128258
0.127853
0.127449
0.127045
0.126645
0.126247
0.125852
0.125461
0.125075
0.124691
0.124307
0.123923
0.12354
0.123155
0.122766
0.122376
0.121986
0.136069
0.136055
0.136
0.135907
0.135783
0.135631
0.135456
0.135259
0.135044
0.134812
0.134561
0.134294
0.134013
0.133721
0.133418
0.133103
0.132776
0.132439
0.132091
0.131733
0.131364
0.131005
0.130666
0.130329
0.129996
0.129665
0.129336
0.12901
0.128688
0.128369
0.128055
0.127744
0.127437
0.127134
0.126834
0.126538
0.126243
0.125949
0.125654
0.125358
0.125066
0.136614
0.136601
0.136553
0.136471
0.136362
0.136228
0.136074
0.135901
0.135712
0.135508
0.135291
0.135058
0.134816
0.134564
0.134302
0.134032
0.133755
0.13347
0.133176
0.132874
0.132566
0.132268
0.131987
0.131708
0.131432
0.131159
0.130889
0.130623
0.130361
0.130103
0.129849
0.129599
0.129353
0.129112
0.128874
0.128639
0.128409
0.128181
0.127954
0.127728
0.127507
0.137086
0.137075
0.137033
0.136962
0.136866
0.136748
0.136611
0.136458
0.136291
0.136112
0.13592
0.135718
0.135507
0.135288
0.135063
0.134831
0.134592
0.134348
0.134099
0.133845
0.133585
0.133333
0.133097
0.132864
0.132634
0.132407
0.132183
0.131964
0.131748
0.131537
0.13133
0.131127
0.130929
0.130734
0.130543
0.130356
0.130173
0.129992
0.129814
0.129639
0.12947
0.137499
0.13749
0.137454
0.137392
0.137307
0.137203
0.137082
0.136946
0.136798
0.136639
0.13647
0.136292
0.136107
0.135917
0.135722
0.135521
0.135315
0.135106
0.134892
0.134674
0.134455
0.134242
0.134042
0.133845
0.133651
0.13346
0.133274
0.133091
0.132912
0.132738
0.132567
0.132401
0.132239
0.132081
0.131927
0.131776
0.131629
0.131485
0.131343
0.131205
0.131072
0.137862
0.137855
0.137825
0.137771
0.137696
0.137605
0.137497
0.137377
0.137245
0.137104
0.136954
0.136796
0.136633
0.136465
0.136293
0.136118
0.13594
0.135759
0.135575
0.13539
0.135202
0.13502
0.134849
0.134682
0.134517
0.134357
0.1342
0.134046
0.133897
0.133752
0.133611
0.133474
0.133341
0.133211
0.133085
0.132963
0.132844
0.132728
0.132615
0.132504
0.1324
0.138183
0.138179
0.138154
0.138107
0.138042
0.137961
0.137866
0.137758
0.137641
0.137515
0.137381
0.137241
0.137096
0.136948
0.136796
0.136642
0.136486
0.136328
0.13617
0.13601
0.135849
0.135693
0.135546
0.135403
0.135262
0.135126
0.134993
0.134863
0.134738
0.134616
0.134498
0.134384
0.134274
0.134168
0.134064
0.133964
0.133867
0.133773
0.133682
0.133593
0.13351
0.138468
0.138467
0.138447
0.138408
0.138351
0.138278
0.138193
0.138097
0.137992
0.13788
0.13776
0.137636
0.137507
0.137375
0.137241
0.137105
0.136967
0.136829
0.13669
0.136552
0.136414
0.136279
0.136152
0.136029
0.135908
0.135791
0.135678
0.135568
0.135462
0.135359
0.13526
0.135165
0.135073
0.134984
0.134899
0.134816
0.134737
0.13466
0.134586
0.134514
0.134448
0.138722
0.138725
0.13871
0.138677
0.138627
0.138562
0.138486
0.1384
0.138306
0.138206
0.138099
0.137988
0.137873
0.137756
0.137636
0.137516
0.137395
0.137273
0.137151
0.13703
0.13691
0.136793
0.136683
0.136576
0.136472
0.136371
0.136274
0.13618
0.13609
0.136003
0.135919
0.135839
0.135762
0.135688
0.135616
0.135548
0.135483
0.13542
0.135359
0.135301
0.135247
0.13895
0.138957
0.138947
0.138918
0.138874
0.138817
0.138749
0.138672
0.138588
0.138499
0.138403
0.138304
0.138202
0.138097
0.137991
0.137884
0.137777
0.137669
0.137562
0.137456
0.137351
0.137249
0.137153
0.13706
0.136969
0.136882
0.136798
0.136718
0.13664
0.136566
0.136495
0.136427
0.136362
0.1363
0.13624
0.136183
0.136129
0.136077
0.136027
0.135979
0.135935
0.139156
0.139167
0.13916
0.139135
0.139096
0.139046
0.138986
0.138918
0.138844
0.138764
0.13868
0.138591
0.1385
0.138408
0.138313
0.138218
0.138123
0.138028
0.137933
0.137839
0.137748
0.137658
0.137574
0.137492
0.137414
0.137338
0.137265
0.137195
0.137129
0.137065
0.137004
0.136946
0.136891
0.136838
0.136788
0.13674
0.136695
0.136651
0.13661
0.136571
0.136535
0.139342
0.139356
0.139352
0.139331
0.139297
0.139254
0.139202
0.139143
0.139079
0.139009
0.138934
0.138856
0.138776
0.138693
0.138609
0.138525
0.13844
0.138356
0.138272
0.138189
0.138108
0.138029
0.137955
0.137884
0.137815
0.137749
0.137685
0.137625
0.137567
0.137512
0.13746
0.13741
0.137363
0.137318
0.137275
0.137235
0.137197
0.137161
0.137127
0.137094
0.137065
0.139511
0.139527
0.139524
0.139507
0.13948
0.139445
0.139402
0.139353
0.139298
0.139238
0.139174
0.139105
0.139034
0.138961
0.138886
0.138811
0.138736
0.138661
0.138587
0.138514
0.138442
0.138373
0.138307
0.138244
0.138183
0.138125
0.138069
0.138017
0.137966
0.137918
0.137873
0.13783
0.13779
0.137752
0.137715
0.137681
0.137649
0.137619
0.13759
0.137563
0.137539
0.139664
0.139681
0.13968
0.139668
0.139649
0.139623
0.139591
0.139552
0.139508
0.139458
0.139403
0.139345
0.139283
0.139219
0.139153
0.139086
0.139019
0.138953
0.138887
0.138822
0.138758
0.138697
0.138639
0.138582
0.138529
0.138477
0.138428
0.138382
0.138338
0.138296
0.138256
0.138219
0.138184
0.138151
0.13812
0.138091
0.138064
0.138038
0.138014
0.137992
0.137972
0.139801
0.139817
0.139818
0.139814
0.139804
0.139789
0.139769
0.139742
0.13971
0.139672
0.139629
0.139582
0.139531
0.139477
0.139421
0.139363
0.139304
0.139244
0.139186
0.139128
0.139071
0.139016
0.138964
0.138914
0.138865
0.138819
0.138776
0.138734
0.138695
0.138658
0.138623
0.138591
0.138561
0.138532
0.138506
0.138481
0.138458
0.138437
0.138418
0.1384
0.138385
0.139918
0.139931
0.139935
0.139938
0.139938
0.139933
0.139924
0.139911
0.139893
0.139872
0.139846
0.139816
0.139783
0.139747
0.139707
0.139666
0.139622
0.139576
0.13953
0.139483
0.139438
0.139392
0.139348
0.139305
0.139264
0.139224
0.139186
0.13915
0.139117
0.139086
0.139057
0.139031
0.139006
0.138985
0.138965
0.138947
0.138932
0.138919
0.138908
0.138899
0.138892
0.139993
0.140002
0.140008
0.140012
0.140014
0.140014
0.140011
0.140007
0.14
0.139991
0.13998
0.139967
0.139952
0.139935
0.139917
0.139896
0.139875
0.139852
0.139827
0.139802
0.139777
0.13975
0.139724
0.139697
0.139671
0.139645
0.139621
0.139597
0.139575
0.139554
0.139535
0.139517
0.139501
0.139486
0.139474
0.139463
0.139453
0.139445
0.139439
0.139434
0.139431
0.140029
0.140037
0.140043
0.140047
0.140051
0.140053
0.140055
0.140054
0.140053
0.14005
0.140047
0.140042
0.140036
0.140028
0.14002
0.140011
0.140001
0.139991
0.13998
0.139969
0.139958
0.139946
0.139934
0.139922
0.13991
0.139898
0.139886
0.139874
0.139863
0.139853
0.139843
0.139834
0.139826
0.139818
0.139811
0.139805
0.1398
0.139795
0.139792
0.139789
0.139787
0.140048
0.140055
0.140061
0.140066
0.140071
0.140075
0.140079
0.140082
0.140084
0.140085
0.140086
0.140085
0.140084
0.140082
0.14008
0.140077
0.140073
0.140069
0.140064
0.140059
0.140054
0.140049
0.140044
0.140039
0.140033
0.140028
0.140023
0.140018
0.140013
0.140008
0.140004
0.139999
0.139996
0.139992
0.139989
0.139986
0.139984
0.139982
0.13998
0.139979
0.139978
0.140056
0.140063
0.140069
0.140075
0.14008
0.140086
0.140091
0.140096
0.1401
0.140104
0.140108
0.140111
0.140113
0.140115
0.140116
0.140116
0.140117
0.140116
0.140115
0.140114
0.140113
0.140112
0.14011
0.140108
0.140106
0.140104
0.140102
0.1401
0.140098
0.140096
0.140094
0.140092
0.140091
0.140089
0.140088
0.140087
0.140086
0.140085
0.140084
0.140084
0.140084
0.140057
0.140063
0.140069
0.140075
0.140081
0.140087
0.140093
0.1401
0.140106
0.140112
0.140118
0.140123
0.140128
0.140133
0.140136
0.14014
0.140143
0.140145
0.140147
0.140149
0.14015
0.140151
0.140152
0.140153
0.140153
0.140153
0.140153
0.140153
0.140152
0.140152
0.140152
0.140152
0.140151
0.140151
0.140151
0.140151
0.140151
0.140151
0.140151
0.140151
0.140151
0.140053
0.140058
0.140063
0.140068
0.140075
0.140081
0.140088
0.140095
0.140103
0.14011
0.140117
0.140124
0.140131
0.140138
0.140144
0.140149
0.140155
0.140159
0.140164
0.140168
0.140171
0.140174
0.140177
0.140179
0.140181
0.140183
0.140184
0.140186
0.140187
0.140188
0.140189
0.14019
0.14019
0.140191
0.140192
0.140192
0.140193
0.140193
0.140194
0.140194
0.140195
0.140043
0.140047
0.140051
0.140056
0.140062
0.140068
0.140075
0.140082
0.140089
0.140097
0.140105
0.140113
0.140122
0.14013
0.140137
0.140145
0.140152
0.140158
0.140165
0.14017
0.140176
0.140181
0.140185
0.140189
0.140193
0.140196
0.140199
0.140201
0.140204
0.140206
0.140208
0.140209
0.140211
0.140212
0.140213
0.140214
0.140215
0.140216
0.140217
0.140218
0.140218
0.140029
0.140031
0.140034
0.140038
0.140042
0.140047
0.140052
0.140058
0.140065
0.140072
0.140079
0.140087
0.140095
0.140104
0.140112
0.14012
0.140129
0.140137
0.140144
0.140152
0.140159
0.140166
0.140173
0.140179
0.140185
0.14019
0.140196
0.1402
0.140205
0.140209
0.140212
0.140216
0.140219
0.140222
0.140224
0.140227
0.140229
0.140231
0.140232
0.140234
0.140235
0.140011
0.140011
0.140013
0.140014
0.140016
0.140018
0.14002
0.140023
0.140026
0.14003
0.140034
0.140039
0.140044
0.140049
0.140055
0.140062
0.140065
0.140068
0.14007
0.140073
0.140076
0.140079
0.140083
0.140087
0.140091
0.140094
0.140098
0.140102
0.140105
0.140109
0.140112
0.140115
0.140118
0.14012
0.140123
0.140125
0.140127
0.140129
0.14013
0.140132
0.140133
0.00603794
0.0082764
0.00931964
0.0105729
0.0127993
0.0159599
0.0197445
0.0238823
0.0282317
0.0326969
0.0372195
0.0417571
0.0462806
0.050791
0.0552868
0.0596996
0.0639927
0.0681485
0.0721533
0.0759971
0.0796765
0.0831934
0.0865526
0.0897572
0.0928077
0.0957024
0.0984409
0.101025
0.103461
0.105755
0.107914
0.109946
0.111857
0.113654
0.115345
0.116934
0.118429
0.119835
0.121157
0.122402
0.123573
0.124676
0.125714
0.126691
0.127611
0.128477
0.129293
0.130061
0.130786
0.131468
0.132111
0.132717
0.133289
0.13383
0.13434
0.134824
0.135284
0.135722
0.136141
0.136544
0.136931
0.137307
0.137672
0.138026
0.13837
0.1387
0.139011
0.139297
0.139552
0.139772
0.139955
0.140103
0.140214
0.140338
0.0128688
0.0160053
0.0160833
0.0151334
0.0149008
0.0162833
0.0191274
0.022846
0.0270118
0.0314076
0.0359164
0.0404701
0.0450278
0.0495849
0.0541325
0.0586096
0.0629687
0.0671883
0.0712537
0.0751543
0.0788867
0.0824533
0.0858595
0.0891092
0.092203
0.0951388
0.0979155
0.100535
0.103002
0.105325
0.10751
0.109566
0.111499
0.113318
0.115029
0.116639
0.118154
0.119581
0.120924
0.122188
0.123379
0.1245
0.125556
0.126549
0.127484
0.128364
0.129193
0.129973
0.130708
0.131399
0.132051
0.132665
0.133244
0.133791
0.134307
0.134796
0.13526
0.135702
0.136124
0.136529
0.136919
0.137296
0.137662
0.138019
0.138365
0.138697
0.13901
0.1393
0.139559
0.139783
0.139971
0.140123
0.140237
0.140365
0.0200166
0.0250249
0.0254911
0.0234581
0.0208452
0.0193439
0.0199014
0.0223281
0.0258982
0.0300416
0.0344455
0.0389731
0.043545
0.0481371
0.0527313
0.057269
0.0617026
0.0659981
0.0701372
0.0741081
0.0779069
0.0815359
0.0850012
0.0883075
0.0914555
0.0944432
0.0972688
0.0999337
0.102443
0.104803
0.107022
0.109109
0.111072
0.112919
0.114657
0.116293
0.117834
0.119285
0.120653
0.121941
0.123154
0.124297
0.125372
0.126384
0.127336
0.128231
0.129074
0.129867
0.130613
0.131315
0.131976
0.132599
0.133186
0.13374
0.134263
0.134757
0.135227
0.135673
0.136098
0.136506
0.136898
0.137277
0.137645
0.138004
0.138351
0.138686
0.139002
0.139296
0.139559
0.139788
0.139981
0.140138
0.140255
0.140388
0.0266492
0.0340206
0.0358112
0.0339961
0.0303505
0.0264831
0.0239394
0.0236736
0.0255749
0.0288935
0.0329366
0.0373174
0.0418384
0.046431
0.051056
0.0556474
0.0601515
0.0645324
0.0687596
0.072817
0.0766984
0.0804057
0.0839451
0.087322
0.0905379
0.0935907
0.0964782
0.0992009
0.101763
0.104172
0.106436
0.108564
0.110565
0.112447
0.114219
0.115888
0.11746
0.118941
0.120338
0.121653
0.122893
0.12406
0.125158
0.126191
0.127162
0.128075
0.128934
0.129741
0.1305
0.131214
0.131886
0.132519
0.133115
0.133676
0.134206
0.134708
0.135182
0.135633
0.136063
0.136474
0.136869
0.137251
0.137621
0.137981
0.138331
0.138667
0.138987
0.139284
0.139553
0.139787
0.139985
0.140148
0.140269
0.140408
0.0328649
0.0427101
0.0461982
0.0453944
0.041947
0.0371536
0.0323343
0.0288685
0.0277223
0.0289432
0.0318519
0.0356992
0.0399924
0.0444986
0.0491023
0.0537192
0.0582838
0.0627436
0.0670665
0.0712267
0.0752102
0.0790152
0.0826473
0.0861124
0.0894128
0.092547
0.0955122
0.0983084
0.100939
0.10341
0.105732
0.107912
0.109961
0.111889
0.113703
0.115411
0.117021
0.118539
0.11997
0.121318
0.122588
0.123784
0.124908
0.125965
0.126958
0.127892
0.128768
0.129592
0.130366
0.131093
0.131778
0.132422
0.133028
0.133599
0.134137
0.134646
0.135127
0.135584
0.136018
0.136433
0.136832
0.137216
0.137589
0.137951
0.138303
0.138642
0.138965
0.139266
0.13954
0.13978
0.139984
0.140153
0.140279
0.140425
0.0387824
0.0509317
0.0561585
0.0567914
0.0543281
0.0498297
0.044257
0.0386979
0.0343695
0.0322485
0.0325795
0.0348656
0.0383569
0.0424868
0.0469307
0.0515041
0.0560856
0.0606036
0.0650137
0.0692772
0.0733791
0.0773034
0.0810508
0.084626
0.0880317
0.0912671
0.0943296
0.0972181
0.099935
0.102486
0.104881
0.107129
0.109239
0.111223
0.11309
0.114848
0.116504
0.118066
0.119538
0.120925
0.122231
0.12346
0.124615
0.1257
0.126719
0.127675
0.128573
0.129416
0.130207
0.13095
0.131649
0.132306
0.132923
0.133505
0.134053
0.13457
0.135059
0.135522
0.135963
0.136383
0.136785
0.137173
0.137548
0.137913
0.138267
0.138609
0.138936
0.139241
0.13952
0.139767
0.139978
0.140153
0.140285
0.140439
0.044487
0.0583753
0.0652207
0.0675049
0.066502
0.0630993
0.0580086
0.0519581
0.0458395
0.0407086
0.037525
0.0367392
0.0381168
0.0410257
0.0448411
0.0491251
0.053605
0.0581237
0.0625839
0.0669341
0.0711475
0.0751998
0.0790851
0.0827957
0.0863318
0.0896927
0.0928762
0.0958803
0.0987064
0.101359
0.103847
0.10618
0.108369
0.110424
0.112357
0.114176
0.115889
0.117504
0.119026
0.120459
0.121808
0.123077
0.124269
0.125387
0.126437
0.12742
0.128343
0.129207
0.130019
0.13078
0.131495
0.132167
0.132799
0.133393
0.133952
0.134479
0.134977
0.135448
0.135895
0.136321
0.136729
0.13712
0.137499
0.137866
0.138223
0.138568
0.138899
0.139209
0.139494
0.139747
0.139965
0.140148
0.140287
0.140449
0.0499577
0.0645776
0.0728635
0.0768504
0.0775637
0.075765
0.0719768
0.0666791
0.0604351
0.0539631
0.0481457
0.0438828
0.0417867
0.0419378
0.043934
0.0471761
0.0511275
0.0554186
0.0598208
0.0642059
0.0684986
0.0726596
0.0766794
0.0805432
0.0842355
0.0877495
0.0910817
0.0942295
0.0971925
0.0999739
0.102581
0.105023
0.107311
0.109457
0.111473
0.113368
0.115152
0.116832
0.118414
0.119904
0.121305
0.122621
0.123857
0.125016
0.126101
0.127118
0.128069
0.128961
0.129796
0.130579
0.131314
0.132003
0.132651
0.133259
0.133831
0.13437
0.134879
0.135359
0.135814
0.136247
0.136661
0.137057
0.13744
0.137811
0.138171
0.138519
0.138853
0.139169
0.13946
0.13972
0.139947
0.140138
0.140284
0.140456
0.0565347
0.0690779
0.0785109
0.0840981
0.0865694
0.086665
0.0847017
0.0809712
0.0758349
0.0697182
0.0631649
0.0568743
0.0516412
0.0481644
0.0468091
0.0474897
0.0497703
0.0531048
0.057026
0.0612147
0.0654743
0.0696934
0.0738165
0.0778118
0.0816629
0.0853508
0.0888598
0.092182
0.0953142
0.0982567
0.101014
0.103596
0.106011
0.108273
0.110394
0.112385
0.114257
0.116018
0.117675
0.119234
0.120699
0.122074
0.123363
0.12457
0.1257
0.126756
0.127743
0.128667
0.129531
0.13034
0.131098
0.131808
0.132475
0.133101
0.133688
0.134241
0.134762
0.135253
0.135718
0.136159
0.13658
0.136983
0.13737
0.137745
0.138109
0.138461
0.1388
0.13912
0.139418
0.139686
0.139921
0.140121
0.140275
0.140458
0.0644182
0.0718463
0.0817117
0.088574
0.0925504
0.0946127
0.0947359
0.0930462
0.0898116
0.0852543
0.0796399
0.0733498
0.0669134
0.0609891
0.0562659
0.0532916
0.0522984
0.0531459
0.0554271
0.0586598
0.062431
0.0664514
0.0705438
0.0746057
0.0785793
0.0824262
0.0861197
0.0896399
0.0929731
0.0961129
0.0990592
0.101817
0.104396
0.106806
0.109062
0.111176
0.113159
0.115022
0.116773
0.118418
0.119962
0.121409
0.122764
0.124032
0.125215
0.126321
0.127352
0.128315
0.129214
0.130054
0.13084
0.131576
0.132266
0.132912
0.133518
0.134087
0.134623
0.135127
0.135604
0.136055
0.136484
0.136894
0.137288
0.137668
0.138037
0.138393
0.138736
0.139063
0.139367
0.139643
0.139887
0.140097
0.14026
0.140456
0.0747403
0.077922
0.0831644
0.0902786
0.0947624
0.0985773
0.1007
0.101133
0.100242
0.0980032
0.0944458
0.0897256
0.0841093
0.0779752
0.0718211
0.0662395
0.0618267
0.0590378
0.0580564
0.0587617
0.0608121
0.0637904
0.0673251
0.0711432
0.0750657
0.0789798
0.0828135
0.0865194
0.0900653
0.0934304
0.0966028
0.0995795
0.102364
0.104965
0.107395
0.109667
0.111793
0.113786
0.115656
0.11741
0.119053
0.120592
0.12203
0.123373
0.124625
0.125791
0.126877
0.127889
0.128832
0.129711
0.130532
0.131299
0.132016
0.132687
0.133315
0.133904
0.134457
0.134978
0.135468
0.135932
0.136372
0.136791
0.137192
0.137579
0.137952
0.138314
0.138663
0.138995
0.139306
0.139592
0.139845
0.140066
0.140238
0.140449
0.0807317
0.0848598
0.0886651
0.0918192
0.0936387
0.0985955
0.101857
0.103729
0.105258
0.105666
0.10473
0.102497
0.09908
0.0946232
0.0893421
0.0835696
0.0777574
0.0724366
0.0681338
0.0652584
0.0640046
0.0643172
0.0659435
0.0685378
0.0717621
0.0753425
0.0790812
0.082844
0.0865416
0.0901153
0.0935273
0.0967555
0.0997898
0.10263
0.105282
0.107758
0.11007
0.112231
0.114254
0.116147
0.117918
0.119574
0.121118
0.122557
0.123895
0.125139
0.126295
0.127369
0.128366
0.129294
0.130158
0.130964
0.131715
0.132417
0.133072
0.133686
0.134261
0.1348
0.135308
0.135786
0.136239
0.136669
0.13708
0.137475
0.137855
0.138223
0.138577
0.138916
0.139236
0.13953
0.139794
0.140026
0.140209
0.140436
0.0792263
0.0841626
0.0886011
0.0923714
0.0954107
0.0982946
0.100158
0.100709
0.104355
0.106962
0.108351
0.108735
0.108133
0.10644
0.103607
0.0997455
0.0950574
0.0898299
0.0844429
0.0793541
0.0750378
0.071895
0.0701677
0.0698953
0.0709319
0.0730125
0.0758335
0.079116
0.0826373
0.0862346
0.0897956
0.0932467
0.096542
0.0996563
0.10258
0.105313
0.107864
0.110244
0.112466
0.114541
0.116478
0.118284
0.119966
0.121529
0.12298
0.124325
0.125571
0.126724
0.127793
0.128783
0.129702
0.130556
0.131351
0.132091
0.13278
0.133424
0.134026
0.134589
0.135117
0.135614
0.136083
0.136527
0.136949
0.137353
0.137742
0.138117
0.138479
0.138825
0.139153
0.139458
0.139733
0.139977
0.140172
0.140416
0.0683131
0.0740095
0.0794246
0.0844985
0.0891538
0.0933719
0.0969396
0.0997698
0.10245
0.104478
0.10574
0.107448
0.109221
0.110281
0.110241
0.10928
0.107393
0.104546
0.100794
0.0963417
0.0915128
0.0867119
0.0823766
0.0789114
0.0766169
0.0756368
0.0759444
0.0773715
0.0796668
0.0825588
0.0858026
0.0892029
0.0926183
0.0959534
0.0991494
0.102174
0.105016
0.107673
0.110152
0.112464
0.114618
0.116623
0.118485
0.120213
0.121812
0.12329
0.124655
0.125913
0.127075
0.128147
0.129137
0.130054
0.130904
0.131692
0.132425
0.133107
0.133742
0.134335
0.134889
0.135409
0.135897
0.136358
0.136795
0.137212
0.137611
0.137996
0.138366
0.138721
0.139058
0.139373
0.13966
0.139918
0.140124
0.140388
0.0516048
0.0555088
0.0600069
0.0651127
0.0707409
0.0767158
0.0827478
0.0884946
0.0937107
0.0981393
0.101628
0.104321
0.106367
0.107689
0.107858
0.109168
0.110378
0.11081
0.11014
0.108462
0.105856
0.102435
0.0984125
0.094106
0.0899064
0.0862182
0.0833944
0.081678
0.0811666
0.0818089
0.083435
0.0858085
0.0886789
0.0918231
0.0950652
0.0982808
0.10139
0.104349
0.107136
0.109745
0.112179
0.114444
0.116547
0.118494
0.120292
0.121948
0.123472
0.124873
0.126158
0.12734
0.128426
0.129426
0.130348
0.1312
0.131988
0.132718
0.133396
0.134027
0.134614
0.135162
0.135676
0.136159
0.136614
0.137047
0.137459
0.137855
0.138236
0.1386
0.138948
0.139275
0.139575
0.139847
0.140066
0.140352
0.0462142
0.0473216
0.0488348
0.0508103
0.0533326
0.0564928
0.060371
0.0650101
0.0703883
0.0763762
0.0827067
0.089005
0.0948426
0.0997881
0.103477
0.106218
0.108185
0.109362
0.109428
0.110242
0.110858
0.110708
0.109551
0.107426
0.10449
0.100984
0.097224
0.0935796
0.0904243
0.0880773
0.0867527
0.0865292
0.0873502
0.0890528
0.0914146
0.094203
0.0972125
0.100284
0.103307
0.106215
0.108971
0.111557
0.113967
0.116203
0.118268
0.120168
0.12191
0.123505
0.124962
0.126293
0.12751