/*--------------------------------*- C++ -*----------------------------------*\
| =========                 |                                                 |
| \\      /  F ield         | OpenFOAM: The Open Source CFD Toolbox           |
|  \\    /   O peration     | Version:  5.x                                   |
|   \\  /    A nd           | Web:      www.OpenFOAM.org                      |
|    \\/     M anipulation  |                                                 |
\*---------------------------------------------------------------------------*/
FoamFile
{
    version     2.0;
    format      ascii;
    class       volScalarField;
    location    "200";
    object      nuTilda;
}
// * * * * * * * * * * * * * * * * * * * * * * * * * * * * * * * * * * * * * //

dimensions      [0 2 -1 0 0 0 0];

internalField   nonuniform List<scalar> 
11040
(
0.00180822
0.00196016
0.00236044
0.00267734
0.00282234
0.002865
0.0028527
0.00280693
0.00273166
0.00262846
0.00247589
0.0023467
0.00226468
0.00220613
0.00214256
0.00207762
0.00201325
0.00195224
0.00189767
0.00184942
0.00180459
0.00176649
0.00173337
0.00170229
0.00167308
0.00164529
0.00161837
0.00159197
0.00156583
0.00153963
0.00151292
0.00148508
0.00145539
0.00142298
0.00138637
0.00134395
0.00129289
0.00123012
0.00114273
0.0010386
0.000782562
0.00816654
0.00857624
0.00795381
0.00728068
0.00657408
0.00590599
0.00530357
0.00476456
0.0042899
0.00388061
0.00348268
0.0033342
0.00327653
0.00314684
0.00298156
0.002823
0.00268524
0.00256672
0.00248196
0.00242706
0.00238602
0.00234923
0.00231643
0.00228818
0.00226542
0.00224618
0.00222887
0.00221338
0.00220027
0.00218973
0.00218152
0.00217542
0.00217138
0.00216945
0.00216972
0.00217212
0.0021768
0.00218161
0.00218729
0.00218034
0.00211142
0.0163959
0.017001
0.0162606
0.015187
0.0139387
0.0126686
0.011456
0.0103225
0.00927888
0.00830379
0.00732973
0.00648658
0.00583927
0.0053446
0.00490969
0.00452732
0.00418885
0.00390208
0.00375747
0.00369063
0.00363504
0.00357984
0.00354023
0.00351791
0.00350671
0.00349809
0.00348968
0.00348365
0.00348158
0.00348266
0.00348525
0.00348823
0.00349107
0.00349311
0.00349299
0.00348896
0.00348015
0.00345918
0.00343084
0.00336361
0.00321733
0.0257834
0.026518
0.0257679
0.0243978
0.0227061
0.0208872
0.0190675
0.0172921
0.0156179
0.0140456
0.0124806
0.0110855
0.00997335
0.00909635
0.00832834
0.00765823
0.00707284
0.00655566
0.00610315
0.00571081
0.00536646
0.00511309
0.00499866
0.00494766
0.00491109
0.00487048
0.00483642
0.004818
0.0048128
0.00481358
0.00481671
0.00482195
0.00482913
0.0048367
0.004842
0.00484178
0.00483353
0.00480617
0.00476039
0.00465807
0.00439749
0.0359163
0.0367375
0.0360623
0.0345485
0.0325643
0.0302954
0.0279184
0.0254848
0.0231457
0.0209272
0.0187284
0.0167453
0.0151514
0.0138827
0.0127585
0.0117669
0.0109013
0.0101309
0.00943605
0.00880912
0.00824469
0.00778736
0.00742768
0.00711462
0.00683918
0.00660412
0.00646453
0.00639803
0.00635795
0.00632088
0.00629114
0.00627414
0.00626676
0.00626296
0.00625824
0.00624879
0.00623129
0.00619325
0.00613125
0.00601597
0.00568632
0.0464459
0.0473147
0.0467551
0.045235
0.0431137
0.0405
0.037642
0.0347175
0.0318475
0.0290563
0.026235
0.0236119
0.021424
0.0196676
0.0181565
0.0168371
0.0156964
0.0146466
0.0136823
0.0128071
0.0120159
0.0113672
0.0108333
0.0103462
0.00990482
0.00950377
0.00914376
0.00882487
0.00854112
0.00829997
0.00815105
0.00807025
0.00801287
0.00796049
0.00791285
0.00786633
0.00781453
0.00774248
0.00764263
0.00749735
0.00711269
0.0570547
0.0579222
0.0574899
0.0560665
0.0539286
0.0512314
0.0482159
0.0450384
0.0418254
0.0386107
0.0352813
0.0320829
0.0293089
0.0269962
0.0249637
0.0231619
0.0215693
0.0201541
0.0188894
0.0177593
0.016735
0.0158751
0.015131
0.0144602
0.0138638
0.0133174
0.012813
0.0123462
0.0119128
0.0115084
0.011135
0.0107935
0.0104785
0.0102297
0.0100652
0.00993564
0.00980959
0.00966614
0.00949251
0.00927801
0.00880321
0.0674114
0.0682573
0.0679444
0.0666814
0.0646738
0.0621078
0.0591689
0.0559782
0.0526512
0.0492228
0.045586
0.0419774
0.0387209
0.0358964
0.0333498
0.0310447
0.0289653
0.0270916
0.0254027
0.0238808
0.0225126
0.0213674
0.0204101
0.0195448
0.0187625
0.0180512
0.0173989
0.0167958
0.0162335
0.0157045
0.0152022
0.0147208
0.0142537
0.0137986
0.0133555
0.0129252
0.0125639
0.0122603
0.0119547
0.0116212
0.0109993
0.0772871
0.0780606
0.0778395
0.0767645
0.0749903
0.0726891
0.0699956
0.0669927
0.0637715
0.0603529
0.0566444
0.0528484
0.0492878
0.0460791
0.0431167
0.0403785
0.0378577
0.0355439
0.0334238
0.0314837
0.0297132
0.0282435
0.0270395
0.0259502
0.0249588
0.0240515
0.0232161
0.0224417
0.0217183
0.021037
0.020389
0.019766
0.0191596
0.0185608
0.0179578
0.0173409
0.0167106
0.0160559
0.0154076
0.0148362
0.0140061
0.0864333
0.0871089
0.0869553
0.0860701
0.0845708
0.0826007
0.0802527
0.077572
0.0746243
0.0713925
0.0678201
0.0640663
0.0604208
0.0570279
0.0538506
0.0508354
0.047991
0.0453284
0.0428439
0.0405311
0.0383833
0.0365924
0.035128
0.0337975
0.0325796
0.0314592
0.0304228
0.0294583
0.0285547
0.0277018
0.0268896
0.0261084
0.0253486
0.0245996
0.0238468
0.0230787
0.0222847
0.0214398
0.0205269
0.0195811
0.0183665
0.0946837
0.095256
0.0951502
0.0944389
0.0932123
0.0915846
0.0896177
0.0873118
0.0847213
0.0818571
0.078641
0.0751795
0.0717028
0.0683428
0.0650794
0.0619346
0.0589252
0.0560779
0.053362
0.0507816
0.0483423
0.0462838
0.0445835
0.0430247
0.0415875
0.0402582
0.039023
0.0378687
0.0367835
0.0357563
0.0347762
0.0338326
0.0329152
0.0320126
0.0311083
0.0301911
0.0292499
0.0282594
0.027192
0.0260767
0.0245256
0.101966
0.102438
0.102363
0.1018
0.100819
0.0995088
0.0979114
0.0960067
0.0938445
0.0914271
0.0886844
0.0856798
0.0825781
0.0794803
0.0763755
0.0732995
0.0702826
0.0673524
0.0645259
0.0618137
0.0592274
0.0570073
0.0551268
0.0533827
0.051766
0.0502698
0.0488701
0.0475535
0.0463091
0.0451263
0.0439946
0.0429033
0.0418426
0.0408003
0.039759
0.0387078
0.0376364
0.0365203
0.0353339
0.0341101
0.0324495
0.108282
0.108659
0.108601
0.10816
0.107388
0.106351
0.105082
0.103554
0.101811
0.0998497
0.0976119
0.0951295
0.0924968
0.0897996
0.0870393
0.0842572
0.0814594
0.0786713
0.0759167
0.073216
0.0705854
0.0682907
0.0663323
0.0645004
0.0627839
0.0611733
0.0596581
0.0582273
0.0568702
0.0555763
0.0543351
0.0531355
0.0519743
0.0508321
0.0496908
0.0485414
0.0473756
0.0461703
0.0449046
0.0436066
0.0419266
0.113685
0.113971
0.113924
0.113581
0.11298
0.11217
0.111173
0.109971
0.108596
0.107045
0.105273
0.103278
0.101149
0.0989318
0.0966195
0.094235
0.0917975
0.0893404
0.0868595
0.0843706
0.0818916
0.0796848
0.0777708
0.0759595
0.0742426
0.0726143
0.0710679
0.0695956
0.0681897
0.0668415
0.0655427
0.064284
0.063057
0.0618515
0.0606513
0.0594484
0.0582359
0.056992
0.0557
0.0543801
0.052745
0.118234
0.118458
0.118423
0.118158
0.117696
0.117065
0.116287
0.115348
0.114276
0.113069
0.11168
0.110129
0.108467
0.106717
0.104871
0.102939
0.100935
0.0988696
0.0967565
0.0946082
0.0924474
0.0904871
0.0887457
0.0870723
0.0854671
0.0839374
0.0824701
0.0810592
0.0796997
0.0783863
0.0771129
0.0758732
0.0746606
0.0734668
0.0722778
0.0710882
0.0698935
0.0686745
0.0674188
0.0661398
0.0646155
0.122057
0.122231
0.122204
0.121999
0.12165
0.121154
0.120545
0.119814
0.118983
0.118052
0.116983
0.115796
0.114521
0.113174
0.111733
0.110217
0.108644
0.107007
0.105313
0.103567
0.101777
0.100129
0.0986496
0.0972141
0.0958229
0.0944758
0.0931718
0.0919087
0.0906836
0.0894929
0.0883322
0.0872033
0.086095
0.0850002
0.0839078
0.0828145
0.0817179
0.0806025
0.0794597
0.0782974
0.0769577
0.125259
0.125395
0.125373
0.125213
0.124939
0.124552
0.124077
0.123512
0.12287
0.122152
0.121334
0.12043
0.119463
0.11843
0.117333
0.116177
0.114966
0.113704
0.1124
0.111051
0.109655
0.108352
0.107168
0.106009
0.104878
0.103773
0.102694
0.101642
0.100615
0.0996103
0.0986265
0.0976607
0.0967101
0.0957704
0.0948333
0.093897
0.0929603
0.0920108
0.0910428
0.0900605
0.0889616
0.127817
0.127926
0.12791
0.127782
0.127564
0.127259
0.126884
0.126445
0.125938
0.125374
0.124738
0.12404
0.123295
0.122502
0.121661
0.120776
0.119851
0.118885
0.11788
0.116838
0.11576
0.114747
0.113821
0.112911
0.112019
0.111146
0.110291
0.109459
0.108644
0.107845
0.107059
0.106286
0.105523
0.104769
0.104016
0.103265
0.102515
0.101757
0.100988
0.10021
0.0993615
0.129787
0.129876
0.129863
0.129759
0.129581
0.12934
0.129033
0.128676
0.128269
0.127817
0.127317
0.126765
0.126178
0.125554
0.124897
0.124207
0.123488
0.122739
0.121961
0.121155
0.120321
0.119534
0.11881
0.118098
0.117399
0.116715
0.116045
0.115387
0.114744
0.114112
0.113496
0.112891
0.112295
0.111705
0.111119
0.110535
0.109954
0.109369
0.108778
0.108183
0.107548
0.131333
0.131407
0.131397
0.13131
0.131161
0.13096
0.130708
0.130414
0.130084
0.129714
0.129306
0.128859
0.128386
0.127891
0.127366
0.126817
0.126246
0.125655
0.125042
0.12441
0.123758
0.12314
0.122571
0.122011
0.121463
0.120925
0.120399
0.119883
0.119378
0.118884
0.118399
0.117923
0.117456
0.116999
0.116546
0.116097
0.115652
0.115206
0.114758
0.114309
0.11384
0.132576
0.132639
0.13263
0.132557
0.13243
0.132259
0.132051
0.131804
0.131528
0.13122
0.130882
0.130518
0.13013
0.129725
0.129298
0.128853
0.128393
0.127918
0.127429
0.126925
0.126408
0.125918
0.125465
0.125021
0.124586
0.124161
0.123742
0.123331
0.122933
0.122545
0.122166
0.121794
0.121431
0.121076
0.120726
0.120381
0.120041
0.119702
0.119363
0.119025
0.118678
0.133595
0.133648
0.13364
0.133577
0.133469
0.133322
0.133143
0.132937
0.132702
0.132445
0.132161
0.131856
0.131533
0.131196
0.130847
0.130482
0.130105
0.129719
0.129322
0.128915
0.1285
0.128106
0.127741
0.127385
0.127033
0.126693
0.126358
0.126031
0.125712
0.125405
0.125106
0.124815
0.12453
0.124255
0.123984
0.123717
0.123456
0.123197
0.122939
0.122684
0.122427
0.134443
0.134489
0.134481
0.134427
0.134332
0.134205
0.134051
0.133872
0.133674
0.133453
0.133214
0.132955
0.132684
0.132401
0.132109
0.131807
0.131498
0.131179
0.130853
0.13052
0.130183
0.129861
0.129565
0.129275
0.128991
0.128717
0.128447
0.128183
0.127927
0.12768
0.127442
0.127213
0.12699
0.126774
0.126562
0.126355
0.126153
0.125953
0.125756
0.125562
0.12537
0.135159
0.135198
0.135191
0.135143
0.13506
0.134949
0.134814
0.134659
0.134487
0.134296
0.134091
0.13387
0.133639
0.133402
0.133155
0.132901
0.132642
0.132378
0.13211
0.131835
0.131558
0.131294
0.13105
0.130812
0.130581
0.130358
0.130138
0.129924
0.129717
0.129517
0.129324
0.129138
0.128961
0.12879
0.128623
0.128461
0.128304
0.128149
0.127998
0.12785
0.127707
0.135769
0.135802
0.135795
0.135753
0.13568
0.135583
0.135465
0.135328
0.135177
0.135014
0.134836
0.134647
0.134449
0.134245
0.134036
0.133822
0.133602
0.13338
0.133154
0.132927
0.132699
0.132479
0.132277
0.13208
0.131889
0.131704
0.131523
0.131349
0.13118
0.131017
0.13086
0.130709
0.130565
0.130427
0.130294
0.130167
0.130045
0.129926
0.129809
0.129696
0.129587
0.136293
0.136322
0.136316
0.136278
0.136214
0.136128
0.136023
0.135903
0.135771
0.135627
0.135473
0.135309
0.135139
0.134963
0.134783
0.134599
0.134414
0.134226
0.134036
0.133844
0.133653
0.133471
0.133303
0.133138
0.13298
0.132825
0.132676
0.132532
0.132393
0.132259
0.132131
0.132008
0.131891
0.131779
0.131671
0.131569
0.131471
0.131378
0.131287
0.1312
0.131118
0.136748
0.136773
0.136767
0.136734
0.136677
0.1366
0.136508
0.136402
0.136284
0.136157
0.136022
0.13588
0.135732
0.13558
0.135425
0.135269
0.135109
0.134948
0.134787
0.134626
0.134464
0.13431
0.134167
0.13403
0.133897
0.133768
0.133643
0.133523
0.133408
0.133297
0.133192
0.133091
0.132995
0.132903
0.132816
0.132733
0.132654
0.132578
0.132506
0.132437
0.132374
0.137145
0.137166
0.137161
0.137131
0.137081
0.137013
0.136931
0.136836
0.136732
0.13662
0.1365
0.136375
0.136246
0.136114
0.135981
0.135844
0.135706
0.135569
0.13543
0.135292
0.135156
0.135026
0.134905
0.134788
0.134675
0.134566
0.134461
0.134361
0.134265
0.134173
0.134085
0.134002
0.133922
0.133847
0.133776
0.133708
0.133644
0.133582
0.133524
0.133469
0.133419
0.137494
0.137512
0.137508
0.137481
0.137436
0.137376
0.137302
0.137218
0.137125
0.137025
0.136919
0.136808
0.136694
0.136578
0.136461
0.136342
0.136224
0.136104
0.135986
0.135868
0.135751
0.13564
0.135536
0.135436
0.13534
0.135248
0.135159
0.135074
0.134994
0.134917
0.134844
0.134774
0.134709
0.134647
0.134588
0.134532
0.13448
0.13443
0.134383
0.134339
0.134299
0.137802
0.137818
0.137814
0.13779
0.13775
0.137696
0.13763
0.137555
0.137472
0.137383
0.137289
0.13719
0.137089
0.136987
0.136883
0.136779
0.136675
0.136572
0.13647
0.136368
0.136268
0.136172
0.136083
0.135997
0.135915
0.135836
0.135761
0.135689
0.135621
0.135556
0.135494
0.135436
0.135382
0.13533
0.135282
0.135236
0.135193
0.135152
0.135114
0.135078
0.135047
0.138074
0.138089
0.138085
0.138064
0.138029
0.13798
0.137921
0.137854
0.13778
0.137701
0.137616
0.137529
0.137439
0.137348
0.137256
0.137164
0.137073
0.136982
0.136893
0.136805
0.13672
0.136637
0.13656
0.136486
0.136415
0.136347
0.136283
0.136222
0.136164
0.136109
0.136057
0.136008
0.135963
0.13592
0.135879
0.135841
0.135806
0.135773
0.135742
0.135713
0.135688
0.138317
0.13833
0.138327
0.138309
0.138277
0.138233
0.138181
0.138121
0.138054
0.137983
0.137908
0.13783
0.13775
0.137669
0.137588
0.137507
0.137426
0.137346
0.137268
0.137191
0.137117
0.137045
0.136978
0.136914
0.136853
0.136795
0.136739
0.136687
0.136638
0.136591
0.136547
0.136506
0.136468
0.136432
0.136398
0.136367
0.136338
0.13631
0.136285
0.136261
0.136241
0.138534
0.138546
0.138544
0.138527
0.138499
0.13846
0.138413
0.138359
0.1383
0.138236
0.138169
0.138099
0.138028
0.137956
0.137884
0.137812
0.137741
0.137671
0.137602
0.137535
0.13747
0.137407
0.137349
0.137293
0.13724
0.13719
0.137142
0.137097
0.137055
0.137015
0.136978
0.136943
0.136911
0.136881
0.136852
0.136826
0.136802
0.13678
0.136759
0.136739
0.136723
0.138729
0.138739
0.138738
0.138723
0.138698
0.138664
0.138621
0.138573
0.13852
0.138463
0.138403
0.138341
0.138278
0.138214
0.138149
0.138086
0.138023
0.137961
0.1379
0.137841
0.137785
0.13773
0.137679
0.13763
0.137584
0.137541
0.137499
0.137461
0.137424
0.13739
0.137359
0.137329
0.137302
0.137276
0.137253
0.137231
0.137211
0.137192
0.137175
0.137159
0.137146
0.138903
0.138913
0.138912
0.1389
0.138878
0.138847
0.138809
0.138766
0.138719
0.138668
0.138614
0.138559
0.138502
0.138445
0.138388
0.138332
0.138276
0.138221
0.138168
0.138116
0.138067
0.138019
0.137974
0.137932
0.137892
0.137854
0.137818
0.137785
0.137753
0.137724
0.137697
0.137672
0.137648
0.137627
0.137607
0.137589
0.137572
0.137556
0.137542
0.137529
0.137519
0.13906
0.13907
0.13907
0.139059
0.139039
0.139012
0.138979
0.13894
0.138898
0.138853
0.138805
0.138756
0.138706
0.138655
0.138604
0.138554
0.138505
0.138457
0.13841
0.138364
0.138321
0.138279
0.13824
0.138203
0.138168
0.138135
0.138104
0.138075
0.138048
0.138023
0.137999
0.137978
0.137958
0.137939
0.137923
0.137907
0.137893
0.13788
0.137869
0.137858
0.13785
0.139202
0.139212
0.139212
0.139203
0.139186
0.139162
0.139132
0.139098
0.139061
0.139021
0.138979
0.138935
0.13889
0.138845
0.138801
0.138756
0.138713
0.13867
0.138629
0.138589
0.13855
0.138514
0.13848
0.138448
0.138417
0.138388
0.138361
0.138336
0.138313
0.138291
0.138271
0.138252
0.138235
0.13822
0.138205
0.138192
0.138181
0.13817
0.13816
0.138151
0.138144
0.139331
0.13934
0.139341
0.139333
0.139319
0.139298
0.139272
0.139242
0.13921
0.139174
0.139137
0.139098
0.139059
0.139019
0.13898
0.13894
0.138902
0.138864
0.138828
0.138793
0.13876
0.138728
0.138698
0.138669
0.138643
0.138618
0.138594
0.138572
0.138552
0.138533
0.138516
0.1385
0.138485
0.138472
0.13846
0.138449
0.138439
0.13843
0.138422
0.138414
0.138409
0.139447
0.139456
0.139458
0.139452
0.139439
0.139422
0.1394
0.139374
0.139345
0.139315
0.139282
0.139248
0.139214
0.139179
0.139144
0.139109
0.139076
0.139043
0.139011
0.13898
0.138951
0.138923
0.138897
0.138872
0.138849
0.138827
0.138807
0.138788
0.13877
0.138754
0.138739
0.138725
0.138713
0.138701
0.138691
0.138681
0.138673
0.138665
0.138659
0.138653
0.138648
0.139552
0.139561
0.139563
0.139559
0.139549
0.139535
0.139516
0.139494
0.13947
0.139444
0.139415
0.139386
0.139356
0.139326
0.139295
0.139265
0.139236
0.139207
0.139179
0.139152
0.139127
0.139103
0.13908
0.139059
0.139038
0.139019
0.139002
0.138985
0.13897
0.138956
0.138943
0.138931
0.13892
0.13891
0.138902
0.138894
0.138886
0.13888
0.138874
0.138869
0.138866
0.139647
0.139656
0.13966
0.139657
0.13965
0.139638
0.139623
0.139606
0.139585
0.139563
0.139539
0.139514
0.139489
0.139463
0.139437
0.139411
0.139385
0.13936
0.139336
0.139313
0.139291
0.13927
0.139251
0.139232
0.139215
0.139198
0.139183
0.139168
0.139155
0.139143
0.139132
0.139122
0.139113
0.139104
0.139097
0.13909
0.139084
0.139079
0.139074
0.13907
0.139067
0.139733
0.139743
0.139747
0.139747
0.139742
0.139734
0.139722
0.139708
0.139692
0.139674
0.139655
0.139635
0.139614
0.139592
0.13957
0.139548
0.139527
0.139506
0.139486
0.139466
0.139447
0.13943
0.139413
0.139397
0.139382
0.139368
0.139355
0.139343
0.139332
0.139321
0.139312
0.139303
0.139296
0.139289
0.139282
0.139277
0.139272
0.139268
0.139264
0.139261
0.139259
0.139811
0.139821
0.139826
0.139827
0.139825
0.139821
0.139813
0.139803
0.139792
0.139778
0.139764
0.139748
0.139732
0.139715
0.139698
0.139681
0.139664
0.139647
0.139631
0.139615
0.139601
0.139586
0.139573
0.13956
0.139548
0.139537
0.139526
0.139517
0.139508
0.1395
0.139492
0.139486
0.13948
0.139475
0.13947
0.139467
0.139463
0.139461
0.139459
0.139457
0.139456
0.13988
0.13989
0.139896
0.139899
0.139899
0.139897
0.139893
0.139888
0.139881
0.139872
0.139863
0.139853
0.139842
0.139831
0.139819
0.139808
0.139796
0.139785
0.139774
0.139764
0.139754
0.139744
0.139735
0.139727
0.139719
0.139711
0.139705
0.139698
0.139693
0.139687
0.139683
0.139678
0.139675
0.139672
0.139669
0.139667
0.139666
0.139664
0.139664
0.139663
0.139663
0.139938
0.139945
0.13995
0.139952
0.139953
0.139952
0.139951
0.139948
0.139944
0.13994
0.139936
0.13993
0.139925
0.139919
0.139913
0.139907
0.139901
0.139895
0.139889
0.139883
0.139878
0.139872
0.139867
0.139863
0.139858
0.139854
0.13985
0.139847
0.139844
0.139841
0.139838
0.139836
0.139833
0.139832
0.13983
0.139828
0.139827
0.139826
0.139825
0.139825
0.139824
0.139973
0.139976
0.139978
0.139979
0.139979
0.139979
0.139978
0.139977
0.139975
0.139973
0.13997
0.139967
0.139964
0.139961
0.139958
0.139954
0.13995
0.139946
0.139943
0.139939
0.139935
0.139932
0.139928
0.139925
0.139922
0.139919
0.139916
0.139914
0.139911
0.139909
0.139907
0.139905
0.139903
0.139901
0.139899
0.139898
0.139896
0.139895
0.139893
0.139892
0.139891
0.139989
0.139991
0.139992
0.139992
0.139993
0.139993
0.139992
0.139992
0.139991
0.13999
0.139989
0.139987
0.139985
0.139983
0.139981
0.139978
0.139975
0.139972
0.139969
0.139965
0.139961
0.139957
0.139953
0.139948
0.139944
0.13994
0.139935
0.139932
0.139928
0.139924
0.139921
0.139918
0.139915
0.139913
0.139911
0.139909
0.139907
0.139905
0.139903
0.139901
0.139899
0.139998
0.139998
0.139999
0.139999
0.139999
0.139999
0.139999
0.139999
0.139999
0.139998
0.139998
0.139997
0.139996
0.139995
0.139994
0.139993
0.139991
0.139988
0.139985
0.139981
0.139975
0.139967
0.139959
0.13995
0.139942
0.139934
0.139927
0.13992
0.139914
0.139908
0.139902
0.139897
0.139892
0.139887
0.139882
0.139878
0.139874
0.13987
0.139867
0.139864
0.139861
0.00194604
0.00281312
0.0034894
0.00407783
0.00462753
0.00515682
0.00567667
0.00619785
0.00672918
0.00728324
0.00787174
0.00850325
0.00918382
0.00991822
0.0107094
0.0115609
0.0124765
0.0134579
0.0145057
0.0156187
0.0167954
0.0180342
0.0193336
0.0206913
0.0221048
0.0235708
0.0250864
0.0266488
0.0282551
0.0299025
0.0315877
0.0333076
0.0350593
0.0368418
0.0386534
0.0404831
0.042309
0.044139
0.0460951
0.0484542
0.0515201
0.0553633
0.0597081
0.064121
0.0682728
0.072029
0.0753888
0.0784025
0.0811263
0.0836077
0.0858848
0.0879881
0.0899424
0.0917679
0.0934815
0.0950971
0.0966263
0.0980792
0.0994642
0.100789
0.102059
0.103281
0.10446
0.1056
0.106705
0.10778
0.108828
0.109853
0.110856
0.111841
0.112803
0.113784
0.114596
0.116086
0.00288256
0.00348739
0.00401176
0.00452525
0.00502036
0.00549773
0.00596356
0.0064272
0.00689472
0.00738426
0.00790711
0.00846956
0.00907648
0.009733
0.0104421
0.0112108
0.012045
0.0129474
0.0139185
0.0149573
0.0160625
0.0172335
0.0184691
0.0197673
0.0211248
0.0225383
0.0240046
0.025521
0.0270846
0.0286921
0.0303401
0.0320252
0.0337442
0.035496
0.0372794
0.0390834
0.0408853
0.0426888
0.0446109
0.0469329
0.0499804
0.053852
0.0582833
0.0628252
0.0671211
0.0710151
0.0744968
0.0776147
0.0804268
0.0829829
0.0853232
0.0874797
0.0894785
0.0913411
0.093085
0.0947252
0.0962737
0.0977411
0.0991364
0.100467
0.101741
0.102963
0.104139
0.105273
0.106371
0.107436
0.108472
0.109484
0.110472
0.111443
0.112389
0.113353
0.11415
0.115614
0.0039502
0.00457381
0.00509053
0.00552813
0.00592428
0.00630425
0.00667882
0.00705518
0.00743349
0.00784794
0.0082969
0.00877976
0.00929945
0.00986143
0.0104677
0.0111335
0.0118662
0.0126676
0.0135383
0.0144775
0.0154858
0.0165647
0.0177138
0.0189307
0.0202118
0.0215533
0.0229525
0.0244068
0.025913
0.0274673
0.0290659
0.0307049
0.0323813
0.0340935
0.0358402
0.037612
0.0393863
0.0411592
0.0430297
0.0452644
0.0482038
0.0519976
0.0564285
0.0610538
0.0654869
0.069536
0.0731675
0.0764207
0.0793517
0.0820117
0.0844423
0.0866773
0.088744
0.0906652
0.0924596
0.0941429
0.095728
0.0972261
0.0986466
0.0999981
0.101288
0.102522
0.103706
0.104845
0.105945
0.107009
0.108043
0.109048
0.11003
0.110991
0.111927
0.112879
0.113666
0.115107
0.00501409
0.00562158
0.00617334
0.00665394
0.00707771
0.00746619
0.00783343
0.00818879
0.00853807
0.00889453
0.00926726
0.00966181
0.0100826
0.0105352
0.0110182
0.011569
0.0121835
0.0128602
0.0136007
0.0144055
0.0152804
0.0162315
0.0172587
0.018359
0.0195285
0.0207641
0.0220646
0.0234279
0.0248502
0.0263268
0.027853
0.0294252
0.0310403
0.032696
0.0343907
0.0361166
0.0378529
0.0395879
0.0413928
0.0434987
0.0462457
0.0498454
0.0541649
0.0587993
0.0633389
0.0675449
0.071346
0.0747621
0.077842
0.0806355
0.083185
0.0855255
0.0876855
0.0896891
0.0915562
0.0933034
0.0949446
0.0964915
0.0979544
0.0993424
0.100663
0.101923
0.103129
0.104286
0.105399
0.106474
0.107514
0.108524
0.109506
0.110467
0.111399
0.112345
0.113128
0.114553
0.00619922
0.00675462
0.00729299
0.00779444
0.00825973
0.00869879
0.00911863
0.00952393
0.00991855
0.0103073
0.0106957
0.0110886
0.0114906
0.0119065
0.012338
0.012798
0.0132955
0.0138359
0.0144243
0.0150632
0.0157715
0.0165592
0.0174224
0.0183583
0.0193643
0.0204414
0.0215934
0.0228183
0.0241112
0.0254664
0.0268788
0.0283463
0.0298659
0.0314341
0.033048
0.0347011
0.0363765
0.0380572
0.0397826
0.0417302
0.0442138
0.0475006
0.0515712
0.0561003
0.0606777
0.0650146
0.068988
0.0725848
0.0758386
0.0787933
0.08149
0.0839636
0.0862435
0.0883549
0.0903188
0.0921527
0.0938714
0.0954874
0.0970118
0.0984543
0.0998233
0.101126
0.102369
0.103558
0.104698
0.105795
0.106854
0.107879
0.108873
0.109842
0.11078
0.11173
0.112514
0.113934
0.00756124
0.00808641
0.00861071
0.0091154
0.00960009
0.0100739
0.0105425
0.0110077
0.0114698
0.0119296
0.0123876
0.0128447
0.0133017
0.0137603
0.0142217
0.0146894
0.0151682
0.0156631
0.0161795
0.0167214
0.0172981
0.0179205
0.0185957
0.0193281
0.0201199
0.0209836
0.021932
0.0229586
0.0240582
0.0252259
0.0264593
0.0277611
0.0291285
0.0305558
0.0320384
0.03357
0.0351403
0.0367314
0.0383542
0.0401225
0.0422925
0.0451571
0.0488198
0.0530814
0.0575729
0.0619677
0.0660824
0.0698564
0.073296
0.076432
0.0792997
0.0819316
0.0843572
0.0866018
0.0886873
0.0906319
0.0924509
0.0941578
0.0957645
0.0972814
0.0987175
0.100081
0.101377
0.102614
0.103797
0.104932
0.106024
0.107077
0.108095
0.109084
0.110039
0.111001
0.111797
0.113225
0.00922076
0.00975276
0.0102955
0.0108257
0.0113394
0.0118454
0.0123517
0.0128615
0.0133762
0.013896
0.0144203
0.014948
0.0154779
0.0160086
0.0165388
0.0170679
0.0175961
0.0181246
0.0186553
0.0191905
0.0197339
0.0202912
0.0208689
0.0214735
0.0221103
0.0227875
0.0235166
0.0243042
0.0251537
0.0260659
0.0270473
0.0281133
0.0292557
0.0304671
0.0317428
0.0330773
0.0344708
0.0359093
0.0373838
0.0389476
0.0407746
0.0431345
0.0462278
0.0500135
0.054223
0.0585303
0.0626965
0.0666017
0.0702102
0.0735282
0.0765776
0.0793847
0.0819759
0.0843756
0.0866055
0.0886836
0.0906255
0.0924453
0.0941556
0.0957676
0.0972909
0.0987335
0.100103
0.101406
0.102648
0.103837
0.104977
0.106073
0.107129
0.108152
0.109136
0.110124
0.110941
0.112393
0.0114028
0.0119756
0.0125743
0.0131649
0.0137375
0.0142965
0.0148503
0.0154035
0.015959
0.016519
0.0170844
0.0176556
0.0182318
0.018812
0.0193949
0.0199786
0.0205615
0.021142
0.0217192
0.0222926
0.0228623
0.0234295
0.0239965
0.0245666
0.0251435
0.0257319
0.0263386
0.026971
0.0276358
0.0283387
0.0290857
0.0298879
0.0307513
0.0316774
0.0326668
0.0337169
0.0348512
0.0360533
0.0373061
0.0386209
0.0400869
0.0419042
0.0443038
0.0473891
0.0510483
0.055024
0.0590575
0.0629718
0.0666754
0.0701347
0.0733467
0.0763235
0.0790845
0.0816499
0.0840387
0.0862671
0.0883501
0.0903017
0.092135
0.0938616
0.0954913
0.0970324
0.0984927
0.0998793
0.101199
0.102459
0.103664
0.104819
0.105929
0.107
0.108027
0.109055
0.109904
0.1114
0.0144177
0.0150616
0.0157434
0.0164164
0.0170662
0.0176933
0.0183047
0.0189056
0.0194994
0.0200894
0.0206783
0.0212678
0.0218592
0.0224531
0.0230498
0.0236489
0.0242498
0.0248512
0.0254518
0.0260502
0.0266449
0.0272349
0.0278194
0.0283984
0.0289725
0.0295431
0.0301125
0.0306841
0.0312623
0.0318518
0.0324576
0.0330866
0.0337461
0.0344423
0.0351806
0.0359636
0.0368028
0.037702
0.038656
0.039663
0.0407521
0.0420449
0.043723
0.045951
0.0487765
0.0520857
0.05568
0.0593626
0.0629875
0.066468
0.0697616
0.0728556
0.0757549
0.0784695
0.0810108
0.08339
0.085619
0.0877112
0.0896792
0.091534
0.0932848
0.0949396
0.0965063
0.0979927
0.0994059
0.100752
0.102038
0.103268
0.104446
0.105581
0.106666
0.107747
0.108641
0.110202
0.0187102
0.0193862
0.0201252
0.0208598
0.0215702
0.0222522
0.02291
0.023548
0.0241699
0.0247788
0.0253779
0.0259698
0.0265566
0.0271402
0.027722
0.0283032
0.0288847
0.0294667
0.0300493
0.0306322
0.0312148
0.031796
0.0323748
0.03295
0.0335206
0.0340858
0.0346452
0.0351991
0.0357484
0.0362946
0.03684
0.0373877
0.0379418
0.0385069
0.039088
0.0396895
0.0403178
0.0409798
0.0416787
0.0424156
0.0431968
0.0440665
0.0451246
0.0465123
0.0483566
0.0506931
0.0534739
0.0565618
0.0597965
0.0630502
0.0662345
0.0693046
0.0722408
0.0750322
0.0776746
0.080168
0.0825182
0.0847361
0.0868315
0.0888126
0.0906863
0.0924592
0.094139
0.0957336
0.0972503
0.098695
0.100073
0.10139
0.102649
0.103859
0.105015
0.106163
0.107112
0.108759
0.0246769
0.0252562
0.0259583
0.0266871
0.0274057
0.0281005
0.0287699
0.0294159
0.0300411
0.0306479
0.031239
0.031817
0.032384
0.0329422
0.0334932
0.0340387
0.0345801
0.0351188
0.0356557
0.0361917
0.0367273
0.0372627
0.0377981
0.038333
0.0388671
0.0393994
0.039929
0.0404552
0.0409772
0.0414945
0.042007
0.042515
0.0430196
0.0435221
0.044025
0.0445307
0.0450426
0.0455649
0.0461016
0.0466561
0.0472307
0.0478372
0.0485127
0.0493303
0.0503916
0.0517886
0.0535736
0.0557319
0.0581875
0.0608385
0.0635821
0.0663588
0.0691197
0.0718188
0.0744275
0.0769276
0.0793154
0.0815966
0.0837729
0.0858453
0.0878154
0.0896864
0.0914656
0.0931605
0.0947767
0.0963189
0.0977909
0.0991972
0.100542
0.101834
0.103068
0.104291
0.105303
0.10705
0.0324594
0.0328807
0.0333936
0.0339916
0.0346294
0.0352704
0.0358996
0.0365116
0.037105
0.0376802
0.0382387
0.0387821
0.039312
0.0398299
0.0403373
0.0408357
0.0413264
0.0418106
0.0422896
0.0427644
0.0432363
0.043706
0.0441744
0.0446421
0.0451095
0.045577
0.0460445
0.0465118
0.0469786
0.0474441
0.0479078
0.0483691
0.0488274
0.0492825
0.0497344
0.0501835
0.0506307
0.0510773
0.0515251
0.0519763
0.0524325
0.0528968
0.0533789
0.0539042
0.0545206
0.0552928
0.0562885
0.0575571
0.0591116
0.0609277
0.0629509
0.0651247
0.0673968
0.0697162
0.07204
0.0743313
0.0765808
0.0787863
0.080929
0.082997
0.0849835
0.0868856
0.0887124
0.0904673
0.0921512
0.0937652
0.0953104
0.0967898
0.0982086
0.0995743
0.10088
0.102177
0.10325
0.105098
0.0418044
0.0420995
0.042464
0.0428373
0.0432465
0.043732
0.0442523
0.0447773
0.0452963
0.0458056
0.046303
0.0467877
0.0472598
0.0477198
0.0481689
0.0486079
0.0490376
0.0494591
0.049873
0.0502803
0.0506821
0.0510791
0.0514724
0.0518628
0.0522511
0.0526382
0.0530245
0.0534108
0.0537975
0.0541847
0.0545728
0.0549614
0.0553503
0.0557392
0.0561276
0.056515
0.0569013
0.0572861
0.0576697
0.0580523
0.0584343
0.0588166
0.0592008
0.0595932
0.0600087
0.0604747
0.0610296
0.0617174
0.0625771
0.063633
0.064888
0.0663277
0.0679272
0.0696539
0.0714723
0.0733452
0.075246
0.0771583
0.0790637
0.0809452
0.0827876
0.0845809
0.0863462
0.0880692
0.089741
0.0913575
0.0929155
0.0944165
0.0958675
0.0972737
0.0986248
0.0999706
0.101086
0.103011
0.0524888
0.0526448
0.0528672
0.0530968
0.053328
0.0535655
0.0538201
0.0541432
0.0545237
0.0549239
0.0553235
0.0557174
0.056105
0.0564859
0.0568592
0.0572242
0.0575805
0.0579286
0.058269
0.0586024
0.0589294
0.0592505
0.0595663
0.0598774
0.0601846
0.0604884
0.0607898
0.0610893
0.0613878
0.0616859
0.0619842
0.0622832
0.0625833
0.062885
0.0631884
0.0634934
0.0637999
0.0641078
0.0644167
0.0647264
0.0650367
0.0653474
0.0656585
0.0659707
0.0662872
0.0666155
0.0669694
0.0673697
0.0678421
0.0684129
0.069104
0.0699288
0.0708922
0.0719896
0.0732092
0.0745321
0.0759372
0.0774063
0.0789217
0.080466
0.0820219
0.0835745
0.0851218
0.0866574
0.0881728
0.0896611
0.0911136
0.0925346
0.0939358
0.0953111
0.0966435
0.0979804
0.0990902
0.101026
0.064245
0.0642557
0.0643251
0.0644013
0.0644784
0.0645596
0.0646485
0.0647492
0.0648646
0.0649961
0.0651734
0.0654113
0.0656814
0.0659599
0.0662348
0.0665042
0.0667691
0.0670302
0.0672873
0.0675398
0.067787
0.0680287
0.068265
0.0684962
0.0687228
0.0689453
0.0691642
0.06938
0.0695931
0.0698041
0.0700137
0.0702224
0.0704308
0.0706397
0.0708495
0.0710608
0.0712741
0.0714898
0.071708
0.071929
0.0721526
0.072379
0.072608
0.0728395
0.0730739
0.0733123
0.0735582
0.0738178
0.0741012
0.0744218
0.0747951
0.0752362
0.0757585
0.0763718
0.0770813
0.0778868
0.0787832
0.0797629
0.0808161
0.0819316
0.083097
0.084299
0.0855279
0.086776
0.088035
0.0892973
0.0905535
0.0917993