/*--------------------------------*- C++ -*----------------------------------*\
| =========                 |                                                 |
| \\      /  F ield         | OpenFOAM: The Open Source CFD Toolbox           |
|  \\    /   O peration     | Version:  5.x                                   |
|   \\  /    A nd           | Web:      www.OpenFOAM.org                      |
|    \\/     M anipulation  |                                                 |
\*---------------------------------------------------------------------------*/
FoamFile
{
    version     2.0;
    format      ascii;
    class       volScalarField;
    location    "200";
    object      nuTilda;
}
// * * * * * * * * * * * * * * * * * * * * * * * * * * * * * * * * * * * * * //

dimensions      [0 2 -1 0 0 0 0];

internalField   nonuniform List<scalar> 
41860
(
3.63963e-05
4.24739e-05
5.55482e-05
5.89051e-05
5.37134e-05
4.93374e-05
4.35879e-05
3.88221e-05
3.49885e-05
3.18805e-05
2.9203e-05
2.76347e-05
2.59144e-05
2.55221e-05
2.41767e-05
2.38502e-05
2.30471e-05
2.2506e-05
2.2163e-05
2.0915e-05
2.07812e-05
3.01208e-05
2.02787e-05
3.18493e-05
1.98942e-05
3.41104e-05
3.5303e-05
1.93138e-05
3.58054e-05
3.60134e-05
2.87389e-05
2.00091e-05
2.00487e-05
2.81059e-05
2.00112e-05
2.77451e-05
2.00318e-05
2.00637e-05
1.92128e-05
3.31379e-05
1.99385e-05
1.99625e-05
3.60586e-05
3.63654e-05
1.83203e-05
2.82495e-05
3.63516e-05
3.65761e-05
3.66163e-05
2.77943e-05
2.74517e-05
2.74019e-05
2.72344e-05
3.6648e-05
3.68255e-05
1.84203e-05
1.84256e-05
2.71254e-05
1.85213e-05
2.69395e-05
3.65668e-05
2.68181e-05
2.01258e-05
2.66776e-05
2.01716e-05
3.60179e-05
1.89787e-05
1.90306e-05
3.57716e-05
2.73267e-05
1.91608e-05
3.50599e-05
3.45262e-05
2.01632e-05
1.92627e-05
3.37714e-05
1.93106e-05
1.92003e-05
1.9113e-05
2.83059e-05
1.91877e-05
1.65466e-05
0.000182121
0.000217594
0.000289561
0.000308301
0.0002808
0.000257524
0.000226798
0.000201299
0.000180778
0.000164142
0.00014981
0.000141405
0.000132165
0.000130025
0.000122787
0.000121002
0.000116395
0.000112899
0.00011052
0.000104455
0.000103059
0.000103584
9.76601e-05
0.000101134
9.44551e-05
9.95642e-05
9.8271e-05
9.29297e-05
9.72793e-05
9.71141e-05
9.48892e-05
8.92339e-05
8.91333e-05
9.43071e-05
8.94218e-05
9.46541e-05
9.02918e-05
9.07338e-05
9.37753e-05
9.92974e-05
9.50652e-05
9.6857e-05
9.30181e-05
9.31015e-05
8.78304e-05
9.07038e-05
9.31496e-05
9.32584e-05
9.33798e-05
9.0889e-05
9.09357e-05
9.11056e-05
9.12605e-05
9.42768e-05
9.46085e-05
8.95743e-05
9.00288e-05
9.25564e-05
9.06871e-05
9.31527e-05
9.64664e-05
9.38411e-05
8.94281e-05
9.44954e-05
9.012e-05
9.79181e-05
9.32088e-05
9.36141e-05
9.85832e-05
9.67896e-05
9.41527e-05
9.91389e-05
9.94233e-05
9.25288e-05
9.4286e-05
9.90613e-05
9.41169e-05
9.37518e-05
9.32392e-05
9.57432e-05
9.34409e-05
1.99911e-05
0.000230121
0.000270627
0.00036674
0.000393128
0.000358267
0.000328051
0.00028805
0.000254775
0.000228035
0.000206563
0.000188658
0.000178412
0.000169483
0.000167804
0.000165179
0.000164791
0.000164681
0.000164753
0.000164642
0.000164367
0.000163681
0.000166478
0.000163135
0.000165707
0.000162345
0.000164378
0.000164057
0.000160247
0.00016227
0.00016122
0.0001607
0.000156315
0.000155338
0.000157897
0.00015371
0.000156258
0.000152426
0.00015194
0.000152369
0.000154253
0.000151898
0.000152292
0.000152647
0.000152402
0.000150045
0.000152154
0.000151778
0.00015161
0.000151473
0.000151531
0.000151455
0.000151424
0.000151416
0.000151339
0.000151402
0.000149567
0.00014977
0.000151855
0.000150145
0.000152227
0.000152445
0.000152697
0.000150009
0.000153145
0.000150489
0.00015357
0.000151948
0.000152202
0.000154063
0.000154409
0.000152555
0.000154414
0.000154567
0.000151721
0.000152294
0.000153946
0.000151713
0.000151036
0.000150306
0.000150379
0.000150392
2.41332e-05
0.000315981
0.000361137
0.000443566
0.000486313
0.000470881
0.000432292
0.000396537
0.000367215
0.000342231
0.00032053
0.00030252
0.000284578
0.000280623
0.000275538
0.000279743
0.000277107
0.000277791
0.000276802
0.000274868
0.000274031
0.000271079
0.000271247
0.00026729
0.000266628
0.000263099
0.000261859
0.000260125
0.000255892
0.000255346
0.000252858
0.000251086
0.000247361
0.000245182
0.000244785
0.000241293
0.00024108
0.000237975
0.000236606
0.000235319
0.000235354
0.000233599
0.000233132
0.000232614
0.00023169
0.000229984
0.00023086
0.000229825
0.000229304
0.000228832
0.000228912
0.000228584
0.000228322
0.000228102
0.000227496
0.000227372
0.00022644
0.000226467
0.000227808
0.000226637
0.000228017
0.000227808
0.000228387
0.000227316
0.000228761
0.000227692
0.00022874
0.000228085
0.000228284
0.000229078
0.000229664
0.000228467
0.000229187
0.00022924
0.000228019
0.000227704
0.000228032
0.000226654
0.000225517
0.000224406
0.000222607
0.000224181
2.91149e-05
0.000440199
0.000534464
0.000655241
0.000718576
0.000732215
0.000678244
0.000638556
0.000600506
0.000563252
0.000527897
0.000496666
0.000463037
0.000448834
0.00043454
0.000435574
0.000427706
0.000425055
0.000420379
0.000414985
0.000411431
0.000405297
0.000402105
0.000396226
0.000392194
0.000387275
0.000382857
0.00037915
0.000373708
0.000370529
0.000366245
0.000362607
0.00035832
0.000354607
0.000351879
0.000347976
0.00034564
0.000342256
0.000339851
0.000337445
0.000335979
0.00033397
0.000332779
0.00033108
0.000329166
0.000327448
0.000326986
0.000325617
0.000324647
0.000323733
0.000323242
0.000322545
0.000321972
0.000321452
0.000320787
0.000320428
0.000319827
0.000319652
0.000320141
0.000319512
0.000320093
0.000319957
0.000320292
0.00031999
0.000320533
0.000320216
0.000320521
0.00032028
0.000320397
0.000320598
0.000320969
0.000320269
0.000320335
0.000320241
0.000319447
0.000318763
0.000318257
0.000317082
0.000315418
0.000313851
0.000310463
0.000313072
3.50988e-05
0.000607579
0.00077115
0.00101118
0.00111202
0.00113371
0.00104839
0.000981413
0.000916935
0.000854776
0.000796517
0.00074464
0.000691547
0.000661913
0.000635467
0.000629485
0.000614563
0.000606577
0.0005966
0.000586516
0.000578668
0.000568405
0.000561211
0.000552112
0.00054448
0.000536932
0.000529277
0.000522972
0.000515428
0.000509549
0.000503072
0.000497288
0.000491488
0.000485922
0.000481174
0.000476019
0.000471898
0.000467477
0.000463859
0.000460346
0.000457585
0.000454843
0.000452939
0.000449536
0.000446261
0.000444002
0.000442438
0.000440539
0.000438999
0.00043753
0.000436422
0.000435262
0.000434292
0.000433389
0.000432546
0.000431883
0.000431269
0.000430845
0.000430748
0.000430302
0.000430351
0.000430208
0.0004303
0.00043022
0.000430345
0.000430242
0.000430251
0.000430119
0.000430129
0.000429966
0.000430122
0.00042958
0.000429222
0.000428953
0.000428089
0.000427133
0.000426021
0.000424703
0.000422436
0.000420338
0.000415648
0.000418715
4.22764e-05
0.000847043
0.00106495
0.00146503
0.00161527
0.00162777
0.00150273
0.00139765
0.00129941
0.00120705
0.00112165
0.00104537
0.000970144
0.000921897
0.000880569
0.000864619
0.000840777
0.000825711
0.000808948
0.000792954
0.000779492
0.000764096
0.000752131
0.000738737
0.000726991
0.000715825
0.000704583
0.000695053
0.000684612
0.000675786
0.00066665
0.000658344
0.000650393
0.000642604
0.000635744
0.000628785
0.000622831
0.000616884
0.000611828
0.000606992
0.000602949
0.000599157
0.000596479
0.00059093
0.000585861
0.000582616
0.000580025
0.000577372
0.000575121
0.000572962
0.000571189
0.000569453
0.000567988
0.000566607
0.000565434
0.000564384
0.000563525
0.000562787
0.000562262
0.000561724
0.000561403
0.000561144
0.000561008
0.000560903
0.000560781
0.000560652
0.000560477
0.000560271
0.000560141
0.00055971
0.000559661
0.000559052
0.000558356
0.000557871
0.000556735
0.000555457
0.000553807
0.000552152
0.000549205
0.000546487
0.000540712
0.000543656
5.08718e-05
0.00118924
0.00142265
0.00200278
0.00221035
0.0022057
0.00203557
0.00188666
0.00175047
0.00162456
0.00150901
0.00140545
0.00130555
0.00123576
0.00117651
0.00114763
0.00111268
0.00108865
0.00106346
0.00104016
0.00101972
0.000998034
0.000980306
0.000961553
0.000944911
0.000929211
0.000913744
0.000900295
0.000886212
0.000873949
0.000861611
0.000850293
0.000839643
0.000829186
0.000819893
0.00081066
0.000802606
0.000794726
0.000787947
0.000781496
0.000776019
0.000770908
0.00076734
0.000759254
0.000751898
0.000747255
0.000743529
0.000739894
0.000736759
0.000733751
0.000731206
0.000728761
0.00072668
0.000724704
0.00072306
0.000721524
0.000720263
0.000719126
0.0007182
0.000717396
0.000716739
0.000716264
0.000715879
0.000715628
0.000715285
0.000715012
0.000714649
0.000714261
0.000713945
0.000713255
0.000712976
0.000712172
0.000711134
0.000710382
0.000708871
0.000707193
0.000704983
0.000702872
0.000699171
0.000695723
0.000689086
0.000691201
6.11448e-05
0.00164171
0.00186054
0.00262958
0.00290142
0.00287465
0.00265441
0.00245705
0.00227942
0.002117
0.00196853
0.00183495
0.00170773
0.00161342
0.00153283
0.0014877
0.00143899
0.00140375
0.00136821
0.00133591
0.00130695
0.00127755
0.00125282
0.00122751
0.00120495
0.00118371
0.00116315
0.00114496
0.00112642
0.00111005
0.00109384
0.0010789
0.00106496
0.00105129
0.00103909
0.00102709
0.00101653
0.00100628
0.000997418
0.000988998
0.000981821
0.000975094
0.000970464
0.00095951
0.000949303
0.000942811
0.000937706
0.000932832
0.0009286
0.000924545
0.000921072
0.000917753
0.000914905
0.000912191
0.000909927
0.000907781
0.000905988
0.000904345
0.000902961
0.000901759
0.000900722
0.00089993
0.000899242
0.000898756
0.000898162
0.000897664
0.000897064
0.000896417
0.00089586
0.000894871
0.00089431
0.000893228
0.000891797
0.000890711
0.000888754
0.000886596
0.000883759
0.000881103
0.000876582
0.000872267
0.000865085
0.000865431
7.33941e-05
0.00222753
0.00240549
0.00335829
0.00370102
0.00364778
0.00337207
0.0031217
0.00289915
0.00269727
0.00251307
0.00234669
0.00218932
0.0020674
0.00196178
0.00189662
0.00183092
0.00178173
0.00173346
0.00169007
0.00165072
0.00161185
0.00157859
0.00154529
0.0015155
0.00148752
0.00146077
0.00143682
0.00141288
0.00139152
0.00137062
0.00135131
0.00133337
0.00131582
0.00130011
0.00128474
0.00127114
0.00125801
0.00124661
0.00123579
0.00122654
0.00121784
0.0012119
0.00119781
0.00118412
0.00117524
0.00116839
0.00116197
0.00115637
0.00115103
0.00114641
0.00114202
0.00113822
0.00113459
0.00113153
0.00112862
0.00112615
0.00112387
0.00112192
0.00112019
0.00111868
0.00111746
0.00111639
0.00111557
0.00111467
0.00111386
0.00111296
0.00111198
0.00111111
0.00110976
0.00110885
0.00110742
0.00110552
0.00110402
0.00110155
0.00109883
0.00109528
0.001092
0.0010866
0.00108125
0.00107401
0.00107134
8.79584e-05
0.00297905
0.0030927
0.00420655
0.00462629
0.00454196
0.00420481
0.00389659
0.0036255
0.00338111
0.0031583
0.00295623
0.00276572
0.00261302
0.00247852
0.00238908
0.00230255
0.002236
0.00217211
0.00211498
0.00206294
0.00201244
0.00196872
0.00192565
0.001887
0.0018508
0.00181647
0.00178551
0.00175497
0.00172753
0.00170093
0.00167629
0.00165348
0.00163123
0.00161123
0.00159176
0.00157447
0.00155782
0.0015433
0.00152954
0.00151773
0.0015066
0.00149903
0.00148157
0.00146373
0.00145177
0.00144271
0.00143435
0.00142705
0.00142011
0.00141408
0.00140836
0.00140336
0.0013986
0.00139453
0.00139068
0.00138736
0.00138427
0.00138161
0.0013792
0.00137709
0.0013753
0.00137373
0.00137248
0.00137117
0.00136997
0.00136868
0.00136729
0.00136602
0.00136423
0.00136288
0.00136102
0.00135858
0.00135657
0.00135351
0.00135016
0.00134581
0.0013418
0.00133551
0.00132891
0.00132231
0.00131505
0.000105215
0.003937
0.0039561
0.00519629
0.00569827
0.00557732
0.00517201
0.00480076
0.00447732
0.0041873
0.00392295
0.00368223
0.00345546
0.00326875
0.00310149
0.00298321
0.00287139
0.00278334
0.00270024
0.00262608
0.0025585
0.00249363
0.00243703
0.00238195
0.00233239
0.0022861
0.00224243
0.00220289
0.00216426
0.00212937
0.0020958
0.00206463
0.00203584
0.00200786
0.00198262
0.00195814
0.00193629
0.00191533
0.00189696
0.00187959
0.00186461
0.00185046
0.0018408
0.00181978
0.00179708
0.00178122
0.00176932
0.00175853
0.0017491
0.00174019
0.00173239
0.00172501
0.00171852
0.00171236
0.00170703
0.00170199
0.00169759
0.0016935
0.00168992
0.00168666
0.00168377
0.00168126
0.00167903
0.00167721
0.0016754
0.00167369
0.00167191
0.00167001
0.00166824
0.00166592
0.00166402
0.00166165
0.00165858
0.00165596
0.00165223
0.00164815
0.00164293
0.00163809
0.0016309
0.00162281
0.00161783
0.00160411
0.000125575
0.00515146
0.00503186
0.00635335
0.00694212
0.00677748
0.00629639
0.00585652
0.00547681
0.00513806
0.00482924
0.00454691
0.00428069
0.00405672
0.00385287
0.00370109
0.00355902
0.00344458
0.00333793
0.00324263
0.00315595
0.0030733
0.00300077
0.00293085
0.00286776
0.00280903
0.00275381
0.00270367
0.00265507
0.00261099
0.00256882
0.00252962
0.00249346
0.00245845
0.00242672
0.0023961
0.00236863
0.00234235
0.0023192
0.00229735
0.00227841
0.00226051
0.00224815
0.00222338
0.00219509
0.00217436
0.0021588
0.00214496
0.00213285
0.00212148
0.00211146
0.00210204
0.00209367
0.00208576
0.00207884
0.00207232
0.00206657
0.0020612
0.00205648
0.00205212
0.00204826
0.0020448
0.00204174
0.00203917
0.0020367
0.00203435
0.00203196
0.00202942
0.00202704
0.0020241
0.00202151
0.00201854
0.00201474
0.00201139
0.00200692
0.00200204
0.00199587
0.0019901
0.00198204
0.00197214
0.00197007
0.00194787
0.000149469
0.00668329
0.00636698
0.00770656
0.00838728
0.00816988
0.00760437
0.00708994
0.00664999
0.00625949
0.00590341
0.00557663
0.00526778
0.0050033
0.00475913
0.00456929
0.00439173
0.00424537
0.00411003
0.00398861
0.00387842
0.00377376
0.00368143
0.00359314
0.00351319
0.00343901
0.0033694
0.00330612
0.00324515
0.00318966
0.00313683
0.00308767
0.00304235
0.00299866
0.0029589
0.00292068
0.00288622
0.00285336
0.00282423
0.00279681
0.00277289
0.00275029
0.00273438
0.00270565
0.00267107
0.00264433
0.00262409
0.00260639
0.0025909
0.00257646
0.00256365
0.00255167
0.00254096
0.00253086
0.00252194
0.00251356
0.0025061
0.00249914
0.00249295
0.00248722
0.0024821
0.00247746
0.00247331
0.00246977
0.00246646
0.0024633
0.00246014
0.00245683
0.00245369
0.00245
0.00244659
0.00244289
0.00243827
0.00243407
0.00242877
0.00242301
0.00241583
0.00240902
0.00240017
0.00238808
0.00239051
0.00235793
0.000177329
0.00860582
0.00802157
0.00928775
0.010063
0.00978534
0.00912626
0.00853113
0.00802708
0.00758213
0.0071763
0.00680243
0.00644791
0.00613976
0.00585162
0.0056194
0.00540112
0.0052169
0.00504703
0.00489363
0.0047546
0.00462276
0.00450582
0.0043947
0.00429371
0.00420024
0.00411266
0.00403295
0.00395657
0.00388681
0.00382069
0.00375911
0.00370234
0.00364786
0.00359808
0.00355041
0.00350722
0.00346616
0.00342952
0.00339513
0.0033649
0.00333639
0.0033158
0.00328277
0.00324124
0.00320722
0.00318105
0.00315844
0.00313867
0.00312038
0.00310405
0.00308887
0.0030752
0.00306238
0.00305093
0.00304021
0.0030306
0.00302163
0.00301359
0.00300612
0.00299941
0.00299325
0.00298772
0.00298292
0.00297852
0.00297434
0.00297022
0.00296597
0.0029619
0.00295731
0.00295293
0.00294837
0.00294283
0.00293764
0.00293141
0.00292469
0.00291646
0.00290851
0.00289899
0.00288427
0.00289302
0.00284877
0.000209546
0.0110066
0.0100704
0.0111349
0.0119771
0.0116463
0.0108927
0.0102132
0.00964235
0.00914104
0.00868361
0.00826052
0.00785759
0.00750283
0.0071672
0.00688856
0.00662452
0.00639646
0.00618581
0.00599384
0.00581974
0.0056546
0.00550717
0.00536772
0.00524045
0.00512288
0.00501276
0.00491244
0.00481675
0.00472909
0.00464632
0.00456915
0.00449799
0.00443001
0.00436766
0.00430818
0.00425402
0.00420268
0.00415657
0.00411339
0.00407516
0.00403917
0.00401239
0.00397451
0.0039254
0.00388275
0.00384911
0.00382028
0.00379508
0.00377194
0.00375118
0.00373195
0.00371456
0.0036983
0.00368366
0.00367
0.00365767
0.00364616
0.00363579
0.00362612
0.00361739
0.00360932
0.00360201
0.00359558
0.00358978
0.0035843
0.00357899
0.00357358
0.00356837
0.00356272
0.00355719
0.0035516
0.00354502
0.0035387
0.00353145
0.00352369
0.00351439
0.00350518
0.00349516
0.00347732
0.00349425
0.00343845
0.000246417
0.0139895
0.0126047
0.0132969
0.0141111
0.0137256
0.0129055
0.0121589
0.0115285
0.0109734
0.0104648
0.00999173
0.00953852
0.00913476
0.00874842
0.00841966
0.00810527
0.0078277
0.00756997
0.00733246
0.00711639
0.00691096
0.00672614
0.00655177
0.00639184
0.0062442
0.00610586
0.00597967
0.00585974
0.00574955
0.00564582
0.00554904
0.00545971
0.00537477
0.00529656
0.00522224
0.00515424
0.00508996
0.00503185
0.00497755
0.00492912
0.00488363
0.00484867
0.00480502
0.00474771
0.004695
0.00465212
0.00461542
0.00458333
0.00455406
0.00452768
0.00450336
0.00448125
0.00446067
0.00444199
0.00442462
0.00440885
0.00439413
0.0043808
0.00436835
0.00435706
0.00434657
0.00433699
0.00432848
0.00432086
0.00431372
0.0043069
0.00430006
0.00429347
0.00428655
0.00427964
0.00427283
0.00426509
0.00425748
0.0042491
0.00424022
0.00422984
0.00421927
0.00420892
0.00418742
0.00421417
0.00414965
0.000288059
0.0176767
0.0157345
0.0158371
0.0164514
0.0159685
0.0151073
0.0143383
0.0136881
0.0131033
0.012555
0.0120369
0.0115348
0.0110815
0.0106424
0.0102606
0.00989211
0.00956009
0.00924949
0.00895966
0.00869453
0.00844139
0.00821152
0.00799468
0.0077946
0.00760972
0.00743626
0.00727769
0.0071274
0.0069889
0.00685879
0.0067373
0.006625
0.00651867
0.00642044
0.00632739
0.00624189
0.00616126
0.00608792
0.00601949
0.00595802
0.00590042
0.00585467
0.00580379
0.00573754
0.00567337
0.00561922
0.00557265
0.00553184
0.00549481
0.00546133
0.00543056
0.00540249
0.00537642
0.00535265
0.00533057
0.00531044
0.00529167
0.00527457
0.00525861
0.00524407
0.00523052
0.00521806
0.00520687
0.00519691
0.00518764
0.0051789
0.00517028
0.00516197
0.00515351
0.00514499
0.00513672
0.00512765
0.00511858
0.00510893
0.00509882
0.00508734
0.00507529
0.00506478
0.00503908
0.00507658
0.00501075
0.000334297
0.0222119
0.0195905
0.0188333
0.0190022
0.01834
0.0174391
0.0166831
0.0160647
0.0155033
0.0149562
0.0144181
0.013881
0.0133849
0.0128954
0.0124605
0.0120362
0.0116466
0.0112788
0.010931
0.0106104
0.0103024
0.0100197
0.0097524
0.00950393
0.00927371
0.00905709
0.00885843
0.00867044
0.00849657
0.00833343
0.00818092
0.00803967
0.00790635
0.00778285
0.00766617
0.00755853
0.00745722
0.00736454
0.00727815
0.00720002
0.00712695
0.00706707
0.00700671
0.00693054
0.00685346
0.00678587
0.00672707
0.00667529
0.00662846
0.006586
0.00654705
0.00651143
0.00647842
0.0064482
0.00642016
0.00639449
0.00637058
0.00634872
0.00632831
0.00630965
0.00629224
0.00627612
0.00626149
0.00624848
0.00623648
0.00622529
0.00621442
0.00620398
0.00619363
0.00618317
0.00617313
0.0061625
0.00615176
0.00614066
0.00612917
0.00611654
0.00610286
0.00609229
0.0060619
0.0061098
0.0060567
0.000384524
0.0277639
0.0243246
0.0223722
0.0217816
0.0208233
0.0198638
0.0191385
0.0185884
0.0181012
0.0176114
0.0171046
0.0165721
0.0160599
0.0155361
0.0150571
0.0145821
0.0141366
0.0137111
0.0133026
0.0129225
0.0125543
0.0122122
0.011887
0.0115821
0.0112981
0.0110297
0.0107825
0.0105484
0.010331
0.010127
0.00993596
0.00975855
0.00959143
0.00943621
0.00928984
0.00915431
0.00902692
0.00890976
0.0088006
0.00870122
0.00860845
0.0085302
0.00845716
0.00836956
0.00827808
0.00819477
0.00812104
0.00805561
0.00799646
0.0079427
0.00789342
0.00784825
0.00780647
0.00776808
0.00773248
0.0076998
0.00766938
0.00764148
0.00761544
0.00759155
0.00756926
0.00754852
0.0075295
0.00751255
0.007497
0.00748263
0.00746889
0.00745577
0.00744306
0.00743024
0.00741803
0.00740551
0.00739282
0.00738
0.00736691
0.00735299
0.00733743
0.00732673
0.00729124
0.00734747
0.00732689
0.000437528
0.0345305
0.030108
0.0265334
0.0248127
0.0234092
0.0223556
0.0216671
0.0212072
0.020828
0.0204405
0.0200176
0.0195443
0.019065
0.0185463
0.0180516
0.0175462
0.0170585
0.0165841
0.0161197
0.015682
0.015253
0.0148484
0.0144608
0.0140934
0.0137486
0.0134205
0.0131164
0.0128278
0.0125583
0.0123048
0.0120669
0.0118451
0.0116363
0.0114418
0.0112585
0.0110882
0.0109283
0.0107804
0.0106426
0.0105163
0.0103986
0.0102968
0.0102067
0.0101054
0.0099978
0.00989646
0.00980491
0.00972274
0.00964829
0.00958041
0.00951816
0.009461
0.00940814
0.00935946
0.00931431
0.00927278
0.00923412
0.00919859
0.00916542
0.00913493
0.00910647
0.00907991
0.00905532
0.00903329
0.00901312
0.00899464
0.00897719
0.00896065
0.0089449
0.00892915
0.00891423
0.00889935
0.00888428
0.00886936
0.00885429
0.00883876
0.00882093
0.00880975
0.0087688
0.00882964
0.00885101
0.00135736
0.0426583
0.0371132
0.0313561
0.0281082
0.0260865
0.0248887
0.0242366
0.0238813
0.023632
0.0233764
0.0230753
0.0227079
0.0223133
0.0218509
0.0213872
0.0208911
0.0203938
0.0198961
0.019395
0.0189137
0.0184332
0.0179717
0.0175238
0.0170934
0.016685
0.0162927
0.0159258
0.0155758
0.0152467
0.0149359
0.0146427
0.0143683
0.0141095
0.0138676
0.0136395
0.0134268
0.0132269
0.0130412
0.0128679
0.0127082
0.0125593
0.0124278
0.0123152
0.0121968
0.0120709
0.0119492
0.0118369
0.0117347
0.0116415
0.0115563
0.0114779
0.0114059
0.0113392
0.0112776
0.0112205
0.0111679
0.0111188
0.0110737
0.0110316
0.0109928
0.0109566
0.0109227
0.0108911
0.0108626
0.0108364
0.0108126
0.0107903
0.0107693
0.0107497
0.0107302
0.0107118
0.0106939
0.0106758
0.0106581
0.0106405
0.0106228
0.010602
0.0105895
0.0105427
0.0106035
0.0106476
0.00389909
0.0518085
0.0453424
0.0367843
0.031642
0.0288292
0.0274282
0.026809
0.0265702
0.0264682
0.0263648
0.0262108
0.0259825
0.0257124
0.0253518
0.024967
0.0245281
0.0240674
0.0235875
0.0230859
0.0225918
0.022085
0.0215861
0.0210927
0.0206095
0.0201441
0.0196905
0.0192613
0.0188483
0.018456
0.018083
0.0177289
0.0173952
0.0170794
0.0167826
0.0165023
0.0162396
0.0159922
0.0157613
0.0155452
0.015345
0.0151581
0.0149902
0.0148486
0.0147087
0.0145618
0.0144174
0.0142815
0.014156
0.0140406
0.0139344
0.0138365
0.0137462
0.0136625
0.0135851
0.0135132
0.0134468
0.0133849
0.0133279
0.0132746
0.0132254
0.0131796
0.0131366
0.0130962
0.0130595
0.0130257
0.012995
0.0129664
0.0129397
0.0129149
0.0128905
0.0128676
0.0128456
0.0128236
0.0128023
0.0127811
0.0127602
0.0127354
0.0127202
0.0126666
0.0127231
0.0127461
0.00790609
0.0614014
0.054304
0.0425796
0.0352944
0.031573
0.0299202
0.0293341
0.0292236
0.0292846
0.0293501
0.0293622
0.0292983
0.0291819
0.0289571
0.0286899
0.0283506
0.0279721
0.0275553
0.0270983
0.026634
0.0261397
0.025638
0.0251292
0.0246186
0.0241163
0.0236172
0.0231375
0.0226694
0.022219
0.0217861
0.0213713
0.0209768
0.0206008
0.0202452
0.0199076
0.0195894
0.0192886
0.0190063
0.0187411
0.0184938
0.0182623
0.0180516
0.0178744
0.017708
0.0175368
0.0173674
0.0172055
0.0170538
0.0169129
0.0167824
0.0166615
0.0165495
0.0164455
0.0163491
0.0162593
0.0161762
0.0160987
0.0160271
0.0159602
0.0158983
0.0158407
0.0157866
0.0157354
0.0156885
0.0156452
0.0156056
0.0155689
0.0155347
0.0155032
0.0154725
0.0154437
0.0154163
0.0153889
0.0153626
0.0153365
0.0153109
0.0152804
0.0152603
0.0151983
0.0152461
0.015219
0.0118045
0.0710175
0.0633676
0.0481958
0.0387404
0.0341698
0.0322776
0.0317477
0.0317787
0.0320169
0.0322642
0.0324579
0.0325813
0.0326426
0.0325804
0.0324611
0.0322556
0.0319982
0.0316841
0.0313146
0.0309237
0.0304852
0.0300227
0.0295388
0.0290384
0.0285327
0.0280179
0.0275132
0.0270113
0.02652
0.0260409
0.0255757
0.0251279
0.0246967
0.0242849
0.023891
0.0235169
0.0231611
0.0228248
0.022507
0.0222087
0.0219282
0.0216698
0.0214519
0.0212542
0.0210554
0.020859
0.0206696
0.0204899
0.0203213
0.0201639
0.020017
0.0198805
0.0197531
0.0196347
0.0195241
0.0194215
0.0193256
0.0192368
0.0191538
0.0190769
0.0190052
0.0189379
0.0188738
0.0188146
0.0187596
0.0187091
0.0186623
0.0186186
0.0185784
0.0185395
0.0185029
0.0184683
0.0184339
0.0184007
0.0183677
0.0183352
0.0182967
0.0182687
0.0181956
0.0182309
0.0181271
0.0160136
0.080316
0.0717567
0.0537046
0.041865
0.0366007
0.0345398
0.0340681
0.0342134
0.0345947
0.035026
0.0354105
0.0357426
0.0360017
0.0361245
0.0361796
0.0361379
0.0360361
0.0358577
0.0356139
0.035336
0.0349927
0.0346101
0.0341931
0.0337446
0.0332755
0.0327834
0.0322897
0.0317866
0.0312839
0.0307843
0.0302912
0.029809
0.0293384
0.0288834
0.0284433
0.0280212
0.0276162
0.02723
0.0268623
0.0265142
0.0261847
0.025878
0.0256175
0.0253862
0.0251578
0.0249336
0.0247166
0.024509
0.0243122
0.0241269
0.0239529
0.0237901
0.0236375
0.0234952
0.0233617
0.0232375
0.023121
0.023013
0.0229117
0.0228178
0.0227301
0.0226476
0.0225688
0.0224955
0.0224267
0.0223632
0.0223042
0.0222489
0.0221981
0.0221488
0.0221024
0.0220586
0.0220148
0.0219725
0.0219302
0.0218882
0.0218387
0.0217992
0.0217113
0.02173
0.0215382
0.0204539
0.0889309
0.0789571
0.060144
0.0461403
0.0395113
0.0371742
0.0366755
0.03684
0.0372682
0.0377863
0.0382834
0.0387509
0.0391554
0.0394743
0.0397259
0.0398758
0.0399623
0.039948
0.0398666
0.0397384
0.0395251
0.0392594
0.0389494
0.038593
0.0381999
0.0377714
0.0373285
0.0368623
0.0363845
0.0358989
0.0354098
0.0349225
0.0344387
0.0339639
0.0334982
0.033046
0.0326069
0.0321839
0.0317771
0.0313882
0.0310171
0.0306678
0.0303683
0.0301052
0.0298487
0.0295984
0.0293561
0.0291231
0.0289005
0.0286893
0.0284894
0.0283012
0.0281238
0.0279576
0.0278009
0.0276546
0.0275169
0.0273888
0.0272683
0.0271563
0.0270515
0.0269529
0.0268582
0.0267695
0.0266857
0.0266078
0.0265348
0.0264663
0.0264029
0.0263414
0.0262833
0.026228
0.0261728
0.026119
0.0260649
0.0260106
0.025947
0.025892
0.0257852
0.0257823
0.0255112
0.0250402
0.0964118
0.0854517
0.0676869
0.0529264
0.0446301
0.0414392
0.040446
0.0403272
0.0405765
0.0409921
0.0414545
0.0419242
0.0423679
0.0427663
0.0431246
0.043393
0.0436407
0.0438054
0.0439253
0.0439806
0.0439266
0.043813
0.0436499
0.0434228
0.0431426
0.0428185
0.0424664
0.042076
0.0416618
0.0412284
0.0407802
0.0403228
0.0398592
0.0393957
0.0389335
0.0384776
0.0380288
0.0375908
0.0371646
0.0367525
0.0363551
0.0359768
0.035649
0.0353619
0.0350835
0.034813
0.0345511
0.0342985
0.0340558
0.0338241
0.0336031
0.0333938
0.0331951
0.033008
0.0328307
0.0326644
0.0325071
0.0323603
0.0322217
0.0320926
0.0319713
0.031857
0.0317467
0.0316429
0.031544
0.0314515
0.0313642
0.0312817
0.0312049
0.03113
0.0310589
0.0309908
0.0309225
0.0308553
0.0307874
0.0307184
0.0306382
0.0305645
0.0304355
0.0304053
0.0300781
0.0298149
0.102333
0.0922223
0.0762914
0.0619956
0.0527576
0.0482957
0.0462162
0.0453639
0.0451127
0.0451759
0.0454021
0.045692
0.0460274
0.0463579
0.0466988
0.0469841
0.0472723
0.0475104
0.0477268
0.0479036
0.0480191
0.0480921
0.0481164
0.0480489
0.0479155
0.047738
0.0475153
0.047238
0.0469269
0.0465853
0.0462168
0.0458272
0.045421
0.0450048
0.0445802
0.0441532
0.0437256
0.0433016
0.0428829
0.0424725
0.042072
0.0416859
0.0413473
0.04105
0.0407617
0.0404815
0.0402101
0.0399477
0.0396943
0.0394511
0.0392175
0.038995
0.0387823
0.0385809
0.038389
0.0382081
0.0380362
0.0378749
0.0377222
0.0375792
0.0374446
0.0373174
0.0371941
0.0370775
0.0369655
0.0368601
0.0367599
0.0366645
0.0365751
0.0364875
0.0364036
0.0363228
0.0362412
0.0361603
0.036078
0.0359933
0.0358956
0.0358015
0.0356497
0.0355867
0.0352307
0.0349336
0.106862
0.0988406
0.0854678
0.0723874
0.0627232
0.0569042
0.0535478
0.0517661
0.0508558
0.0504336
0.0502903
0.0502737
0.0503822
0.0505268
0.0507342
0.0509296
0.0511428
0.0513451
0.0515463
0.0517394
0.0519066
0.0520591
0.0521782
0.052268
0.052309
0.0523235
0.0522597
0.052128
0.0519595
0.0517495
0.0514989
0.051216
0.0509064
0.0505758
0.0502263
0.0498649
0.0494937
0.0491177
0.0487389
0.0483612
0.0479867
0.0476203
0.0472944
0.0470061
0.0467252
0.0464512
0.0461848
0.0459262
0.0456753
0.0454333
0.0451993
0.0449751
0.0447594
0.044554
0.0443569
0.0441704
0.043992
0.0438241
0.0436642
0.043514
0.043372
0.0432375
0.0431065
0.042982
0.0428617
0.0427476
0.0426385
0.0425338
0.0424351
0.0423376
0.0422436
0.0421524
0.0420598
0.0419671
0.0418721
0.0417735
0.0416599
0.0415468
0.0413753
0.0412762
0.0409166
0.0405002
0.111583
0.105367
0.0946432
0.0828714
0.0726758
0.0652073
0.0608531
0.0584374
0.0570548
0.0562523
0.0557578
0.0554378
0.0553074
0.0552452
0.0552713
0.0553127
0.0553824
0.0554728
0.055576
0.0556996
0.0558224
0.0559552
0.0560777
0.0562009
0.0563076
0.0564054
0.0564789
0.056513
0.0565257
0.0564788
0.0563768
0.0562361
0.0560612
0.0558537
0.055617
0.0553592
0.0550821
0.0547909
0.0544881
0.054178
0.0538634
0.0535491
0.0532642
0.0530087
0.0527573
0.0525099
0.0522673
0.0520304
0.0517988
0.051574
0.0513552
0.0511443
0.0509398
0.0507441
0.050555
0.0503751
0.0502022
0.0500385
0.0498819
0.0497342
0.049594
0.0494608
0.0493304
0.0492059
0.0490849
0.0489695
0.0488583
0.0487509
0.048649
0.0485476
0.0484491
0.0483528
0.0482543
0.0481548
0.0480521
0.0479443
0.0478203
0.047693
0.0475096
0.0473764
0.047034
0.0464993
0.116388
0.111685
0.103263
0.0931117
0.0835281
0.0756788
0.0697468
0.0656076
0.0632637
0.0619763
0.0611958
0.060698
0.0604438
0.060251
0.0601148
0.0599947
0.0599161
0.0598757
0.0598517
0.0598625
0.059884
0.0599281
0.0599813
0.0600507
0.060131
0.0602209
0.0603175
0.0604059
0.0604933
0.0605627
0.0606124
0.0606402
0.060627
0.0605677
0.0604739
0.060353
0.0602043
0.0600324
0.0598407
0.0596337
0.0594141
0.0591868
0.0589739
0.058778
0.0585811
0.058384
0.0581877
0.0579935
0.0578014
0.0576132
0.0574281
0.0572483
0.0570725
0.0569031
0.0567383
0.0565805
0.0564278
0.0562826
0.0561429
0.0560107
0.0558845
0.0557643
0.0556459
0.0555324
0.0554213
0.0553148
0.0552115
0.0551111
0.0550152
0.054919
0.0548248
0.054732
0.0546362
0.0545383
0.0544365
0.0543282
0.0542031
0.0540709
0.0538879
0.0537299
0.0534218
0.0528094
0.120499
0.117228
0.110913
0.102875
0.0947294
0.0874486
0.0813162
0.0764075
0.0726065
0.0697343
0.067774
0.0665869
0.0659069
0.0654152
0.0650657
0.0647928
0.0646232
0.0644796
0.0643397
0.0642333
0.0641319
0.0640506
0.0639884
0.0639519
0.0639446
0.063959
0.0639974
0.0640478
0.0641145
0.0641884
0.0642703
0.0643543
0.0644363
0.0645074
0.0645666
0.0645985
0.0645929
0.0645595
0.0645028
0.0644251
0.0643287
0.0642179
0.0641051
0.0639936
0.0638752
0.0637515
0.0636239
0.0634944
0.063363
0.0632319
0.0631006
0.0629714
0.0628435
0.0627189
0.0625964
0.0624784
0.0623631
0.0622529
0.0621462
0.0620448
0.0619475
0.0618545
0.0617622
0.0616732
0.0615854
0.0615007
0.061418
0.0613369
0.0612591
0.0611801
0.0611022
0.0610246
0.0609433
0.060859
0.0607701
0.0606737
0.0605608
0.0604376
0.0602712
0.0601061
0.0598467
0.059218
0.123938
0.121732
0.117329
0.111527
0.105041
0.0986013
0.0928681
0.0880414
0.0840543
0.080776
0.0781207
0.0758287