/*--------------------------------*- C++ -*----------------------------------*\
| =========                 |                                                 |
| \\      /  F ield         | OpenFOAM: The Open Source CFD Toolbox           |
|  \\    /   O peration     | Version:  5.x                                   |
|   \\  /    A nd           | Web:      www.OpenFOAM.org                      |
|    \\/     M anipulation  |                                                 |
\*---------------------------------------------------------------------------*/
FoamFile
{
    version     2.0;
    format      ascii;
    class       volScalarField;
    location    "200";
    object      p;
}
// * * * * * * * * * * * * * * * * * * * * * * * * * * * * * * * * * * * * * //

dimensions      [0 2 -2 0 0 0 0];

internalField   nonuniform List<scalar> 
41860
(
-3.71091
33272.7
7611.68
63477
72679.1
82053.2
89615.7
95834.8
101248
105885
109927
113476
116700
119552
122208
124564
126802
128865
130802
132630
134344
135985
137541
139039
140478
141865
143209
144507
145777
147010
148226
149405
150577
151720
152859
153973
155085
156178
157271
158347
159428
160483
161460
162318
163169
163988
164800
165597
166373
167150
167899
168658
169385
170126
170838
171564
172266
172978
173672
174369
175056
175736
176427
177152
177874
178626
179380
180167
180963
181792
182655
183542
184483
185470
186512
187622
188838
190139
191645
193146
195488
196206
326.316
33300.8
7606.74
63428.4
72667.5
82042.1
89606.8
95827.5
101242
105880
109922
113473
116697
119549
122206
124562
126800
128864
130800
132629
134343
135984
137540
139038
140477
141865
143208
144507
145777
147009
148225
149405
150577
151720
152859
153973
155085
156178
157271
158347
159428
160483
161460
162318
163169
163988
164800
165597
166373
167150
167899
168658
169385
170126
170838
171564
172266
172978
173672
174369
175056
175736
176427
177152
177874
178626
179380
180167
180963
181792
182655
183541
184483
185470
186512
187622
188838
190139
191645
193146
195488
196202
825.281
33342.6
7610.73
63368.5
72654.3
82029.1
89596.4
95818.9
101235
105874
109918
113469
116694
119546
122203
124559
126798
128862
130799
132627
134342
135983
137539
139038
140476
141864
143207
144506
145776
147009
148225
149405
150576
151719
152858
153973
155085
156178
157271
158347
159427
160483
161459
162317
163169
163988
164800
165597
166373
167150
167899
168658
169385
170126
170838
171564
172266
172978
173671
174369
175056
175736
176427
177152
177874
178626
179380
180167
180963
181792
182655
183541
184483
185470
186512
187622
188838
190139
191645
193146
195489
196197
1437.12
33397.6
7623.47
63305.6
72641.1
82015.9
89585.6
95810
101228
105868
109913
113464
116690
119543
122200
124557
126796
128860
130797
132626
134341
135981
137538
139037
140476
141863
143207
144506
145776
147008
148224
149404
150576
151719
152858
153972
155084
156178
157271
158347
159427
160483
161459
162317
163169
163988
164800
165596
166373
167150
167899
168658
169385
170126
170838
171564
172266
172978
173671
174369
175056
175736
176427
177152
177874
178626
179380
180167
180963
181792
182655
183541
184483
185470
186512
187622
188838
190139
191645
193146
195489
196191
2203.37
33473.4
7647.63
63234.1
72627.1
82001.3
89573.7
95800.2
101219
105861
109907
113460
116686
119540
122197
124555
126794
128858
130796
132625
134339
135980
137537
139036
140475
141862
143206
144505
145775
147008
148224
149404
150576
151719
152858
153972
155084
156177
157270
158346
159427
160482
161459
162317
163169
163987
164800
165596
166373
167150
167899
168658
169385
170126
170838
171564
172266
172978
173671
174368
175056
175736
176427
177152
177874
178626
179380
180167
180963
181792
182655
183541
184483
185470
186512
187622
188838
190139
191645
193146
195489
196184
3167.16
33577.5
7687.94
63149.5
72611.5
81984.3
89559.8
95788.5
101210
105853
109900
113454
116681
119536
122194
124552
126791
128856
130794
132623
134338
135979
137536
139035
140474
141862
143205
144504
145775
147007
148223
149403
150575
151718
152857
153972
155084
156177
157270
158346
159427
160482
161459
162317
163169
163987
164800
165596
166373
167150
167898
168658
169385
170125
170838
171564
172265
172978
173671
174368
175056
175736
176427
177152
177874
178626
179380
180167
180963
181792
182655
183541
184483
185470
186512
187622
188838
190139
191645
193146
195490
196175
4357.85
33716.4
7748.04
63048.7
72593.6
81964.4
89543.3
95774.7
101198
105844
109892
113447
116676
119531
122190
124548
126788
128853
130791
132621
134336
135977
137534
139033
140473
141861
143204
144503
145774
147007
148223
149403
150575
151718
152857
153971
155083
156177
157270
158346
159427
160482
161459
162317
163169
163987
164800
165596
166373
167150
167898
168657
169385
170125
170838
171564
172265
172977
173671
174368
175056
175736
176427
177152
177874
178626
179380
180167
180963
181792
182655
183542
184483
185470
186512
187622
188838
190139
191645
193146
195490
196165
5809.58
33897.7
7831.53
62927.9
72572.7
81940.9
89523.8
95758.3
101184
105832
109883
113439
116669
119525
122185
124544
126784
128850
130788
132618
134334
135975
137533
139032
140471
141859
143203
144503
145773
147006
148222
149402
150574
151717
152856
153971
155083
156176
157269
158346
159426
160482
161458
162316
163168
163987
164799
165596
166372
167150
167898
168657
169385
170125
170838
171564
172265
172977
173671
174368
175056
175736
176427
177152
177874
178626
179380
180167
180963
181792
182655
183542
184483
185470
186512
187622
188838
190139
191646
193146
195490
196153
7564.74
34131
7943.89
62782.9
72548.3
81913.1
89500.7
95739
101168
105819
109872
113430
116661
119519
122179
124539
126780
128847
130785
132616
134331
135973
137531
139030
140470
141858
143202
144501
145772
147005
148221
149402
150573
151717
152856
153970
155082
156176
157269
158345
159426
160481
161458
162316
163168
163987
164799
165596
166372
167149
167898
168657
169385
170125
170838
171563
172265
172977
173671
174368
175056
175736
176427
177152
177874
178626
179380
180167
180963
181792
182655
183542
184483
185470
186512
187622
188838
190139
191646
193145
195490
196139
9674.69
34428.9
8092.62
62609.1
72519.7
81880.3
89473.5
95716.1
101149
105803
109858
113419
116652
119511
122173
124533
126775
128842
130782
132612
134329
135971
137529
139028
140468
141857
143201
144500
145771
147004
148220
149401
150573
151716
152855
153970
155082
156176
157269
158345
159426
160481
161458
162316
163168
163986
164799
165595
166372
167149
167898
168657
169385
170125
170838
171563
172265
172977
173671
174368
175056
175736
176427
177152
177874
178626
179380
180167
180963
181792
182655
183542
184483
185470
186512
187622
188838
190139
191646
193145
195491
196122
12197.4
34806.9
8287.3
62401
72486.1
81841.8
89441.3
95689.1
101126
105784
109843
113406
116641
119502
122165
124527
126770
128837
130777
132609
134325
135968
137526
139026
140466
141855
143199
144499
145770
147003
148219
149400
150572
151715
152854
153969
155081
156175
157268
158344
159425
160481
161457
162316
163167
163986
164799
165595
166372
167149
167898
168657
169384
170125
170837
171563
172265
172977
173671
174368
175056
175736
176427
177152
177874
178626
179380
180167
180963
181792
182655
183542
184483
185470
186512
187622
188838
190139
191646
193145
195491
196101
15199.7
35285
8539.97
62152.4
72446.7
81796.6
89403.5
95657.2
101099
105762
109825
113391
116628
119491
122156
124519
126763
128832
130772
132604
134321
135965
137523
139024
140464
141853
143197
144497
145768
147002
148218
149399
150571
151714
152854
153969
155081
156174
157268
158344
159425
160480
161457
162315
163167
163986
164798
165595
166372
167149
167898
168657
169384
170125
170837
171563
172265
172977
173671
174368
175056
175736
176427
177152
177874
178626
179380
180167
180963
181792
182655
183542
184483
185470
186513
187623
188839
190139
191646
193145
195491
196078
18755.6
35888.6
8865.87
61856.3
72400.5
81743.7
89359
95619.8
101067
105736
109803
113373
116613
119479
122145
124510
126755
128825
130766
132599
134317
135961
137520
139021
140461
141850
143195
144495
145767
147000
148217
149398
150570
151713
152853
153968
155080
156174
157267
158343
159424
160480
161456
162315
163167
163986
164798
165595
166371
167149
167897
168657
169384
170125
170837
171563
172265
172977
173671
174368
175056
175736
176427
177152
177874
178626
179380
180167
180963
181792
182655
183542
184483
185471
186513
187623
188839
190140
191646
193145
195492
196050
22948.2
36650.2
9284.37
61505
72346.5
81682
89306.8
95575.7
101030
105706
109778
113352
116595
119464
122132
124499
126746
128817
130760
132593
134312
135956
137516
139017
140458
141848
143193
144493
145765
146999
148216
149396
150569
151712
152852
153967
155079
156173
157266
158343
159424
160479
161456
162314
163166
163985
164798
165594
166371
167148
167897
168656
169384
170124
170837
171563
172265
172977
173671
174368
175056
175736
176427
177152
177874
178627
179380
180167
180964
181793
182656
183542
184483
185471
186513
187623
188839
190140
191646
193145
195492
196019
27866
37611.4
9820.23
61089.7
72283.1
81610.3
89245.6
95523.9
100986
105669
109748
113327
116574
119446
122117
124487
126735
128808
130752
132586
134306
135951
137511
139013
140455
141845
143190
144491
145763
146997
148214
149395
150567
151711
152851
153966
155078
156172
157266
158342
159423
160479
161455
162314
163166
163985
164797
165594
166371
167148
167897
168656
169384
170124
170837
171563
172265
172977
173671
174368
175056
175736
176427
177152
177874
178627
179380
180168
180964
181793
182656
183542
184483
185471
186513
187623
188839
190140
191646
193144
195492
195983
33604.1
38826
10505.2
60601
72208.5
81527.5
89174.2
95463.3
100935
105627
109712
113297
116549
119426
122100
124472
126722
128797
130743
132578
134299
135945
137506
139009
140451
141841
143187
144488
145761
146995
148212
149393
150566
151710
152850
153965
155077
156171
157265
158341
159423
160478
161455
162313
163165
163984
164797
165594
166370
167148
167897
168656
169384
170124
170837
171563
172265
172977
173671
174368
175056
175736
176427
177153
177875
178627
179381
180168
180964
181793
182656
183543
184484
185471
186513
187623
188839
190140
191647
193144
195492
195944
40257.8
40362.5
11380.7
60029.2
72120.1
81432.3
89091
95392.4
100875
105577
109671
113263
116520
119402
122079
124455
126708
128784
130732
132569
134291
135939
137500
139004
140446
141837
143184
144485
145758
146992
148210
149392
150564
151709
152848
153964
155076
156171
157264
158341
159422
160478
161454
162313
163165
163984
164797
165593
166370
167148
167897
168656
169384
170124
170837
171562
172265
172977
173671
174368
175056
175737
176428
177153
177875
178627
179381
180168
180964
181793
182656
183543
184484
185472
186514
187624
188840
190140
191647
193144
195491
195901
47921.4
42308.9
12500.3
59366
72014.1
81323.4
88994.6
95309.8
100804
105519
109623
113223
116487
119374
122056
124435
126691
128770
130720
132559
134282
135931
137493
138998
140441
141833
143180
144482
145755
146990
148208
149390
150562
151707
152847
153963
155075
156170
157263
158340
159421
160477
161453
162312
163164
163984
164796
165593
166370
167147
167896
168655
169383
170124
170837
171562
172265
172977
173671
174368
175057
175737
176428
177153
177875
178628
179382
180169
180965
181794
182657
183544
184485
185472
186514
187624
188840
190141
191648
193143
195491
195857
56677.2
44776.7
13934.8
58606.7
71886.2
81199.7
88883.1
95214
100722
105451
109566
113176
116447
119341
122028
124412
126671
128753
130706
132546
134272
135922
137486
138991
140436
141828
143176
144478
145752
146987
148205
149388
150561
151705
152845
153961
155074
156169
157262
158339
159421
160477
161453
162312
163164
163983
164796
165593
166370
167147
167896
168655
169383
170124
170837
171562
172265
172977
173671
174368
175057
175738
176429
177154
177876
178628
179382
180169
180966
181795
182658
183544
184485
185473
186515
187625
188841
190141
191648
193143
195490
195813
66588.6
47905.5
15777
57754
71730.9
81061.2
88755.3
95103.3
100627
105372
109501
113121
116401
119303
121996
124386
126648
128734
130689
132532
134260
135912
137477
138984
140429
141823
143171
144474
145748
146984
148203
149385
150559
151704
152844
153960
155073
156168
157261
158339
159420
160476
161452
162311
163163
163983
164796
165593
166370
167147
167896
168655
169383
170124
170837
171562
172265
172977
173672
174369
175057
175738
176429
177154
177877
178629
179383
180170
180966
181795
182658
183545
184486
185474
186516
187626
188842
190142
191649
193142
195488
195772
77685.4
51866.8
18149.6
56823.3
71542.3
80909
88610.3
94976.5
100517
105281
109425
113058
116348
119259
121958
124355
126622
128712
130671
132517
134247
135900
137467
138976
140422
141817
143166
144470
145745
146981
148200
149383
150557
151702
152843
153959
155072
156167
157261
158338
159419
160476
161452
162311
163163
163983
164795
165592
166370
167147
167896
168655
169384
170124
170837
171563
172266
172977
173672
174369
175058
175739
176431
177155
177878
178630
179384
180171
180968
181796
182660
183546
184487
185475
186517
187627
188843
190143
191650
193142
195487
195737
89958.2
56866.7
21214.6
55852.3
71313.4
80746.1
88448.9
94832.9
100392
105177
109338
112986
116287
119209
121916
124319
126592
128687
130649
132499
134231
135888
137456
138966
140414
141810
143161
144465
145741
146978
148197
149381
150555
151701
152841
153958
155071
156166
157260
158338
159419
160476
161452
162310
163162
163983
164795
165592
166370
167147
167897
168655
169384
170124
170838
171563
172266
172977
173673
174370
175059
175740
176432
177156
177879
178631
179385
180172
180969
181798
182661
183548
184489
185476
186518
187628
188844
190144
191651
193142
195487
195712
103346
63146.3
25183.1
54914.3
71038.2
80578.8
88273.8
94673
100251
105058
109239
112904
116217
119151
121867
124279
126558
128658
130626
132479
134215
135874
137444
138956
140406
141803
143155
144460
145737
146975
148195
149379
150553
151699
152840
153957
155070
156166
157259
158337
159419
160476
161452
162311
163162
163983
164795
165593
166370
167147
167897
168656
169385
170124
170839
171563
172267
172978
173673
174371
175060
175742
176434
177158
177881
178633
179387
180174
180971
181800
182663
183550
184490
185478
186520
187630
188845
190145
191652
193141
195488
195710
117698
70974
30327.2
54140.6
70715.5
80416.9
88092.1
94499.8
100095
104927
109129
112812
116139
119087
121813
124235
126521
128627
130600
132457
134196
135858
137431
138946
140397
141796
143149
144456
145733
146971
148192
149377
150551
151698
152839
153957
155070
156166
157259
158338
159419
160477
161452
162311
163163
163983
164796
165593
166371
167148
167898
168656
169386
170125
170840
171564
172268
172979
173675
174372
175061
175744
176436
177160
177883
178635
179390
180176
180973
181802
182665
183552
184493
185480
186522
187632
188847
190147
191653
193141
195489
195738
132721
80611.6
36983.5
53753
70359.3
80275.8
87917.7
94319.7
99927.7
104784
109008
112711
116053
119017
121753
124186
126480
128592
130571
132433
134177
135842
137418
138935
140388
141789
143144
144451
145730
146969
148190
149376
150551
151698
152839
153957
155070
156166
157260
158338
159420
160478
161453
162312
163163
163985
164797
165594
166372
167149
167899
168657
169387
170126
170841
171565
172270
172981
173676
174374
175063
175747
176439
177163
177886
178637
179393
180179
180976
181805
182668
183555
184495
185483
186525
187635
188849
190149
191654
193141
195490
195797
147948
92248.9
45543.2
54106.5
70023.3
80179.4
87776.1
94146.8
99757.6
104635
108881
112605
115962
118942
121690
124135
126436
128557
130542
132409
134157
135826
137405
138925
140380
141783
143139
144448
145727
146967
148189
149376
150551
151699
152840
153958
155071
156168
157261
158340
159421
160480
161454
162314
163165
163986
164798
165596
166374
167150
167902
168659
169389
170128
170844
171567
172272
172983
173679
174376
175066
175750
176443
177166
177890
178641
179397
180182
180980
181808
182672
183559
184499
185487
186529
187638
188852
190151
191655
193140
195490
195882
162731
105885
56408.8
55727.6
69844.9
80165.1
87709.7
94007.7
99599.8
104491
108755
112498
115870
118866
121625
124083
126393
128521
130513
132385
134139
135812
137393
138916
140373
141778
143136
144446
145727
146967
148190
149377
150552
151701
152842
153961
155074
156171
157264
158343
159424
160484
161457
162316
163167
163989
164801
165599
166377
167153
167905
168661
169393
170130
170847
171570
172275
172985
173682
174379
175070
175754
176448
177171
177895
178645
179401
180187
180985
181813
182676
183564
184503
185491
186533
187642
188855
190153
191656
193139
195485
195982
176288
121176
69902.2
59326.5
70110.4
80297.6
87779
93949.2
99481.5
104369
108644
112401
115784
118796
121565
124035
126354
128489
130488
132366
134124
135801
137385
138910
140370
141776
143136
144447
145729
146970
148193
149381
150556
151706
152846
153966
155078
156175
157268
158348
159428
160489
161461
162321
163171
163993
164805
165602
166381
167156
167909
168665
169397
170134
170851
171573
172279
172989
173686
174383
175074
175760
176454
177176
177901
178651
179408
180192
180991
181819
182682
183570
184509
185496
186537
187646
188858
190156
191655
193138
195475
196091
187802
137331
86094.4
65751.7
71340.7
80706.5
88060.3
94042.4
99448.6
104298
108568
112332
115719
118742
121519
123999
126325
128467
130472
132353
134116
135796
137383
138910
140372
141780
143141
144452
145735
146977
148200
149389
150564
151714
152854
153974
155086
156183
157275
158355
159435
160496
161468
162327
163176
163999
164810
165608
166386
167162
167915
168670
169402
170139
170856
171578
172285
172994
173692
174389
175081
175767
176462
177184
177909
178658
179415
180200
180998
181826
182689
183577
184515
185502
186543
187651
188861
190158
191653
193136
195455
196206
196638
153164
104567
75819.1
74373.9
81679.6
88657.1
94384.2
99575.9
104323
108558
112313
115693
118721
121498
123985
126315
128461
130471
132355
134121
135803
137392
138921
140383
141793
143154
144466
145749
146991
148214
149403
150577
151727
152866
153986
155097
156194
157286
158365
159444
160507
161477
162336
163184
164008
164818
165616
166395
167169
167922
168677
169410
170146
170864
171585
172292
173001
173699
174396
175089
175777
176472
177193
177919
178668
179425
180209
181008
181835
182697
183585
184523
185510
186549
187656
188864
190159
191648
193132
195422
196320
202593
167342
124217
89948.5
80334.7
83821
89764.7
95098.9
99975.9
104524
108664
112381
115735
118753
121522
124010
126339
128484
130495
132380
134146
135829
137418
138947
140409
141818
143179
144491
145773
147015
148236
149426
150598
151748
152885
154005
155115
156212
157302
158381
159459
160522
161490
162349
163196
164020
164830
165627
166406
167179
167933
168686
169421
170155
170874
171594
172302
173010
173709
174406
175099
175789
176485
177205
177931
178679
179437
180220
181019
181846
182708
183596
184532
185518
186556
187661
188866
190158
191640
193124
195371
196424
205994
178782
143331
107673
90307.5
88160.7
91826.6
96375.2
100798
105024
108973
112591
115887
118873
121618
124094
126414
128552
130559
132440
134203
135884
137469
138996
140456
141864
143223
144533
145813
147054
148273
149461
150631
151779
152915
154033
155141
156237
157326
158404
159480
160543
161510
162367
163213
164037
164846
165642
166421
167193
167948
168700
169435
170168
170888
171607
172315
173022
173722
174419
175112
175803
176500
177220
177947
178694
179452
180234
181033
181859
182720
183608
184542
185527
186564
187666
188867
190155
191624
193109
195296
196500
207504
187095
160057
127316
104648
95959.9
95712.6
98599.6
102248
105989
109617
113040
116215
119130
121823
124269
126565
128686
130681
132550
134306
135979
137558
139079
140534
141938
143292
144598
145875
147112
148327
149513
150680
151826
152958
154074
155180
156273
157359
158436
159510
160573
161537
162393
163237
164061
164868
165664
166442
167213
167968
168718
169454
170185
170906
171623
172332
173038
173738
174435
175130
175822
176520
177239
177966
178712
179470
180251
181050
181875
182735
183622
184554
185537
186571
187670
188864
190146
191600
193083
195192
196530
207787
192635
173137
146307
122255
107992
102631
102554
104718
107649
110773
113867
116828
119602
122198
124580
126829
128915
130884
132731
134472
136130
137698
139209
140654
142049
143396
144696
145966
147198
148408
149589
150751
151893
153020
154133
155234
156325
157407
158481
159552
160613
161575
162429
163270
164093
164899
165693
166471
167240
167995
168743
169479
170209
170929
171646
172355
173060
173760
174457
175152
175846
176545
177263
177990
178735
179493
180272
181070
181895
182753
183638
184567
185547
186577
187671
188857
190130
191562
193039
195050
196490
207329
196073
182364
162289
140584
123576
113419
109340
108974
110445
112710
115264
117872
120407
122835
125100
127262
129284
131205
133014
134725
136359
137906
139400
140829
142212
143547
144836
146096
147320
148522
149696
150851
151986
153107
154215
155310
156396
157474
158544
159610
160669
161627
162478
163316
164137
164942
165733
166510
167277
168031
168777
169512
170241
170961
171676
172384
173089
173789
174486
175181
175876
176577
177293
178020
178763
179521
180298
181095
181917
182773
183656
184582
185557
186581
187667
188841
190101
191505
192967
194862
196360
206433
197996
188326
174181
156873
140401
127510
119627
115981
115150
115941
117560
119571
121709
123863
125933
127948
129861
131698
133442
135104
136696
138210
139675
141080
142442
143758
145032
146278
147489
148678
149842
150987
152114
153226
154326
155414
156493
157564
158629
159689
160744
161698
162544
163378
164197
164998
165787
166562
167326
168079
168823
169557
170283
171002
171715
172423
173126
173826
174522
175218
175914
176615
177330
178057
178798
179554
180330
181124
181944
182796
183675
184596
185564
186580
187655
188813
190054
191421
192855
194618
196120
205282
198868
191900
182156
169490
155760
142806
132725
126108
122533
121210
121329
122327
123785
125479
127229
129008
130744
132444
134083
135661
137186
138647
140067
141434
142764
144052
145302
146526
147719
148891
150040
151171
152285
153386
154474
155552
156622
157684
158741
159793
160843
161791
162632
163461
164275
165074
165859
166630
167392
168142
168883
169614
170339
171056
171767
172473
173175
173873
174569
175265
175961
176663
177376
178101
178841
179594
180367
181158
181974
182821
183694
184608
185567
186571
187631
188767
189981
191301
192690
194309
195759
203987
199022
193863
187088
178213
167872
156805
146635
138434
132599
129017
127209
126724
127096
128022
129237
130628
132079
133561
135031
136477
137896
139272
140621
141931
143212
144458
145673
146865
148030
149178
150305
151417
152513
153597
154670
155735
156792
157842
158888
159931
160972
161912
162747
163570
164378
165172
165952
166719
167476
168223
168960
169689
170410
171125
171833
172537
173237
173934
174628
175323
176019
176721
177432
178155
178891
179642
180410
181197
182007
182848
183713
184616
185563
186550
187589
188696
189873
191134
192458
193925
195277
202619
198702
194776
189938
183751
176368
167873
159140
151024
144179
138973
135364
133200
132154
131962
132342
133105
134093
135226
136432
137671
138926
140169
141410
142630
143835
145019
146180
147326
148451
149563
150659
151743
152815
153876
154929
155975
157014
158049
159081
160110
161139
162069
162896
163710
164511
165298
166072
166834
167585
168327
169060
169784
170501
171212
171917
172618
173315
174009
174702
175395
176090
176790
177499
178218
178951
179696
180459
181239
182042
182873
183727
184616
185545
186511
187522
188592
189720
190910
192149
193460
194683
201230
198084
195018
191445
187047
181843
175684
168921
162010
155456
149728
145046
141536
139106
137638
136941
136818
137115
137707
138497
139414
140414
141456
142532
143616
144709
145798
146879
147956
149022
150083
151134
152179
153215
154245
155270
156289
157306
158319
159331
160342
161354
162271
163087
163891
164682
165460
166226
166980
167725
168460
169186
169905
170617
171323
172023
172720
173412
174103
174793
175483
176175
176872
177577
178291
179018
179757
180513
181283
182076
182894
183733
184604
185510
186447
187422
188444
189512
190620
191757
192915
193992
199864
197295
194843
192116
188891
185165
180769
175805
170447
164957
159676
154857
150734
147392
144866
143114
142004
141441
141306
141504
141944
142562
143298
144124
145007
145932
146881
147845
148822
149803
150789
151775
152763
153749
154735
155720
156704
157688
158672
159658
160644
161634
162533
163334
164123
164902
165668
166423
167167
167903
168629
169347
170058
170763
171462
172156
172846
173534
174219
174904
175589
176277
176969
177668
178376
179095
179824
180570
181328
182106
182908
183726
184573
185450
186351
187281
188246
189243
190258
191283
192296
193228
198561
196435
194432
192288
189844
187099
183922
180329
176359
172112
167765
163491
159487
155900
152833
150365
148444
147066
146155
145658
145493
145596
145905
146375
146962
147642
148388
149181
150013
150869
151749
152643
153550
154465
155389
156318
157253
158193
159136
160085
161039
161998
162872
163653
164424
165185
165935
166676
167407
168129
168843
169551
170251
170946
171636
172322
173004
173683
174361
175039
175717
176398
177082
177773
178471
179179
179896
180627
181370
182129
182909
183702
184518
185358
186214
187090
187989
188905
189823
190734
191612
192411
197368
195582
193915
192180
190262
188164
185795
183148
180220
177032
173659
170187
166735
163424
160355
157651
155309
153390
151873
150754
149992
149540
149354
149385
149596
149952
150421
150980
151612
152297
153029
153795
154591
155409
156247
157101
157968
158847
159737
160637
161546
162465
163307
164061
164807
165545
166274
166995
167708
168414
169112
169805
170492
171174
171852
172525
173196
173865
174532
175200
175868
176538
177212
177891
178575
179269
179970
180683
181404
182140
182892
183653
184432
185227
186032
186847
187675
188506
189327
190129
190891
191579
196327
194796
193374
191925
190362
188690
186844
184816
182593
180172
177576
174844
172031
169218
166468
163898
161514
159404
157578
156068
154869
153962
153331
152938
152760
152763
152919
153204
153594
154071
154619
155226
155882
156577
157307
158064
158846
159650
160471
161310
162164
163032
163832
164553
165268
165978
166681
167378
168068
168753
169432
170107
170776
171442
172104
172763
173419
174074
174728
175382
176037
176693
177353
178016
178685
179360
180041
180732
181428
182136
182856
183581
184319
185067
185817
186570
187327
188078
188811
189519
190184
190785
195438
194101
192863
191621
190306
188925
187429
185812
184062
182169
180139
177983
175725
173412
171075
168804
166602
164550
162668
161003
159573
158378
157429
156702
156191
155873
155728
155735
155873
156123
156469
156896
157391
157945
158548
159193
159875
160589
161330
162095
162883
163691
164443
165124
165803
166479
167151
167819
168482
169142
169798
170451
171100
171746
172389
173030
173670
174308
174946
175583
176221
176861
177503
178148
178797
179451
180110
180775
181444
182121
182806
183493
184187
184887
185583
186276
186966
187645
188302
188932
189521
190054
194676
193494
192400
191315
190183
189011
187762
186433
185011
183488
181862
180136
178316
176430
174487
172552
170621
168756
166978
165329
163839
162518
161389
160445
159693
159120
158720
158479
158379
158407
158546
158785
159109
159508
159971
160491
161059
161670
162319
163001
163712
164451
165146
165781
166417
167053
167689
168324
168956
169587
170216
170843
171468
172091
172712
173332
173951
174569
175187
175805
176424
177043
177665
178289
178915
179545
180178
180815
181454
182097
182746
183393
184044
184695
185339
185976
186605
187220
187811
188375
188902
189382
194021
192964
191987
191026
190036
189022
187956
186836
185652
184395
183063
181656
180170
178624
177017
175392
173741
172108
170508
168977
167541
166215
165027
163977
163082
162339
161751
161312
161012
160842
160791
160848
161003
161244
161562
161947
162394
162893
163439
164028
164655
165316
165946
166529
167116
167707
168301
168897
169494
170091
170689
171286
171883
172479
173075
173670
174265
174860
175455
176050
176646
177243
177841
178441
179041
179645
180249
180855
181462
182071
182682
183288
183895
184499
185093
185677
186251
186809
187344
187853
188330
188766
193454
192503
191623
190763
189886
188996
188071
187109
186102
185045
183932
182762
181532
180251
178915
177554
176156
174753
173353
171982
170664
169409
168247
167180
166228
165396
164692
164117
163667
163340
163128
163025
163024
163115
163291
163543
163864
164247
164686
165176
165710
166286
166845
167369
167902
168443
168990
169543
170099
170659
171221
171784
172349
172915
173482
174049
174617
175185
175754
176323
176893
177463
178035
178607
179180
179753
180327
180901
181473
182046
182619
183185
183748
184307
184854
185390
185914
186422
186907
187370
187804
188203
192963
192101
191304
190528
189744
188954
188141
187303
186434
185528
184583
183595
182561
181487
180366
179221
178039
176842
175633
174432
173255
172112
171026
170001
169058
168202
167445
166794
166247
165809
165475
165244
165111
165071
165117
165244
165444
165713
166044
166431
166870
167357
167840
168301
168774
169260
169757
170262
170774
171291
171813
172340
172869
173401
173935
174470
175007
175546
176085
176625
177166
177707
178249
178792
179334
179876
180416
180957
181494
182029
182563
183089
183611
184127
184630
185120
185599
186063
186505
186927
187325
187693
192535
191751
191025
190322
189616
188909
188187
187448
186689
185903
185088
184242
183361
182450
181501
180530
179526
178505
177467
176425
175392
174373
173388
172440
171546
170714
169953
169275
168680
168176
167760
167436
167202
167055
166992
167008
167100
167262
167489
167777
168121
168517
168922
169317
169729
170156
170599
171052
171516
171988
172467
172953
173443
173937
174435
174936
175439
175945
176452
176960
177469
177978
178488
178998
179507
180016
180522
181028
181528
182027
182522
183009
183491
183965
184427
184876
185314
185738
186142
186529
186894
187235
192163
191447
190783
190142
189502
188865
188219
187563
186892
186203
185493
184761
184002
183219
182407
181578
180720
179846
178955
178054
177155
176259
175381
174524
173702
172922
172192
171524
170919
170386
169927
169545
169240
169014