/*--------------------------------*- C++ -*----------------------------------*\
| =========                 |                                                 |
| \\      /  F ield         | OpenFOAM: The Open Source CFD Toolbox           |
|  \\    /   O peration     | Version:  5.x                                   |
|   \\  /    A nd           | Web:      www.OpenFOAM.org                      |
|    \\/     M anipulation  |                                                 |
\*---------------------------------------------------------------------------*/
FoamFile
{
    version     2.0;
    format      ascii;
    class       volScalarField;
    location    "200";
    object      p;
}
// * * * * * * * * * * * * * * * * * * * * * * * * * * * * * * * * * * * * * //

dimensions      [0 2 -2 0 0 0 0];

internalField   nonuniform List<scalar> 
11040
(
-0.0329598
-93.1234
-327.796
-373.47
-374.939
-370.378
-356.286
-331.684
-299.954
-262.509
-219.467
-163.05
-110.222
-69.9585
-38.3303
-6.19567
25.1393
53.66
78.3717
97.9187
111.029
117.209
120.063
121.838
123.086
124.032
124.738
125.238
125.566
125.748
125.799
125.734
125.577
125.39
125.336
125.755
126.906
128.683
132.082
137.906
134.133
48.4645
-44.0091
-191.677
-257.604
-283.484
-299.284
-303.862
-295.277
-275.888
-247.749
-211.906
-162.377
-112.565
-72.3364
-40.1603
-8.04199
23.338
52.0987
77.1699
97.1671
110.704
117.105
120.02
121.808
123.06
124.014
124.729
125.241
125.578
125.768
125.827
125.768
125.611
125.414
125.333
125.707
126.802
128.504
131.695
137.182
131.131
81.4144
-11.0143
-115.708
-199.102
-241.198
-263.825
-273.238
-269.433
-254.634
-231.019
-200.033
-157.289
-111.332
-71.9529
-39.9518
-8.61533
22.2869
50.9325
76.1092
96.4203
110.361
117.05
120.051
121.833
123.066
124.015
124.733
125.25
125.595
125.793
125.859
125.806
125.653
125.452
125.346
125.663
126.68
128.3
131.291
136.68
129.145
105.889
22.9075
-54.7396
-132.164
-180.921
-211
-228.788
-233.671
-226.564
-209.598
-184.631
-149.005
-107.962
-70.3874
-38.9058
-8.58264
21.5531
49.8605
75.0069
95.5737
109.939
117.001
120.146
121.922
123.126
124.052
124.759
125.276
125.624
125.827
125.9
125.853
125.703
125.495
125.361
125.604
126.509
128.002
130.74
135.959
128.152
125.991
54.8435
-5.38372
-72.2194
-123.73
-159.342
-183.218
-195.125
-195.177
-184.95
-166.316
-137.928
-102.679
-67.8521
-37.3029
-8.18795
20.8418
48.5116
73.4439
94.226
109.126
116.767
120.222
122.063
123.248
124.137
124.82
125.325
125.67
125.873
125.953
125.914
125.767
125.55
125.379
125.53
126.289
127.61
130.056
134.878
127.799
142.023
82.8438
34.7012
-21.0302
-70.0596
-107.754
-135.618
-153.22
-159.941
-156.55
-144.58
-123.513
-94.696
-63.6183
-34.712
-7.12902
20.4096
47.054
71.4615
92.2764
107.727
116.168
120.184
122.223
123.433
124.288
124.933
125.411
125.741
125.939
126.022
125.991
125.848
125.622
125.408
125.451
126.029
127.138
129.272
133.479
127.831
154.795
106.456
67.2559
21.5309
-21.9892
-58.5552
-87.9288
-109.262
-121.389
-124.323
-118.996
-105.223
-83.3311
-57.0532
-30.7297
-5.11854
20.5465
45.7404
69.2292
89.7524
105.612
114.975
119.835
122.315
123.672
124.524
125.122
125.556
125.856
126.037
126.114
126.087
125.949
125.714
125.455
125.379
125.75
126.618
128.431
131.897
128.092
164.937
125.758
93.5623
56.3234
19.3371
-13.9108
-42.5345
-65.4435
-81.1862
-89.23
-89.8849
-82.9546
-68.0888
-47.4736
-24.7772
-1.75493
21.6176
44.9187
67.0493
86.8475
102.798
112.962
118.822
122.09
123.869
124.851
125.423
125.794
126.041
126.189
126.248
126.216
126.079
125.835
125.532
125.335
125.487
126.105
127.6
130.337
128.42
172.919
141.191
114.644
84.4033
53.7679
24.9501
-1.23124
-23.7614
-41.2
-52.7131
-58.1424
-57.1263
-48.8652
-34.3223
-16.1757
3.50115
24.0802
45.0405
65.3806
84.0062
99.6184
110.193
116.869
121.122
123.688
125.133
125.866
126.204
126.358
126.431
126.449
126.398
126.255
126.003
125.662
125.355
125.298
125.679
126.876
129.038
128.747
179.106
153.334
131.393
106.854
81.8447
57.672
34.8377
14.1165
-3.30598
-16.5388
-25.1802
-28.7314
-26.133
-17.4803
-4.41716
11.215
28.4442
46.5921
64.7146
81.7608
96.6045
107.145
114.209
119.234
122.669
124.889
126.176
126.782
126.955
126.908
126.795
126.67
126.503
126.243
125.88
125.495
125.272
125.45
126.384
128.186
129.107
183.813
162.775
144.601
124.676
104.408
84.5415
65.2915
47.1654
31.0031
17.5669
7.31451
0.767522
-0.95402
2.58311
10.6043
21.7987
35.2094
50.0866
65.5495
80.6084
94.2607
104.416
111.509
116.889
120.874
123.763
125.764
127.006
127.611
127.742
127.58
127.281
126.949
126.608
126.227
125.818
125.508
125.549
126.298
127.905
129.588
187.316
170.046
154.958
138.754
122.373
106.234
90.3699
75.0616
60.8518
48.2868
37.7655
29.7309
25.196
24.8225
28.4341
35.2897
44.6962
55.9906
68.4041
81.0612
93.0736
102.499
109.376
114.806
118.998
122.197
124.63
126.431
127.652
128.337
128.559
128.431
128.074
127.58
127.022
126.493
126.12
126.105
126.764
128.331
130.399
189.862
175.608
163.056
149.843
136.603
123.562
110.663
98.0306
85.9981
74.9043
65.0345
56.7149
50.7543
47.8246
48.0715
51.1954
56.8339
64.5331
73.7021
83.6356
93.5874
101.883
108.256
113.499
117.703
121.003
123.58
125.597
127.158
128.31
129.065
129.441
129.483
129.265
128.863
128.382
127.936
127.753
128.197
129.642
131.759
191.663
179.846
169.383
158.578
147.855
137.333
126.916
116.64
106.696
97.2772
88.5539
80.7412
74.424
70.1634
68.2176
68.5489
71.0577
75.5205
81.561
88.6781
96.3008
103.1
108.63
113.398
117.405
120.684
123.319
125.415
127.081
128.405
129.444
130.226
130.76
131.061
131.159
131.158
131.182
131.38
131.962
133.351
135.025
192.895
183.063
174.329
165.466
156.759
148.262
139.869
131.573
123.474
115.68
108.272
101.377
95.3883
90.7218
87.6262
86.176
86.4191
88.3064
91.6538
96.1609
101.442
106.543
110.959
114.966
118.513
121.576
124.161
126.307
128.069
129.511
130.697
131.688
132.534
133.271
133.922
134.543
135.209
136.038
137.126
138.973
140.555
193.715
185.516
178.217
170.925
163.83
156.95
150.186
143.508
136.964
130.613
124.483
118.636
113.33
108.846
105.375
103.014
101.863
101.965
103.268
105.631
108.829
112.265
115.463
118.535
121.41
124.04
126.392
128.463
130.268
131.835
133.199
134.405
135.501
136.544
137.59
138.7
139.928
141.361
142.999
145.252
147.172
194.287
187.441
181.337
175.317
169.514
163.924
158.457
153.077
147.805
142.667
137.667
132.829
128.318
124.314
120.947
118.296
116.461
115.514
115.471
116.289
117.864
119.877
121.942
124.071
126.197
128.266
130.232
132.072
133.781
135.366
136.842
138.231
139.564
140.876
142.214
143.628
145.17
146.92
148.901
151.318
153.81
194.653
188.875
183.711
178.672
173.857
169.247
164.761
160.366
156.068
151.878
147.793
143.816
140.048
136.608
133.578
131.015
128.996
127.591
126.837
126.738
127.257
128.258
129.453
130.807
132.269
133.793
135.333
136.861
138.362
139.831
141.273
142.696
144.117
145.555
147.038
148.594
150.253
152.058
154.04
156.259
158.692
194.86
189.907
185.471
181.182
177.114
173.241
169.492
165.834
162.269
158.798
155.414
152.114
148.963
146.039
143.396
141.071
139.121
137.601
136.551
135.99
135.914
136.287
136.9
137.706
138.668
139.751
140.917
142.139
143.4
144.69
146.006
147.349
148.725
150.143
151.618
153.16
154.783
156.503
158.334
160.281
162.363
194.985
190.685
186.828
183.125
179.637
176.331
173.146
170.052
167.046
164.127
161.287
158.519
155.866
153.383
151.104
149.053
147.273
145.804
144.68
143.925
143.547
143.56
143.812
144.256
144.87
145.626
146.496
147.456
148.489
149.586
150.739
151.943
153.199
154.507
155.872
157.298
158.785
160.342
161.969
163.661
165.423
195.067
191.297
187.91
184.678
181.651
178.795
176.055
173.404
170.839
168.355
165.943
163.599
161.351
159.236
157.279
155.496
153.916
152.57
151.485
150.684
150.178
150.002
150.044
150.263
150.646
151.171
151.818
152.567
153.404
154.319
155.303
156.349
157.454
158.614
159.829
161.097
162.415
163.784
165.201
166.659
168.157
195.127
191.795
188.797
185.952
183.301
180.809
178.428
176.134
173.922
171.788
169.722
167.72
165.802
163.995
162.316
160.775
159.394
158.197
157.203
156.432
155.895
155.636
155.565
155.65
155.885
156.253
156.737
157.323
157.999
158.755
159.582
160.474
161.424
162.427
163.481
164.58
165.72
166.899
168.113
169.354
170.62
195.176
192.212
189.541
187.019
184.679
182.488
180.402
178.4
176.478
174.629
172.847
171.125
169.48
167.93
166.488
165.161
163.965
162.916
162.032
161.328
160.813
160.529
160.406
160.417
160.56
160.823
161.192
161.655
162.202
162.825
163.516
164.267
165.073
165.927
166.826
167.764
168.735
169.737
170.764
171.812
172.873
195.22
192.568
190.176
187.927
185.849
183.91
182.07
180.312
178.63
177.019
175.471
173.982
172.564
171.23
169.99
168.848
167.817
166.909
166.137
165.513
165.044
164.77
164.628
164.603
164.692
164.885
165.172
165.542
165.989
166.503
167.079
167.709
168.387
169.107
169.867
170.658
171.477
172.321
173.185
174.063
174.949
195.263
192.879
190.727
188.711
186.855
185.129
183.498
181.946
180.466
179.054
177.703
176.409
175.182
174.031
172.962
171.981
171.095
170.313
169.647
169.104
168.692
168.442
168.303
168.263
168.32
168.468
168.697
168.998
169.365
169.792
170.272
170.799
171.367
171.973
172.61
173.275
173.962
174.669
175.391
176.124
176.862
195.306
193.154
191.209
189.394
187.729
186.186
184.733
183.356
182.048
180.805
179.621
178.493
177.427
176.431
175.51
174.665
173.905
173.236
172.665
172.2
171.845
171.626
171.5
171.457
171.497
171.615
171.802
172.05
172.355
172.711
173.113
173.554
174.03
174.538
175.072
175.628
176.203
176.793
177.395
178.007
178.62
195.35
193.4
191.636
189.995
188.496
187.11
185.81
184.583
183.423
182.325
181.284
180.297
179.369
178.505
177.709
176.983
176.332
175.76
175.274
174.879
174.578
174.392
174.283
174.243
174.275
174.373
174.528
174.736
174.992
175.291
175.628
175.998
176.398
176.823
177.27
177.735
178.215
178.708
179.21
179.719
180.229
195.395
193.621
192.015
190.527
189.171
187.923
186.756
185.659
184.626
183.653
182.735
181.87
181.059
180.309
179.621
178.996
178.439
177.952
177.54
177.207
176.954
176.8
176.708
176.675
176.703
176.787
176.919
177.095
177.312
177.564
177.848
178.159
178.495
178.852
179.226
179.616
180.017
180.428
180.847
181.271
181.695
195.44
193.821
192.355
191
189.771
188.642
187.591
186.607
185.685
184.821
184.009
183.248
182.54
181.887
181.292
180.754
180.277
179.863
179.515
179.236
179.027
178.9
178.825
178.8
178.827
178.9
179.014
179.165
179.35
179.564
179.804
180.067
180.35
180.649
180.964
181.29
181.626
181.97
182.319
182.673
183.025
195.486
194.003
192.66
191.423
190.304
189.28
188.331
187.446
186.621
185.851
185.132
184.462
183.841
183.273
182.758
182.295
181.888
181.536
181.243
181.01
180.838
180.736
180.676
180.659
180.685
180.751
180.851
180.981
181.139
181.322
181.526
181.748
181.987
182.24
182.504
182.778
183.059
183.347
183.639
183.935
184.229
195.532
194.17
192.935
191.802
190.78
189.848
188.988
188.191
187.451
186.764
186.126
185.535
184.991
184.495
184.049
183.651
183.303
183.006
182.76
182.566
182.425
182.344
182.298
182.287
182.314
182.374
182.461
182.575
182.711
182.867
183.041
183.23
183.432
183.645
183.868
184.098
184.334
184.576
184.82
185.068
185.313
195.578
194.321
193.183
192.142
191.206
190.356
189.574
188.854
188.188
187.574
187.007
186.485
186.007
185.576
185.189
184.847
184.55
184.299
184.093
183.933
183.819
183.756
183.721
183.716
183.743
183.797
183.875
183.974
184.092
184.226
184.375
184.536
184.707
184.887
185.075
185.269
185.468
185.67
185.876
186.083
186.289
195.622
194.46
193.407
192.446
191.586
190.809
190.097
189.444
188.844
188.294
187.79
187.328
186.909
186.533
186.198
185.904
185.652
185.439
185.268
185.136
185.045
184.996
184.971
184.971
184.998
185.048
185.117
185.204
185.306
185.422
185.549
185.686
185.832
185.985
186.144
186.307
186.474
186.645
186.817
186.991
187.163
195.666
194.586
193.609
192.72
191.927
191.213
190.563
189.97
189.429
188.935
188.486
188.077
187.709
187.381
187.092
186.84
186.625
186.447
186.304
186.197
186.124
186.088
186.071
186.075
186.102
186.147
186.209
186.286
186.375
186.474
186.584
186.701
186.825
186.954
187.089
187.227
187.368
187.511
187.656
187.802
187.947
195.707
194.701
193.79
192.965
192.231
191.574
190.979
190.439
189.949
189.506
189.105
188.743
188.42
188.134
187.884
187.669
187.486
187.337
187.219
187.132
187.075
187.049
187.039
187.046
187.072
187.114
187.17
187.237
187.314
187.401
187.495
187.595
187.7
187.81
187.924
188.041
188.16
188.281
188.402
188.526
188.647
195.747
194.804
193.953
193.184
192.503
191.895
191.348
190.855
190.411
190.013
189.655
189.335
189.051
188.802
188.587
188.402
188.248
188.124
188.027
187.957
187.913
187.896
187.891
187.9
187.926
187.965
188.015
188.074
188.142
188.216
188.297
188.383
188.473
188.567
188.663
188.762
188.862
188.964
189.066
189.17
189.271
195.784
194.898
194.098
193.378
192.743
192.18
191.676
191.225
190.822
190.462
190.142
189.859
189.61
189.394
189.208
189.052
188.922
188.819
188.74
188.685
188.652
188.641
188.64
188.652
188.677
188.713
188.758
188.81
188.869
188.934
189.004
189.077
189.154
189.233
189.315
189.399
189.483
189.569
189.655
189.742
189.827
195.819
194.981
194.226
193.549
192.955
192.431
191.965
191.551
191.184
190.859
190.574
190.323
190.105
189.917
189.758
189.625
189.517
189.432
189.369
189.326
189.302
189.297
189.3
189.313
189.337
189.371
189.411
189.458
189.509
189.566
189.626
189.689
189.754
189.822
189.891
189.962
190.033
190.105
190.178
190.25
190.321
195.851
195.055
194.339
193.7
193.141
192.65
192.218
191.837
191.502
191.209
190.953
190.731
190.54
190.378
190.242
190.13
190.041
189.972
189.922
189.889
189.873
189.873
189.878
189.893
189.916
189.947
189.983
190.025
190.07
190.119
190.171
190.225
190.281
190.339
190.397
190.457
190.517
190.577
190.638
190.699
190.758
195.88
195.119
194.436
193.829
193.301
192.84
192.437
192.085
191.779
191.514
191.285
191.089
190.922
190.782
190.667
190.574
190.5
190.445
190.406
190.383
190.374
190.377
190.386
190.401
190.424
190.453
190.486
190.523
190.563
190.606
190.651
190.697
190.745
190.794
190.844
190.894
190.945
190.995
191.046
191.097
191.146
195.905
195.174
194.519
193.939
193.437
193.002
192.625
192.298
192.018
191.777
191.572
191.399
191.254
191.134
191.037
190.96
190.9
190.857
190.829
190.813
190.809
190.815
190.826
190.842
190.864
190.891
190.921
190.954
190.99
191.027
191.066
191.106
191.147
191.189
191.231
191.273
191.316
191.359
191.401
191.443
191.484
195.928
195.22
194.588
194.031
193.55
193.137
192.782
192.478
192.22
192.001
191.818
191.665
191.539
191.437
191.356
191.294
191.247
191.215
191.195
191.187
191.188
191.198
191.211
191.228
191.25
191.276
191.304
191.334
191.366
191.399
191.433
191.468
191.503
191.539
191.575
191.61
191.646
191.681
191.717
191.752
191.785
195.947
195.256
194.641
194.102
193.64
193.246
192.91
192.625
192.387
192.188
192.023
191.889
191.78
191.694
191.628
191.578
191.543
191.52
191.507
191.504
191.509
191.522
191.536
191.554
191.575
191.6
191.626
191.653
191.682
191.711
191.741
191.771
191.802
191.832
191.862
191.893
191.923
191.952
191.982
192.011
192.039
195.962
195.284
194.681
194.156
193.707
193.328
193.008
192.741
192.519
192.338
192.191
192.073
191.98
191.909
191.856
191.819
191.794
191.781
191.776
191.78
191.79
191.805
191.822
191.842
191.864
191.888
191.913
191.939
191.966
191.993
192.019
192.046
192.072
192.099
192.125
192.15
192.175
192.2
192.224
192.248
192.27
195.974
195.303
194.709
194.193
193.755
193.386
193.079
192.826
192.619
192.453
192.321
192.218
192.139
192.08
192.039
192.011
191.995
191.989
191.99
191.998
192.011
192.028
192.046
192.066
192.088
192.111
192.135
192.159
192.184
192.208
192.232
192.255
192.279
192.302
192.324
192.346
192.367
192.388
192.408
192.428
192.447
195.982
195.312
194.722
194.212
193.781
193.422
193.125
192.883
192.688
192.535
192.416
192.326
192.26
192.215
192.186
192.171
192.166
192.17
192.18
192.195
192.213
192.235
192.257
192.28
192.304
192.328
192.352
192.376
192.4
192.423
192.445
192.467
192.488
192.508
192.527
192.546
192.564
192.581
192.598
192.614
192.629
195.985
195.306
194.711
194.2
193.772
193.419
193.131
192.9
192.718
192.577
192.47
192.392
192.338
192.302
192.281
192.272
192.273
192.282
192.296
192.314
192.334
192.357
192.38
192.404
192.428
192.452
192.475
192.498
192.52
192.542
192.563
192.583
192.602
192.62
192.638
192.654
192.67
192.685
192.699
192.713
192.726
195.982
195.286
194.679
194.161
193.73
193.378
193.095
192.872
192.701
192.572
192.48
192.417
192.379
192.361
192.358
192.368
192.386
192.41
192.437
192.465
192.493
192.523
192.551
192.579
192.606
192.632
192.657
192.68
192.703
192.724
192.744
192.763
192.78
192.797
192.812
192.827
192.841
192.853
192.865
192.876
192.887
140.3
144.967
151.061
155.648
160.323
165.271
170.059
174.524
178.602
182.249
185.445
188.209
190.562
192.542
194.186
195.53
196.618
197.479
198.154
198.665
199.047
199.317
199.499
199.608
199.661
199.668
199.64
199.585
199.509
199.416
199.308
199.189
199.061
198.926
198.788
198.651
198.519
198.395
198.28
198.178
198.084
198.001
197.93
197.864
197.807
197.754
197.706
197.661
197.618
197.578
197.539
197.501
197.463
197.427
197.39
197.353
197.317
197.28
197.245
197.208
197.173
197.136
197.101
197.066
197.03
196.997
196.962
196.931
196.899
196.87
196.841
196.82
196.79
196.792
136.745
142.929
149.402
154.563
159.615
164.781
169.729
174.318
178.493
182.212
185.462
188.263
190.643
192.638
194.291
195.638
196.725
197.584
198.254
198.759
199.134
199.397
199.573
199.676
199.723
199.724
199.693
199.634
199.556
199.461
199.353
199.233
199.103
198.966
198.824
198.681
198.542
198.41
198.288
198.178
198.077
197.989
197.913
197.844
197.785
197.73
197.682
197.638
197.596
197.557
197.519
197.483
197.447
197.412
197.377
197.342
197.307
197.272
197.237
197.202
197.167
197.131
197.097
197.062
197.027
196.994
196.96
196.928
196.897
196.868
196.838
196.818
196.788
196.79
133.527
139.7
146.973
153.08
158.693
164.175
169.338
174.08
178.366
182.168
185.478
188.32
190.726
192.739
194.4
195.75
196.836
197.69
198.354
198.853
199.22
199.477
199.645
199.741
199.782
199.778
199.742
199.68
199.599
199.502
199.393
199.272
199.141
199.001
198.855
198.707
198.562
198.423
198.294
198.176
198.07
197.977
197.896
197.824
197.762
197.707
197.658
197.614
197.574
197.536
197.5
197.465
197.431
197.397
197.364
197.33
197.297
197.263
197.23
197.195
197.161
197.126
197.092
197.058
197.024
196.991
196.957
196.925
196.894
196.865
196.836
196.816
196.786
196.788
130.83
136.459
144.098
151.147
157.485
163.407
168.857
173.797
178.219
182.115
185.49
188.376
190.811
192.839
194.508
195.86
196.943
197.792
198.449
198.94
199.299
199.548
199.708
199.797
199.832
199.823
199.781
199.715
199.631
199.533
199.422
199.3
199.167
199.025
198.876
198.724
198.575
198.43
198.295
198.173
198.062
197.964
197.88
197.805
197.742
197.685
197.636
197.592
197.552
197.515
197.48
197.447
197.415
197.382
197.351
197.318
197.286
197.253
197.221
197.187
197.154
197.12
197.087
197.053
197.019
196.986
196.953
196.922
196.89
196.862
196.833
196.813
196.783
196.786
129.16
133.999
141.304
148.9
155.96
162.435
168.262
173.455
178.051
182.064
185.514
188.446
190.91
192.954
194.629
195.98
197.058
197.9
198.547
199.029
199.378
199.618
199.769
199.851
199.878
199.862
199.816
199.745
199.658
199.557
199.443
199.32
199.185
199.041
198.89
198.735
198.582
198.433
198.294
198.167
198.052
197.951
197.863
197.787
197.721
197.664
197.615
197.571
197.532
197.495
197.462
197.429
197.398
197.367
197.337
197.305
197.275
197.243
197.212
197.179
197.147
197.113
197.08
197.047
197.013
196.981
196.948
196.917
196.886
196.858
196.829
196.809
196.78
196.783
128.364
132.4
139.045
146.707
154.244
161.252
167.526
173.037
177.849
182.01
185.557
188.545
191.038
193.095
194.772
196.119
197.188
198.02
198.655
199.125
199.462
199.69
199.832
199.904
199.922
199.9
199.847
199.772
199.68
199.575
199.46
199.334
199.197
199.051
198.898
198.741
198.584
198.432
198.289
198.159
198.04
197.936
197.846
197.767
197.701
197.643
197.593
197.549
197.511
197.475
197.442
197.411
197.381
197.352
197.322
197.292
197.263
197.232
197.201
197.17
197.138
197.105
197.073
197.041
197.008
196.976
196.943
196.912
196.882
196.854
196.825
196.806
196.777
196.78
128.249
131.672
137.632
144.978
152.634
159.985
166.668
172.535
177.607
181.944
185.609
188.672
191.205
193.275
194.949
196.287
197.342
198.159
198.777
199.231
199.553
199.768
199.896
199.957
199.966
199.936
199.876
199.794
199.698
199.589
199.47
199.342
199.203
199.055
198.9
198.741
198.582
198.427
198.282
198.148
198.027
197.92
197.828
197.748
197.68
197.621
197.571
197.527
197.489
197.454
197.422
197.393
197.364
197.335
197.307
197.278
197.25
197.22
197.191
197.16
197.129
197.097
197.066
197.033
197.001
196.969
196.937
196.907
196.877
196.849
196.821
196.802
196.773
196.777
128.762
131.831
137.2
144.044
151.486
158.899
165.817
171.981
177.329
181.871
185.669
188.816
191.402
193.498
195.173
196.496
197.53
198.324
198.921
199.353
199.656
199.853
199.966
200.013
200.011
199.97
199.902
199.813
199.711
199.597
199.474
199.343
199.202
199.052
198.896
198.735
198.574
198.418
198.27
198.134
198.011
197.903
197.809
197.727
197.658
197.599
197.548
197.505
197.467
197.433
197.402
197.373
197.345
197.318
197.291
197.263
197.236
197.207
197.179
197.149
197.119
197.088
197.057
197.025
196.994
196.963
196.931
196.901
196.871
196.844
196.816
196.797
196.769
196.773
129.856
132.834
137.754
144.076
151.108
158.307
165.217
171.513
177.06
181.8
185.745
188.983
191.62
193.746
195.433
196.75
197.763
198.528
199.094
199.498
199.775
199.95
200.043
200.074
200.057
200.005
199.926
199.829
199.719
199.6
199.472
199.337
199.194
199.042
198.884
198.723
198.561
198.404
198.255
198.118
197.993
197.883
197.788
197.705
197.635
197.575
197.525
197.482
197.444
197.411
197.38
197.352
197.326
197.299
197.274
197.247
197.221
197.193
197.166
197.137
197.108
197.078
197.047
197.017
196.985
196.955
196.924
196.894
196.865
196.838
196.811
196.792
196.764
196.769
131.391
134.521
139.222
145.083
151.654
158.469
165.141
171.353
176.938
181.784
185.848
189.18
191.873
194.019
195.709
197.022
198.025
198.769
199.304
199.674
199.918
200.063
200.132
200.142
200.107
200.04
199.949
199.842
199.723
199.597
199.464
199.324
199.178
199.025
198.866
198.704
198.542
198.385
198.236
198.098
197.972
197.861
197.765
197.681
197.611
197.551
197.5
197.457
197.42
197.387
197.358
197.33
197.305
197.28
197.255
197.23
197.204
197.178
197.152
197.124
197.096
197.066
197.037
197.007
196.976
196.946
196.916
196.887
196.858
196.832
196.805
196.787
196.759
196.765
133.089
136.579
141.36
146.951
153.094
159.471
165.782
171.728
177.158
181.952
186.031
189.412
192.155
194.327
196.012
197.305
198.286
199.013
199.529
199.874
200.087
200.199
200.237
200.22
200.163
200.078
199.972
199.852
199.723
199.588
199.448
199.303
199.154
198.999
198.839
198.678
198.517
198.36
198.211
198.073
197.948
197.836
197.739
197.656
197.585
197.525
197.474
197.431
197.394
197.362
197.333
197.307
197.282
197.258
197.235
197.211
197.187
197.161
197.136
197.109
197.082
197.054
197.025
196.996
196.966
196.937
196.907
196.879
196.85
196.825
196.798
196.781
196.754
196.76
134.763
138.656
143.687
149.282
155.189
161.217
167.14
172.729
177.864
182.453
186.41
189.738
192.473
194.652
196.334
197.608
198.557
199.248
199.732
200.054
200.248
200.341
200.355
200.311
200.228
200.119
199.994
199.859
199.718
199.573
199.425
199.274
199.121
198.964
198.804
198.643
198.483
198.328
198.18
198.043
197.919
197.808
197.711
197.627
197.556
197.496
197.445
197.402
197.366
197.335
197.307
197.282
197.258
197.235
197.213
197.19
197.167
197.143
197.119
197.093
197.067
197.04
197.012
196.984
196.955
196.926
196.897
196.87
196.842
196.817
196.791
196.774
196.748
196.755
136.8
140.844
145.911
151.557
157.426
163.296
168.947
174.223
179.039
183.346
187.08
190.245
192.88
195.002
196.652
197.904
198.829
199.485
199.925
200.204
200.366
200.44
200.442
200.386
200.289
200.162
200.018
199.864
199.707
199.55
199.393
199.236
199.078
198.919
198.758
198.598
198.441
198.288
198.142
198.007
197.884
197.774
197.678
197.595
197.524
197.464
197.414
197.371
197.336
197.305
197.278
197.254
197.231
197.21
197.189
197.167
197.146
197.123
197.1
197.076
197.051
197.024
196.998
196.971
196.943
196.915
196.887
196.86
196.833
196.808
196.784
196.767
196.741
196.75
140.465
143.894
148.448
153.947
159.67
165.332
170.773
175.859
180.469
184.519
188.002
190.955
193.419
195.415
196.98
198.174
199.064
199.69
200.096
200.337
200.458
200.494
200.468
200.398
200.296
200.169
200.021
199.859
199.69
199.52
199.351
199.185
199.022
198.861
198.701
198.543
198.388
198.238
198.096
197.964
197.843
197.735
197.64
197.558
197.487
197.428
197.379
197.337
197.302
197.272
197.246
197.223
197.202
197.181
197.162
197.142
197.122
197.1
197.079
197.056
197.032
197.007
196.982
196.956
196.929
196.902
196.875
196.849
196.823
196.799
196.775
196.759
196.734
196.744
146.399
149.348
153.149
158.088
163.243
168.248
173.056
177.591
181.756
185.483
188.759
191.566
193.894
195.778
197.255
198.381
199.219
199.811
200.195
200.418
200.521
200.53
200.469
200.366
200.239
200.099
199.95
199.794
199.632
199.464
199.293
199.122
198.954
198.789
198.629
198.473
198.322
198.177
198.039
197.911
197.793
197.688
197.595
197.515
197.446
197.388
197.339
197.298
197.264
197.235
197.211
197.189
197.169
197.15
197.132
197.113
197.095
197.075
197.055
197.034
197.012
196.988
196.964
196.939
196.914
196.888
196.862
196.837
196.812
196.789
196.766
196.751
196.727
196.737
152.039
154.706
157.833
161.96
166.44
170.903
175.291
179.522
183.455
186.975
190.023
192.584
194.662
196.299
197.565
198.524
199.232
199.742
200.09
200.306
200.418
200.44
200.39
200.287
200.152
199.996
199.828
199.66
199.496
199.336
199.178
199.02
198.862
198.702
198.544
198.39
198.242
198.101
197.968
197.846
197.733
197.632
197.542
197.464
197.397
197.341
197.294
197.254
197.221
197.194
197.171
197.15
197.132
197.115
197.098
197.082
197.065
197.047
197.029
197.009
196.989
196.967
196.944
196.921
196.897
196.872
196.847
196.823
196.799
196.778
196.756
196.742
196.718
196.731
157.25
159.725
162.352
165.477
168.903
172.438
176.023
179.605
183.091
186.377
189.38
192.037
194.305
196.166
197.634
198.737
199.506
199.987
200.245
200.344
200.34
200.279
200.185
200.071
199.943
199.798
199.639
199.471
199.302
199.136
198.977
198.827
198.686
198.549
198.414
198.278
198.143
198.011
197.885
197.768
197.66
197.564
197.479
197.404
197.34
197.286
197.241
197.203
197.172
197.147
197.125
197.107
197.09
197.075
197.06
197.046
197.031
197.015
196.999
196.981
196.963
196.943
196.922
196.9
196.878
196.855
196.831
196.809
196.786
196.765
196.745
196.732
196.71
196.723
161.11
163.241
165.461
167.869
170.465
173.188
175.992
178.836
181.673
184.449
187.111
189.607
191.893
193.926
195.674
197.116
198.247
199.081
199.65
199.996
200.159
200.18
200.101
199.959
199.785
199.602
199.423
199.251
199.089
198.931
198.778
198.63
198.49
198.356
198.231
198.113
197.999
197.888
197.779
197.675
197.576
197.486
197.405
197.335
197.275
197.224
197.182
197.147
197.118
197.094
197.075
197.058
197.044
197.031
197.019
197.006
196.994
196.981
196.966
196.951
196.934
196.916
196.897
196.878
196.857
196.836
196.814
196.792
196.771
196.752
196.733
196.721
196.7
196.715
164.237
166.013
167.874
169.81
171.853
173.994
176.205
178.456
180.722
182.972
185.172
187.291
189.297
191.166
192.875
194.407
195.748
196.885
197.812
198.526
199.035
199.357
199.52
199.557
199.501
199.384
199.23
199.059
198.888
198.725
198.574
198.435
198.305
198.181
198.063
197.95
197.842
197.742
197.647
197.558
197.475
197.396
197.324
197.26
197.204
197.156
197.117
197.085
197.059
197.038
197.021
197.007
196.995
196.984
196.974
196.964
196.954
196.943
196.931
196.918
196.904
196.888
196.871
196.853
196.834
196.815
196.795
196.775
196.755
196.738
196.72
196.709
196.69
196.707
166.976
168.429
169.948
171.512
173.147
174.855
176.621
178.426
180.255
182.09
183.908
185.688
187.407
189.045
190.584
192.01
193.309
194.476
195.505
196.394
197.142
197.75
198.217
198.548
198.75
198.839
198.838
198.771
198.661
198.528
198.386
198.245
198.113
197.99
197.879
197.777
197.682
197.591
197.506
197.427
197.354
197.288
197.228
197.174
197.126
197.083
197.048
197.019
196.996
196.977
196.963
196.952
196.942
196.934
196.927
196.92
196.912
196.904
196.894
196.884
196.872
196.858
196.844
196.828
196.811
196.793
196.775
196.757
196.739
196.722
196.706
196.697
196.679
196.698
169.455
170.629
171.853
173.113
174.43
175.804
177.226
178.685
180.172
181.675
183.18
184.672
186.135
187.554
188.914
190.2
191.402
192.511
193.52
194.427
195.232
195.936
196.543
197.054
197.469
197.79
198.017
198.153
198.208
198.196
198.136
198.044
197.936
197.823
197.711
197.606
197.512
197.428
197.353
197.285
197.223
197.167
197.117
197.072
197.034
197.001
196.972
196.948
196.928
196.913
196.902
196.893
196.887
196.882
196.877
196.873
196.868
196.862
196.855
196.847
196.837
196.826
196.814
196.8
196.785
196.77
196.753
196.737
196.721
196.706
196.691
196.684
196.667
196.688
171.699
172.642
173.623
174.639
175.701
176.81
177.959
179.144
180.357
181.591
182.838
184.088
185.329
186.549
187.738
188.884
189.976
191.005
191.964
192.847
193.65
194.373
195.017
195.584
196.079
196.506
196.867
197.163
197.392
197.555
197.651
197.686
197.671
197.619
197.544
197.458
197.369
197.284
197.206
197.139
197.083
197.035
196.995
196.96
196.93
196.906
196.885
196.869
196.855
196.845
196.837
196.831
196.827
196.825
196.824
196.822
196.82
196.817
196.813
196.808
196.801
196.793
196.783
196.771
196.759
196.745
196.731
196.716
196.701
196.688
196.675
196.669
196.654
196.678
173.768
174.521
175.305
176.121
176.975
177.869
178.798
179.758
180.747
181.76
182.791
183.833
184.879
185.921
186.949
187.956
188.932
189.869
190.76
191.598
192.378
193.096
193.75
194.341
194.868
195.335
195.746
196.104
196.414
196.678
196.896
197.065
197.183
197.251
197.272
197.254
197.21
197.15
197.084
197.019
196.959
196.908
196.869
196.839
196.817
196.801
196.788
196.779
196.773
196.769
196.766
196.765
196.765
196.766
196.767
196.769
196.77
196.77
196.769
196.767
196.762
196.757
196.749
196.74
196.73
196.719
196.706
196.694
196.681
196.67
196.658
196.654
196.64
196.667
175.688
176.286
176.91
177.562
178.248
178.966
179.715
180.492
181.296
182.124