/*--------------------------------*- C++ -*----------------------------------*\
| =========                 |                                                 |
| \\      /  F ield         | OpenFOAM: The Open Source CFD Toolbox           |
|  \\    /   O peration     | Version:  5.x                                   |
|   \\  /    A nd           | Web:      www.OpenFOAM.org                      |
|    \\/     M anipulation  |                                                 |
\*---------------------------------------------------------------------------*/
FoamFile
{
    version     2.0;
    format      ascii;
    class       volScalarField;
    location    "200";
    object      p;
}
// * * * * * * * * * * * * * * * * * * * * * * * * * * * * * * * * * * * * * //

dimensions      [0 2 -2 0 0 0 0];

internalField   nonuniform List<scalar> 
11040
(
2.13415
65.6281
86.4916
89.2509
92.0554
93.7744
94.9202
95.7015
96.1974
96.475
96.563
96.4675
96.1922
95.7343
95.09
94.2441
93.1826
91.8858
90.3436
88.5398
86.538
84.4768
82.4298
80.4497
78.6073
76.9199
75.3609
73.8401
72.2305
70.2746
67.6161
63.7502
58.0251
49.4391
36.7708
18.7287
-5.05056
-34.4793
-65.8106
-95.5834
-100.895
89.038
87.1916
87.0308
89.636
91.8706
93.6754
94.8615
95.6837
96.2125
96.5163
96.6281
96.554
96.2969
95.8555
95.2257
94.3931
93.3441
92.0586
90.5258
88.7275
86.7227
84.652
82.592
80.5945
78.7295
77.0175
75.4327
73.8865
72.2541
70.2796
67.6113
63.749
58.0554
49.5568
37.0597
19.2599
-4.23896
-33.4215
-64.6055
-94.7124
-104.408
138.122
118.419
95.0802
90.8955
92.1938
93.6829
94.8535
95.6955
96.2448
96.5631
96.6915
96.6352
96.3938
95.9681
95.352
94.5323
93.4952
92.221
90.6974
88.9074
86.9027
84.8181
82.7423
80.7248
78.8349
77.0936
75.4743
73.8911
72.2186
70.2078
67.5096
63.63
57.9359
49.4782
37.0886
19.4209
-3.94847
-33.0889
-64.3017
-95.0961
-106.823
159.275
137.862
113.855
97.0147
93.5051
94.0861
94.982
95.7911
96.3531
96.6813
96.8214
96.779
96.5484
96.1346
95.5293
94.7195
93.6921
92.4267
90.9098
89.1257
87.1195
85.0189
82.9215
80.8774
78.9537
77.1729
75.5061
73.8701
72.1403
70.0739
67.3243
63.3997
57.6672
49.2038
36.8753
19.2946
-3.9858
-33.1583
-64.4582
-96.171
-109.219
181.51
156.758
134.303
111.898
98.622
95.5342
95.4947
96.0012
96.5318
96.8704
97.0221
96.9946
96.7744
96.3724
95.7787
94.9793
93.9623
92.7063
91.196
89.417
87.4048
85.2816
83.1552
81.0739
79.104
77.27
75.5407
73.8339
72.0249
69.8794
67.0511
63.0515
57.2429
48.7271
36.4079
18.8847
-4.30453
-33.5449
-64.9969
-97.9639
-112.326
200.602
175.908
152.697
130.465
111.441
100.445
97.1953
96.6008
96.8165
97.1308
97.2964
97.2865
97.0773
96.6859
96.1042
95.3146
94.3081
93.0611
91.5575
89.7822
87.7601
85.6086
83.4447
81.3156
79.2851
77.3812
75.5718
73.7729
71.8605
69.6077
66.6711
62.5643
56.6449
48.0348
35.66
18.1499
-4.96838
-34.3033
-66.0059
-100.592
-116.357
214.832
192.543
169.953
148.344
128.679
112.357
102.35
98.631
97.5781
97.5128
97.6265
97.6505
97.4623
97.0821
96.5146
95.7354
94.7407
93.503
92.0068
90.2354
88.2018
86.0169
83.8072
81.6181
79.5109
77.5175
75.6071
73.6934
71.6498
69.259
66.1817
61.9355
55.8751
47.1396
34.6543
17.1062
-6.00849
-35.4103
-67.4798
-103.719
-121.142
225.5
206.236
185.95
165.385
146.022
128.626
114.011
104.369
100.098
98.5815
98.1201
98.0699
97.9152
97.555
97.011
96.2461
95.267
94.0416
92.5551
90.7878
88.7411
86.5198
84.2568
81.9952
79.7941
77.6882
75.6536
73.6013
71.4004
68.8406
65.5923
61.1793
54.961
46.0915
33.4906
15.9022
-7.23336
-36.4786
-68.9056
-106.069
-125.46
233.558
216.952
199.454
181.053
162.644
145.318
129.63
116.197
106.657
101.727
99.7369
98.7372
98.4148
98.07
97.5827
96.8413
95.8852
94.6796
93.2107
91.4544
89.3996
87.1428
84.822
82.4777
80.1658
77.924
75.7386
73.525
71.145
68.3922
64.9513
60.3598
53.993
45.0264
32.3991
14.9353
-7.9244
-36.4456
-68.8767
-105.192
-125.95
239.539
225.088
210.071
194.221
177.804
161.358
145.671
131.332
118.822
109.319
103.725
101.036
99.4478
98.6548
98.1788
97.4916
96.5844
95.4099
93.9699
92.237
90.1866
87.9052
85.5323
83.1029
80.6705
78.2747
75.9137
73.5174
70.9475
67.9968
64.3673
59.6222
53.1708
44.236
31.8383
14.9826
-6.813
-33.7117
-64.987
-97.9851
-118.465
243.849
231.159
218.183
204.6
190.469
175.852
161.055
146.754
133.548
121.857
112.465
106.117
102.5
100.418
98.9597
98.121
97.2965
96.2049
94.8203
93.1251
91.0986
88.814
86.408
83.907
81.3638
78.8152
76.268
73.6782
70.9216
67.8039
64.0382
59.2359
52.8616
44.2455
32.5735
17.1233
-2.51515
-26.4114
-53.9611
-81.3885
-99.8771
246.796
235.559
224.254
212.543
200.431
187.86
174.79
161.456
148.398
136.196
125.291
115.99
108.927
104.4
101.62
99.513
98.0075
96.9341
95.6811
94.0887
92.1209
89.8573
87.4453
84.9044
82.2809
79.6122
76.9083
74.1438
71.2367
68.0193
64.2451
59.5724
53.5776
45.7309
35.4664
22.3097
6.07449
-13.0085
-34.139
-54.8391
-69.2063
248.654
238.617
228.686
218.508
208.064
197.285
186.054
174.36
162.368
150.469
139.207
128.905
119.755
112.218
106.767
103.139
100.467
98.1529
96.4134
94.9355
93.1453
90.9856
88.6135
86.0626
83.4014
80.6639
77.8701
75.0052
72.0218
68.8095
65.1949
60.9174
55.6722
49.105
40.8769
30.7533
18.8288
5.6479
-8.15493
-21.885
-30.5752
249.652
240.622
231.819
222.898
213.823
204.525
194.883
184.837
174.386
163.634
152.847
142.401
132.611
123.7
115.925
109.679
105.127
101.781
98.8355
96.1236
93.9114
91.8943
89.7193
87.2799
84.6415
81.8818
79.0486
76.1655
73.2032
70.1103
66.7741
63.0685
58.8085
53.8153
47.8981
41.0263
33.4184
25.6945
18.1586
10.557
6.83697
249.983
241.817
233.952
226.073
218.125
210.044
201.718
193.077
184.09
174.767
165.166
155.415
145.736
136.442
127.778
119.916
113.103
107.626
103.445
99.9763
96.4963
93.1135
90.3359
87.9576
85.5466
82.9528
80.1967
77.3399
74.4286
71.4717
68.4445
65.2844
61.9269
58.2936
54.3547
50.1452
45.913
42.0999
38.8688
35.4641
34.3424
249.825
242.417
235.347
228.335
221.322
214.244
207.004
199.534
191.788
183.758
175.453
166.886
158.084
149.183
140.394
131.957
124.049
116.827
110.529
105.346
101.119
97.444
93.5829
89.5217
85.9407
82.9867
80.3092
77.6202
74.8547
72.0283
69.1752
66.3142
63.4729
60.6476
57.8771
55.2157
52.8399
51.0241
49.9207
48.579
47.9352
249.398
242.668
236.284
229.999
223.766
217.52
211.176
204.674
197.967
191.033
183.867
176.466
168.81
160.91
152.797
144.557
136.32
128.249
120.495
113.264
106.721
101.563
97.6741
94.0099
89.9543
85.4674
81.0208
77.0575
73.6429
70.5671
67.6343
64.7457
61.9292
59.2244
56.7214
54.4878
52.6486
51.3201
50.6572
49.8444
48.7488
248.84
242.696
236.883
231.19
225.584
220.001
214.364
208.623
202.735
196.676
190.428
183.982
177.317
170.434
163.323
155.988
148.431
140.685
132.794
124.843
116.829
109.414
103.083
97.5196
92.5302
87.9574
83.5537
79.0444
74.3684
69.7011
65.306
61.3217
57.783
54.6093
51.7849
49.2998
47.2129
45.507
44.3444
43.3326
41.4253
248.248
242.606
237.279
232.079
226.984
221.936
216.859
211.713
206.462
201.084
195.559
189.874
184.007
177.959
171.732
165.333
158.757
151.987
144.973
137.657
129.93
122.082
114.451
107.051
99.9837
93.3676
87.2367
81.5196
76.1228
70.9487
65.9336
61.0377
56.312
51.796
47.6222
43.8923
40.7294
38.0743
36.0743
34.6776
31.8609
247.705
242.505
237.6
232.824
228.165
223.569
218.963
214.31
209.582
204.761
199.828
194.769
189.562
184.202
178.684
173.013
167.19
161.214
155.064
148.695
142.023
135.175
128.291
121.341
114.33
107.29
100.301
93.4583
86.8561
80.5461
74.5602
68.9093
63.6359
58.7375
54.2857
50.3515
47.0487
44.3323
42.284
41.2421
39.1628
247.238
242.434
237.906
233.506
229.228
225.024
220.828
216.6
212.32
207.972
203.541
199.014
194.371
189.608
184.716
179.695
174.542
169.258
163.842
158.281
152.551
146.788
141.097
135.432
129.769
124.084
118.389
112.714
107.116
101.651
96.4005
91.4405
86.8673
82.736
79.1334
76.1402
73.8615
72.3051
71.5313
71.8125
72.1429
246.859
242.415
238.23
234.168
230.233
226.379
222.546
218.695
214.81
210.876
206.883
202.82
198.673
194.435
190.103
185.675
181.149
176.525
171.804
166.986
162.067
157.199
152.491
147.932
143.52
139.249
135.115
131.134
127.323
123.716
120.349
117.275
114.541
112.202
110.302
108.905
108.055
107.79
108.129
109.108
110.677
246.566
242.454
238.584
234.832
231.209
227.672
224.168
220.659
217.129
213.567
209.966
206.317
202.61
198.842
195.009
191.115
187.158
183.142
179.071
174.95
170.784
166.71
162.825
159.136
155.657
152.399
149.365
146.574
144.034
141.766
139.78
138.099
136.735
135.711
135.034
134.721
134.771
135.202
135.996
137.098
138.726
246.357
242.55
238.97
235.506
232.171
228.926
225.722
222.526
219.321
216.099
212.852
209.579
206.269
202.924
199.542
196.128
192.684
189.219
185.737
182.252
178.771
175.412
172.247
169.292
166.56
164.066
161.812
159.815
158.076
156.609
155.413
154.496
153.853
153.49
153.391
153.556
153.964
154.616
155.479
156.506
157.845
246.221
242.7
239.389
236.191
233.123
230.149
227.222
224.314
221.408
218.498
215.577
212.645
209.699
206.736
203.763
200.782
197.801
194.828
191.873
188.949
186.073
183.336
180.796
178.46
176.348
174.462
172.809
171.39
170.212
169.271
168.568
168.095
167.848
167.816
167.987
168.345
168.878
169.571
170.403
171.334
172.451
246.152
242.894
239.835
236.886
234.066
231.343
228.673
226.031
223.403
220.781
218.161
215.543
212.927
210.314
207.71
205.119
202.552
200.017
197.527
195.095
192.74
190.535
188.519
186.698
185.088
183.687
182.498
181.518
180.746
180.176
179.803
179.616
179.608
179.764
180.074
180.521
181.092
181.777
182.558
183.405
184.377
246.14
243.128
240.303
237.585
234.998
232.508
230.077
227.682
225.312
222.956
220.614
218.284
215.972
213.676
211.406
209.165
206.967
204.819
202.735
200.728
198.817
197.058
195.477
194.076
192.867
191.846
191.011
190.357
189.879
189.569
189.419
189.416
189.553
189.816
190.194
190.672
191.239
191.887
192.601
193.359
194.205
246.177
243.392
240.786
238.284
235.912
233.641
231.433
229.267
227.134
225.027
222.94
220.877
218.84
216.833
214.863
212.938
211.066
209.258
207.526
205.884
204.347
202.961
201.734
200.672
199.779
199.052
198.484
198.07
197.8
197.669
197.665
197.778
197.997
198.313
198.712
199.185
199.72
200.312
200.947
201.611
202.333
246.254
243.681
241.277
238.977
236.807
234.739
232.737
230.784
228.872
226.992
225.142
223.323
221.539
219.794
218.095
216.45
214.867
213.357
211.929
210.598
209.374
208.295
207.358
206.566
205.922
205.42
205.052
204.812
204.691
204.68
204.769
204.949
205.209
205.542
205.935
206.381
206.869
207.396
207.95
208.519
209.128
246.364
243.986
241.771
239.659
237.676
235.797
233.987
232.232
230.523
228.855
227.222
225.627
224.072
222.565
221.109
219.714
218.385
217.134
215.968
214.9
213.938
213.11
212.407
211.831
211.38
211.05
210.831
210.717
210.697
210.766
210.912
211.128
211.402
211.731
212.102
212.51
212.945
213.406
213.883
214.366
214.876
246.499
244.303
242.262
240.325
238.517
236.812
235.181
233.608
232.087
230.613
229.181
227.79
226.445
225.151
223.914
222.739
221.635
220.607
219.667
218.819
218.076
217.453
216.939
216.532
216.232
216.032
215.924
215.898
215.95
216.068
216.247
216.476
216.751
217.062
217.405
217.77
218.154
218.552
218.96
219.367
219.792
246.654
244.625
242.746
240.971
239.323
237.782
236.315
234.912
233.564
232.268
231.019
229.815
228.66
227.558
226.516
225.537
224.629
223.796
223.047
222.387
221.824
221.367
221.005
220.732
220.548
220.446
220.418
220.456
220.553
220.702
220.896
221.128
221.391
221.68
221.99
222.314
222.649
222.991
223.337
223.677
224.031
246.822
244.948
243.217
241.592
240.094
238.702
237.389
236.14
234.953
233.82
232.74
231.704
230.722
229.793
228.925
228.119
227.382
226.717
226.132
225.628
225.214
224.893
224.652
224.483
224.389
224.36
224.391
224.472
224.599
224.765
224.964
225.188
225.436
225.7
225.977
226.261
226.551
226.842
227.134
227.418
227.71
246.999
245.265
243.673
242.185
240.825
239.572
238.399
237.295
236.253
235.272
234.342
233.463
232.635
231.863
231.148
230.495
229.907
229.388
228.94
228.569
228.277
228.067
227.921
227.836
227.809
227.835
227.907
228.018
228.162
228.336
228.531
228.746
228.974
229.213
229.457
229.706
229.954
230.201
230.445
230.68
230.919
247.18
245.576
244.109
242.749
241.515
240.389
239.346
238.374
237.466
236.621
235.831
235.092
234.404
233.771
233.194
232.676
232.217
231.823
231.494
231.233
231.041
230.92
230.85
230.829
230.855
230.921
231.022
231.152
231.306
231.481
231.67
231.871
232.079
232.293
232.508
232.723
232.935
233.143
233.346
233.538
233.733
247.361
245.874
244.523
243.278
242.161
241.151
240.227
239.376
238.593
237.872
237.208
236.596
236.035
235.526
235.071
234.671
234.326
234.039
233.81
233.641
233.532
233.483
233.474
233.503
233.568
233.664
233.785
233.927
234.085
234.256
234.435
234.622
234.81
235
235.188
235.374
235.553
235.727
235.895
236.051
236.208
247.539
246.159
244.911
243.773
242.761
241.859
241.043
240.304
239.632
239.026
238.476
237.98
237.531
237.135
236.787
236.491
236.245
236.05
235.906
235.814
235.773
235.782
235.821
235.889
235.983
236.101
236.235
236.384
236.542
236.707
236.876
237.048
237.217
237.386
237.55
237.709
237.861
238.006
238.143
238.269
238.394
247.712
246.425
245.272
244.23
243.315
242.509
241.793
241.155
240.587
240.084
239.639
239.245
238.899
238.601
238.35
238.145
237.985
237.869
237.798
237.769
237.785
237.839
237.916
238.014
238.131
238.263
238.406
238.557
238.713
238.87
239.029
239.185
239.339
239.487
239.631
239.766
239.895
240.014
240.127
240.226
240.327
247.875
246.673
245.604
244.649
243.821
243.103
242.478
241.932
241.457
241.048
240.697
240.397
240.143
239.933
239.767
239.641
239.555
239.508
239.498
239.523
239.584
239.675
239.784
239.905
240.039
240.181
240.33
240.481
240.634
240.785
240.934
241.077
241.216
241.348
241.473
241.59
241.698
241.797
241.888
241.967
242.045
248.028
246.899
245.904
245.027
244.277
243.64
243.096
242.634
242.245
241.921
241.655
241.438
241.266
241.135
241.043
240.987
240.966
240.977
241.018
241.088
241.186
241.306
241.438
241.576
241.722
241.872
242.023
242.173
242.321
242.465
242.604
242.736
242.862
242.979
243.088
243.189
243.28
243.363
243.437
243.499
243.56
248.167
247.103
246.173
245.364
244.685
244.118
243.649
243.262
242.951
242.703
242.514
242.372
242.273
242.212
242.186
242.19
242.225
242.285
242.371
242.478
242.607
242.751
242.902
243.055
243.211
243.366
243.52
243.67
243.815
243.953
244.085
244.208
244.323
244.429
244.527
244.615
244.695
244.764
244.825
244.875
244.923
248.293
247.282
246.408
245.659
245.041
244.539
244.135
243.818
243.575
243.398
243.277
243.202
243.168
243.168
243.198
243.256
243.338
243.44
243.561
243.698
243.85
244.013
244.176
244.339
244.499
244.658
244.811
244.958
245.098
245.23
245.354
245.47
245.575
245.673
245.76
245.839
245.908
245.969
246.02
246.062
246.101
248.402
247.434
246.607
245.91
245.346
244.901
244.556
244.3
244.12
244.005
243.946
243.931
243.954
244.008
244.088
244.191
244.313
244.451
244.603
244.766
244.938
245.116
245.291
245.464
245.631
245.793
245.948
246.096
246.234
246.364
246.484
246.595
246.696
246.788
246.87
246.943
247.007
247.062
247.109
247.146
247.18
248.494
247.56
246.77
246.116
245.598
245.202
244.911
244.71
244.586
244.527
244.522
244.56
244.633
244.735
244.857
244.999
245.153
245.32
245.493
245.674
245.858
246.044
246.224
246.399
246.566
246.727
246.879
247.023
247.156
247.281
247.396
247.502
247.598
247.685
247.763
247.832
247.892
247.945
247.989
248.026
248.059
248.57
247.659
246.897
246.277
245.797
245.443
245.198
245.047
244.974
244.966
245.01
245.094
245.209
245.349
245.507
245.679
245.861
246.05
246.243
246.439
246.635
246.829
247.016
247.196
247.367
247.53
247.684
247.828
247.962
248.087
248.201
248.307
248.403
248.49
248.568
248.638
248.699
248.754
248.8
248.841
248.876
248.628
247.731
246.988
246.394
245.945
245.626
245.42
245.309
245.28
245.318
245.411
245.543
245.703
245.881
246.072
246.27
246.473
246.677
246.881
247.081
247.278
247.47
247.652
247.826
247.99
248.145
248.29
248.427
248.553
248.672
248.78
248.881
248.973
249.058
249.135
249.205
249.269
249.326
249.378
249.425
249.467
248.665
247.765
247.029
246.452
246.028
245.741
245.571
245.501
245.51
245.583
245.705
245.865
246.049
246.248
246.457
246.672
246.888
247.103
247.313
247.519
247.718
247.91
248.092
248.264
248.427
248.58
248.724
248.859
248.984
249.102
249.211
249.312
249.406
249.493
249.574
249.649
249.718
249.783
249.842
249.899
249.95
248.672
247.757
247.015
246.443
246.034
245.773
245.64
245.617
245.685
245.826
246.018
246.242
246.478
246.719
246.961
247.199
247.431
247.654
247.866
248.066
248.255
248.432
248.597
248.751
248.894
249.026
249.15
249.265
249.373
249.474
249.57
249.66
249.745
249.827
249.906
249.983
250.057
250.13
250.203
250.276
250.347
-86.1768
-124.611
-77.7319
47.8369
138.143
167.746
183.204
194.191
202.834
209.241
214.359
218.722
222.808
227.811
233.552
239.057
244.391
249.237
253.155
256.017
257.568
258.04
257.486
256.196
254.418
252.359
250.181
248.014
245.879
243.826
241.859
239.964
238.16
236.443
234.82
233.284
231.935
230.775
229.769
228.982
228.635
229.022
229.717
230.719
231.898
233.06
234.212
235.288
236.27
237.155
237.963
238.711
239.411
240.088
240.728
241.345
241.918
242.47
242.987
243.463
243.917
244.335
244.725
245.094
245.446
245.78
246.078
246.393
246.566
246.758
246.782
246.664
246.637
245.839
-98.2047
-130.571
-81.3011
45.9529
135.766
160.337
172.015
180.878
188.432
194.255
198.963
203.012
206.926
212.066
218.384
225.037
231.882
238.42
244.08
248.582
251.63
253.382
253.907
253.5
252.443
250.975
249.3
247.571
245.84
244.173
242.584
241.067
239.641
238.299
237.042
235.86
234.846
233.995
233.256
232.684
232.505
232.943
233.567
234.394
235.336
236.235
237.114
237.924
238.655
239.306
239.9
240.452
240.973
241.487
241.98
242.463
242.92
243.371
243.799
244.199
244.587
244.948
245.286
245.604
245.901
246.172
246.397
246.606
246.659
246.7
246.563
246.251
246.039
245.077
-108.769
-137.03
-84.8362
43.9795
131.873
152.117
161.47
168.977
175.73
181.056
185.373
189.101
192.867
198.12
204.908
212.542
220.686
228.689
235.862
241.8
246.166
249.053
250.543
250.938
250.546
249.634
248.437
247.136
245.807
244.532
243.334
242.213
241.19
240.251
239.393
238.609
237.975
237.481
237.065
236.768
236.816
237.352
237.93
238.595
239.298
239.928
240.522
241.049
241.508
241.905
242.264
242.598
242.917
243.245
243.569
243.9
244.221
244.552
244.877
245.19
245.502
245.796
246.073
246.331
246.56
246.749
246.869
246.932
246.798
246.604
246.203
245.565
245.025
243.753
-120.374
-143.788
-87.9909
41.9738
126.498
143.779
152.447
159.385
165.67
170.633
174.649
178.143
181.865
187.263
194.416
202.806
211.941
221.064
229.386
236.416
241.781
245.537
247.769
248.786
248.913
248.44
247.628
246.674
245.676
244.724
243.852
243.061
242.373
241.769
241.243
240.784
240.466
240.266
240.119
240.058
240.304
240.94
241.497
242.045
242.568
242.987
243.355
243.656
243.897
244.089
244.257
244.414
244.568
244.744
244.928
245.132
245.34
245.572
245.81
246.048
246.295
246.534
246.759
246.966
247.139
247.258
247.288
247.227
246.931
246.532
245.9
244.976
244.142
242.594
-132.225
-149.925
-89.876
40.1939
119.533
135.381
144.496
151.366
157.385
162.081
165.857
169.196
172.975
178.568
186.039
195.044
204.971
214.974
224.194
232.073
238.212
242.64
245.451
246.959
247.502
247.388
246.894
246.232
245.515
244.842
244.251
243.747
243.35
243.034
242.793
242.615
242.561
242.604
242.677
242.813
243.221
243.934
244.479
244.938
245.316
245.567
245.75
245.865
245.926
245.948
245.958
245.966
245.983
246.03
246.097
246.195
246.307
246.455
246.62
246.794
246.987
247.178
247.359
247.522
247.646
247.705
247.657
247.489
247.053
246.475
245.643
244.469
243.379
241.587
-143.974
-154.769
-89.2335
39.1374
111.291
127.303
137.476
144.536
150.401
154.887
158.477
161.741
165.662
171.477
179.249
188.776
199.356
210.068
219.995
228.534
235.272
240.221
243.484
245.38
246.258
246.438
246.211
245.799
245.325
244.895
244.553
244.306
244.169
244.111
244.125
244.198
244.377
244.63
244.894
245.199
245.737
246.51
247.047
247.435
247.695
247.806
247.835
247.794
247.704
247.582
247.456
247.339
247.237
247.175
247.14
247.145
247.174
247.249
247.349
247.468
247.613
247.761
247.903
248.027
248.106
248.111
247.991
247.725
247.16
246.417
245.399
243.989
242.658
240.631
-154.964
-156.767
-84.3309
39.1797
102.633
120.037
131.377
138.704
144.453
148.762
152.215
155.487
159.618
165.666
173.739
183.727
194.858
206.146
216.633
225.68
232.873
238.215
241.822
244.019
245.164
245.586
245.583
245.382
245.118
244.901
244.778
244.758
244.85
245.022
245.265
245.565
245.949
246.384
246.813
247.266
247.91
248.722
249.253
249.586
249.751
249.748
249.651
249.48
249.263
249.02
248.78
248.555
248.352
248.195
248.073
247.997
247.955
247.965
248.01
248.081
248.183
248.295
248.402
248.491
248.531
248.486
248.301
247.944
247.259
246.364
245.172
243.543
241.984
239.732
-162.834
-152.516
-73.2807
40.5442
94.7898
113.94
126.11
133.637
139.256
143.398
146.759
150.114
154.512
160.816
169.217
179.639
191.257
203.026
213.956
223.388
230.918
236.547
240.41
242.838
244.192
244.81
244.993
244.972
244.888
244.854
244.921
245.098
245.392
245.767
246.214
246.714
247.28
247.873
248.447
249.03
249.756
250.593
251.121
251.411
251.501
251.41
251.21
250.935
250.614
250.271
249.936
249.622
249.334
249.097
248.901
248.757
248.653
248.608
248.604
248.633
248.699
248.778
248.856
248.913
248.917
248.828
248.584
248.144
247.35
246.313
244.959
243.123
241.347
238.877
-163.176
-137.81
-55.086
43.5253
88.9229
109.111
121.479
129.042
134.485
138.465
141.764
145.248
149.944
156.563
165.363
176.235
188.317
200.51
211.804
221.529
229.307
235.143
239.195
241.799
243.323
244.104
244.447
244.582
244.655
244.78
245.01
245.356
245.822
246.374
247
247.675
248.399
249.129
249.829
250.523
251.313
252.16
252.685
252.944
252.977
252.816
252.537
252.179
251.775
251.352
250.94
250.552
250.194
249.891
249.631
249.43
249.274
249.183
249.137
249.13
249.165
249.215
249.266
249.297
249.269
249.14
248.842
248.328
247.434
246.267
244.764
242.738
240.759
238.08
-150.514
-109.87
-30.6173
48.5162
85.6577
105.378
117.221
124.591
129.78
133.577
136.821
140.455
145.485
152.522
161.85
173.249
185.816
198.408
210.01
219.963
227.921
233.905
238.099
240.844
242.511
243.437
243.924
244.2
244.414
244.679
245.05
245.54
246.153
246.855
247.634
248.46
249.32
250.168
250.978
251.766
252.603
253.45
253.972
254.209
254.201
253.99
253.651
253.23
252.761
252.277
251.803
251.357
250.942
250.584
250.273
250.024
249.824
249.693
249.613
249.575
249.583
249.609
249.637
249.643
249.588
249.423
249.077
248.493
247.509
246.223
244.582
242.377
240.207
237.326
-119.979
-70.1535
-2.98299
55.3879
84.7246
102.322
113.01
119.905
124.709
128.256
131.434
135.271
140.752
148.403
158.444
170.494
183.593
196.572
208.436
218.557
226.64
232.73
237.036
239.906
241.707
242.777
243.408
243.822
244.171
244.565
245.061
245.675
246.41
247.238
248.145
249.095
250.068
251.016
251.92
252.786
253.656
254.494
255.013
255.236
255.2
254.955
254.573
254.108
253.592
253.061
252.541
252.049
251.59
251.188
250.835
250.546
250.311
250.147
250.037
249.973
249.958
249.963
249.971
249.957
249.877
249.68
249.29
248.645
247.578
246.184
244.415
242.046
239.697
236.623
-73.6501
-26.0473
23.4326
63.0429
85.0281
99.3644
108.421
114.491
118.716
121.938
125.126
129.374
135.578
144.142
155.114
167.95
181.617
194.949
207.009
217.228
225.374
231.526
235.921
238.908
240.849
242.071
242.856
243.419
243.908
244.431
245.045
245.769
246.609
247.541
248.55
249.599
250.66
251.689
252.67
253.599
254.488
255.31
255.828
256.044
255.993
255.728
255.32
254.826
254.279
253.716
253.162
252.637
252.144
251.709
251.324
251.004
250.74
250.549
250.415
250.33
250.295
250.282
250.273
250.24
250.138
249.912
249.483
248.781
247.639
246.146
244.26
241.738
239.22
235.958
-22.9882
12.8222
44.7931
69.6701
85.0683
95.7483
102.839
107.744
111.247
114.239
117.762
122.856
130.175
139.964
152.061
165.764
179.973
193.574
205.723
215.94
224.072
230.237
234.696
237.795
239.883
241.275
242.234
242.964
243.608
244.268
245.002
245.832
246.765
247.785
248.874
249.996
251.124
252.215
253.253
254.224
255.122
255.923
256.438
256.654
256.599
256.328
255.909
255.4
254.836
254.255
253.681
253.133
252.617
252.158
251.748
251.404
251.117
250.905
250.75
250.648
250.597
250.569
250.545
250.495
250.374
250.123
249.658
248.905
247.695
246.111
244.118
241.455
238.78
235.34
18.7965
40.4632
59.0063
73.4731
83.3736
90.5587
95.5822
99.2318
102.206
105.424
109.87
116.297
125.086
136.335
149.663
164.194
178.82
192.531
204.612
214.698
222.722
228.841
233.334
236.538
238.782
240.359
241.511
242.427
243.243
244.054
244.917
245.856
246.88
247.978
249.131
250.308
251.482
252.614
253.688
254.682
255.576
256.348
256.859
257.079
257.03
256.766
256.35
255.841
255.274
254.686
254.103
253.544
253.014
252.539
252.113
251.751
251.448
251.219
251.049
250.933
250.868
250.827
250.79
250.726
250.587
250.313
249.816
249.016
247.744
246.078
243.985
241.192
238.368
234.755
45.2293
55.8024
65.4723
73.1357
78.8251
83.1635
86.4811
89.3354
92.4337
96.5806
102.457
110.556
121.108
133.947
148.431
163.584
178.372
191.941
203.744
213.538
221.343
227.351
231.847
235.145
237.547
239.32
240.68
241.798
242.8
243.775
244.776
245.83
246.948
248.119
249.329
250.549
251.753
252.909
253.998
254.995
255.872
256.607
257.107
257.333
257.3
257.055
256.656
256.16
255.602
255.021
254.439
253.878
253.344
252.861
252.425
252.053
251.738
251.497
251.316
251.188
251.112
251.06
251.013
250.936
250.781
250.486
249.959
249.116
247.788
246.047
243.863
240.952
237.99
234.212
56.2956
60.0267
64.5453
68.2951
71.3117
73.9084
76.4447
79.4013
83.3794
89.0229
96.8229
106.999
119.478
133.771
149.066
164.413
178.944
192.013
203.253
212.556
220.01
225.828
230.282
233.655
236.211
238.181
239.756
241.085
242.28
243.424
244.568
245.74
246.953
248.198
249.462
250.72
251.946
253.112
254.199
255.179
256.025
256.717
257.197
257.428
257.416
257.199
256.83
256.361
255.826
255.263
254.694
254.141
253.611
253.128
252.689
252.312
251.991
251.743
251.553
251.417
251.333
251.271
251.214
251.126
250.956
250.642
250.087
249.205
247.826
246.017
243.75
240.729
237.638
233.7
55.2195
55.7583
57.8342
59.8494
61.7276
63.8791
66.8544
71.1777
77.2432
85.3456
95.6444
108.049
122.147
137.268
152.613
167.41
181.039
193.096
203.398
211.948
218.88
224.4
228.746
232.153
234.84
236.995
238.777
240.313
241.7
243.012
244.298
245.586
246.889
248.204
249.519
250.81
252.054
253.224
254.298
255.251
256.058
256.702
257.153
257.383
257.393
257.213
256.885
256.456
255.956
255.423
254.877
254.341
253.823
253.347
252.912
252.536
252.214
251.962
251.767
251.625
251.534
251.465
251.399
251.3
251.117
250.785
250.204
249.286
247.86
245.989
243.645
240.525
237.316
233.227
46.9185
46.0418
47.3549
49.9627
53.1767
57.3186
62.8293
69.9863
78.9259
89.6911
102.13
115.875
130.392
145.067
159.309
172.62
184.651
195.213
204.259
211.854
218.131
223.263
227.432
230.818
233.589
235.891
237.848
239.565
241.123
242.586
243.999
245.39
246.772
248.146
249.501
250.82
252.079
253.252
254.315
255.244
256.017
256.62
257.041
257.266
257.294
257.148
256.863
256.478
256.02
255.522
255.005
254.493
253.994
253.53
253.104
252.732
252.413
252.16
251.963
251.818
251.722
251.646
251.572
251.463
251.267
250.917
250.312
249.358
247.889
245.959
243.544
240.331
237.01
232.775
39.6986
39.9655
42.8628
48.3006
54.5894
61.7187
70.1322
79.9464
91.0179
103.139
116.023
129.31
142.595
155.489
167.663
178.868
188.951
197.848
205.57
212.181
217.783
222.497
226.449
229.766
232.569
234.965
237.05
238.906
240.601
242.188
243.706
245.182
246.628
248.048
249.434
250.773
252.042
253.217
254.274
255.188
255.94
256.519
256.92
257.142
257.184
257.068
256.821
256.477
256.058
255.596
255.11
254.623
254.144
253.695
253.28
252.915
252.6
252.348
252.15
252.003
251.902
251.82
251.739
251.621
251.412
251.045
250.416
249.427
247.915
245.93
243.446
240.145
236.718
232.35
47.672
50.9528
56.3207
64.0686
72.6021
81.5495
91.1158
101.355
112.105
123.169
134.348
145.441
156.244
166.571
176.27
185.227
193.376
200.688
207.171
212.861
217.817
222.109
225.815
229.019
231.8
234.238
236.401
238.354
240.148
241.828
243.427
244.968
246.463
247.916
249.323
250.671
251.944
253.118
254.169
255.075
255.817
256.387
256.781
257.007
257.067
256.978
256.767
256.461
256.081
255.654
255.199
254.737
254.279
253.846
253.443
253.087
252.779
252.529
252.331
252.183
252.078
251.991
251.903
251.775
251.554
251.169
250.515
249.492
247.939
245.899
243.349
239.964
236.437
231.942
78.285
83.1958
89.0751
95.9291
103.27
110.892
118.764
126.896
135.224
143.668
152.117
160.474
168.63
176.492
183.969
190.992
197.508
203.486
208.916
213.804
218.174
222.059
225.505
228.56
231.277
233.709
235.904
237.91
239.768
241.51
243.165
244.751
246.279
247.753
249.17
250.52
251.788
252.955
253.999
254.899
255.639
256.209
256.61
256.848
256.929
256.869
256.693
256.425
256.084
255.693
255.27
254.835
254.4
253.985
253.597
253.25
252.949
252.703
252.507
252.358
252.25
252.159
252.064
251.926
251.693
251.291
250.612
249.554
247.96
245.868
243.253
239.789
236.167
231.555
113.378
117.584
122.142
126.694
131.567
136.834
142.391
148.161
154.123
160.228
166.414
172.604
178.73
184.722
190.517
196.06
201.304
206.217
210.778
214.979
218.822
222.32
225.495
228.373
230.988
233.371
235.557
237.578
239.463
241.238
242.924
244.534
246.079
247.562
248.978
250.322
251.579
252.735
253.769
254.664
255.405
255.983
256.398
256.658
256.765
256.737
256.596
256.366
256.064
255.711
255.322
254.916
254.505
254.11
253.737
253.403
253.11
252.869
252.676
252.528
252.418
252.322
252.221
252.075
251.828
251.409
250.704
249.612
247.978
245.834
243.158
239.617
235.906
231.183
139.757
142.818
146.08
149.126
152.408
156.081
160.049
164.222
168.573
173.073
177.68
182.342
187.01
191.638
196.18
200.594
204.844
208.901
212.74
216.348
219.717
222.848
225.749
228.431
230.913
233.213
235.353
237.353
239.234
241.013
242.706
244.322
245.868
247.346
248.753
250.083
251.325
252.465
253.487
254.377
255.12
255.711
256.147
256.433
256.572
256.578
256.474
256.283
256.022
255.708
255.355
254.98
254.597
254.223
253.868
253.547
253.264
253.03
252.84
252.693
252.582
252.483
252.376
252.221
251.962
251.524
250.795
249.668
247.993
245.799
243.063
239.451
235.653
230.829
158.569
160.827
163.252
165.513
167.934
170.641
173.576
176.678
179.929
183.31
186.799
190.361
193.966
197.582
201.176