/*--------------------------------*- C++ -*----------------------------------*\
| =========                 |                                                 |
| \\      /  F ield         | OpenFOAM: The Open Source CFD Toolbox           |
|  \\    /   O peration     | Version:  5.x                                   |
|   \\  /    A nd           | Web:      www.OpenFOAM.org                      |
|    \\/     M anipulation  |                                                 |
\*---------------------------------------------------------------------------*/
FoamFile
{
    version     2.0;
    format      ascii;
    class       surfaceScalarField;
    location    "200";
    object      phi;
}
// * * * * * * * * * * * * * * * * * * * * * * * * * * * * * * * * * * * * * //

dimensions      [0 3 -1 0 0 0 0];

internalField   nonuniform List<scalar> 
21876
(
0.0295682
-0.00422563
-0.0253347
0.0387649
-0.00919656
0.038956
-0.000191031
0.039491
-0.000535163
0.0378613
0.00162973
0.0351825
0.00267863
0.0321935
0.00298899
0.0291992
0.00299424
0.0262766
0.00292263
0.0231603
0.00311624
0.0195435
0.00361682
0.0166914
0.00285209
0.014898
0.0017936
0.0135666
0.00133128
0.0119704
0.00159608
0.0101915
0.0017788
0.0082147
0.00197652
0.00604783
0.00216666
0.00371837
0.00233015
0.00146246
0.0022588
-0.000369659
0.00183043
-0.00142996
0.00106112
-0.00213619
0.000706952
-0.00255117
0.000415682
-0.00278207
0.000231008
-0.00290396
0.000122492
-0.00297886
7.46872e-05
-0.00304678
6.79183e-05
-0.00313236
8.52538e-05
-0.00325013
0.000117688
-0.00341163
0.000161193
-0.00362351
0.00021178
-0.00387831
0.000254534
-0.00414116
0.000262809
-0.00434282
0.000201426
-0.00436628
2.3376e-05
-0.00408128
-0.000285173
-0.00348691
-0.000594658
-0.00299078
-0.000496562
-0.00133814
-0.00165275
-0.00874149
0.00740317
0.0357827
-0.0105731
-0.029434
0.0434054
-0.0168189
0.0455496
-0.002335
0.0471733
-0.00215873
0.0478632
0.000940041
0.0475205
0.00302147
0.0462273
0.0042824
0.044115
0.00510661
0.0414081
0.00562971
0.0381136
0.00641089
0.0340421
0.00768855
0.0300333
0.00686109
0.0266243
0.00520281
0.0237217
0.00423409
0.020942
0.00437595
0.0182094
0.00451157
0.0153356
0.00485027
0.0121982
0.005304
0.00878943
0.00573922
0.00524628
0.00580377
0.00192169
0.00515408
-0.000139464
0.00312258
-0.00151479
0.00208257
-0.00239116
0.00129309
-0.00293296
0.00077293
-0.00327596
0.000466042
-0.00352425
0.000322755
-0.00373806
0.000281797
-0.00395209
0.000298854
-0.00418397
0.000349551
-0.00443931
0.000416078
-0.00471306
0.000485378
-0.00498489
0.000525894
-0.00521551
0.000493141
-0.00535154
0.000336986
-0.00531956
-9.01576e-06
-0.00496109
-0.000644199
-0.00406353
-0.00149261
-0.00251304
-0.00204736
-0.000188708
-0.0039774
-0.0148926
0.00596218
0.0419363
-0.0178649
-0.0346453
0.0487272
-0.0236102
0.0528936
-0.00650154
0.0551185
-0.00438374
0.0560948
-3.62378e-05
0.0560107
0.00310561
0.0551439
0.00514912
0.0536389
0.00661168
0.0515739
0.00769468
0.0488945
0.00909033
0.045382
0.011201
0.0415531
0.01069
0.0378781
0.00887791
0.0343452
0.0077669
0.0307498
0.00797127
0.0271479
0.00811355
0.0234328
0.0085654
0.0194567
0.00928016
0.0151073
0.0100889
0.0104098
0.0105015
0.00569052
0.00987297
0.00245631
0.00635704
0.00010521
0.00443376
-0.0014788
0.00287695
-0.00251386
0.00180793
-0.00320499
0.00115731
-0.00369779
0.000815493
-0.00408261
0.00066663
-0.00441827
0.000634436
-0.00473883
0.000670029
-0.0050612
0.000738387
-0.00539099
0.000815129
-0.00572015
0.000854984
-0.00601987
0.000792894
-0.0062333
0.000550379
-0.00625674
1.45089e-05
-0.00590802
-0.000992739
-0.00491179
-0.00248884
-0.00298608
-0.00397324
-0.00029286
-0.00667045
-0.0193486
0.00416312
0.0487391
-0.0259446
-0.0406595
0.0554587
-0.03033
0.0606675
-0.0117105
0.0636694
-0.0073856
0.0652183
-0.00158506
0.0655424
0.00278166
0.0648676
0.00582407
0.0634535
0.0080259
0.0614988
0.00964949
0.0590419
0.0115474
0.0559291
0.0143141
0.0524887
0.0141305
0.0491022
0.0122647
0.0456917
0.0111776
0.0419875
0.0116758
0.0380117
0.0120897
0.0337312
0.0128462
0.0290441
0.0139677
0.0238202
0.0153133
0.017981
0.0163415
0.0117213
0.0161326
0.00698555
0.0110929
0.00319141
0.00822789
0.000471892
0.00559655
-0.0013667
0.00364648
-0.00260895
0.00239962
-0.00347772
0.00168415
-0.00412383
0.00131268
-0.00464291
0.00115336
-0.00509394
0.00112096
-0.00551652
0.00116077
-0.0059364
0.00123482
-0.00636135
0.00127966
-0.00676905
0.00120033
-0.00709504
0.000876096
-0.00721819
0.000137417
-0.00694461
-0.00126653
-0.00596354
-0.00347009
-0.00392759
-0.0060093
-0.00101221
-0.00958598
-0.0227122
0.00235135
0.0562456
-0.0347908
-0.0474004
0.063259
-0.0373438
0.069314
-0.0177656
0.0734251
-0.0114967
0.0759083
-0.00406826
0.0769771
0.00171298
0.0767812
0.00602003
0.0755571
0.00925008
0.0735734
0.0116333
0.0709793
0.0141416
0.067769
0.0175245
0.064262
0.0176376
0.0608806
0.0156461
0.0576009
0.0144574
0.0541132
0.0151635
0.0502907
0.0159122
0.0460257
0.0171113
0.0411553
0.0188381
0.0354845
0.0209844
0.02881
0.023016
0.0211256
0.0238169
0.0146987
0.0175199
0.00895062
0.013976
0.00441953
0.0101274
0.00117888
0.00688712
-0.00103434
0.00461281
-0.00255774
0.00320756
-0.00365082
0.00240571
-0.00447804
0.00198059
-0.00514489
0.00178771
-0.00572644
0.0017423
-0.00627768
0.00178597
-0.00683069
0.00183263
-0.00737817
0.00174778
-0.00785787
0.00135577
-0.00814134
0.000420916
-0.0080286
-0.00137913
-0.00719582
-0.00430288
-0.00527409
-0.00793113
-0.00233365
-0.0125263
-0.0253268
0.000280981
0.0645572
-0.0444755
-0.0548726
0.0721572
-0.044944
0.0790256
-0.0246342
0.0842545
-0.0167256
0.0878149
-0.00762868
0.0898415
-0.000313487
0.0904413
0.00542031
0.0897632
0.00992829
0.0880471
0.0133494
0.0854756
0.0167132
0.0821271
0.0208731
0.0783224
0.0214425
0.0745674
0.0194012
0.0710078
0.0180172
0.0674648
0.0187067
0.0637806
0.0195967
0.0598055
0.0210866
0.0552938
0.0233504
0.0499058
0.0263728
0.0432013
0.029721
0.0348175
0.032201
0.0269962
0.0253414
0.0190895
0.0218828
0.0120533
0.0171634
0.00651342
0.012427
0.00252651
0.00859959
-0.000234473
0.0059684
-0.00216642
0.00433749
-0.00356712
0.00338113
-0.00462986
0.00285027
-0.0054886
0.00260089
-0.00624303
0.00254021
-0.00696595
0.00255538
-0.00768594
0.00246758
-0.00836461
0.0020343
-0.00888175
0.000937924
-0.00904143
-0.00121951
-0.00853019
-0.00481422
-0.00697975
-0.00948163
-0.00430734
-0.0151988
-0.0273313
-0.00230292
0.0738102
-0.055176
-0.0631103
0.0822786
-0.0534127
0.0900352
-0.0323911
0.0963603
-0.0230507
0.101067
-0.012335
0.104187
-0.00343359
0.10578
0.00382702
0.105931
0.00977793
0.104812
0.0144679
0.102598
0.0189274
0.0993885
0.0240831
0.0954436
0.0253876
0.0912833
0.0235616
0.0872053
0.0220954
0.0832291
0.0226829
0.079291
0.023535
0.0753277
0.0250501
0.07117
0.0275083
0.0664776
0.0310655
0.0606446
0.035554
0.0528718
0.0399739
0.0447609
0.0334523
0.0353868
0.0312571
0.0257392
0.0268109
0.0170399
0.0211262
0.0100975
0.015542
0.00501881
0.011047
0.00143959
0.00791663
-0.00109817
0.00591885
-0.00294936
0.00470134
-0.00435338
0.00400483
-0.00548378
0.0036705
-0.0064786
0.00355011
-0.0074312
0.0034201
-0.00836067
0.0029637
-0.00918784
0.00176508
-0.00975036
-0.000656956
-0.00977524
-0.00478939
-0.00890395
-0.010353
-0.00691035
-0.0171923
-0.0286592
-0.00558245
0.0841687
-0.0671672
-0.0721775
0.0937988
-0.063043
0.102601
-0.0411929
0.11004
-0.0304904
0.115923
-0.0182174
0.120221
-0.00773215
0.122937
0.00111091
0.124121
0.00859482
0.12387
0.0147182
0.122335
0.0204625
0.119614
0.0268046
0.115874
0.0291274
0.111567
0.0278691
0.107063
0.0265989
0.102555
0.0271917
0.098093
0.027997
0.0937285
0.0294148
0.089465
0.0317721
0.0851714
0.0353594
0.0804124
0.0403134
0.074276
0.0461105
0.067399
0.0403295
0.0583902
0.0402659
0.0475282
0.0376728
0.0359465
0.0327079
0.0251423
0.0263462
0.0162332
0.019956
0.00952787
0.0146219
0.00469852
0.0107481
0.00122977
0.00816995
-0.00130851
0.00654297
-0.00322609
0.00558792
-0.00476216
0.00508605
-0.0061122
0.00477001
-0.00739944
0.00425085
-0.0086347
0.00300027
-0.00973982
0.000448115
-0.0105325
-0.00399679
-0.0106868
-0.0101988
-0.00989294
-0.0179862
-0.0289812
-0.00957094
0.0958381
-0.0808179
-0.0821876
0.10696
-0.0741652
0.117033
-0.0512663
0.125676
-0.0391331
0.132764
-0.0253052
0.13827
-0.0132383
0.142183
-0.00280189
0.144527
0.00625066
0.145346
0.0138993
0.144757
0.0210513
0.142845
0.0287162
0.139685
0.0322881
0.135611
0.0319425
0.130996
0.0312146
0.126142
0.0320458
0.121199
0.0329397
0.116293
0.034321
0.111552
0.0365133
0.107063
0.0398491
0.102756
0.0446196
0.0980941
0.0507729
0.0931809
0.0452428
0.0863825
0.0470644
0.0769704
0.0470849
0.0650183
0.04466
0.0515769
0.0397875
0.0383088
0.0332241
0.0267357
0.0261948
0.0176026
0.0198811
0.0108166
0.0149558
0.00586984
0.0114897
0.00224194
0.0092157
-0.000482446
0.0078103
-0.00265842
0.00694588
-0.00458034
0.00617264
-0.00641803
0.0048379
-0.00824723
0.00227724
-0.0100442
-0.00219987
-0.0115743
-0.00866876
-0.0125412
-0.0170194
-0.027732
-0.0137904
0.109077
-0.0965881
-0.0933069
0.122079
-0.0871673
0.133717
-0.0629041
0.14373
-0.0491464
0.152093
-0.0336688
0.158832
-0.0199766
0.163969
-0.00793952
0.167526
0.00269352
0.169528
0.0118976
0.17007
0.0205097
0.169221
0.0295653
0.166969
0.0345398
0.163523
0.0353886
0.1592
0.0355382
0.15435
0.0368953
0.149198
0.0380913
0.143919
0.039601
0.138695
0.0417367
0.133716
0.044828
0.129162
0.0491746
0.124972
0.0549622
0.121392
0.0488233
0.117043
0.051413
0.110833
0.0532955
0.101791
0.0537018
0.089604
0.0519744
0.0749409
0.0478871
0.0593278
0.041808
0.0445647
0.0346441
0.0320069
0.0275136
0.0221572
0.0213393
0.0147888
0.0165841
0.0093555
0.0132435
0.00527501
0.0110263
0.00200166
0.0094459
-0.000900683
0.00774023
-0.00378401
0.00516049
-0.00688229
0.000898336
-0.0101291
-0.00542198
-0.0133468
-0.0138018
-0.024226
-0.0168529
0.12421
-0.115036
-0.105762
0.139557
-0.102514
0.153126
-0.0764737
0.164763
-0.0607826
0.174544
-0.0434499
0.182575
-0.0280079
0.188948
-0.0143123
0.193722
-0.00208083
0.196936
0.00868422
0.19869
0.0187556
0.199053
0.0292022
0.197949
0.0356438
0.195467
0.0378707
0.191842
0.0391634
0.187409
0.041328
0.18243
0.0430707
0.177117
0.0449134
0.171685
0.0471693
0.16635
0.0501625
0.161359
0.0541659
0.156902
0.0594193
0.153562
0.0521633
0.15042
0.0545547
0.1468
0.0569161
0.141663
0.0588385
0.133891
0.0597467
0.122733
0.0590445
0.10824
0.0563016
0.0913898
0.0514942
0.0738245
0.0450788
0.057297
0.0378669
0.0431077
0.0307733
0.0318016
0.0245496
0.0232
0.0196279
0.0166558
0.0159902
0.0114127
0.0129832
0.00667769
0.00989553
0.00176597
0.00580996
-0.00361096
-4.50654e-05
-0.00949433
-0.00791847
-0.0178244
-0.015896
0.141644
-0.136835
-0.119845
0.159896
-0.120765
0.175852
-0.0924293
0.189453
-0.0743835
0.200879
-0.0548763
0.21033
-0.037458
0.21798
-0.0219628
0.22397
-0.0080703
0.228371
0.0042829
0.231329
0.0157981
0.232937
0.0275945
0.233092
0.0354882
0.231795
0.0391677
0.229199
0.0417597
0.225578
0.0449494
0.22118
0.0474686
0.216238
0.0498552
0.210984
0.0524229
0.205653
0.0554935
0.20049
0.0593295
0.195736
0.0641735
0.192128
0.055771
0.189042
0.0576411
0.186307
0.0596511
0.183461
0.0616846
0.179687
0.0635204
0.173909
0.0648224
0.165096
0.0651145
0.152668
0.063922
0.136797
0.0609504
0.118443
0.0562203
0.0991236
0.0500932
0.0805002
0.043173
0.0639212
0.0362069
0.0500727
0.0298386
0.0390028
0.0240532
0.0299503
0.018948
0.0217275
0.0140327
0.0134043
0.00827806
0.00435071
0.00113514
-0.00781693
-0.00565677
0.161885
-0.162793
-0.135927
0.183719
-0.142599
0.20262
-0.11133
0.218626
-0.0903898
0.232021
-0.0682712
0.243103
-0.0485389
0.252143
-0.0310032
0.259376
-0.0153029
0.26494
-0.00128078
0.269045
0.011693
0.271839
0.0248005
0.273239
0.0340883
0.273202
0.0392047
0.271826
0.0431363
0.269311
0.0474647
0.265854
0.0509249
0.261674
0.0540349
0.257003
0.0570946
0.252082
0.0604138
0.24716
0.0642514
0.242482
0.0688524
0.238742
0.0595109
0.235469
0.060914
0.232686
0.0624336
0.23034
0.0640314
0.228205
0.0656552
0.225778
0.0672487
0.222241
0.0686517
0.216582
0.0695817
0.207865
0.0696668
0.195547
0.0685383
0.17969
0.0659508
0.161001
0.0618611
0.140658
0.0565506
0.119994
0.0505024
0.10045
0.0435971
0.0828354
0.0365625
0.0670649
0.0298032
0.0526104
0.0227324
0.0385428
0.0152027
0.00677638
0.0239494
0.185556
-0.193884
-0.154465
0.211793
-0.168836
0.234323
-0.13386
0.253287
-0.109354
0.269078
-0.0840616
0.282098
-0.0615585
0.292725
-0.0416305
0.301295
-0.0238721
0.30804
-0.00802553
0.313243
0.00649013
0.317129
0.0209145
0.319673
0.0315443
0.32084
0.0380375
0.320714
0.0432632
0.319441
0.0487377
0.31716
0.0532055
0.314049
0.0571464
0.310311
0.0608323
0.306177
0.0645479
0.301891
0.0685373
0.297704
0.0730396
0.294165
0.0630492
0.290987
0.064093
0.288205
0.0652149
0.285851
0.0663861
0.283938
0.0675677
0.282419
0.0687682
0.281085
0.0699852
0.279483
0.0711838
0.276895
0.0722542
0.272443
0.072991
0.265277
0.0731165
0.254805
0.0723327
0.240829
0.0705271
0.223546
0.0677852
0.203753
0.0633903
0.182384
0.0579311
0.160142
0.0520453
0.137768
0.0451058
0.11545
0.0375205
0.0291188
0.0931077
0.213427
-0.231284
-0.176026
0.245061
-0.20047
0.272054
-0.160852
0.294658
-0.131958
0.313386
-0.10279
0.328758
-0.0769298
0.341265
-0.0541378
0.351354
-0.0339603
0.359364
-0.0160356
0.365662
0.00019167
0.370566
0.0160113
0.374132
0.0279786
0.376374
0.0357954
0.377401
0.0422368
0.377344
0.0487944
0.376305
0.0542443
0.374419
0.0590326
0.371849
0.0634021
0.368791
0.0676065
0.365464
0.0718645
0.36211
0.076393
0.359053
0.066106
0.356268
0.0668786
0.353802
0.0676804
0.351681
0.0685072
0.349925
0.0693241
0.348564
0.0701293
0.347626
0.0709226
0.347091
0.071719
0.346812
0.0725331
0.346454
0.0733493
0.345472
0.0740981
0.343169
0.0746353
0.338796
0.0749
0.33165
0.0749313
0.321328
0.0737124
0.307679
0.0715798
0.290641
0.0690836
0.270584
0.0651626
0.247842
0.0602627
0.0541604
0.2228
0.246432
-0.27642
-0.201296
0.284671
-0.23871
0.317141
-0.193321
0.344222
-0.159039
0.366564
-0.125132
0.384817
-0.0951823
0.399601
-0.0689224
0.411485
-0.0458441
0.420927
-0.025477
0.428395
-0.00727632
0.434297
0.0101092
0.438792
0.0234837
0.44197
0.0326179
0.443993
0.0402138
0.445016
0.0477721
0.445135
0.0541252
0.444465
0.0597029
0.443135
0.0647315
0.441302
0.0694398
0.439145
0.0740213
0.436874
0.0786637
0.434502
0.0684788
0.432306
0.0690747
0.430363
0.0696233
0.428715
0.0701546
0.427381
0.0706582
0.426369
0.0711418
0.425693
0.0715982
0.425384
0.0720277
0.425477
0.07244
0.425979
0.072848
0.426816
0.0732601
0.427793
0.0736589
0.428555
0.0741376
0.428592
0.0748943
0.427311
0.0749937
0.424094
0.0747968
0.418288
0.0748891
0.409442
0.0740091
0.397254
0.0724498
0.0700663
0.381348
0.285683
-0.331013
-0.23109
0.331995
-0.285022
0.37118
-0.232506
0.403763
-0.191622
0.430554
-0.151922
0.452355
-0.116983
0.469934
-0.0865014
0.483997
-0.059907
0.495134
-0.036614
0.503928
-0.01607
0.510886
0.00315076
0.51628
0.0180898
0.520291
0.028607
0.523156
0.0373491
0.525077
0.0458512
0.52618
0.0530224
0.526586
0.0592969
0.526415
0.0649031
0.525794
0.0700605
0.524868
0.0749471
0.523805
0.0797274
0.522239
0.0700441
0.520756
0.0705577
0.519448
0.0709319
0.518378
0.0712246
0.517584
0.0714521
0.517082
0.0716438
0.516873
0.0718072
0.516954
0.0719468
0.517327
0.0720666
0.518008
0.072167
0.51902
0.0722484
0.520377
0.0723022
0.522055
0.0724593
0.52396
0.0729894
0.525901
0.0730526
0.527577
0.0731211
0.528567
0.0738989
0.528367
0.0742083
0.526513
0.0743041
0.0743861
0.522193
0.301729
-0.390929
-0.241812
0.352604
-0.335897
0.395545
-0.275447
0.431177
-0.227254
0.460404
-0.181149
0.484117
-0.140696
0.503169
-0.105553
0.518343
-0.0750813
0.530311
-0.0485812
0.539713
-0.0254723
0.547114
-0.00425061
0.552863
0.012341
0.557216
0.0242545
0.560463
0.0341021
0.562849
0.0434654
0.564534
0.0513376
0.565657
0.0581731
0.566341
0.064219
0.5667
0.0697018
0.566848
0.0747991
0.566909
0.0796661
0.566203
0.070751
0.565511
0.0712489
0.564919
0.0715238
0.564491
0.0716533
0.56427
0.0716725
0.564286
0.0716284
0.564548
0.0715446
0.565056
0.0714394
0.565796
0.0713264
0.566752
0.0712105
0.56791
0.0710902
0.569262
0.0709503
0.570806
0.0709152
0.572543
0.0712529
0.574466
0.0711296
0.576542
0.0710449
0.578697
0.0717438
0.58079
0.0721152
0.582666
0.0724285
0.0731153
0.583936
0.314144
-0.455393
-0.249681
0.368914
-0.390666
0.415062
-0.321595
0.4533
-0.265493
0.484612
-0.212461
0.509961
-0.166046
0.53027
-0.125861
0.546387
-0.0911981
0.559048
-0.0612423
0.568943
-0.0353676
0.576681
-0.0119886
0.582668
0.0063542
0.587218
0.0197047
0.590661
0.0306584
0.593277
0.0408495
0.595258
0.0493566
0.596767
0.0566644
0.597938
0.0630484
0.598886
0.0687537
0.599716
0.0739691
0.600529
0.0788529
0.600426
0.0708542
0.600311
0.0713641
0.600255
0.0715801
0.600313
0.0715948
0.600528
0.0714578
0.600927
0.0712289
0.601528
0.0709437
0.602336
0.0706316
0.603346
0.0703163
0.604545
0.0700119
0.605911
0.0697239
0.60742
0.0694415
0.609045
0.0692898
0.610763
0.0695347
0.612559
0.0693345
0.614421
0.0691828
0.616344
0.0698203
0.618324
0.0701352
0.620366
0.0703867
0.0710567
0.622424
0.328898
-0.524809
-0.259482
0.387902
-0.449669
0.437559
-0.371252
0.478665
-0.306599
0.512287
-0.246082
0.539463
-0.193222
0.561191
-0.147589
0.578385
-0.108392
0.591847
-0.0747048
0.602318
-0.0458379
0.610449
-0.0201204
0.616702
0.00010152
0.621441
0.0149654
0.625034
0.0270659
0.62779
0.0380935
0.629932
0.0472141
0.631648
0.0549491
0.633087
0.0616095
0.634374
0.0674668
0.635614
0.0727288
0.636901
0.0775661
0.637182
0.0705724
0.637445
0.071101
0.637751
0.0712747
0.638147
0.0711986
0.63867
0.0709347
0.639346
0.0705529
0.640192
0.0700984
0.641214
0.069609
0.642414
0.069116
0.643786
0.0686402
0.645317
0.0681932
0.646989
0.0677698
0.64878
0.0674988
0.650665
0.0676489
0.65262
0.0673797
0.654622
0.0671812
0.656652
0.0677897
0.658703
0.0680847
0.660778
0.0683118
0.0689468
0.662888
0.345838
-0.599606
-0.271041
0.409436
-0.513267
0.462918
-0.424734
0.507161
-0.350843
0.54332
-0.282241
0.572516
-0.222418
0.595822
-0.170895
0.614226
-0.126796
0.628596
-0.0890755
0.639727
-0.0569682
0.648317
-0.0287107
0.654878
-0.00646005
0.659823
0.0100207
0.663552
0.0233371
0.666406
0.0352392
0.668638
0.0449821
0.670457
0.0531296
0.672034
0.0600331
0.673504
0.0659962
0.674981
0.0712518
0.676558
0.0759892
0.677076
0.0700551
0.677578
0.0705981
0.678121
0.0707317
0.678747
0.0705728
0.679488
0.0701939
0.680367
0.069674
0.681399
0.0690665
0.682592
0.068416
0.683948
0.0677599
0.685464
0.0671239
0.687134
0.0665239
0.688945
0.0659581
0.690887
0.0655576
0.692943
0.0655926
0.695096
0.0652273
0.697327
0.0649497
0.699623
0.0654942
0.701967
0.0657403
0.704352
0.0659271
0.0665273
0.706772
0.364904
-0.68024
-0.284269
0.433485
-0.581848
0.491126
-0.482375
0.538791
-0.398508
0.577725
-0.321174
0.609139
-0.253832
0.634188
-0.195944
0.653936
-0.146544
0.669324
-0.104463
0.681201
-0.0688452
0.690318
-0.0378274
0.697237
-0.0133793
0.702414
0.00484286
0.706286
0.0194651
0.709224
0.0323012
0.711509
0.0426975
0.713373
0.0512653
0.715006
0.0584005
0.716559
0.0644428
0.718156
0.0696549
0.719896
0.0742494
0.72054
0.0694107
0.721181
0.0699578
0.721868
0.0700445
0.722641
0.0697991
0.723531
0.0693045
0.724557
0.0686479
0.725733
0.06789
0.727068
0.0670814
0.728563
0.0662646
0.730218
0.0654694
0.732027
0.0647149
0.733983
0.0640018
0.736079
0.0634622
0.738305
0.0633658
0.74065
0.0628829
0.743102
0.0624979
0.745654
0.0629417
0.748296
0.0630985
0.75102
0.0632037
0.0637299
0.753817
0.386097
-0.767205
-0.299132
0.460082
-0.655833
0.522243
-0.544536
0.573633
-0.449898
0.615596
-0.363137
0.649437
-0.287674
0.676402
-0.222909
0.697634
-0.167777
0.714151
-0.12098
0.726865
-0.0815586
0.736579
-0.0475414
0.743908
-0.0207085
0.749354
-0.000602796
0.753386
0.0154323
0.756409
0.0292782
0.758731
0.0403762
0.760607
0.0493891
0.762246
0.0567611
0.763817
0.0628718
0.765455
0.0680169
0.767269
0.0724361
0.767959
0.0687199
0.768658
0.069259
0.769415
0.0692874
0.770269
0.0689451
0.771248
0.0683257
0.772372
0.0675242
0.773654
0.0666082
0.775101
0.0656342
0.776717
0.0646489
0.7785
0.063686
0.780448
0.0627671
0.782555
0.0618954
0.784814
0.0612029
0.787222
0.0609579
0.789766
0.0603387
0.79244
0.0598245
0.795241
0.0601408
0.79816
0.0601794
0.801192
0.0601719
0.0605894
0.804333
0.409464
-0.861036
-0.315634
0.489309
-0.735677
0.556379
-0.611606
0.611821
-0.50534
0.657085
-0.408401
0.693578
-0.324167
0.722642
-0.251972
0.745507
-0.190643
0.763273
-0.138746
0.776917
-0.0952026
0.787302
-0.0579268
0.795098
-0.0285037
0.800851
-0.00635568
0.805068
0.011215
0.808185
0.0261607
0.81054
0.0380218
0.812411
0.0475177
0.814028
0.0551445
0.815575
0.0613249
0.817201
0.0663908
0.819025
0.0706118
0.819703
0.0680422
0.8204
0.0685619
0.821168
0.0685191
0.822047
0.0680666
0.823064
0.0673084
0.82424
0.0663481
0.825588
0.0652602
0.827116
0.0641064
0.828827
0.0629382
0.83072
0.0617923
0.832794
0.0606932
0.835044
0.0596459
0.837464
0.0587822
0.840054
0.0583686
0.8428
0.0575929
0.845696
0.0569285
0.848743
0.0570934
0.851933
0.0569901
0.855258
0.0568463
0.0571295
0.858718
0.435085
-0.962313
-0.333808
0.521285
-0.821878
0.593687
-0.684007
0.653536
-0.565189
0.702396
-0.457261
0.741784
-0.363555
0.773143
-0.283331
0.797802
-0.215301
0.816943
-0.157887
0.831618
-0.109878
0.842753
-0.0690624
0.851074
-0.0368245
0.857177
-0.0124585
0.861607
0.00678521
0.864834
0.0229335
0.867224
0.0356312
0.869083
0.0456591
0.870659
0.053569
0.872153
0.0598301
0.873731
0.0648135
0.875522
0.0688211
0.876142
0.0674222
0.876791
0.0679127
0.877524
0.0677862
0.878382
0.0672088
0.879394
0.066296
0.880582
0.0651601
0.88196
0.0638826
0.883535
0.0625311
0.885312
0.0611612
0.887291
0.0598133
0.88947
0.0585144
0.891845
0.0572714
0.894411
0.0562159
0.897168
0.0556115
0.900103
0.054658
0.90321
0.0538217
0.906492
0.0538118
0.909938
0.0535443
0.913541
0.0532427
0.0533695
0.917302
0.463066
-1.07167
-0.353711
0.556164
-0.914976
0.634358
-0.762201
0.698999
-0.629831
0.751776
-0.510037
0.794321
-0.4061
0.82819
-0.3172
0.854814
-0.241925
0.875468
-0.178541
0.891282
-0.125692
0.903252
-0.0810324
0.912163
-0.0457349
0.918661
-0.018957
0.923334
0.00211195
0.92669
0.0195783
0.929124
0.0331973
0.930967
0.0438162
0.932489
0.0520466
0.933911
0.0584077
0.935412
0.0633126
0.937135
0.0670981
0.937663
0.0668949
0.938227
0.0673486
0.938886
0.0671268
0.939685
0.06641
0.940655
0.065326
0.941819
0.0639961
0.943192
0.0625097
0.944783
0.0609403
0.946596
0.059348
0.948633
0.0577768
0.950891
0.0562565
0.953366
0.054796
0.956055
0.0535266
0.958958
0.0527087
0.962061
0.0515555
0.965357
0.0505257
0.968851
0.0503182
0.97253
0.049865
0.976388
0.0493851
0.0493347
0.980423
0.49354
-1.18979
-0.375418
0.594126
-1.01556
0.678613
-0.846689
0.748469
-0.699686
0.80551
-0.567078
0.8515
-0.452089
0.888113
-0.353814
0.91689
-0.270701
0.939206
-0.200857
0.956277
-0.142763
0.969173
-0.0939281
0.978742
-0.0553039
0.985686
-0.0259014
0.990637
-0.00283888
0.994141
0.0160743
0.996628
0.0307107
0.998455
0.0419894
0.999915
0.0505863
1.00125
0.0570742
1.00265
0.0619114
1.00428
0.065472
1.00468
0.0664906
1.00513
0.0669022
1.00568
0.0665749
1.00638
0.0657048
1.00728
0.0644328
1.00838
0.0628904
1.00972
0.0611749
1.01129
0.0593664
1.01311
0.0575299
1.01517
0.0557131
1.01748
0.0539487
1.02003
0.0522483
1.02281
0.0507422
1.02584
0.0496877
1.02908
0.0483129
1.03254
0.0470683
1.03621
0.0466409
1.0401
0.0459812
1.04418
0.0453036
0.0450566
1.04846
0.526661
-1.31743
-0.399021
0.635379
-1.12428
0.72671
-0.938019
0.802239
-0.775216
0.863928
-0.628767
0.913676
-0.501837
0.953288
-0.393426
0.984423
-0.301837
1.00857
-0.224999
1.02702
-0.16122
1.04094
-0.107849
1.05125
-0.0656065
1.05869
-0.0333456
1.06396
-0.00810446
1.06763
0.0123987
1.07018
0.0281606
1.07199
0.040178
1.07338
0.049196
1.07461
0.0558452
1.07589
0.0606319
1.07739
0.0639707
1.07765
0.0662377
1.07794
0.0666045
1.07836
0.0661631
1.07893
0.0651269
1.07971
0.063651
1.08073
0.0618775
1.08199
0.0599127
1.08351
0.0578435
1.0853
0.0557405
1.08736
0.0536553
1.08969
0.051624
1.09227
0.0496608
1.09512
0.0478953
1.09823
0.046581
1.10158
0.044963
1.10516
0.0434826
1.10899
0.0428136
1.11304
0.0419272
1.11731
0.041033
0.0405708
1.1218
0.562605
-1.45541
-0.424624
0.680162
-1.24184
0.778934
-1.03679
0.860641
-0.856922
0.927396
-0.695522
0.981246
-0.555687
1.02414
-0.436317
1.05786
-0.335557
1.08401
-0.251147
1.10399
-0.181202
1.11904
-0.122904
1.13016
-0.0767246
1.13816
-0.041349
1.14378
-0.013725
1.14766
0.00852672
1.15028
0.0255351
1.15208
0.0383812
1.15339
0.0478844
1.1545
0.054737
1.15563
0.0594975
1.15698
0.0626234
1.15705
0.0661656
1.15717
0.0664873
1.15741
0.0659254
1.15782
0.0647118
1.15846
0.0630167
1.15934
0.0609943
1.16049
0.0587603
1.16193
0.0564093
1.16365
0.0540175
1.16566
0.0516413
1.16797
0.0493202
1.17056
0.0470713
1.17343
0.0450237
1.17658
0.0434269
1.18
0.0415442
1.18368
0.0398073
1.18762
0.0388754
1.1918
0.0377428
1.19622
0.0366137
0.0359181
1.20087
0.601569
-1.60463
-0.452349
0.728737
-1.369
0.83561
-1.14366
0.924046
-0.945358
0.996326
-0.767802
1.05466
-0.614019
1.10114
-0.482796
1.13769
-0.372109
1.16604
-0.279497
1.1877
-0.202865
1.20401
-0.139212
1.21603
-0.0887484
1.22466
-0.0499764
1.23068
-0.0197445
1.23478
0.00443168
1.23749
0.0228222
1.23927
0.0365991
1.24049
0.0466616
1.24146
0.0537686
1.24243
0.0585346
1.24359
0.0614632
1.24345
0.0663061
1.24335
0.0665855
1.24337
0.065899
1.24359
0.0644983
1.24403
0.0625704
1.24475
0.0602822
1.24575
0.0577599
1.24705
0.0551063
1.24866
0.052404
1.25059
0.0497144
1.25283
0.0470809
1.25538
0.044524
1.25823
0.042172
1.26139
0.04027
1.26483
0.0381016
1.26855
0.036088
1.27255
0.0348723
1.27682
0.0334742
1.28134
0.0320924
0.0311459
1.28611
0.643772
-1.76608
-0.482328
0.781398
-1.50663
0.897092
-1.25936
0.992864
-1.04113
1.07117
-0.846112
1.1344
-0.677246
1.18481
-0.533202
1.22447
-0.411768
1.25524
-0.310268
1.27875
-0.226381
1.29645
-0.156906
1.30948
-0.101777
1.3188
-0.0592992
1.32527
-0.0262109
1.32961
8.49593e-05
1.33243
0.0200094
1.33419
0.0348327
1.33531
0.0455403
1.33612
0.0529627
1.33688
0.0577744
1.33781
0.0605288
1.33743
0.0666953
1.33707
0.0669388
1.33684
0.0661262
1.33681
0.0645309
1.33702
0.0623581
1.33752
0.0597885
1.33832
0.0569599
1.33944
0.0539838
1.34089
0.05095
1.34268
0.0479252
1.34481
0.0449574
1.34726
0.0420704
1.35004
0.0393922
1.35315
0.037163
1.35656
0.0346883
1.36027
0.0323782
1.36429
0.0308583
1.36858
0.029176
1.37315
0.0275239
0.0263093
1.37799
0.689456
-1.94082
-0.514709
0.83847
-1.65564
0.963777
-1.38467
1.06755
-1.14491
1.15245
-0.931009
1.22103
-0.74583
1.27574
-0.587909
1.31881
-0.454836
1.35224
-0.343701
1.3778
-0.251938
1.39702
-0.176133
1.41117
-0.11592
1.42126
-0.069396
1.42823
-0.0331768
1.43286
-0.00454443
1.43578
0.017084
1.43753
0.033085
1.43854
0.0445366
1.43915
0.0523467
1.43967
0.0572542
1.44033
0.0598664
1.43965
0.0673756
1.439
0.0675932
1.43847
0.066656
1.43814
0.0648613
1.43806
0.0624335
1.43828
0.0595687
1.43883
0.056417
1.43971
0.0530998
1.44095
0.0497144
1.44254
0.0463336
1.44449
0.0430101
1.44678
0.0397718
1.44943
0.0367461
1.45243
0.0341682
1.45575
0.0313672
1.45938
0.0287412
1.46334
0.0268973
1.46761
0.0249124
1.47216
0.022973
0.0214736
1.47699
0.738887
-2.13006
-0.549651
0.900309
-1.81706
1.0361
-1.52046
1.14861
-1.25742
1.24071
-1.0231
1.31515
-0.820274
1.37457
-0.64733
1.42138
-0.501647
1.45775
-0.380064
1.48555
-0.279747
1.50648
-0.197054
1.52185
-0.131299
1.53281
-0.0803536
1.54034
-0.0407
1.54528
-0.00948983
1.54833
0.0140335
1.55006
0.0313611
1.55092
0.0436709
1.55131
0.051954
1.55155
0.0570191
1.55188
0.0595312
1.55086
0.0683961
1.54986
0.0686024
1.54897
0.0675461
1.54828
0.0655499
1.54785
0.0628596
1.54773
0.0596878
1.54795
0.0561981
1.54853
0.0525225
1.54948
0.0487666
1.5508
0.0450101
1.5525
0.0413106
1.55457
0.0377006
1.55701
0.0343069
1.55982
0.0313595
1.56297
0.0282128
1.56646
0.0252524
1.57029
0.0230649
1.57445
0.0207597
1.5789
0.0185166
0.016716
1.58366
0.792355
-2.33509
-0.587329
0.967309
-1.99202
1.11454
-1.66769
1.2366
-1.37947
1.33657
-1.12307
1.41743
-0.901138
1.48203
-0.711924
1.53295
-0.552572
1.57254
-0.419652
1.60283
-0.310041
1.62563
-0.219849
1.64238
-0.148049
1.65429
-0.0922684
1.66244
-0.048844
1.66774
-0.0147872
1.67092
0.0108455
1.67262
0.0296688
1.67332
0.0429684
1.67345
0.0518252
1.67334
0.0571233
1.67329
0.0595897
1.67187
0.0698154
1.67044
0.0700302
1.66912
0.0688644
1.668
0.0666684
1.66715
0.063711
1.66662
0.0602229
1.66643
0.0563823
1.66662
0.0523328
1.6672
0.0481893
1.66817
0.0440385
1.66954
0.039944
1.6713
0.035943
1.67344
0.0321617
1.67598
0.0288248
1.67887
0.0253141
1.68213
0.0220013
1.68574
0.0194516
1.68969
0.0168089
1.69396
0.0142461
0.0121287
1.69855
0.850179
-2.55733
-0.627931
1.0399
-2.18174
1.19964
-1.82743
1.33213
-1.51197
1.44072
-1.23166
1.52862
-0.98904
1.5989
-0.782198
1.65435
-0.608023
1.69749
-0.462795
1.73053
-0.34308
1.7554
-0.244719
1.77367
-0.16632
1.78665
-0.105247
1.79548
-0.0576789
1.80117
-0.0204753
1.80451
0.00750795
1.80616
0.0280192
1.80667
0.0424603
1.80648
0.0520094
1.80597
0.0576316
1.80544
0.0601214
1.80356
0.0717019
1.80164
0.0719512
1.79981
0.0706906
1.79818
0.0683007
1.79681
0.0650753
1.79577
0.0612646
1.79509
0.0570629
1.7948
0.0526264
1.79491
0.0480799
1.79543
0.0435182
1.79636
0.0390111
1.7977
0.0346011
1.79945
0.0304141
1.80161
0.0266689
1.80414
0.0227766
1.80705
0.0190946
1.81034
0.0161647
1.81398
0.0131684
1.81795
0.0102708
0.00782159
1.82226
0.912709
-2.79838
-0.67166
1.11857
-2.3876
1.29197
-2.00083
1.43588
-1.65589
1.55392
-1.34969
1.64954
-1.08466
1.72606
-0.858712
1.78649
-0.668455
1.83355
-0.509859
1.86963
-0.379153
1.89679
-0.271888
1.91675
-0.186279
1.93092
-0.119409
1.94052
-0.0672824
1.94664
-0.0265965
1.95014
0.00400915
1.95173
0.0264271
1.95201
0.042185
1.95145
0.0525655
1.95046
0.0586218
1.94936
0.061221
1.94693
0.0741369
1.94442
0.0744537
1.942
0.0731192
1.93975
0.0705463
1.93777
0.0670563
1.93611
0.0629205
1.93483
0.0583505
1.93393
0.0535167
1.93346
0.0485544
1.93341
0.0435672
1.93379
0.0386318
1.9346
0.0337965
1.93582
0.0291872
1.93748
0.0250161
1.93953
0.0207261
1.94196
0.0166594
1.94479
0.0133325
1.94799
0.00996727
1.95154
0.00672093
0.00392579
1.95544
0.980324
-3.05997
-0.718734
1.20382
-2.61109
1.39217
-2.18918
1.54861
-1.81232
1.677
-1.47808
1.7811
-1.18877
1.86449
-0.942094
1.93041
-0.734378
1.9818
-0.561253
2.02123
-0.418582
2.05095
-0.301604
2.07278
-0.208113
2.08826
-0.134886