/*--------------------------------*- C++ -*----------------------------------*\
| =========                 |                                                 |
| \\      /  F ield         | OpenFOAM: The Open Source CFD Toolbox           |
|  \\    /   O peration     | Version:  5.x                                   |
|   \\  /    A nd           | Web:      www.OpenFOAM.org                      |
|    \\/     M anipulation  |                                                 |
\*---------------------------------------------------------------------------*/
FoamFile
{
    version     2.0;
    format      ascii;
    class       surfaceScalarField;
    location    "200";
    object      phi;
}
// * * * * * * * * * * * * * * * * * * * * * * * * * * * * * * * * * * * * * //

dimensions      [0 3 -1 0 0 0 0];

internalField   nonuniform List<scalar> 
83317
(
0.000469138
0.000214859
-0.000548913
0.000385279
8.41028e-05
0.000313624
7.15732e-05
0.000282761
3.09037e-05
0.000267937
1.48232e-05
0.000257864
1.0123e-05
0.000250938
6.95049e-06
0.00024581
5.1638e-06
0.000241422
4.39881e-06
0.000237211
4.23187e-06
0.000233876
5.79821e-06
0.000231267
5.38386e-07
0.00023088
2.8349e-06
0.000230952
-2.76464e-06
0.000231453
1.96546e-06
0.000231862
-2.81632e-06
0.000231603
2.6449e-06
0.000231464
-2.20231e-06
0.00023063
3.27812e-06
0.000230027
-1.70483e-06
0.000229148
8.27284e-07
0.000228101
1.04179e-06
0.000227382
7.19001e-07
0.000226278
1.10857e-06
0.000225419
8.64069e-07
0.000224429
9.95495e-07
0.000223215
1.215e-06
0.000222305
9.17432e-07
0.000221621
6.88346e-07
0.000221188
4.34564e-07
0.000220702
5.00915e-07
0.000219969
2.56618e-06
0.000219333
-8.76269e-07
0.000218763
2.32362e-06
0.000218283
-1.1449e-06
0.000217987
1.97345e-06
0.000217816
-1.72985e-06
0.000217199
2.5867e-06
0.000217014
-1.7574e-06
0.000217857
1.04361e-06
0.000218554
-2.53149e-06
0.00021425
5.72612e-06
0.000210626
2.17079e-06
0.000210425
1.34274e-06
0.000211016
-1.69428e-06
0.000211368
8.31772e-07
0.00021071
-4.92622e-07
0.000210712
1.00514e-06
0.000211471
-1.73346e-06
0.000212312
9.99125e-08
0.000212524
-1.03856e-06
0.000212772
2.91609e-07
0.000212364
-1.44528e-07
0.000211978
8.33059e-07
0.000211958
-3.98249e-07
0.000211991
2.48945e-07
0.000213509
-1.77883e-06
0.000214058
-1.7525e-08
0.000214572
-1.02884e-06
0.000215575
-3.27899e-07
0.000216169
-1.24593e-06
0.000217396
-6.04481e-07
0.000217908
-1.10489e-06
0.000218378
-1.42911e-07
0.000218228
-1.50717e-07
0.00021767
5.09306e-07
0.000217745
-1.52841e-08
0.000218276
-8.56074e-07
0.000219355
-7.31943e-07
0.000219262
-4.914e-07
0.000218632
1.2453e-06
0.000218857
-1.19999e-06
0.000219004
8.37863e-07
0.000218059
-5.47983e-07
0.000216722
2.86068e-06
0.000215655
-1.73291e-06
0.000213718
4.78495e-06
0.000211371
-3.10971e-06
0.000207831
9.05266e-06
0.000207622
-1.35741e-05
0.000111843
0.000108925
-0.000423298
0.000535755
0.00071197
0.000318632
-0.000813401
0.00055472
0.000241506
0.00043963
0.0001866
0.000394421
7.61406e-05
0.000378442
3.08041e-05
0.000370493
1.81069e-05
0.000368562
8.89749e-06
0.000369305
4.44921e-06
0.000371017
2.69673e-06
0.000373102
2.16276e-06
0.000375266
4.97529e-06
0.000378047
-3.32964e-06
0.000382337
-1.49789e-07
0.00038729
-9.17837e-06
0.000392945
-2.36907e-06
0.000397558
-8.7066e-06
0.000402375
-9.08686e-07
0.000406291
-7.34069e-06
0.000410047
8.08358e-07
0.000413348
-6.18014e-06
0.00041564
-1.50043e-06
0.000417986
-1.3069e-06
0.000419311
-6.05697e-07
0.000420514
-9.13658e-08
0.000421139
2.4423e-07
0.000421262
8.7772e-07
0.000421555
9.24048e-07
0.000421113
1.36576e-06
0.000420457
1.34745e-06
0.00041938
1.51483e-06
0.000418489
1.40192e-06
0.000417654
4.3649e-06
0.000416136
-1.13162e-07
0.000414805
4.57176e-06
0.000413411
-5.80784e-07
0.000411962
4.28047e-06
0.000410722
-1.49798e-06
0.000409281
5.05906e-06
0.000407626
-1.11845e-06
0.000406043
3.62313e-06
0.000404513
-1.96691e-06
0.000406612
4.38139e-06
0.000409535
-1.50971e-06
0.000410145
1.33266e-06
0.000409825
-1.9438e-06
0.000409542
1.74066e-06
0.000409714
-1.26287e-06
0.000409626
1.62121e-06
0.000409231
-1.84675e-06
0.000408856
9.80042e-07
0.000408829
-1.44029e-06
0.000408853
5.53653e-07
0.000409237
-8.20042e-07
0.00040967
6.37302e-07
0.00040995
-8.95669e-07
0.000410256
9.35956e-08
0.000410025
-1.68181e-06
0.000410273
1.85381e-08
0.000410575
-1.59987e-06
0.000410787
-1.78121e-07
0.000411168
-1.96772e-06
0.000411506
-6.08385e-07
0.000411748
-1.65807e-06
0.000411943
-1.60843e-07
0.000412364
-7.28594e-07
0.000412565
2.85149e-07
0.000412674
-8.78944e-08
0.000412515
-8.66753e-07
0.000412011
-4.38433e-08
0.000411729
-5.29219e-07
0.000411542
1.74974e-06
0.000410726
-9.07492e-07
0.00040977
2.30756e-06
0.00040867
-2.19076e-07
0.00040703
5.32004e-06
0.000404837
-9.99897e-07
0.000402016
9.13238e-06
0.000398557
-2.61977e-06
0.0003923
1.82082e-05
0.000391873
-2.05555e-05
0.000230751
0.000276943
-0.000860091
0.000668462
0.000944437
0.000439814
-0.00106829
0.000728115
0.000457933
0.000570133
0.000344558
0.000510854
0.000135436
0.000492225
4.94296e-05
0.000484995
2.5356e-05
0.00048652
7.37985e-06
0.000491702
-7.2213e-07
0.000498185
-3.78344e-06
0.00050523
-4.87624e-06
0.000511712
-6.36367e-07
0.000518487
-1.08539e-05
0.000526219
-7.02496e-06
0.000534212
-1.81126e-05
0.000543015
-1.03484e-05
0.0005499
-1.63948e-05
0.000557128
-7.36541e-06
0.000562938
-1.38953e-05
0.000568488
-3.9774e-06
0.000573368
-1.17676e-05
0.00057701
-5.15752e-06
0.000580529
-4.82752e-06
0.000582655
-2.73219e-06
0.00058458
-2.01518e-06
0.000585698
-8.73997e-07
0.000586354
2.23699e-07
0.000586849
4.28939e-07
0.000586551
1.66404e-06
0.000586142
1.75741e-06
0.000585183
2.47347e-06
0.000584095
2.494e-06
0.000582851
6.14811e-06
0.000581447
8.32063e-07
0.000579891
6.65629e-06
0.000578175
6.39232e-07
0.000576367
6.60723e-06
0.000574376
-8.82647e-08
0.000572483
7.56318e-06
0.000570351
4.13134e-07
0.000568014
6.55595e-06
0.0005655
-3.90748e-08
0.000569386
9.5304e-07
0.000574396
-6.95815e-06
0.000575162
9.10048e-07
0.000575034
-2.1442e-06
0.000574873
2.26323e-06
0.000574923
-1.66382e-06
0.000574839
2.01045e-06
0.000574575
-1.87945e-06
0.000574334
1.50957e-06
0.000574303
-1.66817e-06
0.000574322
7.0164e-07
0.000574565
-1.23508e-06
0.000574847
4.91466e-07
0.000575069
-1.24709e-06
0.00057532
-7.309e-08
0.000575288
-1.73018e-06
0.000575546
-7.36949e-08
0.000575862
-2.07232e-06
0.00057614
-2.45226e-07
0.000576539
-2.57179e-06
0.000576718
-5.9163e-07
0.000576923
-2.05007e-06
0.000577086
-2.21187e-07
0.000577304
-1.04193e-06
0.000577566
6.63032e-09
0.000577511
-1.71083e-08
0.000577304
-7.6073e-07
0.000576775
5.95021e-07
0.000576197
-1.31917e-07
0.000575735
2.40726e-06
0.000574633
-1.10159e-07
0.000573102
4.15662e-06
0.000571526
8.70248e-07
0.00056949
7.8266e-06
0.000566509
1.07659e-06
0.000562632
1.39012e-05
0.000558102
2.27708e-07
0.000550035
2.80276e-05
0.000549531
-2.44814e-05
0.000355396
0.000475243
-0.00134766
0.000843703
0.00122657
0.000583664
-0.00136911
0.000945885
0.00073875
0.000734713
0.000555678
0.00065683
0.000213343
0.000634022
7.22371e-05
0.000627235
3.21709e-05
0.000632098
2.52928e-06
0.000641635
-1.02374e-05
0.000652761
-1.49027e-05
0.000664453
-1.65558e-05
0.000675189
-1.06777e-05
0.00068537
-2.15751e-05
0.000695886
-1.69062e-05
0.000705913
-2.88676e-05
0.000716752
-2.05614e-05
0.000725296
-2.55405e-05
0.000733931
-1.54135e-05
0.000741048
-2.15696e-05
0.000747589
-9.92746e-06
0.00075344
-1.81366e-05
0.000757888
-9.62682e-06
0.000762059
-9.00025e-06
0.000764788
-5.46063e-06
0.000767129
-4.35402e-06
0.000768647
-2.38872e-06
0.000769619
-7.45302e-07
0.000770253
-2.04509e-07
0.000770117
1.80429e-06
0.000769915
1.96119e-06
0.000769098
3.2925e-06
0.000768051
3.54718e-06
0.000766783
7.85751e-06
0.000765408
1.87969e-06
0.000763822
8.65374e-06
0.000762041
2.04896e-06
0.000760163
8.86208e-06
0.000758023
1.58055e-06
0.000755902
1.01614e-05
0.000753588
2.25855e-06
0.000751151
9.45788e-06
0.000748371
2.2842e-06
0.000752164
-2.47757e-06
0.000757467
-1.25994e-05
0.000758452
1.95775e-07
0.000758566
-2.5115e-06
0.000758613
2.49906e-06
0.000758651
-1.97066e-06
0.000758658
2.24329e-06
0.000758602
-2.05299e-06
0.00075858
1.76422e-06
0.000758662
-1.94051e-06
0.000758799
6.94348e-07
0.00075905
-1.61894e-06
0.000759341
3.10667e-07
0.000759599
-1.60427e-06
0.000759895
-2.99657e-07
0.000760225
-2.11938e-06
0.000760648
-3.64827e-07
0.000761126
-2.67403e-06
0.000761684
-6.34031e-07
0.000762262
-3.30734e-06
0.000762668
-8.3997e-07
0.000762989
-2.5173e-06
0.00076325
-3.98231e-07
0.000763435
-1.30079e-06
0.000763607
-1.74638e-07
0.000763484
1.24023e-07
0.000763349
-7.04576e-07
0.000762932
1.10053e-06
0.000762144
5.00172e-07
0.000761441
3.25976e-06
0.000760161
9.16768e-07
0.000758293
6.26874e-06
0.000756188
2.60804e-06
0.000753516
1.08959e-05
0.00074973
4.17148e-06
0.000744683
1.96907e-05
0.000738854
4.60498e-06
0.000728602
3.96579e-05
0.000728056
-2.75074e-05
0.000512584
0.000693985
-0.00190062
0.0010665
0.00156404
0.000732926
-0.00171643
0.00121163
0.00109125
0.000938108
0.000829193
0.00083536
0.000316101
0.000805737
0.000101854
0.000798378
3.95418e-05
0.000805624
-4.71313e-06
0.000818917
-2.3526e-05
0.00083436
-3.0346e-05
0.000850499
-3.26911e-05
0.000865721
-2.5477e-05
0.000879632
-3.58625e-05
0.000893336
-3.01862e-05
0.000905852
-4.18578e-05
0.000919106
-3.34055e-05
0.000929896
-3.67374e-05
0.000940478
-2.56061e-05
0.000949455
-3.09263e-05
0.000957539
-1.76222e-05
0.00096488
-2.58452e-05
0.000970544
-1.52995e-05
0.000975794
-1.4252e-05
0.000979472
-9.13889e-06
0.000982561
-7.44258e-06
0.00098475
-4.57826e-06
0.000986202
-2.19619e-06
0.000987274
-1.27742e-06
0.000987468
1.61008e-06
0.000987526
1.904e-06
0.000986922
3.89624e-06
0.000986032
4.43922e-06
0.000984881
9.29815e-06
0.000983539
2.97027e-06
0.000981981
1.04968e-05
0.000980193
3.56438e-06
0.000978298
1.10394e-05
0.000976128
3.43244e-06
0.000973904
1.27199e-05
0.000971467
4.36638e-06
0.000968967
1.22845e-05
0.00096606
4.86638e-06
0.000969727
-5.89004e-06
0.000975305
-1.84171e-05
0.0009767
-1.01213e-06
0.000977067
-3.05896e-06
0.000977294
2.46882e-06
0.000977455
-2.32471e-06
0.000977617
2.24922e-06
0.000977755
-2.35537e-06
0.000977932
1.74461e-06
0.000978187
-2.33774e-06
0.000978505
4.67689e-07
0.000978906
-2.11589e-06
0.000979353
-6.14303e-08
0.000979802
-2.12532e-06
0.000980299
-7.50049e-07
0.000980896
-2.76198e-06
0.000981554
-9.3192e-07
0.00098227
-3.47736e-06
0.000983097
-1.34409e-06
0.000983932
-4.25799e-06
0.000984627
-1.42581e-06
0.000985129
-3.12581e-06
0.000985546
-7.57908e-07
0.00098582
-1.62868e-06
0.000986025
-3.89682e-07
0.000985948
2.0865e-07
0.000985835
-6.47521e-07
0.000985424
1.57303e-06
0.000984501
1.32471e-06
0.000983599
4.27623e-06
0.00098205
2.29684e-06
0.000979801
8.70083e-06
0.000977151
4.97452e-06
0.000973728
1.45782e-05
0.000968986
8.39212e-06
0.000962619
2.65578e-05
0.000955232
1.10626e-05
0.000942239
5.36512e-05
0.000941643
-2.94194e-05
0.000708549
0.000929438
-0.00253314
0.00134158
0.00196574
0.000890426
-0.00212219
0.00153049
0.00152663
0.0011828
0.00117684
0.00104949
0.000449431
0.00101071
0.000140628
0.0010021
4.81816e-05
0.00101173
-1.43347e-05
0.00102925
-4.10335e-05
0.00104974
-5.0834e-05
0.00107121
-5.41443e-05
0.00109188
-4.57563e-05
0.00111063
-5.48974e-05
0.00112868
-4.78854e-05
0.00114472
-5.83148e-05
0.00116133
-4.96528e-05
0.00117516
-5.09182e-05
0.00118844
-3.85374e-05
0.00119993
-4.27434e-05
0.00121015
-2.74861e-05
0.00121952
-3.55205e-05
0.00122686
-2.26577e-05
0.00123361
-2.10097e-05
0.0012386
-1.41224e-05
0.00124275
-1.1599e-05
0.00124589
-7.70976e-06
0.00124805
-4.35364e-06
0.00124979
-3.01616e-06
0.00125048
9.22334e-07
0.00125093
1.45189e-06
0.00125066
4.17432e-06
0.00125002
5.0808e-06
0.00124907
1.05369e-05
0.00124784
4.00435e-06
0.00124638
1.22202e-05
0.00124464
5.07075e-06
0.00124278
1.3126e-05
0.00124062
5.28398e-06
0.00123838
1.52678e-05
0.00123588
6.56649e-06
0.00123335
1.51143e-05
0.00123036
7.56421e-06
0.00123396
-9.26258e-06
0.00123991
-2.45749e-05
0.00124184
-2.77502e-06
0.00124254
-3.9142e-06
0.001243
2.19042e-06
0.00124337
-2.86664e-06
0.00124375
2.01783e-06
0.00124413
-2.88139e-06
0.00124456
1.47158e-06
0.00124505
-2.94898e-06
0.00124562
-1.57599e-08
0.00124626
-2.84362e-06
0.00124696
-6.85123e-07
0.00124769
-2.92465e-06
0.00124849
-1.50057e-06
0.00124938
-3.69324e-06
0.00125035
-1.81438e-06
0.00125138
-4.58837e-06
0.00125253
-2.38233e-06
0.0012537
-5.53075e-06
0.00125473
-2.35445e-06
0.00125548
-3.96752e-06
0.00125611
-1.32972e-06
0.00125654
-2.10451e-06
0.00125686
-7.20591e-07
0.00125689
1.99655e-07
0.00125679
-6.05094e-07
0.00125637
2.05807e-06
0.00125532
2.26811e-06
0.0012542
5.4876e-06
0.00125232
4.01019e-06
0.0012496
1.15802e-05
0.00124631
8.02937e-06
0.00124201
1.91449e-05
0.00123612
1.38441e-05
0.00122817
3.50016e-05
0.0012189
1.93562e-05
0.00120256
7.08854e-05
0.00120189
-3.11076e-05
0.000947824
0.0011856
-0.00325857
0.00167405
0.00244599
0.00104167
-0.00260026
0.00191531
0.00205737
0.00147811
0.00161405
0.00130795
0.000619595
0.00125769
0.000190873
0.00124732
5.85621e-05
0.00125982
-2.68309e-05
0.00128249
-6.37062e-05
0.00130915
-7.75006e-05
0.00133718
-8.21636e-05
0.00136453
-7.28875e-05
0.00138938
-7.99497e-05
0.00141304
-7.13077e-05
0.00143373
-7.92733e-05
0.00145475
-7.04479e-05
0.00147253
-6.89273e-05
0.00148935
-5.51316e-05
0.00150409
-5.77112e-05
0.00151712
-4.02879e-05
0.00152913
-4.7747e-05
0.00153869
-3.22204e-05
0.00154744
-2.97633e-05
0.00155414
-2.08253e-05
0.00155974
-1.71987e-05
0.00156415
-1.21159e-05
0.0015673
-7.50363e-06
0.00156995
-5.66849e-06
0.00157134
-4.74035e-07
0.00157238
4.18109e-07
0.00157258
3.97258e-06
0.00157232
5.34501e-06
0.00157167
1.13624e-05
0.00157066
4.86052e-06
0.00156938
1.36759e-05
0.00156776
6.51393e-06
0.00156601
1.50508e-05
0.00156392
7.18223e-06
0.00156172
1.76721e-05
0.00155922
8.85641e-06
0.00155671
1.7836e-05
0.00155368
1.03869e-05
0.0015573
-1.27204e-05
0.00156371
-3.11377e-05
0.00156632
-5.26841e-06
0.00156745
-5.15321e-06
0.00156823
1.52928e-06
0.00156891
-3.66466e-06
0.0015696
1.43026e-06
0.00157029
-3.67937e-06
0.00157104
8.24447e-07
0.00157185
-3.85025e-06
0.00157275
-8.58999e-07
0.00157372
-3.87861e-06
0.00157476
-1.67744e-06
0.00157587
-4.07868e-06
0.00157706
-2.65584e-06
0.00157833
-4.99295e-06
0.00157969
-3.12559e-06
0.00158113
-6.07902e-06
0.0015827
-3.87521e-06
0.0015843
-7.20863e-06
0.00158574
-3.72893e-06
0.00158681
-5.09847e-06
0.00158771
-2.2004e-06
0.00158836
-2.78212e-06
0.00158886
-1.23223e-06
0.00158902
4.69979e-08
0.00158897
-5.88271e-07
0.00158853
2.537e-06
0.00158734
3.39745e-06
0.00158598
6.9209e-06
0.00158371
6.17787e-06
0.0015804
1.50063e-05
0.00157634
1.19093e-05
0.00157099
2.46483e-05
0.0015637
2.07971e-05
0.00155383
4.51856e-05
0.00154227
3.03503e-05
0.00152185
9.19429e-05
0.00152108
-3.19362e-05
0.00123864
0.00146951
-0.00409265
0.00207299
0.00302197
0.00118688
-0.00316617
0.00238289
0.00269659
0.00183772
0.0021592
0.00162279
0.000834537
0.001558
0.000255648
0.00154513
7.14557e-05
0.001561
-4.26856e-05
0.00158988
-9.25784e-05
0.00162405
-0.000111664
0.00166009
-0.000118194
0.00169563
-0.000108173
0.00172805
-0.000112538
0.00175879
-0.000101824
0.00178545
-0.00010621
0.00181214
-9.68992e-05
0.00183493
-9.19439e-05
0.00185629
-7.62591e-05
0.00187518
-7.68172e-05
0.00189182
-5.66828e-05
0.0019072
-6.33258e-05
0.00191961
-4.46527e-05
0.00193095
-4.10974e-05
0.00193988
-2.97536e-05
0.00194737
-2.46906e-05
0.00195344
-1.81834e-05
0.00195792
-1.1988e-05
0.00196179
-9.53252e-06
0.00196414
-2.8244e-06
0.001966
-1.43302e-06
0.00196686
3.10922e-06
0.00196713
5.07752e-06
0.00196693
1.17708e-05
0.00196626
5.40391e-06
0.00196528
1.48396e-05
0.00196389
7.75111e-06
0.00196234
1.67484e-05
0.00196039
8.91818e-06
0.00195832
1.99461e-05
0.00195591
1.10649e-05
0.00195348
2.04671e-05
0.00195048
1.31883e-05
0.00195418
-1.6257e-05
0.00196117
-3.82782e-05
0.00196459
-8.57259e-06
0.00196629
-6.9569e-06
0.00196752
4.22614e-07
0.00196861
-4.87312e-06
0.00196972
4.32319e-07
0.00197082
-4.88703e-06
0.00197198
-2.2853e-07
0.00197322
-5.16042e-06
0.00197455
-2.13769e-06
0.00197597
-5.35431e-06
0.00197746
-3.12087e-06
0.00197904
-5.69904e-06
0.00198071
-4.29633e-06
0.00198247
-6.77415e-06
0.00198435
-4.94439e-06
0.0019863
-8.08811e-06
0.00198841
-5.90155e-06
0.00199056
-9.42923e-06
0.00199251
-5.608e-06
0.00199398
-6.63392e-06
0.00199524
-3.42233e-06
0.00199617
-3.74354e-06
0.00199692
-1.9801e-06
0.00199724
-2.6714e-07
0.00199726
-6.38483e-07
0.00199682
3.0166e-06
0.00199546
4.68126e-06
0.00199382
8.6277e-06
0.00199109
8.79073e-06
0.00198707
1.9136e-05
0.00198205
1.677e-05
0.00197544
3.14536e-05
0.00196645
2.94868e-05
0.00195423
5.77684e-05
0.00193987
4.39941e-05
0.00191448
0.000117945
0.00191355
-3.26655e-05
0.00159434
0.00179014
-0.00505018
0.00255247
0.00371424
0.00130867
-0.00383883
0.00295301
0.0034579
0.00227812
0.0028341
0.00200847
0.0011042
0.00192503
0.000339066
0.00190854
8.79595e-05
0.00192823
-6.23782e-05
0.00196453
-0.000128876
0.00200775
-0.000154896
0.00205356
-0.000163996
0.00209909
-0.000153582
0.00214085
-0.000154426
0.00218043
-0.000141269
0.00221466
-0.000140594
0.00224852
-0.000130624
0.00227764
-0.000121203
0.00230475
-0.000103233
0.00232887
-0.000101076
0.00235009
-7.77653e-05
0.00236974
-8.31084e-05
0.0023858
-6.07202e-05
0.00240043
-5.57281e-05
0.00241222
-4.15392e-05
0.00242216
-3.46301e-05
0.00243039
-2.64155e-05
0.00243663
-1.82341e-05
0.00244209
-1.49912e-05
0.00244573
-6.46088e-06
0.00244869
-4.39483e-06
0.00245046
1.3321e-06
0.00245149
4.05687e-06
0.00245192
1.14473e-05
0.00245176
5.46144e-06
0.00245123
1.54826e-05
0.00245019
8.68254e-06
0.00244897
1.80801e-05
0.00244726
1.04995e-05
0.00244544
2.19015e-05
0.00244321
1.31669e-05
0.00244097
2.28285e-05
0.00243809
1.59441e-05
0.00244194
-2.00128e-05
0.00244962
-4.60436e-05
0.00245403
-1.29127e-05
0.00245646
-9.45964e-06
0.00245829
-1.33301e-06
0.00245993
-6.59289e-06
0.00246158
-1.15196e-06
0.00246323
-6.59495e-06
0.00246493
-1.87196e-06
0.00246671
-6.99724e-06
0.00246861
-4.00125e-06
0.0024706
-7.382e-06
0.00247268
-5.17462e-06
0.00247486
-7.90471e-06
0.00247715
-6.57191e-06
0.00247953
-9.16823e-06
0.00248206
-7.43913e-06
0.00248466
-1.07284e-05
0.00248745
-8.64535e-06
0.00249029
-1.23181e-05
0.00249288
-8.15803e-06
0.00249487
-8.66395e-06
0.00249659
-5.11597e-06
0.00249789
-5.06272e-06
0.00249894
-3.03395e-06
0.00249948
-8.06422e-07
0.00249959
-7.75732e-07
0.00249916
3.4706e-06
0.00249761
6.20457e-06
0.00249562
1.06618e-05
0.00249234
1.20148e-05
0.00248744
2.41079e-05
0.00248127
2.2824e-05
0.00247311
3.96976e-05
0.00246206
4.03178e-05
0.00244696
7.30473e-05
0.00242921
6.14216e-05
0.00239775
0.0001498
0.00239654
-3.24556e-05
0.0020326
0.00215498
-0.00614827
0.00313074
0.00454732
0.00140292
-0.00464059
0.00364916
0.0043562
0.00281921
0.00366403
0.00248254
0.00144089
0.00237498
0.000446606
0.00235319
0.000109776
0.00237707
-8.62445e-05
0.0024221
-0.000173903
0.00247621
-0.000209001
0.00253384
-0.000221611
0.00259153
-0.000211094
0.00264478
-0.000207782
0.00269535
-0.000191685
0.00273908
-0.000184524
0.00278195
-0.000173328
0.00281902
-0.000158425
0.00285336
-0.000137414
0.00288407
-0.000131926
0.00291106
-0.000104585
0.00293608
-0.000108266
0.00295676
-8.14163e-05
0.00297558
-7.4546e-05
0.002991
-5.69549e-05
0.00300408
-4.7709e-05
0.00301508
-3.74202e-05
0.00302362
-2.67711e-05
0.00303116
-2.25226e-05
0.00303648
-1.17823e-05
0.00304092
-8.83464e-06
0.00304392
-1.66835e-06
0.00304598
2.00976e-06
0.00304728
1.02942e-05
0.00304786
4.81201e-06
0.00304796
1.55037e-05
0.00304745
9.08795e-06
0.00304672
1.89071e-05
0.00304542
1.16403e-05
0.00304398
2.3491e-05
0.00304207
1.49271e-05
0.00304017
2.48771e-05
0.00303754
1.8433e-05
0.00304163
-2.39946e-05
0.00305009
-5.46047e-05
0.00305568
-1.84185e-05
0.00305907
-1.29196e-05
0.00306168
-3.86043e-06
0.00306405
-9.04206e-06
0.00306641
-3.43153e-06
0.00306875
-9.00632e-06
0.00307115
-4.198e-06
0.00307364
-9.53343e-06
0.00307626
-6.58562e-06
0.00307898
-1.01479e-05
0.00308182
-7.97257e-06
0.00308475
-1.08677e-05
0.00308783
-9.6246e-06
0.00309099
-1.23452e-05
0.00309434
-1.0744e-05
0.00309777
-1.41986e-05
0.00310142
-1.22394e-05
0.00310513
-1.60722e-05
0.00310852
-1.15007e-05
0.00311116
-1.13492e-05
0.00311345
-7.37525e-06
0.00311521
-6.84908e-06
0.00311665
-4.47173e-06
0.00311747
-1.61034e-06
0.00311771
-1.04926e-06
0.00311731
3.90591e-06
0.00311552
7.93939e-06
0.00311312
1.30999e-05
0.00310917
1.58783e-05
0.00310322
3.01347e-05
0.00309562
3.03218e-05
0.00308558
4.9885e-05
0.00307201
5.369e-05
0.0030534
9.1919e-05
0.0030315
8.27889e-05
0.00299266
0.000189055
0.00299097
-3.19686e-05
0.00257533
0.00257158
-0.00740219
0.00382973
0.0055504
0.00144729
-0.00559741
0.00449963
0.00540702
0.00348527
0.00467842
0.00306664
0.00185952
0.00292776
0.000585471
0.00289825
0.00013929
0.0029265
-0.000114492
0.00298173
-0.000229141
0.00304881
-0.000276092
0.00312069
-0.000293491
0.00319313
-0.000283475
0.00326043
-0.000275154
0.00332456
-0.000255735
0.00338018
-0.00024023
0.00343433
-0.000227402
0.00348134
-0.000205519
0.00352475
-0.000180748
0.00356369
-0.00017094
0.00359794
-0.000138755
0.0036297
-0.000140112
0.0036562
-0.00010792
0.0036803
-9.86475e-05
0.00370032
-7.69743e-05
0.0037174
-6.47903e-05
0.00373196
-5.19785e-05
0.00374346
-3.82699e-05
0.00375367
-3.27336e-05
0.0037612
-1.93171e-05
0.00376759
-1.52249e-05
0.00377222
-6.3003e-06
0.00377566
-1.43057e-06
0.00377816
7.85573e-06
0.00377974
3.17091e-06
0.00378075
1.45616e-05
0.003781
8.77369e-06
0.00378097
1.89953e-05
0.00378027
1.22686e-05
0.00377941
2.44303e-05
0.00377801
1.62503e-05
0.00377662
2.63391e-05
0.00377443
2.05542e-05
0.00377888
-2.83867e-05
0.00378822
-6.40067e-05
0.00379521
-2.53673e-05
0.00379981
-1.75543e-05
0.00380344
-7.45221e-06
0.00380675
-1.23926e-05
0.00381002
-6.66186e-06
0.00381325
-1.22839e-05
0.00381656
-7.46909e-06
0.00381995
-1.29562e-05
0.0038235
-1.01145e-05
0.00382715
-1.38291e-05
0.00383094
-1.17467e-05
0.00383484
-1.47779e-05
0.0038389
-1.3679e-05
0.00384305
-1.65063e-05
0.00384743
-1.5101e-05
0.00385189
-1.86792e-05
0.00385662
-1.6941e-05
0.0038614
-2.08874e-05
0.0038658
-1.58754e-05
0.00386926
-1.48379e-05
0.00387228
-1.03734e-05
0.00387463
-9.21477e-06
0.00387655
-6.39674e-06
0.00387771
-2.76953e-06
0.00387813
-1.48555e-06
0.00387777
4.28917e-06
0.0038757
9.99125e-06
0.0038728
1.60289e-05
0.00386804
2.06086e-05
0.0038608
3.74278e-05
0.00385147
3.95716e-05
0.00383912
6.22787e-05
0.00382247
7.01831e-05
0.0037996
0.000114896
0.00377265
0.000109566
0.00372484
0.000237104
0.00372229
-3.00323e-05
0.00324923
0.00304517
-0.00882841
0.00467542
0.00675845
0.00142966
-0.00673992
0.00553883
0.00662682
0.00430616
0.00591109
0.00378767
0.00237802
0.00360806
0.000765064
0.00356737
0.000180005
0.00359986
-0.00014697
0.00366682
-0.000296093
0.00374927
-0.00035854
0.00383824
-0.00038245
0.00392851
-0.000373606
0.00401291
-0.000359625
0.00409371
-0.000336435
0.00416408
-0.000310736
0.00423228
-0.00029548
0.0042917
-0.000265042
0.00434643
-0.000235368
0.00439565
-0.000220256
0.00443897
-0.000181954
0.00447916
-0.000180393
0.00451297
-0.000141743
0.00454372
-0.000129398
0.00456954
-0.000102798
0.0045917
-8.69469e-05
0.00461077
-7.10445e-05
0.00462606
-5.35584e-05
0.00463971
-4.63857e-05
0.00465011
-2.97065e-05
0.00465904
-2.41541e-05
0.00466581
-1.30707e-05
0.0046711
-6.71544e-06
0.0046752
3.87435e-06
0.00467814
1.78879e-07
0.00468038
1.24161e-05
0.00468168
7.40213e-06
0.00468266
1.80837e-05
0.00468282
1.19858e-05
0.00468279
2.45618e-05
0.00468214
1.6798e-05
0.00468151
2.70681e-05
0.00467999
2.19732e-05
0.00468495
-3.32661e-05
0.0046953
-7.44318e-05
0.00470393
-3.39338e-05
0.00471004
-2.37192e-05
0.00471499
-1.23314e-05
0.0047195
-1.69583e-05
0.00472393
-1.10445e-05
0.00472832
-1.6723e-05
0.00473278
-1.18649e-05
0.00473731
-1.75282e-05
0.00474204
-1.4808e-05
0.00474688
-1.86986e-05
0.00475187
-1.6715e-05
0.00475697
-1.98953e-05
0.00476227
-1.89664e-05
0.00476766
-2.19048e-05
0.00477333
-2.07347e-05
0.00477907
-2.44542e-05
0.00478514
-2.29669e-05
0.00479127
-2.70486e-05
0.00479692
-2.14889e-05
0.00480141
-1.93615e-05
0.00480533
-1.42649e-05
0.00480842
-1.23197e-05
0.00481095
-8.92594e-06
0.00481254
-4.35409e-06
0.00481319
-2.14968e-06
0.00481287
4.62711e-06
0.00481048
1.23446e-05
0.00480698
1.9557e-05
0.00480123
2.62914e-05
0.00479242
4.62882e-05
0.00478097
5.09583e-05
0.0047658
7.75652e-05
0.00474541
9.04322e-05
0.00471733
0.00014319
0.00468423
0.000142247
0.00462557
0.000296052
0.00462152
-2.6891e-05
0.00408672
0.00358062
-0.0104396
0.00569828
0.00821365
0.0013179
-0.00810435
0.00680889
0.00803164
0.00531871
0.00740129
0.00467918
0.00301754
0.00444669
0.000997534
0.00438992
0.000236775
0.00442604
-0.000183084
0.00450627
-0.000376333
0.00460675
-0.000459035
0.00471609
-0.000491787
0.00482778
-0.000485281
0.00493292
-0.000464803
0.00503411
-0.000437583
0.00512269
-0.00039936
0.0052083
-0.00038106
0.00528313
-0.000339912
0.00535197
-0.000304167
0.00541398
-0.000282307
0.00546863
-0.000236568
0.00551932
-0.000231136
0.00556227
-0.000184691
0.00560136
-0.000168484
0.00563448
-0.000135921
0.00566304
-0.000115512
0.00568783
-9.58296e-05
0.00570795
-7.36846e-05
0.005726
-6.44322e-05
0.00574007
-4.37847e-05
0.00575229
-3.63671e-05
0.00576185
-2.26379e-05
0.00576958
-1.44397e-05
0.00577579
-2.31343e-06
0.00578057
-4.6342e-06
0.00578446
8.55717e-06
0.0057872
4.62474e-06
0.00578953
1.57907e-05
0.00579089
1.05876e-05
0.00579203
2.34627e-05
0.00579244
1.63451e-05
0.0057929
2.66529e-05
0.00579238
2.24514e-05
0.00579807
-3.89233e-05
0.00580955
-8.59452e-05
0.00582008
-4.44389e-05
0.00582807
-3.17351e-05
0.00583468
-1.8916e-05
0.00584072
-2.30259e-05
0.00584665
-1.69535e-05
0.00585249
-2.25917e-05
0.00585841
-1.77659e-05
0.0058644
-2.35381e-05
0.00587061
-2.10022e-05
0.00587693
-2.50363e-05
0.00588344
-2.32182e-05
0.00589005
-2.6514e-05
0.00589691
-2.58192e-05
0.00590384
-2.88466e-05
0.00591111
-2.79919e-05
0.00591845
-3.18089e-05
0.00592618
-3.06856e-05
0.00593397
-3.48555e-05
0.00594118
-2.86867e-05
0.00594696
-2.51521e-05
0.005952
-1.93036e-05
0.00595601
-1.63348e-05
0.0059593
-1.22174e-05
0.00596144
-6.48879e-06
0.00596236
-3.08566e-06
0.00596212
4.87984e-06
0.00595933
1.51301e-05
0.0059551
2.38181e-05
0.00594814
3.32313e-05
0.00593742
5.70414e-05
0.00592339
6.49287e-05
0.00590478
9.61867e-05
0.00587985
0.000115264
0.00584544
0.000177634
0.00580487
0.00018275
0.0057331
0.000367972
0.00572652
-2.06742e-05
0.00512712
0.0041803
-0.0122464
0.00693385
0.00996709
0.00108521
-0.00973363
0.00836146
0.0096375
0.00656841
0.00919437
0.00578309
0.00380287
0.00548216
0.00129844
0.0054025
0.000316454
0.00544086
-0.000221425
0.00553578
-0.00047125
0.00565723
-0.000580484
0.00579067
-0.000625221
0.00592801
-0.000622517
0.00605813
-0.000594962
0.00618412
-0.000563496
0.00629503
-0.000510367
0.00640213
-0.000488082
0.00649603
-0.000433883
0.00658236
-0.000390412
0.00666024
-0.000360263
0.00672898
-0.000305213
0.00679273
-0.00029495
0.00684708
-0.000239048
0.00689657
-0.000217979
0.00693883
-0.000178179
0.00697546
-0.000152137
0.00700744
-0.000127809
0.0070337
-9.99385e-05
0.00705733
-8.80607e-05
0.00707611
-6.25641e-05
0.00709254
-5.27996e-05
0.00710572
-3.58094e-05
0.00711662
-2.53327e-05
0.00712561
-1.12099e-05
0.00713279
-1.18494e-05
0.00713888
2.53884e-06
0.00714355
-8.89465e-08
0.00714771
1.16705e-05
0.0071507
7.49832e-06
0.00715343
2.08035e-05
0.00715531
1.43874e-05
0.00715726
2.47812e-05
0.00715816
2.14812e-05
0.00716488
-4.55863e-05
0.00717766
-9.87791e-05
0.00719036
-5.70957e-05
0.00720065
-4.20631e-05
0.00720936
-2.75713e-05
0.00721734
-3.1056e-05
0.00722516
-2.47277e-05
0.00723285
-3.03197e-05
0.00724061
-2.54854e-05
0.00724843
-3.13791e-05
0.0072565
-2.90488e-05
0.00726468
-3.32424e-05
0.00727309
-3.16079e-05
0.00728158
-3.502e-05
0.00729038
-3.45978e-05
0.00729923
-3.77092e-05
0.00730849
-3.72275e-05
0.00731781
-4.11508e-05
0.0073276
-4.04424e-05
0.00733744
-4.47195e-05
0.00734658
-3.77936e-05
0.00735395
-3.25471e-05
0.00736041
-2.57404e-05
0.00736556
-2.14957e-05
0.00736979
-1.6451e-05
0.0073726
-9.28824e-06
0.00737389
-4.38373e-06
0.00737373
5.05022e-06
0.00737048
1.8352e-05
0.00736535
2.89647e-05
0.00735693
4.15979e-05
0.00734389
7.01101e-05
0.00732672
8.20609e-05
0.00730392
0.000119089
0.00727345
0.000145648
0.00723137
0.000219894
0.00718173
0.00023205
0.00709423
0.000455651
0.00708349
-1.06324e-05
0.00641829
0.00484593
-0.0142513
0.0084235
0.0120808
0.000680676
-0.0116787
0.0102601
0.0114582
0.00811152
0.011343
0.00715186
0.00476252
0.00676282
0.00168746
0.00665089
0.000428384
0.00668898
-0.00025952
0.00679973
-0.000582013
0.00694525
-0.000726013
0.00710701
-0.000786981
0.00727484
-0.000790353
0.0074349
-0.00075505
0.00759088
-0.000719455
0.00772899
-0.000648498
0.00786246
-0.000621542
0.00797984
-0.000551274
0.00808777
-0.000498331
0.00818528
-0.000457794
0.00827148
-0.000391396
0.0083514
-0.000374905
0.00841991
-0.000307547
0.00848236
-0.000280431
0.00853602
-0.000231839
0.00858273
-0.000198852
0.00862375
-0.000168829
0.00865774
-0.000133932
0.00868843
-0.000118746
0.00871319
-8.73322e-05
0.00873501
-7.46169e-05
0.00875281
-5.36137e-05
0.00876781
-4.03336e-05
0.0087804
-2.37946e-05
0.00879075
-2.22166e-05
0.00879971
-6.41313e-06
0.00880692
-7.32131e-06
0.0088135
5.11425e-06
0.00881868
2.30722e-06
0.00882355
1.59466e-05
0.00882742
1.04993e-05
0.00883138
2.08374e-05
0.00883423
1.86096e-05
0.00884241
-5.37508e-05
0.0088567
-0.000113084
0.00887188
-7.22626e-05
0.00888494
-5.51334e-05
0.00889625
-3.88795e-05
0.00890669
-4.15029e-05
0.00891688
-3.49097e-05
0.00892689
-4.03409e-05
0.00893697
-3.5563e-05
0.00894708
-4.15029e-05
0.00895748
-3.94411e-05
0.00896798
-4.37555e-05
0.00897876
-4.23824e-05
0.0089896
-4.5861e-05
0.0090008
-4.57971e-05
0.00901203
-4.8951e-05
0.00902376
-4.89456e-05
0.00903552
-5.29197e-05
0.00904784
-5.27609e-05
0.00906021
-5.70935e-05
0.00907173
-4.93074e-05
0.00908108
-4.19097e-05
0.00908929
-3.39438e-05
0.00909586
-2.80684e-05
0.00910127
-2.18627e-05
0.00910491
-1.29332e-05
0.00910664
-6.12063e-06
0.00910661
5.08692e-06
0.00910279
2.21745e-05
0.00909659
3.51874e-05
0.00908638
5.18018e-05
0.00907054
8.59827e-05
0.00904956
0.000102993
0.00902166
0.000146976
0.00898448
0.00018276