/*--------------------------------*- C++ -*----------------------------------*\
| =========                 |                                                 |
| \\      /  F ield         | OpenFOAM: The Open Source CFD Toolbox           |
|  \\    /   O peration     | Version:  5.x                                   |
|   \\  /    A nd           | Web:      www.OpenFOAM.org                      |
|    \\/     M anipulation  |                                                 |
\*---------------------------------------------------------------------------*/
FoamFile
{
    version     2.0;
    format      ascii;
    class       volVectorField;
    location    "200";
    object      U;
}
// * * * * * * * * * * * * * * * * * * * * * * * * * * * * * * * * * * * * * //

dimensions      [0 1 -1 0 0 0 0];

internalField   nonuniform List<vector> 
41860
(
(152.63 233.025 0)
(233.863 180.394 2.877e-16)
(271.413 110.399 3.64534e-17)
(244.4 82.122 -2.63371e-16)
(231.438 64.9435 -6.86174e-22)
(219.094 53.0709 -1.98513e-16)
(207.207 44.2015 -2.45104e-16)
(196.728 37.5069 2.92785e-16)
(187.186 32.2339 0)
(178.43 27.9391 -3.86911e-16)
(170.224 24.3903 4.39509e-16)
(163.683 21.5222 4.66009e-16)
(158.017 19.1399 -3.9882e-21)
(155.047 17.3227 5.17109e-16)
(151.255 15.6118 -5.81359e-16)
(149.103 14.2392 -5.73419e-16)
(146.103 12.891 6.06312e-16)
(143.579 11.7102 -6.24175e-16)
(141.257 10.6279 -6.26102e-16)
(138.455 9.59762 6.65599e-16)
(136.692 8.71307 -6.49644e-16)
(134.078 7.82876 -2.16471e-21)
(132.342 7.06207 -4.4817e-21)
(130.46 6.32802 2.57044e-21)
(128.532 5.63984 1.3776e-15)
(127.124 5.0112 -6.68827e-16)
(125.303 4.39991 0)
(123.726 3.83498 -3.36137e-16)
(122.473 3.306 3.35817e-16)
(121.209 2.80354 0)
(120.369 2.33427 2.47918e-21)
(119.103 1.8749 -2.43032e-21)
(118.076 1.44547 -2.08067e-21)
(116.976 1.02828 4.73191e-21)
(116.056 0.636475 1.50916e-16)
(115.099 0.256991 0)
(114.388 -0.102564 -1.80926e-17)
(113.584 -0.450816 1.42742e-16)
(112.398 -0.778319 -1.40548e-16)
(112.08 -1.10298 2.72578e-16)
(111.929 -1.41346 0)
(111.431 -1.71413 -1.02513e-15)
(106.62 -1.89448 0)
(106.23 -2.11409 2.92288e-21)
(105.341 -2.30393 6.99262e-16)
(105.766 -2.51804 -1.31455e-21)
(104.639 -2.6847 1.3258e-21)
(104.078 -2.85263 7.02358e-16)
(103.611 -3.01827 -1.40972e-15)
(103.805 -3.19058 -6.99938e-16)
(103.413 -3.34692 -1.34288e-21)
(102.998 -3.48648 7.04995e-16)
(102.641 -3.63086 -7.07176e-16)
(101.598 -3.73602 1.37339e-21)
(101.269 -3.86811 5.78209e-24)
(100.584 -3.97489 5.82394e-24)
(100.304 -4.09758 -1.39784e-21)
(101.026 -4.25372 0)
(99.8125 -4.32958 -1.47213e-15)
(100.514 -4.48239 -1.38008e-21)
(99.7403 -4.57009 1.45143e-15)
(100.067 -4.71622 -1.44926e-15)
(99.8678 -4.84784 1.43791e-15)
(99.5344 -4.96603 -2.90715e-15)
(99.2864 -5.09298 1.44571e-15)
(98.393 -5.17868 -1.47135e-15)
(97.7749 -5.28274 0)
(97.4578 -5.39574 7.12954e-22)
(97.2454 -5.51709 3.18223e-24)
(97.4123 -5.66125 -1.4593e-15)
(96.1546 -5.72143 -3.45003e-24)
(95.8466 -5.839 7.17207e-22)
(95.342 -5.94301 2.98602e-15)
(94.9738 -6.05698 -3.57081e-22)
(93.52 -6.10283 3.1013e-15)
(92.8216 -6.19787 0)
(91.6111 -6.25705 -6.22341e-15)
(90.1895 -6.30353 -1.87902e-22)
(88.6583 -6.33672 3.22401e-15)
(86.1999 -6.30858 -3.20869e-15)
(87.628 -6.54472 3.29527e-15)
(4.72899 -0.640386 -6.32513e-15)
(197.554 291.797 0)
(288.098 222.024 -1.24282e-16)
(315.699 128.584 -1.49342e-17)
(280.952 94.8353 1.06794e-16)
(269.296 75.6995 0)
(258.275 62.6908 3.26099e-22)
(249.577 53.3568 2.05284e-16)
(242.387 46.3214 4.61653e-22)
(235.933 40.7323 1.4855e-16)
(230.043 36.1183 1.72824e-16)
(224.735 32.2936 -2.00879e-16)
(219.627 28.9637 -4.3266e-16)
(216.45 26.299 4.8066e-23)
(213.515 23.9274 -1.84048e-21)
(212.419 21.9939 0)
(210.527 20.1673 0)
(209.307 18.5265 -2.86693e-16)
(208.155 17.0317 0)
(206.582 15.5936 2.95143e-16)
(205.921 14.3226 0)
(204.216 13.0612 6.095e-16)
(203.184 11.9062 -3.2146e-16)
(201.808 10.8085 -3.15801e-16)
(200.217 9.74841 0)
(199.062 8.76959 -1.65302e-21)
(197.155 7.80359 -3.15941e-16)
(195.899 6.90944 0)
(194.264 6.04977 0)
(192.623 5.2258 -5.35142e-22)
(190.9 4.43933 0)
(189.067 3.6895 0)
(187.636 2.97621 0)
(185.947 2.29509 1.49115e-16)
(184.013 1.63611 0)
(182.551 1.01842 -7.22669e-17)
(180.633 0.419453 1.11266e-21)
(179.151 -0.144797 -1.05858e-21)
(177.468 -0.69048 -3.43928e-17)
(175.808 -1.20452 6.77923e-17)
(173.977 -1.69985 -1.64485e-22)
(172.367 -2.16545 -9.72686e-22)
(170.588 -2.61476 4.95341e-16)
(171.934 -3.04486 0)
(171.412 -3.40047 3.34291e-16)
(170.709 -3.72402 -3.38919e-16)
(169.435 -4.02444 1.28753e-21)
(168.785 -4.32047 3.40277e-16)
(167.905 -4.59323 -3.43052e-16)
(167.055 -4.85892 2.29229e-22)
(165.94 -5.09339 3.45294e-16)
(165.12 -5.3367 0)
(164.298 -5.55445 -3.48027e-16)
(163.526 -5.77709 1.33484e-21)
(163.001 -5.98645 5.72004e-24)
(162.265 -6.19167 -1.33873e-21)
(161.627 -6.38095 6.83007e-22)
(160.907 -6.56818 -1.3619e-21)
(159.856 -6.72542 6.74424e-22)
(159.507 -6.91355 7.15068e-16)
(158.506 -7.06356 6.79692e-22)
(158.081 -7.23853 -7.07314e-16)
(157.219 -7.4053 7.1277e-16)
(156.757 -7.60521 -6.63295e-22)
(155.831 -7.77053 7.13874e-16)
(155.323 -7.96264 -6.99855e-16)
(154.573 -8.13151 -6.80374e-22)
(153.894 -8.31045 0)
(153.074 -8.47062 7.2087e-16)
(152.205 -8.63166 -1.5442e-24)
(151.112 -8.77812 1.02642e-22)
(150.439 -8.94657 7.3064e-16)
(149.402 -9.09757 0)
(148.269 -9.23781 -1.4478e-15)
(147.159 -9.3811 -1.89092e-24)
(145.919 -9.51787 -1.4979e-15)
(144.428 -9.63926 -1.49851e-15)
(142.813 -9.74906 1.50502e-15)
(140.907 -9.84312 -1.53312e-15)
(138.868 -9.91977 -1.56526e-15)
(134.982 -9.87284 0)
(137.157 -10.222 -1.59714e-15)
(21.0275 -1.83668 9.97683e-15)
(217.666 319.934 -4.19361e-18)
(316.65 244.184 0)
(339.997 138.596 1.1384e-17)
(301.227 101.783 8.07058e-17)
(289.864 81.525 0)
(279.341 67.8391 0)
(272.154 58.2113 -7.4826e-17)
(266.602 50.9727 0)
(261.74 45.2084 -1.05161e-16)
(257.352 40.4244 -9.38753e-22)
(253.55 36.4512 1.38275e-16)
(249.157 32.8723 6.61914e-21)
(246.997 30.0237 1.65099e-16)
(243.94 27.3475 1.6335e-16)
(243.455 25.2171 0)
(241.429 23.136 1.74666e-16)
(240.335 21.2806 0)
(239.196 19.5782 1.82107e-16)
(237.536 17.9365 1.80704e-16)
(236.916 16.4838 -1.86568e-16)
(235.069 15.0395 -1.81802e-16)
(234.142 13.725 1.88519e-16)
(232.504 12.4568 1.84156e-16)
(230.956 11.2492 1.85712e-16)
(229.533 10.1156 -9.94005e-22)
(227.629 9.01323 1.82591e-16)
(226.252 7.98345 0)
(224.358 6.9898 -8.99943e-17)
(222.713 6.04482 -3.16755e-22)
(220.854 5.13853 0)
(219.011 4.27633 1.37335e-21)
(217.184 3.4473 8.77961e-17)
(215.346 2.66016 8.65798e-17)
(213.519 1.90068 4.36578e-17)
(211.622 1.18259 0)
(209.778 0.489139 1.30608e-21)
(207.826 -0.166213 -5.14664e-18)
(205.926 -0.799191 -2.04453e-17)
(204.033 -1.39614 -4.01178e-17)
(202.005 -1.97215 -7.96192e-17)
(199.949 -2.51041 -2.35338e-21)
(197.813 -3.03122 2.12875e-21)
(200.052 -3.54242 7.89275e-24)
(199.467 -3.95582 -1.93409e-16)
(198.564 -4.33056 1.93848e-16)
(197.39 -4.68758 -1.97218e-16)
(196.485 -5.02846 -1.97529e-16)
(195.479 -5.34654 0)
(194.499 -5.65631 2.00388e-16)
(193.386 -5.93505 2.0239e-16)
(192.436 -6.21877 7.78409e-22)
(191.477 -6.4725 -6.82834e-22)
(190.569 -6.73169 2.0568e-16)
(189.768 -6.96861 -7.87329e-22)
(188.888 -7.20657 -4.13075e-16)
(188.055 -7.42303 -7.93325e-22)
(187.191 -7.64032 4.1535e-16)
(186.184 -7.83244 0)
(185.503 -8.03926 0)
(184.544 -8.2235 4.23936e-16)
(183.831 -8.417 0)
(182.962 -8.6174 8.14713e-22)
(182.103 -8.8344 -1.19626e-21)
(181.265 -9.0382 4.07724e-22)
(180.365 -9.24586 0)
(179.573 -9.44573 4.28252e-16)
(178.694 -9.64843 -4.29226e-16)
(177.703 -9.83262 -8.57496e-16)
(176.742 -10.0227 -4.36818e-16)
(175.533 -10.196 -3.98816e-22)
(174.579 -10.3811 -4.36593e-16)
(173.426 -10.5599 0)
(172.085 -10.7209 -2.09522e-22)
(170.707 -10.8815 8.8214e-16)
(169.336 -11.0439 -8.99729e-16)
(167.692 -11.191 9.08201e-16)
(165.781 -11.3153 9.0718e-16)
(163.646 -11.4302 9.23321e-16)
(161.379 -11.5257 1.2867e-22)
(157.175 -11.4958 0)
(159.422 -11.8527 0)
(42.8194 -3.49057 -1.06734e-14)
(233.042 342.735 9.69524e-18)
(342.635 264.497 0)
(363.963 148.534 2.50192e-20)
(321.107 108.573 -7.45019e-17)
(309.187 87.0041 0)
(298.996 72.6427 4.23562e-22)
(292.677 62.6224 -4.65218e-22)
(288.009 55.0822 0)
(283.964 49.0604 -1.32133e-21)
(280.308 44.0413 1.42068e-21)
(277.121 39.8497 1.06734e-16)
(273.188 36.0506 1.14705e-16)
(270.908 32.937 -1.24747e-16)
(267.706 30.0169 -2.48295e-16)
(266.61 27.6198 -1.99298e-21)
(264.366 25.3379 -1.29996e-16)
(262.795 23.2726 0)
(261.282 21.389 -1.33874e-16)
(259.362 19.5872 -1.32785e-16)
(258.261 17.9713 1.36382e-16)
(256.29 16.3996 -1.3327e-16)
(255.005 14.95 -2.74227e-16)
(253.195 13.5676 -9.43863e-22)
(251.496 12.2516 -2.70632e-16)
(249.838 11.0124 -1.35312e-16)
(247.912 9.81823 0)
(246.333 8.69382 0)
(244.343 7.61403 1.31984e-16)
(242.64 6.58731 -6.69985e-17)
(240.738 5.60281 6.60157e-17)
(238.881 4.66582 0)
(236.974 3.76297 -6.50535e-17)
(235.11 2.9058 -6.43189e-17)
(233.263 2.07791 -3.22426e-17)
(231.324 1.29405 0)
(229.464 0.536442 1.9396e-21)
(227.478 -0.18069 -1.87453e-21)
(225.538 -0.873894 1.5408e-17)
(223.55 -1.52836 -3.021e-17)
(221.541 -2.16158 0)
(219.455 -2.75406 0)
(217.259 -3.32921 -2.32403e-16)
(218.86 -3.87599 0)
(218.237 -4.32747 1.44216e-16)
(217.217 -4.73658 0)
(216.126 -5.13186 -1.0131e-21)
(215.089 -5.50389 1.12447e-21)
(214.018 -5.85291 -1.4923e-16)
(212.98 -6.19311 1.50215e-16)
(211.892 -6.50235 -1.51531e-16)
(210.886 -6.8144 0)
(209.868 -7.09353 1.53575e-16)
(208.901 -7.37869 -1.54523e-16)
(207.955 -7.63582 0)
(207.014 -7.89747 1.09398e-22)
(206.059 -8.13279 1.19594e-21)
(205.136 -8.37191 -6.26884e-16)
(204.209 -8.59015 6.08051e-22)
(203.329 -8.81094 -6.01654e-22)
(202.444 -9.02065 -3.21278e-16)
(201.595 -9.22982 6.11225e-22)
(200.736 -9.45404 -6.1665e-22)
(199.789 -9.69202 0)
(198.9 -9.91693 3.26339e-16)
(197.907 -10.1446 -2.56882e-24)
(196.989 -10.3611 -3.27943e-16)
(195.982 -10.5809 3.2829e-16)
(194.914 -10.784 3.28385e-16)
(193.912 -10.9957 3.35436e-16)
(192.677 -11.1911 6.63208e-16)
(191.526 -11.3878 3.35438e-16)
(190.319 -11.5877 -3.23496e-22)
(188.878 -11.7662 6.76005e-16)
(187.412 -11.9456 -6.84075e-16)
(185.851 -12.1197 1.38713e-15)
(184.113 -12.2857 -3.33281e-22)
(182.026 -12.4224 -7.00651e-16)
(179.713 -12.5508 -7.12699e-16)
(177.272 -12.6583 7.2654e-16)
(172.813 -12.6394 7.3747e-16)
(175.172 -12.9874 7.4435e-16)
(66.9026 -5.44335 1.08181e-14)
(244.537 360.047 -5.20666e-18)
(364.264 281.544 -6.90665e-17)
(385.785 157.664 -8.99398e-18)
(339.177 114.779 6.23612e-17)
(325.601 91.6803 3.64245e-17)
(315.474 76.6842 4.26145e-17)
(309.229 66.1905 5.00879e-17)
(304.714 58.297 -8.4814e-22)
(300.88 51.999 6.4943e-17)
(297.464 46.75 1.08296e-21)
(294.457 42.3544 -8.10314e-17)
(290.926 38.4013 2.70867e-21)
(288.394 35.0719 -2.87623e-21)
(285.24 31.9903 9.60921e-17)
(283.587 29.385 3.15995e-21)
(281.285 26.9653 -6.20519e-21)
(279.425 24.7504 6.38011e-21)
(277.717 22.7391 -3.20695e-21)
(275.695 20.8249 0)
(274.337 19.0938 0)
(272.348 17.4309 2.14335e-16)
(270.856 15.8827 1.10469e-16)
(269.014 14.4185 -1.09278e-16)
(267.228 13.021 1.09768e-16)
(265.495 11.7055 -1.10535e-16)
(263.554 10.4405 1.66913e-21)
(261.878 9.24508 -1.69005e-21)
(259.902 8.10138 -2.47819e-22)
(258.14 7.01055 -1.68691e-21)
(256.235 5.9658 -1.08658e-16)
(254.368 4.97052 0)
(252.461 4.0111 5.38539e-17)
(250.596 3.09929 1.254e-23)
(248.721 2.21763 2.66545e-17)
(246.805 1.38255 2.62208e-17)
(244.92 0.574465 6.55951e-18)
(242.962 -0.191219 3.21896e-18)
(241.016 -0.932042 0)
(239.017 -1.63235 2.52163e-17)
(237.008 -2.31076 -1.53697e-21)
(234.952 -2.94687 1.49886e-21)
(232.753 -3.56613 1.94814e-16)
(233.783 -4.14032 0)
(233.136 -4.622 0)
(232.088 -5.05977 -1.21257e-16)
(230.985 -5.4836 1.23048e-16)
(229.893 -5.88163 0)
(228.785 -6.25565 1.25228e-16)
(227.71 -6.62041 8.80506e-22)
(226.609 -6.95298 -1.94008e-21)
(225.566 -7.28782 -4.38846e-24)
(224.512 -7.58755 -1.29019e-16)
(223.508 -7.89369 -9.88903e-22)
(222.502 -8.16894 0)
(221.522 -8.44999 2.62945e-16)
(220.525 -8.70266 -2.64504e-16)
(219.563 -8.95971 5.30291e-16)
(218.622 -9.19554 2.68258e-16)
(217.679 -9.43176 -2.67681e-16)
(216.775 -9.65838 1.03658e-21)
(215.87 -9.88249 4.04592e-24)
(214.986 -10.1243 -2.73757e-16)
(214.01 -10.3812 -1.03808e-21)
(213.057 -10.6219 -2.76097e-16)
(212.029 -10.8677 5.26793e-22)
(211.025 -11.0984 2.78184e-16)
(209.96 -11.3344 0)
(208.836 -11.5531 0)
(207.768 -11.7803 0)
(206.494 -11.9925 -2.81485e-16)
(205.251 -12.2025 -2.85771e-16)
(203.969 -12.4175 0)
(202.456 -12.6107 -5.75227e-16)
(200.921 -12.8054 0)
(199.239 -12.991 -5.91625e-16)
(197.397 -13.1704 1.76182e-24)
(195.2 -13.3194 -5.70316e-22)
(192.741 -13.4586 6.08202e-16)
(190.16 -13.5754 6.19876e-16)
(185.446 -13.5625 -6.2697e-16)
(187.948 -13.8949 8.68112e-22)
(89.7327 -7.3229 0)
(253.101 372.934 9.41126e-18)
(381.573 295.347 1.16689e-16)
(403.46 165.17 0)
(353.955 119.91 -1.00266e-16)
(338.583 95.4094 -5.82145e-17)
(328.36 79.865 -6.80948e-17)
(322.015 68.9615 -8.00261e-17)
(317.541 60.7774 2.79997e-21)
(313.854 54.2625 -1.04237e-16)
(310.644 48.8391 5.84441e-17)
(307.829 44.2934 2.03143e-21)
(304.673 40.2293 -2.13292e-21)
(302.131 36.7547 0)
(299.134 33.5589 0)
(297.201 30.8048 2.64298e-21)
(294.926 28.2812 -8.55463e-17)
(292.933 25.9543 2.67728e-21)
(291.142 23.845 -9.01409e-17)
(289.098 21.8432 9.02085e-17)
(287.601 20.0224 -2.87943e-21)
(285.636 18.2865 -9.22835e-17)
(284.033 16.66 2.92717e-21)
(282.197 15.1297 -2.87367e-21)
(280.377 13.6659 9.52393e-17)
(278.621 12.2882 1.92549e-16)
(276.688 10.9646 9.48338e-17)
(274.964 9.7106 -9.71342e-17)
(273.025 8.51383 -4.75435e-17)
(271.23 7.36928 2.9283e-21)
(269.338 6.27394 4.76128e-17)
(267.477 5.22959 0)
(265.581 4.22239 -4.73584e-17)
(263.725 3.26436 2.85228e-21)
(261.844 2.33725 -2.34559e-17)
(259.951 1.45868 -2.31158e-17)
(258.061 0.607711 -5.77773e-18)
(256.132 -0.199272 0)
(254.191 -0.980696 0)
(252.212 -1.72024 2.22985e-17)
(250.207 -2.43726 -1.34897e-21)
(248.184 -3.11068 0)
(246 -3.76809 -1.21333e-22)
(246.568 -4.36634 -1.61166e-21)
(245.899 -4.8738 1.62863e-21)
(244.845 -5.33649 1.07818e-16)
(243.719 -5.78447 1.09306e-16)
(242.595 -6.20518 3.36045e-21)
(241.462 -6.60086 8.06353e-24)
(240.361 -6.98687 -1.12234e-16)
(239.244 -7.33934 -7.88243e-24)
(238.175 -7.6939 3.48202e-21)
(237.095 -8.01152 1.14945e-16)
(236.063 -8.33585 1.15778e-16)
(235.021 -8.62729 0)
(234.013 -8.92521 -2.34568e-16)
(232.994 -9.19348 2.36394e-16)
(232.005 -9.46618 -4.74142e-16)
(231.033 -9.7164 -7.17801e-23)
(230.062 -9.96708 2.39523e-16)
(229.125 -10.2075 0)
(228.185 -10.4451 0)
(227.273 -10.7018 2.44877e-16)
(226.272 -10.9749 1.86335e-21)
(225.271 -11.2296 -9.40843e-22)
(224.212 -11.491 0)
(223.151 -11.7348 -1.75818e-25)
(222.048 -11.9856 0)
(220.879 -12.2179 2.50796e-16)
(219.747 -12.458 2.55472e-16)
(218.436 -12.6845 2.5248e-16)
(217.129 -12.9071 2.56695e-16)
(215.777 -13.1347 0)
(214.205 -13.3407 -4.93802e-22)
(212.602 -13.5481 5.24372e-16)
(210.833 -13.7449 0)
(208.895 -13.9353 0)
(206.61 -14.0954 0)
(204.026 -14.2438 0)
(201.326 -14.3686 -5.57403e-16)
(196.382 -14.3611 5.6278e-16)
(199.016 -14.6706 -1.14354e-15)
(109.233 -8.95762 1.83896e-14)
(259.31 382.367 -8.1529e-18)
(395.762 306.854 -1.02328e-16)
(417.984 171.474 -2.14322e-22)
(366.246 124.24 4.18727e-17)
(349.323 98.5289 6.49823e-21)
(338.928 82.496 2.8734e-17)
(332.501 71.2502 6.78921e-17)
(328.08 62.8273 -3.91804e-17)
(324.54 56.1363 4.45575e-17)
(321.531 50.5723 -3.42768e-21)
(318.918 45.9078 5.63457e-17)
(316.09 41.7534 3.78461e-21)
(313.645 38.1702 -4.09389e-21)
(310.838 34.8849 4.27689e-21)
(308.782 32.0165 -9.19818e-21)
(306.57 29.408 1.15059e-20)
(304.531 26.9909 8.10332e-23)
(302.714 24.801 8.0231e-17)
(300.686 22.7263 -8.05333e-17)
(299.116 20.8309 5.09191e-21)
(297.193 19.0328 -8.28589e-17)
(295.537 17.3407 5.20817e-21)
(293.725 15.7534 8.54391e-17)
(291.904 14.2329 -7.84262e-22)
(290.145 12.8014 -1.13906e-20)
(288.238 11.4269 -1.71836e-16)
(286.496 10.1222 8.81411e-17)
(284.596 8.87881 2.64845e-21)
(282.792 7.68736 -2.66291e-21)
(280.921 6.54751 0)
(279.072 5.4599 -2.65556e-21)
(277.192 4.41045 4.31889e-17)
(275.351 3.41155 -4.28144e-17)
(273.477 2.44425 2.14117e-17)
(271.607 1.5271 0)
(269.723 0.638102 0)
(267.819 -0.20555 0)
(265.89 -1.02307 -2.5422e-21)
(263.935 -1.79751 -2.04114e-17)
(261.942 -2.54895 2.46979e-21)
(259.948 -3.25554 -2.44785e-21)
(257.786 -3.94717 -1.40364e-22)
(257.979 -4.56766 5.89779e-21)
(257.286 -5.09801 9.82914e-17)
(256.231 -5.58292 9.91575e-17)
(255.086 -6.05252 -1.00529e-16)
(253.943 -6.49368 -3.08406e-21)
(252.791 -6.90884 -1.02493e-16)
(251.671 -7.31393 3.14611e-21)
(250.538 -7.68417 0)
(249.448 -8.05645 0)
(248.348 -8.39018 0)
(247.294 -8.73087 -2.1352e-16)
(246.227 -9.03707 2.15192e-16)
(245.196 -9.35019 4.32835e-16)
(244.159 -9.63248 0)
(243.147 -9.91929 -1.60708e-21)
(242.147 -10.1824 -2.21275e-16)
(241.155 -10.4462 2.21378e-16)
(240.188 -10.6989 -2.24011e-16)
(239.222 -10.9489 -2.2368e-16)
(238.283 -11.2189 2.26427e-16)
(237.259 -11.5063 0)
(236.221 -11.7739 0)
(235.132 -12.0491 0)
(234.027 -12.3051 -2.30641e-16)
(232.889 -12.5691 -8.83209e-22)
(231.682 -12.8138 -2.3234e-16)
(230.495 -13.0656 -2.36611e-16)
(229.149 -13.3048 -2.3393e-16)
(227.787 -13.5388 -2.37952e-16)
(226.374 -13.7777 0)
(224.751 -13.9953 0)
(223.081 -14.2137 -4.86292e-16)
(221.239 -14.4207 -9.41131e-22)
(219.218 -14.6211 4.72773e-22)
(216.854 -14.791 0)
(214.158 -14.9477 5.07465e-16)
(211.355 -15.0794 -4.93155e-22)
(206.203 -15.0777 -5.21529e-16)
(208.951 -15.3564 5.30699e-16)
(125.346 -10.3524 -1.5672e-14)
(263.635 389.077 1.2572e-17)
(407.681 316.739 4.616e-17)
(430.613 177.107 1.01793e-22)
(377.122 128.137 -3.67482e-17)
(358.815 101.323 2.18089e-17)
(348.167 84.8199 -2.55513e-17)
(341.645 73.2625 -7.15331e-21)
(337.258 64.6248 3.50533e-17)
(333.84 57.7767 3.98949e-17)
(331.005 52.0887 -8.97845e-17)
(328.58 47.3211 -5.0527e-17)
(326.031 43.0861 0)
(323.722 39.4144 3.77902e-21)
(321.11 36.0534 -3.77074e-21)
(319.021 33.0921 6.85141e-17)
(316.888 30.4103 6.87744e-17)
(314.852 27.9168 7.17803e-17)
(313.041 25.6571 7.35948e-17)
(311.052 23.5188 0)
(309.448 21.5587 7.74385e-17)
(307.577 19.7054 1.28383e-21)
(305.902 17.9559 0)
(304.121 16.3177 -7.91554e-17)
(302.317 14.7469 -7.98261e-17)
(300.57 13.2673 -8.09857e-17)
(298.698 11.8472 7.99041e-17)
(296.955 10.497 5.03091e-21)
(295.093 9.21135 -4.89164e-21)
(293.296 7.97768 0)
(291.451 6.79747 4.04357e-17)
(289.62 5.6706 4.9595e-21)
(287.758 4.58272 -4.03537e-17)
(285.934 3.54663 8.00431e-17)
(284.075 2.54278 -4.00502e-17)
(282.225 1.59044 -1.97515e-17)
(280.355 0.666772 -4.81092e-21)
(278.473 -0.210329 0)
(276.559 -1.0608 0)
(274.628 -1.86711 1.91279e-17)
(272.651 -2.65003 0)
(270.683 -3.38686 -3.74857e-17)
(268.545 -4.10996 -1.29854e-22)
(268.429 -4.75151 0)
(267.708 -5.3027 -9.23695e-17)
(266.651 -5.80787 -1.86519e-16)
(265.495 -6.29735 -2.89349e-21)
(264.337 -6.75734 -9.53401e-17)
(263.171 -7.19043 1.92977e-16)
(262.035 -7.61305 -9.73183e-17)
(260.888 -7.9996 9.82239e-17)
(259.78 -8.38816 -3.0169e-21)
(258.664 -8.73674 -3.05461e-21)
(257.59 -9.09248 1.00666e-16)
(256.505 -9.41238 -2.02951e-16)
(255.454 -9.73947 -2.04154e-16)
(254.399 -10.0346 0)
(253.367 -10.3344 2.06713e-16)
(252.343 -10.6093 -3.19403e-21)
(251.332 -10.8853 -2.09077e-16)
(250.339 -11.1494 2.11592e-16)
(249.352 -11.4108 2.11331e-16)
(248.388 -11.6929 -4.27959e-16)
(247.34 -11.9934 -3.25889e-21)
(246.271 -12.273 1.6458e-21)
(245.154 -12.5608 -1.65306e-21)
(244.014 -12.8282 2.18137e-16)
(242.842 -13.1042 -2.1951e-16)
(241.599 -13.3602 0)
(240.365 -13.6229 0)
(238.985 -13.8736 0)
(237.574 -14.1181 -2.2529e-16)
(236.107 -14.3675 -8.71e-22)
(234.436 -14.5957 8.62497e-22)
(232.703 -14.8239 -4.60598e-16)
(230.795 -15.0405 0)
(228.699 -15.2499 4.50636e-22)
(226.263 -15.4287 4.72693e-16)
(223.463 -15.5928 5.62292e-22)
(220.568 -15.7306 0)
(215.228 -15.7355 -2.36767e-22)
(218.071 -15.974 2.38388e-22)
(139.015 -11.5834 -6.52583e-15)
(266.545 393.748 -1.09995e-17)
(417.816 325.394 4.29658e-17)
(442.087 182.39 -5.14659e-18)
(387.243 131.835 6.73327e-17)
(367.626 103.958 -1.30748e-21)
(356.632 86.9754 2.35998e-17)
(349.971 75.1131 -2.80193e-17)
(345.578 66.268 -2.03401e-21)
(342.243 59.2697 -3.68812e-17)
(339.546 53.4644 4.14649e-17)
(337.28 48.6011 4.66213e-17)
(334.965 44.2903 0)
(332.804 40.5414 -6.97691e-21)
(330.383 37.1133 -5.78558e-17)
(328.315 34.0729 -6.37094e-17)
(326.269 31.3255 7.74712e-21)
(324.265 28.7648 -6.708e-17)
(322.479 26.4429 -6.89378e-17)
(320.542 24.2474 -1.69535e-20)
(318.928 22.2292 7.18255e-21)
(317.112 20.3257 1.40229e-21)
(315.439 18.5244 7.48974e-17)
(313.696 16.8396 0)
(311.92 15.223 7.5439e-17)
(310.193 13.6993 0)
(308.361 12.2372 9.27843e-21)
(306.629 10.8454 -9.44918e-21)
(304.805 9.5206 0)
(303.024 8.24805 0)
(301.206 7.03049 -7.67835e-17)
(299.396 5.86727 -4.67373e-21)
(297.556 4.74376 0)
(295.751 3.67318 -3.80501e-17)
(293.91 2.63539 1.90394e-17)
(292.08 1.65038 4.64348e-21)
(290.225 0.694487 0)
(288.366 -0.213695 -4.54094e-21)
(286.468 -1.09482 9.26373e-18)
(284.56 -1.93075 -1.823e-17)
(282.602 -2.74296 4.41259e-21)
(280.656 -3.50789 3.57375e-17)
(278.544 -4.26042 -7.07209e-17)
(278.165 -4.9222 4.32628e-17)
(277.412 -5.49268 5.39748e-21)
(276.353 -6.01664 1.78214e-16)
(275.19 -6.52469 0)
(274.021 -7.00227 9.11679e-17)
(272.843 -7.45213 -5.75092e-21)
(271.693 -7.89112 9.31101e-17)
(270.534 -8.29289 -9.39933e-17)
(269.41 -8.69667 0)
(268.279 -9.05914 0)
(267.189 -9.42894 2.94841e-21)
(266.088 -9.76168 -2.95991e-21)
(265.018 -10.1018 2.99107e-21)
(263.946 -10.4089 1.2518e-23)
(262.896 -10.7208 -1.9816e-16)
(261.851 -11.0069 -2.00292e-16)
(260.822 -11.2941 -2.00508e-16)
(259.806 -11.5689 -2.02958e-16)
(258.8 -11.841 0)
(257.812 -12.1343 2.05334e-16)
(256.743 -12.4471 0)
(255.645 -12.7378 0)
(254.501 -13.0373 0)
(253.329 -13.3155 -2.0947e-16)
(252.125 -13.6026 2.10835e-16)
(250.849 -13.8691 -3.22288e-21)
(249.573 -14.142 2.15119e-16)
(248.16 -14.4034 -2.12795e-16)
(246.702 -14.6576 2.1652e-16)
(245.185 -14.9167 8.28145e-24)
(243.471 -15.1548 -1.65829e-21)
(241.678 -15.392 4.42815e-16)
(239.709 -15.6174 0)
(237.542 -15.8351 -4.52876e-16)
(235.039 -16.0222 -4.54515e-16)
(232.143 -16.193 1.27292e-22)
(229.166 -16.3361 0)
(223.651 -16.3488 0)
(226.569 -16.5359 1.15501e-22)
(151.196 -12.7266 5.445e-15)
(268.423 396.931 0)
(426.43 333.045 3.89334e-19)
(452.802 187.51 4.84568e-18)
(396.994 135.477 -3.17301e-17)
(376.091 106.536 -1.08979e-21)
(364.654 89.0472 -2.23531e-17)
(357.79 76.8716 -3.10344e-21)
(353.338 67.8162 0)
(350.04 60.6673 0)
(347.44 54.7459 -3.91051e-17)
(345.302 49.7895 -4.3921e-17)
(343.177 45.4044 5.69531e-21)
(341.161 41.5848 -5.31006e-17)
(338.92 38.095 1.08943e-16)
(336.908 34.9849 0)
(334.953 32.1774 7.47247e-21)
(333 29.5559 1.31587e-22)
(331.25 27.177 -1.59928e-20)
(329.372 24.9287 8.01132e-21)
(327.765 22.8574 -6.9432e-17)
(326.006 20.9071 6.8757e-17)
(324.35 19.0582 -7.15912e-17)
(322.647 17.33 0)
(320.906 15.6708 -7.22358e-17)
(319.205 14.1061 -8.91772e-21)
(317.416 12.6048 -8.89916e-21)
(315.702 11.1741 9.06971e-21)
(313.916 9.81254 3.66562e-17)
(312.156 8.50361 -3.72659e-17)
(310.367 7.25097 1.90218e-22)
(308.58 6.05361 8.99091e-21)
(306.765 4.8966 9.04386e-21)
(304.979 3.79357 -8.90772e-21)
(303.158 2.72385 0)
(301.348 1.70806 1.8109e-17)
(299.51 0.721821 4.54411e-18)
(297.671 -0.215634 6.22956e-23)
(295.791 -1.12565 -8.9358e-18)
(293.904 -1.98946 0)
(291.965 -2.82931 0)
(290.04 -3.62067 0)
(287.955 -4.40103 0)
(287.352 -5.08245 -5.20464e-21)
(286.56 -5.67105 8.51955e-17)
(285.498 -6.21263 -1.55149e-22)
(284.33 -6.73821 -5.34843e-21)
(283.151 -7.23241 5.36844e-21)
(281.964 -7.69812 -1.13669e-22)
(280.801 -8.15258 -9.00943e-17)
(279.631 -8.56873 -9.09815e-17)
(278.493 -8.98689 5.59156e-21)
(277.35 -9.36249 0)
(276.243 -9.74557 -5.71129e-21)
(275.128 -10.0905 -1.88317e-16)
(274.041 -10.443 2.43682e-23)
(272.953 -10.7613 -5.82659e-21)
(271.885 -11.0847 3.84159e-16)
(270.822 -11.3813 -5.84824e-21)
(269.775 -11.6791 1.94445e-16)
(268.738 -11.9639 1.96851e-16)
(267.714 -12.2462 3.00712e-21)
(266.703 -12.5501 1.18115e-23)
(265.614 -12.8743 -3.02942e-21)
(264.489 -13.1756 0)
(263.319 -13.4861 2.01526e-16)
(262.118 -13.7744 2.03377e-16)
(260.882 -14.0719 0)
(259.575 -14.3484 3.13703e-21)
(258.258 -14.6308 -2.08941e-16)
(256.814 -14.9021 4.13458e-16)
(255.313 -15.1655 -2.10364e-16)
(253.748 -15.4338 -8.04679e-24)
(251.992 -15.681 3.23158e-21)
(250.143 -15.9266 8.97827e-24)
(248.116 -16.1602 4.36713e-16)
(245.884 -16.3857 8.80283e-16)
(243.318 -16.5803 0)
(240.331 -16.7574 -4.49118e-16)
(237.278 -16.9048 0)
(231.603 -16.9267 -4.41216e-22)
(234.567 -17.0497 6.70019e-22)
(162.558 -13.8369 4.62671e-15)
(269.54 399.014 -5.11092e-22)
(433.678 339.833 -3.76097e-17)
(462.968 192.579 4.87807e-18)
(406.612 139.159 0)
(384.428 109.128 -2.39771e-21)
(372.445 91.093 2.15942e-17)
(365.303 78.5853 2.56026e-17)
(360.734 69.3097 0)
(357.422 62.0046 -8.35861e-21)
(354.876 55.9642 3.74764e-17)
(352.829 50.914 0)
(350.854 46.4541 -4.51908e-17)
(348.971 42.5671 5.05869e-17)
(346.896 39.0188 -5.19151e-17)
(344.962 35.8455 0)
(343.098 32.9818 0)
(341.209 30.3043 -6.10598e-17)
(339.505 27.872 6.29507e-17)
(337.69 25.5744 6.36087e-17)
(336.101 23.4535 6.68686e-17)
(334.4 21.4591 0)
(332.769 19.5656 6.90749e-17)
(331.108 17.7963 -1.8825e-22)
(329.406 16.097 -6.98047e-17)
(327.737 14.4936 7.10246e-17)
(325.991 12.9552 7.02574e-17)
(324.299 11.4877 7.22926e-17)
(322.551 10.0913 -3.55522e-17)
(320.817 8.74797 3.61533e-17)
(319.057 7.46201 -1.72633e-20)
(317.295 6.23223 3.59079e-17)
(315.505 5.0434 -8.78058e-21)
(313.74 3.90951 -6.69719e-23)
(311.939 2.80943 -1.78122e-17)
(310.148 1.76436 0)
(308.329 0.749244 -4.40034e-18)
(306.509 -0.216057 -2.1886e-18)
(304.647 -1.15357 8.6836e-18)
(302.78 -2.04389 8.32127e-21)
(300.86 -2.91004 0)
(298.955 -3.72652 3.3564e-17)
(296.897 -4.53345 8.08612e-21)
(296.099 -5.23409 -4.06471e-17)
(295.262 -5.83987 -8.29815e-17)
(294.197 -6.39813 -8.39259e-17)
(293.024 -6.94039 0)
(291.837 -7.4504 -1.05226e-20)
(290.642 -7.93123 -1.74183e-16)
(289.467 -8.40041 -1.06416e-20)
(288.287 -8.83029 8.87993e-17)
(287.135 -9.26214 0)
(285.98 -9.65027 0)
(284.858 -10.046 9.11801e-17)
(283.73 -10.4025 1.83948e-16)
(282.628 -10.7667 -1.85165e-16)
(281.523 -11.0958 5.6932e-21)
(280.439 -11.43 -3.75443e-16)
(279.357 -11.7367 5.87577e-21)
(278.293 -12.0446 -1.90101e-16)
(277.236 -12.339 -5.88548e-21)
(276.194 -12.6309 1.9237e-16)
(275.162 -12.9449 5.93585e-21)
(274.053 -13.2799 5.95169e-21)
(272.903 -13.5912 1.97067e-16)
(271.709 -13.9122 -1.97227e-16)
(270.478 -14.21 4.84797e-23)
(269.213 -14.5174 -2.0041e-16)
(267.875 -14.8032 0)
(266.521 -15.0947 0)
(265.045 -15.3754 -2.02449e-16)
(263.502 -15.6474 2.06018e-16)
(261.893 -15.9242 -3.17098e-21)
(260.096 -16.1801 0)
(258.193 -16.4336 0)
(256.112 -16.6749 -4.27768e-16)
(253.816 -16.9075 -4.31122e-16)
(251.191 -17.109 1.64519e-21)
(248.119 -17.292 8.42162e-22)
(244.996 -17.4428 4.48075e-16)
(239.174 -17.4758 0)
(242.148 -17.5201 4.60154e-16)
(173.517 -14.9494 -4.02767e-15)
(270.094 400.278 2.03991e-17)
(439.676 345.873 -3.6257e-17)
(472.683 197.672 -4.74362e-18)
(416.247 142.951 -1.02505e-21)
(392.789 111.789 0)
(380.158 93.158 2.11207e-17)
(372.658 80.2907 -2.50284e-17)
(367.905 70.7788 0)
(364.526 63.3079 0)
(361.987 57.1428 0)
(359.994 51.9956 -4.05516e-17)
(358.129 47.4585 4.35448e-17)
(356.36 43.505 -4.8657e-17)
(354.436 39.8996 -1.23262e-20)
(352.59 36.6674 1.33828e-20)
(350.818 33.7502 0)
(349.001 31.02 5.90297e-17)
(347.347 28.5373 -6.0934e-17)
(345.598 26.1928 -1.23241e-16)
(344.035 24.025 -2.08917e-21)
(342.391 21.9884 -3.14138e-20)
(340.792 20.0527 -6.71204e-17)
(339.174 18.2442 6.71595e-17)
(337.514 16.5066 6.79665e-17)
(335.878 14.8663 -6.91828e-17)
(334.175 13.2923 -6.84284e-17)
(332.511 11.7899 -7.05183e-17)
(330.8 10.3601 -3.46461e-17)
(329.093 8.9838 1.47029e-22)
(327.364 7.66594 3.49288e-17)
(325.627 6.40512 -3.50406e-17)
(323.863 5.1858 0)
(322.118 4.02232 -3.47763e-17)
(320.339 2.89313 1.02935e-22)
(318.567 1.81999 -1.72148e-17)
(316.766 0.77719 -4.33089e-18)
(314.964 -0.214805 1.65542e-20)
(313.121 -1.17868 -1.66957e-20)
(311.273 -2.09442 1.6299e-20)
(309.372 -2.98579 -3.33457e-17)
(307.485 -3.82631 -3.29308e-17)
(305.454 -4.65874 1.58514e-20)
(304.487 -5.37831 -3.98121e-17)
(303.599 -6.00057 -8.12896e-17)
(302.527 -6.5747 -8.22967e-17)
(301.352 -7.13291 -1.01791e-20)
(300.156 -7.65808 -8.43738e-17)
(298.954 -8.1534 8.54781e-17)
(297.768 -8.6367 8.62936e-17)
(296.579 -9.07974 0)
(295.414 -9.52472 0)
(294.248 -9.92487 0)
(293.111 -10.3327 -8.95758e-17)
(291.97 -10.7003 0)
(290.851 -11.0758 1.81969e-16)
(289.732 -11.4152 0)
(288.631 -11.7598 1.84549e-16)
(287.532 -12.0761 9.93604e-23)
(286.451 -12.3936 5.2135e-23)
(285.374 -12.6973 -1.89334e-16)
(284.314 -12.9983 -1.8925e-16)
(283.261 -13.3219 5.84059e-21)
(282.133 -13.6672 -1.91544e-16)
(280.959 -13.9881 -3.87918e-16)
(279.741 -14.3189 -5.93729e-21)
(278.483 -14.626 -3.91941e-16)
(277.187 -14.9427 1.97326e-16)
(275.821 -15.2374 -1.97763e-16)
(274.429 -15.5375 -2.0146e-16)
(272.922 -15.827 0)
(271.34 -16.1073 0)
(269.687 -16.3921 0)
(267.851 -16.6561 0)
(265.897 -16.917 3.17705e-21)
(263.763 -17.1655 -6.43033e-21)
(261.407 -17.4047 3.23029e-21)
(258.726 -17.6127 0)
(255.574 -17.801 -4.33058e-16)
(252.386 -17.9542 -4.41185e-16)
(246.43 -18.0006 -4.41988e-16)
(249.369 -17.95 -4.5285e-16)
(184.297 -16.0843 3.58123e-15)
(270.233 400.927 -1.87512e-17)
(444.533 351.279 3.41618e-17)
(481.974 202.838 0)
(425.993 146.907 2.90054e-17)
(401.288 114.567 -1.79102e-17)
(387.913 95.2813 -2.08776e-17)
(379.967 82.0188 2.46572e-17)
(374.963 72.2495 -2.83097e-17)
(371.459 64.5994 0)
(368.88 58.3007 -3.54664e-17)
(366.9 53.0511 2.79867e-20)
(365.107 48.4328 -2.03044e-20)
(363.429 44.4118 4.71584e-17)
(361.634 40.7491 4.83599e-17)
(359.88 37.4606 5.36547e-17)
(358.196 34.4917 -4.98004e-22)
(356.455 31.7111 2.77437e-20)
(354.854 29.18 2.91405e-20)
(353.171 26.7902 5.99729e-17)
(351.641 24.5777 -1.26396e-16)
(350.051 22.5002 -6.27635e-17)
(348.489 20.5241 -6.5533e-17)
(346.915 18.6778 -6.55754e-17)
(345.297 16.9034 -3.22646e-20)
(343.696 15.2276 0)
(342.037 13.6194 0)
(340.402 12.0833 3.38615e-20)