/*--------------------------------*- C++ -*----------------------------------*\
| =========                 |                                                 |
| \\      /  F ield         | OpenFOAM: The Open Source CFD Toolbox           |
|  \\    /   O peration     | Version:  5.x                                   |
|   \\  /    A nd           | Web:      www.OpenFOAM.org                      |
|    \\/     M anipulation  |                                                 |
\*---------------------------------------------------------------------------*/
FoamFile
{
    version     2.0;
    format      ascii;
    class       volVectorField;
    location    "200";
    object      U;
}
// * * * * * * * * * * * * * * * * * * * * * * * * * * * * * * * * * * * * * //

dimensions      [0 1 -1 0 0 0 0];

internalField   nonuniform List<vector> 
11040
(
(-4.29416 24.4092 0)
(-0.543065 29.8906 -1.55436e-19)
(5.66196 33.1242 1.58497e-17)
(11.4512 32.1803 1.83478e-17)
(15.8736 29.0293 3.8441e-17)
(18.9344 25.013 -1.84836e-17)
(20.8408 20.7782 -1.80519e-17)
(21.7832 16.714 1.80551e-17)
(21.9322 13.0383 3.97249e-17)
(21.3764 9.79379 1.2825e-18)
(19.8083 6.70555 1.76057e-17)
(17.6598 4.22097 -7.82414e-19)
(15.7932 2.7134 1.16271e-17)
(14.4854 1.92934 8.50944e-18)
(13.1901 1.33244 4.45424e-18)
(11.5741 0.76516 6.14481e-19)
(9.64577 0.296705 1.88067e-18)
(7.51268 -0.0280338 6.65084e-19)
(5.1885 -0.219449 -7.90904e-19)
(2.71376 -0.274125 -1.26395e-17)
(0.455195 -0.156628 -1.95751e-17)
(-1.07835 0.0266357 -2.80771e-17)
(-1.90384 0.13889 -5.38381e-17)
(-2.39842 0.220551 -3.44228e-18)
(-2.66729 0.285267 -1.57444e-20)
(-2.79444 0.336763 1.82112e-18)
(-2.85064 0.382692 -1.18678e-16)
(-2.88374 0.429869 1.8641e-18)
(-2.9219 0.478447 -1.21491e-16)
(-2.98224 0.528289 1.16961e-16)
(-3.07558 0.583115 1.80792e-18)
(-3.21052 0.645195 8.62926e-19)
(-3.38845 0.713481 -8.11493e-19)
(-3.59315 0.781391 0)
(-3.77604 0.834956 1.81013e-16)
(-3.84399 0.853317 0)
(-3.69428 0.816018 0)
(-3.32033 0.711569 -3.33032e-19)
(-2.59035 0.455107 4.18438e-19)
(-1.57877 -0.162447 -1.94508e-16)
(-1.59145 -0.987781 -1.71026e-16)
(-0.211322 23.7376 0)
(3.97518 27.8604 0)
(11.5034 29.4521 -9.0406e-18)
(17.9287 28.2657 9.48996e-18)
(22.5605 26.2316 -2.29469e-17)
(25.8131 23.9361 2.33866e-17)
(27.9353 21.3315 1.10976e-17)
(29.0386 18.4679 1.4292e-18)
(29.2654 15.4895 -8.99298e-19)
(28.7715 12.5586 1.1029e-17)
(27.442 9.57802 -1.23091e-18)
(25.1934 7.00698 0)
(22.6361 5.15958 0)
(20.3513 3.87363 -3.94079e-18)
(18.3147 2.8162 -2.46936e-18)
(16.2344 1.95963 -2.46127e-19)
(13.9771 1.30086 0)
(11.4842 0.806864 -2.83233e-19)
(8.72044 0.461835 1.09774e-18)
(5.74145 0.256292 1.1174e-18)
(2.74813 0.172548 6.75458e-18)
(0.46622 0.183717 9.88174e-18)
(-0.87182 0.216592 1.50023e-18)
(-1.72132 0.255834 -2.64444e-17)
(-2.2345 0.298448 2.52428e-17)
(-2.5352 0.342813 1.80678e-18)
(-2.72676 0.390907 6.08849e-17)
(-2.87093 0.442116 -9.86302e-19)
(-3.0011 0.496719 6.5495e-17)
(-3.13764 0.555985 -6.5066e-17)
(-3.28731 0.620599 -6.52448e-17)
(-3.45077 0.690662 6.398e-17)
(-3.61888 0.762775 -1.29281e-21)
(-3.77093 0.829146 -1.2942e-18)
(-3.87033 0.876708 -5.12918e-17)
(-3.86403 0.885501 0)
(-3.70508 0.837271 -3.52991e-19)
(-3.29206 0.722335 8.42702e-17)
(-2.36202 0.514096 8.69025e-17)
(-0.604369 -0.044046 8.14902e-17)
(-0.254596 -1.13848 1.12406e-16)
(1.58114 22.8507 0)
(5.44102 25.9875 0)
(10.7453 27.6188 2.3911e-18)
(15.7223 27.5558 -6.86957e-18)
(19.7598 26.2438 7.13147e-18)
(23.0787 24.214 -8.53625e-18)
(25.7353 21.78 -6.54825e-18)
(27.6689 19.1217 0)
(28.8524 16.3684 -1.00668e-17)
(29.326 13.6302 -5.65483e-18)
(29.0322 10.8386 0)
(27.7975 8.35241 0)
(25.9322 6.42057 -4.05353e-18)
(23.8987 4.95332 -2.79777e-18)
(21.8071 3.70877 -1.2627e-19)
(19.5791 2.69297 1.32365e-19)
(17.1745 1.91187 0)
(14.567 1.33349 0)
(11.6941 0.926151 -2.40786e-19)
(8.52904 0.650433 7.07547e-19)
(5.19282 0.469394 -8.04646e-19)
(2.42941 0.361277 3.89208e-18)
(0.597195 0.29996 -3.30844e-20)
(-0.650929 0.280444 -1.25379e-17)
(-1.44902 0.29153 -1.02381e-18)
(-1.96057 0.322947 -1.11524e-18)
(-2.30381 0.368422 -1.6344e-21)
(-2.5496 0.421854 1.25095e-18)
(-2.74465 0.480581 0)
(-2.91834 0.5434 0)
(-3.08478 0.609356 8.53979e-17)
(-3.25097 0.677694 -8.29314e-17)
(-3.41655 0.74466 3.93612e-17)
(-3.57245 0.803215 0)
(-3.6934 0.842106 3.49718e-17)
(-3.72662 0.83937 3.28827e-17)
(-3.605 0.76146 0)
(-3.24203 0.589044 1.07548e-19)
(-2.374 0.296829 -1.96037e-19)
(-0.616067 -0.373896 0)
(-0.139428 -1.68922 -4.83934e-17)
(3.38974 21.833 9.28219e-20)
(6.99568 24.2914 -9.48368e-20)
(11.1348 25.6705 3.84084e-19)
(15.48 25.8205 0)
(19.2857 24.8383 -7.59865e-18)
(22.3746 23.1703 0)
(24.8197 21.0857 1.46514e-17)
(26.6435 18.7471 6.4273e-21)
(27.8679 16.2934 1.41984e-18)
(28.5439 13.8397 8.76257e-18)
(28.6764 11.3517 1.26338e-18)
(28.1261 9.06956 3.02105e-18)
(27.0033 7.2263 7.191e-18)
(25.5913 5.78613 2.18507e-18)
(23.9735 4.53409 0)
(22.0799 3.46045 5.03014e-20)
(19.8858 2.59503 2.49444e-19)
(17.4015 1.93493 5.60229e-19)
(14.6003 1.45987 3.94794e-19)
(11.4397 1.12335 -4.21212e-19)
(7.94964 0.865937 -2.39558e-18)
(4.81208 0.65124 -3.47541e-18)
(2.46257 0.479677 0)
(0.733266 0.372978 2.2415e-17)
(-0.427961 0.326536 -1.35688e-17)
(-1.19631 0.32508 1.27188e-17)
(-1.7136 0.354054 -2.67236e-17)
(-2.07641 0.400446 0)
(-2.34887 0.456489 0)
(-2.56829 0.518016 0)
(-2.75952 0.583129 -3.04125e-17)
(-2.93953 0.65086 3.09732e-17)
(-3.11757 0.717135 -8.92051e-19)
(-3.29211 0.773512 -2.81574e-17)
(-3.4423 0.806179 -2.46029e-17)
(-3.51669 0.789516 -2.42107e-17)
(-3.44972 0.683309 -4.22388e-17)
(-3.16916 0.461339 -3.71134e-17)
(-2.43882 0.103696 -1.34285e-19)
(-0.878282 -0.603918 -3.13817e-17)
(-0.384526 -2.01275 1.86965e-17)
(5.19594 20.7113 0)
(8.35764 22.6404 1.15232e-19)
(11.6575 23.7757 -1.30488e-19)
(15.2278 24.1265 2.8523e-19)
(18.5646 23.5962 5.67319e-18)
(21.4322 22.3885 -5.43599e-18)
(23.8118 20.6882 -1.82229e-18)
(25.661 18.6414 -6.91987e-18)
(26.9531 16.403 0)
(27.7214 14.1103 -8.07458e-18)
(28.0024 11.7834 0)
(27.7405 9.61387 -1.81985e-18)
(27.0092 7.81901 -3.87176e-18)
(26.0215 6.40691 0)
(24.8707 5.20113 9.22773e-19)
(23.4787 4.15737 0)
(21.7708 3.29524 0)
(19.7176 2.61748 -2.6427e-19)
(17.2781 2.11131 -4.37478e-19)
(14.3925 1.73524 0)
(11.0123 1.4193 1.7876e-18)
(7.71311 1.11213 0)
(4.92901 0.817745 0)
(2.64581 0.582922 -7.46001e-18)
(0.980065 0.437641 0)
(-0.154422 0.373845 1.02237e-17)
(-0.916529 0.366406 2.14266e-17)
(-1.44283 0.392318 0)
(-1.8229 0.437163 0)
(-2.10994 0.492319 0)
(-2.34209 0.553922 2.46821e-17)
(-2.54669 0.620189 2.08819e-17)
(-2.74282 0.686238 -2.16127e-17)
(-2.93755 0.741327 -6.7105e-19)
(-3.11698 0.767987 6.17025e-19)
(-3.23612 0.736777 0)
(-3.23626 0.602488 3.30436e-17)
(-3.0591 0.331595 -2.88925e-17)
(-2.50486 -0.0882285 2.6209e-17)
(-1.23501 -0.809379 2.39316e-17)
(-0.793265 -2.19852 3.17821e-20)
(6.85626 19.5271 -2.09902e-19)
(9.5518 21.0359 -9.90627e-21)
(12.2272 21.9586 5.75045e-19)
(15.1245 22.4012 -6.01963e-20)
(17.9862 22.1887 -7.28107e-19)
(20.5774 21.3821 5.35484e-18)
(22.8296 20.0926 -6.52444e-18)
(24.6734 18.4187 5.6578e-18)
(26.043 16.4844 2.5935e-18)
(26.9298 14.4169 -1.31948e-18)
(27.3515 12.2639 0)
(27.2781 10.1878 0)
(26.7644 8.39774 7.50867e-19)
(25.9878 6.95566 -7.9594e-19)
(25.0808 5.7518 -1.43617e-18)
(24.026 4.73302 -6.811e-20)
(22.757 3.90177 4.40055e-19)
(21.2217 3.25559 1.47673e-19)
(19.3487 2.77655 9.41493e-19)
(17.0328 2.41969 -2.15295e-18)
(14.1241 2.10186 3.28323e-18)
(11.0193 1.7527 -1.79946e-18)
(8.0585 1.36099 1.07553e-18)
(5.2967 0.980138 1.3426e-18)
(3.03187 0.687951 -8.14336e-18)
(1.36853 0.511264 1.18768e-20)
(0.220962 0.431519 -2.02402e-17)
(-0.56427 0.415356 -1.66584e-17)
(-1.11592 0.435353 0)
(-1.51529 0.475488 0)
(-1.8188 0.528388 -1.77418e-17)
(-2.06596 0.590324 -3.85295e-17)
(-2.28705 0.654928 -1.12888e-18)
(-2.50108 0.708708 1.71365e-17)
(-2.70689 0.730146 1.70047e-17)
(-2.87182 0.685792 -1.54888e-17)
(-2.94684 0.525967 4.23472e-19)
(-2.8879 0.21019 4.72422e-17)
(-2.53362 -0.26672 -4.23641e-17)
(-1.60678 -0.99989 7.34059e-20)
(-1.27272 -2.29277 1.37961e-17)
(8.35059 18.318 0)
(10.6143 19.4928 -5.24637e-19)
(12.8013 20.2401 -1.0813e-18)
(15.1436 20.697 -1.93184e-19)
(17.5376 20.6917 9.74137e-20)
(19.8065 20.2051 1.10516e-18)
(21.8701 19.2866 -3.29841e-18)
(23.6496 17.9907 1.36335e-18)
(25.0606 16.403 0)
(26.0633 14.6247 1.68883e-18)
(26.65 12.708 -3.26155e-18)
(26.7825 10.7819 2.98862e-18)
(26.4799 9.0316 -2.75477e-19)
(25.8726 7.55649 0)
(25.1003 6.31758 4.03454e-19)
(24.2089 5.28041 2.2565e-19)
(23.1842 4.44421 -6.755e-20)
(22.0075 3.81073 -4.3218e-19)
(20.6356 3.36628 3.21815e-19)
(18.9739 3.06785 8.25768e-19)
(16.8142 2.81824 -9.17211e-19)
(14.3163 2.51674 -1.29087e-18)
(11.6245 2.11397 0)
(8.7259 1.63075 1.89167e-18)
(5.9674 1.17036 4.59899e-18)
(3.66887 0.820653 -6.96288e-18)
(1.95227 0.607784 5.01737e-18)
(0.744653 0.505443 1.54888e-17)
(-0.0963552 0.473405 -2.11982e-18)
(-0.692507 0.481855 -2.1935e-21)
(-1.12698 0.515414 -1.25177e-17)
(-1.4568 0.566424 -4.06541e-18)
(-1.72589 0.626173 -1.35883e-17)
(-1.96802 0.677927 0)
(-2.19966 0.695522 -1.35131e-17)
(-2.40696 0.641403 1.34058e-17)
(-2.55737 0.461957 -1.19547e-17)
(-2.6238 0.110534 -4.00942e-17)
(-2.4823 -0.412934 1.76111e-17)
(-1.92356 -1.16047 6.1942e-20)
(-1.75079 -2.33349 -2.49468e-17)
(9.67086 17.1151 1.28993e-18)
(11.5579 18.0272 -3.67034e-19)
(13.3541 18.631 -2.66987e-19)
(15.2499 19.0576 8.4483e-19)
(17.2186 19.1697 -5.24551e-19)
(19.1487 18.9183 -1.27476e-18)
(20.9749 18.3102 2.07216e-18)
(22.6258 17.3629 2.21655e-18)
(24.0163 16.1246 -1.72544e-18)
(25.0909 14.6655 0)
(25.8246 13.0306 -1.01e-18)
(26.1673 11.3166 1.30319e-19)
(26.0999 9.67347 -1.1238e-20)
(25.6974 8.21232 5.51948e-19)
(25.0757 6.94846 1.86523e-19)
(24.3078 5.87727 -1.94026e-19)
(23.4182 5.0043 0)
(22.4265 4.33975 0)
(21.3435 3.88362 -1.46021e-18)
(20.149 3.61414 1.29034e-18)
(18.7012 3.44673 -9.11796e-19)
(17.0062 3.26251 9.43411e-19)
(15.0103 2.96771 1.14272e-18)
(12.5377 2.51429 0)
(9.75677 1.96292 1.57792e-18)
(7.00859 1.4278 -1.89417e-18)
(4.63499 1.00903 -4.61774e-18)
(2.803 0.74257 0)
(1.48013 0.602689 0)
(0.542283 0.54441 1.82687e-18)
(-0.128681 0.535759 1.55092e-17)
(-0.618967 0.560322 1.32613e-17)
(-0.990154 0.605552 2.67779e-17)
(-1.29284 0.651437 1.65635e-18)
(-1.5648 0.666636 0)
(-1.81661 0.608259 -6.93711e-19)
(-2.03902 0.418948 1.09419e-17)
(-2.22652 0.0474121 6.63234e-20)
(-2.2956 -0.505268 1.57162e-17)
(-2.10293 -1.26267 1.35388e-17)
(-2.14559 -2.32019 1.14676e-17)
(10.8226 15.9453 -7.7844e-19)
(12.3914 16.6525 -9.38365e-21)
(13.8711 17.1389 9.85295e-19)
(15.4098 17.5149 -1.82746e-18)
(17.0127 17.6801 0)
(18.6186 17.584 -2.44251e-19)
(20.1856 17.2124 8.12597e-19)
(21.6599 16.5598 -1.38271e-18)
(22.9677 15.6443 6.59086e-19)
(24.0521 14.5053 1.10865e-18)
(24.8804 13.1737 4.4287e-20)
(25.3968 11.7162 -2.0562e-18)
(25.5562 10.2443 0)
(25.3839 8.86113 1.01444e-19)
(24.9575 7.61477 -5.7653e-19)
(24.3475 6.52994 8.1979e-20)
(23.5939 5.62146 4.18406e-19)
(22.7316 4.90665 -4.31514e-19)
(21.7997 4.3959 4.18262e-19)
(20.8364 4.08962 0)
(19.8194 3.94129 -1.71197e-18)
(18.7591 3.85242 3.09495e-18)
(17.5386 3.71727 -2.65726e-18)
(15.8905 3.43384 -2.04398e-20)
(13.7322 2.97503 2.20287e-18)
(11.1705 2.39348 -2.53283e-18)
(8.49112 1.7961 0)
(6.03343 1.29225 9.16811e-18)
(4.02885 0.941673 4.40611e-18)
(2.52276 0.738062 2.57221e-18)
(1.43074 0.638713 -1.17399e-17)
(0.641497 0.604766 -3.22886e-18)
(0.0653212 0.6125 3.40856e-18)
(-0.369638 0.638909 -1.61428e-18)
(-0.725744 0.64754 -8.71235e-18)
(-1.04329 0.589602 -1.30614e-18)
(-1.34224 0.403792 0)
(-1.64212 0.0335988 1.7031e-17)
(-1.90366 -0.523472 -1.45531e-17)
(-2.04523 -1.27458 -1.25011e-17)
(-2.34462 -2.23415 0)
(11.8176 14.8298 0)
(13.122 15.3786 0)
(14.3442 15.7686 0)
(15.597 16.0882 5.07495e-18)
(16.8963 16.2659 -2.81616e-18)
(18.2122 16.2615 1.22991e-18)
(19.5234 16.0555 1.05454e-18)
(20.7959 15.6319 -3.4672e-19)
(21.9738 14.9896 -9.44261e-20)
(23.0081 14.1444 3.60018e-19)
(23.8668 13.1113 -3.54253e-19)
(24.4963 11.93 7.60369e-19)
(24.8389 10.6755 -1.23803e-19)
(24.8851 9.43069 3.98613e-19)
(24.6744 8.25565 1.04803e-19)
(24.2584 7.19637 -1.30815e-19)
(23.6768 6.27916 -7.47617e-19)
(22.9653 5.52632 7.7031e-19)
(22.1663 4.95431 -6.88634e-19)
(21.3309 4.57288 0)
(20.5038 4.36818 -2.47728e-18)
(19.7614 4.284 1.7623e-18)
(19.044 4.24071 7.20624e-19)
(18.1389 4.13912 -1.45305e-18)
(16.8716 3.90181 3.17399e-18)
(15.1236 3.49273 0)
(12.9164 2.93591 0)
(10.4355 2.31172 -2.32764e-18)
(7.96725 1.72483 -1.38521e-17)
(5.78039 1.25984 -6.61041e-18)
(4.02252 0.949673 7.74361e-18)
(2.69733 0.776253 2.22539e-18)
(1.72585 0.697898 -1.23442e-17)
(1.01423 0.672384 -2.62187e-18)
(0.474742 0.655942 1.59717e-17)
(0.0330707 0.595214 -2.5833e-18)
(-0.368801 0.424192 -9.47461e-18)
(-0.783228 0.0791719 1.04665e-18)
(-1.21497 -0.452562 1.28867e-17)
(-1.6336 -1.17086 0)
(-2.20001 -2.04531 0)
(12.6711 13.7844 0)
(13.7571 14.2111 0)
(14.7692 14.5225 -2.09179e-19)
(15.7925 14.7871 -3.62201e-18)
(16.8447 14.9551 0)
(17.9131 14.9979 -2.86172e-18)
(18.9906 14.8984 -7.54475e-19)
(20.0588 14.6389 0)
(21.0806 14.2097 7.50626e-19)
(22.0191 13.6118 -8.26644e-19)
(22.8487 12.8481 -2.47703e-19)
(23.5241 11.9366 8.24238e-20)
(23.9872 10.921 -2.22524e-19)
(24.2092 9.8589 0)
(24.1996 8.80634 7.61332e-19)
(23.9864 7.81766 -5.19553e-19)
(23.5993 6.92895 0)
(23.0686 6.16785 0)
(22.4306 5.55536 -6.96426e-19)
(21.7291 5.10416 2.84794e-18)
(21.0167 4.8154 -1.53897e-18)
(20.4015 4.66675 0)
(19.8876 4.60852 2.24879e-18)
(19.3668 4.57543 9.34276e-20)
(18.7337 4.50729 -2.45272e-18)
(17.843 4.34058 1.31102e-18)
(16.5617 4.0271 0)
(14.8363 3.55763 0)
(12.7361 2.97249 -1.7787e-18)
(10.4433 2.34992 8.1081e-18)
(8.1927 1.77805 -4.72983e-18)
(6.19178 1.32427 5.54871e-18)
(4.55864 1.01576 3.18398e-18)
(3.30657 0.837022 0)
(2.37123 0.739038 5.77664e-18)
(1.65821 0.651485 5.68062e-21)
(1.06872 0.494652 1.81031e-17)
(0.506188 0.195097 0)
(-0.0842579 -0.279673 -1.49798e-17)
(-0.721696 -0.935114 1.21702e-17)
(-1.53661 -1.72645 0)
(13.3988 12.8194 0)
(14.3045 13.1521 -2.12189e-18)
(15.1447 13.3997 1.92718e-18)
(15.9834 13.6149 0)
(16.8366 13.7628 2.94312e-18)
(17.7004 13.8247 -9.384e-19)
(18.5755 13.788 -9.74233e-18)
(19.4544 13.638 1.06245e-17)
(20.3144 13.363 -5.6571e-18)
(21.1314 12.9572 -3.44528e-18)
(21.8877 12.417 2.21198e-18)
(22.5499 11.7458 5.25162e-19)
(23.0675 10.9638 -7.06125e-19)
(23.406 10.105 4.57997e-19)
(23.5561 9.21214 -1.09006e-18)
(23.5251 8.33546 8.60774e-19)
(23.3284 7.51435 6.93392e-19)
(22.9873 6.78032 4.23104e-19)
(22.5298 6.15848 1.91478e-18)
(21.99 5.66483 -4.45481e-18)
(21.4089 5.30698 2.56508e-18)
(20.8873 5.08358 1.01567e-19)
(20.4535 4.96024 4.45386e-19)
(20.0604 4.89175 0)
(19.6842 4.85229 -3.00074e-18)
(19.2633 4.80673 9.99728e-19)
(18.6966 4.70822 3.26062e-18)
(17.8668 4.50767 -2.27046e-18)
(16.6826 4.17238 4.90029e-18)
(15.1209 3.70242 -2.65659e-18)
(13.2466 3.13462 0)
(11.1993 2.5319 -4.98566e-18)
(9.1559 1.96383 -1.89505e-18)
(7.28123 1.48636 2.15047e-18)
(5.68392 1.12573 -1.45507e-17)
(4.40179 0.867095 -2.69401e-18)
(3.39195 0.649672 -5.6817e-18)
(2.5422 0.382877 6.00897e-18)
(1.73806 -0.00732647 6.33267e-18)
(0.916342 -0.561147 -1.21972e-17)
(-0.123763 -1.25398 -3.4287e-19)
(14.016 11.9404 0)
(14.7728 12.2008 1.16477e-19)
(15.472 12.397 1.74796e-18)
(16.1616 12.5695 6.32625e-18)
(16.8552 12.6942 -3.76327e-18)
(17.5531 12.7591 2.00432e-18)
(18.2597 12.7563 1.71319e-18)
(18.9732 12.6748 -9.46796e-18)
(19.6815 12.5045 1.72611e-18)
(20.3703 12.2378 3.3652e-18)
(21.0293 11.869 -4.44382e-18)
(21.6361 11.3942 2.70356e-18)
(22.1524 10.8187 1.36315e-18)
(22.5463 10.1584 -3.93115e-19)
(22.801 9.44068 0)
(22.9102 8.70421 0)
(22.8764 7.98417 -3.40753e-18)
(22.7099 7.3116 -7.53334e-19)
(22.4294 6.71333 3.33079e-18)
(22.0597 6.20883 -2.52034e-19)
(21.6307 5.81066 2.72166e-18)
(21.2228 5.53336 -5.40642e-18)
(20.8663 5.35144 2.7888e-18)
(20.5363 5.22286 0)
(20.2378 5.13518 -4.01103e-19)
(19.965 5.07719 3.37943e-18)
(19.6911 5.03265 -4.29324e-18)
(19.3609 4.97463 3.59721e-18)
(18.8944 4.86603 -2.75602e-18)
(18.2048 4.66894 0)
(17.2265 4.35824 2.04352e-18)
(15.9398 3.93202 4.35586e-18)
(14.3822 3.41365 -2.36625e-18)
(12.6418 2.84436 2.59453e-18)
(10.8319 2.27085 1.40849e-18)
(9.07743 1.73545 -3.25535e-18)
(7.47949 1.26055 5.35089e-18)
(6.07048 0.832356 -3.84501e-18)
(4.81911 0.408005 -3.13493e-18)
(3.67835 -0.0753232 -5.68815e-19)
(2.39398 -0.636827 9.10073e-18)
(14.5371 11.149 -1.85512e-18)
(15.1705 11.3535 -6.86309e-18)
(15.7537 11.5085 6.74356e-18)
(16.3226 11.6454 0)
(16.8884 11.7474 -1.99454e-19)
(17.4532 11.8072 0)
(18.0226 11.8202 -1.50995e-17)
(18.598 11.7791 1.21083e-17)
(19.1734 11.676 8.48797e-18)
(19.741 11.5044 -1.00759e-17)
(20.2962 11.259 3.42242e-18)
(20.8253 10.9332 -1.74775e-18)
(21.3017 10.5247 -1.18579e-18)
(21.7008 10.0384 -2.67943e-18)
(22.0055 9.48885 3.17551e-20)
(22.2038 8.90163 2.6771e-18)
(22.2899 8.30304 -2.12758e-18)
(22.265 7.71908 2.93457e-18)
(22.1382 7.17447 0)
(21.9253 6.68962 3.80063e-18)
(21.6468 6.28034 6.85811e-20)
(21.3615 5.97402 -4.1977e-18)
(21.0978 5.75497 3.75452e-20)
(20.8422 5.58312 0)
(20.6014 5.44759 3.30444e-19)
(20.381 5.34093 3.44089e-19)
(20.1832 5.25855 0)
(20.0019 5.1954 0)
(19.8162 5.14089 2.34891e-21)
(19.586 5.07551 0)
(19.2552 4.97198 -2.34252e-18)
(18.7623 4.8015 0)
(18.0567 4.5422 3.35746e-18)
(17.1133 4.18544 -3.52035e-18)
(15.9348 3.7364 0)
(14.5614 3.21507 1.96876e-18)
(13.06 2.64928 -2.12646e-18)
(11.4939 2.06182 1.20896e-18)
(9.90968 1.47349 3.9086e-18)
(8.38401 0.883806 -3.58824e-19)
(6.6994 0.293486 -8.99693e-18)
(14.9756 10.4436 4.92054e-18)
(15.5064 10.6049 1.89954e-19)
(15.9937 10.7271 -2.97948e-18)
(16.4644 10.8347 -5.67236e-18)
(16.9277 10.9163 -1.32451e-17)
(17.3862 10.9675 1.57158e-17)
(17.8457 10.986 -4.09946e-19)
(18.3086 10.9672 -8.99305e-18)
(18.7724 10.9055 1.77079e-17)
(19.2336 10.796 -5.46739e-19)
(19.6907 10.6346 -9.49746e-18)
(20.1363 10.4151 3.39131e-18)
(20.553 10.1323 -6.28439e-18)
(20.9237 9.78534 9.58179e-18)
(21.2349 9.38074 -1.60407e-18)
(21.4746 8.93312 0)
(21.6336 8.4594 -6.57445e-18)
(21.7077 7.97821 5.96044e-18)
(21.6987 7.50907 6.46283e-18)
(21.6145 7.07003 -1.25149e-17)
(21.4668 6.67692 6.88368e-18)
(21.2945 6.36468 -3.64381e-19)
(21.1224 6.12749 -3.11467e-20)
(20.9471 5.93099 -4.32613e-18)
(20.7744 5.7667 8.79999e-18)
(20.6086 5.62707 -4.78901e-18)
(20.4536 5.50657 4.44472e-18)
(20.3131 5.40224 -5.38488e-18)
(20.1888 5.3128 -5.56038e-18)
(20.0776 5.23615 4.98001e-18)
(19.9672 5.16624 1.27389e-18)
(19.8333 5.09091 1.93945e-18)
(19.6406 4.99221 -5.8933e-18)
(19.3484 4.84943 5.33381e-18)
(18.9157 4.64251 -2.74191e-18)
(18.3126 4.35823 -1.44038e-18)
(17.5263 3.99315 0)
(16.5581 3.5492 -1.52848e-18)
(15.4068 3.03924 -1.62288e-18)
(14.156 2.48189 -1.823e-18)
(12.5917 1.87428 1.88202e-18)
(15.3428 9.82043 1.0629e-20)
(15.7881 9.94795 6.85956e-19)
(16.196 10.0439 2.60545e-18)
(16.5867 10.128 -4.91847e-18)
(16.9674 10.1921 1.96062e-17)
(17.3412 10.2337 -1.81142e-17)
(17.7131 10.2521 2.28812e-17)
(18.086 10.2446 1.25968e-17)
(18.459 10.2072 -5.17515e-18)
(18.831 10.1367 -7.81168e-19)
(19.2022 10.0302 -1.56264e-17)
(19.5687 9.88301 2.37499e-19)
(19.9201 9.68953 0)
(20.2452 9.44679 -2.89243e-18)
(20.5349 9.15687 3.02735e-18)
(20.7796 8.82715 -3.19505e-18)
(20.9704 8.46711 0)
(21.1014 8.08834 6.00112e-18)
(21.1703 7.7042 -1.29695e-17)
(21.179 7.32836 4.61732e-18)
(21.1328 6.97387 -6.54187e-18)
(21.053 6.677 7.3523e-18)
(20.9594 6.43917 2.2467e-19)
(20.8555 6.2331 -8.79223e-20)
(20.7469 6.05413 7.57745e-18)
(20.6376 5.89708 -7.63515e-18)
(20.5304 5.75679 2.4506e-19)
(20.4276 5.62886 5.01656e-19)
(20.3313 5.51025 -4.15659e-18)
(20.2441 5.39956 4.70944e-18)
(20.1678 5.29646 -5.27583e-19)
(20.1019 5.20039 5.33959e-19)
(20.0411 5.1088 -2.17984e-18)
(19.9731 5.01573 1.07391e-18)
(19.8782 4.911 4.47586e-18)
(19.7315 4.78195 -1.14595e-18)
(19.5049 4.61578 1.16471e-18)
(19.174 4.40025 -2.3895e-18)
(18.7017 4.12627 1.24838e-18)
(18.1195 3.80043 1.24771e-18)
(17.2588 3.39072 0)
(15.6484 9.27306 -7.51451e-18)
(16.0221 9.37383 1.3787e-17)
(16.3639 9.44901 1.35793e-17)
(16.6888 9.51438 -3.59883e-17)
(17.0029 9.56411 1.3473e-17)
(17.3088 9.59696 -2.94605e-17)
(17.6111 9.61287 2.4649e-17)
(17.9125 9.61033 -3.65853e-17)
(18.213 9.58682 3.52298e-17)
(18.5125 9.54007 -5.44954e-19)
(18.8119 9.46837 -1.505e-17)
(19.1096 9.36825 -1.63364e-18)
(19.3993 9.23515 -1.30047e-17)
(19.6743 9.06587 1.28696e-17)
(19.9287 8.86046 -1.19106e-17)
(20.1558 8.62225 1.32438e-17)
(20.349 8.35588 0)
(20.5026 8.06771 -1.00906e-17)
(20.6128 7.76578 1.23212e-17)
(20.6788 7.45913 -1.11323e-17)
(20.7013 7.15696 -1.9022e-19)
(20.6889 6.89206 1.79806e-17)
(20.6555 6.66972 -8.18309e-20)
(20.608 6.46903 -6.42175e-18)
(20.551 6.28826 -1.21587e-23)
(20.4884 6.12496 0)
(20.4231 5.97619 -6.8324e-18)
(20.3568 5.83873 6.75303e-18)
(20.2908 5.7094 0)
(20.2258 5.58545 -4.39826e-19)
(20.163 5.46494 0)
(20.1037 5.3469 3.68684e-18)
(20.0491 5.23121 -4.15327e-18)
(19.9998 5.11802 -3.77484e-18)
(19.9539 5.00681 7.59568e-18)
(19.9066 4.89622 -4.31076e-18)
(19.8487 4.78326 -4.94417e-19)
(19.7689 4.66308 9.65888e-19)
(19.6446 4.52775 -9.82053e-19)
(19.4759 4.37831 0)
(19.1907 4.18693 -1.06136e-18)
(15.8907 8.81587 0)
(16.2068 8.89635 -1.87114e-17)
(16.4955 8.95605 5.3333e-19)
(16.7685 9.00744 2.57911e-17)
(17.0304 9.0462 1.64396e-17)
(17.2841 9.07184 -1.68094e-17)
(17.5332 9.08477 1.60296e-17)
(17.7801 9.08413 1.57558e-17)
(18.0254 9.06827 3.0723e-17)
(18.2693 9.03564 -3.89511e-17)
(18.5129 8.98514 3.86637e-18)
(18.7556 8.91425 3.68521e-18)
(18.9936 8.81948 -1.354e-17)
(19.2227 8.69809 9.95339e-18)
(19.4396 8.54954 1.44322e-17)
(19.6399 8.37519 -1.10822e-17)
(19.8188 8.17715 -1.37035e-17)
(19.9719 7.95864 1.37853e-17)
(20.0957 7.72418 0)
(20.1883 7.47926 1.54413e-18)
(20.2486 7.22976 1.53704e-18)
(20.2772 7.00299 1.21835e-17)
(20.2833 6.80552 -2.43845e-17)
(20.2744 6.62137 1.24703e-17)
(20.2539 6.45032 6.29438e-18)
(20.2247 6.29159 -1.29909e-19)
(20.1896 6.14392 -6.39917e-18)
(20.1504 6.0057 1.0005e-19)
(20.1082 5.87508 6.56702e-21)
(20.0638 5.75011 6.67485e-18)
(20.0173 5.62889 -6.7406e-18)
(19.9689 5.50979 -3.44459e-18)
(19.9186 5.39162 3.67005e-18)
(19.8668 5.27376 -3.52454e-18)
(19.8138 5.15601 3.07753e-18)
(19.76 5.03922 2.69862e-18)
(19.7053 4.92467 -1.35926e-18)
(19.6484 4.81328 4.65632e-19)
(19.5854 4.705 0)
(19.5138 4.60305 0)
(19.4225 4.49988 -2.59231e-20)
(16.0762 8.45044 -8.40519e-18)
(16.3475 8.51596 9.43277e-18)
(16.5953 8.56413 -4.08052e-18)
(16.8285 8.60494 -8.00506e-18)
(17.051 8.63511 0)
(17.2654 8.6547 1.57807e-17)
(17.4747 8.66432 -3.8713e-17)
(17.6812 8.66351 2.37684e-17)
(17.8855 8.65118 -7.80885e-18)
(18.0879 8.62629 7.46523e-18)
(18.2896 8.58818 -3.69882e-18)
(18.4905 8.53504 -3.26651e-17)
(18.6881 8.46418 5.63616e-17)
(18.8799 8.3734 -2.41724e-17)
(19.0637 8.26199 -3.17578e-18)
(19.2367 8.13042 -1.27574e-17)
(19.3958 7.97953 3.92241e-17)
(19.5375 7.81087 -1.7152e-17)
(19.6592 7.62691 -2.6127e-17)
(19.7588 7.43087 1.07472e-17)
(19.8346 7.22633 -3.01112e-18)
(19.8835 7.03535 0)
(19.9112 6.86437 0)
(19.9249 6.70104 -1.22929e-17)
(19.9267 6.54581 1.23014e-17)
(19.9188 6.39871 1.90194e-19)
(19.9032 6.25939 0)
(19.8816 6.12723 6.36905e-18)
(19.855 6.00135 -6.37909e-18)
(19.8244 5.8808 4.95974e-20)
(19.79 5.76454 -5.17497e-20)
(19.752 5.65155 0)
(19.7102 5.54091 3.16142e-18)
(19.6643 5.4318 -3.33997e-18)
(19.614 5.32346 4.16799e-19)
(19.559 5.21593 -4.21165e-19)
(19.4995 5.10988 0)
(19.4355 5.00593 -4.30439e-19)
(19.3676 4.90533 -8.89209e-19)
(19.2956 4.81082 4.3883e-19)
(19.2222 4.72287 1.32742e-18)
(16.2213 8.15446 0)
(16.4572 8.20855 0)
(16.6725 8.24783 -1.51697e-17)
(16.8744 8.28048 -3.00191e-17)
(17.0662 8.30397 4.58661e-17)
(17.2502 8.31867 -3.74918e-17)
(17.4291 8.32528 -1.46802e-17)
(17.6047 8.3236 3.04094e-17)
(17.7776 8.31286 -2.99938e-17)
(17.9485 8.29235 3.02506e-17)
(18.1182 8.26168 0)
(18.2869 8.21953 0)
(18.453 8.16389 2.81722e-17)
(18.6148 8.09302 -5.49183e-17)
(18.7709 8.00628 5.333e-17)
(18.9196 7.90376 -2.61919e-17)
(19.0586 7.78569 -3.25564e-18)
(19.1855 7.65277 2.97309e-17)
(19.2982 7.50625 -2.02228e-17)
(19.395 7.348 0)
(19.474 7.18009 1.47654e-18)
(19.5306 7.02014 0)
(19.5685 6.87393 -1.29108e-17)
(19.5939 6.73175 2.50706e-17)
(19.6082 6.5943 -1.21619e-17)
(19.6128 6.46201 0)
(19.6092 6.33502 0)
(19.5987 6.2132 5.82085e-18)
(19.5823 6.09628 -6.21057e-18)
(19.5606 5.98385 -6.29811e-18)
(19.5343 5.87549 6.34158e-18)
(19.5036 5.77077 6.38799e-18)
(19.4687 5.66928 -6.40623e-18)
(19.4295 5.57063 0)
(19.3859 5.47433 -5.14223e-20)
(19.3375 5.38033 0)
(19.2842 5.28886 -1.30496e-20)
(19.2258 5.19981 -5.25805e-20)
(19.1623 5.11361 1.79469e-18)
(19.094 5.03139 -2.53822e-18)
(19.0224 4.95347 8.37731e-19)
(16.3371 7.91007 0)
(16.544 7.95517 -1.77795e-18)
(16.7329 7.98746 0)
(16.9096 8.01369 1.42064e-17)
(17.0769 8.03189 -1.42516e-17)
(17.2367 8.04261 0)
(17.3914 8.04661 1.43324e-17)
(17.5427 8.04379 1.41744e-17)
(17.6912 8.03365 -3.67698e-17)
(17.8374 8.01568 0)
(17.982 7.98963 2.89887e-17)
(18.1255 7.95458 -5.83656e-17)
(18.2665 7.90896 2.84464e-17)
(18.4041 7.85147 0)
(18.5373 7.78156 -2.64291e-17)
(18.665 7.69918 2.94136e-17)
(18.7855 7.60432 2.84725e-17)
(18.8972 7.49723 -3.14402e-17)
(18.9985 7.37857 -3.0235e-18)
(19.0879 7.24936 0)
(19.1637 7.11078 0)
(19.2212 6.9769 -1.53964e-18)
(19.2626 6.85264 7.3393e-19)
(19.2932 6.73025 1.2041e-17)
(19.3137 6.61047 7.9905e-19)
(19.3253 6.49388 -1.20087e-17)
(19.3289 6.38082 1.20928e-17)
(19.3254 6.27148 -1.17032e-17)
(19.3158 6.16586 -6.86468e-18)
(19.3005 6.06392 6.08453e-18)
(19.2801 5.96554 -6.15169e-18)
(19.255 5.87058 6.14043e-18)
(19.2256 5.77896 0)
(19.192 5.69054 -6.64347e-18)
(19.1542 5.60512 6.28299e-18)
(19.1124 5.52278 0)
(19.0665 5.44377 1.22224e-20)
(19.0166 5.36792 1.64776e-18)
(18.9626 5.29536 -1.69346e-18)
(18.9047 5.22656 7.58406e-19)
(18.8433 5.16134 -7.92827e-19)
(16.431 7.70513 0)
(16.6139 7.743 1.63744e-18)
(16.7809 7.76966 -1.32896e-17)
(16.9368 7.79076 2.65076e-17)
(17.0839 7.80473 -5.39842e-17)
(17.224 7.81221 2.74528e-17)
(17.3592 7.81398 0)
(17.4909 7.81004 1.37571e-17)
(17.6197 7.80002 8.3404e-17)
(17.746 7.78358 -5.65113e-17)
(17.8707 7.76055 0)
(17.9938 7.73026 -7.14605e-18)
(18.1147 7.69154 2.06468e-17)
(18.2325 7.64336 -2.8598e-19)
(18.3467 7.5853 -2.63622e-17)
(18.4565 7.51727 2.88791e-17)
(18.5607 7.43917 -2.52843e-17)
(18.6581 7.35107 2.46198e-17)
(18.7475 7.25329 -2.45792e-17)
(18.8277 7.14642 -2.42302e-17)
(18.8975 7.03111 2.09495e-17)
(18.9521 6.91868 -1.04658e-17)
(18.9931 6.8132 1.33239e-17)
(19.0249 6.70843 -1.25275e-17)
(19.0479 6.60504 -2.24014e-18)
(19.0628 6.50361 1.17692e-17)
(19.0704 6.40457 0)
(19.0713 6.30822 0)
(19.0663 6.21475 -1.1135e-17)
(19.0557 6.12425 1.18359e-17)
(19.0401 6.03678 0)
(19.0199 5.95239 7.54254e-19)
(18.9954 5.8711 7.56365e-19)
(18.9668 5.79292 6.39765e-18)
(18.9345 5.71774 -6.38838e-18)
(18.8985 5.64572 -3.03549e-18)
(18.8593 5.5771 3.02629e-18)
(18.8167 5.51176 -1.14514e-18)
(18.7711 5.44979 3.05888e-18)
(18.7227 5.39151 -1.48189e-18)
(18.6717 5.33683 -1.90051e-19)
(16.5081 7.53105 1.19269e-17)
(16.6708 7.56302 1.48688e-17)
(16.8193 7.58509 -1.72911e-19)
(16.9577 7.60203 0)
(17.088 7.61256 0)
(17.2117 7.61741 0)
(17.3308 7.61732 0)
(17.4463 7.61234 -5.25147e-17)
(17.559 7.60223 9.34904e-17)
(17.6691 7.58674 -5.41206e-17)
(17.7774 7.56578 5.40154e-17)
(17.8839 7.53884 -3.43353e-17)
(17.9883 7.50504 6.08479e-17)
(18.0898 7.46359 -7.25586e-17)
(18.1882 7.41416 2.57794e-17)
(18.2828 7.35667 1.88348e-17)
(18.3728 7.29102 -2.47649e-17)
(18.4573 7.21718 2.99391e-18)
(18.5354 7.13533 -3.0411e-18)
(18.6062 7.04581 2.98087e-17)
(18.6686 6.94898 2.63143e-17)
(18.7185 6.85404 -4.38374e-17)
(18.757 6.76434 -1.42399e-18)
(18.7877 6.67478 0)
(18.8107 6.58594 1.41696e-18)
(18.8267 6.49835 -1.45438e-18)
(18.8362 6.41246 -1.00541e-17)
(18.8397 6.32858 1.14754e-17)
(18.8376 6.24698 -1.15205e-17)
(18.8305 6.16781 1.14875e-17)
(18.8187 6.09123 1.15505e-17)
(18.8026 6.01734 -1.22275e-17)
(18.7825 5.94624 -7.14217e-19)
(18.7587 5.87798 5.80723e-18)
(18.7315 5.81251 -4.69564e-18)
(18.7012 5.74998 0)
(18.6679 5.69059 0)
(18.632 5.63424 -3.61571e-19)
(18.5936 5.58098 7.35888e-19)
(18.5531 5.53103 7.36866e-19)
(18.5105 5.48448 1.7827e-19)
(16.5722 7.38157 0)
(16.7175 7.40867 -2.78868e-18)
(16.8502 7.42695 2.27183e-17)
(16.9738 7.44048 -2.33701e-17)
(17.0897 7.44821 -4.71992e-17)
(17.1996 7.45091 4.86515e-17)
(17.3051 7.44927 2.43051e-17)
(17.4072 7.4434 -5.03074e-17)
(17.5063 7.43312 -5.05365e-17)
(17.603 7.41828 5.16015e-17)
(17.6976 7.39881 0)
(17.7905 7.37434 -2.61261e-17)
(17.8811 7.3442 5.22943e-17)
(17.9691 7.30779 -5.77753e-17)
(18.0542 7.26488 0)
(18.1359 7.21538 -6.1632e-18)
(18.2137 7.15922 6.06114e-18)
(18.2868 7.09636 0)
(18.3546 7.0269 2.89053e-18)
(18.4164 6.95105 -5.72832e-18)
(18.4713 6.86903 2.58041e-17)
(18.5158 6.78836 -2.5598e-17)
(18.5507 6.71183 2.84804e-18)
(18.579 6.6352 2.10437e-17)
(18.6008 6.55897 -2.09695e-17)
(18.6164 6.48363 1.37834e-18)
(18.6264 6.40955 -1.25434e-17)
(18.6311 6.33707 1.11311e-17)
(18.6309 6.26644 1.40569e-18)
(18.6261 6.19786 0)
(18.6172 6.13148 0)
(18.6045 6.06744 0)
(18.5881 6.00586 -5.58356e-18)
(18.5686 5.94682 5.56303e-18)
(18.546 5.89027 -6.90622e-19)
(18.5207 5.83636 -5.59415e-18)
(18.493 5.78525 6.27423e-18)
(18.463 5.73682 0)
(18.4309 5.69112 9.34923e-21)
(18.3972 5.64828 -1.39471e-18)
(18.3617 5.60846 6.81177e-19)
(16.6258 7.25205 1.01201e-17)
(16.7561 7.27507 0)
(16.8752 7.2902 -5.26065e-17)
(16.9859 7.30092 4.34777e-17)
(17.0896 7.30636 0)
(17.1877 7.30729 4.5223e-17)
(17.2816 7.30439 -2.20305e-19)
(17.3722 7.29777 4.71289e-17)
(17.4599 7.28733 -7.24921e-17)
(17.5452 7.27296 -4.86436e-17)
(17.6284 7.25464 4.96496e-17)
(17.7097 7.23208 1.23904e-17)
(17.7888 7.20479 0)
(17.8654 7.1723 0)
(17.9393 7.13446 -1.2153e-17)
(18.01 7.09121 5.30197e-17)
(18.0773 7.04249 -1.04643e-16)
(18.1405 6.98829 4.59967e-17)
(18.1991 6.92865 5.72369e-18)
(18.2527 6.86377 5.67701e-18)
(18.3004 6.79374 -2.74885e-18)
(18.3395 6.72481 4.13317e-17)
(18.3705 6.65925 -7.10136e-17)
(18.3959 6.59356 1.34291e-18)
(18.4157 6.52816 2.03354e-17)
(18.4302 6.46343 0)