/*--------------------------------*- C++ -*----------------------------------*\
| =========                 |                                                 |
| \\      /  F ield         | OpenFOAM: The Open Source CFD Toolbox           |
|  \\    /   O peration     | Version:  5.x                                   |
|   \\  /    A nd           | Web:      www.OpenFOAM.org                      |
|    \\/     M anipulation  |                                                 |
\*---------------------------------------------------------------------------*/
FoamFile
{
    version     2.0;
    format      ascii;
    class       volVectorField;
    location    "200";
    object      U;
}
// * * * * * * * * * * * * * * * * * * * * * * * * * * * * * * * * * * * * * //

dimensions      [0 1 -1 0 0 0 0];

internalField   nonuniform List<vector> 
11040
(
(-3.96426 18.7674 0)
(-0.152673 2.84524 -4.72971e-18)
(-3.85554 -4.33732 0)
(-4.05732 -2.57502 3.14969e-17)
(-3.74476 -2.04597 3.68577e-17)
(-3.42161 -1.53254 4.65036e-17)
(-3.16589 -1.21159 -1.06079e-16)
(-2.94533 -0.968794 -5.1645e-17)
(-2.76389 -0.780464 5.92589e-17)
(-2.62185 -0.6335 6.1872e-17)
(-2.51339 -0.514914 0)
(-2.43929 -0.417635 -6.37278e-17)
(-2.39861 -0.335939 6.69606e-17)
(-2.38992 -0.265866 5.35079e-17)
(-2.41306 -0.203001 7.25161e-18)
(-2.47618 -0.145756 -5.77861e-17)
(-2.5787 -0.0912087 2.51709e-17)
(-2.71978 -0.0366882 -2.3038e-17)
(-2.89634 0.0199309 7.86354e-18)
(-3.10209 0.079601 4.75063e-18)
(-3.31704 0.142805 8.46019e-18)
(-3.50563 0.201386 1.39799e-17)
(-3.6503 0.248444 -1.5093e-17)
(-3.74358 0.286416 -2.33277e-20)
(-3.74476 0.314005 -2.77168e-17)
(-3.60712 0.326333 8.40175e-19)
(-3.33113 0.322955 -8.29685e-19)
(-2.91141 0.29938 -8.21538e-19)
(-2.33169 0.250705 8.75707e-19)
(-1.57794 0.173081 -2.99194e-17)
(-0.642166 0.0691771 0)
(0.464005 -0.0555423 -6.39645e-17)
(1.71179 -0.201777 0)
(3.12803 -0.385177 1.64344e-19)
(4.75212 -0.636915 -1.63228e-17)
(6.54962 -0.944139 6.62737e-18)
(8.48143 -1.33033 -2.20877e-20)
(10.3651 -1.73746 8.39669e-18)
(12.2173 -2.18623 1.42325e-17)
(13.1985 -2.42399 0)
(13.09 -3.44864 -4.75522e-17)
(-1.33118 23.4552 1.28117e-19)
(1.73828 14.5698 5.40609e-19)
(-0.666075 2.27393 6.27249e-19)
(-3.42915 -2.50038 -1.23906e-18)
(-3.86286 -2.32679 0)
(-3.70772 -1.80846 3.05914e-18)
(-3.50215 -1.41958 -3.50484e-18)
(-3.32207 -1.16094 0)
(-3.16958 -0.961088 0)
(-3.05351 -0.806607 0)
(-2.97392 -0.684282 4.44884e-18)
(-2.93294 -0.583601 -4.39178e-18)
(-2.93267 -0.497818 4.25253e-18)
(-2.9731 -0.422805 -3.62241e-17)
(-3.05306 -0.353026 -1.87495e-17)
(-3.17029 -0.286738 3.46309e-18)
(-3.32412 -0.221205 -1.27339e-17)
(-3.51227 -0.1539 1.30704e-17)
(-3.72888 -0.0825152 -1.33373e-18)
(-3.96321 -0.00612201 -1.869e-20)
(-4.19343 0.0769044 9.13531e-21)
(-4.38564 0.155304 0)
(-4.51818 0.216894 7.83155e-18)
(-4.58128 0.265189 3.07701e-17)
(-4.55471 0.299297 -9.251e-19)
(-4.43221 0.317717 -1.41816e-17)
(-4.18079 0.315805 1.6361e-20)
(-3.78736 0.287813 1.24283e-17)
(-3.24178 0.229704 1.19729e-17)
(-2.5292 0.136341 -3.44764e-19)
(-1.6334 0.00667342 -1.051e-17)
(-0.546743 -0.160992 -2.08509e-17)
(0.727481 -0.364124 -2.61199e-19)
(2.16561 -0.6176 2.61298e-17)
(3.80129 -0.941233 -7.95173e-18)
(5.5936 -1.32688 -3.41663e-18)
(7.54876 -1.75866 6.51894e-19)
(9.44458 -2.1837 -9.08127e-18)
(11.3639 -2.59933 0)
(12.4589 -2.68723 0)
(13.3987 -2.61678 -4.21953e-19)
(-0.788464 21.7595 0)
(2.27062 20.5343 -5.87513e-18)
(2.3329 11.8916 -4.82989e-18)
(-0.492772 2.32724 2.17576e-18)
(-3.02627 -1.76862 1.44357e-17)
(-3.61364 -1.97904 -1.9039e-17)
(-3.60983 -1.60867 2.08449e-17)
(-3.51153 -1.31183 5.21635e-18)
(-3.41785 -1.08766 -5.72842e-18)
(-3.34668 -0.910041 -3.02103e-17)
(-3.30463 -0.76725 6.13515e-18)
(-3.29696 -0.647885 0)
(-3.32799 -0.54519 2.35365e-17)
(-3.39715 -0.455432 2.20687e-17)
(-3.50257 -0.371605 1.02405e-17)
(-3.64365 -0.291837 9.45857e-18)
(-3.81848 -0.213319 0)
(-4.02374 -0.133731 0)
(-4.25319 -0.0513753 -1.78699e-18)
(-4.49636 0.0339101 1.64618e-18)
(-4.73355 0.123716 6.62757e-21)
(-4.93219 0.206504 5.54843e-18)
(-5.06921 0.268101 1.28356e-18)
(-5.13962 0.312647 -1.09864e-17)
(-5.12651 0.339559 9.21874e-18)
(-5.01579 0.346452 0)
(-4.78081 0.330357 -7.88649e-18)
(-4.40766 0.286425 -7.36421e-18)
(-3.88605 0.210734 -7.3441e-18)
(-3.20232 0.096797 8.1026e-19)
(-2.34221 -0.0574686 5.6988e-18)
(-1.2942 -0.253765 2.24837e-17)
(-0.0465867 -0.488524 -1.00594e-17)
(1.37824 -0.770472 -2.61803e-20)
(2.98417 -1.11091 4.84439e-18)
(4.73237 -1.50299 -2.13902e-18)
(6.63941 -1.92572 -8.11493e-19)
(8.48415 -2.31801 2.59147e-20)
(10.3858 -2.66167 0)
(11.4738 -2.60444 -7.85365e-18)
(12.7281 -2.46097 9.48315e-18)
(-0.579142 20.0118 0)
(1.71933 21.6517 3.15057e-18)
(3.455 18.4973 3.12038e-18)
(2.58209 10.3818 -4.63051e-18)
(-0.326256 2.28727 -7.65681e-18)
(-2.68713 -1.26116 0)
(-3.37457 -1.63483 1.05378e-17)
(-3.49846 -1.41805 3.64149e-18)
(-3.49864 -1.18869 2.04181e-17)
(-3.48865 -0.999678 1.75549e-17)
(-3.49452 -0.843718 -4.54905e-18)
(-3.52569 -0.709327 1.37845e-17)
(-3.58914 -0.590727 -1.32293e-17)
(-3.68522 -0.485801 3.4279e-20)
(-3.8133 -0.387495 3.84107e-18)
(-3.97309 -0.293899 -1.07048e-17)
(-4.16219 -0.202662 0)
(-4.37691 -0.111618 0)
(-4.6112 -0.0199249 0)
(-4.8554 0.0719854 -1.19163e-18)
(-5.0925 0.164644 -3.20504e-18)
(-5.29251 0.246251 -4.0128e-18)
(-5.43264 0.304106 -2.81789e-18)
(-5.50903 0.341608 -7.86129e-18)
(-5.50664 0.357988 0)
(-5.41177 0.350798 0)
(-5.19997 0.31721 5.55355e-18)
(-4.85485 0.252982 0)
(-4.36588 0.154145 0)
(-3.7201 0.0141668 0)
(-2.90398 -0.169224 -4.10786e-18)
(-1.90543 -0.397293 -1.49784e-17)
(-0.710935 -0.666578 6.63998e-18)
(0.67322 -0.982109 -5.20847e-18)
(2.23438 -1.34491 3.40879e-18)
(3.92096 -1.7492 1.5213e-18)
(5.75414 -2.16659 -1.16186e-20)
(7.52307 -2.53726 2.11135e-18)
(9.37273 -2.80595 -3.85821e-18)
(10.4202 -2.63727 5.63214e-18)
(11.9312 -2.29816 2.57072e-20)
(0.415523 19.0117 0)
(1.77284 20.6427 -7.71246e-19)
(3.46177 21.0119 7.29603e-19)
(4.25493 17.1163 9.25447e-18)
(2.86302 9.63992 -5.49774e-18)
(-0.02783 2.51268 0)
(-2.31497 -0.779653 -1.14826e-17)
(-3.12393 -1.31499 1.14688e-17)
(-3.37066 -1.2123 -1.2072e-17)
(-3.46168 -1.03623 0)
(-3.5275 -0.878545 0)
(-3.6036 -0.737819 -1.41903e-17)
(-3.7018 -0.609048 0)
(-3.82518 -0.493666 -1.29679e-17)
(-3.97426 -0.385034 0)
(-4.14988 -0.28127 5.57946e-18)
(-4.34979 -0.181 0)
(-4.57083 -0.0821283 -4.64398e-18)
(-4.80798 0.0153289 0)
(-5.05305 0.110733 0)
(-5.29185 0.203451 1.65047e-18)
(-5.49687 0.281383 -1.56766e-18)
(-5.64551 0.333105 4.27462e-18)
(-5.73346 0.361377 4.01008e-18)
(-5.74683 0.364823 -3.74931e-18)
(-5.67333 0.340666 -4.62233e-18)
(-5.49145 0.285898 0)
(-5.18229 0.196947 -4.81957e-19)
(-4.73499 0.0702134 -2.70581e-18)
(-4.13722 -0.100543 -8.32078e-19)
(-3.37616 -0.317986 3.45792e-18)
(-2.44021 -0.583206 8.28719e-18)
(-1.31725 -0.892859 -1.39431e-19)
(-0.00222595 -1.24812 1.33069e-19)
(1.48834 -1.63998 -2.65008e-18)
(3.0919 -2.06064 0)
(4.82492 -2.47136 2.26104e-19)
(6.49611 -2.82136 -1.61887e-18)
(8.26418 -3.00483 -4.08237e-20)
(9.26436 -2.7421 -2.90834e-20)
(10.9797 -2.14308 5.59581e-18)
(1.37809 18.2974 5.57175e-19)
(2.4196 19.4568 -4.4168e-19)
(3.5013 20.804 2.71281e-18)
(4.71573 20.4092 -6.16285e-18)
(4.93828 16.3807 5.6534e-18)
(3.3001 9.54805 1.00786e-19)
(0.455624 3.05074 -9.0524e-20)
(-1.86349 -0.275007 -2.25673e-17)
(-2.83796 -0.989953 -9.61702e-18)
(-3.2061 -0.982219 -1.01262e-17)
(-3.37955 -0.85379 0)
(-3.51078 -0.720455 0)
(-3.64729 -0.589173 0)
(-3.80041 -0.468661 5.14406e-18)
(-3.97141 -0.354228 -4.85986e-18)
(-4.16339 -0.244233 0)
(-4.37514 -0.138857 4.07046e-18)
(-4.60471 -0.035817 3.65108e-18)
(-4.84848 0.0639381 -3.3685e-18)
(-5.09985 0.159669 0)
(-5.34707 0.249379 -6.62419e-19)
(-5.56429 0.321005 3.67787e-18)
(-5.72866 0.363995 -5.72794e-18)
(-5.83525 0.380235 1.05095e-18)
(-5.87145 0.367907 6.98255e-18)
(-5.82646 0.323804 2.78343e-18)
(-5.68283 0.244499 4.23755e-18)
(-5.41979 0.126616 0)
(-5.02587 -0.0328019 2.86289e-18)
(-4.48958 -0.239337 0)
(-3.79896 -0.496093 2.09962e-18)
(-2.94336 -0.803907 -3.76218e-18)
(-1.91289 -1.15931 -3.9383e-18)
(-0.700427 -1.55894 2.80603e-18)
(0.684687 -1.98644 -1.878e-18)
(2.17967 -2.42589 8.97316e-19)
(3.78223 -2.82705 2.70467e-19)
(5.33075 -3.15303 1.32776e-18)
(6.98422 -3.24357 2.4633e-18)
(7.93013 -2.90726 -3.76663e-18)
(9.7816 -2.03074 -4.50941e-18)
(2.24786 17.619 0)
(3.17614 18.5884 1.80677e-18)
(3.94537 19.7208 -1.04051e-18)
(4.87331 20.7328 1.22178e-18)
(5.75148 19.9908 1.01172e-18)
(5.65115 16.1838 2.40488e-19)
(3.93856 9.99219 2.6239e-18)
(1.15266 3.89671 8.39251e-18)
(-1.28376 0.338163 6.95296e-18)
(-2.47769 -0.625405 8.13231e-18)
(-2.987 -0.728635 -8.24986e-18)
(-3.23678 -0.64256 1.69851e-17)
(-3.42415 -0.52255 8.44977e-18)
(-3.61058 -0.405085 -2.47798e-17)
(-3.80556 -0.290991 7.818e-18)
(-4.01629 -0.179031 -1.46496e-17)
(-4.24318 -0.0723842 6.72163e-18)
(-4.48553 0.0314618 0)
(-4.74121 0.130552 -3.30688e-20)
(-5.00498 0.223776 -2.47595e-18)
(-5.26747 0.30785 -1.60513e-18)
(-5.50419 0.37082 1.03584e-18)
(-5.69203 0.402711 3.72317e-18)
(-5.82557 0.404535 -1.76892e-18)
(-5.89349 0.373894 -6.54796e-18)
(-5.8861 0.307275 -2.30219e-18)
(-5.79091 0.200698 -6.26393e-18)
(-5.58672 0.0503662 3.16797e-18)
(-5.26115 -0.145979 -5.91338e-19)
(-4.80375 -0.392864 2.12894e-18)
(-4.20372 -0.693517 -3.87427e-18)
(-3.45174 -1.04836 2.14367e-18)
(-2.54039 -1.45321 2.59107e-18)
(-1.46409 -1.90023 -2.38085e-18)
(-0.22841 -2.36726 3.26585e-18)
(1.11605 -2.8263 -4.77465e-20)
(2.55084 -3.21882 -2.06506e-19)
(3.94505 -3.51583 5.45401e-20)
(5.43921 -3.51301 -5.14584e-20)
(6.31562 -3.11777 -8.69071e-20)
(8.21319 -1.97719 4.18001e-18)
(3.12763 16.9609 4.52049e-19)
(3.91729 17.8636 -4.39124e-18)
(4.59725 18.7338 3.60427e-18)
(5.2649 19.7687 -2.15777e-18)
(6.06061 20.5478 -5.51776e-18)
(6.70537 19.771 -3.36832e-18)
(6.45484 16.4002 -3.33243e-18)
(4.7875 10.8601 -4.32999e-18)
(2.07641 5.05796 -3.14202e-18)
(-0.51202 1.15573 5.43695e-18)
(-1.99436 -0.182131 6.97391e-18)
(-2.68115 -0.43576 -6.75479e-18)
(-3.02115 -0.39125 0)
(-3.26399 -0.293048 6.62815e-18)
(-3.48711 -0.188841 6.3773e-18)
(-3.71777 -0.0797076 5.99204e-18)
(-3.96155 0.0246075 -1.1062e-17)
(-4.21922 0.126319 2.56338e-18)
(-4.49055 0.222174 4.52961e-18)
(-4.77165 0.310516 -8.21234e-18)
(-5.05546 0.386759 3.80556e-18)
(-5.31862 0.439123 -8.28849e-19)
(-5.53792 0.457975 1.58934e-18)
(-5.70766 0.443367 1.4368e-18)
(-5.81775 0.392372 1.33867e-18)
(-5.85914 0.301236 3.85769e-18)
(-5.82388 0.165573 6.98554e-18)
(-5.69344 -0.0193244 -3.19705e-18)
(-5.45434 -0.255573 9.82426e-19)
(-5.09711 -0.546164 -1.30194e-18)
(-4.61263 -0.893859 4.22649e-19)
(-3.99342 -1.29823 -3.34018e-19)
(-3.23469 -1.75364 -1.14742e-18)
(-2.33387 -2.24778 2.58528e-19)
(-1.2992 -2.75285 -1.30615e-18)
(-0.163991 -3.22954 -5.92048e-19)
(1.05168 -3.61617 -2.49606e-19)
(2.24869 -3.87353 0)
(3.51529 -3.78382 0)
(4.27604 -3.33135 5.95625e-18)
(6.08253 -1.96354 -7.81591e-18)
(4.00413 16.3392 -3.70529e-19)
(4.66196 17.1659 0)
(5.26648 17.9348 0)
(5.84233 18.7268 0)
(6.45094 19.646 6.3488e-18)
(7.13611 20.3093 2.7312e-18)
(7.63965 19.6916 0)
(7.36126 16.8869 2.64141e-18)
(5.82809 12.042 -3.49045e-18)
(3.24083 6.5505 -4.88912e-18)
(0.528982 2.30772 4.088e-18)
(-1.32885 0.386084 0)
(-2.25447 -0.0816682 -5.70407e-18)
(-2.72319 -0.103406 -1.09464e-17)
(-3.02271 -0.0354908 6.62578e-20)
(-3.28191 0.0603996 1.00484e-17)
(-3.54338 0.157283 0)
(-3.81532 0.2548 -2.11225e-18)
(-4.10174 0.346411 5.83672e-18)
(-4.40112 0.428897 -3.44128e-18)
(-4.70929 0.496268 3.03378e-18)
(-5.00395 0.537012 2.83473e-18)
(-5.2618 0.541575 -2.68526e-18)
(-5.4769 0.509227 0)
(-5.64031 0.436583 0)
(-5.74344 0.319773 -2.18171e-18)
(-5.78045 0.15435 -5.94816e-18)
(-5.73971 -0.0650889 0)
(-5.6072 -0.341523 -2.42218e-18)
(-5.3744 -0.676617 7.49966e-19)
(-5.03436 -1.07162 6.90388e-19)
(-4.58218 -1.52461 1.15093e-18)
(-4.01602 -2.02748 2.46052e-19)
(-3.33695 -2.56332 8.03297e-19)
(-2.55679 -3.09808 1.52224e-19)
(-1.70051 -3.58177 -4.23518e-19)
(-0.78264 -3.9543 1.58746e-19)
(0.138246 -4.15665 3.7255e-20)
(1.06988 -3.9902 -1.81699e-18)
(1.62908 -3.43387 -2.93174e-18)
(3.10978 -1.84369 7.8659e-18)
(4.8583 15.753 0)
(5.41974 16.4929 0)
(5.93545 17.201 4.18306e-18)
(6.4494 17.8741 -7.41554e-18)
(6.97306 18.5818 3.37454e-18)
(7.53454 19.3945 -2.67149e-18)
(8.13917 20.0218 2.39437e-18)
(8.57252 19.6634 -2.46922e-18)
(8.35019 17.4989 2.44365e-18)
(7.02906 13.4265 7.95169e-18)
(4.65101 8.36975 -3.41236e-18)
(1.87849 3.87853 5.2951e-18)
(-0.379112 1.21354 -4.38764e-18)
(-1.65353 0.368652 -9.83025e-18)
(-2.31131 0.219915 0)
(-2.6917 0.262778 -8.56832e-18)
(-2.99484 0.338096 8.04596e-18)
(-3.28485 0.424212 3.68412e-18)
(-3.58518 0.509409 0)
(-3.90012 0.586503 0)
(-4.23026 0.646773 5.22313e-18)
(-4.55614 0.677959 -1.29003e-19)
(-4.85542 0.669575 -5.11993e-18)
(-5.12206 0.620153 1.04096e-18)
(-5.34799 0.526184 9.66178e-19)
(-5.52511 0.384112 2.69768e-18)
(-5.64761 0.189702 2.44744e-20)
(-5.71113 -0.0616572 1.51111e-18)
(-5.70464 -0.374449 -1.4194e-18)
(-5.62071 -0.75004 -1.25681e-18)
(-5.45509 -1.18749 1.09537e-18)
(-5.20619 -1.68239 0)
(-4.87574 -2.22292 -3.68889e-19)
(-4.46879 -2.78707 -5.55706e-19)
(-3.99967 -3.33272 6.6841e-19)
(-3.48844 -3.80159 1.68778e-19)
(-2.95537 -4.13651 0)
(-2.44393 -4.25648 -1.39366e-19)
(-2.00204 -3.98902 1.69329e-18)
(-1.7392 -3.2046 0)
(-1.01282 -1.34567 -3.53191e-18)
(5.68069 15.1969 0)
(6.17472 15.8555 0)
(6.6197 16.4939 0)
(7.06174 17.11 3.51515e-18)
(7.52477 17.6999 0)
(8.01137 18.323 0)
(8.53463 19.0421 -2.49608e-18)
(9.08517 19.6665 4.1369e-18)
(9.49716 19.5948 -2.26348e-18)
(9.38662 18.0984 -1.00741e-17)
(8.345 14.8834 1.63833e-19)
(6.26506 10.4242 -5.18492e-18)
(3.54446 5.87049 1.83423e-17)
(0.96661 2.51575 -1.1224e-17)
(-0.787745 0.985337 7.68138e-18)
(-1.72562 0.614525 0)
(-2.2501 0.597364 0)
(-2.61226 0.653417 2.59973e-20)
(-2.93966 0.723343 0)
(-3.27149 0.791917 0)
(-3.62088 0.847235 0)
(-3.97404 0.873382 -2.65123e-19)
(-4.31173 0.857008 -3.30415e-18)
(-4.62934 0.795684 2.69167e-18)
(-4.92074 0.685482 2.38254e-18)
(-5.17905 0.522561 -1.60081e-18)
(-5.39853 0.303357 -2.15173e-18)
(-5.57647 0.025453 1.28674e-18)
(-5.71045 -0.314901 2.31158e-18)
(-5.7948 -0.719817 -1.03447e-18)
(-5.82841 -1.18668 -1.80263e-18)
(-5.81378 -1.70738 8.31428e-19)
(-5.75658 -2.26567 6.7488e-19)
(-5.6658 -2.83338 5.31825e-19)
(-5.55643 -3.36074 -7.24459e-19)
(-5.4482 -3.78188 3.61096e-19)
(-5.36907 -4.03085 7.04928e-20)
(-5.35719 -4.00906 -1.64793e-19)
(-5.4664 -3.54732 9.72921e-20)
(-5.69231 -2.42875 1.40671e-18)
(-5.84177 -0.317966 -1.95291e-18)
(6.4663 14.6685 0)
(6.90968 15.2542 3.77334e-18)
(7.30526 15.8213 -1.12256e-17)
(7.68861 16.3784 -9.55932e-18)
(8.087 16.9158 -2.74211e-19)
(8.51287 17.4324 -3.44118e-19)
(8.96874 17.9756 6.22374e-18)
(9.46037 18.606 -1.6495e-17)
(9.97576 19.2239 5.8697e-18)
(10.3943 19.4102 3.45719e-18)
(10.4261 18.5561 3.36522e-18)
(9.70256 16.2321 5.24634e-18)
(8.00703 12.5421 -8.08235e-18)
(5.50109 8.22858 1.80252e-19)
(2.76425 4.40983 3.76238e-18)
(0.514394 2.0143 -1.03225e-17)
(-0.874743 1.14 2.23277e-17)
(-1.63779 0.982364 -1.53768e-17)
(-2.11217 1.0129 1.35284e-17)
(-2.49332 1.06506 -1.21002e-17)
(-2.86785 1.11164 0)
(-3.24666 1.13519 2.33196e-19)
(-3.61896 1.11799 0)
(-3.9829 1.05418 -2.97852e-18)
(-4.33555 0.93772 2.44628e-18)
(-4.67272 0.764733 6.26089e-19)
(-4.99095 0.53263 -1.16489e-18)
(-5.28864 0.240072 -5.42839e-19)
(-5.56618 -0.113587 -9.78731e-19)
(-5.82565 -0.528727 8.719e-19)
(-6.06851 -1.00163 0)
(-6.30137 -1.5203 0)
(-6.53294 -2.06403 -5.67212e-19)
(-6.7751 -2.59898 -8.54873e-19)
(-7.04263 -3.06972 6.95205e-19)
(-7.3515 -3.3997 -1.69955e-19)
(-7.72435 -3.50749 0)
(-8.18562 -3.28663 0)
(-8.76396 -2.57521 9.03905e-20)
(-9.43497 -1.19008 -1.25374e-18)
(-10.0518 0.973706 1.5441e-18)
(7.21143 14.166 0)
(7.61507 14.6866 0)
(7.97496 15.1882 -1.1009e-19)
(8.31727 15.6827 2.47815e-19)
(8.66375 16.1686 1.56382e-17)
(9.02981 16.6383 -9.04795e-18)
(9.42504 17.0909 8.74167e-18)
(9.85267 17.5596 3.98648e-18)
(10.3162 18.1017 4.86657e-18)
(10.8059 18.6876 -1.45884e-17)
(11.2426 19.0631 8.02587e-18)
(11.4196 18.7568 4.21176e-18)
(11.0241 17.296 -6.02708e-18)
(9.78176 14.5207 6.11461e-18)
(7.66306 10.7778 -5.67486e-18)
(4.99943 6.86747 -2.46371e-18)
(2.39734 3.7398 4.95569e-18)
(0.434979 2.01082 0)
(-0.745664 1.47818 1.73436e-17)
(-1.43462 1.42184 -9.5356e-18)
(-1.91881 1.46195 -8.00483e-18)
(-2.3392 1.48704 6.89951e-18)
(-2.74496 1.47245 -6.21137e-18)
(-3.15017 1.41351 0)
(-3.55716 1.30333 -4.59533e-18)
(-3.96489 1.13672 4.67788e-18)
(-4.37293 0.910608 4.34246e-18)
(-4.78199 0.623966 -2.76075e-18)
(-5.19401 0.278539 0)
(-5.61366 -0.120872 0)
(-6.05046 -0.566568 0)
(-6.51135 -1.04577 5.90827e-19)
(-7.00467 -1.53473 5.13754e-19)
(-7.54309 -1.99619 -3.82088e-19)
(-8.1379 -2.37186 3.60681e-19)
(-8.79226 -2.58485 0)
(-9.50385 -2.5474 0)
(-10.2653 -2.16163 0)
(-11.0658 -1.31426 -2.56138e-20)
(-11.867 0.0781158 0)
(-12.4712 1.99321 0)
(7.9129 13.6884 0)
(8.28458 14.1504 -5.62466e-18)
(8.61709 14.5932 5.53116e-18)
(8.92954 15.0288 -1.05781e-17)
(9.23977 15.4588 -4.74549e-18)
(9.55978 15.8822 1.66058e-17)
(9.90026 16.2938 -1.59551e-17)
(10.2687 16.69 1.84238e-19)
(10.6692 17.091 -9.68651e-18)
(11.1052 17.5449 1.27069e-17)
(11.5721 18.0685 -1.07581e-17)
(12.0255 18.5405 7.50821e-19)
(12.3298 18.6398 2.00326e-17)
(12.2403 17.9392 -4.11202e-18)
(11.4794 16.1297 -1.50397e-18)
(9.88629 13.2336 -2.91306e-18)
(7.55759 9.68494 -3.3102e-18)
(4.88697 6.22504 0)
(2.43729 3.63007 7.95753e-18)
(0.654948 2.30463 -1.19473e-17)
(-0.445852 1.93681 1.44796e-17)
(-1.11999 1.925 -1.39898e-17)
(-1.62186 1.93993 1.16591e-17)
(-2.07524 1.90429 -2.04029e-17)
(-2.52663 1.81195 9.16941e-18)
(-2.99024 1.66492 -2.4237e-19)
(-3.47039 1.46319 0)
(-3.96985 1.20679 -7.7606e-19)
(-4.49238 0.898295 -3.53029e-19)
(-5.04284 0.544054 2.48459e-18)
(-5.6272 0.155445 -2.34075e-18)
(-6.25369 -0.25231 4.85786e-19)
(-6.93177 -0.653284 -9.09125e-19)
(-7.66953 -1.01247 0)
(-8.46753 -1.2809 3.51354e-19)
(-9.31286 -1.39623 -2.97879e-19)
(-10.1782 -1.2879 0)
(-11.0233 -0.884295 -3.37279e-19)
(-11.8074 -0.127496 -5.46724e-20)
(-12.4964 0.999349 4.32776e-20)
(-12.9083 2.44257 1.14488e-19)
(8.56852 13.2342 4.68688e-18)
(8.91368 13.6434 -9.1113e-20)
(9.22418 14.0331 0)
(9.51436 14.4151 -4.74686e-18)
(9.79822 14.7919 -1.25159e-17)
(10.0858 15.1647 6.01836e-19)
(10.3857 15.5334 7.28793e-18)
(10.7051 15.8934 -3.20335e-18)
(11.0498 16.2393 1.19198e-17)
(11.4241 16.58 -6.18394e-19)
(11.8321 16.9505 -1.3565e-17)
(12.2756 17.3898 9.66178e-18)
(12.7358 17.8673 -1.3786e-17)
(13.1331 18.2053 -4.60949e-19)
(13.2977 18.0848 -1.64124e-18)
(12.9913 17.1653 6.48138e-18)
(11.9938 15.2614 9.42289e-18)
(10.2255 12.4774 -9.73324e-18)
(7.83885 9.23651 -8.17032e-18)
(5.22105 6.17933 4.74626e-19)
(2.87364 3.94252 1.69011e-17)
(1.2054 2.84412 9.48236e-18)
(0.149106 2.52879 -1.02617e-17)
(-0.571286 2.48424 -6.19191e-19)
(-1.13873 2.45607 0)
(-1.66174 2.3703 0)
(-2.18926 2.22044 6.40334e-18)
(-2.74208 2.01635 -5.36097e-18)
(-3.32986 1.76673 1.54173e-19)
(-3.95792 1.48065 2.19721e-18)
(-4.62982 1.1698 -2.31156e-18)
(-5.34831 0.850672 -1.9966e-18)
(-6.11374 0.545145 1.27344e-18)
(-6.92624 0.279723 -1.3999e-18)
(-7.77809 0.087664 1.03446e-18)
(-8.64913 0.00982451 5.55222e-19)
(-9.50532 0.0897834 4.84972e-19)
(-10.3027 0.369009 -5.12387e-19)
(-10.9944 0.875598 5.54653e-19)
(-11.559 1.60539 -1.93348e-19)
(-11.87 2.51245 -9.69761e-20)
(9.1762 12.8024 -8.05239e-18)
(9.49864 13.1636 4.21096e-18)
(9.79091 13.505 0)
(10.0638 13.8383 2.36518e-17)
(10.3277 14.1661 -1.56048e-17)
(10.5917 14.4903 0)
(10.8628 14.8121 1.27703e-17)
(11.1467 15.1311 6.01546e-18)
(11.4487 15.4433 -2.17922e-17)
(11.7729 15.743 2.13909e-17)
(12.123 16.0309 0)
(12.5039 16.3291 -1.81188e-17)
(12.9223 16.6765 1.37983e-17)
(13.3748 17.0908 2.12178e-18)
(13.8244 17.5076 -1.30963e-17)
(14.1707 17.7396 1.96569e-17)
(14.2396 17.5108 0)
(13.8187 16.5609 0)
(12.7345 14.773 -7.88258e-18)
(10.9448 12.2614 8.00608e-18)
(8.60099 9.38885 -9.84935e-18)
(6.14772 6.76758 1.0661e-17)
(4.03362 4.86958 -7.59516e-19)
(2.42897 3.79333 1.21535e-17)
(1.26833 3.33604 -1.33527e-17)
(0.396208 3.17925 -6.31397e-18)
(-0.312381 3.09864 1.23201e-17)
(-0.947057 2.99643 -5.70084e-18)
(-1.56922 2.84829 4.91915e-18)
(-2.21211 2.65789 -4.25324e-18)
(-2.88999 2.43929 3.88449e-18)
(-3.60726 2.20919 6.2851e-20)
(-4.3622 1.98434 -3.03161e-18)
(-5.14997 1.78206 -1.30487e-18)
(-5.95752 1.62291 5.67888e-20)
(-6.76288 1.52984 8.66565e-19)
(-7.53618 1.52523 0)
(-8.24404 1.62656 0)
(-8.84969 1.84204 -2.26479e-19)
(-9.35755 2.16675 0)
(-9.70734 2.58471 0)
(9.73272 12.3914 6.89204e-18)
(10.0349 12.7087 -3.58263e-18)
(10.3112 13.0064 -2.72177e-17)
(10.5696 13.2957 7.39267e-19)
(10.8184 13.5789 6.71034e-17)
(11.0646 13.8581 -7.2295e-19)
(11.3145 14.1349 -6.38553e-18)
(11.573 14.4097 -4.80675e-17)
(11.8443 14.6818 2.04268e-17)
(12.1319 14.9483 -1.86115e-17)
(12.4388 15.2036 1.8334e-17)
(12.7681 15.4457 -4.35452e-18)
(13.125 15.6841 0)
(13.5168 15.9454 1.31298e-17)
(13.9495 16.2623 -1.30066e-17)
(14.4148 16.6377 9.99602e-18)
(14.8668 16.9993 -1.48539e-17)
(15.2022 17.1825 -1.17286e-17)
(15.2589 16.9642 1.19591e-17)
(14.853 16.1428 1.48879e-18)
(13.8286 14.625 6.97442e-19)
(12.2277 12.5914 -7.94834e-19)
(10.2708 10.3765 4.0917e-19)
(8.2105 8.28669 4.47031e-19)
(6.28455 6.57929 7.68352e-18)
(4.64386 5.38208 -9.4259e-19)
(3.31718 4.66202 -8.36201e-18)
(2.24457 4.27705 -6.22325e-20)
(1.34688 4.07242 2.39671e-19)
(0.559162 3.93799 -5.77004e-20)
(-0.167398 3.81444 0)
(-0.864586 3.68101 -3.13858e-18)
(-1.55051 3.53679 2.94265e-18)
(-2.23809 3.38715 0)
(-2.9269 3.24178 6.77096e-20)
(-3.6047 3.11226 0)
(-4.25354 3.00919 0)
(-4.8566 2.93929 -1.03866e-19)
(-5.38721 2.90455 2.07583e-19)
(-5.86453 2.90267 -9.37185e-20)
(-6.2962 2.94133 0)
(10.214 12.0184 0)
(10.4981 12.297 2.51288e-17)
(10.7602 12.5569 -3.83371e-17)
(11.006 12.8082 -1.22459e-17)
(11.2424 13.0534 -1.181e-17)
(11.4747 13.2941 2.46311e-17)
(11.7088 13.5317 -1.12599e-17)
(11.9491 13.7669 -1.04846e-17)
(12.1989 13.9994 -9.8612e-18)
(12.4613 14.2283 0)
(12.7387 14.4511 0)
(13.0334 14.6647 8.34647e-18)
(13.3481 14.8654 -1.56723e-17)
(13.6865 15.0542 6.25297e-19)
(14.0552 15.2448 -1.11231e-18)
(14.4637 15.4645 2.7568e-17)
(14.9189 15.7401 8.86671e-19)
(15.4112 16.0685 -2.26597e-18)
(15.8944 16.3852 -1.03109e-17)
(16.2741 16.5567 -1.27917e-18)
(16.3987 16.4006 1.11678e-17)
(16.1269 15.7972 -1.92525e-17)
(15.4092 14.7562 9.49769e-18)
(14.285 13.3689 0)
(12.8573 11.7913 0)
(11.2628 10.2008 3.24403e-19)
(9.64211 8.75433 5.57657e-18)
(8.11339 7.55793 -5.54575e-18)
(6.75009 6.65104 -5.28283e-18)
(5.57251 6.01081 1.00024e-17)
(4.56226 5.57615 -9.64433e-18)
(3.68645 5.27792 4.67779e-18)
(2.91437 5.05899 -8.34206e-20)
(2.21782 4.87952 6.15861e-20)
(1.57975 4.71583 -6.28595e-20)
(0.992639 4.55544 -8.92263e-19)
(0.456063 4.39219 1.7557e-18)
(-0.0351672 4.22116 -7.75972e-19)
(-0.465218 4.03501 0)
(-0.836276 3.8206 1.0913e-19)
(-1.31971 3.58553 0)
(10.6114 11.6938 5.79247e-18)
(10.8798 11.9389 -2.32021e-17)
(11.1292 12.1661 7.07183e-17)
(11.3641 12.3848 -4.74275e-17)
(11.5901 12.597 0)
(11.8116 12.8048 0)
(12.0336 13.0094 1.0988e-17)
(12.2601 13.2111 1.01804e-17)
(12.494 13.4098 9.53702e-18)
(12.7381 13.6046 0)
(12.9945 13.7943 0)
(13.2651 13.9777 -4.09016e-17)
(13.552 14.1524 6.3457e-17)
(13.8569 14.3144 -4.91395e-18)
(14.1819 14.4611 -2.96857e-17)
(14.5315 14.5964 3.56571e-18)
(14.9145 14.7358 6.82745e-18)
(15.3427 14.9044 1.51996e-18)
(15.8249 15.1234 -2.97114e-18)
(16.3548 15.3887 0)
(16.8905 15.645 1.26809e-19)
(17.336 15.7849 -9.53974e-18)
(17.5894 15.7146 -6.8256e-20)
(17.5866 15.3783 1.77442e-17)
(17.2944 14.7659 -5.82242e-19)
(16.7186 13.9144 -8.52606e-18)
(15.9015 12.8958 -2.4486e-19)
(14.9106 11.7983 -4.29294e-18)
(13.824 10.7068 3.66702e-18)
(12.7156 9.68854 1.12917e-19)
(11.6459 8.78574 -2.30767e-19)
(10.6568 8.01441 3.1439e-18)
(9.77224 7.3691 -1.66401e-18)
(8.99499 6.82866 -2.86255e-18)
(8.32249 6.36712 1.26295e-18)
(7.74889 5.959 0)
(7.26905 5.58143 0)
(6.86412 5.21305 1.75546e-20)
(6.534 4.83581 0)
(6.29238 4.42738 0)
(5.83278 3.97516 0)
(10.9418 11.4091 -5.31214e-18)
(11.1959 11.625 5.40527e-18)
(11.4335 11.8235 1.07224e-17)
(11.6582 12.0138 3.23863e-17)
(11.8745 12.1973 -4.47712e-17)
(12.0865 12.3761 2.2305e-17)
(12.2979 12.5516 -2.18435e-17)
(12.513 12.7239 -4.99659e-17)
(12.7341 12.8928 2.87015e-17)
(12.9636 13.0575 -4.43482e-17)
(13.2033 13.217 4.3117e-17)
(13.455 13.3706 4.02656e-18)
(13.7207 13.517 3.96504e-18)
(14.0018 13.6542 7.52144e-18)
(14.2994 13.779 3.68432e-18)
(14.6145 13.8877 2.75867e-17)
(14.9498 13.9794 -3.38174e-17)
(15.3109 14.0592 2.52295e-17)
(15.7085 14.1414 -2.3572e-17)
(16.1568 14.2464 0)
(16.6671 14.3893 -1.31213e-18)
(17.2183 14.5531 0)
(17.765 14.6991 1.15674e-18)
(18.2652 14.7792 -8.96638e-18)
(18.6709 14.7454 8.96006e-18)
(18.9416 14.5641 0)
(19.052 14.2227 5.23836e-19)
(18.9956 13.7298 4.24285e-19)
(18.7842 13.1106 -2.75777e-19)
(18.4438 12.4004 4.53751e-19)
(18.0091 11.6365 -2.53775e-19)
(17.5172 10.8526 -2.72527e-18)
(17.0036 10.0745 2.94637e-18)
(16.4939 9.31669 1.83486e-19)
(16.0105 8.58633 -1.03081e-18)
(15.5693 7.88539 2.12067e-18)
(15.1826 7.21093 -1.02165e-18)
(14.8443 6.5525 0)
(14.5521 5.9017 0)
(14.3505 5.24974 0)
(13.9146 4.56893 -7.03487e-20)
(11.2191 11.1562 9.61831e-18)
(11.4597 11.3462 -3.47614e-17)
(11.6859 11.5196 4.07911e-17)
(11.9005 11.6847 4.07808e-17)
(12.1074 11.8431 -4.20103e-17)
(12.3102 11.9963 -3.92373e-19)
(12.512 12.146 -4.26693e-17)
(12.7165 12.2923 -9.42964e-18)
(12.9262 12.4346 4.65206e-17)
(13.1429 12.5724 8.68123e-18)
(13.3682 12.7048 -8.27078e-18)
(13.6036 12.8308 0)
(13.851 12.9496 1.88547e-17)
(14.1117 13.0599 -2.6245e-17)
(14.3869 13.1598 -3.1858e-17)
(14.6774 13.247 9.06986e-19)
(14.9838 13.318 2.71922e-17)
(15.3074 13.3698 -2.21406e-17)
(15.6511 13.4016 5.29539e-17)
(16.0214 13.4179 -2.43165e-17)
(16.4299 13.4293 0)
(16.8773 13.4446 0)
(17.3562 13.468 0)
(17.8631 13.4932 9.73316e-18)
(18.3833 13.5035 -1.09009e-17)
(18.8951 13.4761 8.76869e-18)
(19.3744 13.388 -9.20569e-18)
(19.7989 13.2207 7.86613e-18)
(20.1519 12.9637 -3.68801e-18)
(20.4242 12.6152 -4.12193e-18)
(20.6143 12.1806 -1.01718e-19)
(20.7271 11.6706 0)
(20.7722 11.0985 -1.66621e-19)
(20.7603 10.4773 -1.56601e-19)
(20.7038 9.81902 1.38572e-18)
(20.6138 9.13534 -1.59073e-18)
(20.5014 8.43627 -2.01401e-19)
(20.3689 7.72541 0)
(20.2167 7.00644 0)
(20.0797 6.28975 3.20656e-19)
(19.7801 5.55021 -2.57135e-19)
(11.4535 10.9294 -8.9e-18)
(11.6812 11.0963 0)
(11.8962 11.2473 -3.76299e-17)
(12.1008 11.3903 -3.80615e-17)
(12.2984 11.5262 3.93698e-17)
(12.492 11.6568 -1.95088e-17)
(12.6846 11.7836 6.02527e-17)
(12.879 11.9067 -1.91775e-17)
(13.0777 12.0255 0)
(13.2824 12.1393 0)
(13.4943 12.2472 0)
(13.7148 12.3486 -3.10068e-17)
(13.9453 12.4423 6.7892e-17)
(14.1871 12.5271 -3.67575e-17)
(14.4411 12.6017 2.79927e-17)
(14.7083 12.6644 -3.11721e-17)
(14.9895 12.713 -2.63061e-17)
(15.2852 12.7449 2.30129e-17)
(15.5959 12.7565 -2.45338e-17)
(15.9226 12.7446 2.45492e-17)
(16.268 12.7079 2.98752e-18)
(16.6282 12.6478 -2.90458e-18)
(16.9994 12.571 0)
(17.3878 12.4823 0)
(17.795 12.3834 1.12183e-17)
(18.2189 12.2722 -9.94803e-18)
(18.6533 12.1423 -1.23985e-18)
(19.0886 11.9848 0)
(19.5133 11.7905 -1.16565e-18)
(19.916 11.5512 5.66351e-19)
(20.2863 11.2616 -3.58418e-18)
(20.6161 10.9193 4.02113e-18)
(20.8999 10.5253 0)
(21.1348 10.0829 -3.73158e-18)
(21.3198 9.59719 1.88682e-18)
(21.4546 9.07534 1.51246e-18)
(21.5406 8.52574 1.98259e-18)
(21.5793 7.95496 -8.94966e-19)
(21.5723 7.36916 -8.95004e-19)
(21.5239 6.78169 0)
(21.4138 6.18326 -2.54407e-19)
(11.6527 10.7245 2.43727e-17)
(11.8679 10.8708 -1.70592e-17)
(12.0718 11.0019 1.74267e-17)
(12.2664 11.1251 0)
(12.4545 11.2412 -1.09249e-16)
(12.6389 11.3516 1.12458e-16)
(12.8222 11.4579 0)
(13.0066 11.5604 1.88639e-17)
(13.1946 11.6583 0)
(13.3877 11.7507 0)
(13.5868 11.837 0)
(13.793 11.9163 6.05763e-17)
(14.0076 11.9877 -5.96059e-17)
(14.2313 12.0499 -7.22978e-18)
(14.4651 12.1017 0)
(14.7097 12.1414 0)
(14.9657 12.1674 0)
(15.2338 12.1777 0)
(15.5144 12.17 -6.2436e-18)
(15.8074 12.1409 -6.2059e-18)
(16.1129 12.087 -2.87166e-18)
(16.4228 12.0051 -2.29177e-17)
(16.7298 11.8973 -2.35968e-18)
(17.036 11.7648 2.4927e-17)
(17.3426 11.61 0)
(17.6506 11.4351 1.34743e-18)
(17.9599 11.2414 1.20561e-18)
(18.2693 11.0291 0)
(18.5756 10.797 -7.21119e-18)
(18.8744 10.5433 1.71923e-17)
(19.1603 10.2661 -1.27748e-17)
(19.4277 9.964 9.15331e-18)
(19.671 9.63631 -5.72327e-18)
(19.8858 9.28369 -5.9126e-19)
(20.0682 8.90748 0)
(20.2148 8.51098 4.9318e-19)
(20.323 8.09838 -2.18978e-18)
(20.393 7.67383 -5.93946e-19)
(20.4259 7.24118 2.18806e-18)
(20.4143 6.80823 -5.55075e-19)
(20.3927 6.37543 7.93515e-19)
(11.8227 10.5385 0)
(12.0257 10.6663 0)
(12.2186 10.7796 -2.70635e-19)
(12.4031 10.8852 -3.35783e-17)
(12.5816 10.9836 -1.41263e-19)
(12.7566 11.0762 1.89762e-19)
(12.9305 11.1643 0)
(13.105 11.2484 5.37972e-17)
(13.2824 11.3277 -1.03072e-16)
(13.464 11.4013 6.41438e-17)
(13.6506 11.4684 -6.22588e-17)
(13.8429 11.5283 7.39935e-17)
(14.042 11.5801 -1.00643e-16)
(14.2485 11.6226 6.33342e-17)
(14.4629 11.6545 0)
(14.6857 11.6744 0)
(14.9173 11.6807 0)
(15.1582 11.6717 -6.45103e-18)
(15.4085 11.6454 3.05269e-18)
(15.6682 11.5996 -2.34216e-19)
(15.9371 11.5315 3.02615e-18)
(16.2073 11.439 -3.11277e-18)
(16.4712 11.3233 -3.0683e-18)
(16.7283 11.1837 -2.70879e-18)
(16.9771 11.0207 2.82203e-18)
(17.2165 10.8353 1.48035e-18)
(17.4462 10.629 1.36959e-18)
(17.6653 10.4034 1.35154e-18)
(17.873 10.1603 -1.22829e-18)
(18.0681 9.90094 1.26654e-17)
(18.2491 9.62679 -1.12916e-17)
(18.414 9.33908 4.97258e-18)
(18.5609 9.03907 -8.72947e-18)
(18.688 8.72818 5.49726e-18)
(18.7936 8.40775 -4.89656e-18)
(18.876 8.08012 4.87929e-18)
(18.9337 7.74772 0)
(18.9672 7.41266 5.70483e-19)
(18.9773 7.07674 -6.40439e-19)
(18.9586 6.74376 -6.16978e-19)
(18.9397 6.41498 6.05678e-19)
(11.968 10.3689 0)
(12.1591 10.4803 2.8614e-17)
(12.3411 10.5777 -2.26214e-19)
(12.5155 10.6676 -6.16988e-17)
(12.6844 10.7503 9.64877e-17)
(12.8499 10.8271 -6.58608e-17)
(13.0142 10.8991 0)
(13.1789 10.9668 0)
(13.3457 11.0297 4.24981e-19)