/*--------------------------------*- C++ -*----------------------------------*\
| =========                 |                                                 |
| \\      /  F ield         | OpenFOAM: The Open Source CFD Toolbox           |
|  \\    /   O peration     | Version:  5.x                                   |
|   \\  /    A nd           | Web:      www.OpenFOAM.org                      |
|    \\/     M anipulation  |                                                 |
\*---------------------------------------------------------------------------*/
FoamFile
{
    version     2.0;
    format      ascii;
    class       volVectorField;
    location    "200";
    object      wallShearStress;
}
// * * * * * * * * * * * * * * * * * * * * * * * * * * * * * * * * * * * * * //

dimensions      [0 2 -2 0 0 0 0];

internalField   uniform (0 0 0);

boundaryField
{
    inlet
    {
        type            calculated;
        value           uniform (0 0 0);
    }
    outlet
    {
        type            calculated;
        value           uniform (0 0 0);
    }
    walls
    {
        type            calculated;
        value           nonuniform List<vector> 
164
(
(-573.242 -887.055 4.81482e-35)
(-1054.74 -814.075 -1.29789e-15)
(-1549.41 -630.263 -2.08053e-16)
(-1384.53 -464.59 1.49195e-15)
(-1301.11 -364.975 3.86336e-21)
(-1200.4 -290.632 1.08762e-15)
(-1098.4 -234.185 1.29928e-15)
(-1006.26 -191.731 -1.49757e-15)
(-923.627 -158.944 -1.07371e-32)
(-850.439 -133.068 1.84409e-15)
(-784.934 -112.382 -2.02663e-15)
(-732.269 -96.2023 -2.08477e-15)
(-687.387 -83.1859 1.73488e-20)
(-658.066 -73.4542 -2.19475e-15)
(-627.273 -64.6839 2.41095e-15)
(-605.731 -57.7912 2.3295e-15)
(-582.226 -51.3231 -2.41617e-15)
(-562.192 -45.8062 2.44398e-15)
(-544.319 -40.9146 2.41261e-15)
(-525.536 -36.3918 -2.52642e-15)
(-511.956 -32.6002 2.43312e-15)
(-495.772 -28.917 5.6363e-21)
(-483.774 -25.7868 1.42946e-20)
(-471.813 -22.8596 -9.29592e-21)
(-460.188 -20.1684 -4.93227e-15)
(-451.014 -17.7572 2.37288e-15)
(-440.647 -15.4524 -2.55788e-35)
(-431.535 -13.3572 1.17239e-15)
(-423.921 -11.4261 -1.16238e-15)
(-416.498 -9.61801 7.52316e-37)
(-410.826 -7.95212 -8.46167e-21)
(-403.765 -6.34198 8.23882e-21)
(-397.708 -4.8564 7.34286e-21)
(-391.518 -3.43031 -1.58377e-20)
(-386.062 -2.10599 -5.02025e-16)
(-380.562 -0.839951 -8.44005e-36)
(-375.986 0.347443 5.94692e-17)
(-371.136 1.48132 -4.6641e-16)
(-364.986 2.5359 4.56397e-16)
(-361.89 3.56869 -8.80116e-16)
(-359.36 4.54552 6.77085e-36)
(-355.639 5.47506 3.27177e-15)
(-337.471 6.00151 2.25695e-35)
(-334.581 6.66469 -8.89746e-21)
(-330.048 7.22453 -2.19089e-15)
(-329.947 7.86023 4.10088e-21)
(-324.701 8.33659 -4.11402e-21)
(-321.372 8.81305 -2.16874e-15)
(-318.383 9.27918 4.33189e-15)
(-317.575 9.76469 2.14135e-15)
(-314.869 10.1947 4.08878e-21)
(-312.101 10.5683 -2.13626e-15)
(-309.546 10.954 2.13271e-15)
(-304.8 11.2123 -4.12027e-21)
(-302.374 11.5531 -1.72835e-23)
(-298.826 11.8128 -1.73206e-23)
(-296.585 12.1191 4.13322e-21)
(-297.506 12.5292 2.10649e-35)
(-292.345 12.6844 4.31179e-15)
(-293.195 13.0772 4.02564e-21)
(-289.445 13.2649 -4.21203e-15)
(-289.128 13.6288 4.18741e-15)
(-287.189 13.9427 -4.13499e-15)
(-284.842 14.2134 8.31952e-15)
(-282.769 14.5069 -4.1174e-15)
(-278.74 14.6728 4.16823e-15)
(-275.573 14.8916 -9.0278e-36)
(-273.327 15.1351 -1.99953e-21)
(-271.405 15.3993 -8.88953e-24)
(-270.62 15.7292 4.05407e-15)
(-265.609 15.8067 9.53814e-24)
(-263.437 16.0504 -1.97126e-21)
(-260.698 16.2518 -8.1648e-15)
(-258.372 16.4791 9.71422e-22)
(-252.912 16.5058 -8.38704e-15)
(-249.676 16.6732 1.37078e-31)
(-244.996 16.7346 1.66433e-14)
(-239.757 16.7596 4.99512e-22)
(-234.257 16.7435 -8.51864e-15)
(-226.218 16.5604 8.4207e-15)
(-229.08 17.0794 -8.6145e-15)
(-11.8052 1.90349 1.58044e-14)
(451.169 -851.189 -3.85186e-34)
(-358.005 232.243 -1.05983e-14)
(-712.534 309.525 3.85186e-34)
(-863.049 289.407 9.77289e-32)
(-894.276 248.051 -8.79669e-32)
(-869.853 207.471 4.53834e-15)
(-833.294 174.348 1.77788e-20)
(-808.269 150.575 3.67342e-40)
(-781.309 131.003 -3.09431e-20)
(-752.925 114.419 -4.29604e-15)
(-723.351 100.256 -1.64829e-20)
(-699.665 88.6967 -4.12938e-15)
(-673.109 78.3347 1.62627e-20)
(-654.946 70.0578 -1.51466e-20)
(-631.673 62.1833 -4.16433e-15)
(-615.108 55.8034 3.91104e-15)
(-596.133 49.7612 -1.50266e-20)
(-579.033 44.4859 3.87742e-15)
(-564.331 39.7994 -1.41732e-20)
(-547.287 35.3811 5.53963e-21)
(-535.481 31.6474 3.61151e-15)
(-521.254 28.0545 -1.20371e-34)
(-510.601 24.9381 -3.52141e-15)
(-499.659 22.0036 -3.44502e-15)
(-490.377 19.3571 -1.54704e-20)
(-482.045 16.9062 -3.21606e-15)
(-470.255 14.5028 -1.06047e-32)
(-463.039 12.4116 1.55354e-15)
(-456.298 10.4459 -3.03494e-15)
(-449.606 8.59038 -1.04483e-20)
(-445.319 6.88933 -1.40214e-15)
(-439.071 5.23113 -6.79655e-16)
(-431.329 3.67669 -1.00925e-20)
(-427.712 2.21373 3.19285e-16)
(-422.995 0.835113 1.52671e-16)
(-418.232 -0.489178 -1.81258e-20)
(-411.099 -1.70964 8.84415e-21)
(-406.985 -2.8947 5.62528e-16)
(-406.534 -4.03749 -1.04945e-15)
(-401.368 -5.10243 -7.84307e-21)
(-399.577 -6.13322 1.94383e-15)
(-396.682 -7.12596 -1.86487e-15)
(-378.83 -7.65108 -2.85722e-32)
(-376.754 -8.36646 -2.42234e-15)
(-374.135 -8.99342 -2.40156e-15)
(-373.974 -9.66557 -2.36712e-15)
(-371.389 -10.2363 4.69215e-15)
(-368.753 -10.7643 -2.33741e-15)
(-366.292 -11.2763 -2.32023e-15)
(-363.92 -11.7405 2.30608e-15)
(-361.646 -12.2048 6.34767e-37)
(-359.499 -12.6227 2.27545e-15)
(-354.932 -12.9547 4.36471e-21)
(-352.934 -13.3227 4.54771e-15)
(-351.139 -13.7067 4.50747e-15)
(-349.31 -14.0483 -3.31019e-35)
(-347.695 -14.401 1.0173e-31)
(-345.958 -14.7162 -4.21871e-21)
(-344.5 -15.0453 8.72408e-15)
(-342.797 -15.3307 4.32462e-21)
(-340.499 -15.5937 -8.69837e-15)
(-338.737 -15.8104 -4.35403e-15)
(-338.528 -16.0795 -3.00927e-36)
(-336.246 -16.2312 -2.03839e-21)
(-335.976 -16.4841 -4.16052e-15)
(-336.239 -16.7533 -4.10713e-15)
(-335.453 -16.985 -4.05401e-15)
(-331.87 -17.0463 4.09517e-15)
(-330.985 -17.26 4.0781e-15)
(-331.966 -17.5725 1.867e-21)
(-330.436 -17.7495 -6.10427e-32)
(-329.081 -17.9423 -1.02089e-21)
(-326.773 -18.0802 -3.87597e-15)
(-326.35 -18.3311 1.8346e-21)
(-323.559 -18.4508 3.89221e-15)
(-322.27 -18.6641 -1.83047e-21)
(-321.089 -18.8895 8.99621e-22)
(-318.911 -19.067 4.50022e-22)
(-316.77 -19.253 -7.55399e-15)
(-312.35 -19.3104 7.42906e-15)
(-320.633 -20.0649 3.32351e-22)
(-38.9899 -2.97102 -1.57664e-14)
)
;
    }
    frontAndBack
    {
        type            empty;
    }
}


// ************************************************************************* //
