/*--------------------------------*- C++ -*----------------------------------*\
| =========                 |                                                 |
| \\      /  F ield         | OpenFOAM: The Open Source CFD Toolbox           |
|  \\    /   O peration     | Version:  5.x                                   |
|   \\  /    A nd           | Web:      www.OpenFOAM.org                      |
|    \\/     M anipulation  |                                                 |
\*---------------------------------------------------------------------------*/
FoamFile
{
    version     2.0;
    format      ascii;
    class       volVectorField;
    location    "200";
    object      wallShearStress;
}
// * * * * * * * * * * * * * * * * * * * * * * * * * * * * * * * * * * * * * //

dimensions      [0 2 -2 0 0 0 0];

internalField   uniform (0 0 0);

boundaryField
{
    inlet
    {
        type            calculated;
        value           uniform (0 0 0);
    }
    outlet
    {
        type            calculated;
        value           uniform (0 0 0);
    }
    walls
    {
        type            calculated;
        value           nonuniform List<vector> 
82
(
(0.202365 -1.40951 -1.50463e-36)
(-0.0450591 -2.08574 1.23903e-20)
(-0.36954 -2.65582 -1.44921e-18)
(-0.853031 -2.73264 -1.63474e-18)
(-1.25609 -2.57203 -3.81397e-18)
(-1.55186 -2.27094 1.90891e-18)
(-1.73638 -1.91031 1.83736e-18)
(-1.82493 -1.54477 -1.72216e-18)
(-1.83733 -1.20695 -3.90322e-18)
(-1.7832 -0.90831 -1.26671e-19)
(-1.62397 -0.620077 -1.73844e-18)
(-1.42117 -0.385527 8.76393e-20)
(-1.27086 -0.247308 -1.3303e-18)
(-1.19316 -0.180646 -1.22194e-18)
(-1.1283 -0.134978 -9.51389e-19)
(-1.04716 -0.0909614 -5.4341e-19)
(-0.954292 -0.0522515 4.10173e-19)
(-0.859611 -0.0209677 3.23644e-20)
(-0.76623 0.00336845 -3.23055e-20)
(-0.674408 0.0214643 -1.6422e-19)
(-0.583876 0.0339019 -1.05381e-19)
(-0.506247 0.040246 -6.07998e-20)
(-0.440123 0.0426281 -3.28287e-20)
(-0.377665 0.0427069 4.61163e-21)
(-0.318775 0.0409271 2.33145e-21)
(-0.263568 0.0376432 -6.43178e-21)
(-0.212138 0.0332113 5.20467e-19)
(-0.164632 0.0280295 -1.08235e-20)
(-0.12121 0.0224027 7.51118e-19)
(-0.0826017 0.0164398 -8.24915e-19)
(-0.0509825 0.010703 -1.33592e-20)
(-0.0266138 0.00590836 -7.29615e-21)
(-0.0101683 0.00239888 6.50244e-21)
(-0.00141603 0.00042441 -1.50463e-36)
(0.00329718 -0.000713031 -1.82714e-18)
(0.00885289 -0.00246922 0)
(0.018456 -0.00601932 -2.20405e-37)
(0.0391168 -0.0116387 4.68671e-21)
(0.0672766 -0.0135448 -4.7587e-21)
(0.078953 -0.000636603 2.3079e-18)
(0.0359244 0.0158492 2.11e-18)
(0.245825 -0.91312 -3.9435e-19)
(0.149846 -0.408987 -5.55273e-20)
(0.0550958 -0.143091 -2.63844e-18)
(-9.60428e-05 -0.0254241 -1.07476e-18)
(-0.0259817 0.00231643 -1.3119e-18)
(-0.0822246 0.0337 -1.75258e-18)
(-0.149406 0.0629293 -3.59862e-18)
(-0.215692 0.0833656 -1.63916e-18)
(-0.277911 0.0977789 1.45582e-18)
(-0.346375 0.116321 9.9884e-20)
(-0.425827 0.132816 -2.97844e-18)
(-0.496338 0.131483 1.33879e-18)
(-0.550615 0.118683 3.54275e-21)
(-0.596271 0.104388 8.117e-19)
(-0.63688 0.0898055 1.23848e-18)
(-0.671277 0.0739658 -7.51501e-20)
(-0.698971 0.0571373 4.70198e-37)
(-0.720465 0.0399348 -4.73975e-19)
(-0.736314 0.0228587 -3.31096e-20)
(-0.747162 0.00629461 -2.47445e-19)
(-0.753012 -0.00933815 5.94596e-22)
(-0.755759 -0.0233293 9.40395e-38)
(-0.755417 -0.0344289 -4.98116e-19)
(-0.753738 -0.0441627 -4.28798e-19)
(-0.751119 -0.0527919 8.92118e-19)
(-0.747785 -0.0604615 8.71323e-19)
(-0.743973 -0.0672729 1.70406e-18)
(-0.739888 -0.0733344 8.33668e-19)
(-0.735661 -0.0787527 2.53355e-20)
(-0.731413 -0.0836375 -8.23108e-19)
(-0.727268 -0.088095 -7.93487e-19)
(-0.723332 -0.0922297 1.5407e-18)
(-0.719658 -0.0961365 1.50683e-18)
(-0.716268 -0.0998953 -1.47319e-18)
(-0.713135 -0.103578 1.11151e-20)
(-0.7103 -0.107248 -1.09644e-20)
(-0.707567 -0.110966 -5.87747e-39)
(-0.705733 -0.114869 -2.93874e-39)
(-0.701856 -0.118924 2.53145e-21)
(-0.709705 -0.123821 -1.28848e-18)
(-0.677439 -0.128874 1.1817e-21)
)
;
    }
    frontAndBack
    {
        type            empty;
    }
}


// ************************************************************************* //
