# Wall shear stress
# Time       	patch        	min          	max          
0.000000e+00	walls	(-3.748202e+00 -4.265714e-01 -2.098824e-18)	(-2.672896e+00 5.722152e-01 8.109633e-19)
5.000000e+01	walls	(-5.913785e+02 -3.004100e+02 -1.194990e-15)	(-1.461903e+01 4.029596e+02 1.263099e-15)
1.000000e+02	walls	(-6.002722e+02 -3.102048e+02 -1.217508e-15)	(-1.266296e+01 3.894805e+02 1.299483e-15)
1.500000e+02	walls	(-6.017742e+02 -3.120954e+02 -1.221244e-15)	(-1.224788e+01 3.871020e+02 1.306777e-15)
2.000000e+02	walls	(-6.022410e+02 -3.126017e+02 -1.221695e-15)	(-1.222483e+01 3.864400e+02 1.308278e-15)
2.500000e+02	walls	(-6.023317e+02 -3.127130e+02 -1.221804e-15)	(-1.222037e+01 3.862905e+02 1.308629e-15)
2.590000e+02	walls	(-6.023403e+02 -3.127216e+02 -1.221804e-15)	(-1.222000e+01 3.862787e+02 1.308654e-15)
