/*--------------------------------*- C++ -*----------------------------------*\
| =========                 |                                                 |
| \\      /  F ield         | OpenFOAM: The Open Source CFD Toolbox           |
|  \\    /   O peration     | Version:  5.x                                   |
|   \\  /    A nd           | Web:      www.OpenFOAM.org                      |
|    \\/     M anipulation  |                                                 |
\*---------------------------------------------------------------------------*/
FoamFile
{
    version     2.0;
    format      ascii;
    class       volScalarField;
    location    "100";
    object      nut;
}
// * * * * * * * * * * * * * * * * * * * * * * * * * * * * * * * * * * * * * //

dimensions      [0 2 -1 0 0 0 0];

internalField   nonuniform List<scalar> 
11040
(
0.00233671
0.00281339
0.00304442
0.00309338
0.00300452
0.00285089
0.00268076
0.00254031
0.00241915
0.00228983
0.00211772
0.0019447
0.00181215
0.00171772
0.00162814
0.00153955
0.00145201
0.00136822
0.00128807
0.00121005
0.00113258
0.00106381
0.00100259
0.000941793
0.000880568
0.000818125
0.000753301
0.00068193
0.000567246
0.000424137
0.000378827
0.00033884
0.000314433
0.000291143
0.000264766
0.000241258
0.000241303
0.000287716
0.000350339
0.00040272
0.000559297
0.0062118
0.00665003
0.00606554
0.00546656
0.00486797
0.00435228
0.00390134
0.00379046
0.00378782
0.0037528
0.00365835
0.00351173
0.00338924
0.00326982
0.00312642
0.00297907
0.00284228
0.00271942
0.00260903
0.00250883
0.00241733
0.00234086
0.00227444
0.00221226
0.00215416
0.00209919
0.00204616
0.00199189
0.0019176
0.00180598
0.00173452
0.00169923
0.00165036
0.00156421
0.00145899
0.00132814
0.00126556
0.00133144
0.00154347
0.00189721
0.00242165
0.0127907
0.013469
0.0126437
0.0116081
0.0104648
0.00933305
0.0082896
0.00736097
0.00656322
0.00587354
0.0052385
0.00470554
0.00458434
0.00454371
0.00447787
0.00440179
0.00431903
0.00423476
0.00415445
0.00408062
0.00401342
0.00395981
0.00391196
0.00386408
0.00381625
0.00376865
0.00372098
0.00367229
0.00361763
0.0035523
0.00349564
0.00345031
0.00340721
0.00335805
0.00329461
0.00316426
0.00308655
0.00326057
0.00358532
0.00398816
0.00463797
0.0204683
0.0212302
0.0203261
0.0189628
0.0173748
0.0157418
0.0141667
0.0126775
0.0112996
0.0100255
0.00878485
0.007702
0.00690232
0.00630846
0.00599702
0.00586295
0.00576692
0.0056927
0.00563466
0.00558827
0.00555062
0.00552499
0.0055035
0.00548089
0.0054559
0.00542832
0.00539779
0.00536378
0.00532477
0.00527959
0.00523362
0.00519032
0.00515261
0.0051246
0.00510523
0.00504244
0.00497915
0.00516275
0.00563526
0.00638186
0.00712427
0.0290107
0.0297716
0.0288693
0.0273003
0.0253779
0.0233029
0.0212123
0.0191389
0.0171742
0.0153302
0.0135195
0.0118993
0.0106061
0.00958757
0.0087336
0.00802682
0.00758242
0.00736795
0.00724298
0.00716321
0.00711412
0.00709
0.00707711
0.00706737
0.00705809
0.00704789
0.00703534
0.00701905
0.00699757
0.00696998
0.00693784
0.00690435
0.00687576
0.00686251
0.00687518
0.00688057
0.00686879
0.00705202
0.00763574
0.0086805
0.00989701
0.0381591
0.038879
0.0380272
0.0363756
0.0342478
0.031795
0.0292022
0.0266086
0.0241092
0.0217206
0.0193437
0.0171548
0.0153341
0.0138708
0.0126172
0.0115284
0.010616
0.00983098
0.00936665
0.00910389
0.00894685
0.00885551
0.00879809
0.00875718
0.00872934
0.00871056
0.00869674
0.00868436
0.00867052
0.00865315
0.00863186
0.00860865
0.00858959
0.00858654
0.00861737
0.00867486
0.00873345
0.00892437
0.00952188
0.0106749
0.0126175
0.0476915
0.0483321
0.0475555
0.0459239
0.0436957
0.0410468
0.0381735
0.035215
0.0322858
0.0294184
0.0265145
0.0237666
0.0213988
0.019429
0.0177063
0.0161844
0.0148419
0.0136466
0.0126118
0.0118338
0.0113909
0.0111167
0.0109214
0.0107778
0.0106754
0.0105983
0.0105386
0.0104907
0.0104502
0.0104138
0.0103798
0.0103486
0.0103248
0.0103185
0.0103479
0.0104263
0.0105417
0.0107514
0.0112888
0.0123536
0.0143637
0.0573331
0.0578961
0.0572112
0.0556734
0.0534767
0.050813
0.0478532
0.0447168
0.0415216
0.0383093
0.0349893
0.0317593
0.0288772
0.0263943
0.0241738
0.0221768
0.0203806
0.0187599
0.0172909
0.0159726
0.0148763
0.0141806
0.0137433
0.0134292
0.0131883
0.0129936
0.01283
0.0126885
0.0125636
0.0124516
0.0123509
0.0122621
0.012189
0.0121398
0.0121296
0.0121797
0.0122991
0.0125108
0.0129573
0.0138141
0.01549
0.0668768
0.0673519
0.0667554
0.0653565
0.0633009
0.0607637
0.0578826
0.0547518
0.0514759
0.048092
0.0445197
0.0409467
0.0376457
0.0347019
0.0320115
0.0295481
0.0272948
0.0252323
0.0233387
0.0215932
0.0199884
0.0187247
0.017856
0.017225
0.0167425
0.0163467
0.0160031
0.0156934
0.0154079
0.0151417
0.0148933
0.0146641
0.0144591
0.0142867
0.0141599
0.0140997
0.0141287
0.0142675
0.0145889
0.0151978
0.0163658
0.0760789
0.0764691
0.0759576
0.0747229
0.0728759
0.070563
0.0678885
0.0649184
0.0617346
0.058344
0.0546945
0.050951
0.047379
0.0440941
0.0410464
0.0381935
0.0355312
0.0330546
0.0307495
0.0285997
0.0265862
0.0249031
0.023609
0.0225792
0.0217552
0.0210688
0.0204696
0.0199251
0.0194159
0.0189311
0.0184658
0.0180198
0.0175976
0.0172081
0.0168637
0.0165853
0.0163999
0.0163336
0.0164332
0.0167531
0.0174085
0.0847394
0.0850542
0.084622
0.0835592
0.0819515
0.0799165
0.0775301
0.0748167
0.0718431
0.0686345
0.0651227
0.0614324
0.0577973
0.0543374
0.0510251
0.0478756
0.0448957
0.0420951
0.0394433
0.036932
0.0345521
0.0325261
0.0308763
0.0294735
0.028302
0.027303
0.0264207
0.0256151
0.0248586
0.0241334
0.0234285
0.0227388
0.0220647
0.0214116
0.0207884
0.0202141
0.0197154
0.0193184
0.0190646
0.0189968
0.0191213
0.0927117
0.0929625
0.0926007
0.091703
0.0903372
0.0885963
0.0865353
0.0841538
0.0815098
0.0786148
0.0754044
0.0719649
0.0684813
0.0650581
0.0616827
0.0583903
0.0552063
0.0521488
0.0492232
0.0464277
0.0437601
0.0414587
0.0395055
0.0377221
0.0361857
0.0348876
0.033745
0.0327032
0.0317259
0.0307889
0.0298756
0.0289751
0.0280823
0.0271964
0.0263185
0.0254615
0.0246463
0.0238909
0.0232292
0.0227064
0.0222536
0.0999085
0.100103
0.0997989
0.0990497
0.0979098
0.0964525
0.0947176
0.0926947
0.0904302
0.0879273
0.0851262
0.0820793
0.0789088
0.0757069
0.0724748
0.0692584
0.0660716
0.0629382
0.0598768
0.0568994
0.0540127
0.0514929
0.049336
0.0473073
0.0454104
0.0437063
0.0422409
0.0409573
0.0397894
0.0386902
0.0376293
0.036587
0.0355533
0.0345182
0.0334746
0.0324279
0.0313902
0.030367
0.029378
0.0284654
0.0274953
0.106295
0.106433
0.106173
0.105553
0.104614
0.103414
0.101982
0.100305
0.0984201
0.0963262
0.0939713
0.0913695
0.0886276
0.0858004
0.0828843
0.0799119
0.0769099
0.0739115
0.0709182
0.0679448
0.0650046
0.0623936
0.0601302
0.0579819
0.0559335
0.0539824
0.052143
0.0504765
0.0490222
0.0477231
0.046518
0.0453653
0.044239
0.0431221
0.0419987
0.040866
0.0397266
0.0385742
0.0374139
0.0362767
0.0349898
0.111851
0.111948
0.111728
0.111219
0.110457
0.10948
0.108313
0.106945
0.105407
0.103695
0.101757
0.0996189
0.0973444
0.0949653
0.0924721
0.0898839
0.0872202
0.0844997
0.0817388
0.0789517
0.0761583
0.0736311
0.0713949
0.0692465
0.0671805
0.0651959
0.0632777
0.0614267
0.0596552
0.057999
0.0565214
0.0551955
0.0539622
0.0527787
0.0516134
0.0504528
0.0492908
0.0481122
0.0469118
0.0457079
0.0443275
0.116642
0.116705
0.116517
0.116099
0.11549
0.114696
0.113749
0.112645
0.111405
0.110029
0.108473
0.106758
0.104925
0.102992
0.100938
0.0987821
0.0965461
0.0942282
0.0918371
0.0893829
0.0868758
0.0845692
0.0825006
0.0804912
0.0785396
0.0766433
0.0747978
0.0729975
0.0712369
0.069516
0.0678441
0.0662375
0.0647279
0.0633619
0.0621032
0.0609063
0.0597416
0.0585799
0.057407
0.056229
0.0548992
0.12074
0.120776
0.120613
0.120269
0.119772
0.11913
0.118368
0.117484
0.116494
0.115398
0.114166
0.112812
0.111365
0.109825
0.108188
0.10646
0.104649
0.102757
0.100796
0.0987612
0.096654
0.0946827
0.0928874
0.0911254
0.0893978
0.0877038
0.0860422
0.0844112
0.0828075
0.0812274
0.0796667
0.0781235
0.0766008
0.075107
0.0736439
0.072228
0.0709124
0.0696922
0.0685265
0.0673927
0.0661606
0.124063
0.124084
0.123944
0.123657
0.123248
0.122725
0.122106
0.121398
0.120597
0.119714
0.118728
0.117651
0.116503
0.115282
0.113986
0.112617
0.11118
0.109672
0.108097
0.106455
0.104746
0.10313
0.101642
0.10017
0.0987164
0.0972827
0.0958681
0.0944768
0.0931027
0.0917432
0.090396
0.0890581
0.0877268
0.0863987
0.0850669
0.0837351
0.0824137
0.0811022
0.0798043
0.0785445
0.0772558
0.126654
0.126665
0.126544
0.126303
0.125962
0.125535
0.125021
0.124435
0.123777
0.123054
0.122259
0.121387
0.12046
0.119476
0.118435
0.117339
0.116189
0.114985
0.113725
0.11241
0.111039
0.109733
0.108522
0.107319
0.106128
0.104949
0.103781
0.102625
0.101481
0.100348
0.0992267
0.0981132
0.0970047
0.0958982
0.0947867
0.0936702
0.0925495
0.0914153
0.0902663
0.0891092
0.0879048
0.128707
0.128711
0.128607
0.128404
0.128115
0.127753
0.127322
0.126831
0.126287
0.125685
0.125025
0.124307
0.123546
0.122747
0.121898
0.121007
0.120075
0.119101
0.118086
0.117027
0.115925
0.11487
0.113889
0.112913
0.111946
0.110987
0.110037
0.109095
0.108162
0.107236
0.106317
0.105405
0.104498
0.103597
0.102694
0.101788
0.100881
0.0999641
0.099034
0.098092
0.0971124
0.130368
0.130371
0.130282
0.130107
0.12986
0.129551
0.129188
0.12877
0.128308
0.127799
0.127245
0.126649
0.126015
0.125351
0.124649
0.123915
0.12315
0.122354
0.121526
0.120666
0.119774
0.118918
0.118119
0.117327
0.116541
0.115763
0.114989
0.114223
0.113467
0.112719
0.111978
0.111242
0.110511
0.109786
0.109062
0.108337
0.107613
0.106883
0.106146
0.105403
0.104639
0.131739
0.131741
0.131664
0.131513
0.131299
0.131032
0.130718
0.130363
0.129968
0.129537
0.129065
0.128559
0.128024
0.127465
0.126881
0.126269
0.125633
0.124974
0.124291
0.123585
0.122856
0.122155
0.121501
0.120853
0.120209
0.119575
0.118945
0.118321
0.117706
0.117102
0.116504
0.115913
0.115327
0.114748
0.114171
0.113596
0.113022
0.112446
0.111867
0.111285
0.110694
0.132888
0.13289
0.132823
0.132691
0.132504
0.13227
0.131997
0.131688
0.131349
0.130977
0.130575
0.130143
0.129689
0.129213
0.128718
0.128204
0.127674
0.127122
0.126554
0.125968
0.125365
0.124786
0.124245
0.123711
0.123181
0.122661
0.122144
0.121635
0.121132
0.120639
0.120155
0.11968
0.119212
0.118749
0.118288
0.11783
0.117377
0.116923
0.116468
0.116013
0.115557
0.133862
0.133864
0.133804
0.133688
0.133524
0.133319
0.133079
0.132809
0.132512
0.132189
0.131841
0.131468
0.131078
0.130674
0.130251
0.129814
0.129364
0.128902
0.128427
0.127937
0.127435
0.126952
0.126501
0.126057
0.125619
0.12519
0.124764
0.124344
0.123932
0.123527
0.123131
0.122742
0.122364
0.121991
0.121623
0.121258
0.120898
0.120539
0.120182
0.119827
0.119476
0.134696
0.134697
0.134645
0.134542
0.134397
0.134216
0.134004
0.133766
0.133505
0.133225
0.132921
0.132599
0.132261
0.131912
0.13155
0.131179
0.130794
0.1304
0.129997
0.129585
0.129166
0.12876
0.128381
0.128008
0.127642
0.127282
0.126928
0.126581
0.12624
0.125907
0.125581
0.125263
0.124952
0.124648
0.12435
0.124059
0.123772
0.123489
0.123207
0.122928
0.122655
0.135417
0.135417
0.135371
0.13528
0.135151
0.13499
0.134803
0.134592
0.134362
0.134114
0.133849
0.133568
0.133275
0.132971
0.132658
0.132336
0.132008
0.131673
0.131329
0.13098
0.130625
0.130283
0.129964
0.129648
0.12934
0.129037
0.128741
0.12845
0.128167
0.12789
0.12762
0.127357
0.127101
0.126852
0.126609
0.126371
0.12614
0.125913
0.12569
0.12547
0.125257
0.136043
0.136044
0.136002
0.135921
0.135807
0.135664
0.135497
0.13531
0.135105
0.134886
0.134652
0.134406
0.134149
0.133885
0.133614
0.133337
0.133053
0.132763
0.13247
0.132173
0.131871
0.13158
0.131308
0.131041
0.13078
0.130523
0.130273
0.130028
0.12979
0.129559
0.129334
0.129115
0.128903
0.128697
0.128497
0.128302
0.128112
0.127928
0.127747
0.127571
0.127403
0.136591
0.136592
0.136556
0.136484
0.136382
0.136254
0.136105
0.135938
0.135756
0.135561
0.135353
0.135135
0.13491
0.13468
0.134444
0.134202
0.133956
0.133707
0.133453
0.133197
0.132941
0.132693
0.13246
0.132233
0.13201
0.131792
0.131579
0.131372
0.13117
0.130975
0.130786
0.130603
0.130426
0.130255
0.130088
0.129927
0.129771
0.12962
0.129472
0.129328
0.129193
0.137074
0.137075
0.137043
0.136979
0.136888
0.136774
0.136641
0.136491
0.136329
0.136154
0.135969
0.135776
0.135577
0.135373
0.135164
0.134953
0.13474
0.134523
0.134304
0.134085
0.133864
0.133651
0.13345
0.133255
0.133064
0.132878
0.132697
0.132521
0.132351
0.132185
0.132026
0.131871
0.131722
0.131579
0.13144
0.131306
0.131176
0.131051
0.130929
0.130812
0.130702
0.1375
0.137503
0.137475
0.137418
0.137336
0.137234
0.137115
0.136981
0.136835
0.136679
0.136514
0.136342
0.136165
0.135984
0.135799
0.135613
0.135425
0.135236
0.135047
0.134856
0.134666
0.134482
0.134309
0.134141
0.133976
0.133817
0.133662
0.133512
0.133367
0.133227
0.133092
0.132961
0.132835
0.132714
0.132597
0.132484
0.132376
0.132271
0.13217
0.132073
0.131983
0.13788
0.137883
0.137859
0.137808
0.137735
0.137643
0.137536
0.137416
0.137285
0.137146
0.136998
0.136845
0.136687
0.136526
0.136362
0.136197
0.136031
0.135865
0.135699
0.135533
0.13537
0.13521
0.13506
0.134914
0.134772
0.134634
0.134501
0.134373
0.134249
0.134129
0.134014
0.133903
0.133797
0.133695
0.133596
0.133501
0.13341
0.133322
0.133237
0.133156
0.133081
0.138218
0.138223
0.138201
0.138156
0.13809
0.138008
0.137912
0.137804
0.137687
0.137562
0.137431
0.137294
0.137153
0.13701
0.136864
0.136718
0.136571
0.136424
0.136278
0.136133
0.13599
0.135851
0.13572
0.135593
0.13547
0.135351
0.135236
0.135125
0.135019
0.134916
0.134818
0.134724
0.134634
0.134547
0.134464
0.134384
0.134307
0.134233
0.134162
0.134093
0.134031
0.13852
0.138526
0.138508
0.138467
0.138408
0.138335
0.138249
0.138153
0.138049
0.137937
0.13782
0.137698
0.137572
0.137444
0.137315
0.137185
0.137055
0.136925
0.136797
0.136669
0.136544
0.136422
0.136307
0.136196
0.136089
0.135985
0.135886
0.13579
0.135698
0.13561
0.135526
0.135445
0.135368
0.135295
0.135224
0.135156
0.135092
0.135029
0.13497
0.134912
0.134859
0.138792
0.138799
0.138783
0.138747
0.138694
0.138629
0.138553
0.138468
0.138376
0.138277
0.138172
0.138064
0.137952
0.137838
0.137723
0.137608
0.137492
0.137378
0.137264
0.137152
0.137042
0.136935
0.136834
0.136737
0.136643
0.136553
0.136466
0.136383
0.136303
0.136227
0.136155
0.136085
0.136019
0.135956
0.135896
0.135838
0.135784
0.135731
0.13568
0.135632
0.135588
0.139036
0.139044
0.13903
0.138998
0.138953
0.138896
0.13883
0.138756
0.138675
0.138587
0.138495
0.138398
0.138299
0.138198
0.138096
0.137994
0.137891
0.137789
0.137689
0.13759
0.137493
0.137399
0.137311
0.137225
0.137143
0.137064
0.136988
0.136916
0.136846
0.13678
0.136718
0.136658
0.136601
0.136547
0.136495
0.136446
0.136399
0.136354
0.136311
0.136271
0.136233
0.139255
0.139264
0.139252
0.139226
0.139188
0.13914
0.139084
0.13902
0.13895
0.138874
0.138792
0.138708
0.13862
0.13853
0.13844
0.138349
0.138258
0.138168
0.138079
0.137992
0.137907
0.137824
0.137746
0.13767
0.137598
0.137529
0.137462
0.137399
0.137339
0.137281
0.137227
0.137175
0.137125
0.137078
0.137034
0.136992
0.136951
0.136913
0.136877
0.136842
0.13681
0.139453
0.139462
0.139453
0.139433
0.139403
0.139365
0.139319
0.139266
0.139206
0.139141
0.139071
0.138997
0.13892
0.138841
0.138761
0.138681
0.138601
0.138521
0.138442
0.138365
0.13829
0.138218
0.138149
0.138082
0.138019
0.137957
0.137899
0.137843
0.13779
0.13774
0.137692
0.137647
0.137604
0.137563
0.137525
0.137488
0.137453
0.13742
0.137389
0.137359
0.137331
0.13963
0.139639
0.139634
0.139621
0.139601
0.139573
0.139538
0.139496
0.139448
0.139394
0.139335
0.139272
0.139207
0.139139
0.139069
0.138999
0.138928
0.138858
0.138789
0.138721
0.138655
0.138591
0.13853
0.138471
0.138414
0.13836
0.138309
0.138259
0.138213
0.138168
0.138126
0.138086
0.138049
0.138013
0.137979
0.137947
0.137916
0.137888
0.13786
0.137834
0.13781
0.139787
0.139795
0.139795
0.13979
0.13978
0.139763
0.13974
0.13971
0.139675
0.139635
0.13959
0.139541
0.139489
0.139434
0.139376
0.139317
0.139258
0.139198
0.139138
0.139078
0.139021
0.138964
0.13891
0.138858
0.138807
0.138759
0.138712
0.138668
0.138626
0.138587
0.138549
0.138513
0.13848
0.138448
0.138417
0.138389
0.138361
0.138336
0.138311
0.138288
0.138267
0.139915
0.139922
0.139926
0.139928
0.139925
0.139918
0.139907
0.139891
0.139872
0.13985
0.139824
0.139794
0.139762
0.139726
0.139689
0.139649
0.139608
0.139565
0.139522
0.139479
0.139437
0.139393
0.13935
0.139307
0.139265
0.139223
0.139182
0.139143
0.139104
0.139067
0.139031
0.138997
0.138964
0.138933
0.138903
0.138874
0.138847
0.138822
0.138799
0.138776
0.138756
0.139989
0.139995
0.139999
0.140001
0.14
0.139998
0.139994
0.139988
0.13998
0.139971
0.13996
0.139947
0.139932
0.139916
0.139898
0.13988
0.13986
0.13984
0.139819
0.139797
0.139777
0.139754
0.139732
0.139709
0.139687
0.139664
0.139641
0.139618
0.139596
0.139575
0.139553
0.139533
0.139513
0.139493
0.139474
0.139455
0.139436
0.139417
0.139399
0.139381
0.139361
0.140025
0.14003
0.140034
0.140037
0.140038
0.140039
0.140039
0.140038
0.140036
0.140033
0.140029
0.140024
0.140018
0.140011
0.140003
0.139995
0.139986
0.139977
0.139967
0.139958
0.139948
0.139938
0.139928
0.139918
0.139907
0.139897
0.139887
0.139877
0.139866
0.139856
0.139846
0.139837
0.139827
0.139818
0.139809
0.139799
0.13979
0.139782
0.139773
0.139764
0.139755
0.140044
0.140048
0.140052
0.140055
0.140058
0.140061
0.140063
0.140065
0.140066
0.140067
0.140067
0.140067
0.140066
0.140064
0.140062
0.14006
0.140057
0.140053
0.14005
0.140046
0.140042
0.140038
0.140033
0.140029
0.140024
0.14002
0.140015
0.140011
0.140006
0.140002
0.139997
0.139993
0.139988
0.139984
0.13998
0.139975
0.139971
0.139967
0.139963
0.139959
0.139955
0.140051
0.140055
0.140058
0.140062
0.140065
0.140069
0.140073
0.140077
0.14008
0.140084
0.140087
0.140089
0.140091
0.140093
0.140095
0.140096
0.140097
0.140097
0.140097
0.140097
0.140097
0.140096
0.140095
0.140094
0.140093
0.140091
0.14009
0.140088
0.140087
0.140085
0.140083
0.140081
0.14008
0.140078
0.140076
0.140074
0.140072
0.14007
0.140068
0.140066
0.140064
0.14005
0.140053
0.140056
0.14006
0.140064
0.140068
0.140073
0.140077
0.140082
0.140087
0.140091
0.140096
0.1401
0.140104
0.140108
0.140112
0.140115
0.140118
0.140121
0.140123
0.140125
0.140127
0.140129
0.14013
0.140131
0.140132
0.140133
0.140133
0.140133
0.140134
0.140134
0.140133
0.140133
0.140133
0.140132
0.140132
0.140131
0.14013
0.14013
0.140129
0.140127
0.140042
0.140045
0.140047
0.140051
0.140054
0.140059
0.140063
0.140068
0.140073
0.140078
0.140083
0.140088
0.140094
0.140099
0.140104
0.140109
0.140114
0.140119
0.140124
0.140128
0.140132
0.140136
0.140139
0.140142
0.140145
0.140147
0.14015
0.140152
0.140154
0.140155
0.140157
0.140158
0.140159
0.140159
0.14016
0.140161
0.140161
0.140161
0.140161
0.140161
0.140161
0.140029
0.14003
0.140032
0.140035
0.140038
0.140041
0.140045
0.140048
0.140053
0.140057
0.140061
0.140066
0.140071
0.140076
0.140081
0.140085
0.14009
0.140095
0.1401
0.140105
0.14011
0.140115
0.140119
0.140124
0.140128
0.140132
0.140136
0.14014
0.140143
0.140147
0.14015
0.140153
0.140155
0.140158
0.14016
0.140161
0.140163
0.140164
0.140166
0.140167
0.140167
0.140011
0.140011
0.140012
0.140013
0.140014
0.140016
0.140017
0.140019
0.140021
0.140023
0.140025
0.140027
0.140029
0.140031
0.140033
0.140035
0.140037
0.140038
0.140039
0.140038
0.140037
0.140036
0.140036
0.140036
0.140037
0.140038
0.140039
0.14004
0.140042
0.140043
0.140045
0.140047
0.140048
0.14005
0.140051
0.140053
0.140054
0.140055
0.140057
0.140058
0.140059
0.00264912
0.00333081
0.00402211
0.00523074
0.00689238
0.0088356
0.0109661
0.013261
0.015682
0.0182352
0.0208648
0.0232651
0.0265304
0.0349633
0.0488095
0.0621779
0.0721255
0.0792363
0.0846203
0.0889516
0.092588
0.0956469
0.0982231
0.100432
0.102361
0.104067
0.1056
0.107002
0.1083
0.109521
0.110682
0.111796
0.112874
0.11392
0.114941
0.11594
0.116919
0.11788
0.118821
0.119743
0.120646
0.121529
0.12239
0.123229
0.124045
0.124837
0.125603
0.126341
0.127051
0.127734
0.128388
0.129014
0.129611
0.130181
0.130723
0.131237
0.131726
0.132189
0.132629
0.133046
0.13344
0.133814
0.134168
0.134502
0.134818
0.135116
0.135398
0.135663
0.135914
0.13615
0.136371
0.136586
0.13676
0.137055
0.00557213
0.00594333
0.00564559
0.00576405
0.00665626
0.00817984
0.0100903
0.0122521
0.0145864
0.0170843
0.019681
0.0220067
0.025247
0.0339635
0.0483829
0.062402
0.0728632
0.0803148
0.0859189
0.0903932
0.0940981
0.0971801
0.0997711
0.101987
0.103913
0.105607
0.107122
0.1085
0.109772
0.110964
0.112092
0.11317
0.114207
0.115211
0.116186
0.117138
0.118069
0.118978
0.119869
0.12074
0.121591
0.122422
0.123232
0.124021
0.124787
0.12553
0.126249
0.126941
0.127607
0.128246
0.12886
0.129446
0.130007
0.130542
0.131052
0.131536
0.131997
0.132434
0.13285
0.133244
0.133619
0.133974
0.134311
0.134631
0.134933
0.135219
0.13549
0.135745
0.135987
0.136214
0.136429
0.136637
0.136805
0.137092
0.0085737
0.00939287
0.00884599
0.00803977
0.00773811
0.00826323
0.0095379
0.0113364
0.0134605
0.0158317
0.0183642
0.0206204
0.0236536
0.032142
0.0467487
0.0614461
0.0726369
0.0806353
0.0866086
0.0913307
0.095192
0.0983799
0.101043
0.103304
0.105258
0.106968
0.108486
0.109862
0.111125
0.112303
0.113411
0.114463
0.11547
0.116437
0.117374
0.118283
0.119169
0.120033
0.120876
0.121699
0.122501
0.123284
0.124045
0.124786
0.125505
0.126202
0.126875
0.127523
0.128147
0.128746
0.12932
0.12987
0.130395
0.130897
0.131376
0.131831
0.132264
0.132676
0.133069
0.133442
0.133796
0.134134
0.134455
0.134759
0.135048
0.135322
0.135582
0.135828
0.13606
0.13628
0.136487
0.136688
0.136851
0.13713
0.0106266
0.0124018
0.0124087
0.0115351
0.0105251
0.00993829
0.0100934
0.0110352
0.0126043
0.014638
0.0169934
0.0191487
0.021812
0.0295488
0.0438661
0.0591633
0.0712758
0.0800487
0.0865703
0.091671
0.095794
0.0991729
0.101977
0.104342
0.106372
0.108137
0.109696
0.111095
0.112369
0.113546
0.114645
0.11568
0.116663
0.1176
0.118504
0.119376
0.120222
0.121044
0.121845
0.122623
0.123379
0.124115
0.124831
0.125526
0.126199
0.126852
0.127482
0.128089
0.128673
0.129233
0.12977
0.130284
0.130776
0.131247
0.131695
0.132122
0.132529
0.132917
0.133287
0.133639
0.133974
0.134294
0.134599
0.134889
0.135164
0.135426
0.135675
0.135911
0.136134
0.136346
0.136547
0.136742
0.1369
0.137169
0.0119935
0.0146402
0.0153917
0.0150556
0.0141592
0.0131354
0.0123793
0.0122032
0.0127442
0.0139943
0.0158578
0.0177675
0.0199
0.0263487
0.0397496
0.0554105
0.0685686
0.0783534
0.0856366
0.0912806
0.0957957
0.0994696
0.1025
0.105038
0.1072
0.109067
0.110703
0.112158
0.11347
0.11467
0.115779
0.116814
0.117788
0.11871
0.119589
0.120431
0.121243
0.122026
0.122785
0.123519
0.124232
0.124923
0.125594
0.126245
0.126875
0.127485
0.128073
0.12864
0.129185
0.129708
0.13021
0.130691
0.13115
0.13159
0.132011
0.132411
0.132793
0.133156
0.133504
0.133836
0.134152
0.134455
0.134744
0.135019
0.135282
0.135532
0.13577
0.135996
0.13621
0.136415
0.136608
0.136797
0.13695
0.137211
0.0138496
0.01625
0.0174437
0.0177747
0.0174852
0.0167642
0.0158551
0.0150458
0.0146067
0.0147538
0.0156534
0.0169599
0.0183466
0.0229661
0.0346016
0.0501139
0.0642921
0.0752999
0.0835862
0.089976
0.0950457
0.0991442
0.102506
0.105304
0.107669
0.109696
0.111458
0.11301
0.114394
0.115645
0.116789
0.117844
0.118825
0.119744
0.120611
0.121434
0.122218
0.12297
0.123692
0.124387
0.125059
0.125708
0.126337
0.126946
0.127535
0.128104
0.128653
0.129182
0.12969
0.130178
0.130646
0.131094
0.131523
0.131934
0.132326
0.1327
0.133056
0.133396
0.133722
0.134034
0.134331
0.134617
0.13489
0.135151
0.135401
0.135639
0.135867
0.136083
0.136288
0.136485
0.136672
0.136854
0.137006
0.137257
0.016288
0.0177683
0.0187589
0.0194476
0.0198115
0.0197396
0.0192851
0.0185928
0.0178475
0.0172643
0.0171431
0.0175326
0.0179713
0.0202998
0.0290373
0.043419
0.0582842
0.0706164
0.080145
0.0875165
0.0933388
0.0980231
0.101848
0.105015
0.107674
0.109937
0.111887
0.113588
0.11509
0.116431
0.11764
0.118742
0.119754
0.120689
0.12156
0.122375
0.123143
0.12387
0.124563
0.125224
0.125859
0.126469
0.127058
0.127626
0.128175
0.128705
0.129216
0.129708
0.13018
0.130635
0.13107
0.131488
0.131888
0.132271
0.132637
0.132987
0.13332
0.133639
0.133944
0.134236
0.134516
0.134784
0.135041
0.135287
0.135523
0.135749
0.135966
0.136172
0.13637
0.13656
0.13674
0.136915
0.137062
0.137305
0.0175841
0.0191943
0.0202103
0.0205275
0.0211741
0.0215974
0.0217361
0.0215918
0.0211906
0.0206223
0.0200863
0.0198036
0.0195026
0.0197056
0.0244459
0.0360235
0.0506288
0.064092
0.0750159
0.0836074
0.0904096
0.0958741
0.100325
0.103998
0.107068
0.109663
0.111883
0.113804
0.115482
0.116964
0.118284
0.119469
0.120543
0.12152
0.122416
0.123243
0.124009
0.124725
0.125397
0.126031
0.126634
0.127209
0.127759
0.128288
0.128798
0.129289
0.129762
0.130218
0.130656
0.131077
0.131482
0.13187
0.132242
0.132599
0.132941
0.133267
0.13358
0.133878
0.134164
0.134438
0.1347
0.134952
0.135194
0.135426
0.135649
0.135863
0.136069
0.136266
0.136455
0.136636
0.136809
0.136978
0.137119
0.137353
0.018131
0.0197976
0.0212048
0.022126
0.0226957
0.0228805
0.023188
0.023484
0.0235799
0.0234702
0.0231907
0.0228722
0.022447
0.0217095
0.0227469
0.0296567
0.0420681
0.0557893
0.0679713
0.0779352
0.0859392
0.0924001
0.0976701
0.102017
0.10564
0.108694
0.111292
0.113524
0.115459
0.11715
0.11864
0.119961
0.12114
0.122198
0.123152
0.124016
0.124804
0.125526
0.126192
0.12681
0.127388
0.127933
0.128449
0.128941
0.129411
0.129864
0.130299
0.130718
0.131121
0.13151
0.131883
0.132242
0.132587
0.132919
0.133236
0.133541
0.133832
0.134112
0.134379
0.134635
0.134881
0.135118
0.135345
0.135564
0.135775
0.135977
0.136173
0.13636
0.13654
0.136713
0.136878
0.13704
0.137176
0.137401
0.0186446
0.0200115
0.0214428
0.0227742
0.0238748
0.0246082
0.0250159
0.025161
0.0251572
0.0253088
0.0254266
0.0254402
0.0253459
0.0248598
0.0243062
0.0265725
0.0344944
0.046495
0.0590872
0.0702696
0.0795941
0.0872479
0.0935416
0.0987538
0.103107
0.106774
0.109887
0.112553
0.114851
0.116845
0.118586
0.120115
0.121463
0.122655
0.123714
0.124656
0.125499
0.126255
0.126937
0.127557
0.128124
0.128647
0.129135
0.129593
0.130027
0.13044
0.130837
0.131217
0.131584
0.131937
0.132278
0.132607
0.132925
0.13323
0.133525
0.133807
0.134079
0.134339
0.134589
0.134829
0.135059
0.135281
0.135495
0.1357
0.135899
0.13609
0.136275
0.136453
0.136624
0.136789
0.136947
0.137101
0.137233
0.137448
0.0198981
0.0208597
0.0219485
0.0231178
0.0243109
0.0254378
0.0263932
0.0270816
0.0274541
0.0275853
0.0275068
0.027399
0.0274606
0.0274551
0.0270626
0.0270829
0.0302049
0.0381179
0.0491778
0.060698
0.0711269
0.0800422
0.0875284
0.0938023
0.0990804
0.103546
0.107346
0.1106
0.113401
0.115824
0.11793
0.119766
0.121371
0.122776
0.124009
0.125089
0.126038
0.126873
0.127608
0.128258
0.128837
0.129356
0.129827
0.130258
0.130658
0.131034
0.13139
0.13173
0.132057
0.132372
0.132678
0.132974
0.133261
0.133539
0.133809
0.134069
0.13432
0.134562
0.134795
0.135018
0.135234
0.135441
0.135641
0.135835
0.136021
0.136202
0.136376
0.136545
0.136707
0.136864
0.137015
0.137162
0.137289
0.137495
0.0226467
0.0232748
0.0239994
0.0247835
0.0256254
0.0265242
0.0274593
0.0283794
0.0292041
0.0298519
0.0302525
0.0303898
0.0303336
0.0301131
0.0297471
0.0293558
0.0297585
0.032978
0.0401457
0.0500417
0.0606001
0.0704712
0.0791642
0.0866456
0.0930424
0.0985127
0.103203
0.107239
0.110724
0.113743
0.116365
0.118646
0.120634
0.122366
0.123873
0.125182
0.126316
0.127297
0.128144
0.128873
0.129503
0.130049
0.130526
0.130947
0.131323
0.131665
0.131981
0.132279
0.132561
0.132834
0.133098
0.133355
0.133607
0.133854
0.134095
0.134331
0.13456
0.134782
0.134997
0.135204
0.135405
0.135598
0.135785
0.135966
0.136142
0.136312
0.136476
0.136636
0.13679
0.136938
0.137082
0.137223
0.137343
0.137541
0.0275545
0.0279076
0.0283357
0.0287879
0.0292556
0.0297453
0.0302698
0.0308408
0.0314582
0.0320998
0.0327184
0.0332463
0.0336168
0.0337798
0.0337054
0.0333473
0.0327122
0.0326914
0.0350064
0.0406631
0.0490541
0.0586174
0.0680391
0.0766633
0.0843012
0.0909768
0.0967857
0.101837
0.106234
0.110066
0.113409
0.116327
0.118873
0.121092
0.12302
0.124691
0.126131
0.127366
0.128417
0.129307
0.130057
0.130685
0.131212
0.131655
0.13203
0.132353
0.132636
0.132891
0.133127
0.13335
0.133565
0.133776
0.133984
0.134192
0.134398
0.134603
0.134805
0.135004
0.135199
0.135389
0.135574
0.135753
0.135928
0.136097
0.136261
0.13642
0.136575
0.136725
0.13687
0.137012
0.137148
0.137282
0.137398
0.137587
0.0347814
0.0349011
0.0350822
0.0352697
0.0354497
0.0356195
0.0357831
0.0359499
0.0361341
0.0363514
0.0366134
0.0369186
0.0372463
0.0375567
0.0377985
0.037901
0.0377346
0.0372701
0.0369337
0.0376937
0.0408748
0.0468796
0.0548638
0.063593
0.0721408
0.0800428
0.0871512
0.0934679
0.0990504
0.103972
0.108305
0.112117
0.115464
0.118398
0.12096
0.123189
0.125115
0.126768
0.128173
0.129355
0.13034
0.131149
0.131808
0.132338
0.132762
0.133101
0.133375
0.1336
0.133791
0.133961
0.134118
0.134271
0.134424
0.13458
0.13474
0.134904
0.135071
0.13524
0.13541
0.135579
0.135746
0.135909
0.13607
0.136226
0.136379
0.136527
0.136672
0.136813
0.136951
0.137084
0.137213
0.13734
0.137451
0.137631
0.0439345
0.0438689
0.0438522
0.0438341
0.0438012
0.0437485
0.0436735
0.0435763
0.0434599
0.0433315
0.0432026
0.0430883
0.0430037
0.0429591
0.0429558
0.0429816
0.042994
0.0428966
0.0425981
0.0421717
0.0420899
0.0431582
0.0460591
0.0510777
0.0578934
0.0656483
0.073539
0.081065
0.0879991
0.0942783
0.0999136
0.104943
0.109415
0.113375
0.11687
0.119939
0.122617
0.124935
0.126923
0.128608
0.130017
0.131175
0.132112
0.132853
0.133428
0.133862
0.134184
0.134418
0.134587
0.134712
0.134811
0.134896
0.134978
0.135065
0.135161
0.135267
0.135385
0.135511
0.135646
0.135786
0.135928
0.136072
0.136215
0.136357
0.136498
0.136635
0.13677
0.136902
0.137031
0.137156
0.137278
0.137399
0.137504
0.137676
0.0543947
0.0541928
0.0540284
0.0538592
0.0536745
0.0534695
0.0532412
0.0529866
0.0527036
0.0523911
0.0520501
0.0516842
0.0513009
0.0509114
0.0505298
0.0501715
0.0498504
0.0495644
0.0492758
0.0489152
0.0484464
0.0479859
0.0478629
0.048586
0.0506739
0.0543781
0.0595153
0.0658897
0.0729368
0.0801049
0.0870069
0.0934401
0.0993303
0.104668
0.109466
0.11375
0.117548
0.120887
0.123796
0.126302
0.128432
0.130214
0.131676
0.132848
0.133763
0.134452
0.13495
0.135291
0.135508
0.135633
0.135694
0.135716
0.135719