/*--------------------------------*- C++ -*----------------------------------*\
| =========                 |                                                 |
| \\      /  F ield         | OpenFOAM: The Open Source CFD Toolbox           |
|  \\    /   O peration     | Version:  5.x                                   |
|   \\  /    A nd           | Web:      www.OpenFOAM.org                      |
|    \\/     M anipulation  |                                                 |
\*---------------------------------------------------------------------------*/
FoamFile
{
    version     2.0;
    format      ascii;
    class       volScalarField;
    location    "100";
    object      nut;
}
// * * * * * * * * * * * * * * * * * * * * * * * * * * * * * * * * * * * * * //

dimensions      [0 2 -1 0 0 0 0];

internalField   nonuniform List<scalar> 
41860
(
3.08566e-06
5.99517e-06
1.98667e-05
2.00616e-05
1.39489e-05
1.00622e-05
6.65929e-06
4.51742e-06
3.17652e-06
2.41869e-06
1.96215e-06
1.77136e-06
1.47377e-06
1.42465e-06
1.17517e-06
1.12376e-06
9.89551e-07
9.0904e-07
8.62055e-07
1.4044e-06
1.55176e-06
9.43359e-07
1.6364e-06
9.73437e-07
1.98992e-06
9.70192e-07
9.59526e-07
1.18514e-06
9.44052e-07
9.39432e-07
8.02794e-07
3.54049e-06
3.58404e-06
7.82054e-07
3.51296e-06
7.75855e-07
3.39679e-06
3.34448e-06
1.02066e-06
9.36295e-07
2.73429e-06
1.28722e-06
8.6716e-07
8.70714e-07
8.6734e-07
7.45964e-07
8.76171e-07
8.77389e-07
8.81728e-07
7.51318e-07
7.49282e-07
7.5577e-07
7.53593e-07
9.07439e-07
9.15792e-07
8.32499e-07
8.4677e-07
7.79834e-07
8.43587e-07
7.91443e-07
9.71987e-07
8.0259e-07
3.08646e-06
8.12068e-07
4.06014e-06
1.02517e-06
9.14875e-07
9.08458e-07
1.05504e-06
8.6318e-07
9.28029e-07
1.08514e-06
1.0955e-06
4.14615e-06
9.80491e-07
1.10811e-06
9.86733e-07
9.57966e-07
1.76503e-06
8.59747e-07
1.00874e-06
2.4876e-07
0.000157369
0.000196373
0.000295841
0.000297544
0.000262132
0.000234974
0.000205248
0.000180831
0.000160927
0.000146635
0.000136236
0.000131264
0.000122697
0.000121082
0.000112514
0.000110508
0.00010486
0.000100497
9.75189e-05
9.1101e-05
8.95758e-05
8.64805e-05
8.36035e-05
8.37215e-05
7.93616e-05
8.15476e-05
7.98555e-05
7.71515e-05
7.86196e-05
7.84315e-05
7.2806e-05
7.3523e-05
7.35301e-05
7.22018e-05
7.39689e-05
7.28788e-05
7.5149e-05
7.58166e-05
7.82165e-05
8.22235e-05
8.05136e-05
8.30421e-05
7.43307e-05
7.43825e-05
7.09688e-05
6.79098e-05
7.45685e-05
7.42088e-05
7.49366e-05
6.83648e-05
6.85825e-05
6.88705e-05
6.92677e-05
7.64861e-05
7.67736e-05
7.34982e-05
7.39195e-05
7.13972e-05
7.49223e-05
7.23624e-05
7.99227e-05
7.34941e-05
7.64012e-05
7.46538e-05
7.71971e-05
8.25514e-05
7.90658e-05
7.96952e-05
8.39447e-05
7.82976e-05
8.10306e-05
8.53136e-05
8.61148e-05
8.12685e-05
8.22833e-05
8.66768e-05
8.28617e-05
8.27101e-05
8.20783e-05
7.91929e-05
8.3908e-05
5.24483e-07
0.000209045
0.000249836
0.000378695
0.000381902
0.000336564
0.000301389
0.000263249
0.00023213
0.000207018
0.000189441
0.000177705
0.000172803
0.00016614
0.000165582
0.000163118
0.00016299
0.000163102
0.000163273
0.00016329
0.000163421
0.000162782
0.000164915
0.000162637
0.000163938
0.000161701
0.000162526
0.000162235
0.000159745
0.000160308
0.000159167
0.0001584
0.000154628
0.000153497
0.000155278
0.000151733
0.000153465
0.00015035
0.000149894
0.000150986
0.000151859
0.000149754
0.000151002
0.000150495
0.000150195
0.000149118
0.000149352
0.000149452
0.000149432
0.000149148
0.000148498
0.000148402
0.000148303
0.000148415
0.000149109
0.000149215
0.000148431
0.000148457
0.000148857
0.000148879
0.000149173
0.000150419
0.000149674
0.000148525
0.00015022
0.000148528
0.000151741
0.000150824
0.000151158
0.000152339
0.000151676
0.000151696
0.000152854
0.000153186
0.000150178
0.000151837
0.000152887
0.000151536
0.000150991
0.000149822
0.000148288
0.000151929
1.09326e-06
0.000299796
0.000340311
0.000467784
0.000474576
0.000431717
0.000381651
0.000341194
0.000310085
0.00028547
0.000272581
0.000272785
0.000273284
0.000278879
0.000277474
0.000283398
0.000281478
0.000282853
0.000282092
0.000280476
0.000279941
0.000277105
0.00027712
0.000273552
0.000272395
0.000269474
0.0002676
0.000265905
0.00026225
0.000261055
0.000258516
0.000256931
0.000253395
0.000251033
0.000250458
0.000247015
0.000246595
0.000243544
0.000242176
0.000240971
0.000240508
0.000238867
0.000238521
0.000238197
0.000237128
0.000235998
0.000236195
0.000234823
0.000234394
0.000233555
0.000233582
0.000233061
0.0002326
0.000232328
0.000231534
0.000231331
0.000230793
0.000230494
0.000231113
0.000230253
0.000230791
0.000230557
0.000230671
0.000229757
0.000230629
0.000229503
0.000230391
0.000229816
0.000229867
0.00022991
0.000230055
0.000229272
0.000229354
0.000229254
0.000227705
0.000227851
0.00022748
0.000226507
0.000225144
0.000223857
0.000220788
0.000225922
2.2426e-06
0.000429809
0.000513579
0.00069735
0.000703478
0.000669175
0.000594896
0.000544872
0.000502803
0.00046556
0.000440037
0.000435508
0.000431335
0.000435371
0.000429145
0.000433344
0.00042722
0.000425859
0.000421729
0.000417138
0.000413968
0.000408326
0.000405382
0.000399917
0.000395921
0.000391464
0.00038695
0.000383413
0.000378357
0.000375041
0.000370867
0.000367452
0.0003634
0.000359593
0.000356872
0.000352969
0.000350628
0.00034719
0.000344842
0.000342329
0.000340676
0.000338609
0.000337346
0.000336133
0.000334024
0.000332292
0.000331339
0.00032952
0.00032838
0.000327
0.000326288
0.000325186
0.000324237
0.000323367
0.000322234
0.00032151
0.000320726
0.000319983
0.000319799
0.000318758
0.000318568
0.000317897
0.000317548
0.000316791
0.000316611
0.000315738
0.000315453
0.000314631
0.000314211
0.000313392
0.000313088
0.000311892
0.000311219
0.000310451
0.0003089
0.000308007
0.000306524
0.000305187
0.000302644
0.000300796
0.00029537
0.000303287
4.48719e-06
0.00060358
0.000752808
0.00107909
0.00109024
0.00103607
0.000918487
0.000835733
0.000765745
0.00070412
0.000656232
0.000637126
0.000623651
0.00062149
0.000608819
0.000608332
0.00059683
0.000591244
0.000582565
0.000574193
0.000567182
0.000558157
0.000551843
0.000543615
0.000536625
0.000529782
0.000522627
0.000516806
0.000509832
0.000504272
0.000498203
0.000492837
0.00048742
0.000481943
0.000477395
0.000472271
0.000468376
0.000463823
0.000460352
0.000456718
0.000453902
0.000450976
0.000448939
0.000446121
0.000442649
0.000439804
0.00043768
0.000435177
0.000433098
0.000431064
0.000429372
0.000427543
0.000425926
0.000424224
0.000422655
0.000421162
0.000419823
0.000418484
0.000417364
0.000415906
0.000414868
0.000413627
0.000412581
0.000411408
0.000410341
0.000409091
0.000407912
0.000406506
0.00040537
0.000403646
0.000402569
0.000400642
0.000399165
0.000397439
0.000395164
0.000393215
0.000390537
0.000388356
0.00038426
0.000381466
0.000373254
0.000384682
8.65063e-06
0.000845034
0.0010534
0.00156497
0.00158508
0.00148803
0.00131584
0.00118864
0.00108304
0.00099167
0.000916543
0.000875437
0.000848306
0.000836614
0.00081583
0.000808691
0.000790736
0.000779832
0.000765698
0.000752852
0.000741164
0.000728212
0.000718115
0.000706489
0.000696234
0.000686411
0.000676435
0.000667944
0.00065858
0.000650614
0.000642365
0.000634874
0.000627611
0.000620214
0.000613771
0.000606982
0.000601528
0.000595411
0.00059063
0.000585728
0.000581658
0.000577652
0.000574751
0.000569873
0.000564675
0.000560209
0.00055687
0.000553337
0.000550073
0.00054723
0.000544372
0.000541653
0.000539156
0.000536391
0.000534167
0.000531629
0.00052946
0.000527341
0.000525158
0.000522989
0.000520981
0.000518906
0.000517009
0.000514996
0.000513006
0.000510956
0.000508772
0.000506494
0.000504359
0.000501567
0.000499458
0.000496436
0.000493955
0.000490952
0.000487523
0.000484221
0.0004801
0.000476637
0.000470589
0.000466449
0.000454946
0.000470536
1.58264e-05
0.00118672
0.00142091
0.00214022
0.00217093
0.00201757
0.00178225
0.00160326
0.001457
0.00133208
0.00122632
0.00115583
0.00110927
0.00108429
0.00105319
0.00103751
0.00101183
0.000994493
0.000973977
0.000955891
0.000938756
0.000921264
0.000906877
0.000891281
0.000877353
0.000864053
0.000850906
0.000839349
0.000827172
0.000816508
0.000805758
0.000795873
0.000786397
0.000776784
0.000768191
0.000759378
0.000752171
0.000744136
0.0007378
0.000731396
0.000725868
0.000720585
0.00071665
0.000709397
0.000702078
0.000695501
0.000690743
0.000685841
0.000681101
0.000677253
0.000673001
0.000669184
0.00066558
0.000661499
0.000658392
0.000654524
0.000651251
0.000648141
0.00064468
0.000641529
0.000638348
0.000635154
0.000632208
0.000629009
0.00062592
0.000622733
0.000619285
0.000615853
0.000612402
0.000608291
0.000604852
0.00060037
0.000596587
0.000591952
0.00058699
0.000581937
0.000576002
0.000570807
0.00056236
0.000556396
0.000541026
0.000561337
2.70708e-05
0.00163952
0.00186686
0.00281007
0.00285236
0.00263184
0.0023248
0.00208732
0.00189572
0.00173364
0.00159458
0.00148862
0.00141478
0.00137129
0.00132668
0.00130011
0.001265
0.00123984
0.00121182
0.00118752
0.00116409
0.00114128
0.00112197
0.00110177
0.00108363
0.00106631
0.00104951
0.00103443
0.00101898
0.00100522
0.000991572
0.000978933
0.000966861
0.000954671
0.000943562
0.000932338
0.00092307
0.000912753
0.000904544
0.000896355
0.000889078
0.000882273
0.000877087
0.000867221
0.000857359
0.000848164
0.000841638
0.000835035
0.00082847
0.000823365
0.00081746
0.000812274
0.000807318
0.000801633
0.000797396
0.000791916
0.000787222
0.000782888
0.000777869
0.000773452
0.000768847
0.000764211
0.000759974
0.000755256
0.000750796
0.000746159
0.000741109
0.00073622
0.0007311
0.00072534
0.000720238
0.000713892
0.00070844
0.000701772
0.000694864
0.000687608
0.000679381
0.000671967
0.000660617
0.000652252
0.000632414
0.000657837
4.2888e-05
0.00222569
0.00240907
0.00358768
0.00364213
0.00334368
0.00295543
0.00265235
0.00241043
0.00220735
0.00203234
0.00188786
0.00177763
0.00170802
0.00164505
0.00160425
0.00155732
0.00152242
0.00148541
0.00145359
0.00142279
0.00139364
0.00136857
0.00134301
0.00131993
0.00129794
0.00127687
0.00125769
0.00123841
0.00122103
0.00120399
0.00118812
0.00117299
0.00115777
0.00114369
0.00112957
0.00111783
0.00110482
0.00109432
0.001084
0.0010746
0.00106595
0.00105924
0.00104655
0.00103371
0.00102134
0.00101256
0.00100392
0.000995114
0.000988434
0.000980591
0.000973688
0.000967115
0.000959487
0.000953831
0.000946468
0.00093997
0.000934152
0.000927256
0.000921242
0.000914938
0.000908489
0.000902673
0.000896088
0.000889906
0.000883508
0.000876452
0.000869761
0.000862591
0.000854776
0.000847645
0.000838973
0.000831424
0.000822266
0.00081294
0.00080299
0.000791896
0.000781716
0.000766896
0.000755449
0.000730566
0.000761247
6.29662e-05
0.0029773
0.00307349
0.00449115
0.00455749
0.00416948
0.00368924
0.00331267
0.00301495
0.0027667
0.00255264
0.00236885
0.00221578
0.00210971
0.00202094
0.00196085
0.00189856
0.00185117
0.00180309
0.00176195
0.00172234
0.00168549
0.00165357
0.00162162
0.00159267
0.00156516
0.001539
0.00151499
0.00149117
0.00146949
0.00144841
0.0014287
0.00140993
0.00139111
0.00137346
0.00135586
0.00134109
0.00132488
0.00131156
0.0012987
0.00128671
0.00127576
0.00126719
0.00125147
0.00123518
0.00121904
0.00120737
0.00119631
0.00118478
0.00117612
0.00116603
0.00115698
0.00114849
0.00113852
0.00113109
0.00112159
0.00111284
0.00110523
0.00109611
0.00108811
0.00107981
0.00107113
0.00106339
0.00105458
0.00104624
0.00103776
0.00102824
0.00101935
0.00100973
0.000999377
0.000989821
0.000978302
0.00096816
0.000955995
0.00094371
0.000930542
0.000915922
0.000902364
0.000883451
0.00086812
0.000837699
0.000873478
8.65293e-05
0.00393479
0.0038957
0.00554321
0.00561944
0.00512875
0.00454432
0.00408541
0.0037258
0.00342782
0.00317113
0.00294688
0.00275
0.00259786
0.00247252
0.00238528
0.00230228
0.00223827
0.0021761
0.00212308
0.0020727
0.0020263
0.00198601
0.00194631
0.00191024
0.00187609
0.00184376
0.00181394
0.00178464
0.00175777
0.00173181
0.00170744
0.00168429
0.00166111
0.00163917
0.00161731
0.00159881
0.00157878
0.00156194
0.001546
0.00153085
0.00151702
0.00150614
0.00148713
0.0014669
0.00144632
0.00143098
0.00141707
0.00140226
0.0013911
0.00137842
0.00136668
0.00135591
0.00134315
0.00133352
0.00132162
0.0013101
0.00130035
0.00128865
0.00127819
0.00126758
0.0012562
0.00124613
0.00123471
0.00122372
0.00121281
0.00120035
0.0011888
0.0011763
0.00116286
0.00115045
0.00113552
0.00112221
0.00110647
0.0010906
0.00107367
0.00105481
0.00103719
0.00101352
0.000993367
0.000957055
0.000997425
0.00011296
0.00514764
0.00491924
0.00677131
0.0068528
0.00624431
0.00554187
0.00499072
0.00456249
0.00420984
0.00390658
0.00363949
0.00339939
0.00319881
0.00302548
0.00289945
0.00278752
0.00270052
0.00261978
0.00255114
0.00248715
0.00242861
0.00237783
0.00232853
0.00228363
0.0022413
0.00220136
0.00216443
0.00212838
0.00209515
0.00206319
0.00203307
0.00200454
0.00197605
0.00194887
0.00192176
0.00189859
0.00187396
0.00185273
0.00183298
0.00181397
0.0017965
0.00178272
0.00176007
0.00173537
0.00170965
0.00168966
0.00167235
0.00165364
0.00163932
0.00162363
0.00160859
0.00159508
0.00157903
0.00156663
0.00155208
0.00153726
0.00152489
0.00151024
0.00149679
0.0014835
0.00146894
0.00145603
0.00144163
0.00142743
0.00141372
0.00139784
0.00138308
0.00136729
0.00135015
0.0013344
0.00131548
0.00129837
0.00127843
0.00125828
0.00123703
0.00121318
0.00119078
0.00116165
0.00113558
0.00109322
0.0011373
0.000142117
0.00667562
0.00619203
0.00820517
0.00828676
0.00754258
0.00670649
0.00605211
0.00554788
0.00513532
0.00478127
0.00446819
0.00418377
0.00393663
0.00371151
0.00353405
0.00338124
0.00326143
0.00315525
0.00306538
0.00298363
0.0029093
0.00284497
0.00278344
0.00272736
0.00267474
0.00262519
0.00257934
0.00253486
0.00249365
0.00245419
0.00241687
0.00238162
0.00234654
0.00231289
0.00227929
0.00225022
0.00221997
0.00219323
0.00216871
0.00214494
0.00212284
0.00210535
0.00207861
0.00204884
0.00201724
0.00199146
0.00197
0.00194669
0.00192836
0.00190915
0.0018901
0.00187327
0.00185335
0.00183749
0.00181998
0.0018013
0.00178577
0.00176775
0.00175069
0.00173429
0.00171604
0.00169973
0.00168195
0.00166394
0.00164701
0.00162724
0.00160869
0.00158916
0.00156768
0.00154807
0.00152459
0.00150299
0.00147821
0.00145297
0.00142682
0.0013973
0.00136937
0.00133409
0.00130081
0.0012525
0.00129898
0.000174255
0.00859009
0.00776889
0.00986653
0.00995518
0.00905395
0.00806663
0.00729687
0.00670864
0.00623073
0.00582153
0.00545894
0.0051277
0.00483438
0.00455946
0.0043265
0.00412055
0.00395409
0.0038121
0.00369249
0.00358671
0.00349124
0.00340893
0.0033314
0.00326075
0.00319484
0.0031329
0.00307563
0.00302038
0.00296899
0.00291997
0.00287349
0.0028297
0.00278634
0.00274459
0.0027029
0.00266633
0.0026291
0.00259543
0.00256484
0.00253515
0.00250718
0.00248487
0.0024534
0.00241786
0.00237956
0.00234671
0.00232009
0.00229136
0.00226797
0.00224455
0.00222065
0.00219975
0.00217533
0.00215519
0.00213427
0.00211119
0.0020918
0.00206993
0.00204859
0.00202853
0.00200607
0.00198569
0.00196411
0.00194168
0.00192102
0.00189695
0.00187396
0.00185024
0.00182379
0.0017997
0.00177114
0.00174436
0.0017141
0.00168293
0.00165126
0.00161542
0.00158126
0.00153922
0.00149723
0.00144333
0.00149038
0.000209792
0.0109752
0.00971706
0.0117662
0.0118893
0.0108133
0.00965485
0.00875648
0.00807572
0.00752692
0.00705826
0.00664266
0.00626148
0.00592049
0.00559649
0.00531066
0.00504813
0.00482265
0.00463123
0.00446947
0.00433033
0.00420585
0.00409897
0.00399991
0.00390981
0.0038263
0.00374804
0.0036758
0.0036065
0.00354189
0.00348047
0.00342216
0.00336735
0.0033134
0.00326139
0.00320952
0.00316335
0.00311731
0.00307488
0.00303646
0.00299931
0.00296386
0.00293526
0.00289816
0.00285601
0.00281013
0.00276876
0.00273561
0.00270044
0.0026707
0.00264212
0.00261243
0.0025865
0.00255684
0.00253142
0.00250649
0.00247842
0.00245434
0.00242803
0.00240164
0.0023772
0.00234998
0.00232479
0.00229889
0.00227145
0.00224646
0.00221769
0.0021896
0.00216116
0.00212912
0.00209987
0.00206575
0.00203314
0.00199682
0.00195887
0.00192098
0.00187826
0.00183725
0.00178797
0.0017356
0.0016768
0.00172177
0.000249086
0.0139286
0.0121195
0.0139205
0.014069
0.0128562
0.0115084
0.010467
0.00968477
0.00905975
0.00852755
0.00805571
0.00762149
0.00723055
0.00685616
0.006519
0.0062019
0.00591544
0.00566435
0.00544606
0.00526081
0.00509614
0.00495509
0.00482641
0.00470977
0.00460245
0.00450221
0.00440994
0.00432198
0.00423988
0.00416212
0.00408829
0.00401902
0.00395135
0.00388615
0.00382133
0.00376279
0.00370548
0.0036519
0.00360328
0.0035566
0.00351161
0.00347471
0.00343067
0.00338089
0.00332639
0.00327492
0.00323349
0.00319054
0.00315291
0.00311786
0.00308122
0.00304906
0.00301326
0.00298143
0.00295156
0.00291784
0.0028881
0.00285655
0.00282427
0.00279456
0.00276192
0.00273108
0.00270022
0.00266715
0.0026371
0.00260318
0.0025693
0.00253554
0.00249728
0.00246211
0.00242192
0.00238294
0.00234007
0.00229454
0.00224968
0.00219954
0.00215112
0.00209432
0.0020298
0.00196727
0.00200612
0.000292248
0.017562
0.0150762
0.0163626
0.0164323
0.0151674
0.0136643
0.0124691
0.0115768
0.0108704
0.0102712
0.00974057
0.00925074
0.00880769
0.00838074
0.00799173
0.00762087
0.00727616
0.00696421
0.00668127
0.00643736
0.00621896
0.00603094
0.00586138
0.00570815
0.00556816
0.00543795
0.00531848
0.00520536
0.00509978
0.0050002
0.00490573
0.00481724
0.00473155
0.00464915
0.00456767
0.00449308
0.00442114
0.0043532
0.00429126
0.00423221
0.00417498
0.00412711
0.00407426
0.00401549
0.00395113
0.00388782
0.0038359
0.00378343
0.003736
0.00369274
0.00364771
0.00360784
0.00356472
0.00352515
0.00348911
0.00344884
0.00341229
0.00337446
0.00333529
0.0032992
0.00326031
0.00322288
0.00318621
0.00314682
0.00311082
0.00307117
0.00303076
0.00299092
0.00294582
0.00290384
0.00285703
0.00281116
0.00276137
0.00270762
0.00265495
0.00259678
0.00254037
0.00247597
0.00239751
0.00233309
0.00235968
0.000338959
0.0220006
0.0187049
0.0191449
0.0189475
0.0176327
0.0160934
0.0147975
0.013796
0.013006
0.0123375
0.0117465
0.0111994
0.0107029
0.0102214
0.00977939
0.00935385
0.00895219
0.00858094
0.00823323
0.00792495
0.00764222
0.00739397
0.00716998
0.00696726
0.00678281
0.00661174
0.00645523
0.00630799
0.00617069
0.00604169
0.00591957
0.00580532
0.00569567
0.00559059
0.00548742
0.0053919
0.00530074
0.00521417
0.00513473
0.00505943
0.00498641
0.00492401
0.00485965
0.00479004
0.0047142
0.00463713
0.00457211
0.00450777
0.00444826
0.00439452
0.00433925
0.00428981
0.00423784
0.00418897
0.00414507
0.00409703
0.00405231
0.00400682
0.00395957
0.00391575
0.00386954
0.00382443
0.00378083
0.00373425
0.00369122
0.00364499
0.00359726
0.00355041
0.00349774
0.00344796
0.00339377
0.00334053
0.00328348
0.003221
0.00315967
0.0030927
0.00302757
0.00295553
0.0028614
0.00279774
0.0028034
0.000388254
0.0273823
0.0231406
0.0223363
0.0216122
0.0201798
0.0186511
0.0173703
0.016352
0.0155085
0.0147776
0.0141286
0.0135252
0.0129757
0.0124387
0.0119428
0.0114612
0.0110023
0.0105719
0.0101605
0.0097872
0.00943596
0.00911889
0.00882865
0.00856308
0.00832068
0.00809552
0.00788953
0.00769655
0.00751669
0.0073482
0.00718908
0.00704026
0.00689864
0.00676351
0.0066319
0.00650895
0.00639244
0.0062815
0.00617905
0.0060823
0.00598874
0.00590712
0.00582743
0.00574437
0.00565489
0.00556184
0.00548073
0.00540157
0.0053272
0.00526011
0.00519218
0.00513086
0.00506797
0.00500789
0.00495401
0.00489645
0.00484193
0.00478707
0.00473025
0.00467712
0.00462218
0.0045681
0.00451615
0.00446123
0.00440988
0.00435591
0.00429989
0.00424492
0.00418384
0.00412521
0.00406264
0.00400137
0.00393667
0.00386509
0.00379428
0.00371758
0.00364265
0.00356281
0.0034513
0.00339173
0.00336799
0.000438263
0.0338567
0.0285315
0.0260134
0.0244386
0.022774
0.0212509
0.0200353
0.0190894
0.0183011
0.0175898
0.0169234
0.0162809
0.0156865
0.0150977
0.0145497
0.014012
0.0134955
0.0130051
0.0125297
0.0120908
0.0116696
0.01128
0.0109164
0.0105781
0.0102659
0.00997356
0.00970473
0.00945277
0.00921752
0.00899727
0.00878951
0.00859498
0.00841108
0.0082363
0.00806746
0.00790874
0.00775888
0.00761606
0.00748347
0.00735844
0.0072381
0.00713117
0.00703093
0.00693071
0.00682462
0.00671293
0.00661243
0.00651483
0.00642231
0.0063384
0.00625471
0.00617865
0.00610213
0.00602843
0.00596195
0.00589254
0.00582621
0.00575991
0.0056917
0.00562745
0.00556201
0.00549742
0.00543541
0.00537063
0.00530946
0.00524626
0.00518082
0.00511652
0.00504605
0.0049775
0.0049053
0.00483517
0.00476223
0.00468127
0.00460028
0.00451283
0.00442681
0.00433866
0.00420823
0.00415564
0.004107
0.000485983
0.0415752
0.035028
0.0302411
0.0274381
0.0253892
0.0238423
0.0227107
0.0218768
0.0212043
0.0205944
0.0200039
0.0194068
0.0188279
0.0182242
0.0176447
0.0170626
0.0164949
0.0159473
0.015409
0.0149049
0.0144132
0.0139494
0.0135092
0.0130926
0.0127029
0.0123336
0.0119907
0.0116675
0.0113642
0.0110793
0.0108101
0.0105573
0.010319
0.0100931
0.00987637
0.00967173
0.00947871
0.0092947
0.00912314
0.00896126
0.00880624
0.0086664
0.00853882
0.00841633
0.00828957
0.00815588
0.00803242
0.00791229
0.00779778
0.00769305
0.00758979
0.00749552
0.00740196
0.00731165
0.00722947
0.00714526
0.00706469
0.00698455
0.00690278
0.00682536
0.00674735
0.00667043
0.00659644
0.00651998
0.00644734
0.00637319
0.00629703
0.00622217
0.00614128
0.00606187
0.00597871
0.00589871
0.00581678
0.00572616
0.00563461
0.0055356
0.0054373
0.00533997
0.00518953
0.00514445
0.00512189
0.000527185
0.0505671
0.042721
0.0350285
0.0305983
0.0279897
0.0263745
0.0253387
0.0246422
0.0241164
0.0236472
0.0231846
0.0227001
0.0222138
0.0216736
0.0211317
0.0205615
0.0199838
0.0194083
0.0188264
0.0182702
0.0177168
0.017184
0.0166698
0.0161751
0.0157058
0.015255
0.0148317
0.0144291
0.014048
0.0136877
0.0133458
0.0130229
0.0127183
0.0124294
0.0121532
0.0118916
0.0116446
0.0114089
0.0111883
0.0109797
0.0107806
0.0105989
0.0104359
0.0102846
0.0101318
0.00997194
0.00982163
0.00967462
0.00953392
0.00940406
0.00927687
0.00916039
0.0090458
0.00893533
0.00883397
0.00873149
0.00863381
0.00853719
0.00843939
0.00834663
0.00825376
0.00816253
0.00807454
0.00798441
0.0078986
0.00781175
0.0077235
0.00763695
0.0075447
0.00745375
0.0073585
0.00726763
0.00717588
0.00707539
0.00697338
0.00686253
0.00675128
0.00664372
0.00647327
0.0064337
0.00648165
0.000671423
0.0603726
0.0513704
0.040236
0.0338361
0.0305107
0.0287785
0.027853
0.0273209
0.0269693
0.0266658
0.0263586
0.0260228
0.0256733
0.0252505
0.0248074
0.0243154
0.0237956
0.0232552
0.0226855
0.0221242
0.0215468
0.0209742
0.0204078
0.0198509
0.0193126
0.0187868
0.0182863
0.0178042
0.0173428
0.0169025
0.0164815
0.0160809
0.015701
0.0153396
0.0149941
0.0146657
0.0143547
0.0140572
0.0137776
0.0135123
0.0132596
0.0130267
0.0128195
0.0126322
0.012447
0.0122559
0.0120746
0.0118964
0.0117253
0.0115661
0.0114105
0.0112676
0.0111278
0.0109933
0.0108691
0.0107447
0.0106267
0.0105109
0.0103945
0.0102841
0.0101742
0.0100666
0.00996273
0.00985704
0.00975643
0.00965533
0.00955372
0.00945456
0.00935022
0.00924738
0.00913938
0.00903684
0.00893456
0.00882402
0.00871209
0.00858975
0.00846563
0.00834661
0.00815785
0.00811978
0.00818323
0.000504295
0.0703061
0.0602836
0.0453989
0.0368979
0.0328217
0.0309542
0.0301697
0.0298347
0.029689
0.0295758
0.0294461
0.029286
0.0291007
0.0288263
0.0285193
0.0281497
0.02774
0.0272907
0.0267944
0.0262896
0.0257477
0.0251907
0.0246221
0.024046
0.0234742
0.0229021
0.0223468
0.0218021
0.0212725
0.0207602
0.0202647
0.0197881
0.0193322
0.0188956
0.0184766
0.0180763
0.0176951
0.0173292
0.0169834
0.0166539
0.0163395
0.0160476
0.0157889
0.0155587
0.0153349
0.0151075
0.0148913
0.0146783
0.0144731
0.014281
0.0140933
0.0139202
0.0137513
0.0135892
0.0134388
0.0132892
0.0131478
0.0130102
0.0128728
0.0127429
0.012614
0.0124883
0.012367
0.0122442
0.0121275
0.0120109
0.011895
0.0117825
0.0116656
0.0115509
0.01143
0.0113154
0.011202
0.0110813
0.0109601
0.0108271
0.0106906
0.0105588
0.0103546
0.0103142
0.0100916
0.00679473
0.0798189
0.068461
0.0508125
0.0397429
0.0349223
0.0329275
0.0322844
0.0321421
0.0321925
0.0322906
0.0323598
0.0324036
0.0324055
0.0323025
0.0321574
0.0319406
0.0316774
0.0313565
0.0309789
0.0305801
0.0301259
0.0296394
0.0291255
0.0285867
0.0280347
0.0274658
0.0269006
0.0263324
0.0257682
0.0252118
0.024665
0.0241308
0.0236131
0.023112
0.0226268
0.0221596
0.0217112
0.021278
0.0208659
0.0204707
0.0200921
0.0197376
0.019424
0.0191473
0.0188811
0.018614
0.0183604
0.0181107
0.0178696
0.0176426
0.0174207
0.017215
0.0170148
0.0168227
0.0166438
0.0164668
0.0162999
0.0161386
0.0159787
0.0158278
0.0156788
0.015534
0.0153943
0.0152537
0.0151201
0.0149875
0.0148566
0.0147305
0.0146012
0.0144747
0.0143416
0.0142149
0.01409
0.0139591
0.013829
0.0136861
0.013538
0.0133921
0.013175
0.0131138
0.0127265
0.0110078
0.0884426
0.0756555
0.0573285
0.0440911
0.0374814
0.0351409
0.0345493
0.0345324
0.0347158
0.0349552
0.0351638
0.0353505
0.0354937
0.0355763
0.0356159
0.035578
0.0354918
0.0353256
0.0351026
0.0348471
0.0345177
0.0341432
0.0337309
0.0332784
0.032796
0.0322827
0.0317592
0.0312171
0.0306656
0.0301093
0.0295516
0.0289963
0.0284489
0.0279111
0.0273836
0.0268697
0.026371
0.0258848
0.0254178
0.0249664
0.0245309
0.0241193
0.0237548
0.0234344
0.0231272
0.0228218
0.0225319
0.0222473
0.0219718
0.0217115
0.0214565
0.0212189
0.0209877
0.0207658
0.0205585
0.0203544
0.0201617
0.0199766
0.0197942
0.0196224
0.0194535
0.01929
0.0191321
0.0189743
0.0188241
0.0186761
0.0185306
0.0183912
0.01825
0.0181125
0.0179683
0.0178303
0.0176941
0.017553
0.0174141
0.0172621
0.0171029
0.0169421
0.0167132
0.0166149
0.0161612
0.015473
0.0957198
0.0832207
0.0652839
0.0510654
0.042443
0.0389181
0.037854
0.0376732
0.0377913
0.0380112
0.0382354
0.0384507
0.038643
0.0388036
0.0389416
0.0390098
0.0390724
0.0390729
0.0390406
0.038959
0.0387802
0.03855
0.0382781
0.0379498
0.0375758
0.0371621
0.0367253
0.0362547
0.035762
0.0352522
0.0347292
0.034197
0.0336617
0.0331269
0.0325938
0.0320668
0.0315484
0.0310371
0.0305401
0.0300549
0.0295824
0.0291308
0.0287297
0.0283768
0.0280384
0.0277033
0.0273847
0.0270725
0.0267697
0.0264824
0.0262005
0.0259361
0.0256789
0.0254316
0.0251996
0.0249721
0.0247567
0.0245508
0.0243487
0.0241586
0.0239726
0.0237928
0.0236192
0.0234465
0.0232819
0.0231205
0.0229625
0.0228113
0.02266
0.0225129
0.0223598
0.0222123
0.0220658
0.0219149
0.0217675
0.0216071
0.0214374
0.0212618
0.0210195
0.0208791
0.0204022
0.0199531
0.101472
0.0908036
0.074497
0.0604499
0.0507156
0.0455209
0.0432545
0.0423737
0.042077
0.0420258
0.0420736
0.042149
0.0422582
0.0423623
0.0424833
0.0425618
0.0426557
0.0427176
0.0427694
0.0427953
0.0427715
0.0427151
0.0426197
0.0424415
0.0422058
0.041931
0.0416177
0.0412548
0.0408603
0.040438
0.0399911
0.0395236
0.0390423
0.0385516
0.0380528
0.0375514
0.0370504
0.0365495
0.0360557
0.0355681
0.0350881
0.0346235
0.034209
0.0338429
0.0334905
0.0331418
0.0328087
0.0324827
0.0321655
0.031863
0.0315657
0.0312851
0.0310117
0.0307481
0.0304996
0.0302569
0.0300261
0.029806
0.0295906
0.0293878
0.0291902
0.0289996
0.0288151
0.0286326
0.028458
0.0282876
0.0281209
0.0279613
0.0278031
0.0276491
0.0274903
0.0273361
0.0271817
0.0270228
0.0268678
0.0267
0.0265206
0.0263312
0.0260743
0.0258937
0.025405
0.0248374
0.106324
0.098094
0.0843342
0.0712574
0.0611043
0.0544594
0.0506727
0.0487079
0.047729
0.0472083
0.0469118
0.0467127
0.0466273
0.0465654
0.0465616
0.0465513
0.046568
0.0465875
0.0466135
0.0466408
0.0466507
0.0466559
0.046638
0.0466006
0.0465247
0.0464284
0.046262
0.0460329
0.0457707
0.0454714
0.0451355
0.0447691
0.0443794
0.0439705
0.0435438
0.0431054
0.0426585
0.0422044
0.0417491
0.0412935
0.0408392
0.0403934
0.0399928
0.0396368
0.0392921
0.0389504
0.0386216
0.0382996
0.0379848
0.0376831
0.0373861
0.0371035
0.0368278
0.0365611
0.0363081
0.0360616
0.0358261
0.0356016
0.0353824
0.0351756
0.0349747
0.034781
0.0345931
0.0344081
0.0342301
0.0340569
0.0338875
0.0337248
0.0335647
0.0334081
0.0332481
0.0330917
0.0329334
0.0327701
0.0326099
0.0324371
0.0322502
0.03205
0.0317811
0.0315634
0.0310736
0.0303385
0.11165
0.105234
0.0941417
0.0821818
0.0718534
0.0641553
0.0587548
0.0557696
0.0542026
0.0531917
0.0524884
0.0519941
0.0516958
0.051441
0.0512637
0.0511088
0.0509908
0.0509006
0.0508205
0.0507633
0.0507105
0.0506775
0.0506447
0.0506209
0.0505892
0.0505538
0.0505021
0.0504182
0.0503193
0.0501675
0.0499661
0.0497299
0.0494639
0.0491689
0.0488468
0.0485051
0.0481466
0.0477733
0.0473906
0.0470006
0.0466053
0.0462107
0.0458525
0.0455311
0.0452169
0.0449042
0.0446002
0.0443016
0.0440082
0.0437251
0.0434456
0.0431776
0.0429155
0.042661
0.0424175
0.0421809
0.0419535
0.0417367
0.0415251
0.0413249
0.0411308
0.0409438
0.0407617
0.0405831
0.0404103
0.0402424
0.0400781
0.0399195
0.0397643
0.0396113
0.0394562
0.0393035
0.0391473
0.0389858
0.0388255
0.0386527
0.0384633
0.0382578
0.0379852
0.0377365
0.037264
0.0363997
0.116474
0.111755
0.103188
0.0928318
0.0831456
0.0753021
0.0692047
0.0647584
0.0615908
0.0594575
0.0583093
0.0576477
0.0572159
0.0567971
0.0564502
0.0561568
0.0559176
0.0557024
0.0554805
0.0552926
0.055124
0.0549906
0.0548749
0.0547785
0.0546963
0.0546253
0.0545672
0.054508
0.0544561
0.0543952
0.054323
0.0542355
0.0541125
0.0539479
0.0537521
0.0535329
0.0532898
0.0530255
0.0527448
0.0524506
0.0521447
0.0518318
0.0515431
0.0512799
0.0510189
0.0507565
0.0504982
0.0502426
0.0499896
0.0497434
0.0494992
0.0492632
0.0490313
0.0488051
0.048587
0.0483748
0.0481698
0.0479739
0.0477827
0.0476013
0.0474255
0.0472562
0.0470905
0.0469286
0.0467711
0.0466181
0.0464683
0.0463227
0.0461809
0.0460399
0.0458976
0.0457567
0.045611
0.0454595
0.0453073
0.0451426
0.0449596
0.0447579
0.0444943
0.0442271
0.0437915
0.0428624
0.12055
0.117289
0.110992
0.102881
0.0946661
0.0873816
0.081263
0.0763553
0.0724589
0.0693657
0.0669811
0.0650651
0.0636203
0.062611
0.0620493
0.061664
0.0613595
0.0609892
0.0605924
0.0602669
0.0599803
0.0597269
0.0594886
0.0592649
0.0590655
0.0588871
0.0587403
0.0586149
0.0585159
0.0584332
0.0583652
0.0583052
0.0582483
0.0581865
0.0581191
0.0580303
0.0579099
0.0577664
0.0576045
0.0574251
0.0572291
0.0570203
0.0568221
0.056636
0.0564464
0.0562522
0.0560574
0.0558624
0.0556669
0.0554746
0.0552824
0.0550948
0.0549092
0.0547273
0.05455
0.0543773
0.0542092
0.0540482
0.0538909
0.0537412
0.053596
0.0534563
0.0533188
0.0531848
0.0530537
0.0529264
0.0528015
0.0526795
0.0525612
0.0524422
0.0523225
0.0522031