/*--------------------------------*- C++ -*----------------------------------*\
| =========                 |                                                 |
| \\      /  F ield         | OpenFOAM: The Open Source CFD Toolbox           |
|  \\    /   O peration     | Version:  5.x                                   |
|   \\  /    A nd           | Web:      www.OpenFOAM.org                      |
|    \\/     M anipulation  |                                                 |
\*---------------------------------------------------------------------------*/
FoamFile
{
    version     2.0;
    format      ascii;
    class       volScalarField;
    location    "100";
    object      nut;
}
// * * * * * * * * * * * * * * * * * * * * * * * * * * * * * * * * * * * * * //

dimensions      [0 2 -1 0 0 0 0];

internalField   nonuniform List<scalar> 
11040
(
0.00180528
0.00195289
0.00227413
0.00262344
0.00278211
0.00283496
0.002828
0.00278563
0.00271343
0.00261232
0.00246199
0.00233151
0.00224897
0.00219103
0.00212863
0.00206486
0.00200154
0.00194119
0.00188671
0.00183845
0.00179387
0.00175607
0.00172313
0.00169211
0.00166292
0.00163517
0.0016083
0.00158193
0.00155579
0.00152957
0.00150284
0.00147498
0.00144529
0.00141288
0.00137629
0.00133391
0.00128292
0.00122025
0.00113308
0.00102905
0.000774553
0.00816691
0.0085678
0.00794691
0.00727962
0.00657447
0.00590713
0.00530431
0.00476458
0.00428815
0.00387665
0.00347944
0.00330614
0.00324203
0.00311379
0.00295252
0.00279802
0.00266383
0.00254672
0.00246038
0.00240451
0.00236442
0.00232894
0.0022967
0.00226846
0.0022457
0.00222676
0.00220985
0.00219467
0.00218171
0.00217124
0.00216312
0.00215709
0.00215309
0.00215115
0.00215137
0.00215367
0.00215819
0.00216281
0.00216817
0.00216056
0.00209659
0.0163975
0.0169914
0.0162583
0.0151878
0.0139412
0.0126717
0.0114586
0.0103236
0.00927884
0.00830312
0.00732916
0.00648485
0.00583466
0.00533768
0.00490117
0.0045178
0.00417965
0.00388468
0.00372518
0.00365479
0.00360207
0.00354838
0.00350715
0.00348289
0.00347098
0.00346276
0.00345472
0.00344859
0.00344621
0.00344708
0.00344963
0.00345265
0.00345552
0.00345761
0.00345756
0.00345365
0.00344497
0.00342424
0.00339615
0.0033289
0.00318795
0.0257864
0.0265091
0.0257673
0.0244
0.0227098
0.0208909
0.01907
0.0172925
0.0156163
0.0140425
0.0124769
0.0110817
0.00996916
0.0090911
0.00832193
0.00765069
0.00706453
0.00654626
0.00609149
0.00569663
0.00535162
0.00508773
0.0049596
0.00490345
0.0048672
0.00482779
0.00479255
0.00477205
0.0047654
0.00476562
0.00476847
0.00477338
0.00478015
0.00478738
0.00479244
0.00479207
0.00478375
0.00475641
0.00471076
0.00460824
0.00435181
0.0359205
0.0367301
0.0360624
0.0345513
0.0325685
0.0302989
0.0279201
0.0254839
0.0231427
0.0209224
0.0187224
0.0167386
0.0151442
0.0138748
0.0127499
0.0117576
0.0108913
0.0101202
0.00942443
0.0087964
0.00823112
0.00777226
0.00740997
0.00709402
0.0068167
0.00657484
0.00642129
0.00634738
0.00630558
0.00626838
0.00623748
0.00621882
0.00621009
0.00620537
0.00619997
0.00618993
0.00617187
0.00613331
0.00607082
0.0059546
0.00562679
0.0464504
0.0473084
0.046755
0.0452376
0.0431174
0.0405025
0.0376428
0.0347164
0.0318446
0.0290515
0.0262285
0.0236039
0.0214148
0.0196575
0.0181456
0.0168255
0.015684
0.0146333
0.013668
0.0127919
0.0119998
0.0113502
0.0108154
0.010327
0.00988447
0.00948198
0.00911934
0.00879728
0.00851101
0.00826272
0.00810279
0.0080157
0.00795597
0.00790233
0.00785342
0.00780559
0.00775254
0.00767925
0.00757807
0.00743081
0.00704502
0.0570577
0.057916
0.0574888
0.0560678
0.0539309
0.0512332
0.0482167
0.0450379
0.0418234
0.0386068
0.0352754
0.0320751
0.0292995
0.0269852
0.0249513
0.0231481
0.0215543
0.0201379
0.0188721
0.0177409
0.0167155
0.0158545
0.0151092
0.0144374
0.01384
0.0132926
0.0127872
0.0123192
0.0118846
0.0114786
0.0111027
0.0107582
0.0104401
0.0101846
0.0100143
0.00988104
0.00975297
0.00960776
0.0094321
0.00921474
0.00873593
0.0674118
0.0682501
0.0679413
0.0666806
0.0646741
0.0621083
0.0591692
0.0559778
0.0526497
0.0492197
0.0455809
0.0419702
0.0387116
0.035885
0.0333365
0.0310294
0.0289481
0.0270727
0.0253822
0.0238589
0.0224893
0.0213427
0.0203841
0.0195175
0.0187341
0.0180217
0.0173683
0.0167641
0.0162008
0.0156708
0.0151675
0.0146848
0.0142164
0.0137596
0.0133142
0.0128826
0.0125212
0.012215
0.0119064
0.0115697
0.0109421
0.077284
0.0780513
0.0778338
0.0767611
0.0749881
0.0726877
0.0699946
0.0669916
0.0637697
0.0603496
0.0566395
0.0528415
0.0492786
0.0460675
0.0431028
0.0403622
0.037839
0.035523
0.0334007
0.0314585
0.0296861
0.0282147
0.0270091
0.0259183
0.0249254
0.0240167
0.02318
0.0224043
0.0216797
0.0209971
0.0203479
0.0197238
0.0191163
0.0185165
0.0179123
0.0172943
0.0166634
0.0160075
0.0153687
0.0148013
0.0139668
0.086426
0.0870973
0.086947
0.0860638
0.0845658
0.0825967
0.0802494
0.077569
0.0746209
0.071388
0.0678142
0.0640589
0.0604114
0.0570163
0.0538367
0.0508189
0.0479718
0.0453064
0.0428192
0.0405038
0.0383534
0.0365602
0.0350937
0.0337613
0.0325416
0.0314193
0.0303811
0.0294149
0.0285098
0.0276552
0.0268415
0.0260589
0.0252977
0.0245475
0.0237934
0.0230242
0.0222292
0.0213832
0.0204707
0.019529
0.0183314
0.0946745
0.0952428
0.0951395
0.0944298
0.0932044
0.0915776
0.0896115
0.0873059
0.0847154
0.0818507
0.0786338
0.0751713
0.0716932
0.0683312
0.0650655
0.0619182
0.058906
0.0560559
0.053337
0.0507534
0.0483109
0.0462496
0.0445468
0.0429855
0.0415459
0.0402143
0.0389768
0.0378203
0.0367331
0.0357038
0.0347217
0.0337763
0.0328572
0.0319528
0.031047
0.0301283
0.0291857
0.028194
0.0271254
0.0260089
0.0244621
0.101955
0.102423
0.10235
0.101789
0.100809
0.0994989
0.097902
0.0959977
0.0938356
0.0914181
0.0886752
0.08567
0.0825672
0.0794682
0.0763615
0.0732834
0.0702639
0.0673308
0.0645013
0.0617858
0.0591961
0.0569727
0.0550892
0.0533422
0.0517226
0.0502236
0.0488212
0.047502
0.046255
0.0450697
0.0439356
0.042842
0.041779
0.0407346
0.0396913
0.0386382
0.0375651
0.0364473
0.0352595
0.034034
0.0323724
0.10827
0.108643
0.108587
0.108147
0.107375
0.106339
0.105069
0.103542
0.101799
0.0998377
0.0975999
0.0951173
0.0924839
0.0897857
0.0870242
0.0842406
0.0814407
0.0786503
0.0758929
0.073189
0.0705551
0.068257
0.0662954
0.0644604
0.0627408
0.0611271
0.0596088
0.058175
0.056815
0.0555182
0.0542742
0.0530719
0.0519081
0.0507634
0.0496197
0.048468
0.0473
0.0460928
0.0448252
0.0435254
0.0418441
0.113672
0.113955
0.113908
0.113566
0.112964
0.112155
0.111158
0.109956
0.108581
0.10703
0.105258
0.103263
0.101134
0.0989156
0.0966025
0.094217
0.0917781
0.0893193
0.0868362
0.0843447
0.0818627
0.0796528
0.0777359
0.0759214
0.0742014
0.07257
0.0710204
0.069545
0.0681359
0.0667847
0.0654829
0.0642212
0.0629914
0.0617831
0.0605803
0.0593749
0.05816
0.0569139
0.0556198
0.0542979
0.0526613
0.11822
0.118441
0.118406
0.118142
0.117679
0.117048
0.11627
0.11533
0.114258
0.113051
0.111661
0.110111
0.108449
0.106699
0.104851
0.102919
0.100914
0.0988473
0.0967328
0.0945826
0.0924195
0.0904567
0.0887127
0.0870366
0.0854287
0.0838961
0.0824258
0.081012
0.0796495
0.0783331
0.0770568
0.0758142
0.0745988
0.0734021
0.0722105
0.0710184
0.0698212
0.0685999
0.0673422
0.0660611
0.0645353
0.122043
0.122214
0.122186
0.121981
0.121632
0.121135
0.120525
0.119794
0.118963
0.118031
0.116962
0.115775
0.1145
0.113152
0.111711
0.110194
0.10862
0.106983
0.105288
0.103541
0.10175
0.100099
0.0986179
0.0971803
0.0957868
0.0944374
0.093131
0.0918654
0.0906377
0.0894445
0.0882812
0.0871498
0.086039
0.0849417
0.0838469
0.0827513
0.0816525
0.0805351
0.0793904
0.0782263
0.0768851
0.125245
0.125378
0.125355
0.125194
0.124919
0.124532
0.124056
0.123491
0.122848
0.12213
0.121311
0.120407
0.119439
0.118406
0.117308
0.116152
0.114941
0.113678
0.112374
0.111023
0.109626
0.108322
0.107136
0.105976
0.104843
0.103736
0.102656
0.101602
0.100573
0.0995662
0.0985804
0.0976126
0.09666
0.0957184
0.0947794
0.0938413
0.0929029
0.0919518
0.0909824
0.0899987
0.0888988
0.127803
0.127909
0.127891
0.127763
0.127543
0.127238
0.126862
0.126422
0.125915
0.12535
0.124714
0.124015
0.12327
0.122476
0.121635
0.12075
0.119824
0.118857
0.117851
0.116809
0.11573
0.114716
0.113789
0.112878
0.111985
0.11111
0.110254
0.10942
0.108604
0.107803
0.107016
0.106241
0.105477
0.104721
0.103968
0.103215
0.102464
0.101706
0.100936
0.100157
0.0993072
0.129773
0.129859
0.129845
0.12974
0.129561
0.129318
0.129011
0.128653
0.128245
0.127793
0.127292
0.126739
0.126151
0.125527
0.124869
0.124179
0.123459
0.122709
0.121931
0.121124
0.12029
0.119502
0.118777
0.118064
0.117365
0.116679
0.116008
0.115349
0.114704
0.114072
0.113455
0.112849
0.112251
0.111661
0.111073
0.110488
0.109907
0.109321
0.10873
0.108134
0.107499
0.131319
0.131391
0.131379
0.131292
0.131142
0.130939
0.130686
0.130391
0.13006
0.129689
0.12928
0.128833
0.128359
0.127863
0.127338
0.126788
0.126217
0.125624
0.125011
0.124378
0.123726
0.123107
0.122537
0.121977
0.121427
0.120889
0.120361
0.119845
0.119339
0.118843
0.118358
0.117881
0.117413
0.116955
0.116502
0.116052
0.115606
0.11516
0.114712
0.114262
0.113793
0.132562
0.132623
0.132613
0.132539
0.132412
0.13224
0.13203
0.131782
0.131505
0.131195
0.130856
0.130492
0.130103
0.129697
0.129268
0.128823
0.128362
0.127886
0.127396
0.126892
0.126374
0.125883
0.125429
0.124984
0.124549
0.124123
0.123702
0.123291
0.122892
0.122504
0.122123
0.121751
0.121386
0.121031
0.120681
0.120335
0.119994
0.119655
0.119316
0.118977
0.118631
0.133582
0.133634
0.133625
0.133561
0.133451
0.133304
0.133124
0.132917
0.132681
0.132423
0.132137
0.131831
0.131506
0.131168
0.130818
0.130451
0.130074
0.129686
0.129288
0.12888
0.128464
0.128068
0.127703
0.127345
0.126993
0.126652
0.126316
0.125988
0.125669
0.125361
0.125061
0.124769
0.124484
0.124207
0.123936
0.123669
0.123407
0.123147
0.122889
0.122633
0.122376
0.13443
0.134475
0.134467
0.134411
0.134316
0.134188
0.134032
0.133853
0.133654
0.133432
0.133192
0.132931
0.132659
0.132375
0.132081
0.131778
0.131467
0.131147
0.130819
0.130485
0.130146
0.129823
0.129525
0.129234
0.128949
0.128673
0.128402
0.128138
0.127881
0.127632
0.127393
0.127163
0.12694
0.126723
0.12651
0.126302
0.126099
0.125899
0.125702
0.125507
0.125314
0.135146
0.135184
0.135177
0.135128
0.135045
0.134933
0.134797
0.134641
0.134468
0.134277
0.13407
0.133848
0.133616
0.133378
0.133129
0.132874
0.132614
0.132348
0.132078
0.131802
0.131523
0.131256
0.131011
0.130772
0.130539
0.130314
0.130093
0.129878
0.129669
0.129468
0.129273
0.129086
0.128908
0.128736
0.128568
0.128405
0.128246
0.128091
0.127938
0.12779
0.127646
0.135757
0.135789
0.135782
0.135739
0.135666
0.135568
0.135449
0.135312
0.13516
0.134996
0.134817
0.134627
0.134428
0.134222
0.134012
0.133797
0.133576
0.133352
0.133125
0.132896
0.132666
0.132445
0.13224
0.132042
0.131849
0.131662
0.13148
0.131303
0.131133
0.130968
0.13081
0.130658
0.130512
0.130372
0.130238
0.13011
0.129986
0.129865
0.129747
0.129633
0.129523
0.136282
0.136309
0.136303
0.136265
0.1362
0.136113
0.136008
0.135888
0.135754
0.13561
0.135455
0.13529
0.135119
0.134942
0.13476
0.134576
0.134389
0.134201
0.134009
0.133816
0.133623
0.133439
0.133269
0.133103
0.132943
0.132787
0.132635
0.132489
0.132348
0.132213
0.132082
0.131958
0.131839
0.131725
0.131615
0.131511
0.131412
0.131317
0.131225
0.131136
0.131053
0.136737
0.136761
0.136755
0.136721
0.136664
0.136587
0.136494
0.136387
0.136269
0.136141
0.136005
0.135862
0.135713
0.13556
0.135405
0.135247
0.135086
0.134924
0.134761
0.134599
0.134436
0.13428
0.134136
0.133998
0.133863
0.133732
0.133606
0.133484
0.133367
0.133254
0.133147
0.133044
0.132945
0.132852
0.132762
0.132677
0.132596
0.132519
0.132445
0.132374
0.13231
0.137135
0.137155
0.137149
0.137119
0.137068
0.137
0.136917
0.136822
0.136718
0.136605
0.136484
0.136358
0.136228
0.136096
0.135961
0.135824
0.135685
0.135547
0.135407
0.135268
0.13513
0.134998
0.134876
0.134758
0.134644
0.134533
0.134427
0.134325
0.134226
0.134133
0.134043
0.133958
0.133876
0.133799
0.133726
0.133655
0.133589
0.133526
0.133465
0.133408
0.133356
0.137484
0.137501
0.137496
0.13747
0.137424
0.137363
0.137289
0.137205
0.137111
0.137011
0.136904
0.136793
0.136678
0.136561
0.136443
0.136324
0.136204
0.136084
0.135964
0.135845
0.135727
0.135615
0.13551
0.135409
0.135311
0.135217
0.135127
0.135041
0.134958
0.13488
0.134805
0.134734
0.134666
0.134602
0.134541
0.134484
0.134429
0.134377
0.134328
0.134281
0.13424
0.137792
0.137807
0.137803
0.137779
0.137739
0.137684
0.137618
0.137542
0.137459
0.13737
0.137275
0.137176
0.137074
0.136971
0.136866
0.136761
0.136657
0.136552
0.136449
0.136347
0.136246
0.136149
0.136058
0.135972
0.135888
0.135808
0.135731
0.135658
0.135588
0.135522
0.135459
0.135399
0.135343
0.135289
0.135239
0.135191
0.135146
0.135104
0.135063
0.135025
0.134991
0.138065
0.138078
0.138075
0.138054
0.138018
0.137969
0.13791
0.137842
0.137768
0.137688
0.137603
0.137515
0.137425
0.137333
0.137241
0.137148
0.137056
0.136965
0.136874
0.136786
0.136699
0.136616
0.136537
0.136462
0.13639
0.136321
0.136256
0.136193
0.136134
0.136077
0.136024
0.135974
0.135926
0.135882
0.13584
0.1358
0.135763
0.135728
0.135694
0.135663
0.135636
0.138308
0.13832
0.138317
0.138298
0.138266
0.138223
0.13817
0.138109
0.138043
0.137971
0.137895
0.137817
0.137736
0.137655
0.137573
0.137491
0.13741
0.13733
0.137251
0.137173
0.137098
0.137025
0.136957
0.136892
0.13683
0.136771
0.136714
0.136661
0.13661
0.136562
0.136517
0.136474
0.136434
0.136397
0.136361
0.136328
0.136297
0.136268
0.136241
0.136215
0.136193
0.138525
0.138536
0.138534
0.138517
0.138489
0.13845
0.138402
0.138348
0.138288
0.138224
0.138157
0.138087
0.138015
0.137943
0.13787
0.137798
0.137726
0.137655
0.137585
0.137517
0.137452
0.137388
0.137329
0.137273
0.137219
0.137167
0.137119
0.137073
0.137029
0.136988
0.13695
0.136914
0.13688
0.136848
0.136818
0.136791
0.136765
0.136741
0.136718
0.136697
0.136679
0.138719
0.13873
0.138728
0.138714
0.138688
0.138653
0.138611
0.138562
0.138509
0.138452
0.138392
0.138329
0.138265
0.138201
0.138136
0.138072
0.138008
0.137946
0.137885
0.137825
0.137768
0.137712
0.137661
0.137611
0.137564
0.13752
0.137478
0.137438
0.1374
0.137365
0.137332
0.137302
0.137273
0.137246
0.137221
0.137197
0.137176
0.137156
0.137137
0.137119
0.137104
0.138894
0.138904
0.138903
0.13889
0.138867
0.138837
0.138799
0.138756
0.138708
0.138657
0.138603
0.138547
0.138491
0.138433
0.138376
0.138319
0.138263
0.138207
0.138153
0.138101
0.138051
0.138002
0.137957
0.137914
0.137873
0.137834
0.137798
0.137763
0.137731
0.137701
0.137673
0.137646
0.137622
0.137599
0.137577
0.137558
0.137539
0.137522
0.137507
0.137492
0.13748
0.139051
0.139061
0.13906
0.139049
0.139029
0.139002
0.138969
0.13893
0.138888
0.138842
0.138794
0.138745
0.138694
0.138643
0.138593
0.138542
0.138492
0.138443
0.138396
0.13835
0.138306
0.138263
0.138224
0.138186
0.13815
0.138117
0.138085
0.138055
0.138027
0.138001
0.137977
0.137954
0.137933
0.137913
0.137895
0.137878
0.137863
0.137849
0.137835
0.137823
0.137813
0.139193
0.139202
0.139203
0.139193
0.139176
0.139152
0.139122
0.139088
0.139051
0.139011
0.138968
0.138924
0.138879
0.138834
0.138789
0.138744
0.1387
0.138657
0.138616
0.138575
0.138537
0.1385
0.138465
0.138432
0.138401
0.138371
0.138344
0.138318
0.138293
0.138271
0.13825
0.13823
0.138212
0.138195
0.13818
0.138165
0.138152
0.13814
0.138129
0.138119
0.13811
0.139322
0.139331
0.139332
0.139324
0.139309
0.139288
0.139262
0.139232
0.139199
0.139164
0.139127
0.139088
0.139048
0.139008
0.138969
0.138929
0.13889
0.138852
0.138816
0.13878
0.138746
0.138714
0.138684
0.138655
0.138627
0.138602
0.138578
0.138555
0.138534
0.138514
0.138496
0.138479
0.138464
0.138449
0.138436
0.138424
0.138412
0.138402
0.138393
0.138384
0.138377
0.139438
0.139447
0.139448
0.139442
0.13943
0.139412
0.13939
0.139364
0.139335
0.139304
0.139272
0.139238
0.139203
0.139168
0.139133
0.139099
0.139064
0.139031
0.138999
0.138968
0.138938
0.13891
0.138883
0.138858
0.138835
0.138812
0.138791
0.138772
0.138753
0.138736
0.13872
0.138706
0.138692
0.13868
0.138668
0.138658
0.138648
0.138639
0.138631
0.138624
0.138618
0.139543
0.139552
0.139555
0.13955
0.13954
0.139525
0.139507
0.139485
0.13946
0.139434
0.139405
0.139376
0.139346
0.139316
0.139285
0.139255
0.139225
0.139196
0.139168
0.139141
0.139115
0.139091
0.139068
0.139046
0.139025
0.139006
0.138987
0.13897
0.138954
0.138939
0.138926
0.138913
0.138901
0.138891
0.138881
0.138872
0.138863
0.138856
0.138849
0.138842
0.138837
0.139638
0.139648
0.139651
0.139648
0.139641
0.139629
0.139614
0.139596
0.139576
0.139553
0.139529
0.139504
0.139479
0.139453
0.139427
0.139401
0.139375
0.13935
0.139326
0.139303
0.13928
0.139259
0.139239
0.13922
0.139202
0.139185
0.139169
0.139155
0.139141
0.139128
0.139116
0.139105
0.139095
0.139086
0.139077
0.139069
0.139062
0.139056
0.139049
0.139044
0.13904
0.139725
0.139734
0.139739
0.139738
0.139733
0.139725
0.139713
0.139699
0.139683
0.139665
0.139646
0.139625
0.139604
0.139582
0.13956
0.139539
0.139517
0.139496
0.139476
0.139456
0.139437
0.139419
0.139402
0.139386
0.139371
0.139356
0.139343
0.13933
0.139318
0.139307
0.139297
0.139288
0.139279
0.139271
0.139264
0.139257
0.139251
0.139245
0.13924
0.139236
0.139232
0.139803
0.139813
0.139818
0.139819
0.139817
0.139812
0.139804
0.139794
0.139783
0.139769
0.139755
0.139739
0.139723
0.139706
0.139689
0.139672
0.139655
0.139638
0.139622
0.139607
0.139592
0.139578
0.139564
0.139551
0.139539
0.139527
0.139516
0.139506
0.139497
0.139488
0.139479
0.139472
0.139465
0.139459
0.139453
0.139447
0.139442
0.139438
0.139434
0.13943
0.139427
0.139872
0.139882
0.139888
0.139891
0.139891
0.139889
0.139886
0.13988
0.139873
0.139865
0.139855
0.139845
0.139835
0.139824
0.139812
0.139801
0.13979
0.139779
0.139768
0.139758
0.139748
0.139739
0.13973
0.139722
0.139714
0.139707
0.1397
0.139693
0.139687
0.139681
0.139676
0.139671
0.139666
0.139661
0.139657
0.139653
0.139649
0.139646
0.139642
0.139639
0.139636
0.139931
0.139939
0.139944
0.139947
0.139948
0.139948
0.139946
0.139944
0.13994
0.139936
0.139932
0.139927
0.139922
0.139916
0.139911
0.139905
0.139899
0.139893
0.139888
0.139883
0.139878
0.139873
0.139869
0.139865
0.139861
0.139857
0.139854
0.13985
0.139847
0.139845
0.139842
0.139839
0.139837
0.139834
0.139832
0.13983
0.139828
0.139826
0.139824
0.139822
0.13982
0.139969
0.139973
0.139975
0.139976
0.139977
0.139977
0.139976
0.139975
0.139973
0.139971
0.139969
0.139966
0.139963
0.13996
0.139957
0.139954
0.139951
0.139948
0.139944
0.139941
0.139938
0.139936
0.139933
0.13993
0.139928
0.139926
0.139924
0.139922
0.13992
0.139919
0.139917
0.139915
0.139914
0.139913
0.139911
0.13991
0.139909
0.139907
0.139906
0.139905
0.139904
0.139988
0.139989
0.139991
0.139991
0.139992
0.139992
0.139991
0.139991
0.13999
0.139989
0.139988
0.139987
0.139985
0.139983
0.139981
0.139979
0.139977
0.139975
0.139972
0.139969
0.139967
0.139964
0.139961
0.139959
0.139956
0.139954
0.139951
0.139949
0.139947
0.139945
0.139943
0.139941
0.13994
0.139939
0.139938
0.139937
0.139936
0.139934
0.139933
0.139932
0.139931
0.139998
0.139998
0.139998
0.139999
0.139999
0.139999
0.139999
0.139999
0.139998
0.139998
0.139998
0.139997
0.139997
0.139996
0.139995
0.139993
0.139992
0.13999
0.139988
0.139985
0.139982
0.139978
0.139974
0.139968
0.139962
0.139955
0.139949
0.139943
0.139938
0.139932
0.139928
0.139923
0.139919
0.139915
0.139912
0.139908
0.139905
0.139902
0.1399
0.139897
0.139895
0.00193631
0.00279473
0.00347369
0.00406902
0.00462532
0.00515989
0.00568504
0.00620925
0.00674754
0.00731358
0.00791401
0.00856259
0.00926641
0.00995781
0.0108281
0.0120476
0.0115793
0.0123359
0.027643
0.0489199
0.0643793
0.0742721
0.0812377
0.0866621
0.0911087
0.0948507
0.0980547
0.100836
0.103278
0.105444
0.107383
0.109133
0.110723
0.112176
0.113512
0.114747
0.115894
0.116965
0.117967
0.118909
0.119795
0.120629
0.121416
0.12216
0.122866
0.123536
0.124173
0.12478
0.125358
0.12591
0.126439
0.126945
0.12743
0.127897
0.128345
0.128777
0.129194
0.129596
0.129984
0.130359
0.130722
0.131072
0.131411
0.131739
0.132055
0.132361
0.132657
0.132942
0.133216
0.133481
0.133734
0.133986
0.13419
0.134551
0.00283864
0.00341301
0.00394876
0.00446989
0.00496898
0.00544824
0.00591686
0.00637826
0.00685638
0.00736324
0.00790162
0.00848238
0.00911575
0.00973274
0.0105048
0.0116789
0.0112472
0.0114617
0.0259044
0.047259
0.0632474
0.0735486
0.0807614
0.0863513
0.0909256
0.0947734
0.0980678
0.100927
0.103437
0.105663
0.107655
0.109453
0.111085
0.112578
0.11395
0.115219
0.116399
0.1175
0.118532
0.119502
0.120416
0.121278
0.122091
0.122861
0.123591
0.124283
0.124941
0.125568
0.126165
0.126734
0.127279
0.127799
0.128297
0.128775
0.129233
0.129673
0.130096
0.130502
0.130893
0.131269
0.131631
0.131978
0.132313
0.132635
0.132944
0.133241
0.133527
0.1338
0.134062
0.134314
0.134552
0.134787
0.134978
0.13531
0.00390342
0.00450305
0.00500155
0.00542559
0.00581124
0.00618302
0.00655323
0.00691498
0.00731987
0.00775719
0.00822172
0.00871934
0.00926459
0.00980041
0.0104323
0.0115063
0.0113864
0.0107313
0.0227309
0.0434828
0.0602077
0.0712671
0.0789803
0.0849059
0.0897329
0.0937852
0.097251
0.100256
0.102892
0.105228
0.107316
0.109198
0.110906
0.112467
0.113901
0.115227
0.11646
0.11761
0.118689
0.119704
0.12066
0.121562
0.122415
0.123223
0.123988
0.124714
0.125405
0.126062
0.126688
0.127285
0.127855
0.1284
0.128921
0.129419
0.129897
0.130354
0.130792
0.131211
0.131614
0.132
0.132369
0.132723
0.133063
0.133387
0.133698
0.133995
0.134278
0.134549
0.134807
0.135052
0.135284
0.135511
0.135696
0.136009
0.00495698
0.00554947
0.0060861
0.00655213
0.00696186
0.00733694
0.00769199
0.00803245
0.0083759
0.0087334
0.00910912
0.00950722
0.00994242
0.0103878
0.0108738
0.0117437
0.0120709
0.0108447
0.0188812
0.0377695
0.0550974
0.0671904
0.0756753
0.0821349
0.0873611
0.0917335
0.0954661
0.098698
0.101528
0.104033
0.106268
0.10828
0.110103
0.111767
0.113295
0.114705
0.116015
0.117237
0.118382
0.119459
0.120475
0.121434
0.122341
0.1232
0.124015
0.124788
0.125523
0.126223
0.12689
0.127526
0.128134
0.128714
0.129268
0.129798
0.130304
0.130789
0.131253
0.131696
0.13212
0.132526
0.132914
0.133284
0.133638
0.133975
0.134297
0.134603
0.134895
0.135171
0.135434
0.135683
0.135918
0.136144
0.136331
0.136638
0.00613177
0.00667727
0.0072058
0.00769764
0.00815311
0.00858201
0.00899156
0.0093855
0.00976923
0.0101491
0.0105305
0.010917
0.0113192
0.0117321
0.0121298
0.0127326
0.0133472
0.0123893
0.0157684
0.0307204
0.0478725
0.0610636
0.070569
0.0777838
0.0835822
0.0884125
0.0925261
0.0960819
0.0991908
0.101937
0.104383
0.10658
0.108567
0.110377
0.112036
0.113565
0.114982
0.116302
0.117539
0.118701
0.119796
0.12083
0.121809
0.122736
0.123616
0.124451
0.125245
0.126002
0.126723
0.127411
0.128068
0.128696
0.129296
0.129869
0.130417
0.130941
0.131441
0.13192
0.132378
0.132815
0.133232
0.133629
0.134008
0.134369
0.134713
0.13504
0.13535
0.135644
0.135922
0.136185
0.136431
0.136669
0.136865
0.137182
0.00748863
0.00800759
0.00852578
0.00902477
0.00950387
0.00997202
0.0104349
0.0108938
0.0113493
0.0118024
0.0122539
0.0127042
0.0131561
0.0136134
0.0140513
0.014537
0.015196
0.0150806
0.0153475
0.0239897
0.0389781
0.0527748
0.0633962
0.0715651
0.0781207
0.0835658
0.0881941
0.0921899
0.0956784
0.0987543
0.10149
0.103942
0.106154
0.108163
0.110001
0.111691
0.113254
0.114707
0.116064
0.117338
0.118538
0.119671
0.120743
0.121757
0.12272
0.123635
0.124506
0.125335
0.126126
0.126881
0.127602
0.128292
0.128951
0.129581
0.130184
0.13076
0.131311
0.131837
0.132341
0.132822
0.133281
0.133718
0.134135
0.134532
0.13491
0.135269
0.13561
0.135933
0.136238
0.136526
0.136797
0.137057
0.137273
0.137617
0.00915108
0.00968013
0.0102197
0.010747
0.011258
0.0117614
0.0122653
0.0127731
0.0132858
0.0138036
0.014326
0.0148517
0.0153794
0.0159106
0.0164356
0.0169516
0.0175627
0.0180342
0.017885
0.0206444
0.0303017
0.0428485
0.0541318
0.0632763
0.0707217
0.0769252
0.0822052
0.0867682
0.0907511
0.0942611
0.0973803
0.10017
0.102682
0.104959
0.107035
0.10894
0.110696
0.112324
0.113841
0.115262
0.116598
0.117857
0.119047
0.120174
0.121243
0.122258
0.123224
0.124145
0.125024
0.125863
0.126666
0.127434
0.128168
0.12887
0.129542
0.130186
0.130801
0.13139
0.131954
0.132493
0.133007
0.133499
0.133967
0.134414
0.134839
0.135244
0.135629
0.135994
0.13634
0.136667
0.136975
0.137271
0.137518
0.137909
0.0113452
0.0119175
0.0125152
0.0131049
0.0136766
0.0142351
0.0147888
0.0153424
0.0158989
0.0164604
0.0170279
0.0176016
0.0181807
0.018765
0.0193531
0.019935
0.0205377
0.021173
0.021554
0.0220901
0.0256723
0.033767
0.043761
0.0531894
0.0613758
0.0683526
0.0743618
0.0795922
0.0841733
0.0882212
0.091824
0.0950465
0.097944
0.100566
0.102954
0.105139
0.107147
0.109003
0.110727
0.112338
0.113848
0.115269
0.11661
0.117878
0.119079
0.120221
0.121306
0.122341
0.123329
0.124273
0.125176
0.12604
0.126868
0.12766
0.128418
0.129145
0.129842
0.130509
0.131149
0.131761
0.132347
0.132907
0.133442
0.133953
0.134441
0.134907
0.135351
0.135773
0.136173
0.136554
0.136913
0.13726
0.13755
0.138012
0.0143785
0.0150232
0.0157055
0.016379
0.0170295
0.0176575
0.0182701
0.0188728
0.0194693
0.0200628
0.0206561
0.0212511
0.0218491
0.0224509
0.0230578
0.0236671
0.0242798
0.0249175
0.0255357
0.0260467
0.0269931
0.0299458
0.0357285
0.0432679
0.0510619
0.0582875
0.0648319
0.0706761
0.0758616
0.0804973
0.0846543
0.0883863
0.0917484
0.0947956
0.097571
0.100107
0.102434
0.104578
0.106566
0.108417
0.110149
0.111774
0.113304
0.114747
0.116114
0.117411
0.118645
0.11982
0.120941
0.122013
0.123038
0.12402
0.124961
0.125862
0.126726
0.127555
0.12835
0.129114
0.129847
0.13055
0.131223
0.131869
0.132487
0.133078
0.133645
0.134187
0.134705
0.1352
0.135671
0.13612
0.136546
0.13696
0.137307
0.137864
0.0186836
0.0193653
0.0201079
0.020845
0.0215572
0.0222411
0.0229009
0.0235417
0.0241671
0.0247806
0.0253855
0.0259846
0.0265802
0.0271745
0.0277697
0.028367
0.0289666
0.0295772
0.0302054
0.0308226
0.0314433
0.0323868
0.0343616
0.0379571
0.0430515
0.0489591
0.0550388
0.0608875
0.0663125
0.0713722
0.0760093
0.0802259
0.0840633
0.0875714
0.0907838
0.0937262
0.0964257
0.0989149
0.101221
0.103367
0.10537
0.107244
0.109005
0.110663
0.112231
0.113718
0.115131
0.116476
0.117758
0.118984
0.120156
0.121279
0.122354
0.123386
0.124376
0.125327
0.126241
0.127119
0.127963
0.128775
0.129554
0.130302
0.13102
0.131709
0.13237
0.133005
0.133614
0.134198
0.134756
0.13529
0.135798
0.136296
0.136713
0.137393
0.0246372
0.0252395
0.025954
0.026689
0.027411
0.0281086
0.028781
0.0294307
0.0300604
0.0306729
0.031271
0.0318577
0.0324352
0.0330061
0.0335726
0.0341371
0.0347016
0.0352709
0.0358529
0.0364476
0.037045
0.0376684
0.0384542
0.039689
0.041706
0.0446814
0.0485337
0.0529771
0.0576728
0.0623915
0.0669731
0.0713094
0.0753972
0.0792404
0.0828192
0.0861319
0.0891938
0.0920385
0.0946876
0.0971575
0.0994643
0.101623
0.103647
0.105554
0.107356
0.109064
0.110686
0.112229
0.113701
0.115105
0.116449
0.117735
0.118968
0.120152
0.121289
0.122382
0.123433
0.124446
0.12542
0.126358
0.12726
0.128127
0.128962
0.129765
0.130538
0.131282
0.131998
0.132687
0.133347
0.133982
0.134589
0.135187
0.135688
0.136517
0.0323836
0.0328103
0.0333595
0.0339846
0.0346367
0.0352867
0.0359227
0.0365409
0.0371409
0.0377237
0.0382909
0.0388446
0.0393865
0.0399187
0.0404432
0.0409623
0.0414783
0.0419949
0.0425174
0.0430492
0.0435886
0.0441332
0.0446946
0.0453224
0.0461201
0.0472348
0.0488158
0.0509548
0.053647
0.0568062
0.06029
0.063934
0.0676173
0.071258
0.0747937
0.0781739
0.081381
0.0844461
0.0873476
0.0900816
0.0926547
0.0950737
0.0973519
0.0995075
0.101552
0.103493
0.105338
0.107095
0.10877
0.110371
0.111901
0.113367
0.114774
0.116126
0.117426
0.118678
0.119884
0.121046
0.122166
0.123246
0.124285
0.125287
0.126253
0.127185
0.128084
0.128953
0.12979
0.130598
0.131376
0.132126
0.132845
0.133558
0.134156
0.135158
0.0417202
0.0420142
0.0423785
0.0427636
0.0432228
0.0437406
0.0442775
0.0448148
0.0453453
0.0458654
0.0463736
0.04687
0.0473554
0.0478311
0.0482983
0.0487589
0.0492145
0.049668
0.0501228
0.0505814
0.0510442
0.0515101
0.0519783
0.0524528
0.0529491
0.0535012
0.054164
0.0550088
0.0561095
0.0575247
0.0592855
0.0613824
0.0637721
0.0663891
0.0691599
0.072007
0.0748669
0.0777052
0.0804904
0.083196
0.0858071
0.0883071
0.0907056
0.0930163
0.0952319
0.0973517
0.0993787
0.101318
0.103174
0.104953
0.106657
0.108295
0.109873
0.111393
0.112859
0.114273
0.115637
0.116954
0.118226
0.119453
0.120638
0.121781
0.122887
0.123957
0.124992
0.125994
0.126963
0.127899
0.128803
0.129679
0.130521
0.13136
0.132064
0.133257
0.0524038
0.0525591
0.052781
0.0530108
0.053244
0.0534877
0.0537924
0.0541689
0.0545775
0.0549925
0.0554057
0.0558151
0.0562195
0.0566178
0.0570099
0.057396
0.0577775
0.0581559
0.0585335
0.0589116
0.0592909
0.0596708
0.0600506
0.0604296
0.0608087
0.0611918
0.0615889
0.062018
0.0625059
0.0630871
0.0638005
0.0646828
0.0657628
0.0670577
0.0685709
0.0702874
0.0721768
0.0742044
0.076334
0.0785285
0.0807556
0.082984
0.085193
0.0873732
0.0895145
0.0916078
0.0936463
0.0956263
0.0975462
0.0994058
0.101193
0.102942
0.10464
0.106286
0.107881
0.109427
0.110924
0.112374
0.113778
0.115137
0.116452
0.117727
0.118966
0.120169
0.121337
0.12247
0.123568
0.124632
0.125663
0.126665
0.127633
0.128602
0.129415
0.130807
0.0641638
0.0641743
0.0642438
0.0643204
0.0643985
0.0644813
0.0645737
0.0646802
0.0648046
0.0649835
0.0652304
0.0655137
0.0658077
0.0661017
0.0663944
0.0666864
0.0669779
0.0672691
0.0675597
0.0678501
0.0681403
0.06843
0.0687187
0.0690058
0.0692906
0.0695728
0.0698528
0.0701332
0.070419
0.0707188
0.0710454
0.0714157
0.0718493
0.0723679
0.0729918
0.0737389
0.0746218
0.0756477
0.0768162
0.0781191
0.0795429
0.0810692
0.0826774
0.0843489
0.0860667
0.0878146
0.0895783
0.0913451
0.0931051
0.09485
0.0965705
0.0982673
0.0999368
0.101577
0.103186
0.104761
0.106301
0.107805
0.109272
0.1107
0.112089
0.113455
0.11479
0.116093
0.117362
0.118599
0.119804
0.120972
0.12211
0.123225
0.124306
0.125394
0.126307
0.127885
0.0764365
0.0763137
0.0762418
0.0761765
0.0761125
0.0760522
0.075999
0.075956
0.0759254
0.0759094
0.0759104
0.0759292
0.0759677
0.0760559
0.0762008
0.0763778
0.0765673
0.0767592
0.0769513
0.0771447
0.0773399
0.0775369
0.0777344
0.0779313
0.0781263
0.0783186
0.0785078
0.0786934
0.0788758
0.079056
0.0792365
0.079421
0.0796157
0.0798284
0.0800691
0.0803493