/*--------------------------------*- C++ -*----------------------------------*\
| =========                 |                                                 |
| \\      /  F ield         | OpenFOAM: The Open Source CFD Toolbox           |
|  \\    /   O peration     | Version:  5.x                                   |
|   \\  /    A nd           | Web:      www.OpenFOAM.org                      |
|    \\/     M anipulation  |                                                 |
\*---------------------------------------------------------------------------*/
FoamFile
{
    version     2.0;
    format      ascii;
    class       volScalarField;
    location    "100";
    object      nuTilda;
}
// * * * * * * * * * * * * * * * * * * * * * * * * * * * * * * * * * * * * * //

dimensions      [0 2 -1 0 0 0 0];

internalField   nonuniform List<scalar> 
11040
(
0.00219969
0.000987173
0.000399733
0.000465655
0.000378326
0.000355613
0.000347887
0.000338692
0.000330973
0.000333132
0.000299191
0.000300651
0.00030921
0.000327867
0.000347255
0.000497396
0.000492638
0.000460296
0.000431452
0.000407742
0.000405814
0.00041154
0.000429672
0.000507761
0.000482136
0.000444088
0.000450943
0.000522661
0.000641355
0.000607876
0.000816239
0.000876329
0.00116595
0.00120256
0.00131879
0.00150514
0.00171543
0.00190004
0.00204282
0.00211107
0.000699978
0.00478722
0.00343558
0.00251064
0.00222068
0.00157363
0.00128846
0.00121092
0.00120517
0.00124491
0.0013318
0.00141438
0.00147574
0.00154569
0.00160344
0.00161763
0.00156218
0.0014534
0.00136075
0.00132376
0.00137105
0.0015181
0.00169491
0.00183233
0.00193423
0.00198423
0.00200457
0.00203997
0.0021105
0.00222722
0.0023982
0.00265475
0.00290275
0.00320088
0.00344653
0.00369832
0.00394712
0.00416832
0.00433703
0.00441129
0.00437531
0.00242343
0.00937224
0.00680316
0.00484355
0.00396984
0.00363932
0.00288158
0.00261292
0.00254948
0.00257941
0.00272011
0.00287513
0.00299808
0.00315278
0.00331006
0.00342381
0.00336666
0.00321026
0.0030683
0.00304033
0.00317297
0.00349879
0.00391686
0.00421147
0.00435169
0.00436592
0.00435966
0.00443286
0.00462229
0.00494132
0.00543585
0.00602214
0.00664978
0.00731022
0.00796318
0.00860249
0.00920478
0.0097311
0.0101455
0.0103579
0.0102406
0.00809292
0.0159436
0.0116106
0.00819605
0.00612183
0.00541548
0.00519032
0.00458058
0.00436346
0.00430793
0.0044656
0.0046865
0.00484228
0.00508336
0.00538971
0.00570196
0.00575075
0.00559412
0.00540105
0.00539509
0.00567529
0.00607573
0.00648448
0.00679533
0.00697322
0.00705735
0.0071733
0.00742715
0.00792374
0.00868794
0.00965582
0.010721
0.0118677
0.0130589
0.0142546
0.0154208
0.016513
0.0174696
0.0182437
0.018678
0.0185389
0.0162285
0.0236181
0.0185673
0.0135852
0.00977828
0.00767312
0.00716804
0.00737048
0.00723327
0.00685714
0.00683488
0.00694959
0.00699933
0.00727082
0.00775386
0.00837983
0.00872247
0.0086981
0.00847505
0.00831
0.00840285
0.00872468
0.00914391
0.00953758
0.00985038
0.0101172
0.0104925
0.0111486
0.0122721
0.0136824
0.0152465
0.016959
0.0188078
0.0207243
0.022646
0.0245191
0.0262708
0.0278128
0.0290979
0.0298935
0.029866
0.0276703
0.0320513
0.0271031
0.0207854
0.015505
0.0115853
0.00955856
0.00941672
0.0102182
0.0106447
0.0103391
0.0102795
0.00989186
0.0098944
0.0103737
0.0113091
0.0120073
0.0120154
0.0116565
0.0112828
0.0112021
0.0114859
0.0119909
0.0125778
0.0131572
0.0137605
0.0146146
0.0160673
0.0179935
0.0200979
0.0224072
0.0249586
0.0277277
0.0305967
0.0334607
0.0362493
0.0388583
0.0411722
0.0431723
0.0445548
0.0448808
0.0432802
0.0411186
0.0365206
0.0300973
0.0232939
0.017792
0.0137772
0.0118614
0.0121868
0.0137228
0.0148754
0.0150093
0.0139818
0.013283
0.0134338
0.0145079
0.0152778
0.0152414
0.0147974
0.0143167
0.0141464
0.0144813
0.0152006
0.0161192
0.017128
0.018305
0.0200451
0.0224914
0.0252012
0.0281045
0.0313168
0.0349159
0.0388602
0.0429482
0.0470065
0.0509547
0.0546592
0.0579705
0.0609552
0.0632793
0.0643197
0.0635655
0.050677
0.0464958
0.0405984
0.0335012
0.0266034
0.020836
0.0165864
0.0147051
0.0154943
0.0177542
0.0194847
0.0195438
0.0179536
0.0171394
0.0175736
0.0184887
0.0185146
0.0180758
0.0175439
0.0173662
0.0179025
0.0189951
0.020383
0.0220201
0.0241691
0.0271512
0.0304806
0.0340286
0.0378256
0.0420822
0.0469428
0.0523477
0.0579643
0.0635059
0.0688896
0.0739724
0.0785282
0.0827692
0.0864449
0.0878062
0.0855988
0.0605225
0.0567951
0.0515585
0.0450547
0.0377088
0.0307674
0.0246504
0.0200771
0.0181391
0.0192532
0.02205
0.0241484
0.0240597
0.022341
0.0209951
0.0215825
0.0218588
0.0215772
0.0211489
0.0211768
0.0221128
0.0237523
0.0258095
0.0284567
0.0320807
0.036058
0.0402107
0.0445706
0.0492978
0.0546836
0.0609927
0.0681604
0.0756476
0.0829631
0.0899908
0.0966614
0.102469
0.10689
0.109451
0.109483
0.106008
0.0703736
0.0671549
0.0626092
0.0569264
0.0501965
0.0427545
0.0356196
0.0291715
0.0242575
0.0221432
0.0233177
0.0263862
0.0286973
0.028444
0.0264058
0.0248248
0.0253199
0.0254453
0.0253832
0.0258862
0.0274698
0.0299279
0.0330906
0.0375034
0.0423208
0.0472165
0.0521562
0.057259
0.0628007
0.0692343
0.0770429
0.0862429
0.0958261
0.104786
0.112512
0.118871
0.12376
0.126981
0.128172
0.126924
0.122608
0.0799452
0.0772543
0.0734247
0.068582
0.0627948
0.0560483
0.0485896
0.0411836
0.0344427
0.0291793
0.0267185
0.0276232
0.0306204
0.0329978
0.0326324
0.0303921
0.0290381
0.0297123
0.0303715
0.0316776
0.034238
0.0379596
0.0433152
0.0492407
0.055199
0.0609804
0.0665904
0.0722164
0.0782515
0.0853348
0.0943453
0.105359
0.115562
0.12393
0.130618
0.135778
0.139378
0.141227
0.140979
0.138299
0.132785
0.088974
0.0867854
0.083659
0.0796553
0.0748237
0.0691506
0.0625477
0.05516
0.0473548
0.04038
0.0347996
0.0318476
0.0321818
0.0347622
0.0370361
0.0367998
0.0347795
0.0341727
0.0358191
0.038466
0.0424989
0.048979
0.056416
0.0639879
0.071219
0.0778683
0.0839406
0.0897038
0.0956125
0.102387
0.111052
0.121734
0.130883
0.137834
0.143024
0.146684
0.148777
0.149062
0.147132
0.142563
0.134757
0.0972432
0.0955096
0.0930281
0.0898202
0.0859071
0.0812879
0.0758704
0.0695646
0.0623976
0.0545448
0.0473276
0.0412913
0.0376362
0.0371142
0.0389578
0.0409157
0.0411034
0.0401121
0.0408691
0.0457727
0.0528482
0.0623461
0.0725173
0.0823684
0.0912945
0.0989456
0.105267
0.110643
0.115672
0.120792
0.126749
0.134506
0.141679
0.14691
0.150393
0.152422
0.153009
0.151893
0.148583
0.142596
0.13371
0.104615
0.103273
0.101347
0.0988439
0.0957701
0.092119
0.0878175
0.0827914
0.0769362
0.0704675
0.0628338
0.0553601
0.0487687
0.0442435
0.0426179
0.0434185
0.0449081
0.0459642
0.0478396
0.0528485
0.0635865
0.0770761
0.0912307
0.104611
0.116255
0.125497
0.132402
0.137503
0.141255
0.143904
0.145829
0.147834
0.150937
0.153912
0.155358
0.155748
0.155099
0.153351
0.150156
0.145211
0.138715
0.111032
0.110011
0.108543
0.106628
0.10427
0.101463
0.0981439
0.094253
0.0897063
0.0845323
0.0788311
0.0720684
0.0641827
0.0571065
0.0517115
0.0488542
0.0483834
0.0493873
0.0522966
0.0596691
0.0731031
0.090491
0.110131
0.128
0.143478
0.156211
0.166068
0.173034
0.177038
0.178018
0.176062
0.171861
0.168161
0.165343
0.163743
0.161944
0.159495
0.157212
0.154975
0.152348
0.149324
0.116508
0.11574
0.114636
0.113189
0.111408
0.109292
0.106793
0.103863
0.10044
0.0964691
0.0920324
0.0872513
0.081273
0.0738785
0.0664944
0.0602494
0.0560582
0.0541363
0.0547958
0.0607549
0.0756573
0.0974318
0.121056
0.143543
0.163503
0.180345
0.193825
0.203831
0.21032
0.21338
0.213258
0.210364
0.205152
0.198018
0.189549
0.180499
0.172988
0.168374
0.165494
0.162817
0.1606
0.121116
0.120545
0.119721
0.118638
0.117304
0.115724
0.113868
0.111704
0.109191
0.106267
0.102904
0.0991794
0.0952545
0.0902599
0.0839824
0.0764406
0.0696292
0.0642439
0.0608785
0.0612768
0.0703372
0.0912563
0.118832
0.146866
0.172456
0.194653
0.213128
0.227792
0.238665
0.245853
0.249538
0.249959
0.247402
0.242233
0.234963
0.226239
0.216793
0.207239
0.19813
0.189998
0.183478
0.124786
0.124364
0.123737
0.122911
0.121896
0.120702
0.11931
0.117708
0.115862
0.113737
0.111283
0.108465
0.105365
0.10218
0.098237
0.0929426
0.0864038
0.0793987
0.07305
0.0683752
0.0683234
0.0785698
0.101634
0.132672
0.164487
0.193348
0.218253
0.23906
0.255835
0.268773
0.278071
0.283932
0.286576
0.286256
0.283257
0.277925
0.270664
0.261875
0.252084
0.241929
0.232327
0.127591
0.127262
0.126772
0.126128
0.125345
0.124419
0.123346
0.122123
0.120728
0.119146
0.117345
0.115275
0.112901
0.110311
0.107719
0.104601
0.100421
0.0949525
0.0880639
0.081305
0.0757834
0.0748881
0.0836996
0.105177
0.136299
0.170361
0.202357
0.230365
0.254106
0.273773
0.289602
0.301788
0.310554
0.316162
0.31882
0.318737
0.316152
0.311289
0.304426
0.295967
0.286605
0.129767
0.129502
0.129109
0.128595
0.127972
0.127236
0.126395
0.125435
0.124355
0.123138
0.121774
0.120234
0.118474
0.116465
0.114289
0.11215
0.109702
0.106499
0.102012
0.0962008
0.089477
0.0835233
0.0811846
0.0864492
0.102441
0.128605
0.160699
0.193699
0.224275
0.251048
0.273766
0.292592
0.307784
0.319619
0.32829
0.333961
0.336807
0.337006
0.334628
0.329858
0.322898
0.131491
0.131273
0.130952
0.130539
0.130033
0.129437
0.128758
0.127989
0.127129
0.126174
0.12511
0.123928
0.122605
0.121106
0.119404
0.117572
0.115774
0.113852
0.111426
0.108057
0.103381
0.0975277
0.0917693
0.0879959
0.0889649
0.0972932
0.113941
0.13753
0.165085
0.193454
0.220298
0.244307
0.264944
0.28216
0.29602
0.306643
0.314213
0.318998
0.321009
0.320267
0.316581
0.132885
0.132703
0.132439
0.132098
0.131681
0.131194
0.130637
0.130012
0.129314
0.128544
0.127698
0.126767
0.125739
0.1246
0.123323
0.12189
0.12035
0.118819
0.117279
0.115477
0.11306
0.109704
0.105396
0.100327
0.0959558
0.0937171
0.0952902
0.101839
0.113509
0.129399
0.147953
0.167472
0.186502
0.204061
0.219478
0.232356
0.242552
0.250241
0.255361
0.257954
0.257764
0.134031
0.133879
0.133663
0.133377
0.133031
0.132625
0.132164
0.131645
0.131072
0.130443
0.129753
0.129002
0.128184
0.127292
0.126315
0.125233
0.124036
0.122744
0.121429
0.120163
0.118814
0.117194
0.115091
0.112266
0.108786
0.104973
0.101569
0.0994742
0.0994391
0.101893
0.106829
0.113849
0.122301
0.131488
0.140711
0.149362
0.156984
0.163444
0.168489
0.172069
0.174236
0.134988
0.134862
0.13468
0.13444
0.134149
0.13381
0.133422
0.132989
0.132509
0.131985
0.131416
0.130802
0.130138
0.129423
0.128648
0.12781
0.126896
0.125902
0.124827
0.123716
0.122645
0.121612
0.120545
0.119297
0.117716
0.115704
0.11328
0.110619
0.108012
0.105821
0.104386
0.103878
0.104293
0.105517
0.107357
0.109574
0.111922
0.114247
0.116356
0.118148
0.119636
0.135799
0.135695
0.135543
0.135343
0.135098
0.134808
0.13448
0.134111
0.133706
0.133266
0.13279
0.132277
0.131728
0.13114
0.130513
0.129844
0.129128
0.128359
0.127535
0.126654
0.125724
0.124789
0.123939
0.123162
0.122391
0.121544
0.120544
0.119338
0.117922
0.116345
0.114709
0.113131
0.111705
0.110458
0.10954
0.108902
0.108522
0.108345
0.10833
0.108434
0.108578
0.136495
0.136411
0.136284
0.136114
0.135904
0.135658
0.135375
0.135061
0.134716
0.134343
0.133939
0.133506
0.133046
0.132557
0.132039
0.131492
0.130914
0.130302
0.129653
0.128965
0.128233
0.127462
0.126699
0.125971
0.125291
0.124669
0.12412
0.12358
0.12301
0.122385
0.121693
0.120945
0.120163
0.119372
0.118607
0.117896
0.117263
0.116708
0.116242
0.115867
0.115521
0.137099
0.137033
0.136927
0.136782
0.136602
0.13639
0.136148
0.135878
0.135582
0.135262
0.134916
0.134548
0.134157
0.133744
0.133311
0.132854
0.132376
0.131875
0.131353
0.130806
0.130233
0.129638
0.129037
0.128433
0.127838
0.127266
0.126734
0.126247
0.125797
0.12538
0.124989
0.124619
0.124264
0.123917
0.12358
0.123258
0.122956
0.122676
0.122429
0.122223
0.122091
0.137628
0.137577
0.13749
0.137369
0.137216
0.137034
0.136824
0.13659
0.136332
0.136053
0.135755
0.135438
0.135103
0.134751
0.134382
0.133997
0.133596
0.13318
0.132749
0.132303
0.13184
0.131369
0.130898
0.130428
0.129958
0.129495
0.12905
0.128622
0.128234
0.127928
0.127668
0.12744
0.127238
0.127059
0.1269
0.126762
0.126642
0.126539
0.126454
0.126388
0.126349
0.138094
0.138057
0.137991
0.137893
0.137766
0.13761
0.137428
0.137223
0.136997
0.136752
0.13649
0.136213
0.135921
0.135616
0.135299
0.13497
0.134629
0.134278
0.133916
0.133543
0.133161
0.132776
0.132394
0.132016
0.131645
0.131286
0.130938
0.130598
0.130304
0.130078
0.12989
0.129727
0.129587
0.129467
0.129366
0.129283
0.129218
0.129166
0.129128
0.129104
0.1291
0.138506
0.138487
0.138443
0.138368
0.138263
0.13813
0.137973
0.137794
0.137595
0.137379
0.137147
0.136902
0.136644
0.136376
0.136098
0.135812
0.135517
0.135216
0.134908
0.134592
0.134271
0.133948
0.13363
0.133319
0.133019
0.13273
0.13245
0.132187
0.131981
0.131817
0.131677
0.131556
0.131452
0.131363
0.131288
0.131227
0.131179
0.131141
0.131114
0.131097
0.131098
0.138875
0.13888
0.138858
0.138803
0.138717
0.138603
0.138467
0.138309
0.138134
0.137943
0.137737
0.13752
0.137292
0.137054
0.136809
0.136556
0.136298
0.136035
0.135767
0.135495
0.13522
0.134944
0.134674
0.134414
0.134164
0.133924
0.133691
0.133495
0.133345
0.133221
0.133114
0.133022
0.132942
0.132874
0.132816
0.132769
0.13273
0.1327
0.132677
0.132662
0.132662
0.139214
0.139243
0.139239
0.139199
0.13913
0.139035
0.138918
0.138781
0.138627
0.138457
0.138274
0.13808
0.137877
0.137665
0.137447
0.137223
0.136995
0.136762
0.136527
0.136289
0.136049
0.13581
0.135577
0.135353
0.13514
0.134934
0.134738
0.134584
0.134464
0.134366
0.134281
0.134207
0.134144
0.134089
0.134043
0.134005
0.133974
0.133948
0.133929
0.133915
0.133915
0.139529
0.139577
0.139584
0.139559
0.139509
0.139437
0.139343
0.139229
0.139096
0.138946
0.138781
0.138606
0.138421
0.13823
0.138033
0.137831
0.137626
0.137419
0.13721
0.136999
0.136788
0.136577
0.136373
0.136177
0.13599
0.135811
0.135641
0.135508
0.135405
0.135321
0.135249
0.135187
0.135133
0.135087
0.135047
0.135014
0.134987
0.134964
0.134947
0.134934
0.134932
0.139809
0.139869
0.139887
0.139881
0.139859
0.139818
0.139759
0.139679
0.139577
0.13945
0.139301
0.139137
0.138964
0.138783
0.138599
0.138411
0.138222
0.138031
0.137841
0.13765
0.137461
0.137272
0.137089
0.136914
0.136747
0.136588
0.136436
0.136311
0.136217
0.136141
0.136076
0.136019
0.135971
0.135929
0.135892
0.135862
0.135836
0.135814
0.135796
0.135782
0.135779
0.140018
0.140091
0.140121
0.140132
0.140131
0.140117
0.140092
0.140054
0.140003
0.139932
0.139835
0.139707
0.139551
0.139378
0.139198
0.139014
0.13883
0.138647
0.138465
0.138284
0.138107
0.137932
0.137763
0.1376
0.137445
0.1373
0.13716
0.137034
0.13694
0.136866
0.136804
0.13675
0.136703
0.136662
0.136626
0.136595
0.136569
0.136547
0.136528
0.136512
0.136505
0.140162
0.140218
0.140246
0.140261
0.140269
0.140269
0.140263
0.140249
0.140228
0.140196
0.140153
0.140093
0.140012
0.139905
0.13977
0.139611
0.13944
0.139265
0.139091
0.138919
0.138749
0.138583
0.138423
0.138268
0.13812
0.13798
0.137848
0.137723
0.137619
0.137539
0.137474
0.137418
0.137369
0.137326
0.137289
0.137256
0.137227
0.137202
0.13718
0.137161
0.137151
0.140249
0.140287
0.140314
0.140334
0.140349
0.140359
0.140364
0.140363
0.140357
0.140345
0.140326
0.1403
0.140265
0.140218
0.140155
0.140072
0.139967
0.139837
0.139687
0.13953
0.139372
0.139216
0.139066
0.13892
0.138778
0.138644
0.138516
0.138396
0.138283
0.13819
0.138117
0.138056
0.138004
0.137957
0.137915
0.137878
0.137845
0.137816
0.13779
0.137767
0.137751
0.14029
0.140326
0.140355
0.14038
0.1404
0.140417
0.14043
0.140438
0.140443
0.140442
0.140437
0.140426
0.140411
0.14039
0.140363
0.140328
0.140282
0.140223
0.140146
0.14005
0.139936
0.139803
0.139667
0.139534
0.139404
0.139278
0.139157
0.139042
0.138934
0.138831
0.138745
0.138677
0.138619
0.138567
0.138522
0.13848
0.138443
0.138409
0.138378
0.13835
0.13833
0.140313
0.140349
0.14038
0.140408
0.140433
0.140456
0.140475
0.140491
0.140503
0.140511
0.140515
0.140515
0.140511
0.140502
0.14049
0.140474
0.140454
0.140429
0.140398
0.140358
0.140307
0.140242
0.140159
0.140057
0.139949
0.139842
0.139736
0.139633
0.139533
0.139439
0.139348
0.139268
0.139205
0.13915
0.139102
0.139058
0.139018
0.138981
0.138947
0.138915
0.13889
0.140322
0.140358
0.140391
0.140423
0.140452
0.14048
0.140505
0.140527
0.140546
0.140562
0.140574
0.140581
0.140586
0.140586
0.140583
0.140577
0.140568
0.140556
0.140542
0.140525
0.140504
0.140479
0.140446
0.140404
0.14035
0.140278
0.140198
0.140116
0.140035
0.139955
0.139878
0.139803
0.139733
0.139675
0.139626
0.139583
0.139544
0.139507
0.139473
0.139441
0.139415
0.14032
0.140357
0.140392
0.140426
0.14046
0.140493
0.140523
0.140551
0.140577
0.140599
0.140617
0.140632
0.140643
0.140651
0.140656
0.140657
0.140656
0.140652
0.140646
0.140637
0.140628
0.140616
0.140602
0.140586
0.140565
0.140539
0.140506
0.140462
0.140406
0.140346
0.140287
0.140227
0.14017
0.140114
0.140062
0.140021
0.139986
0.139954
0.139924
0.139895
0.139871
0.140309
0.140346
0.140383
0.14042
0.140458
0.140495
0.140531
0.140565
0.140596
0.140624
0.140649
0.14067
0.140688
0.140703
0.140714
0.140722
0.140727
0.14073
0.14073
0.140728
0.140725
0.140719
0.140712
0.140704
0.140694
0.140682
0.140669
0.140653
0.140632
0.140607
0.140572
0.14053
0.140487
0.140444
0.140402
0.140362
0.140326
0.140297
0.140272
0.140249
0.140231
0.140289
0.140326
0.140364
0.140404
0.140445
0.140487
0.140528
0.140567
0.140604
0.140639
0.14067
0.140698
0.140722
0.140743
0.140761
0.140775
0.140786
0.140794
0.1408
0.140804
0.140806
0.140806
0.140803
0.1408
0.140795
0.140788
0.140781
0.140772
0.140763
0.140752
0.140739
0.140723
0.140703
0.140674
0.140644
0.140613
0.140582
0.140553
0.140527
0.140507
0.140493
0.14026
0.140296
0.140335
0.140376
0.140421
0.140466
0.140513
0.140558
0.140602
0.140643
0.140682
0.140716
0.140747
0.140775
0.140798
0.140818
0.140835
0.140849
0.14086
0.140869
0.140875
0.14088
0.140882
0.140882
0.140881
0.140879
0.140875
0.14087
0.140864
0.140857
0.140849
0.140841
0.140831
0.14082
0.140806
0.14079
0.140767
0.140744
0.140721
0.140699
0.140686
0.140222
0.140256
0.140294
0.140335
0.140382
0.140431
0.140483
0.140536
0.140587
0.140637
0.140683
0.140726
0.140764
0.140799
0.140829
0.140855
0.140877
0.140896
0.140913
0.140926
0.140937
0.140945
0.140952
0.140956
0.140958
0.140959
0.140959
0.140957
0.140954
0.14095
0.140945
0.140939
0.140933
0.140925
0.140917
0.140908
0.140898
0.140886
0.140871
0.140853
0.140841
0.140174
0.140204
0.140237
0.140277
0.140323
0.140375
0.140432
0.140492
0.140554
0.140614
0.140671
0.140724
0.140773
0.140816
0.140854
0.140887
0.140916
0.14094
0.14096
0.140976
0.14099
0.141
0.141009
0.141015
0.141019
0.141021
0.141022
0.141021
0.14102
0.141017
0.141013
0.141008
0.141003
0.140997
0.140989
0.140982
0.140973
0.140964
0.140954
0.140942
0.140932
0.140115
0.140136
0.140162
0.140194
0.140234
0.140282
0.140338
0.140403
0.140476
0.140552
0.140627
0.140697
0.140764
0.140825
0.140882
0.140933
0.140978
0.141018
0.141052
0.141082
0.141106
0.141127
0.141143
0.141156
0.141165
0.141172
0.141176
0.141179
0.141179
0.141178
0.141176
0.141172
0.141168
0.141162
0.141155
0.141148
0.14114
0.141131
0.141121
0.141111
0.141099
0.140041
0.14005
0.140061
0.140076
0.140096
0.140123
0.140157
0.140203
0.140263
0.140339
0.140451
0.140514
0.140563
0.140611
0.140659
0.140707
0.140755
0.140801
0.140845
0.140886
0.140925
0.140959
0.14099
0.141018
0.141042
0.141062
0.14108
0.141094
0.141106
0.141115
0.141122
0.141126
0.141129
0.14113
0.141129
0.141127
0.141123
0.141118
0.141112
0.141104
0.141091
0.0190914
0.0406431
0.0441021
0.0287021
0.0202496
0.0319586
0.0649488
0.0946071
0.114634
0.127688
0.136241
0.14193
0.1458
0.148497
0.15042
0.151813
0.152824
0.153537
0.154007
0.154269
0.154395
0.154399
0.154296
0.154102
0.153837
0.153519
0.15316
0.152765
0.152339
0.151885
0.151407
0.15091
0.150394
0.149859
0.149308
0.148743
0.148166
0.14758
0.146988
0.146393
0.145798
0.145209
0.144632
0.144073
0.143534
0.143021
0.142538
0.142087
0.141673
0.141298
0.140965
0.140675
0.140433
0.140237
0.140088
0.139986
0.139927
0.13991
0.139932
0.139987
0.140072
0.14018
0.140306
0.140445
0.140592
0.140743
0.140894
0.14104
0.141183
0.141316
0.141452
0.141571
0.141668
0.141642
0.0240876
0.0463747
0.049398
0.0320577
0.0209278
0.0352104
0.071001
0.100338
0.119422
0.13166
0.139585
0.144805
0.148322
0.15075
0.152463
0.153686
0.154552
0.155139
0.155493
0.155653
0.155676
0.155585
0.155397
0.155132
0.154808
0.154443
0.154048
0.153627
0.153181
0.152713
0.152227
0.151723
0.151202
0.150664
0.15011
0.149541
0.14896
0.148368
0.147768
0.147164
0.146558
0.145956
0.145364
0.144789
0.144233
0.143701
0.143198
0.142728
0.142294
0.141899
0.141546
0.141237
0.140975
0.14076
0.140592
0.14047
0.140392
0.140354
0.140354
0.140387
0.140447
0.14053
0.140628
0.140738
0.140855
0.140973
0.14109
0.141201
0.141306
0.141402
0.141498
0.141576
0.141629
0.14156
0.0305913
0.0529273
0.0554684
0.0362406
0.02212
0.0389382
0.0767193
0.105514
0.123725
0.135262
0.142667
0.147508
0.150748
0.152971
0.154526
0.155622
0.15638
0.156867
0.157127
0.157197
0.157128
0.156949
0.15668
0.156344
0.155962
0.155552
0.155124
0.15468
0.15422
0.153743
0.153253
0.152751
0.152233
0.151698
0.151147
0.150579
0.149998
0.149403
0.148797
0.148183
0.147563
0.146944
0.146331
0.145731
0.145147
0.144584
0.144048
0.143542
0.14307
0.142637
0.142245
0.141898
0.141597
0.141344
0.141139
0.140981
0.140867
0.140795
0.140761
0.140761
0.140789
0.14084
0.140907
0.140986
0.141071
0.141158
0.141243
0.141322
0.141394
0.141456
0.141517
0.14156
0.141575
0.141472
0.0390436
0.0605073
0.0620973
0.0410613
0.023972
0.0431911
0.0822067
0.110251
0.127648
0.138585
0.145567
0.150109
0.15314
0.155212
0.156655
0.157659
0.158335
0.158742
0.15892
0.158905
0.158747
0.158477
0.158124
0.157713
0.157271
0.156815
0.156356
0.155893
0.155424
0.154946
0.154462
0.153969
0.153465
0.152944
0.152405
0.151848
0.151273
0.150682
0.150075
0.149454
0.148822
0.148184
0.147547
0.146916
0.146296
0.145691
0.145109
0.144553
0.144027
0.143538
0.143088
0.142682
0.142322
0.142011
0.141749
0.141535
0.141368
0.141246
0.141165
0.141121
0.141108
0.141121
0.141152
0.141197
0.14125
0.141306
0.141361
0.14141
0.141452
0.141484
0.141514
0.141527
0.14151
0.141378
0.0500041
0.069226
0.0690488
0.0462149
0.0265726
0.0481425
0.0876146
0.114681
0.131302
0.141723
0.14836
0.152673
0.155549
0.157515
0.158878
0.159816
0.160426
0.16076
0.160857
0.160752
0.160495
0.160126
0.159678
0.159186
0.158678
0.158175
0.157687
0.15721
0.156739
0.15627
0.155802
0.155333
0.154856
0.154363
0.153851
0.153319
0.152765
0.152189
0.151591
0.150972
0.150335
0.149682
0.149022
0.148358
0.147697
0.147044
0.146406
0.145787
0.145193
0.144631
0.144105
0.143619
0.14318
0.142789
0.142449
0.142159
0.14192
0.14173
0.141586
0.141484
0.141419
0.141385
0.141374
0.141381
0.1414
0.141424
0.141449
0.14147
0.141485
0.141491
0.141493
0.14148
0.141437
0.141283
0.0635968
0.0789439
0.0759941
0.0512766
0.0299636
0.0540787
0.0931289
0.118953
0.13481
0.144771
0.151125
0.155259
0.158019
0.159906
0.161208
0.162088
0.162631
0.162887
0.162889
0.162675
0.1623
0.161811
0.161252
0.160665
0.160086
0.159536
0.159022
0.158539
0.158078
0.15763
0.157195
0.156767
0.156337
0.155893
0.155429
0.154942
0.154428
0.153887
0.153315
0.152714
0.152084
0.151428
0.150753
0.150062
0.149363
0.14866
0.147961
0.147271
0.146598
0.145949
0.145329
0.144746
0.144206
0.143713
0.143272
0.142883
0.14255
0.142272
0.142046
0.14187
0.141739
0.141646
0.141585
0.141548
0.141529
0.14152
0.141515
0.141509
0.141499
0.141481
0.14146
0.141424
0.141358
0.141189
0.0790857
0.08914
0.0824058
0.0556965
0.034293
0.061409
0.098961
0.123258
0.13832
0.147841
0.153938
0.157917
0.160578
0.162392
0.163629
0.164438
0.164895
0.165043
0.164918
0.16456
0.164032
0.163392
0.162698
0.162003
0.161346
0.160751
0.16022
0.159744
0.159308
0.158902
0.158521
0.158159
0.157802
0.157436
0.157048
0.156634
0.156189
0.15571
0.155191
0.154632
0.154033
0.153394
0.152722
0.152019
0.151292
0.150547
0.14979
0.149029
0.148272
0.147526
0.1468
0.146102
0.145442
0.144825
0.144259
0.143748
0.143296
0.142905
0.142575
0.142304
0.142089
0.141923
0.141799
0.141709
0.141646
0.141601
0.141565
0.141532
0.141498
0.141458
0.141416
0.141361
0.141277
0.141095
0.0948869
0.0988764
0.0874181
0.0588805
0.0404759
0.0705242
0.105336
0.127832
0.142008
0.151054
0.156878
0.16069
0.163233
0.16495
0.166089
0.166784
0.167106
0.167094
0.166784
0.166226
0.16549
0.164655
0.163795
0.162976
0.162242
0.16161
0.161078
0.160631
0.160247
0.15991
0.159614
0.159351
0.159104
0.158851
0.158577
0.158274
0.157937
0.157558
0.157129
0.156648
0.156113
0.155525
0.154885
0.154197
0.153465
0.152696
0.151896
0.151073
0.150235
0.149392
0.148553
0.14773
0.146933
0.146173
0.145459
0.144799
0.1442
0.143669
0.143208
0.142817
0.142495
0.142236
0.142033
0.141879
0.141762
0.141674
0.141604
0.141544
0.141486
0.141426
0.141364
0.141293
0.141194
0.141005
0.109199
0.106646
0.0897085
0.0608225
0.0505647
0.0815584
0.112569
0.132951
0.146072
0.154536
0.160013
0.163591
0.165954
0.167507
0.168474
0.168977
0.16908
0.168822
0.168244
0.167404
0.166388
0.1653
0.164239
0.163285
0.16248
0.161831
0.161328
0.160944
0.160649
0.160421
0.160252
0.160133
0.160042
0.15995
0.159837
0.159694
0.159514
0.159285
0.158996
0.158641
0.158219
0.157726
0.157163
0.156531
0.155832
0.155073
0.154259
0.153397
0.152496
0.151566
0.150619
0.149668
0.148726
0.147807
0.146925
0.146091
0.145318
0.144615
0.143991
0.143449
0.142991
0.142613
0.14231
0.142073
0.14189
0.14175
0.14164
0.141549
0.141467
0.141387
0.141307
0.141222
0.141112
0.140919
0.119882
0.110315
0.0885533
0.064912
0.0653844
0.0945469
0.120992
0.138901
0.150694
0.158377
0.163352
0.166567
0.168629
0.169897
0.170574
0.170766
0.170531
0.169913
0.168958
0.167734
0.166347
0.164939
0.163647
0.162558
0.161701
0.161069
0.160636
0.160364
0.160209
0.160142
0.160157
0.160239
0.160361
0.16049
0.160597
0.160674
0.160711
0.160695
0.160608
0.160442
0.160193
0.159858
0.159431
0.158913
0.158303
0.157605
0.156823
0.155964
0.155035
0.154047
0.153012
0.151945
0.150861
0.149778
0.148713
0.147683
0.146708
0.145801
0.144978
0.144249
0.143619
0.14309
0.142657
0.142312
0.142044
0.141839
0.14168
0.141553
0.141444
0.141344
0.141247
0.14115
0.141032
0.140837
0.124401
0.108729
0.0879471
0.0753138
0.0844417
0.109357
0.130826
0.145859
0.155948
0.162546
0.166772
0.169417
0.170992
0.171805
0.172029
0.171758
0.171049
0.169946
0.168498
0.166784
0.164934
0.163153
0.161619
0.16041
0.159534
0.158962
0.158651
0.158547
0.158589
0.158745
0.159007
0.159357
0.159763
0.160179
0.160574
0.160939
0.161265
0.161534
0.161723
0.161821
0.161823
0.161721
0.161508
0.16118
0.160734
0.160169
0.159488
0.158695
0.157795
0.156799
0.155717
0.154565
0.153361
0.152123
0.150874
0.149637
0.148436
0.147295
0.146236
0.145277
0.144432
0.143709
0.143109
0.142625
0.142245
0.141955
0.141733
0.141562
0.141421
0.141299
0.141186
0.141078
0.140954
0.14076
0.122524
0.107341
0.0948229
0.0934414
0.106164
0.125549
0.141907
0.153648
0.161585
0.166715
0.169876
0.171685
0.172546
0.172709
0.172313
0.171443
0.170144
0.168464
0.166457
0.164193
0.161832
0.159679
0.157928
0.156629
0.155761
0.155279
0.155123
0.155224
0.155505
0.155931
0.156497
0.157182
0.157936
0.158706
0.159456
0.160179
0.160869
0.161502
0.162048
0.162494
0.162833
0.163054
0.163147
0.163103
0.162915
0.162578
0.162089
0.161451
0.160664
0.159736
0.158676
0.157498
0.156219
0.15486
0.153446
0.152005
0.150568
0.149168
0.147837
0.146605
0.145497
0.14453
0.143713
0.143046
0.142519
0.142115
0.141811
0.141582
0.141403
0.141256
0.141125
0.141007
0.140879
0.140688
0.123024
0.114661
0.111547
0.116526
0.1283
0.141939
0.153231
0.161353
0.166744
0.170052
0.17186
0.172607
0.172588
0.171986
0.170922
0.169459
0.167605
0.165393
0.162872
0.160114
0.157326
0.154876
0.152946
0.151551
0.150658
0.150217
0.150165
0.150427
0.15091
0.151592
0.152476
0.153519
0.154655
0.155814
0.156959
0.158095
0.159212
0.160278
0.161257
0.162132
0.162898
0.163539
0.164038
0.164384
0.164564
0.164568
0.164388
0.164018
0.163457
0.162705
0.161768
0.160654
0.15938
0.157965
0.156434
0.154819
0.153157
0.15149
0.149861
0.148314
0.14689
0.14562
0.144528
0.143622
0.1429
0.142344
0.141929
0.141624
0.141395
0.141216
0.141066
0.140938
0.140809
0.140623
0.132575
0.131023
0.133233
0.139358
0.147766
0.156039
0.162589
0.167113
0.169891
0.17133
0.171791
0.171544
0.17078
0.169632
0.168207
0.166556
0.164511
0.162078
0.15928
0.156229
0.153124
0.150401
0.148201
0.146544
0.145418
0.144796
0.144622
0.144827
0.145314
0.146102
0.147196
0.148514
0.149965
0.151458
0.152968
0.154511
0.156073
0.157602
0.159053
0.160413
0.161677
0.162821
0.163823
0.164665
0.16533
0.1658
0.166061
0.166098
0.165902
0.165465
0.164787
0.163869
0.162719
0.161353
0.159794
0.158073
0.15623
0.154314
0.152381
0.15049
0.1487
0.147065
0.145628
0.144415
0.143434
0.142674
0.142108
0.141699
0.141404
0.141184
0.141009
0.140872
0.140744
0.140563
0.147134
0.148779
0.151981
0.156308
0.160861
0.164766
0.167599
0.169368
0.170295
0.170639
0.170534
0.170052
0.169299
0.16837
0.1673
0.166518
0.164928
0.162631
0.159594
0.156008
0.152276
0.148868
0.145981
0.143675
0.141954
0.140788
0.140125
0.1399
0.140025
0.140612
0.14164
0.142962
0.144472
0.146071
0.147768
0.149596
0.151511
0.15343
0.155303
0.157132
0.15891
0.160594
0.162153
0.163571
0.164821
0.165876
0.166711
0.167303
0.167631
0.167678
0.167428
0.166874
0.166014
0.164851
0.163402
0.161692
0.159759
0.157656
0.155447
0.153208
0.151019
0.14896
0.147103
0.1455
0.144181
0.143148
0.142376
0.141824
0.141437
0.141163
0.140958
0.14081
0.140685
0.14051
0.159889
0.161893
0.164087
0.166312
0.168323
0.16995
0.171185
0.172164
0.173016
0.174256
0.175477
0.176095
0.1763
0.176031
0.17511
0.173377
0.170502
0.166531
0.161773
0.156749
0.152008
0.147851
0.144393
0.141645
0.139568
0.138096
0.137155
0.136667
0.136562
0.13683
0.137452
0.13837
0.139516
0.140805
0.142345
0.144166
0.146154
0.1482
0.150276
0.152419
0.154602
0.156745
0.158822
0.160817
0.162689
0.1644
0.165912
0.167191
0.1682
0.168906
0.169278
0.169292
0.168927
0.168172
0.167028
0.165506
0.163637
0.161466
0.159064
0.156515
0.153924
0.1514
0.149051
0.146969
0.145217
0.143821
0.142771
0.142022
0.141508
0.141158
0.140914
0.140752
0.140633
0.140464
0.180421
0.182328
0.18391
0.185459
0.187011
0.188545
0.190031
0.191425
0.192629
0.193503
0.193844
0.193449
0.192159
0.18975
0.186002
0.180848
0.174548
0.167637
0.160835
0.154596
0.14918
0.144683
0.141097
0.138348
0.136336
0.134955
0.134101
0.133682
0.133619
0.133861