/*--------------------------------*- C++ -*----------------------------------*\
| =========                 |                                                 |
| \\      /  F ield         | OpenFOAM: The Open Source CFD Toolbox           |
|  \\    /   O peration     | Version:  5.x                                   |
|   \\  /    A nd           | Web:      www.OpenFOAM.org                      |
|    \\/     M anipulation  |                                                 |
\*---------------------------------------------------------------------------*/
FoamFile
{
    version     2.0;
    format      ascii;
    class       volScalarField;
    location    "100";
    object      nuTilda;
}
// * * * * * * * * * * * * * * * * * * * * * * * * * * * * * * * * * * * * * //

dimensions      [0 2 -1 0 0 0 0];

internalField   nonuniform List<scalar> 
11040
(
0.00353777
0.00410947
0.00439332
0.00443568
0.00422543
0.00395069
0.00371468
0.00349941
0.0032725
0.00301523
0.00270496
0.00241486
0.00218889
0.00201364
0.00183547
0.00164302
0.00143108
0.0011753
0.00078518
0.00066313
0.000581769
0.00050618
0.000451634
0.000599662
0.000667158
0.000648865
0.000583041
0.00052404
0.000505241
0.000503625
0.000511059
0.000526931
0.000552507
0.000587594
0.000628451
0.000666206
0.000683688
0.000646346
0.000501643
0.000580842
0.000953981
0.00776426
0.0082915
0.0075489
0.00676571
0.00601993
0.00561355
0.00560839
0.00562685
0.00555816
0.00537688
0.00518221
0.00503465
0.00493259
0.00481234
0.00462306
0.00440614
0.00418858
0.00396467
0.0036782
0.00349769
0.00317783
0.0027443
0.00233058
0.00212945
0.00189735
0.00166245
0.00148416
0.00132144
0.00120216
0.00111838
0.00106752
0.00105026
0.00107492
0.00114907
0.00127768
0.00146332
0.00169819
0.00195563
0.00226075
0.0029526
0.00462403
0.0158261
0.0166398
0.0155368
0.0141882
0.0126781
0.0112018
0.00989198
0.00878576
0.0078779
0.00705455
0.00675228
0.00661318
0.00658006
0.0065979
0.00658106
0.0065132
0.00640176
0.0062565
0.00607401
0.00591364
0.0057204
0.00552754
0.00531701
0.00498626
0.00445762
0.00391778
0.00354197
0.00319981
0.00294031
0.00274987
0.00261451
0.00255453
0.00259071
0.00274432
0.00302718
0.00343618
0.00394791
0.00451457
0.00517588
0.00638964
0.00948281
0.0250445
0.0259256
0.0247299
0.0229821
0.0209524
0.0188582
0.0168314
0.014928
0.0131931
0.0115926
0.0101356
0.00893401
0.00847006
0.00829615
0.0082318
0.00821117
0.00819226
0.00814982
0.00807204
0.0079826
0.00789518
0.00786253
0.00785863
0.00779406
0.00758371
0.00719446
0.00661544
0.00600239
0.00553437
0.00518984
0.00493624
0.0048049
0.00483143
0.0050579
0.005513
0.00619069
0.00704981
0.00799961
0.00907958
0.0108574
0.0151847
0.0350977
0.0359246
0.0347293
0.0327489
0.0303414
0.0277544
0.0251504
0.022572
0.0201214
0.0178098
0.015535
0.0134881
0.0119294
0.0108309
0.0103291
0.0100658
0.0099234
0.00984538
0.00979623
0.00976559
0.00976872
0.00986015
0.010044
0.0102642
0.0104093
0.0103867
0.0101498
0.00974075
0.00922984
0.00871119
0.00829168
0.00804609
0.00803011
0.00830954
0.00894182
0.00992091
0.0111854
0.0125654
0.0140742
0.016291
0.0214606
0.0455924
0.0463173
0.0451857
0.0431383
0.040533
0.0375572
0.0344172
0.031264
0.0282066
0.025265
0.0223149
0.0195623
0.0172328
0.0153326
0.0137548
0.012796
0.0122213
0.0118352
0.0115806
0.0114392
0.0114195
0.0115521
0.0118519
0.0123096
0.0128201
0.0132331
0.0134338
0.013401
0.0131806
0.0128478
0.0125055
0.0122839
0.0123306
0.012758
0.0135993
0.0148789
0.0165753
0.0183907
0.0202987
0.0227006
0.0280704
0.0562107
0.0567972
0.0557624
0.0537824
0.0511267
0.0479917
0.0445849
0.0410578
0.0375406
0.0340735
0.0305365
0.0271474
0.0241649
0.0216136
0.0193111
0.0172948
0.0157249
0.0147306
0.0140117
0.0134836
0.013167
0.0131161
0.0133432
0.0138693
0.0146437
0.0155032
0.0162436
0.0167309
0.0169483
0.0169608
0.0168749
0.0168504
0.017111
0.0178894
0.0193104
0.0213049
0.0235546
0.0257381
0.0279628
0.03022
0.0348564
0.0665996
0.0670618
0.066148
0.0643272
0.0617834
0.0587136
0.0552872
0.0516312
0.0478737
0.0440648
0.0400964
0.036189
0.032635
0.0294939
0.0265996
0.0239028
0.0214053
0.0193209
0.0178309
0.0166409
0.0156985
0.0151201
0.0149417
0.0151805
0.0158738
0.0169501
0.0181976
0.0193433
0.0202066
0.020763
0.0210953
0.0213805
0.0218923
0.0229822
0.024936
0.0278078
0.0312929
0.0347673
0.0373569
0.0391073
0.0420151
0.0765191
0.0768634
0.0760714
0.0744588
0.072149
0.0693092
0.0660669
0.0625144
0.0587589
0.0548421
0.0506656
0.0464337
0.0424513
0.0388149
0.0354012
0.0321721
0.0290874
0.026137
0.0236582
0.0216326
0.0198697
0.0185075
0.0175945
0.0171105
0.0171731
0.0178559
0.0191127
0.020724
0.0223545
0.023729
0.0247643
0.0255716
0.0264202
0.0277388
0.0299831
0.0333884
0.0377842
0.0425955
0.0469111
0.0496648
0.0504422
0.0857308
0.0859764
0.0853039
0.0839204
0.0819088
0.0794003
0.0764853
0.0732178
0.0696782
0.0658697
0.0617186
0.0573962
0.0531916
0.049232
0.0454562
0.0418199
0.0383034
0.0348542
0.0315944
0.0287513
0.0261942
0.0240484
0.022323
0.0209081
0.019942
0.0195826
0.0199598
0.0211038
0.0228715
0.0249446
0.0269512
0.0286699
0.0301718
0.0318282
0.0342004
0.0377744
0.0426279
0.0483192
0.0539807
0.0585123
0.0607482
0.0940797
0.09425
0.0936896
0.092532
0.0908351
0.0886985
0.0861833
0.0833007
0.0801074
0.0766183
0.0727446
0.0686058
0.0644456
0.0603909
0.0564082
0.052512
0.0487021
0.0449595
0.0412343
0.0377604
0.0345903
0.0318665
0.0295287
0.0273489
0.0254143
0.0238653
0.022876
0.0226228
0.0232283
0.0246884
0.026824
0.0293108
0.0318231
0.0342639
0.0369411
0.0404485
0.0452368
0.0512294
0.0577255
0.0636039
0.0677103
0.101493
0.101609
0.101147
0.100195
0.0987952
0.0970244
0.0949234
0.0924807
0.0897377
0.0866968
0.0832741
0.0795422
0.0756829
0.0717987
0.0678691
0.0639279
0.0599958
0.0560797
0.0521519
0.0482125
0.0445662
0.0414909
0.0388253
0.0362383
0.0337383
0.0313884
0.0292991
0.0276258
0.026552
0.0262557
0.0268563
0.0283595
0.0306313
0.0334508
0.0366663
0.040363
0.0448843
0.050549
0.0571795
0.0639536
0.0696575
0.107962
0.108039
0.107656
0.106879
0.105742
0.104302
0.102589
0.100582
0.0983132
0.0957749
0.092893
0.0897044
0.0863191
0.0828183
0.0791906
0.0754755
0.0716814
0.0678222
0.0639006
0.0598925
0.0558375
0.0523365
0.0494597
0.0467426
0.0440871
0.0414665
0.0389043
0.0364671
0.034263
0.0324388
0.0311654
0.0306102
0.0308976
0.032076
0.0341234
0.0369947
0.0407219
0.0454785
0.0513793
0.0581503
0.0649527
0.113525
0.113564
0.113244
0.112613
0.1117
0.110545
0.109171
0.107558
0.105729
0.103677
0.101339
0.0987173
0.0958989
0.092926
0.0897812
0.086487
0.0830588
0.0795165
0.0758508
0.0720556
0.0681109
0.0644726
0.0612463
0.0582786
0.0555644
0.0529597
0.0503888
0.0478311
0.0453053
0.0428638
0.0405926
0.0386097
0.037055
0.0360701
0.0357772
0.0362675
0.0376025
0.0398705
0.0431955
0.0476609
0.053206
0.118233
0.118249
0.117983
0.117475
0.116747
0.115829
0.114737
0.113458
0.112008
0.110382
0.108522
0.106441
0.104188
0.101782
0.0992012
0.096454
0.0935462
0.0904833
0.0872672
0.0838957
0.0803635
0.0770304
0.0739597
0.0709294
0.067981
0.0652081
0.0626687
0.06024
0.0578448
0.0554558
0.0530773
0.0507396
0.0484984
0.0464311
0.0446282
0.0432001
0.0422507
0.0418661
0.042144
0.043184
0.0451754
0.122201
0.122198
0.121975
0.121564
0.120993
0.120262
0.119397
0.118387
0.117248
0.115975
0.114524
0.112906
0.11115
0.109266
0.107224
0.105033
0.1027
0.100214
0.0975689
0.0947602
0.0917814
0.0889393
0.0862933
0.0836262
0.080945
0.0782767
0.0756644
0.0731224
0.0707321
0.0685067
0.0663573
0.0642336
0.0621164
0.0600111
0.0579339
0.0559313
0.0540637
0.05238
0.0509469
0.0498438
0.0490851
0.125527
0.12551
0.125323
0.124991
0.124534
0.123954
0.123271
0.122479
0.121588
0.120597
0.119476
0.118231
0.116884
0.11543
0.113859
0.11217
0.110361
0.108425
0.106364
0.10416
0.101803
0.0995282
0.0973914
0.0952267
0.093035
0.0908164
0.0885771
0.0863269
0.0840904
0.0818961
0.0797533
0.077678
0.0757343
0.0738845
0.0720701
0.0702706
0.0684874
0.0667171
0.0649769
0.0633116
0.0616164
0.128178
0.128156
0.128001
0.127731
0.127361
0.126897
0.126351
0.125727
0.125022
0.124241
0.123363
0.122396
0.121355
0.120234
0.119027
0.117732
0.116348
0.114868
0.113287
0.111598
0.109789
0.108034
0.106375
0.104691
0.102985
0.101256
0.0995041
0.0977327
0.0959392
0.0941281
0.0923074
0.090488
0.0886904
0.086928
0.085197
0.0834965
0.0818495
0.0802759
0.078756
0.0772755
0.0757043
0.130218
0.130193
0.130062
0.129837
0.129532
0.129157
0.128711
0.128203
0.127632
0.127002
0.126306
0.125539
0.124715
0.123833
0.122887
0.121878
0.120804
0.11966
0.118442
0.117145
0.115761
0.114413
0.113135
0.111838
0.110526
0.109199
0.107857
0.106501
0.10513
0.103742
0.102341
0.100923
0.0994916
0.0980496
0.0965971
0.0951419
0.0936953
0.0922582
0.0908358
0.0894382
0.087992
0.131817
0.131791
0.13168
0.131491
0.131235
0.130921
0.130551
0.130129
0.129663
0.129146
0.128577
0.127954
0.127289
0.126584
0.125828
0.125025
0.124174
0.123273
0.122318
0.121307
0.120234
0.119188
0.118197
0.117195
0.116182
0.115161
0.114131
0.113094
0.112049
0.110995
0.109934
0.108863
0.107781
0.10669
0.105582
0.10446
0.103327
0.102177
0.101012
0.0998391
0.0986247
0.133101
0.133078
0.132982
0.132822
0.132604
0.132338
0.132028
0.131673
0.131282
0.13085
0.130377
0.129866
0.129319
0.128742
0.128127
0.127476
0.12679
0.126068
0.125307
0.124505
0.123661
0.122837
0.122057
0.121271
0.120481
0.119687
0.118886
0.118082
0.117278
0.116473
0.115664
0.114852
0.114036
0.113217
0.112388
0.111551
0.110705
0.109845
0.108968
0.108077
0.107154
0.134153
0.134133
0.134051
0.133913
0.133726
0.133497
0.133231
0.132932
0.132599
0.132236
0.131838
0.13141
0.130953
0.130473
0.129968
0.129433
0.128872
0.128284
0.127668
0.127023
0.126347
0.125688
0.125066
0.124441
0.123811
0.123184
0.122554
0.121923
0.121293
0.120668
0.120044
0.11942
0.118796
0.118173
0.117547
0.116917
0.116285
0.115645
0.114995
0.114337
0.113663
0.13503
0.135013
0.134942
0.134821
0.134659
0.134461
0.134231
0.133973
0.13369
0.133379
0.133042
0.132679
0.132296
0.131892
0.131468
0.131025
0.130563
0.130078
0.129572
0.129045
0.128497
0.127963
0.127459
0.126955
0.126449
0.125946
0.125443
0.12494
0.12444
0.123944
0.123454
0.122968
0.122485
0.122004
0.121522
0.121041
0.12056
0.120075
0.119587
0.119096
0.1186
0.135771
0.135755
0.135692
0.135588
0.135446
0.135274
0.135074
0.13485
0.134604
0.134336
0.134046
0.133735
0.133408
0.133067
0.132709
0.132336
0.131948
0.131546
0.13113
0.130696
0.130246
0.129809
0.129396
0.128984
0.128574
0.128167
0.12776
0.127355
0.126953
0.126554
0.126161
0.125773
0.125392
0.125014
0.124638
0.124264
0.123892
0.12352
0.123147
0.122775
0.122405
0.136402
0.136388
0.136333
0.136242
0.136119
0.135968
0.135794
0.135598
0.135384
0.135152
0.134901
0.134634
0.134353
0.13406
0.133755
0.133439
0.133111
0.132772
0.132422
0.132062
0.131691
0.131329
0.130987
0.130647
0.13031
0.129975
0.129643
0.129313
0.128987
0.128664
0.128346
0.128033
0.127725
0.127422
0.127124
0.12683
0.126539
0.12625
0.125961
0.125674
0.125392
0.136944
0.136932
0.136885
0.136806
0.136699
0.136568
0.136415
0.136244
0.136056
0.135853
0.135636
0.135403
0.135161
0.134908
0.134645
0.134374
0.134095
0.133808
0.133512
0.133209
0.132898
0.132597
0.132312
0.132029
0.131749
0.131472
0.131198
0.130927
0.130659
0.130395
0.130136
0.12988
0.12963
0.129384
0.129143
0.128906
0.128674
0.128446
0.12822
0.127996
0.127779
0.137414
0.137404
0.137365
0.137298
0.137205
0.137091
0.136957
0.136806
0.13664
0.136462
0.136271
0.136069
0.135858
0.135638
0.135412
0.135179
0.134939
0.134693
0.134442
0.134186
0.133923
0.133668
0.133428
0.133192
0.132957
0.132726
0.132497
0.132273
0.132051
0.131834
0.13162
0.131411
0.131205
0.131004
0.130807
0.130614
0.130425
0.130241
0.130059
0.129881
0.129711
0.137824
0.137818
0.137786
0.137729
0.13765
0.13755
0.137432
0.137299
0.137152
0.136994
0.136826
0.136648
0.136464
0.136273
0.136077
0.135875
0.135668
0.135457
0.135241
0.135022
0.1348
0.134585
0.134381
0.13418
0.133982
0.133787
0.133595
0.133407
0.133223
0.133042
0.132865
0.132692
0.132523
0.132357
0.132194
0.132036
0.131881
0.13173
0.131582
0.131437
0.131301
0.138184
0.138182
0.138159
0.138111
0.138043
0.137955
0.137851
0.137732
0.137602
0.137462
0.137313
0.137156
0.136993
0.136825
0.136653
0.136477
0.136299
0.136116
0.135931
0.135744
0.135554
0.13537
0.135196
0.135025
0.134857
0.134692
0.13453
0.134371
0.134217
0.134066
0.133918
0.133774
0.133634
0.133496
0.133362
0.133231
0.133104
0.132979
0.132857
0.132738
0.132628
0.138502
0.138506
0.13849
0.138451
0.138391
0.138314
0.138221
0.138115
0.137999
0.137875
0.137742
0.137603
0.137458
0.13731
0.137159
0.137004
0.136848
0.13669
0.13653
0.136368
0.136207
0.136048
0.135899
0.135752
0.135609
0.135468
0.135331
0.135197
0.135066
0.134939
0.134815
0.134695
0.134578
0.134464
0.134352
0.134244
0.134138
0.134035
0.133934
0.133836
0.133745
0.138785
0.138795
0.138785
0.138753
0.138701
0.138632
0.138549
0.138454
0.138351
0.13824
0.138122
0.137998
0.13787
0.137739
0.137606
0.13747
0.137332
0.137194
0.137054
0.136915
0.136776
0.136639
0.13651
0.136384
0.13626
0.13614
0.136023
0.135909
0.135798
0.13569
0.135586
0.135485
0.135386
0.135291
0.135198
0.135108
0.13502
0.134935
0.134852
0.13477
0.134695
0.139038
0.139055
0.13905
0.139022
0.138976
0.138914
0.13884
0.138757
0.138665
0.138567
0.138462
0.138353
0.13824
0.138124
0.138005
0.137885
0.137764
0.137642
0.13752
0.137398
0.137277
0.137159
0.137047
0.136937
0.136831
0.136727
0.136627
0.136529
0.136434
0.136343
0.136254
0.136168
0.136085
0.136005
0.135927
0.135852
0.135779
0.135708
0.135638
0.135571
0.135508
0.139267
0.139289
0.139286
0.139262
0.13922
0.139167
0.139103
0.13903
0.138951
0.138864
0.138772
0.138676
0.138576
0.138473
0.138368
0.138262
0.138155
0.138048
0.13794
0.137833
0.137728
0.137624
0.137526
0.137431
0.137338
0.137248
0.137161
0.137077
0.136996
0.136917
0.136842
0.136769
0.136698
0.13663
0.136564
0.136501
0.136439
0.13638
0.136322
0.136266
0.136213
0.139473
0.139498
0.139497
0.139475
0.13944
0.139396
0.139343
0.139282
0.139215
0.139141
0.139061
0.138977
0.138889
0.138798
0.138705
0.138611
0.138517
0.138422
0.138327
0.138233
0.13814
0.138049
0.137963
0.137879
0.137798
0.13772
0.137644
0.137571
0.137501
0.137433
0.137367
0.137305
0.137244
0.137186
0.13713
0.137076
0.137024
0.136974
0.136925
0.136878
0.136833
0.13966
0.139685
0.139683
0.139667
0.139641
0.139608
0.139568
0.13952
0.139466
0.139405
0.139337
0.139265
0.139189
0.139109
0.139028
0.138945
0.138861
0.138776
0.138692
0.138609
0.138527
0.138447
0.138371
0.138297
0.138225
0.138156
0.138089
0.138025
0.137964
0.137905
0.137848
0.137793
0.137741
0.137691
0.137643
0.137597
0.137552
0.137509
0.137467
0.137427
0.13739
0.139827
0.139848
0.139847
0.139838
0.139824
0.139805
0.139779
0.139746
0.139707
0.139661
0.139609
0.139551
0.139488
0.139421
0.139351
0.139279
0.139205
0.13913
0.139055
0.138981
0.138909
0.138837
0.138768
0.138702
0.138637
0.138576
0.138516
0.138459
0.138404
0.138352
0.138302
0.138254
0.138208
0.138164
0.138122
0.138081
0.138042
0.138005
0.137969
0.137935
0.137903
0.139964
0.13998
0.139982
0.139983
0.13998
0.139973
0.139962
0.139945
0.139924
0.139898
0.139867
0.139831
0.139791
0.139747
0.139698
0.139647
0.139592
0.139535
0.139476
0.139416
0.139357
0.139297
0.139236
0.139176
0.139117
0.139059
0.139003
0.138948
0.138895
0.138843
0.138794
0.138746
0.138701
0.138658
0.138616
0.138577
0.138539
0.138504
0.13847
0.138437
0.138408
0.140047
0.140058
0.140063
0.140067
0.140069
0.140068
0.140064
0.140058
0.14005
0.140039
0.140025
0.140009
0.13999
0.139969
0.139946
0.139921
0.139894
0.139865
0.139833
0.139801
0.139768
0.139732
0.139696
0.139658
0.13962
0.139582
0.139544
0.139505
0.139468
0.13943
0.139394
0.139357
0.139322
0.139287
0.139252
0.139218
0.139184
0.13915
0.139115
0.139081
0.139045
0.140087
0.140097
0.140103
0.140108
0.140112
0.140115
0.140116
0.140116
0.140114
0.140111
0.140106
0.140099
0.140091
0.140082
0.140072
0.14006
0.140048
0.140035
0.140021
0.140007
0.139992
0.139976
0.13996
0.139943
0.139926
0.139908
0.13989
0.139872
0.139853
0.139835
0.139816
0.139797
0.139779
0.13976
0.139741
0.139723
0.139704
0.139685
0.139666
0.139647
0.139628
0.140109
0.140117
0.140124
0.140131
0.140137
0.140142
0.140146
0.140149
0.140151
0.140153
0.140153
0.140152
0.14015
0.140148
0.140144
0.14014
0.140135
0.14013
0.140124
0.140118
0.140112
0.140105
0.140098
0.140091
0.140084
0.140076
0.140069
0.140061
0.140054
0.140046
0.140038
0.140031
0.140023
0.140015
0.140007
0.139999
0.139991
0.139983
0.139975
0.139967
0.139959
0.140118
0.140126
0.140133
0.14014
0.140148
0.140154
0.140161
0.140167
0.140172
0.140177
0.140181
0.140184
0.140186
0.140188
0.140189
0.140189
0.140189
0.140189
0.140188
0.140186
0.140185
0.140183
0.14018
0.140178
0.140176
0.140173
0.14017
0.140167
0.140164
0.140161
0.140158
0.140155
0.140152
0.140149
0.140146
0.140143
0.14014
0.140137
0.140134
0.14013
0.140127
0.140119
0.140126
0.140134
0.140142
0.140149
0.140157
0.140166
0.140173
0.140181
0.140188
0.140195
0.140202
0.140207
0.140212
0.140217
0.14022
0.140224
0.140226
0.140229
0.140231
0.140233
0.140234
0.140235
0.140235
0.140236
0.140236
0.140236
0.140235
0.140235
0.140235
0.140234
0.140234
0.140233
0.140232
0.140231
0.140231
0.14023
0.140229
0.140228
0.140226
0.140225
0.140113
0.140121
0.140128
0.140136
0.140144
0.140153
0.140162
0.140172
0.140181
0.14019
0.1402
0.140208
0.140216
0.140224
0.140231
0.140238
0.140244
0.140249
0.140254
0.140259
0.140263
0.140267
0.14027
0.140273
0.140276
0.140278
0.14028
0.140282
0.140283
0.140285
0.140286
0.140287
0.140288
0.140289
0.140289
0.14029
0.14029
0.14029
0.14029
0.140291
0.140291
0.140103
0.140109
0.140116
0.140124
0.140132
0.140142
0.140152
0.140162
0.140173
0.140184
0.140194
0.140205
0.140215
0.140225
0.140234
0.140243
0.140251
0.140259
0.140266
0.140273
0.14028
0.140285
0.140291
0.140295
0.1403
0.140304
0.140307
0.140311
0.140314
0.140317
0.140319
0.140321
0.140324
0.140326
0.140327
0.140329
0.14033
0.140331
0.140333
0.140333
0.140334
0.140087
0.140093
0.140099
0.140106
0.140114
0.140124
0.140134
0.140145
0.140156
0.140168
0.14018
0.140191
0.140203
0.140215
0.140226
0.140236
0.140247
0.140256
0.140266
0.140274
0.140282
0.14029
0.140297
0.140303
0.140309
0.140315
0.14032
0.140325
0.140329
0.140333
0.140337
0.14034
0.140343
0.140346
0.140349
0.140351
0.140354
0.140355
0.140357
0.140359
0.14036
0.140067
0.140072
0.140077
0.140083
0.14009
0.140099
0.140108
0.140119
0.14013
0.140141
0.140153
0.140166
0.140178
0.140191
0.140203
0.140215
0.140227
0.140239
0.140249
0.14026
0.14027
0.140279
0.140288
0.140296
0.140303
0.14031
0.140317
0.140323
0.140328
0.140333
0.140338
0.140342
0.140346
0.14035
0.140353
0.140356
0.140359
0.140362
0.140364
0.140366
0.140368
0.140043
0.140046
0.14005
0.140054
0.14006
0.140066
0.140073
0.140082
0.140091
0.140101
0.140111
0.140122
0.140134
0.140146
0.140159
0.140171
0.140184
0.140196
0.140208
0.14022
0.140232
0.140244
0.140255
0.140266
0.140276
0.140286
0.140295
0.140303
0.140311
0.140319
0.140326
0.140332
0.140339
0.140344
0.140349
0.140354
0.140359
0.140363
0.140366
0.14037
0.140373
0.140015
0.140016
0.140018
0.140019
0.140022
0.140024
0.140028
0.140031
0.140035
0.14004
0.140046
0.140052
0.140059
0.140066
0.140074
0.140083
0.140089
0.140095
0.140101
0.140107
0.140113
0.14012
0.140127
0.140134
0.140141
0.140149
0.140156
0.140163
0.140169
0.140176
0.140182
0.140188
0.140194
0.140199
0.140204
0.140209
0.140213
0.140217
0.140221
0.140225
0.140229
0.00614014
0.00735314
0.00770669
0.0095601
0.0129398
0.017102
0.021574
0.0261431
0.0307181
0.0351384
0.0393682
0.0441344
0.0509265
0.0598113
0.0688043
0.076375
0.0824284
0.0873281
0.0913371
0.0946917
0.0975515
0.100038
0.102247
0.10425
0.106101
0.10784
0.109491
0.111072
0.112592
0.114057
0.115469
0.116829
0.118136
0.11939
0.120591
0.121738
0.122832
0.123873
0.124861
0.125799
0.126688
0.127529
0.128324
0.129074
0.129782
0.130448
0.131074
0.131662
0.132212
0.132726
0.133206
0.133654
0.134072
0.134461
0.134824
0.135162
0.135476
0.13577
0.136043
0.136297
0.136534
0.136756
0.136962
0.137155
0.137334
0.137502
0.13766
0.137807
0.137946
0.138078
0.138201
0.138328
0.138423
0.138636
0.0133664
0.0146862
0.0125911
0.011078
0.0123969
0.0158464
0.0201704
0.0247211
0.0293034
0.0337339
0.0379664
0.0428108
0.0499497
0.0594411
0.0690719
0.0771248
0.0834928
0.0885658
0.0926553
0.0960365
0.0988902
0.101351
0.103521
0.105479
0.107281
0.108967
0.110565
0.112092
0.113558
0.11497
0.116329
0.117637
0.118894
0.1201
0.121255
0.122358
0.123409
0.12441
0.125361
0.126263
0.127118
0.127928
0.128694
0.129417
0.130099
0.130742
0.131346
0.131913
0.132444
0.13294
0.133404
0.133836
0.13424
0.134616
0.134966
0.135293
0.135597
0.13588
0.136144
0.13639
0.13662
0.136833
0.137033
0.137219
0.137393
0.137555
0.137707
0.137849
0.137983
0.13811
0.13823
0.138352
0.138444
0.138651
0.0209572
0.0236617
0.0210438
0.0166096
0.0140918
0.0151876
0.0186913
0.0230896
0.0276525
0.0321001
0.0363316
0.0411697
0.048443
0.058355
0.0686105
0.077257
0.0840487
0.0893934
0.093646
0.0971185
0.100018
0.102495
0.10466
0.1066
0.108373
0.110023
0.111578
0.113059
0.114478
0.11584
0.11715
0.118409
0.119619
0.120778
0.121887
0.122947
0.123958
0.12492
0.125834
0.126702
0.127525
0.128305
0.129042
0.129739
0.130397
0.131016
0.131599
0.132146
0.132659
0.133138
0.133586
0.134004
0.134394
0.134758
0.135097
0.135413
0.135707
0.135982
0.136237
0.136475
0.136697
0.136904
0.137097
0.137277
0.137445
0.137602
0.137749
0.137887
0.138016
0.138139
0.138254
0.138372
0.138461
0.138661
0.0279333
0.0325255
0.0308994
0.0256974
0.0199602
0.0169708
0.0179236
0.0214017
0.0257739
0.0302103
0.0344392
0.0391879
0.0463643
0.0564651
0.0672864
0.0766266
0.0839755
0.089707
0.0942289
0.0978765
0.100888
0.103433
0.105637
0.107592
0.109362
0.110994
0.112522
0.113968
0.115346
0.116665
0.11793
0.119143
0.120307
0.121421
0.122488
0.123506
0.124478
0.125402
0.126282
0.127117
0.127909
0.128659
0.12937
0.130041
0.130676
0.131274
0.131836
0.132364
0.13286
0.133323
0.133756
0.13416
0.134538
0.13489
0.135218
0.135524
0.13581
0.136076
0.136323
0.136554
0.136769
0.13697
0.137157
0.137331
0.137494
0.137646
0.137788
0.137921
0.138047
0.138165
0.138276
0.138391
0.138476
0.138668
0.0343334
0.0408309
0.0407567
0.0363698
0.0296559
0.023228
0.0199201
0.0206148
0.0239053
0.0280808
0.0322718
0.0368527
0.0436915
0.0536858
0.0649423
0.0750406
0.083102
0.0893594
0.094281
0.0982136
0.101423
0.104106
0.106406
0.10842
0.11022
0.111858
0.113379
0.114805
0.116154
0.117437
0.118662
0.119833
0.120954
0.122027
0.123052
0.124031
0.124965
0.125854
0.1267
0.127504
0.128267
0.12899
0.129675
0.130323
0.130935
0.131512
0.132056
0.132566
0.133046
0.133494
0.133913
0.134305
0.134671
0.135012
0.135331
0.135628
0.135905
0.136163
0.136403
0.136627
0.136836
0.137031
0.137212
0.137382
0.137539
0.137687
0.137824
0.137953
0.138075
0.138189
0.138297
0.138407
0.138489
0.138674
0.040235
0.0483686
0.0499206
0.0470683
0.041152
0.0336409
0.0268178
0.0231127
0.0233092
0.0261454
0.0299086
0.0341962
0.0404602
0.0499855
0.0614288
0.0722775
0.0812061
0.0881851
0.093651
0.0979955
0.101514
0.10443
0.106905
0.109035
0.110907
0.112589
0.114131
0.115557
0.116889
0.118147
0.119341
0.120476
0.121558
0.122591
0.123578
0.124519
0.125416
0.126272
0.127086
0.12786
0.128596
0.129293
0.129955
0.13058
0.131172
0.131731
0.132257
0.132751
0.133216
0.133651
0.134057
0.134438
0.134793
0.135125
0.135434
0.135723
0.135992
0.136243
0.136477
0.136695
0.136898
0.137087
0.137264
0.137428
0.137582
0.137725
0.137858
0.137983
0.138101
0.138212
0.138315
0.138422
0.138501
0.138677
0.0455176
0.0547712
0.0578803
0.0568146
0.0526013
0.0459719
0.0381281
0.0310322
0.02677
0.0261384
0.02812
0.0315249
0.036841
0.0454428
0.0566644
0.0681164
0.0780203
0.0859443
0.0921731
0.0971118
0.101086
0.104345
0.10707
0.109375
0.111371
0.113148
0.114753
0.116203
0.11754
0.11879
0.119962
0.121068
0.122117
0.123114
0.124063
0.124969
0.125832
0.126655
0.127439
0.128185
0.128894
0.129568
0.130207
0.130813
0.131386
0.131927
0.132438
0.132918
0.133369
0.133792
0.134188
0.134558
0.134903
0.135227
0.135528
0.135809
0.136072
0.136317
0.136545
0.136757
0.136955
0.137139
0.137311
0.137471
0.137621
0.13776
0.13789
0.138011
0.138125
0.138232
0.138333
0.138435
0.138512
0.13868
0.0498104
0.0596417
0.0641257
0.0648413
0.0627144
0.0580076
0.0512374
0.0434102
0.036145
0.0311971
0.0293486
0.0301757
0.0335693
0.04048
0.0507817
0.0624244
0.0732791
0.0823206
0.0895426
0.0952873
0.0999019
0.103664
0.106779
0.109392
0.111613
0.113536
0.115234
0.116722
0.118095
0.119362
0.120523
0.12161
0.122633
0.123598
0.124513
0.125384
0.126213
0.127004
0.127758
0.128477
0.129161
0.129813
0.130432
0.131019
0.131575
0.132101
0.132598
0.133065
0.133505
0.133917
0.134303
0.134664
0.135002
0.135318
0.135612
0.135887
0.136144
0.136383
0.136606
0.136814
0.137007
0.137187
0.137355
0.137511
0.137656
0.137792
0.137919
0.138037
0.138147
0.138251
0.138349
0.138448
0.138521
0.138682
0.0541846
0.0627851
0.068207
0.0704207
0.0704916
0.0681063
0.0635059
0.0570847
0.0496231
0.0423818
0.0367227
0.0334487
0.0330423
0.03655
0.0445095
0.05541
0.0667906
0.0769491
0.0853598
0.0921521
0.0976363
0.102107
0.105794
0.108867
0.11145
0.113643
0.115528
0.117154
0.118589
0.119878
0.121023
0.122112
0.123116
0.124051
0.124935
0.125772
0.126566
0.127324
0.128048
0.128739
0.129398
0.130028
0.130627
0.131197
0.131738
0.132251
0.132735
0.133192
0.133622
0.134025
0.134404
0.134757
0.135088
0.135398
0.135687
0.135956
0.136207
0.136442
0.136661
0.136864
0.137054
0.13723
0.137394
0.137547
0.137689
0.137822
0.137945
0.13806
0.138168
0.138269
0.138364
0.138459
0.138531
0.138683
0.0612184
0.0650278
0.0703692
0.0730418
0.0751292
0.0750016
0.0729332
0.0689801
0.0633755
0.0566774
0.0497716
0.043613
0.0390769
0.0375022
0.0405724
0.0484178
0.0589563
0.0697131
0.0792872
0.0873089
0.093901
0.0993174
0.103798
0.107529
0.110653
0.113277
0.115492
0.117366
0.118965
0.12035
0.121549
0.12263
0.123595
0.124494
0.125352
0.12615
0.126907
0.127629
0.128318
0.128978
0.12961
0.130216
0.130795
0.131348
0.131875
0.132375
0.132849
0.133297
0.133719
0.134115
0.134487
0.134836
0.135161
0.135466
0.13575
0.136015
0.136263
0.136494
0.136709
0.136909
0.137095
0.137268
0.13743
0.13758
0.137719
0.137849
0.13797
0.138082
0.138187
0.138286
0.138378
0.13847
0.138539
0.138685
0.0699314
0.071795
0.0728442
0.0733746
0.0767481
0.0777881
0.0781192
0.0768485
0.0739477
0.0695873
0.0640926
0.0579686
0.0518197
0.0465707
0.0439434
0.0458096
0.0523452
0.0616709
0.0715304
0.080573
0.0883596
0.0949162
0.100413
0.105029
0.108909
0.112168
0.1149
0.117184
0.119092
0.12069
0.122032
0.123178
0.124168
0.12504
0.12584
0.126558
0.127272
0.127946
0.128591
0.129212
0.12981
0.130387
0.130942
0.131476
0.131987
0.132475
0.132938
0.133378
0.133794
0.134186
0.134553
0.134898
0.13522
0.135521
0.135802
0.136065
0.136309
0.136537
0.13675
0.136948
0.137131
0.137302
0.137461
0.137609
0.137746
0.137873
0.137992
0.138102
0.138205
0.138301
0.138391
0.138481
0.138548
0.138686
0.073201
0.0753362
0.0767371
0.0775672
0.0780783
0.0774236
0.0790945
0.0797059
0.079067
0.0774962
0.0747845
0.0709245
0.0660946
0.0606662
0.0554865
0.0521779
0.0524993
0.056946
0.0643413
0.0728872
0.0812454
0.0887911
0.0953699
0.101028
0.105864
0.109975
0.113445
0.11635
0.118759
0.120744
0.122369
0.123699
0.124794
0.125705
0.126483
0.127158
0.12778
0.12835
0.128917
0.129481
0.130026
0.130561
0.131083
0.131589
0.13208
0.132552
0.133005
0.133437
0.133847
0.134235
0.1346
0.134943
0.135263
0.135563
0.135843
0.136104
0.136347
0.136573
0.136784
0.13698
0.137162
0.137331
0.137488
0.137634
0.13777
0.137895
0.138012
0.138121
0.138221
0.138316
0.138403
0.138491
0.138556
0.138688
0.0695567
0.0725059
0.0750026
0.0770896
0.0786848
0.0796295
0.0802918
0.0801349
0.0789925
0.0792428
0.0790891
0.0779849
0.0758156
0.0726622
0.0686882
0.0644701
0.0612238
0.0603915
0.0627337
0.0678601
0.074646
0.0819568
0.0890424
0.0955423
0.101336
0.106411
0.110797
0.114533
0.11767
0.120262
0.122372
0.124066
0.12541
0.12647
0.12731
0.127983
0.128544
0.129028
0.129473
0.12991
0.130328
0.130793
0.131254
0.131716
0.132172
0.132619
0.133055
0.133475
0.133879
0.134263
0.134626
0.134968
0.135289
0.135589
0.135869
0.13613
0.136373
0.1366
0.13681
0.137006
0.137187
0.137355
0.137511
0.137656
0.13779
0.137915
0.13803
0.138137
0.138236
0.138329
0.138415
0.1385
0.138564
0.138691
0.0575386
0.0610487
0.0645047
0.0678808
0.0711024
0.0740606
0.0766535
0.0786617
0.0798877
0.0804767
0.0803209
0.0794633
0.0784214
0.0775814
0.0762866
0.0742142
0.0716156
0.0692678
0.0681985
0.0691899
0.0723897
0.0773375
0.083302
0.0896099
0.0957923
0.101577
0.106825
0.111473
0.115501
0.118916
0.121747
0.12404
0.125851
0.127247
0.128298
0.129075
0.129647
0.130073
0.130407
0.130697
0.130964
0.131258
0.131556
0.131925
0.132309
0.132707
0.133108
0.133505
0.133894
0.134271
0.134632
0.134974
0.135296
0.135598
0.135881
0.136144
0.136389
0.136616
0.136828
0.137024
0.137206
0.137374
0.13753
0.137674
0.137808
0.137931
0.138046
0.138152
0.13825
0.138342
0.138426
0.13851
0.138572
0.138694
0.0470687
0.0489272
0.0510308
0.0534178
0.0561105
0.0591182
0.0624258
0.0659612
0.0695703
0.0730396
0.0760548
0.0782671
0.0794948
0.0798174
0.0793136
0.0780139
0.0766028
0.0753426
0.0742982
0.0738418
0.0745185
0.0766779
0.0802994
0.0850581
0.0905028
0.0962069
0.101838
0.107166
0.11204
0.116368
0.120106
0.123239
0.125786
0.127786
0.129295
0.130383
0.131125
0.131599
0.13188
0.132039
0.13213
0.132209
0.1323
0.132447
0.132632
0.132906
0.13322
0.133562
0.133916
0.134272
0.134622
0.13496
0.135284
0.135589
0.135875
0.136143
0.136391
0.136622
0.136836
0.137034
0.137218
0.137387
0.137544
0.137688
0.137822
0.137945
0.13806
0.138165
0.138263
0.138353
0.138437
0.138519
0.13858
0.138697
0.0491921
0.049629
0.050248
0.0510283
0.0519855
0.0531504
0.0545661
0.0562864
0.0583673
0.0608506
0.063732
0.0669207
0.0702209
0.073356
0.0760158
0.0778985
0.0788822
0.0790015
0.0783811
0.0772553
0.0766625
0.0771114
0.0787841
0.0816957
0.085716
0.0905784
0.0959507
0.101508
0.106976
0.112146
0.116865
0.121034
0.124596
0.127529
0.129845
0.131583
0.132801
0.133576
0.133991
0.134135
0.134096
0.133954
0.133777
0.133623
0.133523
0.133513
0.13358
0.133763
0.134012
0.134305
0.134619
0.13494
0.135256
0.135561
0.135851
0.136124
0.136378
0.136614
0.136833
0.137035
0.137222
0.137394
0.137552
0.137698
0.137833
0.137957