/*--------------------------------*- C++ -*----------------------------------*\
| =========                 |                                                 |
| \\      /  F ield         | OpenFOAM: The Open Source CFD Toolbox           |
|  \\    /   O peration     | Version:  5.x                                   |
|   \\  /    A nd           | Web:      www.OpenFOAM.org                      |
|    \\/     M anipulation  |                                                 |
\*---------------------------------------------------------------------------*/
FoamFile
{
    version     2.0;
    format      ascii;
    class       volScalarField;
    location    "100";
    object      nuTilda;
}
// * * * * * * * * * * * * * * * * * * * * * * * * * * * * * * * * * * * * * //

dimensions      [0 2 -1 0 0 0 0];

internalField   nonuniform List<scalar> 
11040
(
0.00310154
0.00373363
0.00405382
0.00413569
0.00403188
0.00383475
0.00361838
0.00344076
0.0032818
0.00310759
0.00287421
0.00264195
0.00246519
0.00233964
0.00222067
0.00210295
0.00198625
0.00187427
0.00176701
0.00166252
0.00155873
0.00146659
0.0013846
0.00130318
0.0012212
0.00113761
0.00105127
0.000962294
0.000890184
0.000958715
0.000846119
0.000483799
0.000434658
0.000401285
0.000364599
0.000333857
0.000354895
0.000614522
0.000766143
0.000776231
0.000760414
0.00789887
0.00846219
0.00773118
0.00697874
0.00622455
0.00557047
0.00505944
0.0049834
0.00499597
0.00495198
0.00482868
0.00465266
0.00450531
0.0043545
0.0041708
0.00398017
0.00380142
0.00363969
0.00349366
0.0033608
0.00323954
0.00313846
0.00305119
0.00296987
0.00289426
0.00282304
0.00275488
0.00268958
0.00263739
0.00264471
0.00258808
0.00239957
0.00230989
0.00217313
0.00200241
0.00179157
0.00169429
0.00183997
0.00228409
0.00292898
0.00327762
0.0160856
0.0169464
0.0159289
0.0146481
0.0132252
0.0118075
0.0104977
0.00933635
0.00834254
0.00748736
0.00669504
0.00609585
0.00596994
0.0059237
0.00585627
0.0057743
0.00568031
0.00558067
0.00548261
0.00539043
0.00530546
0.00523751
0.00517717
0.00511708
0.00505723
0.00499771
0.00493803
0.00487821
0.00482156
0.00477964
0.00472326
0.00463008
0.00456291
0.00449053
0.00440315
0.00422823
0.00411105
0.0043686
0.00489958
0.00555593
0.00626529
0.0254334
0.0263824
0.0252943
0.0236473
0.0217149
0.0197159
0.0177788
0.0159418
0.0142375
0.0126583
0.0111124
0.00976987
0.0087829
0.00804296
0.00771755
0.00757136
0.00747077
0.00739422
0.00733402
0.00728568
0.00724642
0.00722054
0.00719893
0.0071759
0.00714981
0.00712014
0.00708621
0.00704753
0.00700468
0.00696044
0.00690885
0.00684582
0.00679271
0.00675219
0.00672696
0.00664774
0.00655123
0.00679588
0.00748393
0.00858546
0.00961039
0.0355863
0.0365112
0.0354526
0.0336059
0.0313259
0.0288508
0.0263437
0.0238448
0.0214625
0.0192138
0.0169901
0.0149895
0.0133881
0.0121221
0.0110691
0.0101931
0.00970128
0.00945599
0.00931362
0.00922739
0.00917929
0.00916088
0.00915555
0.00915445
0.00915387
0.00915173
0.00914593
0.00913459
0.00911641
0.00909108
0.00905746
0.00901687
0.00898084
0.00896264
0.00897984
0.00899202
0.00896845
0.00919718
0.00999202
0.0114635
0.0133099
0.0461587
0.0470084
0.0460377
0.0441518
0.0417039
0.0388629
0.0358354
0.0327817
0.0298152
0.0269596
0.0240951
0.0214383
0.0192151
0.0174193
0.0158744
0.0145268
0.0134043
0.0124526
0.0119185
0.0116151
0.0114336
0.0113312
0.0112715
0.0112335
0.011212
0.0112017
0.0111974
0.0111947
0.01119
0.0111806
0.0111651
0.0111448
0.0111276
0.011128
0.0111713
0.0112529
0.0113294
0.0115653
0.0123471
0.013913
0.0166189
0.0568296
0.0575603
0.0567036
0.0549045
0.0524277
0.0494573
0.0462027
0.0428159
0.0394284
0.0360817
0.0326596
0.0293931
0.0265571
0.0241832
0.0220949
0.020241
0.0185987
0.0171352
0.0158659
0.0149714
0.0144498
0.0141234
0.0138928
0.0137237
0.0136042
0.0135163
0.0134507
0.0134009
0.0133616
0.0133286
0.0132995
0.013274
0.0132572
0.0132608
0.0133084
0.0134204
0.0135791
0.0138476
0.0145356
0.0159397
0.0186454
0.067244
0.0678618
0.0671335
0.0655029
0.0631524
0.0602727
0.057036
0.0535644
0.0499849
0.0463456
0.0425397
0.0387967
0.0354256
0.0324988
0.029862
0.027476
0.025318
0.0233622
0.0215799
0.0199808
0.0187128
0.0179105
0.0173937
0.0170116
0.0167125
0.0164681
0.0162624
0.0160857
0.0159317
0.0157966
0.0156786
0.0155783
0.0154999
0.0154532
0.0154561
0.0155367
0.0157075
0.0159916
0.016565
0.01767
0.0198661
0.0771611
0.0776617
0.0770526
0.0756305
0.0735197
0.0708855
0.0678578
0.064525
0.0609906
0.0572926
0.0533338
0.0493219
0.045572
0.0421943
0.0390779
0.0362014
0.033552
0.031112
0.0288595
0.0267694
0.0248573
0.0234136
0.022427
0.0216851
0.0210963
0.0206009
0.0201649
0.0197698
0.0194054
0.0190671
0.0187536
0.0184675
0.0182152
0.0180077
0.017861
0.0178016
0.0178588
0.0180571
0.0184813
0.0192638
0.0207657
0.0863406
0.0867355
0.0862354
0.085034
0.0832175
0.0809175
0.0782259
0.0751976
0.0719068
0.068352
0.0644645
0.0604153
0.0564972
0.052849
0.0494244
0.0461868
0.0431385
0.0402796
0.0375998
0.0350838
0.0327122
0.030766
0.0293106
0.0281393
0.0271733
0.0263449
0.0256065
0.0249269
0.0242868
0.0236752
0.0230873
0.0225239
0.0219915
0.0215019
0.0210718
0.020728
0.0205054
0.0204378
0.0205811
0.0209991
0.021842
0.0946305
0.0949374
0.0945334
0.0935433
0.0920289
0.090092
0.0877955
0.085151
0.082213
0.0789965
0.0754174
0.0715936
0.0677674
0.0640728
0.0604868
0.0570345
0.0537311
0.050595
0.0475989
0.0447386
0.042005
0.0396712
0.0378048
0.036233
0.0349028
0.0337442
0.0327007
0.0317329
0.0308139
0.0299256
0.0290567
0.0282022
0.0273635
0.0265481
0.0257677
0.0250474
0.0244217
0.0239252
0.0236105
0.0235304
0.0236996
0.101964
0.1022
0.101876
0.101073
0.0998379
0.0982492
0.0963508
0.0941312
0.0916353
0.0888656
0.0857446
0.0823446
0.0788447
0.0753515
0.0718535
0.0683918
0.0649988
0.0617
0.0585076
0.0554256
0.0524565
0.049873
0.0476699
0.0456668
0.0439514
0.0424905
0.0411884
0.0399859
0.0388451
0.0377405
0.0366544
0.0355753
0.0344977
0.0334209
0.0323467
0.0312914
0.0302815
0.0293406
0.0285122
0.0278552
0.027291
0.108345
0.108522
0.108258
0.107611
0.106618
0.105338
0.103803
0.101995
0.099949
0.097661
0.0950639
0.0921959
0.0891638
0.0860532
0.0828624
0.0796377
0.076395
0.0731608
0.0699582
0.0668045
0.0637115
0.0609837
0.058627
0.0563944
0.0542945
0.0523961
0.0507601
0.0493215
0.0480039
0.0467546
0.0455396
0.0443367
0.0431344
0.0419213
0.0406887
0.0394426
0.0381971
0.0369593
0.0357529
0.0346334
0.0334375
0.113822
0.113943
0.113723
0.113203
0.112411
0.111392
0.110169
0.108726
0.107088
0.105252
0.103163
0.100825
0.0983265
0.0957132
0.0929766
0.0901447
0.0872406
0.0842967
0.0813153
0.0783117
0.0753016
0.0725963
0.0702258
0.0679543
0.0657689
0.06367
0.0616717
0.0598254
0.0582043
0.0567604
0.0554209
0.0541354
0.0528732
0.0516137
0.0503383
0.0490427
0.0477291
0.0463898
0.0450288
0.0436878
0.0421516
0.118447
0.11853
0.118349
0.117933
0.117307
0.116501
0.115534
0.114393
0.113101
0.111653
0.109999
0.108154
0.10617
0.104071
0.101843
0.0994987
0.0970522
0.0945177
0.0919086
0.0892364
0.0865205
0.0840317
0.0818035
0.0796398
0.077538
0.0754997
0.0735111
0.071572
0.0696963
0.0679026
0.0662624
0.0647967
0.0634446
0.0621501
0.0608733
0.0595963
0.0583107
0.0569982
0.0556511
0.0542945
0.0527156
0.12234
0.122395
0.122243
0.121907
0.121418
0.120778
0.120012
0.119114
0.118101
0.116971
0.115684
0.114255
0.112714
0.111076
0.109317
0.107451
0.105495
0.103441
0.101297
0.0990661
0.0967571
0.0946058
0.0926535
0.0907363
0.0888547
0.0870081
0.0851937
0.0834069
0.0816431
0.0799
0.0781849
0.076516
0.0749016
0.0733976
0.0720223
0.070731
0.0694818
0.0682359
0.0669732
0.0657035
0.0642496
0.125604
0.125637
0.125507
0.125235
0.124843
0.124335
0.12373
0.123026
0.122235
0.121356
0.120362
0.119264
0.118084
0.11682
0.115466
0.114027
0.112504
0.1109
0.109221
0.107461
0.105618
0.103875
0.10227
0.10068
0.0991061
0.0975475
0.0960045
0.0944759
0.0929593
0.0914517
0.089949
0.0884489
0.086951
0.0854609
0.0839836
0.0825291
0.0811194
0.0797984
0.0785552
0.077366
0.076066
0.128208
0.12823
0.12812
0.127897
0.12758
0.127174
0.12669
0.126136
0.125507
0.124812
0.124031
0.123175
0.122259
0.12128
0.120235
0.119127
0.117955
0.116719
0.115418
0.114051
0.112618
0.111251
0.109982
0.108717
0.107458
0.106206
0.104961
0.103726
0.102497
0.101272
0.100047
0.0988219
0.0975927
0.0963559
0.0951041
0.0938389
0.0925658
0.0912841
0.090001
0.0887323
0.087396
0.130213
0.130226
0.130134
0.129951
0.12969
0.129363
0.128968
0.128516
0.128006
0.127444
0.126823
0.126141
0.125413
0.124638
0.123814
0.122943
0.122026
0.121061
0.120047
0.118983
0.117868
0.116798
0.115801
0.114805
0.113813
0.112825
0.11184
0.11086
0.109883
0.108909
0.107939
0.10697
0.105999
0.105023
0.104037
0.103038
0.102029
0.100998
0.0999446
0.0988733
0.0977363
0.131786
0.131794
0.131717
0.131565
0.131347
0.131074
0.130746
0.130371
0.129955
0.129493
0.128984
0.128429
0.127838
0.127216
0.126554
0.125856
0.125124
0.124357
0.123554
0.122714
0.121837
0.120993
0.120204
0.119418
0.118634
0.117855
0.117079
0.116307
0.115538
0.114771
0.114007
0.113244
0.112482
0.111722
0.110956
0.110183
0.109406
0.108615
0.107808
0.106987
0.106123
0.133051
0.133058
0.132994
0.132865
0.13268
0.132448
0.132174
0.131859
0.131509
0.131123
0.1307
0.130244
0.129757
0.129246
0.128704
0.128135
0.127541
0.126922
0.126276
0.125603
0.124903
0.12423
0.1236
0.122972
0.122349
0.12173
0.121112
0.120498
0.119892
0.119289
0.11869
0.118094
0.117499
0.116907
0.116313
0.115717
0.11512
0.114515
0.113902
0.113281
0.112638
0.13409
0.134097
0.134042
0.133931
0.133773
0.133573
0.133339
0.133073
0.132776
0.132451
0.132095
0.131712
0.131305
0.130879
0.130433
0.129963
0.129474
0.128966
0.128438
0.127892
0.127326
0.126781
0.126271
0.125765
0.125261
0.124765
0.12427
0.123779
0.123294
0.122816
0.122343
0.121874
0.121408
0.120947
0.120486
0.120025
0.119565
0.119101
0.118634
0.118163
0.117683
0.134956
0.134963
0.134916
0.13482
0.134683
0.13451
0.134307
0.134078
0.133825
0.133546
0.133245
0.132919
0.132577
0.132218
0.131843
0.131453
0.13105
0.130628
0.130193
0.129743
0.129279
0.128832
0.128415
0.128001
0.127591
0.127188
0.126787
0.12639
0.125999
0.125614
0.125236
0.124866
0.124499
0.124136
0.123775
0.123415
0.123058
0.122701
0.122342
0.121982
0.121621
0.135688
0.135694
0.135654
0.135571
0.135451
0.135301
0.135124
0.134924
0.134704
0.134463
0.134204
0.133925
0.133632
0.133329
0.133012
0.132683
0.132343
0.131993
0.131633
0.131261
0.130878
0.130509
0.130163
0.129821
0.129485
0.129154
0.128826
0.128503
0.128184
0.127872
0.127565
0.127264
0.126971
0.126683
0.126397
0.126115
0.125835
0.125557
0.125279
0.125003
0.12473
0.136312
0.136318
0.136284
0.136211
0.136107
0.135975
0.13582
0.135645
0.135452
0.135245
0.135019
0.13478
0.134528
0.134267
0.133996
0.133718
0.13343
0.133134
0.132831
0.132521
0.132205
0.131897
0.131609
0.131325
0.131046
0.13077
0.130499
0.130232
0.129971
0.129715
0.129464
0.129219
0.12898
0.128747
0.128518
0.128294
0.128074
0.127855
0.127639
0.127424
0.127214
0.136849
0.136856
0.136826
0.136763
0.136672
0.136556
0.136419
0.136265
0.136095
0.135913
0.135717
0.135509
0.135292
0.135066
0.134832
0.134593
0.134348
0.134098
0.133841
0.133579
0.133314
0.133057
0.132817
0.13258
0.132347
0.132117
0.131892
0.13167
0.131453
0.131241
0.131035
0.130833
0.130637
0.130446
0.13026
0.130078
0.129901
0.129727
0.129557
0.129388
0.129226
0.137315
0.137323
0.137298
0.137243
0.137162
0.13706
0.136939
0.136802
0.136652
0.136491
0.136319
0.136137
0.135948
0.135752
0.135551
0.135346
0.135135
0.13492
0.134702
0.134481
0.134256
0.134039
0.133836
0.133637
0.133441
0.133249
0.13306
0.132876
0.132696
0.13252
0.132348
0.132181
0.132019
0.131861
0.131708
0.131559
0.131414
0.131273
0.131135
0.131
0.130873
0.137722
0.137731
0.13771
0.137662
0.137591
0.1375
0.137393
0.137271
0.137138
0.136995
0.136842
0.136682
0.136517
0.136347
0.136173
0.135994
0.135812
0.135628
0.13544
0.135251
0.13506
0.134877
0.134704
0.134535
0.134369
0.134207
0.134048
0.133894
0.133743
0.133597
0.133454
0.133316
0.133182
0.133051
0.132924
0.132801
0.132681
0.132565
0.132452
0.132342
0.13224
0.13808
0.13809
0.138073
0.138031
0.137968
0.137887
0.137791
0.137682
0.137563
0.137436
0.137301
0.137159
0.137013
0.136863
0.13671
0.136554
0.136397
0.136237
0.136076
0.135914
0.135752
0.135594
0.135446
0.135302
0.135161
0.135023
0.134889
0.134759
0.134632
0.13451
0.134391
0.134276
0.134164
0.134056
0.133951
0.133849
0.133751
0.133655
0.133562
0.133471
0.133387
0.138396
0.138407
0.138394
0.138357
0.1383
0.138228
0.138142
0.138045
0.137939
0.137825
0.137705
0.137579
0.137449
0.137317
0.137182
0.137045
0.136908
0.136769
0.13663
0.13649
0.136351
0.136216
0.136088
0.135964
0.135844
0.135726
0.135612
0.135501
0.135394
0.135291
0.135191
0.135094
0.135001
0.134911
0.134824
0.13474
0.134658
0.13458
0.134503
0.134428
0.134359
0.138676
0.138689
0.138678
0.138645
0.138594
0.138529
0.138452
0.138366
0.138271
0.13817
0.138063
0.137952
0.137837
0.13772
0.137601
0.13748
0.137359
0.137237
0.137116
0.136995
0.136876
0.136759
0.136649
0.136542
0.136438
0.136337
0.136239
0.136145
0.136054
0.135966
0.135882
0.1358
0.135722
0.135646
0.135574
0.135503
0.135436
0.135371
0.135307
0.135246
0.135189
0.138926
0.13894
0.138931
0.138901
0.138856
0.138797
0.138729
0.138652
0.138569
0.138479
0.138385
0.138286
0.138184
0.138081
0.137975
0.137869
0.137762
0.137655
0.137549
0.137443
0.13734
0.137238
0.137142
0.13705
0.13696
0.136873
0.136789
0.136708
0.13663
0.136556
0.136484
0.136415
0.136348
0.136285
0.136224
0.136165
0.136109
0.136054
0.136002
0.135951
0.135904
0.13915
0.139164
0.139156
0.139129
0.139089
0.139037
0.138978
0.138911
0.138838
0.138759
0.138676
0.138589
0.138499
0.138407
0.138314
0.13822
0.138126
0.138032
0.137939
0.137847
0.137756
0.137667
0.137584
0.137503
0.137425
0.13735
0.137277
0.137208
0.137141
0.137077
0.137015
0.136957
0.1369
0.136847
0.136795
0.136746
0.136698
0.136653
0.136609
0.136567
0.136528
0.13935
0.139365
0.139357
0.139333
0.139298
0.139254
0.139204
0.139147
0.139084
0.139016
0.138943
0.138867
0.138788
0.138707
0.138625
0.138542
0.138459
0.138376
0.138294
0.138213
0.138134
0.138057
0.137984
0.137913
0.137845
0.13778
0.137717
0.137657
0.137599
0.137544
0.137491
0.137441
0.137393
0.137347
0.137303
0.137261
0.137221
0.137183
0.137146
0.137111
0.137079
0.13953
0.139543
0.139536
0.139516
0.139488
0.139453
0.139412
0.139365
0.139312
0.139254
0.139191
0.139125
0.139056
0.138985
0.138913
0.13884
0.138767
0.138694
0.138622
0.138551
0.138482
0.138414
0.13835
0.138288
0.138229
0.138172
0.138117
0.138065
0.138015
0.137967
0.137922
0.137878
0.137837
0.137798
0.137761
0.137725
0.137691
0.137658
0.137627
0.137597
0.137571
0.139691
0.139702
0.139696
0.139681
0.139662
0.139636
0.139605
0.139568
0.139525
0.139478
0.139425
0.139369
0.13931
0.139249
0.139187
0.139123
0.139059
0.138995
0.138932
0.138869
0.138809
0.138749
0.138693
0.138639
0.138586
0.138536
0.138489
0.138443
0.138399
0.138358
0.138318
0.138281
0.138245
0.138212
0.138179
0.138149
0.13812
0.138092
0.138065
0.13804
0.138017
0.139833
0.139841
0.139837
0.139831
0.13982
0.139805
0.139784
0.139758
0.139727
0.13969
0.13965
0.139605
0.139558
0.139508
0.139455
0.139402
0.139347
0.139292
0.139237
0.139183
0.13913
0.139078
0.139029
0.138981
0.138935
0.13889
0.138848
0.138808
0.138769
0.138733
0.138698
0.138665
0.138634
0.138605
0.138577
0.13855
0.138525
0.138501
0.138478
0.138456
0.138437
0.13995
0.139956
0.139957
0.139957
0.139955
0.139948
0.139938
0.139923
0.139905
0.139884
0.139858
0.13983
0.139798
0.139764
0.139728
0.139689
0.13965
0.139609
0.139568
0.139526
0.139487
0.139446
0.139406
0.139366
0.139328
0.13929
0.139254
0.139219
0.139186
0.139154
0.139123
0.139094
0.139066
0.13904
0.139014
0.138991
0.138968
0.138946
0.138926
0.138906
0.138888
0.140021
0.140027
0.14003
0.140032
0.140033
0.140031
0.140027
0.140021
0.140014
0.140004
0.139993
0.13998
0.139966
0.13995
0.139933
0.139915
0.139896
0.139876
0.139855
0.139835
0.139815
0.139793
0.139772
0.139751
0.139729
0.139708
0.139688
0.139667
0.139648
0.139629
0.139611
0.139593
0.139576
0.139559
0.139543
0.139527
0.139511
0.139495
0.139479
0.139464
0.139449
0.140056
0.140061
0.140065
0.140068
0.14007
0.140071
0.140071
0.14007
0.140068
0.140064
0.14006
0.140055
0.140049
0.140042
0.140035
0.140027
0.140018
0.140009
0.14
0.139991
0.139981
0.139972
0.139962
0.139953
0.139943
0.139934
0.139925
0.139915
0.139906
0.139898
0.139889
0.139881
0.139873
0.139866
0.139858
0.139851
0.139844
0.139836
0.139829
0.139822
0.139817
0.140074
0.140078
0.140083
0.140086
0.14009
0.140093
0.140095
0.140097
0.140098
0.140098
0.140098
0.140098
0.140096
0.140095
0.140092
0.14009
0.140087
0.140083
0.14008
0.140076
0.140072
0.140068
0.140064
0.14006
0.140056
0.140052
0.140048
0.140044
0.14004
0.140037
0.140033
0.14003
0.140026
0.140023
0.14002
0.140016
0.140013
0.14001
0.140008
0.140005
0.140002
0.140081
0.140086
0.14009
0.140094
0.140098
0.140102
0.140106
0.14011
0.140114
0.140117
0.14012
0.140122
0.140124
0.140125
0.140126
0.140127
0.140128
0.140128
0.140128
0.140127
0.140127
0.140126
0.140126
0.140125
0.140124
0.140123
0.140121
0.14012
0.140119
0.140118
0.140117
0.140115
0.140114
0.140113
0.140112
0.140111
0.14011
0.140109
0.140107
0.140106
0.140105
0.140082
0.140086
0.14009
0.140094
0.140099
0.140104
0.140109
0.140114
0.140119
0.140124
0.140129
0.140133
0.140138
0.140141
0.140145
0.140148
0.140151
0.140154
0.140156
0.140158
0.14016
0.140162
0.140163
0.140164
0.140165
0.140166
0.140167
0.140168
0.140168
0.140169
0.140169
0.140169
0.140169
0.14017
0.14017
0.14017
0.14017
0.14017
0.14017
0.14017
0.14017
0.140076
0.14008
0.140084
0.140088
0.140093
0.140098
0.140104
0.14011
0.140116
0.140122
0.140128
0.140134
0.14014
0.140146
0.140151
0.140156
0.140161
0.140165
0.14017
0.140173
0.140177
0.140181
0.140184
0.140187
0.140189
0.140192
0.140194
0.140196
0.140197
0.140199
0.140201
0.140202
0.140203
0.140204
0.140205
0.140206
0.140207
0.140208
0.140208
0.140209
0.140209
0.140066
0.140069
0.140073
0.140077
0.140082
0.140087
0.140093
0.140099
0.140105
0.140112
0.140119
0.140126
0.140132
0.140139
0.140146
0.140152
0.140158
0.140164
0.140169
0.140175
0.14018
0.140184
0.140189
0.140193
0.140197
0.1402
0.140204
0.140207
0.14021
0.140212
0.140215
0.140217
0.140219
0.140221
0.140222
0.140224
0.140225
0.140226
0.140227
0.140228
0.140229
0.140052
0.140054
0.140057
0.140061
0.140065
0.14007
0.140075
0.140081
0.140087
0.140093
0.140099
0.140106
0.140113
0.14012
0.140127
0.140134
0.140141
0.140147
0.140154
0.14016
0.140166
0.140172
0.140178
0.140183
0.140188
0.140192
0.140196
0.140201
0.140204
0.140208
0.140211
0.140214
0.140217
0.140219
0.140221
0.140223
0.140225
0.140227
0.140229
0.14023
0.140231
0.140034
0.140035
0.140037
0.14004
0.140043
0.140046
0.14005
0.140055
0.140059
0.140064
0.140069
0.140075
0.14008
0.140086
0.140092
0.140098
0.140103
0.140109
0.140116
0.140122
0.140128
0.140134
0.14014
0.140146
0.140152
0.140157
0.140163
0.140168
0.140173
0.140178
0.140182
0.140186
0.14019
0.140194
0.140197
0.1402
0.140203
0.140206
0.140209
0.140211
0.140213
0.140012
0.140012
0.140013
0.140014
0.140016
0.140017
0.140018
0.14002
0.140022
0.140024
0.140027
0.140029
0.140031
0.140033
0.140035
0.140037
0.140039
0.140041
0.140042
0.140043
0.140044
0.140045
0.140047
0.140049
0.140052
0.140054
0.140057
0.14006
0.140063
0.140065
0.140068
0.140071
0.140074
0.140076
0.140079
0.140081
0.140084
0.140086
0.140088
0.14009
0.140092
0.00351818
0.0042984
0.00500992
0.00635956
0.00828235
0.010549
0.0130245
0.0156759
0.0184623
0.0213562
0.0243412
0.0274017
0.0304741
0.0334881
0.037128
0.0431852
0.0521931
0.0620238
0.0704239
0.0769337
0.0820181
0.0861712
0.0897353
0.0928161
0.0954895
0.0978489
0.0999656
0.101894
0.103677
0.105348
0.106932
0.108445
0.109902
0.111311
0.112677
0.114004
0.115294
0.116547
0.117763
0.118942
0.120083
0.121186
0.122249
0.123273
0.124257
0.125202
0.126105
0.126969
0.127791
0.128572
0.129312
0.130012
0.130671
0.13129
0.131871
0.132414
0.132922
0.133396
0.133838
0.13425
0.134634
0.134991
0.135324
0.135633
0.135921
0.136188
0.136438
0.13667
0.136886
0.137087
0.137274
0.137454
0.137597
0.137841
0.00748057
0.00788133
0.00732183
0.00722973
0.00810697
0.00980042
0.0119856
0.0144697
0.0171526
0.0199797
0.0229209
0.0259541
0.0290118
0.0319999
0.0356484
0.0419172
0.0513971
0.061829
0.0707588
0.0776517
0.0829883
0.0873013
0.0909455
0.0940732
0.0967578
0.099108
0.1012
0.103093
0.104834
0.106459
0.107992
0.109454
0.110858
0.112213
0.113526
0.1148
0.116038
0.11724
0.118407
0.119539
0.120635
0.121695
0.122717
0.123703
0.124651
0.125562
0.126434
0.127268
0.128063
0.12882
0.129536
0.130214
0.130854
0.131455
0.13202
0.132549
0.133044
0.133506
0.133938
0.13434
0.134715
0.135064
0.13539
0.135693
0.135975
0.136237
0.136481
0.136709
0.136921
0.137119
0.137302
0.137479
0.137618
0.137857
0.0114997
0.0125062
0.0116798
0.0104482
0.00978495
0.0101355
0.0114432
0.0134279
0.0158324
0.0184971
0.0213397
0.0243189
0.0273495
0.0302919
0.0338372
0.040042
0.0497197
0.060675
0.0702435
0.0776808
0.0834116
0.0879944
0.0917972
0.0950307
0.0977794
0.100167
0.10227
0.104157
0.105881
0.107479
0.108979
0.110402
0.111763
0.113074
0.11434
0.115567
0.116757
0.117912
0.119033
0.120119
0.121172
0.12219
0.123173
0.124121
0.125034
0.125911
0.126752
0.127557
0.128325
0.129056
0.12975
0.130407
0.131027
0.131611
0.13216
0.132675
0.133157
0.133608
0.134029
0.134422
0.134789
0.135131
0.135449
0.135747
0.136023
0.136281
0.136521
0.136744
0.136952
0.137146
0.137326
0.1375
0.137637
0.137871
0.0142056
0.0164618
0.0164009
0.0151742
0.0136991
0.0126698
0.0125109
0.0133243
0.0149551
0.0171562
0.0197259
0.0225485
0.0255017
0.0283821
0.0317242
0.0375515
0.0470893
0.0584197
0.0687011
0.0768532
0.0831466
0.0881352
0.0922168
0.0956272
0.0985004
0.100983
0.103141
0.105058
0.106796
0.108392
0.109877
0.111277
0.112609
0.113885
0.115112
0.116299
0.117447
0.118558
0.119636
0.120679
0.121691
0.122668
0.123613
0.124524
0.125402
0.126247
0.127058
0.127834
0.128576
0.129282
0.129954
0.13059
0.131191
0.131759
0.132293
0.132794
0.133263
0.133703
0.134114
0.134498
0.134857
0.135192
0.135504
0.135796
0.136067
0.13632
0.136556
0.136776
0.13698
0.137171
0.137348
0.137519
0.137654
0.137883
0.0159951
0.0193274
0.020244
0.0197891
0.0185723
0.0171132
0.0158914
0.0153021
0.0155696
0.0167005
0.018541
0.0209081
0.023609
0.0263472
0.0293843
0.0345501
0.043521
0.0549479
0.0659332
0.0749558
0.0820031
0.0875657
0.0920659
0.0957785
0.0988733
0.101507
0.103767
0.105758
0.107552
0.109174
0.110667
0.112064
0.113383
0.114636
0.115835
0.116989
0.118101
0.119175
0.120212
0.121217
0.122188
0.123128
0.124035
0.124911
0.125756
0.126569
0.127349
0.128098
0.128814
0.129496
0.130146
0.130762
0.131346
0.131897
0.132416
0.132904
0.133362
0.133791
0.134193
0.134569
0.13492
0.135248
0.135554
0.135841
0.136107
0.136356
0.136588
0.136804
0.137006
0.137194
0.137368
0.137536
0.137668
0.137894
0.0185918
0.0213149
0.0227622
0.0232339
0.0228736
0.0219143
0.0206444
0.0193983
0.0185163
0.0182769
0.018823
0.0201578
0.0221582
0.0244863
0.0270596
0.0312693
0.0391493
0.0502188
0.0617522
0.0717401
0.0797376
0.0860738
0.0911668
0.095328
0.098766
0.101654
0.104109
0.106236
0.108118
0.109796
0.111323
0.112747
0.114073
0.115318
0.116501
0.117632
0.118716
0.119757
0.12076
0.121729
0.122664
0.123567
0.124439
0.12528
0.126092
0.126874
0.127626
0.128347
0.129038
0.129698
0.130326
0.130924
0.13149
0.132026
0.132531
0.133006
0.133453
0.133872
0.134265
0.134633
0.134977
0.135299
0.1356
0.135881
0.136144
0.136388
0.136617
0.13683
0.137028
0.137214
0.137385
0.137551
0.137681
0.137903
0.0213253
0.0231805
0.0242668
0.0252547
0.0257359
0.0256641
0.0250785
0.0241325
0.0230392
0.0220567
0.0214506
0.0214493
0.0222
0.0235894
0.0253613
0.0282801
0.0344281
0.0444085
0.056064
0.066961
0.0760625
0.0833881
0.0892822
0.0940737
0.0980081
0.10128
0.104035
0.106389
0.108436
0.110238
0.111849
0.113319
0.114671
0.11592
0.117102
0.118225
0.119291
0.120305
0.121279
0.122216
0.123118
0.123986
0.124824
0.125632
0.126412
0.127163
0.127887
0.128581
0.129248
0.129885
0.130494
0.131073
0.131623
0.132144
0.132636
0.1331
0.133536
0.133946
0.134331
0.134691
0.135029
0.135345
0.135641
0.135918
0.136176
0.136418
0.136643
0.136853
0.137049
0.137232
0.137401
0.137565
0.137693
0.137911
0.0226399
0.0247298
0.0260285
0.026624
0.027274
0.0278275
0.0280236
0.0278564
0.0273374
0.0265631
0.0256991
0.0249551
0.024584
0.0247586
0.0253823
0.0267061
0.0304233
0.0382038
0.0490736
0.0604896
0.0706973
0.0791921
0.0861118
0.0917487
0.0963685
0.100189
0.103381
0.106079
0.10839
0.110396
0.11216
0.113735
0.115159
0.116457
0.117657
0.11878
0.119832
0.120821
0.121775
0.122685
0.123555
0.124391
0.125195
0.12597
0.126717
0.127439
0.128134
0.128802
0.129444
0.130059
0.130648
0.131209
0.131743
0.13225
0.132731
0.133184
0.133611
0.134012
0.134389
0.134743
0.135075
0.135386
0.135677
0.13595
0.136205
0.136444
0.136666
0.136874
0.137067
0.137248
0.137416
0.137577
0.137704
0.137919
0.0229982
0.0251175
0.0269415
0.028225
0.0290063
0.0293249
0.029583
0.0299539
0.0301118
0.0300108
0.0296661
0.0291214
0.028507
0.0280237
0.0277591
0.0277363
0.0288737
0.0332595
0.041747
0.052612
0.0635253
0.073197
0.0813194
0.088024
0.0935471
0.0981154
0.101919
0.105112
0.107819
0.110138
0.112145
0.113905
0.115465
0.116862
0.118127
0.119285
0.120354
0.121344
0.122277
0.123159
0.123989
0.124792
0.125565
0.126304
0.127017
0.127707
0.128372
0.129012
0.129629
0.130222
0.13079
0.131334
0.131852
0.132346
0.132815
0.133258
0.133676
0.13407
0.134441
0.134789
0.135116
0.135422
0.135709
0.135979
0.136231
0.136466
0.136686
0.136892
0.137083
0.137263
0.137428
0.137588
0.137714
0.137927
0.0233433
0.0250029
0.0267749
0.0284868
0.029961
0.0310178
0.0316248
0.0318927
0.0318098
0.0319502
0.0321482
0.0321751
0.0320145
0.0317276
0.031384
0.0309508
0.0306295
0.0317477
0.0363002
0.0446408
0.0549979
0.0653572
0.0746377
0.0825554
0.089189
0.094722
0.0993436
0.10322
0.10649
0.109267
0.111644
0.113696
0.115484
0.117054
0.118447
0.119694
0.120819
0.121843
0.122783
0.123655
0.124468
0.125235
0.125966
0.126656
0.127328
0.127984
0.128613
0.129222
0.12981
0.130378
0.130924
0.131449
0.131951
0.132431
0.132888
0.133322
0.133732
0.134119
0.134484
0.134827
0.13515
0.135452
0.135736
0.136003
0.136252
0.136485
0.136704
0.136907
0.137098
0.137275
0.13744
0.137599
0.137724
0.137934
0.0246119
0.0257331
0.0270114
0.02841
0.02988
0.0313323
0.0326316
0.0336461
0.0342555
0.0345356
0.0345697
0.0342989
0.0342823
0.0343674
0.0344023
0.0343038
0.0339712
0.0337073
0.0348591
0.039135
0.0467866
0.056361
0.066145
0.0751238
0.0829514
0.0896275
0.0952761
0.100047
0.104081
0.107501
0.110413
0.112904
0.115047
0.1169
0.118513
0.119925
0.121171
0.122278
0.123268
0.124162
0.124977
0.125728
0.126428
0.127084
0.127708
0.128311
0.128886
0.129452
0.130005
0.13054
0.131059
0.13156
0.132044
0.132508
0.132953
0.133377
0.133779
0.13416
0.134519
0.134858
0.135177
0.135477
0.135758
0.136022
0.13627
0.136501
0.136718
0.13692
0.13711
0.137286
0.13745
0.137608
0.137732
0.13794
0.027723
0.028427
0.0292421
0.0301286
0.0310914
0.0321419
0.0332737
0.0344425
0.035557
0.0365081
0.0372045
0.0375489
0.0376117
0.037464
0.0370994
0.0369083
0.0368333
0.0366475
0.0365681
0.0376975
0.0414294
0.0481189
0.0567613
0.065941
0.0746629
0.0824805
0.089293
0.0951533
0.100167
0.104446
0.108099
0.111219
0.113888
0.116177
0.118143
0.119838
0.121303
0.122574
0.123681
0.124651
0.125508
0.126272
0.126962
0.127592
0.128177
0.12873
0.129255
0.129763
0.130258
0.130736
0.131216
0.131684
0.132141
0.132585
0.133013
0.133425
0.133818
0.134192
0.134546
0.134881
0.135197
0.135494
0.135774
0.136036
0.136283
0.136513
0.136729
0.136931
0.137119
0.137296
0.137459
0.137616
0.13774
0.137947
0.033464
0.0338335
0.034288
0.0347681
0.035264
0.0357845
0.0363495
0.036982
0.0376961
0.0384818
0.0392978
0.040068
0.0407013
0.0411199
0.0412441
0.041111
0.0407884
0.040231
0.0396321
0.0393653
0.0401562
0.0430463
0.0485402
0.0561016
0.0646166
0.0730973
0.080972
0.0880148
0.0941922
0.0995554
0.104186
0.108169
0.11159
0.114522
0.117031
0.119177
0.12101
0.122574
0.123907
0.125044
0.126015
0.126849
0.12757
0.128201
0.128763
0.129273
0.129746
0.130193
0.130623
0.131041
0.131455
0.131859
0.132269
0.13268
0.133081
0.133474
0.133853
0.134218
0.134566
0.134897
0.13521
0.135505
0.135784
0.136045
0.136291
0.136521
0.136737
0.136939
0.137127
0.137303
0.137466
0.137623
0.137748
0.137954
0.0418736
0.0419709
0.0421362
0.0423066
0.0424655
0.0426097
0.0427432
0.0428772
0.0430307
0.0432276
0.0434908
0.0438335
0.0442472
0.0446976
0.0451222
0.0454413
0.0455874
0.0454864
0.0450926
0.0444083
0.0435592
0.0432704
0.0446715
0.0484184
0.0544329
0.0619726
0.0700886
0.0780398
0.0854117
0.09204
0.0978987
0.103025
0.10748
0.111331
0.114646
0.117486
0.119909
0.121965
0.1237
0.125155
0.126369
0.127378
0.128214
0.128908
0.129489
0.129983
0.130413
0.130799
0.131157
0.131499
0.131834
0.132166
0.132503
0.132845
0.133187
0.133546
0.1339
0.134247
0.134584
0.134907
0.135216
0.13551
0.135787
0.136048
0.136294
0.136525
0.136741
0.136943
0.137132
0.137308
0.137472
0.137629
0.137754
0.13796
0.0522517
0.0521483
0.0520971
0.0520424
0.0519688
0.0518703
0.0517438
0.0515888
0.0514081
0.0512091
0.0510054
0.0508165
0.0506656
0.0505746
0.0505568
0.0506077
0.0507009
0.0507897
0.0508027
0.0506425
0.050184
0.0494116
0.0486184
0.0483983
0.0496032
0.0530339
0.0585925
0.0656156
0.0732801
0.0809105
0.0880888
0.0946191
0.100444
0.105575
0.110056
0.113939
0.11728
0.120132
0.122547
0.12457
0.126248
0.127622
0.128733
0.129619
0.130319
0.130869
0.131303
0.131652
0.131942
0.132197
0.132435
0.132669
0.132909
0.133161
0.133423
0.133704
0.133992
0.134303
0.134614
0.134921
0.135221
0.135509
0.135785
0.136045
0.136292
0.136523
0.136741
0.136944
0.137134
0.137311
0.137476
0.137634
0.13776
0.137965
0.063694
0.0634575
0.0632593
0.0630542
0.0628303
0.0625824
0.0623067
0.0619997
0.0616587
0.0612818
0.060869
0.0604232
0.0599519
0.0594674
0.0589878
0.0585345
0.0581282
0.057784
0.0575048
0.0572726
0.0570326
0.0566827
0.0561198
0.0553324
0.0545242
0.0541994
0.0549869
0.0572747
0.0615516
0.067514
0.0744971
0.0818218
0.0889751
0.0956483
0.101696
0.107077
0.111801
0.115903
0.119428
0.122421
0.124929
0.127
0.128678
0.130009
0.13104
0.131814
0.132379
0.132779
0.133054
0.133244
0.133381
0.133494
0.133604
0.133726
0.133869
0.134039
0.134233
0.134455
0.134698