/*--------------------------------*- C++ -*----------------------------------*\
| =========                 |                                                 |
| \\      /  F ield         | OpenFOAM: The Open Source CFD Toolbox           |
|  \\    /   O peration     | Version:  5.x                                   |
|   \\  /    A nd           | Web:      www.OpenFOAM.org                      |
|    \\/     M anipulation  |                                                 |
\*---------------------------------------------------------------------------*/
FoamFile
{
    version     2.0;
    format      ascii;
    class       volScalarField;
    location    "100";
    object      p;
}
// * * * * * * * * * * * * * * * * * * * * * * * * * * * * * * * * * * * * * //

dimensions      [0 2 -2 0 0 0 0];

internalField   nonuniform List<scalar> 
11040
(
-0.106199
-99.9909
-333.144
-398.079
-420.468
-434.067
-436.07
-426.422
-408.424
-383.171
-350.223
-299.543
-250.71
-215.867
-191.459
-165.477
-139.102
-114.187
-90.6132
-67.8858
-45.9307
-27.003
-11.2259
3.50942
17.2874
30.137
42.0596
53.0574
63.0875
72.0685
79.9095
86.5201
91.8355
95.8922
98.8468
100.922
101.906
101.476
101.151
104.645
104.912
34.3101
-61.7793
-212.235
-290.003
-331.313
-361.58
-379.58
-384.085
-377.548
-361.643
-336.585
-294.624
-250.365
-216.17
-191.235
-165.555
-139.481
-114.693
-91.1936
-68.5249
-46.6057
-27.7211
-11.9105
2.85688
16.6683
29.5563
41.5236
52.5713
62.6576
71.7047
79.6179
86.3029
91.6933
95.8114
98.8036
100.926
101.979
101.541
100.8
103.235
103.01
57.6332
-35.2587
-143.996
-234.671
-289.441
-325.832
-348.572
-357.499
-354.886
-342.678
-321.893
-287.079
-247.13
-213.746
-188.712
-163.999
-138.671
-114.269
-91.0328
-68.5758
-46.8083
-27.9975
-12.2249
2.5154
16.3109
29.194
41.1678
52.2309
62.342
71.4261
79.3884
86.1323
91.5845
95.7591
98.793
100.954
102.073
101.696
100.818
102.447
101.894
73.9013
-9.05254
-90.6937
-173.369
-231.479
-272.868
-302.417
-319.107
-323.623
-317.759
-303.017
-275.787
-241.245
-209.777
-185.068
-161.44
-137.075
-113.253
-90.43
-68.3046
-46.7812
-28.1283
-12.4476
2.23121
15.985
28.8428
40.8076
51.8749
62.0036
71.1204
79.1316
85.9368
91.4585
95.7038
98.7926
100.98
102.137
101.827
100.912
102.082
101.702
86.633
15.573
-47.9542
-118.713
-177.049
-221.863
-255.961
-278.504
-289.274
-289.529
-280.836
-261.093
-232.826
-204.272
-180.303
-157.797
-134.62
-111.61
-89.3625
-67.7069
-46.5509
-28.15
-12.6217
1.94474
15.6143
28.4116
40.3392
51.3895
61.5214
70.6633
78.723
85.5987
91.2101
95.5551
98.7294
100.958
102.151
101.937
101.036
102.061
102.175
96.2746
37.0264
-13.7257
-72.4505
-126.449
-171.256
-207.59
-234.515
-250.943
-257.315
-254.882
-242.566
-221.147
-196.541
-174.043
-152.867
-131.127
-109.186
-87.6984
-66.6602
-46.0045
-27.9515
-12.6541
1.73094
15.257
27.9423
39.7886
50.785
60.8909
70.037
78.1336
85.0807
90.7961
95.2667
98.5622
100.865
102.125
102.074
101.287
102.32
102.973
103.528
54.9357
13.6974
-34.3376
-81.5385
-123.551
-159.72
-188.906
-209.534
-221.282
-224.849
-219.645
-205.378
-185.794
-165.798
-146.377
-126.357
-105.785
-85.295
-65.0555
-45.0525
-27.462
-12.4893
1.63484
14.948
27.4586
39.1667
50.0594
60.0972
69.2145
77.326
84.3363
90.1631
94.7827
98.239
100.667
102.053
102.255
101.723
102.833
104.014
108.963
69.3925
35.5864
-3.46474
-43.231
-80.6027
-114.552
-143.846
-166.802
-182.567
-191.263
-192.413
-185.106
-171.287
-154.87
-137.843
-119.924
-101.092
-81.9151
-62.7131
-43.5608
-26.582
-12.0482
1.71832
14.7334
26.9921
38.4905
49.2138
59.1248
68.1634
76.2518
83.3026
89.237
94.023
97.682
100.306
101.909
102.477
102.355
103.666
105.248
112.977
80.7809
52.937
21.2458
-11.5314
-43.4758
-73.7808
-101.353
-124.696
-142.752
-155.208
-161.52
-160.435
-152.567
-140.584
-126.692
-111.353
-94.6955
-77.2231
-59.3666
-41.3165
-25.1367
-11.1832
2.10133
14.7103
26.6216
37.8228
48.2953
58.0037
66.8948
74.901
81.9469
87.9629
92.9148
96.8091
99.707
101.642
102.707
103.157
104.831
106.645
115.87
89.6019
66.5965
40.871
14.1797
-12.3867
-38.3829
-63.0185
-85.1228
-103.715
-118.275
-128.201
-132.104
-129.73
-122.559
-112.432
-100.177
-86.1426
-70.8146
-54.68
-38.0428
-22.8932
-9.69439
2.95272
15.021
26.47
37.2717
47.4007
56.8208
65.4846
73.3348
80.3106
86.3561
91.4435
95.5775
98.8049
101.175
102.853
104.014
106.184
108.177
117.887
96.3586
77.2983
56.3873
34.7759
13.0575
-8.60953
-29.7505
-49.5358
-67.2173
-82.2786
-94.1425
-101.474
-103.554
-100.944
-94.8453
-86.0529
-75.0352
-62.2761
-48.2737
-33.4123
-19.5714
-7.33862
4.483
15.8478
26.6961
36.9804
46.6626
55.7035
64.0581
71.6776
78.5136
84.525
89.6953
94.0378
97.5997
100.443
102.769
104.694
107.406
109.682
119.235
101.504
85.6729
68.6389
51.1728
33.5857
15.868
-1.74258
-18.716
-34.5499
-48.8507
-61.1451
-70.2934
-75.4333
-76.543
-74.2117
-68.9474
-61.1609
-51.2874
-39.7875
-27.0722
-14.8478
-3.82437
6.95503
17.4244
27.5073
37.1339
46.2505
54.811
62.7702
70.0844
76.7143
82.6303
87.8259
92.3243
96.1763
99.4491
102.343
104.946
108.112
110.798
120.097
105.426
92.2475
78.3355
64.2121
50.0319
35.706
21.3256
7.19902
-6.35832
-19.1085
-30.7184
-40.3058
-47.0718
-50.7218
-51.4084
-49.3123
-44.6613
-37.7679
-28.9976
-18.7246
-8.4051
1.1616
10.6714
20.0374
29.1694
37.9766
46.3884
54.3495
61.8127
68.7359
75.0852
80.8381
85.9939
90.5799
94.6435
98.2459
101.555
104.65
108.074
111.145
120.624
108.437
97.4491
86.0567
74.6158
63.1952
51.6785
40.0789
28.5633
17.3141
6.45273
-3.82192
-12.8765
-20.075
-25.0612
-27.7573
-28.1082
-26.1464
-22.0212
-15.9631
-8.25375
-0.0341919
7.87496
15.9167
23.9866
31.9836
39.8027
47.3582
54.5861
61.4343
67.8605
73.8327
79.3312
84.3558
88.9313
93.0941
96.8896
100.438
103.806
107.295
110.535
120.931
110.781
101.61
92.2582
82.9693
73.7649
64.5276
55.2338
45.9681
36.827
27.8667
19.1829
11.2024
4.38595
-0.956985
-4.67202
-6.59447
-6.62526
-4.77206
-1.12786
4.14123
10.2366
16.3944
22.8491
29.4884
36.2076
42.8935
49.4519
55.8125
61.9199
67.7291
73.207
78.3327
83.1023
87.533
91.6462
95.4678
99.0728
102.508
105.918
109.109
121.123
112.657
104.999
97.3022
89.7401
82.3083
74.8988
67.4741
60.0739
52.7454
45.5071
38.3962
31.6871
25.6939
20.6451
16.6885
14.005
12.7446
12.9834
14.7297
17.9221
22.0747
26.5433
31.4166
36.5898
41.9647
47.4314
52.8951
58.2828
63.5371
68.6121
73.473
78.0955
82.469
86.6004
90.4963
94.1645
97.647
100.97
104.194
107.214
121.311
114.245
107.848
101.502
95.3303
89.3149
83.3611
77.4291
71.5352
65.7004
59.924
54.2163
48.7472
43.7233
39.3
35.5896
32.7434
30.9063
30.1814
30.6291
32.2565
34.8182
37.8182
41.2611
45.0613
49.1355
53.3878
57.7323
62.1004
66.4366
70.695
74.8395
78.843
82.6892
86.376
89.8982
93.2505
96.4528
99.5158
102.459
105.231
121.487
115.531
110.132
104.831
99.7254
94.7874
89.9339
85.129
80.378
75.6896
71.0565
66.4796
62.0659
57.948
54.2283
50.9848
48.3301
46.381
45.2333
44.9596
45.5971
47.0488
48.9539
51.281
53.9667
56.9462
60.142
63.4831
66.9104
70.3744
73.8329
77.2512
80.6013
83.8637
87.0297
90.0876
93.0251
95.8499
98.5639
101.167
103.637
121.637
116.539
111.911
107.408
103.11
98.9813
94.9506
90.986
87.0871
83.2562
79.4841
75.7671
72.1776
68.8037
65.7124
62.9575
60.6194
58.7857
57.5336
56.929
57.0154
57.7741
58.9446
60.4866
62.3567
64.506
66.8747
69.4069
72.0546
74.7761
77.535
80.3001
83.0452
85.7503
88.4037
90.9908
93.4966
95.922
98.2638
100.514
102.663
121.783
117.364
113.347
109.468
105.794
102.288
98.8852
95.5585
92.305
89.1238
86.0057
82.9459
79.9946
77.2134
74.6462
72.3304
70.323
68.6878
67.4836
66.7641
66.5687
66.9149
67.6121
68.6228
69.9183
71.4622
73.2092
75.1165
77.1463
79.2649
81.4421
83.6514
85.8695
88.078
90.2646
92.4144
94.5125
96.5564
98.5405
100.455
102.294
121.931
118.061
114.539
111.161
107.983
104.968
102.058
99.2292
96.478
93.8015
91.1913
88.6423
86.1906
83.8804
81.7415
79.7994
78.0953
76.6754
75.5831
74.8597
74.5376
74.648
75.0475
75.7054
76.6031
77.7136
79.0024
80.4373
81.9889
83.6308
85.3385
87.0901
88.8661
90.6504
92.4313
94.1953
95.9288
97.6281
99.2865
100.894
102.448
122.081
118.664
115.551
112.582
109.808
107.188
104.672
102.241
99.8886
97.6117
95.4028
93.257
91.201
89.2668
87.4758
85.8449
84.4045
83.1878
82.2266
81.5519
81.1884
81.1703
81.3864
81.8127
82.4381
83.2415
84.1968
85.2794
86.4671
87.7389
89.0756
90.4594
91.8745
93.307
94.7471
96.1826
97.6022
99.0016
100.375
101.712
103.011
122.234
119.196
116.424
113.796
111.353
109.057
106.864
104.755
102.725
100.77
98.8839
97.0614
95.3226
93.6913
92.1832
90.8096
89.5925
88.5564
87.7244
87.1192
86.7592
86.6761
86.7814
87.0571
87.4967
88.0835
88.7974
89.6194
90.5326
91.5205
92.5681
93.6611
94.7868
95.9338
97.0937
98.2563
99.4124
100.558
101.687
102.792
103.871
122.388
119.669
117.187
114.846
112.68
110.654
108.727
106.884
105.118
103.427
101.803
100.243
98.7613
97.3763
96.0991
94.9378
93.908
93.0279
92.3141
91.7833
91.4485
91.3374
91.3773
91.5555
91.8683
92.3023
92.8412
93.4708
94.1776
94.949
95.773
96.6383
97.5345
98.4528
99.3859
100.326
101.265
102.199
103.124
104.034
104.924
122.54
120.095
117.861
115.762
113.831
112.031
110.328
108.706
107.16
105.687
104.279
102.935
101.664
100.482
99.3944
98.4086
97.5353
96.7878
96.1784
95.7188
95.4182
95.2997
95.3024
95.4177
95.6435
95.9689
96.3807
96.8676
97.4191
98.0255
98.6769
99.3646
100.08
100.817
101.568
102.328
103.09
103.851
104.608
105.355
106.088
122.69
120.479
118.458
116.569
114.837
113.23
111.715
110.28
108.919
107.628
106.401
105.236
104.14
103.124
102.194
101.354
100.612
99.9763
99.457
99.0623
98.798
98.6832
98.6658
98.7404
98.9062
99.1538
99.4723
99.8528
100.287
100.767
101.285
101.835
102.409
103.001
103.608
104.223
104.843
105.464
106.082
106.695
107.298
122.835
120.828
118.992
117.283
115.723
114.28
112.927
111.651
110.446
109.308
108.234
107.218
106.269
105.393
104.594
103.875
103.242
102.701
102.259
101.921
101.692
101.586
101.559
101.607
101.731
101.922
102.172
102.472
102.817
103.2
103.616
104.057
104.52
104.999
105.491
105.991
106.495
107.003
107.509
108.013
108.51
122.976
121.146
119.471
117.918
116.506
115.206
113.991
112.851
111.78
110.773
109.827
108.939
108.112
107.353
106.664
106.047
105.505
105.044
104.668
104.38
104.183
104.088
104.057
104.089
104.183
104.333
104.53
104.77
105.047
105.355
105.69
106.048
106.423
106.812
107.212
107.62
108.033
108.449
108.865
109.281
109.69
123.111
121.435
119.902
118.485
117.202
116.025
114.93
113.907
112.951
112.057
111.221
110.44
109.718
109.058
108.462
107.93
107.466
107.072
106.751
106.506
106.337
106.254
106.223
106.244
106.317
106.436
106.595
106.788
107.012
107.263
107.535
107.826
108.132
108.45
108.777
109.112
109.451
109.793
110.137
110.48
110.818
123.24
121.7
120.29
118.992
117.822
116.753
115.762
114.84
113.983
113.186
112.445
111.757
111.124
110.548
110.03
109.571
109.172
108.835
108.562
108.353
108.21
108.138
108.109
108.123
108.181
108.277
108.406
108.563
108.746
108.951
109.174
109.412
109.663
109.924
110.194
110.469
110.749
111.032
111.316
111.6
111.881
123.362
121.941
120.64
119.447
118.376
117.4
116.5
115.668
114.897
114.184
113.525
112.916
112.359
111.856
111.405
111.008
110.665
110.376
110.142
109.965
109.843
109.783
109.756
109.766
109.812
109.891
109.997
110.127
110.277
110.445
110.629
110.826
111.033
111.249
111.472
111.7
111.932
112.166
112.402
112.639
112.872
123.478
122.161
120.956
119.856
118.871
117.977
117.157
116.402
115.707
115.068
114.48
113.94
113.449
113.007
112.615
112.271
111.974
111.727
111.528
111.377
111.274
111.223
111.2
111.207
111.245
111.311
111.398
111.506
111.631
111.771
111.923
112.086
112.258
112.437
112.622
112.812
113.005
113.2
113.397
113.594
113.789
123.586
122.361
121.241
120.222
119.314
118.493
117.743
117.056
116.427
115.852
115.326
114.846
114.412
114.025
113.682
113.383
113.128
112.915
112.745
112.618
112.531
112.488
112.469
112.475
112.507
112.562
112.635
112.725
112.829
112.946
113.073
113.209
113.353
113.502
113.657
113.815
113.976
114.139
114.304
114.469
114.633
123.688
122.543
121.498
120.551
119.709
118.952
118.264
117.637
117.067
116.548
116.076
115.649
115.266
114.925
114.625
114.366
114.145
113.963
113.818
113.711
113.638
113.603
113.587
113.592
113.62
113.666
113.729
113.804
113.892
113.99
114.097
114.211
114.331
114.457
114.586
114.719
114.854
114.991
115.129
115.268
115.405
123.782
122.708
121.729
120.845
120.062
119.362
118.728
118.154
117.635
117.166
116.743
116.362
116.022
115.722
115.461
115.235
115.045
114.889
114.766
114.675
114.615
114.586
114.573
114.579
114.603
114.643
114.696
114.761
114.835
114.918
115.008
115.104
115.206
115.311
115.42
115.531
115.645
115.76
115.876
115.994
116.109
123.87
122.857
121.936
121.107
120.377
119.726
119.14
118.614
118.141
117.716
117.335
116.995
116.694
116.429
116.201
116.005
115.841
115.708
115.604
115.528
115.478
115.455
115.446
115.451
115.473
115.508
115.554
115.61
115.673
115.744
115.82
115.902
115.987
116.076
116.168
116.262
116.358
116.455
116.553
116.652
116.749
123.95
122.99
122.12
121.34
120.656
120.048
119.506
119.021
118.588
118.202
117.859
117.556
117.288
117.056
116.856
116.687
116.546
116.433
116.345
116.282
116.241
116.224
116.217
116.224
116.243
116.274
116.315
116.362
116.417
116.478
116.543
116.612
116.685
116.76
116.838
116.918
116.999
117.081
117.164
117.248
117.33
124.023
123.11
122.283
121.546
120.901
120.332
119.828
119.38
118.983
118.632
118.323
118.051
117.815
117.61
117.436
117.29
117.17
117.074
117.001
116.949
116.917
116.904
116.901
116.908
116.927
116.955
116.99
117.032
117.079
117.132
117.188
117.247
117.309
117.373
117.44
117.507
117.576
117.646
117.716
117.787
117.856
124.088
123.215
122.426
121.726
121.116
120.581
120.109
119.694
119.33
119.01
118.731
118.488
118.279
118.1
117.949
117.823
117.721
117.641
117.58
117.538
117.513
117.505
117.504
117.512
117.53
117.556
117.587
117.624
117.666
117.711
117.76
117.811
117.864
117.919
117.976
118.033
118.092
118.151
118.211
118.272
118.331
124.147
123.306
122.55
121.881
121.301
120.795
120.353
119.967
119.631
119.34
119.088
118.871
118.686
118.53
118.399
118.292
118.207
118.14
118.091
118.059
118.041
118.037
118.039
118.048
118.066
118.09
118.119
118.153
118.19
118.23
118.272
118.316
118.362
118.41
118.458
118.508
118.558
118.609
118.66
118.711
118.761
124.199
123.385
122.655
122.013
121.458
120.978
120.562
120.201
119.891
119.625
119.398
119.204
119.041
118.905
118.793
118.703
118.632
118.578
118.54
118.515
118.503
118.502
118.507
118.517
118.535
118.558
118.585
118.615
118.648
118.684
118.721
118.76
118.8
118.841
118.883
118.926
118.969
119.012
119.056
119.1
119.143
124.244
123.45
122.742
122.122
121.588
121.13
120.736
120.399
120.111
119.868
119.662
119.49
119.347
119.23
119.136
119.061
119.003
118.961
118.933
118.917
118.911
118.915
118.923
118.936
118.954
118.977
119.003
119.031
119.062
119.094
119.128
119.163
119.198
119.234
119.271
119.307
119.344
119.381
119.419
119.456
119.493
124.281
123.503
122.811
122.207
121.692
121.252
120.877
120.56
120.293
120.07
119.885
119.732
119.607
119.507
119.428
119.367
119.322
119.291
119.271
119.261
119.26
119.267
119.277
119.291
119.31
119.332
119.357
119.383
119.411
119.441
119.471
119.502
119.534
119.566
119.598
119.631
119.663
119.695
119.728
119.76
119.791
124.312
123.543
122.862
122.271
121.769
121.344
120.986
120.686
120.437
120.232
120.065
119.93
119.823
119.739
119.675
119.629
119.597
119.577
119.567
119.566
119.572
119.585
119.6
119.618
119.639
119.663
119.688
119.714
119.742
119.77
119.798
119.827
119.855
119.884
119.913
119.941
119.969
119.997
120.025
120.053
120.08
124.336
123.572
122.898
122.317
121.824
121.41
121.065
120.779
120.546
120.357
120.206
120.087
119.996
119.927
119.876
119.841
119.819
119.806
119.803
119.807
119.817
119.833
119.85
119.869
119.891
119.915
119.94
119.965
119.991
120.017
120.044
120.07
120.096
120.123
120.149
120.174
120.2
120.225
120.25
120.275
120.298
124.353
123.588
122.917
122.34
121.855
121.449
121.115
120.841
120.621
120.446
120.31
120.205
120.128
120.074
120.039
120.019
120.011
120.014
120.024
120.039
120.059
120.083
120.107
120.132
120.159
120.186
120.213
120.24
120.267
120.294
120.32
120.345
120.37
120.395
120.419
120.442
120.464
120.487
120.508
120.529
120.55
124.361
123.583
122.906
122.327
121.843
121.444
121.119
120.857
120.651
120.49
120.368
120.278
120.214
120.171
120.145
120.133
120.131
120.138
120.151
120.17
120.194
120.219
120.245
120.272
120.299
120.327
120.355
120.382
120.408
120.434
120.459
120.484
120.508
120.531
120.553
120.575
120.596
120.617
120.637
120.656
120.676
124.358
123.56
122.869
122.282
121.795
121.397
121.077
120.824
120.629
120.483
120.377
120.305
120.261
120.239
120.237
120.248
120.271
120.301
120.335
120.372
120.409
120.447
120.483
120.519
120.554
120.587
120.619
120.65
120.679
120.707
120.733
120.758
120.782
120.805
120.826
120.847
120.867
120.885
120.904
120.921
120.939
115.71
122.939
128.705
131.875
133.589
134.62
135.098
135.186
135.041
134.747
134.359
133.92
133.471
133.03
132.585
132.145
131.758
131.413
131.025
130.562
130.048
129.557
129.129
128.772
128.482
128.245
128.05
127.886
127.752
127.638
127.54
127.454
127.381
127.318
127.261
127.212
127.169
127.134
127.105
127.08
127.06
127.046
127.035
127.028
127.023
127.021
127.019
127.02
127.023
127.024
127.025
127.027
127.028
127.028
127.029
127.028
127.028
127.025
127.021
127.016
127.011
127.004
126.998
126.991
126.982
126.975
126.964
126.956
126.947
126.935
126.925
126.907
126.9
126.851
114.776
122.54
128.537
131.924
133.724
134.751
135.201
135.261
135.089
134.77
134.361
133.908
133.449
133.002
132.549
132.092
131.69
131.369
131.047
130.645
130.156
129.649
129.183
128.779
128.443
128.166
127.937
127.746
127.592
127.463
127.355
127.264
127.189
127.125
127.071
127.026
126.989
126.96
126.938
126.922
126.91
126.905
126.903
126.905
126.909
126.915
126.922
126.931
126.941
126.95
126.958
126.966
126.973
126.98
126.985
126.99
126.994
126.995
126.996
126.994
126.992
126.987
126.984
126.979
126.972
126.966
126.958
126.951
126.942
126.931
126.922
126.905
126.899
126.848
114.061
121.398
128.013
131.834
133.805
134.875
135.32
135.354
135.149
134.8
134.367
133.896
133.423
132.966
132.505
132.038
131.626
131.322
131.049
130.697
130.23
129.713
129.215
128.771
128.395
128.082
127.823
127.608
127.435
127.293
127.176
127.079
127.001
126.937
126.886
126.844
126.812
126.79
126.775
126.766
126.763
126.766
126.772
126.783
126.795
126.81
126.825
126.842
126.859
126.875
126.89
126.905
126.918
126.93
126.941
126.951
126.959
126.964
126.969
126.97
126.971
126.969
126.969
126.966
126.961
126.957
126.95
126.944
126.936
126.926
126.919
126.902
126.896
126.845
113.68
120.423
127.331
131.56
133.781
134.942
135.411
135.441
135.214
134.835
134.374
133.883
133.393
132.921
132.453
131.982
131.565
131.265
131.016
130.696
130.251
129.734
129.219
128.751
128.347
128.007
127.725
127.491
127.302
127.148
127.023
126.921
126.84
126.776
126.726
126.687
126.659
126.641
126.632
126.629
126.633
126.642
126.656
126.673
126.693
126.715
126.737
126.76
126.784
126.805
126.827
126.847
126.865
126.883
126.898
126.912
126.924
126.933
126.941
126.946
126.95
126.95
126.952
126.951
126.948
126.945
126.94
126.935
126.929
126.92
126.913
126.896
126.892
126.84
113.791
120.064
126.775
131.152
133.619
134.918
135.437
135.478
135.245
134.852
134.373
133.862
133.354
132.864
132.387
131.915
131.498
131.198
130.958
130.657
130.23
129.719
129.197
128.712
128.289
127.928
127.628
127.379
127.178
127.014
126.882
126.775
126.692
126.628
126.578
126.542
126.517
126.503
126.499
126.502
126.511
126.526
126.546
126.57
126.596
126.624
126.652
126.681
126.711
126.738
126.765
126.79
126.813
126.835
126.855
126.873
126.889
126.902
126.913
126.92
126.927
126.93
126.934
126.935
126.934
126.933
126.929
126.925
126.92
126.912
126.906
126.89
126.887
126.834
114.14
120.157
126.491
130.796
133.364
134.779
135.377
135.448
135.214
134.813
134.329
133.812
133.293
132.789
132.301
131.829
131.416
131.113
130.873
130.582
130.172
129.672
129.15
128.657
128.22
127.845
127.531
127.269
127.057
126.885
126.747
126.636
126.551
126.486
126.437
126.403
126.381
126.371
126.371
126.378
126.393
126.414
126.44
126.469
126.5
126.534
126.568
126.603
126.638
126.671
126.703
126.733
126.761
126.787
126.812
126.833
126.853
126.869
126.883
126.894
126.903
126.909
126.914
126.918
126.918
126.919
126.916
126.914
126.91
126.903
126.899
126.883
126.881
126.827
114.595
120.466
126.407
130.6
133.135
134.563
135.217
135.337
135.12
134.714
134.22
133.699
133.18
132.674
132.181
131.71
131.301
130.997
130.754
130.469
130.076
129.592
129.079
128.585
128.141
127.756
127.431
127.16
126.939
126.76
126.617
126.503
126.416
126.35
126.302
126.269
126.25
126.244
126.247
126.259
126.279
126.304
126.335
126.37
126.407
126.446
126.485
126.525
126.565
126.604
126.64
126.675
126.708
126.739
126.767
126.792
126.816
126.835
126.852
126.865
126.877
126.885
126.893
126.899
126.901
126.903
126.903
126.902
126.899
126.894
126.89
126.875
126.875
126.819
115.207
120.823
126.335
130.466
132.966
134.346
134.997
135.144
134.952
134.558
134.061
133.528
132.999
132.491
131.999
131.532
131.129
130.827
130.584
130.309
129.936
129.476
128.98
128.493
128.049
127.659
127.328
127.05
126.823
126.639
126.491
126.375
126.285
126.219
126.172
126.141
126.124
126.12
126.127
126.143
126.167
126.197
126.233
126.272
126.314
126.358
126.403
126.448
126.493
126.536
126.577
126.617
126.654
126.688
126.72
126.75
126.776
126.799
126.819
126.835
126.85
126.86
126.871
126.878
126.883
126.886
126.887
126.888
126.887
126.882
126.88
126.866
126.867
126.81
116.071
121.172
126.113
130.187
132.722
134.108
134.755
134.903
134.72
134.337
133.85
133.316
132.776
132.257
131.757
131.278
130.866
130.564
130.334
130.082
129.743
129.317
128.847
128.378
127.941
127.553
127.219
126.937
126.706
126.517
126.367
126.248
126.158
126.091
126.045
126.015
126.001
125.999
126.009
126.029
126.057
126.091
126.131
126.175
126.222
126.271
126.32
126.37
126.419
126.467
126.513
126.556
126.598
126.636
126.672
126.705
126.735
126.761
126.784
126.803
126.82
126.834
126.846
126.856
126.862
126.868
126.871
126.873
126.873
126.87
126.868
126.855
126.857
126.801
117.042
121.415
125.659
129.601
132.207
133.662
134.384
134.596
134.446
134.074
133.588
133.055
132.514
131.99
131.486
130.994
130.544
130.197
129.959
129.747
129.468
129.098
128.672
128.231
127.811
127.43
127.099
126.818
126.584
126.394
126.242
126.122
126.031
125.964
125.918
125.89
125.878
125.879
125.892
125.915
125.947
125.985
126.029
126.078
126.129
126.182
126.236
126.29
126.344
126.396
126.446
126.494
126.54
126.582
126.622
126.658
126.691
126.721
126.747
126.769
126.788
126.805
126.819
126.831
126.84
126.847
126.852
126.856
126.857
126.856
126.855
126.844
126.847
126.79
117.646
121.306
124.826
128.512
131.213
132.806
133.664
134.023
134.005
133.725
133.288
132.773
132.23
131.696
131.186
130.697
130.232
129.822
129.51
129.282
129.062
128.78
128.427
128.037
127.648
127.285
126.963
126.686
126.454
126.265
126.112
125.992
125.901
125.835
125.79
125.763
125.753
125.757
125.773
125.799
125.835
125.877
125.926
125.978
126.034
126.091
126.15
126.208
126.266
126.323
126.377
126.429
126.479
126.525
126.568
126.608
126.645
126.678
126.707
126.732
126.754
126.773
126.79
126.804
126.815
126.825
126.831
126.837
126.84
126.84
126.841
126.831
126.835
126.779
117.443
120.571
123.496
126.785
129.482
131.247
132.326
132.925
133.135
133.05
132.768
132.368
131.9
131.4
130.895
130.404
129.937
129.504
129.12
128.805
128.555
128.325
128.066
127.762
127.43
127.102
126.799
126.534
126.31
126.124
125.974
125.857
125.767
125.702
125.658
125.633
125.625
125.631
125.651
125.68
125.719
125.766
125.818
125.875
125.935
125.997
126.06
126.122
126.185
126.246
126.304
126.361
126.414
126.465
126.512
126.555
126.595
126.631
126.664
126.692
126.717
126.739
126.759
126.775
126.789
126.8
126.809
126.816
126.821
126.822
126.825
126.816
126.823
126.766
116.413
119.152
121.667
124.504
127.027
128.882
130.175
131.049
131.565
131.775
131.753
131.569
131.276
130.913
130.51
130.086
129.657
129.241
128.846
128.474
128.133
127.838
127.587
127.353
127.11
126.851
126.592
126.352
126.141
125.965
125.822
125.709
125.623
125.56
125.519
125.496
125.491
125.5
125.522
125.556
125.599
125.649
125.706
125.767
125.831
125.898
125.965
126.032
126.099
126.164
126.227
126.288
126.346
126.4
126.451
126.498
126.542
126.581
126.617
126.649
126.677
126.702
126.724
126.743
126.759
126.773
126.784
126.793
126.8
126.803
126.807
126.8
126.808
126.753
114.716
117.134
119.38
121.835
124.12
125.97
127.402
128.493
129.279
129.787
130.065
130.164
130.126
129.984
129.766
129.496
129.191
128.872
128.552
128.231
127.901
127.557
127.223
126.927
126.681
126.474
126.286
126.105
125.934
125.78
125.649
125.544
125.464
125.406
125.369
125.35
125.348
125.36
125.386
125.423
125.47
125.525
125.586
125.652
125.721
125.792
125.864
125.936
126.007
126.077
126.145
126.21
126.272
126.33
126.385
126.437
126.484
126.527
126.567
126.602
126.633
126.661
126.686
126.708
126.727
126.743
126.756
126.768
126.777
126.782
126.788
126.783
126.792
126.739
112.539
114.703
116.756
118.929
120.993
122.78
124.277
125.514
126.504
127.257
127.801
128.168
128.391
128.498
128.511
128.451
128.334
128.173
127.982
127.77
127.544
127.3
127.029
126.728
126.421
126.144
125.921
125.753
125.626
125.522
125.432
125.353
125.288
125.238
125.206
125.191
125.193
125.209
125.239
125.281
125.332
125.392
125.458
125.528
125.602
125.678
125.755
125.832
125.908
125.982
126.055
126.125
126.191
126.254
126.314
126.369
126.421
126.468
126.511
126.55
126.585
126.616
126.645
126.67
126.691
126.71
126.726
126.74
126.751
126.759
126.767
126.764
126.775
126.723
110.111
112.074
113.964
115.919
117.795
119.493
120.999
122.319
123.45
124.392
125.154
125.754
126.213
126.55
126.785
126.936
127.017
127.043
127.021
126.96
126.864
126.738
126.587
126.413
126.216
125.994
125.759
125.536
125.351
125.217
125.132
125.081
125.049
125.03
125.019
125.017
125.026
125.047
125.081
125.127
125.183
125.247
125.318
125.394
125.473
125.555
125.637
125.718
125.8
125.879
125.957
126.032
126.103
126.171
126.236
126.296
126.352
126.403
126.45
126.493
126.532
126.567
126.599
126.628
126.652
126.675
126.693
126.71
126.723
126.733
126.743
126.743
126.756
126.707
107.7
109.48
111.213
112.976
114.683
116.278
117.75
119.095
120.304
121.37
122.294
123.081
123.74
124.283
124.722
125.068
125.336
125.537
125.68
125.774
125.825
125.838
125.816
125.764
125.688
125.594
125.484
125.361
125.227
125.091
124.966
124.868
124.805
124.777
124.776
124.793
124.822
124.859
124.905
124.958
125.02
125.089
125.166
125.247
125.332
125.419
125.507
125.594
125.681
125.766
125.849
125.929
126.006
126.08
126.149
126.214
126.275
126.331
126.383
126.431
126.474
126.513
126.549
126.581
126.61
126.635
126.657
126.676
126.693
126.705
126.718
126.72
126.736
126.691
105.74
107.333
108.9
110.477
112.019
113.494
114.891
116.206
117.426
118.545
119.558
120.463
121.263
121.961
122.563
123.075
123.507
123.865
124.159
124.395
124.581
124.722
124.824
124.891
124.928
124.939
124.928
124.902
124.865
124.82
124.769
124.717
124.667
124.625
124.6
124.598
124.618
124.657
124.711
124.776
124.847
124.925
125.007
125.094
125.184
125.276
125.369
125.462
125.554
125.645
125.733
125.819
125.902
125.981
126.056
126.126
126.192
126.254
126.311
126.363
126.411
126.454
126.494
126.531
126.563
126.592
126.618
126.64
126.66
126.675
126.69
126.696
126.714
126.673
104.446
105.846
107.236
108.632
110.008
111.347
112.641
113.883
115.064
116.175
117.211
118.168
119.042
119.834
120.544
121.176
121.732
122.217
122.636
122.995
123.299
123.552
123.761
123.93
124.064
124.168
124.246
124.302
124.342
124.37
124.39
124.406
124.42
124.432
124.443
124.457
124.475
124.504
124.546
124.604
124.675
124.756
124.845
124.939
125.035
125.132
125.231
125.329
125.426
125.521
125.614
125.705
125.793
125.877
125.958
126.034
126.105
126.172
126.234
126.291
126.344
126.392
126.436
126.477
126.513
126.546
126.575
126.601
126.624
126.643
126.66
126.67
126.69
126.656
103.798
105.004
106.212
107.426
108.635
109.828
110.998
112.139
113.243
114.303
115.313
116.267
117.161
117.992
118.759
119.461
120.097
120.671
121.184
121.638
122.038
122.387
122.689
122.949
123.169
123.356
123.514
123.646
123.757
123.851
123.932
124.004
124.07
124.131
124.191
124.249
124.305
124.36
124.415
124.472
124.536
124.609
124.693
124.785
124.884
124.987
125.091
125.195
125.297
125.397
125.494
125.589
125.681
125.77
125.856
125.937
126.014
126.086
126.153
126.216
126.273
126.326
126.375
126.42
126.461
126.498
126.531
126.56
126.586
126.608
126.629
126.642
126.665
126.638
103.708
104.725
105.753
106.791
107.834
108.875
109.91
110.931
111.934
112.912
113.86
114.773
115.645
116.472
117.252
117.981
118.659
119.284
119.857
120.379
120.85
121.273
121.651
121.986
122.281
122.54
122.767
122.966
123.139
123.293
123.43
123.553
123.667
123.772
123.873
123.969
124.063
124.153
124.241
124.325
124.407
124.488
124.57
124.656
124.749
124.848
124.953
125.06
125.167
125.272
125.374
125.473
125.568
125.661
125.751
125.837
125.919
125.996
126.069
126.136
126.199
126.257
126.311
126.36
126.405
126.446
126.483
126.516
126.546
126.572
126.595
126.613
126.638
126.621
104.059
104.902
105.759
106.631
107.515
108.407
109.302
110.196
111.085
111.964
112.828
113.672
114.491
115.282
116.041
116.764
117.448
118.092
118.695
119.254
119.771
120.245
120.678
121.07
121.425
121.745
122.031
122.287
122.516
122.722
122.908
123.078
123.234
123.38
123.517
123.648
123.774
123.895
124.012
124.125
124.234
124.338
124.439
124.538
124.635
124.733
124.833
124.936
125.042
125.149
125.254
125.357
125.456
125.552
125.645
125.735
125.821
125.903
125.981
126.054
126.122
126.185
126.243
126.297
126.347
126.392
126.433
126.47
126.503
126.533
126.559
126.582
126.608
126.604
104.736
105.423
106.126
106.847
107.584
108.335
109.095
109.863
110.634
111.405
112.172
112.932
113.68
114.412
115.125
115.815
116.48
117.115
117.72
118.291
118.828
119.331
119.798
120.23
120.627
120.992
121.325
121.629
121.906
122.158
122.388
122.599
122.794
122.975
123.145
123.306
123.46
123.608
123.751
123.888
124.02
124.147
124.27
124.389
124.503
124.615
124.723
124.829
124.934
125.038
125.142
125.244
125.345
125.444
125.54
125.632
125.722
125.807
125.89
125.967
126.041
126.109
126.172
126.231
126.285
126.335