/*--------------------------------*- C++ -*----------------------------------*\
| =========                 |                                                 |
| \\      /  F ield         | OpenFOAM: The Open Source CFD Toolbox           |
|  \\    /   O peration     | Version:  5.x                                   |
|   \\  /    A nd           | Web:      www.OpenFOAM.org                      |
|    \\/     M anipulation  |                                                 |
\*---------------------------------------------------------------------------*/
FoamFile
{
    version     2.0;
    format      ascii;
    class       surfaceScalarField;
    location    "100";
    object      phi;
}
// * * * * * * * * * * * * * * * * * * * * * * * * * * * * * * * * * * * * * //

dimensions      [0 3 -1 0 0 0 0];

internalField   nonuniform List<scalar> 
21876
(
0.0200454
-0.00345705
-0.0165811
0.0269313
-0.00688594
0.0276067
-0.000675318
0.0285662
-0.000959623
0.0281046
0.000461662
0.026812
0.00129248
0.0251628
0.00164925
0.0233812
0.00178152
0.0215621
0.00181921
0.0195565
0.00200555
0.017163
0.0023936
0.0153463
0.00181674
0.0143478
0.000998588
0.0137566
0.000591175
0.0130552
0.00070133
0.0123394
0.000715849
0.0115985
0.000740852
0.010846
0.000752556
0.0100893
0.000756687
0.00932603
0.000763405
0.00855052
0.000775546
0.00793268
0.000617947
0.00731048
0.000622252
0.00668228
0.000628284
0.00604262
0.000639695
0.00538792
0.000654779
0.00471413
0.000673805
0.00402262
0.00069157
0.00331697
0.000705667
0.00258742
0.0007296
0.00182882
0.000758656
0.0010732
0.000755683
0.000365428
0.000707865
-0.000260146
0.000625686
-0.000796749
0.000536731
-0.00129226
0.000495669
-0.00193272
0.000640598
-0.00278323
0.000850669
-0.00365015
0.000867002
-0.00280488
-0.000845191
-0.006925
0.00412013
0.0241987
-0.00836006
-0.0192947
0.0299601
-0.0126471
0.0320155
-0.0027306
0.0335697
-0.00251369
0.0343202
-0.000288645
0.0344274
0.0011854
0.0339641
0.00211271
0.0329837
0.00276199
0.03159
0.00321295
0.0297769
0.00381875
0.0273856
0.00478509
0.0250158
0.00418664
0.0230568
0.00295767
0.0214729
0.00217511
0.0200253
0.00214896
0.0187434
0.00199781
0.0175577
0.00192653
0.0164228
0.00188749
0.0153164
0.0018631
0.0142234
0.00185656
0.0131262
0.00187279
0.0122563
0.00148795
0.0114032
0.0014754
0.0105543
0.00147719
0.00969886
0.00149516
0.0088284
0.00152528
0.00793412
0.00156806
0.00700732
0.00161838
0.00603951
0.00167345
0.00503542
0.00173368
0.00400711
0.00178698
0.00296118
0.00180162
0.00192
0.0017491
0.000931145
0.0016146
4.10845e-05
0.00142691
-0.000806051
0.00134293
-0.00171989
0.00155461
-0.00250144
0.00163242
-0.00280068
0.00116641
-0.00211637
-0.00152931
-0.0113603
0.00231897
0.0284346
-0.0139299
-0.0228654
0.0336814
-0.0178943
0.0371124
-0.00616171
0.0392196
-0.00462096
0.0403582
-0.00142717
0.0406681
0.000875414
0.0403827
0.00239814
0.0396519
0.00349282
0.0385506
0.00431425
0.0370602
0.0053091
0.0350399
0.00680546
0.032873
0.0063535
0.0308903
0.00494042
0.0290794
0.00398605
0.0272836
0.00394472
0.0255944
0.00368699
0.0240073
0.00351358
0.0224948
0.0034
0.0210352
0.00332267
0.0196082
0.00328364
0.0181857
0.00329533
0.0170606
0.00261311
0.0159651
0.00257094
0.0148829
0.0025594
0.0137999
0.00257813
0.0127047
0.00262051
0.0115856
0.0026872
0.0104317
0.00277236
0.00923351
0.00287161
0.00798895
0.00297826
0.00670216
0.00307379
0.0053811
0.0031227
0.00404717
0.00308305
0.00274077
0.00292102
0.00151457
0.00265313
0.000380356
0.00247719
-0.000694618
0.00262962
-0.00154864
0.0024865
-0.0019008
0.00151859
-0.00176034
-0.00166975
-0.0134229
0.000302253
0.0331503
-0.0200717
-0.0270086
0.0383866
-0.0231308
0.0425601
-0.0103353
0.0452502
-0.00731104
0.0468871
-0.003064
0.047597
0.0001656
0.0475518
0.00244344
0.0469306
0.00411412
0.0458802
0.00536465
0.0444499
0.00673958
0.0425575
0.00869787
0.0404988
0.00841232
0.0386075
0.00683188
0.0368658
0.00572777
0.035076
0.00573453
0.0332742
0.00548889
0.0314902
0.00529763
0.0297241
0.00516612
0.0279754
0.0050714
0.0262397
0.00501945
0.0244972
0.00503787
0.0231101
0.00400023
0.0217565
0.00392461
0.0204193
0.00389658
0.0190835
0.00391401
0.0177359
0.00396812
0.0163629
0.00406016
0.0149518
0.00418346
0.0134915
0.00433186
0.0119754
0.00449438
0.0104015
0.00464761
0.00877385
0.0047504
0.00710798
0.00474894
0.0054348
0.00459426
0.00380773
0.00428028
0.00230617
0.00397885
0.000972002
0.00396393
-0.000122355
0.00358103
-0.000725136
0.00212154
-0.00118348
-0.00121123
-0.0133571
-0.00124916
0.0383711
-0.0267879
-0.0316556
0.0438532
-0.0286131
0.0486477
-0.01513
0.0521368
-0.0108001
0.0544871
-0.00541425
0.0558043
-0.00115152
0.0561969
0.00205093
0.0558218
0.00448925
0.0548523
0.00633422
0.0533905
0.00820137
0.0514313
0.0106571
0.0492449
0.0105987
0.0472087
0.00886819
0.0453748
0.00756168
0.0435629
0.00754635
0.0417369
0.00731492
0.0399051
0.00712942
0.03805
0.00702123
0.0361601
0.0069613
0.0342334
0.00694619
0.0322594
0.00701188
0.0306587
0.005601
0.0290781
0.0055052
0.0275044
0.00547034
0.0259238
0.00549458
0.0243239
0.00556804
0.0226907
0.00569335
0.0210106
0.00586359
0.0192711
0.00607134
0.0174627
0.00630284
0.0155791
0.00653125
0.0136184
0.0067111
0.0115881
0.00677921
0.00950634
0.00667607
0.00741446
0.00637217
0.00543798
0.00595537
0.00370128
0.00570066
0.00220823
0.00507412
0.00114431
0.0031855
3.54445e-05
-0.000102331
-0.0114263
-0.00189528
0.0441645
-0.0341478
-0.0368047
0.0501054
-0.0345542
0.055516
-0.0205407
0.0598202
-0.0151044
0.0629651
-0.0085592
0.0650206
-0.00320698
0.0660419
0.00102976
0.0661397
0.00439148
0.065464
0.00700995
0.0641369
0.00952856
0.062198
0.0125961
0.0598777
0.0129191
0.0575817
0.0111642
0.0554698
0.00967367
0.0534501
0.00956612
0.0514661
0.00929899
0.0495185
0.0090771
0.0475797
0.00896008
0.0456134
0.00892759
0.0435963
0.00896343
0.0415069
0.00910135
0.0397844
0.00732356
0.038061
0.00722856
0.0363251
0.00720632
0.0345639
0.00725578
0.0327655
0.00736642
0.0309164
0.00754247
0.0290026
0.00777737
0.0270108
0.00806312
0.0249292
0.00838441
0.0227481
0.00871238
0.0204601
0.0089991
0.018064
0.00917541
0.0155635
0.00917657
0.0129784
0.00895733
0.0104437
0.00849022
0.00814663
0.00799779
0.00608421
0.00713665
0.00431505
0.00495478
0.00249037
0.00172249
-0.00802126
-0.000914596
0.0506144
-0.0422922
-0.0424704
0.0572245
-0.0411645
0.0633192
-0.0266357
0.0684396
-0.0202248
0.0724371
-0.0125567
0.075322
-0.00609182
0.0771073
-0.000755413
0.0778596
0.00363925
0.0776866
0.007183
0.0767107
0.0105046
0.0749928
0.014314
0.0727019
0.0152101
0.0702238
0.0136424
0.0678064
0.0120911
0.0654761
0.0118964
0.0631995
0.0115756
0.0609881
0.0112886
0.0588345
0.0111137
0.0567045
0.0110576
0.0545637
0.0111043
0.0523776
0.0112874
0.0505807
0.00912054
0.0487855
0.0090238
0.0469735
0.00901834
0.0451269
0.00910236
0.0432298
0.00926349
0.0412657
0.00950663
0.0392177
0.00982538
0.0370694
0.0102114
0.0348051
0.0106487
0.0324101
0.0111074
0.0298703
0.0115389
0.0271749
0.0118708
0.0243135
0.012038
0.0212807
0.0119902
0.018186
0.011585
0.0152263
0.0109575
0.0124307
0.00993229
0.00976353
0.00762204
0.00706092
0.00442514
-0.00347148
0.00251118
0.057819
-0.0514312
-0.0486802
0.065321
-0.0486666
0.072227
-0.0335419
0.0781955
-0.0261935
0.0830791
-0.0174402
0.0868511
-0.00986381
0.0895015
-0.00340575
0.0910527
0.00208813
0.0915685
0.00666723
0.0911559
0.0109172
0.0898834
0.0155866
0.0878535
0.01724
0.0853882
0.0161077
0.0827784
0.014701
0.0801655
0.0145093
0.0775685
0.0141726
0.0750169
0.0138403
0.0725338
0.0135968
0.0701092
0.0134822
0.0677207
0.0134929
0.0653386
0.0136696
0.0634136
0.0110456
0.0615262
0.0109112
0.0596515
0.0108932
0.0577647
0.0109891
0.0558434
0.0111848
0.0538648
0.0114852
0.051806
0.0118842
0.0496438
0.0123736
0.0473546
0.0129379
0.0449143
0.0135478
0.0422974
0.0141557
0.0394791
0.0146892
0.0364312
0.0150859
0.0331218
0.0152995
0.0296141
0.0150927
0.0260521
0.0145196
0.0224764
0.0135081
0.0188155
0.0112829
0.0150344
0.00820632
0.0020271
0.00953587
0.0658968
-0.0618415
-0.0554867
0.0745422
-0.0573122
0.0824383
-0.0414381
0.0893385
-0.0330938
0.0951468
-0.0232485
0.0998413
-0.0145584
0.103414
-0.00697833
0.105861
-0.000358527
0.107212
0.00531592
0.107552
0.0105775
0.106943
0.0161955
0.105422
0.0187605
0.103224
0.0183058
0.100633
0.0172921
0.0978752
0.0172672
0.0950375
0.0170103
0.0921767
0.0167012
0.0893443
0.0164293
0.0865613
0.0162653
0.0838276
0.0162266
0.0811321
0.0163652
0.0789764
0.0132013
0.076903
0.0129846
0.0748889
0.0129073
0.07291
0.0129681
0.070943
0.0131518
0.0689639
0.0134644
0.0669472
0.0139009
0.064866
0.0144549
0.0626905
0.0151134
0.0603874
0.0158509
0.0579185
0.0166247
0.0552404
0.0173673
0.052302
0.0180244
0.0490399
0.0185616
0.0454599
0.0186728
0.0416128
0.0183667
0.0374879
0.0176331
0.0329911
0.0157797
0.0280998
0.0130977
0.00830476
0.0218222
0.0749944
-0.0738656
-0.0629704
0.0850783
-0.0673962
0.0941931
-0.050553
0.102167
-0.0410673
0.108972
-0.0300541
0.114626
-0.0202127
0.119146
-0.0114984
0.12254
-0.00375252
0.124815
0.00304155
0.126044
0.00934868
0.12628
0.0159594
0.1255
0.0195406
0.12384
0.0199653
0.121541
0.0195915
0.118863
0.0199447
0.115956
0.019918
0.112911
0.0197458
0.109809
0.0195312
0.106702
0.0193723
0.103616
0.0193128
0.100561
0.0194196
0.0981081
0.0156547
0.0957657
0.0153271
0.0935193
0.0151537
0.0913522
0.0151352
0.0892477
0.0152564
0.0871882
0.0155238
0.0851548
0.0159343
0.0831261
0.0164836
0.0810768
0.0171626
0.0789757
0.017952
0.0767824
0.018818
0.0744456
0.0197041
0.0718974
0.0205726
0.0690474
0.0214117
0.0658446
0.0218755
0.0622414
0.02197
0.0581301
0.0217444
0.0533618
0.020548
0.047835
0.0186245
0.0150843
0.0410554
0.0852959
-0.0879179
-0.0712436
0.0971699
-0.0792701
0.107787
-0.0611701
0.117037
-0.0503174
0.124965
-0.0379824
0.131645
-0.0268924
0.13714
-0.0169936
0.141499
-0.00811079
0.144726
-0.00018627
0.146911
0.00716442
0.148103
0.0147666
0.148236
0.0194076
0.147357
0.0208447
0.145637
0.021311
0.143323
0.0222588
0.140592
0.0226498
0.137571
0.0227668
0.134367
0.022735
0.131063
0.0226761
0.127713
0.0226628
0.124353
0.0227801
0.121609
0.0183982
0.118982
0.0179542
0.116466
0.0176694
0.114054
0.0175471
0.111738
0.0175724
0.10951
0.0177524
0.10736
0.0180842
0.105279
0.0185648
0.103253
0.019188
0.101266
0.0199395
0.0992895
0.0207945
0.0972842
0.0217095
0.0951884
0.0226684
0.0929094
0.0236907
0.0903676
0.0244173
0.0874519
0.0248857
0.0839765
0.0252198
0.0797255
0.024799
0.0745007
0.0238492
0.0216451
0.0679399
0.0970339
-0.104496
-0.0804558
0.11112
-0.0933564
0.123588
-0.0736379
0.134384
-0.0611132
0.143624
-0.0472219
0.151444
-0.0347127
0.15797
-0.0235193
0.163303
-0.0134437
0.167487
-0.00437001
0.170631
0.00402017
0.172812
0.0125863
0.173943
0.0182769
0.174005
0.0207822
0.173107
0.0222094
0.171441
0.0239242
0.169173
0.0249178
0.166445
0.0254947
0.163382
0.0257982
0.16009
0.0259681
0.156651
0.0261018
0.153128
0.0263035
0.150176
0.0213497
0.147325
0.020806
0.144579
0.0204148
0.141942
0.0201842
0.139414
0.0201009
0.136993
0.0201727
0.134681
0.0203969
0.132475
0.0207709
0.130373
0.0212892
0.128372
0.0219406
0.126461
0.0227057
0.12462
0.0235508
0.122809
0.0244794
0.120958
0.0255417
0.118999
0.0263761
0.116815
0.0270695
0.114212
0.0278235
0.110953
0.0280572
0.106817
0.0279857
0.0270899
0.101372
0.110502
-0.124197
-0.0908007
0.12731
-0.110164
0.142054
-0.0883824
0.154739
-0.0737977
0.165549
-0.0580322
0.17469
-0.0438531
0.182353
-0.0311821
0.188704
-0.0197953
0.193846
-0.00951132
0.197924
-5.802e-05
0.201061
0.00944957
0.203185
0.0161532
0.204247
0.0197198
0.204312
0.0221449
0.203514
0.0247219
0.201976
0.0264556
0.199827
0.0276438
0.19719
0.0284351
0.194181
0.028977
0.1909
0.0293827
0.187434
0.0297695
0.18442
0.0243636
0.181468
0.0237589
0.178598
0.0232844
0.175825
0.0229569
0.173158
0.0227679
0.170603
0.0227279
0.168165
0.0228348
0.165849
0.0230868
0.163659
0.0234794
0.161597
0.0240029
0.159661
0.0246415
0.157844
0.0253675
0.156125
0.0261991
0.154455
0.0272112
0.152797
0.0280345
0.151062
0.028804
0.149102
0.0297846
0.146728
0.0304309
0.143778
0.0309358
0.0310563
0.139811
0.126067
-0.14774
-0.102524
0.146213
-0.13031
0.163754
-0.105923
0.178753
-0.0887973
0.191472
-0.0707502
0.202183
-0.0545647
0.211153
-0.0401519
0.218619
-0.0272614
0.224749
-0.0156407
0.229748
-0.00505661
0.233787
0.00540998
0.236842
0.0130986
0.238871
0.0176914
0.239924
0.021091
0.240099
0.0245473
0.239471
0.0270836
0.238136
0.0289787
0.236197
0.0303741
0.23376
0.0314143
0.230926
0.0322163
0.227795
0.0329012
0.224916
0.0272419
0.222038
0.0266377
0.219199
0.0261228
0.21643
0.0257257
0.213751
0.0254469
0.211177
0.0253027
0.208717
0.0252947
0.20638
0.0254231
0.204174
0.0256853
0.202103
0.0260739
0.200168
0.0265767
0.198365
0.0271705
0.196678
0.0278859
0.195072
0.0288172
0.193528
0.0295787
0.191988
0.0303439
0.19035
0.0314229
0.1885
0.0322805
0.186355
0.0330811
0.033809
0.183603
0.144189
-0.175994
-0.115935
0.168419
-0.154539
0.189388
-0.126892
0.207229
-0.106638
0.22228
-0.0858013
0.234894
-0.0671791
0.245415
-0.0506729
0.254158
-0.0360039
0.261364
-0.022847
0.267306
-0.0109984
0.272213
0.000503468
0.276124
0.00918743
0.279035
0.0147805
0.281016
0.0191104
0.282151
0.0234122
0.28249
0.0267448
0.282098
0.029371
0.281048
0.0314233
0.279424
0.0330383
0.277312
0.0343284
0.274805
0.0354087
0.272288
0.0297585
0.269694
0.0292319
0.26708
0.0287368
0.264491
0.0283149
0.26196
0.0279774
0.259514
0.027749
0.257171
0.0276381
0.254944
0.0276496
0.252844
0.0277854
0.250877
0.0280416
0.249044
0.0284096
0.247343
0.0288712
0.245761
0.0294681
0.244266
0.0303122
0.242849
0.0309954
0.241471
0.0317223
0.240057
0.0328367
0.23855
0.0337871
0.236914
0.0347172
0.0357394
0.234984
0.165434
-0.210015
-0.131413
0.194652
-0.183757
0.219821
-0.152061
0.241147
-0.127964
0.259061
-0.103714
0.274001
-0.0821195
0.286399
-0.0630711
0.296655
-0.0462597
0.305094
-0.0312858
0.312058
-0.0179624
0.317846
-0.00528428
0.322568
0.00446577
0.326277
0.0110714
0.329083
0.0163036
0.33109
0.0214057
0.332346
0.0254894
0.332903
0.0288136
0.332816
0.0315103
0.332143
0.0337111
0.330949
0.0355226
0.329307
0.0370507
0.327364
0.0317019
0.325266
0.0313301
0.323082
0.0309208
0.320868
0.0305287
0.318669
0.0301761
0.316521
0.0298969
0.314452
0.0297071
0.312483
0.0296187
0.310629
0.0296393
0.308901
0.0297705
0.307301
0.0300088
0.305832
0.0303407
0.304482
0.0308183
0.303225
0.0315686
0.302061
0.0321598
0.300962
0.0328216
0.299871
0.0339274
0.298763
0.0348955
0.29762
0.03586
0.0370001
0.296359
0.190474
-0.251079
-0.149411
0.225785
-0.219068
0.256096
-0.182372
0.281699
-0.153567
0.303129
-0.125144
0.320928
-0.0999183
0.335626
-0.0777689
0.347718
-0.0583521
0.357624
-0.0411913
0.365763
-0.0261013
0.372509
-0.0120302
0.378049
-0.00107408
0.382507
0.00661273
0.386049
0.0127618
0.388814
0.0186406
0.390876
0.0234273
0.392299
0.0273914
0.393133
0.0306761
0.393427
0.033417
0.393229
0.035721
0.392591
0.0376882
0.391369
0.0329244
0.389933
0.0327655
0.388357
0.0324972
0.3867
0.0321849
0.385015
0.0318616
0.383342
0.0315695
0.381717
0.0313325
0.380166
0.0311695
0.378711
0.0310944
0.377367
0.0311147
0.376143
0.0312323
0.375045
0.0314386
0.374069
0.0317951
0.373195
0.0324423
0.37243
0.0329247
0.371758
0.0334933
0.371139
0.0345471
0.370563
0.0354716
0.370023
0.0363999
0.0375534
0.36947
0.199813
-0.29607
-0.154823
0.238536
-0.25779
0.271693
-0.215529
0.29964
-0.181514
0.322971
-0.148476
0.342287
-0.119234
0.358174
-0.0936562
0.371182
-0.0713601
0.381786
-0.0517953
0.390447
-0.0347625
0.397578
-0.0191605
0.403422
-0.0069185
0.408159
0.00187561
0.411996
0.0089258
0.415103
0.0155328
0.417587
0.0209435
0.419531
0.0254481
0.420997
0.0292101
0.422035
0.0323788
0.422687
0.0350687
0.422993
0.037382
0.422549
0.0333685
0.421886
0.0334289
0.421067
0.0333163
0.420147
0.0331044
0.419175
0.0328345
0.418188
0.0325558
0.417222
0.0322988
0.416303
0.0320881
0.415454
0.0319432
0.414693
0.0318764
0.414031
0.0318939
0.413479
0.0319911
0.413037
0.0322367
0.412698
0.0327814
0.412472
0.0331511
0.412353
0.0336123
0.412315
0.0345844
0.412361
0.0354257
0.41249
0.0362712
0.0373711
0.412672
0.206748
-0.344413
-0.158405
0.248382
-0.299424
0.283968
-0.251115
0.313917
-0.211462
0.338873
-0.173432
0.359484
-0.139846
0.376385
-0.110557
0.390168
-0.0851434
0.401356
-0.0629827
0.410441
-0.0438478
0.417866
-0.0265856
0.423922
-0.0129743
0.42883
-0.00303219
0.432826
0.00492928
0.436112
0.0122475
0.438818
0.0182373
0.441051
0.0232149
0.442891
0.02737
0.444399
0.0308709
0.445621
0.0338464
0.446596
0.0364069
0.446736
0.0332285
0.446675
0.0334903
0.446467
0.0335239
0.446161
0.0334103
0.445799
0.0331975
0.445414
0.0329404
0.445038
0.0326748
0.444696
0.0324302
0.444409
0.0322306
0.444193
0.0320921
0.444062
0.0320245
0.444027
0.032026
0.444093
0.0321707
0.444258
0.0326167
0.444534
0.0328754
0.444921
0.033225
0.445406
0.0340997
0.445994
0.0348374
0.446689
0.0355758
0.0365843
0.447476
0.215252
-0.396424
-0.163242
0.260064
-0.344235
0.29832
-0.289371
0.330482
-0.243624
0.357248
-0.200198
0.379316
-0.161914
0.39737
-0.128611
0.412049
-0.0998224
0.423921
-0.0748544
0.433514
-0.0534406
0.4413
-0.0343722
0.447612
-0.0192861
0.45271
-0.00812997
0.456857
0.000782492
0.460279
0.00882513
0.463135
0.0153816
0.465552
0.0207979
0.467628
0.0252931
0.469441
0.0290588
0.471045
0.0322419
0.472486
0.0349662
0.473043
0.0326712
0.473424
0.0331094
0.473677
0.0332706
0.473845
0.0332422
0.473965
0.0330783
0.474066
0.0328387
0.474177
0.032564
0.47432
0.0322877
0.474513
0.0320377
0.474771
0.0318333
0.475109
0.031687
0.475536
0.0315994
0.476058
0.0316483
0.476677
0.0319973
0.477405
0.0321476
0.478245
0.0323854
0.479189
0.0331555
0.480245
0.0337811
0.481419
0.0344025
0.0353017
0.482701
0.225205
-0.452431
-0.169197
0.273478
-0.392508
0.314654
-0.330547
0.349246
-0.278217
0.378009
-0.22896
0.401695
-0.1856
0.421041
-0.147956
0.436733
-0.115515
0.449389
-0.0875098
0.459573
-0.0636246
0.467791
-0.0425905
0.474413
-0.0259082
0.479736
-0.0134526
0.484048
-0.00352986
0.487601
0.00527247
0.490576
0.0124065
0.493123
0.0182512
0.495358
0.0230574
0.497374
0.027043
0.49924
0.0303762
0.501009
0.033197
0.501865
0.0318149
0.502571
0.0324037
0.503171
0.0326702
0.503705
0.0327083
0.504205
0.0325782
0.5047
0.0323446
0.505211
0.0320521
0.505761
0.0317383
0.506364
0.0314342
0.507036
0.0311619
0.507786
0.0309364
0.508626
0.03076
0.50956
0.0307135
0.510594
0.030964
0.511735
0.0310065
0.512988
0.0311325
0.514349
0.0317939
0.515826
0.0323042
0.517423
0.0328057
0.0335885
0.519136
0.236552
-0.512789
-0.176194
0.288589
-0.444545
0.33295
-0.374909
0.370202
-0.315469
0.401157
-0.259916
0.426628
-0.211071
0.447405
-0.168733
0.464231
-0.132341
0.477771
-0.101049
0.48863
-0.0744842
0.497351
-0.0513115
0.504341
-0.0328976
0.50993
-0.0190419
0.514435
-0.00803447
0.518128
0.0015788
0.521217
0.00931799
0.52387
0.0155985
0.526222
0.0207051
0.528381
0.0248841
0.53043
0.0283269
0.532435
0.0311926
0.533505
0.0307448
0.534448
0.0314606
0.535308
0.03181
0.536122
0.0318941
0.536921
0.0317796
0.53773
0.0315359
0.53857
0.0312121
0.539459
0.0308493
0.540411
0.0304816
0.54144
0.0301338
0.542553
0.0298228
0.54376
0.0295528
0.545067
0.0294066
0.546478
0.0295537
0.547998
0.0294862
0.549632
0.0294985
0.551379
0.0300467
0.553244
0.0304392
0.555231
0.0308193
0.0314823
0.557337
0.249278
-0.577874
-0.184193
0.305407
-0.500673
0.353239
-0.42274
0.393394
-0.355624
0.426749
-0.293271
0.45418
-0.238501
0.476537
-0.191091
0.49462
-0.150423
0.509147
-0.115576
0.520768
-0.0861054
0.530063
-0.0606072
0.537479
-0.0403133
0.54338
-0.0249432
0.54811
-0.0127636
0.551965
-0.00227616
0.555174
0.00610881
0.557926
0.0128461
0.560375
0.0182565
0.562642
0.0226164
0.564827
0.0261429
0.567004
0.0290154
0.568227
0.0295216
0.569343
0.0303448
0.570396
0.030757
0.571423
0.0308674
0.572453
0.0307495
0.57351
0.0304781
0.574616
0.0301067
0.575785
0.0296803
0.57703
0.0292359
0.578363
0.028801
0.579791
0.0283945
0.581322
0.0280222
0.58296
0.0277684
0.58471
0.0278041
0.586574
0.0276214
0.588557
0.0275156
0.59066
0.0279446
0.592883
0.0282154
0.595231
0.0284717
0.0290115
0.597702
0.263404
-0.648098
-0.19318
0.32398
-0.561249
0.375589
-0.474349
0.41891
-0.398945
0.454887
-0.329249
0.484464
-0.268078
0.508558
-0.215185
0.528028
-0.169893
0.54365
-0.131198
0.556123
-0.0985777
0.566068
-0.0705518
0.57397
-0.0482157
0.580231
-0.031204
0.58522
-0.0177529
0.589261
-0.00631738
0.592605
0.00276504
0.595461
0.00999077
0.597998
0.0157193
0.600355
0.0202592
0.602643
0.0238546
0.604951
0.0267074
0.606285
0.0281881
0.607526
0.0291038
0.608721
0.0295622
0.609907
0.0296813
0.611114
0.0295423
0.612367
0.0292257
0.613683
0.02879
0.61508
0.028284
0.616567
0.0277482
0.618156
0.0272125
0.619853
0.026698
0.621662
0.0262123
0.62359
0.0258407
0.62564
0.0257546
0.627812
0.025449
0.630109
0.0252186
0.632533
0.0255205
0.635084
0.0256642
0.637763
0.0257927
0.0262046
0.64057
0.278971
-0.723906
-0.203163
0.344379
-0.626657
0.400099
-0.530069
0.446869
-0.445715
0.485709
-0.368089
0.517634
-0.300003
0.543633
-0.241183
0.56463
-0.19089
0.581462
-0.148031
0.59488
-0.111996
0.605551
-0.0812233
0.614003
-0.0566678
0.620674
-0.0378741
0.625961
-0.0230404
0.630216
-0.0105724
0.633712
-0.000731127
0.636679
0.0070242
0.639304
0.0130946
0.64174
0.0178227
0.644113
0.0214817
0.646523
0.0242975
0.647935
0.0267758
0.649266
0.0277734
0.650563
0.0282649
0.651867
0.0283779
0.653207
0.0282018
0.654609
0.0278237
0.656091
0.0273075
0.657669
0.0267062
0.659354
0.0260637
0.661154
0.0254128
0.663075
0.0247769
0.665122
0.0241653
0.667298
0.0236642
0.669608
0.0234449
0.67205
0.0230072
0.674625
0.0226439
0.677336
0.0228097
0.680181
0.0228192
0.683159
0.0228142
0.0230925
0.686271
0.29604
-0.805782
-0.214164
0.366701
-0.697317
0.426894
-0.590262
0.477423
-0.496244
0.519386
-0.410052
0.553877
-0.334494
0.581961
-0.269267
0.604635
-0.213564
0.622801
-0.166197
0.637265
-0.12646
0.648746
-0.0927037
0.657814
-0.0657359
0.664945
-0.0450055
0.670571
-0.0286661
0.675069
-0.0150705
0.678738
-0.00439977
0.681827
0.00393524
0.684542
0.0103795
0.687052
0.0153123
0.689496
0.0190378
0.691986
0.0218074
0.693454
0.0253087
0.694845
0.0263822
0.696213
0.0268972
0.697598
0.026992
0.699035
0.0267653
0.700548
0.0263111
0.702156
0.0256991
0.703875
0.0249873
0.705715
0.0242233
0.707685
0.0234428
0.709791
0.0226716
0.712035
0.0219212
0.714421
0.0212783
0.716952
0.0209136
0.719625
0.0203336
0.722441
0.0198283
0.725403
0.0198481
0.728507
0.0197152
0.731751
0.0195701
0.0197078
0.735136
0.314689
-0.894255
-0.226216
0.391061
-0.773689
0.456123
-0.655323
0.510747
-0.550868
0.556117
-0.455422
0.593412
-0.371789
0.62378
-0.299635
0.648293
-0.238077
0.667926
-0.18583
0.683545
-0.142079
0.695923
-0.105081
0.705678
-0.0754906
0.713326
-0.0526534
0.719332
-0.0346721
0.724104
-0.0198427
0.727966
-0.00826211
0.73119
0.000711623
0.734
0.00756985
0.73658
0.0127315
0.739085
0.0165337
0.741637
0.0192553
0.743139
0.023807
0.744566
0.0249544
0.745977
0.0254866
0.747415
0.0255541
0.748915
0.0252655
0.750503
0.0247224
0.752201
0.0240012
0.754024
0.0231648
0.755982
0.022265
0.758084
0.021341
0.760334
0.020421
0.762737
0.0195188
0.765293
0.0187217
0.768008
0.0181991
0.770875
0.0174661
0.773895
0.016809
0.777071
0.0166722
0.780398
0.0163882
0.783872
0.0160954
0.016085
0.787495
0.335011
-0.989901
-0.239365
0.417597
-0.856275
0.487959
-0.725685
0.547046
-0.609955
0.596133
-0.504509
0.636492
-0.412148
0.669358
-0.332502
0.695889
-0.264608
0.717134
-0.207074
0.734026
-0.158971
0.747396
-0.118451
0.757913
-0.0860074
0.766136
-0.0608767
0.772567
-0.0411029
0.777646
-0.0249216
0.781724
-0.0123401
0.785095
-0.00265964
0.788004
0.00466108
0.790652
0.0100833
0.793206
0.0139796
0.795803
0.0166583
0.797321
0.0222892
0.798763
0.0235124
0.800191
0.0240592
0.801652
0.0240931
0.803184
0.0237336
0.804815
0.0230909
0.806568
0.0222483
0.808458
0.0212746
0.810497
0.0202259
0.812693
0.0191451
0.815051
0.0180633
0.817573
0.0169967
0.820262
0.0160329
0.823121
0.0153402
0.826144
0.0144433
0.829329
0.0136242
0.832681
0.0133203
0.836193
0.0128759
0.839861
0.0124271
0.0122606
0.843686
0.357115
-1.09335
-0.253663
0.446462
-0.945622
0.522599
-0.801822
0.586551
-0.673907
0.639695
-0.557653
0.683401
-0.455854
0.719003
-0.368103
0.747745
-0.29335
0.770761
-0.23009
0.789054
-0.177265
0.80352
-0.132916
0.81488
-0.097368
0.823742
-0.0697385
0.830646
-0.0480062
0.836066
-0.0303415
0.840382
-0.0166566
0.843914
-0.00619145
0.846926
0.0016492
0.849638
0.00737178
0.85223
0.011387
0.854854
0.0140349
0.856369
0.0207743
0.857802
0.022079
0.85922
0.022641
0.860676
0.0226378
0.862208
0.0222008
0.86385
0.0214498
0.865622
0.0204756
0.867544
0.0193532
0.869626
0.0181436
0.871878
0.0168936
0.874303
0.0156377
0.876905
0.0143945
0.879686
0.0132522
0.882649
0.0123772
0.885787
0.0113057
0.889097
0.0103144
0.892584
0.00983258
0.896242
0.00921848
0.900064
0.00860526
0.00827408
0.90405
0.381122
-1.2053
-0.269174
0.477834
-1.04233
0.560263
-0.88425
0.629522
-0.743166
0.687095
-0.615226
0.734461
-0.50322
0.773057
-0.406699
0.804224
-0.324517
0.829184
-0.25505
0.84902
-0.197101
0.864694
-0.14859
0.876988
-0.109662
0.886556
-0.0793072
0.893983
-0.0554328
0.89978
-0.0361385
0.904359
-0.0212351
0.908064
-0.00989623
0.911181
-0.00146858
0.913951
0.00460272
0.916568
0.00876961
0.919197
0.0114061
0.920688
0.0192829
0.922088
0.0206788
0.92347
0.0212598
0.924888
0.021219
0.926389
0.0207007
0.928004
0.0198346
0.929759
0.0187203
0.931673
0.0174393
0.933759
0.0160581
0.936024
0.0146278
0.938476
0.0131862
0.941115
0.011755
0.943945
0.0104228
0.946968
0.00935386
0.950177
0.00809718
0.953568
0.00692378
0.957147
0.00625339
0.960905
0.00546004
0.964837
0.00467381
0.00416946
0.968941
0.40717
-1.3265
-0.285968
0.511906
-1.14707
0.601197
-0.973541
0.676249
-0.818218
0.738662
-0.677639
0.790031
-0.554589
0.831905
-0.448573
0.865731
-0.358344
0.892828
-0.282147
0.914361
-0.218634
0.931367
-0.165596
0.944691
-0.122985
0.955041
-0.0896572
0.963045
-0.0634376
0.969258
-0.0423512
0.974123
-0.0260997
0.978013
-0.0137858
0.981237
-0.00469342
0.984055
0.00178473
0.98668
0.00614474
0.989289
0.0087973
0.990734
0.0178385
0.992073
0.0193395
0.993386
0.0199472
0.994733
0.0198712
0.996164
0.0192701
0.997714
0.0182847
0.999411
0.0170237
1.00127
0.0155759
1.00332
0.0140138
1.00555
0.012393
1.00798
0.0107553
1.01061
0.00912548
1.01344
0.00759258
1.01648
0.00631871
1.01971
0.00486679
1.02313
0.00350155
1.02675
0.00263226
1.03056
0.00165037
1.03455
0.000682611
-3.45008e-06
1.03873
0.435412
-1.45779
-0.304121
0.548898
-1.26056
0.645677
-1.07032
0.727055
-0.899595
0.794758
-0.745343
0.850508
-0.610338
0.895975
-0.494039
0.93272
-0.395089
0.962164
-0.311591
0.985565
-0.242034
1.00404
-0.18407
1.0185
-0.137445
1.02971
-0.10087
1.03835
-0.0720802
1.04502
-0.0490203
1.0502
-0.0312756
1.05428
-0.0178713
1.05762
-0.00802413
1.06047
-0.00107014
1.06308
0.00353424
1.06564
0.00623947
1.06701
0.016469
1.06825
0.0180935
1.06946
0.0187392
1.0707
0.0186338
1.07202
0.0179514
1.07346
0.0168448
1.07505
0.0154326
1.07681
0.0138116
1.07877
0.0120607
1.08092
0.0102408
1.08328
0.00839772
1.08584
0.00655964
1.08862
0.00481619
1.09161
0.00332704
1.09481
0.00167039
1.0982
0.000104101
1.10181
-0.000974036
1.10561
-0.00215343
1.10961
-0.00331101
-0.00418711
1.11379
0.466015
-1.60009
-0.32372
0.589051
-1.38359
0.694008
-1.17528
0.782299
-0.987886
0.85579
-0.818834
0.916338
-0.670885
0.965744
-0.543446
1.00569
-0.435038
1.03772
-0.343617
1.06318
-0.267491
1.08327
-0.204162
1.09898
-0.153159
1.11114
-0.113033
1.12049
-0.0814249
1.12766
-0.0561897
1.13317
-0.0367882
1.13746
-0.0221626
1.1409
-0.0114567
1.14377
-0.00394566
1.14634
0.000965658
1.14881
0.00377037
1.15007
0.0152073
1.15119
0.0169788
1.15225
0.0176781
1.15333
0.0175529
1.15449
0.0167938
1.15576
0.0155668
1.15719
0.0140012
1.1588
0.0122027
1.16061
0.0102571
1.16262
0.00823085
1.16484
0.00617433
1.16728
0.00411953
1.16994
0.0021567
1.17283
0.000442796
1.17592
-0.00142731
1.17923
-0.00320321
1.18276
-0.00449955
1.18649
-0.00588492
1.19042
-0.00724016
-0.00831426
1.19454
0.499166
-1.7544
-0.344859
0.632632
-1.51706
0.746526
-1.28917
0.84238
-1.08374
0.922208
-0.898662
0.988014
-0.736691
1.04174
-0.597175
1.08521
-0.478508
1.12008
-0.378481
1.1478
-0.295212
1.16968
-0.226038
1.18677
-0.170256
1.19999
-0.126246
1.2101
-0.0915423
1.21782
-0.0639062
1.2237
-0.0426641
1.2282
-0.0266683
1.23173
-0.0149839
1.2346
-0.0068203
1.2371
-0.00152665
1.23943
0.00143632
1.24054
0.0140932
1.24148
0.0160406
1.24235
0.016814
1.24322
0.0166826
1.24416
0.015855
1.24521
0.0145113
1.24642
0.0127929
1.24781
0.0108149
1.24939
0.00867063
1.25119
0.00643265
1.25321
0.00415628
1.25545
0.00187772
1.25792
-0.000312155
1.26062
-0.00225921
1.26355
-0.00435054
1.26669
-0.0063437
1.27005
-0.00786684
1.27364
-0.00946597
1.27742
-0.0110261
-0.0123056
1.28141
0.53507
-1.92183
-0.367638
0.679936
-1.66192
0.803605
-1.41284
0.907739
-1.18787
0.994511
-0.985434
1.06609
-0.808266
1.12456
-0.655652
1.1719
-0.525849
1.20989
-0.416472
1.24011
-0.325429
1.26396
-0.249883
1.28258
-0.18888
1.29695
-0.140615
1.30792
-0.102509
1.31623
-0.0722203
1.3225
-0.0489307
1.32722
-0.0313952
1.33083
-0.0185945
1.33368
-0.00966646
1.33605
-0.00390026
1.3382
-0.000706491
1.33912
0.013174
1.33982
0.0153326
1.34043
0.016206
1.34103
0.0160867
1.34168
0.0152027
1.34244
0.0137499
1.34335
0.0118824
1.34444
0.00972553
1.34573
0.00738095
1.34724
0.00492794
1.34897
0.0024272
1.35092
-8.05492e-05
1.35312
-0.00250361
1.35555
-0.00469087
1.35821
-0.00700995
1.36109
-0.00922691
1.36421
-0.0109845
1.36755
-0.0128042
1.3711
-0.0145756
-0.0160671
1.37486
0.573951
-2.10361
-0.392166
0.731289
-1.81926
0.865661
-1.54721
0.978866
-1.30108
1.07325
-1.07982
1.15116
-0.886174
1.21486
-0.719349
1.26646
-0.577451
1.3079
-0.457907
1.34087
-0.3584
1.36688
-0.275901
1.38719
-0.209188
1.40284
-0.15626
1.41474
-0.11441
1.42371
-0.0811863
1.43039
-0.0556157
1.43534
-0.036348
1.43902
-0.0222722
1.4418
-0.0124491
1.44401
-0.00610289
1.44589
-0.0025898
1.44656
0.0125066
1.44697
0.014919
1.44725
0.0159245
1.4475
0.0158409
1.44778
0.0149176
1.44817
0.0133671
1.44869
0.0113576
1.44939
0.00902576
1.45029
0.0064821
1.45141
0.00381326
1.45275
0.00108582
1.45432
-0.00165451
1.45613
-0.00431512
1.45819
-0.00674802
1.46048
-0.00929986
1.463
-0.0117458
1.46576
-0.0137442
1.46874
-0.0157902
1.47195
-0.0177782
-0.0194872
1.47537
0.616055
-2.30111