/*--------------------------------*- C++ -*----------------------------------*\
| =========                 |                                                 |
| \\      /  F ield         | OpenFOAM: The Open Source CFD Toolbox           |
|  \\    /   O peration     | Version:  5.x                                   |
|   \\  /    A nd           | Web:      www.OpenFOAM.org                      |
|    \\/     M anipulation  |                                                 |
\*---------------------------------------------------------------------------*/
FoamFile
{
    version     2.0;
    format      ascii;
    class       surfaceScalarField;
    location    "100";
    object      phi;
}
// * * * * * * * * * * * * * * * * * * * * * * * * * * * * * * * * * * * * * //

dimensions      [0 3 -1 0 0 0 0];

internalField   nonuniform List<scalar> 
21876
(
0.0328142
-0.00406528
-0.0287995
0.0422994
-0.00948566
0.0418858
0.000413251
0.0419506
-6.43115e-05
0.0396655
0.00228524
0.0363961
0.0032699
0.0329631
0.003433
0.0296603
0.00330314
0.0265178
0.00314241
0.023218
0.0033
0.0194172
0.00380048
0.0164328
0.00298451
0.0145655
0.00186668
0.0131907
0.00137502
0.0115528
0.00163824
0.00974022
0.00181269
0.007743
0.00199765
0.00559489
0.00214804
0.00329846
0.00229394
0.00106189
0.00222409
-0.000826594
0.00189375
-0.00202589
0.00119593
-0.00286909
0.000841136
-0.00339045
0.00051774
-0.00369143
0.000300901
-0.00385524
0.000161652
-0.00395043
9.62103e-05
-0.00403456
8.41714e-05
-0.00413447
0.000101503
-0.00426849
0.000134307
-0.00444773
0.0001807
-0.00468332
0.000236166
-0.00497353
0.000291537
-0.00529307
0.000320276
-0.00557574
0.000283733
-0.00567814
0.00010304
-0.00540313
-0.000274033
-0.00470425
-0.000698074
-0.00388241
-0.000820451
-0.00144111
-0.00244047
-0.00920381
0.00776341
0.0398133
-0.0104303
-0.0334541
0.0477127
-0.0173864
0.0495962
-0.00147139
0.0509485
-0.00141753
0.0514104
0.00182249
0.0506979
0.00398165
0.0489264
0.00520372
0.0462937
0.00593518
0.0430826
0.00635277
0.0393088
0.00707302
0.034781
0.00832741
0.0303932
0.00737151
0.0267068
0.00555202
0.0236102
0.0044706
0.0206881
0.00455937
0.0178525
0.0046473
0.014926
0.00492352
0.0117848
0.00528812
0.00841302
0.00566331
0.00488651
0.00574236
0.00148277
0.00529967
-0.000731335
0.00340797
-0.00228703
0.00239578
-0.00331875
0.00154577
-0.00397704
0.000959242
-0.00439831
0.000581232
-0.00470032
0.000399215
-0.00496135
0.000345151
-0.00521944
0.000361266
-0.00549803
0.000413313
-0.00580393
0.000488459
-0.00613394
0.000567184
-0.00646834
0.000627953
-0.00676862
0.000621825
-0.00697553
0.000492246
-0.00699847
0.000127374
-0.00664952
-0.000621479
-0.00567339
-0.0016729
-0.00388358
-0.00260918
-0.00086015
-0.0054629
-0.0161757
0.00611224
0.0465624
-0.0178119
-0.0391771
0.053414
-0.0242361
0.0574553
-0.00551195
0.0594104
-0.00337244
0.0601408
0.00109229
0.0598066
0.0043158
0.058658
0.00635239
0.0568189
0.00777433
0.0543728
0.00879878
0.0512556
0.0101902
0.0472419
0.012341
0.0429096
0.0117038
0.038785
0.00967639
0.0348713
0.00838451
0.0309631
0.00846777
0.0271202
0.00849018
0.0232395
0.00880437
0.0191805
0.00934706
0.0148435
0.00999961
0.0102011
0.0103836
0.00546746
0.0100345
0.002091
0.00678351
-0.000490708
0.00497741
-0.0023105
0.00336535
-0.00353772
0.00218675
-0.00436992
0.00141271
-0.00496941
0.000999145
-0.00544149
0.000817092
-0.00585258
0.000772894
-0.00624526
0.000806126
-0.00663942
0.000883091
-0.00704298
0.000970845
-0.00745024
0.0010355
-0.00783698
0.00100862
-0.00814855
0.000804077
-0.00827002
0.000248745
-0.00797812
-0.000913436
-0.00693929
-0.00271183
-0.00481509
-0.00473294
-0.00147727
-0.00880105
-0.0215542
0.00390126
0.0539798
-0.0260315
-0.0457598
0.0607119
-0.0309673
0.0658668
-0.0106664
0.0686247
-0.00613041
0.0698807
-0.000164057
0.0699075
0.0042884
0.0689344
0.00732491
0.0672276
0.00948059
0.0649841
0.0110416
0.0622207
0.012953
0.0587481
0.0158128
0.0548958
0.0155552
0.0510722
0.013499
0.0472123
0.0122435
0.0430629
0.012616
0.0386811
0.0128707
0.0340627
0.0134213
0.0291372
0.0142706
0.023816
0.015318
0.0180151
0.0161804
0.011825
0.0162237
0.00701311
0.0115947
0.00296224
0.009028
-9.56179e-05
0.00642262
-0.00224008
0.00433148
-0.00372122
0.00289382
-0.00477132
0.00204988
-0.00555738
0.00160358
-0.00619249
0.00140877
-0.00674752
0.00136168
-0.00726642
0.00140284
-0.00778052
0.00148576
-0.00830572
0.00156176
-0.00882993
0.0015338
-0.00929509
0.00127018
-0.00957
0.000524437
-0.0094174
-0.00106545
-0.00846067
-0.0036681
-0.00629032
-0.006903
-0.00283774
-0.0122532
-0.0258428
0.00145121
0.0621363
-0.0350376
-0.0531261
0.0691494
-0.0379786
0.0751962
-0.0167126
0.0791325
-0.0100667
0.0813482
-0.00237999
0.0821182
0.00351799
0.0815914
0.00785137
0.0800272
0.0110444
0.0777198
0.0133487
0.0748236
0.015849
0.0713162
0.0193199
0.067502
0.0193692
0.0637963
0.0172043
0.0601548
0.0158848
0.0562536
0.0165171
0.0519815
0.0171426
0.0472596
0.018143
0.0419746
0.0195553
0.0360143
0.0212778
0.0292552
0.0229396
0.0216731
0.023806
0.0152944
0.017973
0.00936431
0.0149579
0.0044238
0.0113636
0.000710499
0.00804479
-0.00190964
0.00551394
-0.00374095
0.00388131
-0.00506416
0.00292693
-0.00607455
0.00241932
-0.00689544
0.00218288
-0.00761035
0.00211795
-0.00828358
0.00215925
-0.00896185
0.00224019
-0.00965647
0.00222858
-0.0103194
0.0019333
-0.0108175
0.00102257
-0.0109118
-0.000971268
-0.0102134
-0.00436645
-0.00827869
-0.00883749
-0.00498836
-0.0155438
-0.0292905
-0.00154077
0.0711289
-0.044895
-0.0612711
0.078731
-0.0455797
0.0856215
-0.0236023
0.0907484
-0.015193
0.094106
-0.00573774
0.0958703
0.00175331
0.0961528
0.00756853
0.0951192
0.0120776
0.0930385
0.015429
0.0901124
0.0187747
0.0864289
0.0230029
0.0823156
0.0234819
0.0782784
0.021241
0.0744418
0.0197207
0.0705937
0.0203643
0.0665536
0.0211815
0.062158
0.0225371
0.0571727
0.0245386
0.0513302
0.0271179
0.044336
0.0299312
0.0359625
0.0321778
0.0283045
0.0256301
0.020425
0.0228369
0.013071
0.0187176
0.00693267
0.0141833
0.00228966
0.0101574
-0.00101489
0.0071865
-0.0033525
0.00526529
-0.00506083
0.00412839
-0.00636811
0.00349091
-0.00742877
0.00317931
-0.0083561
0.00308733
-0.00924143
0.00312623
-0.0101389
0.00312675
-0.0110377
0.00283265
-0.0118305
0.00181582
-0.0122992
-0.000502373
-0.0120776
-0.00458788
-0.0107115
-0.0102035
-0.00798546
-0.0182698
-0.0318979
-0.00537778
0.0810954
-0.0557664
-0.0702211
0.0895751
-0.054058
0.0973775
-0.0314036
0.10366
-0.0214756
0.108234
-0.0103111
0.111142
-0.00115571
0.112466
0.00624424
0.112291
0.0122523
0.110812
0.0169071
0.10822
0.0213663
0.104631
0.0265916
0.100327
0.0277853
0.0958469
0.0257203
0.091488
0.0240791
0.0872527
0.0245992
0.0830506
0.025383
0.0787813
0.0268057
0.0742355
0.0290836
0.0690693
0.0322833
0.0627868
0.0362135
0.0548231
0.0401414
0.0468749
0.0335779
0.0377884
0.0319231
0.0281811
0.0283251
0.0190354
0.0233291
0.0112628
0.0179302
0.0052845
0.013165
0.000957228
0.0095929
-0.00213997
0.00722589
-0.00441425
0.00576569
-0.00615289
0.00491834
-0.00755691
0.0044918
-0.00878659
0.00435622
-0.00996489
0.0043054
-0.0111528
0.00402081
-0.0123082
0.00297145
-0.0132784
0.00046782
-0.0137726
-0.00409355
-0.0133559
-0.0106199
-0.0117326
-0.019893
-0.0333956
-0.0102349
0.0921974
-0.0679282
-0.0800355
0.10185
-0.0637101
0.110716
-0.0402693
0.11816
-0.0289183
0.123974
-0.0161255
0.128124
-0.00530598
0.130633
0.00373464
0.131545
0.0113406
0.130974
0.0174775
0.129081
0.0232586
0.125978
0.0296945
0.121852
0.0319118
0.117179
0.0303928
0.112346
0.0289114
0.10755
0.0293951
0.102834
0.0300984
0.0982248
0.0314137
0.0936809
0.0336264
0.0890111
0.0369518
0.0837827
0.0414405
0.0772638
0.046659
0.0703868
0.0404542
0.0617576
0.0405518
0.0514108
0.0386718
0.0400095
0.0347304
0.0287179
0.0292219
0.0187518
0.0231314
0.0108181
0.017527
0.00492182
0.0131227
0.000638981
0.0100491
-0.0025108
0.00806878
-0.0049035
0.00688512
-0.00681938
0.0062727
-0.00849207
0.00597866
-0.0101006
0.00562981
-0.0117191
0.0045903
-0.0133189
0.00206783
-0.0147516
-0.00266052
-0.0156647
-0.00970675
-0.0157675
-0.0197901
-0.0332287
-0.0159342
0.10464
-0.0817459
-0.0908214
0.115796
-0.0748649
0.125949
-0.0504213
0.134629
-0.0375982
0.141702
-0.0231982
0.14713
-0.0107335
0.150897
-3.26712e-05
0.153038
0.00920041
0.153597
0.0169181
0.152702
0.0241534
0.150447
0.0319492
0.146916
0.0354424
0.142468
0.0348412
0.13749
0.033888
0.132306
0.0345787
0.127072
0.0353322
0.121908
0.0365764
0.116922
0.0386117
0.112146
0.0417273
0.107447
0.0461383
0.102327
0.0517794
0.097184
0.0455963
0.0905483
0.0471872
0.0817897
0.0474303
0.0707244
0.0457957
0.057847
0.0420994
0.044325
0.0366536
0.0316231
0.0302292
0.0208997
0.0238464
0.0125683
0.0183809
0.0063749
0.0142627
0.00180239
0.0114582
-0.0016321
0.00970774
-0.00434938
0.00869646
-0.00672167
0.00800261
-0.00902037
0.00688934
-0.0114285
0.00447627
-0.0140089
-7.9764e-05
-0.0165711
-0.0071443
-0.0189542
-0.0174067
-0.0306704
-0.0215123
0.118684
-0.097682
-0.102747
0.13173
-0.0879106
0.143459
-0.0621496
0.153534
-0.0476728
0.161923
-0.0315873
0.168639
-0.0174492
0.173694
-0.00508789
0.17712
0.00577511
0.178934
0.0151036
0.17924
0.0238475
0.178114
0.0330754
0.175544
0.0380117
0.171754
0.0386314
0.167076
0.0385652
0.161884
0.0397707
0.156413
0.0408026
0.150843
0.0421456
0.145356
0.0440994
0.140113
0.0469696
0.135238
0.0510131
0.130625
0.0563917
0.126679
0.0495418
0.122145
0.0517209
0.116211
0.0533647
0.108072
0.0539344
0.097237
0.0529344
0.0838162
0.0500746
0.0686642
0.045381
0.0532126
0.0392984
0.0389886
0.0326049
0.0270633
0.0261884
0.0177583
0.0207632
0.0107856
0.0166809
0.00556769
0.0139145
0.0014667
0.012104
-0.0020936
0.0104498
-0.00566381
0.00804687
-0.00964512
0.00390183
-0.0141162
-0.00267287
-0.0191322
-0.0123906
-0.0250942
-0.0247082
0.134655
-0.116297
-0.11604
0.150056
-0.103311
0.163724
-0.075818
0.175438
-0.0593868
0.185273
-0.0414223
0.193324
-0.0255004
0.199674
-0.0114388
0.20438
0.00106941
0.207479
0.0120047
0.209074
0.0222516
0.20924
0.0329099
0.207893
0.0393585
0.205127
0.0413972
0.201191
0.0425008
0.196441
0.0445205
0.191151
0.0460928
0.185542
0.047755
0.179829
0.0498122
0.174222
0.052576
0.16894
0.0562954
0.164125
0.0612058
0.160423
0.0532439
0.15691
0.0552333
0.153085
0.0571901
0.148209
0.0588104
0.141428
0.0597157
0.131988
0.059514
0.119528
0.057841
0.104324
0.0545025
0.0873382
0.0495905
0.0700141
0.0435121
0.0538633
0.0369142
0.0400277
0.0305163
0.0289755
0.024967
0.0204652
0.0206142
0.0138223
0.0170931
0.00802539
0.0138438
0.00207779
0.00984977
-0.00459904
0.004004
-0.0124358
-0.00455361
-0.0161086
-0.0214214
0.152966
-0.138264
-0.130999
0.17128
-0.121627
0.18734
-0.0918779
0.201027
-0.0730753
0.212525
-0.0529206
0.222023
-0.0349999
0.229694
-0.0191103
0.235668
-0.00490471
0.240019
0.00765243
0.242892
0.0193784
0.244384
0.0314174
0.244381
0.0393616
0.242879
0.0428996
0.24004
0.0453399
0.236156
0.0484038
0.231489
0.0507606
0.226277
0.0529661
0.220758
0.0553315
0.215163
0.0581713
0.209724
0.0617339
0.204663
0.0662663
0.200756
0.0571504
0.197319
0.0586706
0.194202
0.0603075
0.191072
0.0619397
0.18739
0.0633982
0.182416
0.064488
0.175325
0.0649317
0.165416
0.0644113
0.152363
0.0626435
0.136402
0.0594731
0.118364
0.0549525
0.0995255
0.0493545
0.0812951
0.0431973
0.0648405
0.0370688
0.0509453
0.0309883
0.0394302
0.0253589
0.0292665
0.0200136
0.019305
0.0139654
0.00832332
0.00642814
-0.00335886
-0.00442657
0.174126
-0.164394
-0.147997
0.196032
-0.143534
0.215038
-0.110885
0.231135
-0.0891733
0.24461
-0.0663963
0.255756
-0.0461469
0.264844
-0.028199
0.272102
-0.0121635
0.277664
0.00208869
0.281746
0.0152961
0.284497
0.0286657
0.285819
0.0380393
0.285659
0.0430596
0.284119
0.0468798
0.281414
0.0511088
0.27775
0.0544241
0.273354
0.0573629
0.26846
0.0602257
0.263311
0.0633204
0.258148
0.0668963
0.253209
0.0712058
0.249227
0.0611315
0.245689
0.0622091
0.242592
0.0634033
0.239875
0.0646579
0.237375
0.0658973
0.23479
0.0670741
0.231623
0.0680979
0.227206
0.0688283
0.220788
0.0690617
0.211707
0.0685543
0.199586
0.0670733
0.184484
0.0644564
0.166907
0.0607739
0.14769
0.0562865
0.128079
0.0505994
0.10909
0.0443481
0.0910996
0.0380033
0.0741039
0.0309613
0.0573384
0.0231934
0.0141278
0.0398519
0.198766
-0.195661
-0.167501
0.225083
-0.169851
0.247718
-0.133522
0.266773
-0.108229
0.282645
-0.0822695
0.295737
-0.0592395
0.306426
-0.0388888
0.315046
-0.020784
0.321823
-0.0046892
0.327047
0.0100709
0.330947
0.0247648
0.333481
0.0355046
0.3346
0.04194
0.334388
0.0470913
0.333003
0.052494
0.330587
0.0568395
0.327324
0.0606259
0.323423
0.0641274
0.319114
0.067629
0.31464
0.0713709
0.310247
0.0755974
0.306516
0.0648632
0.303137
0.0655867
0.300144
0.0663976
0.297539
0.0672623
0.29531
0.0681267
0.293409
0.0689749
0.29172
0.0697873
0.290008
0.0705399
0.287884
0.0711861
0.284807
0.0716316
0.280148
0.0717325
0.273307
0.071297
0.263827
0.070255
0.251451
0.0686616
0.236387
0.0656641
0.219047
0.0616879
0.199777
0.057274
0.179145
0.0515927
0.15727
0.0450689
0.0373356
0.134062
0.227659
-0.233242
-0.190079
0.25938
-0.201572
0.286476
-0.160619
0.309169
-0.130922
0.327976
-0.101078
0.34342
-0.0746835
0.355993
-0.051463
0.366143
-0.0309343
0.374205
-0.0127526
0.380554
0.0037215
0.38551
0.0198085
0.389115
0.0318987
0.391368
0.039686
0.392376
0.0460821
0.392278
0.0525918
0.391175
0.0579423
0.389204
0.0625959
0.386534
0.0667976
0.383361
0.0708027
0.379903
0.0748279
0.376405
0.0790961
0.3732
0.0680672
0.370262
0.0685244
0.367643
0.0690169
0.365363
0.0695421
0.363427
0.0700627
0.361834
0.0705688
0.360578
0.0710432
0.35964
0.0714785
0.358953
0.0718723
0.358373
0.072213
0.357637
0.0724683
0.356367
0.0725669
0.354084
0.0725385
0.350235
0.0725108
0.344358
0.0715418
0.336074
0.069972
0.325011
0.0683372
0.311109
0.0654948
0.294329
0.0618496
0.0570676
0.274598
0.261745
-0.27856
-0.216427
0.300076
-0.239904
0.332648
-0.193191
0.359813
-0.158087
0.382228
-0.123494
0.400548
-0.0930037
0.415396
-0.0663118
0.427343
-0.0428818
0.436845
-0.0222553
0.444376
-0.00380985
0.450352
0.0138321
0.454917
0.027333
0.458146
0.0364562
0.460201
0.0440265
0.461238
0.051554
0.461353
0.0578268
0.46066
0.0632887
0.45929
0.0681676
0.457399
0.0726937
0.455167
0.0770594
0.452806
0.0814571
0.450325
0.0705471
0.448014
0.0708358
0.44595
0.0710806
0.44418
0.0713126
0.442721
0.0715215
0.441575
0.0717149
0.440736
0.0718825
0.440198
0.0720168
0.439957
0.0721137
0.440003
0.0721673
0.440302
0.0721695
0.440772
0.072097
0.441256
0.0720546
0.441497
0.0722701
0.441163
0.0718764
0.439842
0.0712936
0.437025
0.0711546
0.43224
0.0702801
0.42511
0.06898
0.0672298
0.414949
0.302136
-0.333338
-0.247359
0.348543
-0.286311
0.387827
-0.232477
0.420489
-0.190749
0.447347
-0.150352
0.469207
-0.114865
0.486843
-0.0839483
0.500965
-0.0570034
0.512161
-0.0334519
0.52102
-0.0126699
0.52806
0.00679161
0.533539
0.0218542
0.537624
0.0323706
0.540552
0.0410981
0.542526
0.0495789
0.54367
0.056683
0.544101
0.0628569
0.543938
0.0683301
0.543309
0.0733228
0.542356
0.0780122
0.541247
0.0825658
0.539606
0.0721875
0.538036
0.0724067
0.536628
0.0724883
0.535449
0.0724915
0.534538
0.0724322
0.533913
0.0723402
0.533572
0.0722229
0.533505
0.0720846
0.533691
0.0719275
0.534111
0.0717477
0.534744
0.071537
0.535566
0.0712752
0.53654
0.0710802
0.537601
0.0712092
0.538652
0.070826
0.539533
0.0704126
0.540007
0.0706807
0.539773
0.0705151
0.538554
0.0701987
0.0700398
0.535745
0.317807
-0.393423
-0.257722
0.36877
-0.337274
0.411798
-0.275505
0.447497
-0.226448
0.47678
-0.179635
0.500541
-0.138627
0.519639
-0.103046
0.534861
-0.0722254
0.546877
-0.0454689
0.556337
-0.0221301
0.563811
-0.000682154
0.569639
0.016026
0.574066
0.0279428
0.577384
0.0377799
0.579838
0.0471249
0.581584
0.0549369
0.582759
0.0616815
0.583482
0.0676066
0.583866
0.0729394
0.584021
0.0778564
0.584072
0.0825149
0.583317
0.0729424
0.582562
0.0731616
0.581891
0.0731589
0.581369
0.0730136
0.58104
0.0727609
0.580933
0.0724482
0.581057
0.0720987
0.581411
0.071731
0.581979
0.071359
0.582739
0.0709882
0.583658
0.0706172
0.584704
0.0702299
0.585836
0.0699475
0.587013
0.0700325
0.588195
0.0696443
0.58933
0.0692771
0.590347
0.0696634
0.591161
0.0697015
0.591697
0.0696625
0.0699905
0.591747
0.329656
-0.458036
-0.265044
0.384505
-0.392123
0.430728
-0.321729
0.469023
-0.264743
0.500379
-0.210992
0.525767
-0.164015
0.546112
-0.123391
0.562266
-0.08838
0.574967
-0.0581704
0.584911
-0.0320742
0.592712
-0.00848303
0.59877
0.0099684
0.603389
0.0233233
0.606902
0.0342669
0.609588
0.0444391
0.611635
0.0528889
0.613206
0.0601113
0.614429
0.0663829
0.615419
0.0719495
0.616276
0.0769991
0.6171
0.0816915
0.616966
0.0730762
0.616803
0.0733243
0.616682
0.0732798
0.616659
0.0730371
0.616773
0.0726462
0.617054
0.0721676
0.617515
0.071637
0.618162
0.0710839
0.618989
0.0705323
0.61998
0.0699967
0.621114
0.0694835
0.622361
0.068983
0.623686
0.068622
0.62505
0.068668
0.626418
0.0682767
0.627751
0.0679434
0.62901
0.0684043
0.630166
0.0685456
0.631204
0.0686237
0.0691075
0.632087
0.343972
-0.527584
-0.274424
0.403044
-0.451195
0.452767
-0.371451
0.493921
-0.305897
0.52758
-0.244651
0.554788
-0.191223
0.576544
-0.145147
0.593768
-0.105605
0.607264
-0.0716656
0.617775
-0.0425852
0.625961
-0.0166692
0.632276
0.00365344
0.637078
0.0185209
0.640736
0.0306095
0.643559
0.0416154
0.645769
0.0506788
0.64755
0.058331
0.649048
0.0648845
0.650386
0.0706116
0.651665
0.0757199
0.652976
0.0803811
0.653239
0.0728121
0.653468
0.0730964
0.65372
0.0730274
0.654045
0.0727121
0.654478
0.0722132
0.655044
0.0716015
0.655758
0.0709227
0.656627
0.0702151
0.657649
0.0695101
0.658817
0.068829
0.660116
0.0681838
0.66153
0.0675697
0.663034
0.0671174
0.664604
0.067098
0.666213
0.0666675
0.667835
0.066321
0.669443
0.0667969
0.671016
0.0669725
0.672544
0.067095
0.0676373
0.674014
0.360564
-0.602497
-0.285653
0.424223
-0.514854
0.477761
-0.42499
0.522046
-0.350182
0.558236
-0.280841
0.587459
-0.220445
0.610789
-0.168478
0.629218
-0.124034
0.643617
-0.0860641
0.654782
-0.0537502
0.66342
-0.0253067
0.670036
-0.00296274
0.675037
0.0135195
0.678826
0.0268209
0.681744
0.0386972
0.684042
0.0483812
0.685927
0.0564465
0.687565
0.0632461
0.689092
0.0690851
0.690615
0.0741964
0.692226
0.0787706
0.692736
0.0723017
0.693216
0.072617
0.693718
0.072525
0.694285
0.0721446
0.694949
0.0715491
0.695732
0.0708185
0.696648
0.0700067
0.697704
0.069159
0.698901
0.0683131
0.700235
0.0674951
0.701697
0.0667212
0.703277
0.0659897
0.704961
0.0654335
0.706733
0.0653248
0.708579
0.0648219
0.710482
0.0644179
0.712427
0.0648514
0.714402
0.0649968
0.716401
0.0650959
0.0656249
0.718413
0.37935
-0.68323
-0.298617
0.447984
-0.583488
0.505674
-0.482681
0.553375
-0.397884
0.592337
-0.319803
0.623775
-0.251883
0.648846
-0.193549
0.668618
-0.143805
0.684031
-0.101477
0.695939
-0.0656586
0.705098
-0.0344659
0.712067
-0.00993144
0.717297
0.00828985
0.721224
0.0228936
0.724223
0.0356992
0.72657
0.0460341
0.728498
0.0545187
0.730192
0.0615513
0.731804
0.0674733
0.733453
0.0725479
0.735234
0.0769893
0.735881
0.0716548
0.736509
0.071989
0.737168
0.0718658
0.737897
0.071415
0.738726
0.0707205
0.739674
0.0698705
0.740755
0.0689261
0.741975
0.0679386
0.743337
0.0669509
0.744839
0.065993
0.746475
0.0650844
0.748239
0.0642256
0.750122
0.0635504
0.752116
0.0633307
0.754209
0.0627291
0.756392
0.062235
0.758658
0.0625848
0.761
0.0626542
0.763415
0.0626809
0.0631427
0.765897
0.400314
-0.770279
-0.313265
0.474342
-0.657517
0.536546
-0.544884
0.587968
-0.449306
0.629958
-0.361793
0.663822
-0.285748
0.690809
-0.220535
0.712064
-0.165061
0.728606
-0.118019
0.74135
-0.0784024
0.751104
-0.0442202
0.75848
-0.0173076
0.763975
0.00279513
0.768061
0.0188081
0.771141
0.0326189
0.773523
0.0436522
0.775462
0.0525802
0.777163
0.0598497
0.778794
0.0658422
0.780488
0.0708546
0.782349
0.0751283
0.783051
0.0709528
0.783747
0.0712919
0.784489
0.0711238
0.785314
0.0705902
0.786249
0.0697852
0.787315
0.068805
0.788523
0.0677176
0.789882
0.0665798
0.791393
0.065439
0.793058
0.0643287
0.794871
0.0632709
0.796828
0.0622683
0.798923
0.0614547
0.801153
0.0611008
0.803506
0.0603757
0.805977
0.0597641
0.808563
0.0599978
0.811259
0.0599579
0.814061
0.0598782
0.0602358
0.816968
0.423487
-0.864178
-0.329589
0.503367
-0.737397
0.570474
-0.611992
0.625947
-0.504779
0.671237
-0.407083
0.707754
-0.322265
0.73684
-0.249622
0.759731
-0.187951
0.777523
-0.135811
0.791199
-0.0920782
0.801625
-0.0546462
0.809467
-0.0251493
0.815268
-0.00300631
0.819537
0.0145387
0.822712
0.0294447
0.825126
0.0412378
0.82706
0.0506466
0.828739
0.05817
0.830348
0.0642331
0.832033
0.0691692
0.833912
0.0732499
0.834609
0.0702553
0.835315
0.0705859
0.83608
0.070358
0.836945
0.0697257
0.837936
0.0687939
0.839074
0.0676669
0.840372
0.0664196
0.841837
0.0651142
0.843474
0.0638023
0.845282
0.0625206
0.847259
0.0612938
0.8494
0.0601263
0.851703
0.0591515
0.854165
0.0586385
0.856776
0.057765
0.859529
0.05701
0.862428
0.0570987
0.865464
0.0569215
0.868634
0.0567082
0.056933
0.871936
0.448939
-0.965507
-0.34761
0.535167
-0.823625
0.607601
-0.684426
0.667479
-0.564656
0.716366
-0.45597
0.755779
-0.361679
0.787165
-0.281008
0.811852
-0.212638
0.831023
-0.154983
0.845733
-0.106789
0.856912
-0.065825
0.865282
-0.0335187
0.871435
-0.0091595
0.875918
0.0100551
0.879203
0.0261595
0.881655
0.0387859
0.883578
0.0487241
0.885218
0.056529
0.886779
0.0626727
0.88842
0.0675277
0.890272
0.0713981
0.89092
0.0696064
0.891589
0.0699169
0.892333
0.0696145
0.893191
0.0688668
0.894195
0.0677899
0.895365
0.0664967
0.896715
0.0650692
0.898254
0.0635752
0.899986
0.0620705
0.901911
0.0605953
0.904028
0.0591765
0.906333
0.0578206
0.908824
0.0566605
0.911499
0.0559626
0.914348
0.0549161
0.917365
0.0539929
0.920554
0.0539098
0.923905
0.05357
0.927413
0.0531991
0.0532669
0.931079
0.476768
-1.0749
-0.367377
0.569885
-0.916742
0.648107
-0.762649
0.712777
-0.629326
0.765581
-0.508775
0.808156
-0.404254
0.842057
-0.314909
0.868714
-0.239296
0.889404
-0.175673
0.905259
-0.122644
0.917277
-0.077843
0.92624
-0.0424819
0.932793
-0.0157128
0.937525
0.00532428
0.940941
0.0227427
0.94344
0.0362872
0.94535
0.0468136
0.946942
0.0549372
0.948435
0.0611798
0.950006
0.0659565
0.951798
0.0696061
0.952364
0.0690405
0.952959
0.0693216
0.953642
0.0689314
0.954457
0.0680517
0.955435
0.066811
0.956601
0.0653311
0.957968
0.0637018
0.959546
0.0619966
0.961341
0.0602758
0.963353
0.0585832
0.965581
0.0569483
0.968021
0.0553797
0.970672
0.0540097
0.973533
0.0531015
0.976591
0.0518578
0.979841
0.0507429
0.983287
0.050463
0.986919
0.0499374
0.990731
0.0493874
0.0492764
0.994721
0.507099
-1.19304
-0.388957
0.607695
-1.01734
0.692207
-0.84716
0.76209
-0.699209
0.819163
-0.565848
0.865187
-0.450278
0.901838
-0.351559
0.930655
-0.268114
0.953015
-0.198032
0.970134
-0.139763
0.983085
-0.0907936
0.992713
-0.0521103
0.999718
-0.0227181
1.00473
0.000309748
1.0083
0.0191712
1.01086
0.0337301
1.01276
0.0449135
1.0143
0.0534013
1.01571
0.0597691
1.01719
0.0644771
1.01889
0.0679019
1.01934
0.068587
1.01983
0.0688319
1.02042
0.0683422
1.02116
0.0673151
1.02208
0.0658922
1.0232
0.0642052
1.02455
0.062352
1.02614
0.0604125
1.02796
0.0584518
1.03003
0.0565175
1.03233
0.0546421
1.03487
0.0528365
1.03765
0.0512321
1.04066
0.0500889
1.0439
0.0486248
1.04734
0.0472956
1.05101
0.0467955
1.05488
0.0460627
1.05896
0.0453135
0.0450041
1.06323
0.540079
-1.32068
-0.412436
0.6488
-1.12606
0.74015
-0.938511
0.815707
-0.774766
0.877431
-0.627572
0.927219
-0.500066
0.966876
-0.391217
0.998061
-0.299298
1.02226
-0.222227
1.04077
-0.158276
1.05475
-0.104778
1.06512
-0.062481
1.07264
-0.0302319
1.07798
-0.00502778
1.08173
0.0154202
1.08435
0.0311016
1.08625
0.0430211
1.08772
0.0519276
1.08903
0.0584545
1.0904
0.0631105
1.09199
0.0663122
1.0923
0.0682736
1.09266
0.0684785
1.09312
0.0678796
1.09374
0.0666911
1.09457
0.0650686
1.09562
0.0631547
1.09691
0.061056
1.09846
0.0588593
1.10028
0.0566352
1.10236
0.0544352
1.10471
0.052295
1.10732
0.0502284
1.11018
0.0483659
1.11331
0.0469635
1.11668
0.0452566
1.12028
0.0436917
1.12413
0.0429493
1.1282
0.0419889
1.13249
0.0410219
0.0404955
1.137
0.575878
-1.45865
-0.437911
0.693427
-1.24361
0.792217
-1.0373
0.873952
-0.856501
0.940746
-0.694366
0.994643
-0.553964
1.03759
-0.434162
1.07137
-0.333078
1.09758
-0.248438
1.11763
-0.178327
1.13276
-0.119908
1.14395
-0.0736779
1.15204
-0.0383154
1.15774
-0.0107308
1.1617
0.0114629
1.16441
0.0283881
1.1663
0.0411339
1.1677
0.050523
1.16891
0.0572512
1.17014
0.0618789
1.17158
0.0648659
1.17173
0.0681292
1.17191
0.0682933
1.17221
0.0675779
1.17269
0.0662158
1.17338
0.0643777
1.17432
0.0622182
1.17552
0.0598532
1.177
0.0573773
1.17877
0.0548666
1.18083
0.0523774
1.18317
0.049949
1.1858
0.0475979
1.18871
0.0454542
1.19191
0.0437694
1.19537
0.0417981
1.19908
0.0399766
1.20306
0.0389706
1.20729
0.0377632
1.21175
0.0365605
0.0357996
1.21644
0.614687
-1.60784
-0.4655
0.741838
-1.37076
0.848723
-1.14419
0.937189
-0.944967
1.00951
-0.76669
1.0679
-0.61235
1.11444
-0.480704
1.15106
-0.3697
1.17949
-0.276864
1.20123
-0.200071
1.21763
-0.136304
1.22974
-0.0857928
1.23846
-0.0470353
1.24458
-0.0168447
1.24877
0.00727072
1.25158
0.0255759
1.25346
0.0392501
1.25479
0.0491963
1.25587
0.0561767
1.25694
0.0608077
1.25821
0.063595
1.25815
0.0681851
1.25813
0.0683108
1.25824
0.0674744
1.25852
0.0659286
1.25904
0.0638608
1.25982
0.0614382
1.26088
0.0587875
1.26225
0.0560111
1.26393
0.0531918
1.26591
0.0503908
1.26821
0.0476513
1.27081
0.0449932
1.27372
0.0425458
1.27693
0.0405562
1.28043
0.0382995
1.28421
0.0362016
1.28827
0.0349114
1.29259
0.0334383
1.29717
0.0319826
0.0309703
1.302
0.656719
-1.76923
-0.495327
0.794318
-1.50836
0.910021
-1.25989
1.00582
-1.04077
1.08418
-0.845049
1.14747
-0.67564
1.19795
-0.531184
1.23769
-0.409441
1.26855
-0.307723
1.29216
-0.223681
1.30996
-0.154099
1.32309
-0.0989266
1.33252
-0.0564644
1.3391
-0.0234191
1.34355
0.00281364
1.34648
0.0226508
1.34836
0.0373696
1.3496
0.0479591
1.35052
0.0552529
1.3514
0.0599275
1.35246
0.0625383
1.35216
0.0684776
1.3519
0.0685711
1.35176
0.0676121
1.35182
0.0658751
1.35211
0.0635653
1.35269
0.0608642
1.35357
0.0579095
1.35476
0.0548129
1.35629
0.0516639
1.35815
0.0485295
1.36035
0.045457
1.36287
0.0424701
1.36572
0.0396974
1.36889
0.0373812
1.37237
0.0348191
1.37615
0.0324253
1.38023
0.0308312
1.38459
0.0290743
1.38923
0.0273488
0.0260687
1.39413
0.702211
-1.9439
-0.527535
0.851187
-1.65733
0.976498
-1.3852
1.08031
-1.14458
1.16526
-0.929999
1.23391
-0.744295
1.2887
-0.585975
1.33186
-0.452605
1.3654
-0.34126
1.39107
-0.249349
1.41041
-0.173442
1.42467
-0.11319
1.43489
-0.0666828
1.44198
-0.0305082
1.44674
-0.00194068
1.44979
0.019599
1.45166
0.0354942
1.4528
0.0468263
1.45354
0.0545063
1.45419
0.0592751
1.45499
0.0617417
1.45442
0.0690487
1.45387
0.0691203
1.45344
0.0680406
1.45321
0.0661076
1.45323
0.0635462
1.45354
0.0605528
1.45417
0.0572778
1.45514
0.0538425
1.45646
0.0503442
1.45813
0.0468558
1.46016
0.0434296
1.46254
0.0400932
1.46526
0.0369745
1.46833
0.0343106
1.47172
0.0314238
1.47543
0.0287156
1.47947
0.0267981
1.4838
0.0247398
1.48842
0.0227284
0.0211645
1.49333
0.751421
-2.13305
-0.562278
0.912795
-1.81871
1.04859
-1.52099
1.16113
-1.25712
1.25328
-1.02215
1.32781
-0.818819
1.38733
-0.645493
1.43425
-0.499524
1.47073
-0.37774
1.49866
-0.277283
1.51972
-0.194496
1.53523
-0.128706
1.54633
-0.0777787
1.55399
-0.0381707
1.55908
-0.00702683
1.56227
0.0164071
1.56413
0.0336281
1.56514
0.0458178
1.56568
0.05397
1.56606
0.0588956
1.56654
0.0612609
1.56564
0.0699482
1.56475
0.070013
1.56397
0.0688186
1.56339
0.0666881
1.56306
0.063868
1.56305
0.0605712
1.56336
0.0569615
1.56403
0.0531709
1.56507
0.0493051
1.56648
0.0454436
1.56827
0.0416439
1.57043
0.0379382
1.57295
0.0344538
1.57583
0.0314223
1.57907
0.028192
1.58263
0.0251516
1.58654
0.0228923
1.59076
0.0205157
1.59528
0.0182026
0.0163395
1.60011
0.804636
-2.33796
-0.599725
0.979531
-1.9936
1.12676
-1.66822
1.24885
-1.37921
1.34888
-1.12218
1.42984
-0.899772
1.49454
-0.710194
1.54559
-0.550572
1.58531
-0.417462
1.61574
-0.30772
1.63869
-0.217441
1.65559
-0.145611
1.66766
-0.089849
1.67596
-0.0464713
1.68142
-0.0124815
1.68476
0.0130616
1.68661
0.0317786
1.68747
0.0449583
1.68776
0.0536844
1.68781
0.058843
1.68791
0.0611626
1.68662
0.0712346
1.68532
0.0713133
1.68412
0.0700144
1.68312
0.067689
1.68238
0.0646065
1.68196
0.0609977
1.68188
0.0570412
1.68217
0.0528808
1.68284
0.0486311
1.6839
0.0443789
1.68536
0.0401876
1.6872
0.0360942
1.68943
0.0322254
1.69205
0.0288072
1.69502
0.0252159
1.69835
0.0218263
1.70203
0.0192072
1.70605
0.016496
1.71039
0.0138662
0.0116889
1.71504
0.862169
-2.56007
-0.640057
1.05182
-2.18326
1.21154
-1.82794
1.34407
-1.51174
1.45273
-1.23084
1.54073
-0.987771
1.61112
-0.780587
1.66671
-0.606159
1.71
-0.460754
1.7432
-0.340918
1.76824
-0.242479
1.78668
-0.164054
1.79983
-0.103001
1.80884
-0.0554802
1.8147
-0.018344
1.81821
0.00955049
1.82004
0.0299565
1.82072
0.0442792
1.8207
0.053699
1.82036
0.0591833
1.81999
0.0615275
1.81825
0.0729778
1.81647
0.0730972
1.81477
0.0717096
1.81326
0.0691962
1.81202
0.0658513
1.81109
0.0619254
1.81052
0.057613
1.81033
0.0530705
1.81054
0.0484226
1.81115
0.0437641
1.81217
0.0391646
1.8136
0.0346664
1.81543
0.0303961
1.81767
0.0265732
1.82028
0.0226044
1.82325
0.0188496
1.82661
0.0158537
1.83031
0.0127925
1.83434
0.00983178
0.00732612
1.83871
0.924359
-2.80096
-0.68347
1.13013
-2.38903
1.30352
-2.00133
1.44747
-1.65569
1.56557
-1.34895
1.66131
-1.0835
1.73795
-0.857233
1.79853
-0.666741
1.84576
-0.507982
1.88201
-0.377166
1.90936
-0.269832
1.92951
-0.184202
1.94387
-0.117354
1.95366
-0.0652751
1.95997
-0.0246561
1.96366
0.00586222
1.96544
0.0281773
1.9659
0.0438193
1.96552
0.0540737
1.96471
0.059995
1.96379
0.0624518
1.9615
0.07526
1.95915
0.0754544
1.95686
0.0740001
1.95474
0.0713108
1.95289
0.0677081
1.95135
0.0634637
1.95017
0.0587894
1.94939
0.0538555
1.94901
0.0487977
1.94906
0.0437193
1.94952
0.0386971
1.95041
0.033779
1.95171
0.0290913
1.95344
0.0248472
1.95556
0.0204858
1.95806
0.016351
1.96095
0.0129623
1.9642
0.00953671
1.9678
0.00623177
0.00338438
1.97175
0.991583
-3.06237
-0.730175
1.21498
-2.61243
1.40331
-2.18966
1.55978
-1.81215
1.68825
-1.47742
1.79247
-1.18772
1.87599
-0.940755
1.94208
-0.732827
1.99365
-0.559555
2.03327
-0.416786
2.06319
-0.299749
2.08523
-0.206243
2.10091
-0.133039
2.11158
-0.075941
2.11838
-0.0314633
2.12226
0.00198654
2.12397
0.026461
2.12417