/*--------------------------------*- C++ -*----------------------------------*\
| =========                 |                                                 |
| \\      /  F ield         | OpenFOAM: The Open Source CFD Toolbox           |
|  \\    /   O peration     | Version:  5.x                                   |
|   \\  /    A nd           | Web:      www.OpenFOAM.org                      |
|    \\/     M anipulation  |                                                 |
\*---------------------------------------------------------------------------*/
FoamFile
{
    version     2.0;
    format      ascii;
    class       surfaceScalarField;
    location    "100";
    object      phi;
}
// * * * * * * * * * * * * * * * * * * * * * * * * * * * * * * * * * * * * * //

dimensions      [0 3 -1 0 0 0 0];

internalField   nonuniform List<scalar> 
21876
(
0.0055408
-0.00655216
0.00104295
0.0130905
-0.00754966
0.0175456
-0.00445517
0.0216207
-0.00407514
0.024266
-0.00264538
0.0258743
-0.00160829
0.0267464
-0.000872146
0.0270385
-0.00029216
0.0267449
0.000293504
0.0257337
0.0010112
0.0238896
0.00184405
0.0223549
0.00153464
0.021559
0.00079591
0.0211764
0.000382498
0.0206718
0.000504492
0.0201742
0.000497593
0.0196551
0.000518992
0.0191279
0.00052716
0.0186087
0.000519234
0.0181048
0.000504036
0.017618
0.000486934
0.017252
0.0003661
0.0169007
0.000351313
0.0165627
0.000338091
0.0162344
0.000328297
0.0159146
0.000319901
0.015598
0.000316599
0.0152806
0.000317534
0.0149573
0.000323295
0.0146226
0.000334868
0.0142691
0.000353577
0.0138876
0.000381558
0.013467
0.000420662
0.0129916
0.000475529
0.0124353
0.000556286
0.0117728
0.000662647
0.0109599
0.00081288
0.0099133
0.0010468
0.00852145
0.00139187
0.00655916
0.00196242
0.00125552
0.00530352
0.00716358
-0.0133789
-0.000336936
0.014241
-0.0146271
0.0195604
-0.00977455
0.024109
-0.00862371
0.0274137
-0.00595007
0.0296713
-0.00386578
0.0311115
-0.00231232
0.0319294
-0.00110988
0.0323275
-0.000104438
0.032358
0.000980959
0.0316988
0.0025035
0.0307664
0.00246732
0.0299112
0.00165138
0.0291806
0.00111326
0.0283882
0.00129699
0.0276613
0.00122468
0.0269751
0.00120525
0.0263065
0.00119601
0.0256489
0.00117701
0.0250022
0.00115107
0.0243605
0.00112884
0.0238705
0.000856437
0.0234075
0.000814494
0.022966
0.00077978
0.0225402
0.000754209
0.0221276
0.00073273
0.0217231
0.000721129
0.0213226
0.000718191
0.0209209
0.000725028
0.0205123
0.000743663
0.0200894
0.000776555
0.0196432
0.000827848
0.0191627
0.000901203
0.0186331
0.00100535
0.0180293
0.00116008
0.0173268
0.00136527
0.016488
0.0016517
0.0154208
0.00211411
0.0140594
0.00275324
0.0119363
0.00408563
0.00409968
0.00909201
0.00908393
-0.0206275
-0.00183527
0.0162583
-0.0218015
0.0223546
-0.0158708
0.0276112
-0.0138803
0.0317369
-0.0100758
0.0347659
-0.00689472
0.0368522
-0.00439864
0.0381463
-0.00240403
0.0387602
-0.000718375
0.0388112
0.000929999
0.038257
0.00305759
0.037508
0.00321637
0.0368632
0.00229607
0.0362972
0.00167912
0.0356079
0.00198627
0.0349066
0.00192587
0.0342141
0.0018976
0.0335225
0.0018876
0.0328307
0.00186872
0.0321406
0.00184112
0.031448
0.00182135
0.0309095
0.00139497
0.0303928
0.00133119
0.0298947
0.00127782
0.0294103
0.00123863
0.0289367
0.00120635
0.0284689
0.00118891
0.0280023
0.0011848
0.0275314
0.00119589
0.0270496
0.00122556
0.0265484
0.0012777
0.0260178
0.00135854
0.0254453
0.00147371
0.024814
0.00163675
0.0240967
0.00187737
0.0232684
0.00219365
0.0222924
0.00262765
0.0210779
0.00332871
0.0195897
0.00424151
0.0174482
0.00622719
0.00705448
0.0144934
0.0113983
-0.0284442
-0.00358157
0.0188984
-0.0293017
0.0256158
-0.0225883
0.0315602
-0.0198246
0.0364388
-0.0149544
0.0402086
-0.0106645
0.0429472
-0.00713723
0.0447764
-0.00423316
0.0458012
-0.00174306
0.046133
0.000598378
0.0457481
0.00344266
0.0450254
0.00393928
0.0443908
0.00293094
0.043891
0.00217913
0.0433059
0.00257151
0.0426675
0.00256442
0.0420162
0.00254912
0.0413522
0.00255181
0.0406784
0.00254269
0.0400007
0.00251911
0.039317
0.00250532
0.0387801
0.001932
0.038259
0.00185249
0.0377498
0.00178714
0.0372479
0.00174072
0.0367511
0.00170328
0.0362552
0.00168486
0.0357557
0.00168441
0.0352466
0.00170511
0.0347206
0.00175169
0.0341686
0.00182973
0.0335797
0.00194751
0.0329403
0.00211317
0.0322317
0.00234549
0.0314239
0.00268515
0.0304908
0.00312683
0.0293936
0.00372494
0.0280408
0.00468152
0.0263969
0.00588547
0.0241991
0.00842497
0.00997188
0.0212816
0.0140975
-0.0369891
-0.00555258
0.0220964
-0.0373006
0.029442
-0.0299338
0.036125
-0.0265076
0.041826
-0.0206553
0.04645
-0.0152884
0.0499913
-0.0106785
0.0525177
-0.00675955
0.0541031
-0.00332835
0.0548594
-0.000157937
0.054793
0.00350915
0.0541994
0.00453292
0.0535549
0.00357545
0.0530168
0.00271715
0.0524242
0.00316407
0.0517658
0.00322274
0.0510932
0.00322166
0.0504125
0.0032325
0.0497235
0.00323164
0.049033
0.0032095
0.0483417
0.00319661
0.0478014
0.00247228
0.0472803
0.00237355
0.0467735
0.00229397
0.0462748
0.00223934
0.0457805
0.00219761
0.0452847
0.00218068
0.0447812
0.00218789
0.0442633
0.00222302
0.0437232
0.0022918
0.0431515
0.00240152
0.0425362
0.00256279
0.0418628
0.00278658
0.0411111
0.00309722
0.0402497
0.00354665
0.039252
0.00412448
0.0380788
0.0048982
0.0366435
0.00611684
0.0349022
0.0076268
0.0327079
0.0106193
0.0128249
0.0298549
0.0172035
-0.0464459
-0.00774662
0.0259031
-0.0460001
0.0339678
-0.0379986
0.0414344
-0.0339741
0.0479908
-0.0272117
0.0535211
-0.0208187
0.0579602
-0.0151176
0.0613149
-0.0101142
0.0636153
-0.00562868
0.0649744
-0.001517
0.0654187
0.00306495
0.0651391
0.00481257
0.0645908
0.00412395
0.0640403
0.00326776
0.06343
0.00377444
0.0627318
0.00392114
0.0620028
0.00395081
0.0612648
0.00397073
0.0605193
0.00397729
0.0597743
0.00395483
0.0590337
0.00393748
0.0584572
0.00304893
0.0579068
0.00292409
0.0573774
0.00282346
0.0568626
0.00275426
0.0563573
0.002703
0.055855
0.00268302
0.0553484
0.00269459
0.0548292
0.00274227
0.054288
0.00283307
0.0537135
0.0029761
0.0530924
0.00318396
0.0524091
0.00346994
0.0516428
0.00386363
0.0507616
0.00442787
0.0497412
0.00514498
0.0485439
0.00609549
0.0470957
0.00756508
0.0453497
0.00937276
0.043278
0.012691
0.0155094
0.0405935
0.0207567
-0.057051
-0.0101515
0.0304035
-0.055647
0.039346
-0.046941
0.0476768
-0.042305
0.0551319
-0.0346667
0.0616068
-0.0272936
0.0670131
-0.0205239
0.0713099
-0.014411
0.0744751
-0.00879383
0.0766078
-0.00364964
0.0777426
0.00193027
0.0779791
0.00457615
0.0777007
0.00440241
0.077246
0.00372242
0.0766771
0.00434347
0.0759763
0.00462194
0.0752024
0.00472472
0.0743998
0.00477345
0.0735808
0.00479624
0.0727571
0.0047786
0.071938
0.00475657
0.0712977
0.00368928
0.0706886
0.00353314
0.0701064
0.00340572
0.0695448
0.00331589
0.0689986
0.00324924
0.0684614
0.00322026
0.0679255
0.00323046
0.0673822
0.00328557
0.0668214
0.00339395
0.066231
0.00356655
0.065597
0.00381795
0.0649031
0.00416386
0.0641278
0.00463894
0.0632397
0.00531604
0.0622184
0.0061663
0.0610317
0.00728227
0.0596256
0.00897118
0.057958
0.0110404
0.0561208
0.0145283
0.0178725
0.0537576
0.0248144
-0.0691056
-0.0127597
0.0357037
-0.0665363
0.0457467
-0.0569841
0.0550793
-0.0516375
0.063508
-0.0430954
0.0709689
-0.0347543
0.0773872
-0.0269422
0.0827045
-0.0197282
0.0868576
-0.0129469
0.0899233
-0.00671525
0.0919305
-7.69836e-05
0.0929022
0.00360449
0.0931149
0.00418973
0.092926
0.00391136
0.0925083
0.00476118
0.0918878
0.0052426
0.0911269
0.00548568
0.0902924
0.00560808
0.0894161
0.00567274
0.0885172
0.00567759
0.0876131
0.00566085
0.0868959
0.00440659
0.0862114
0.0042177
0.0855569
0.00406033
0.0849271
0.0039457
0.0843169
0.00385954
0.0837199
0.00381732
0.0831284
0.00382205
0.0825334
0.00388064
0.0819247
0.00400272
0.0812904
0.00420086
0.0806168
0.00449156
0.0798883
0.00489249
0.0790842
0.00544301
0.0781753
0.00622501
0.0771476
0.00719404
0.0759759
0.00845396
0.0746308
0.0103164
0.073082
0.0125891
0.0715203
0.0160901
0.0197985
0.0695943
0.0294482
-0.082985
-0.0155688
0.0419325
-0.0790206
0.0533653
-0.0684169
0.0639055
-0.0621776
0.0734364
-0.0526262
0.0819516
-0.0432696
0.0894215
-0.0344121
0.0958056
-0.0261123
0.101027
-0.0181679
0.105145
-0.0108333
0.108186
-0.00311824
0.110101
0.00168893
0.111053
0.00323818
0.11136
0.00360438
0.111267
0.00485419
0.110862
0.00564782
0.110222
0.00612536
0.109435
0.00639605
0.108555
0.00655211
0.107619
0.00661433
0.106653
0.00662693
0.105866
0.00519368
0.105106
0.00497714
0.104375
0.00479139
0.10367
0.00465133
0.102985
0.00454402
0.102316
0.00448645
0.101655
0.0044833
0.100993
0.00454302
0.100319
0.00467658
0.0996216
0.00489808
0.0988878
0.00522545
0.0981027
0.00567758
0.0972481
0.00629765
0.0962978
0.00717541
0.0952468
0.00824503
0.0940796
0.00962123
0.0927887
0.0116073
0.0913639
0.014014
0.0900418
0.0174122
0.0212678
0.0885725
0.0347474
-0.0991506
-0.0185817
0.0492487
-0.0935219
0.0624302
-0.0815984
0.0744588
-0.0742062
0.0852904
-0.0634578
0.0949824
-0.0529616
0.103568
-0.0429978
0.111055
-0.0335992
0.117386
-0.0244986
0.122624
-0.0160718
0.126806
-0.00729989
0.129829
-0.00133466
0.131752
0.00131579
0.132818
0.00253827
0.133284
0.00438793
0.13329
0.00564225
0.132938
0.00647738
0.132332
0.00700225
0.131555
0.00732937
0.130662
0.00750729
0.129696
0.00759241
0.128874
0.00601613
0.128064
0.00578709
0.127273
0.00558226
0.126503
0.00542176
0.125751
0.00529592
0.125013
0.00522394
0.124284
0.00521287
0.123554
0.00527293
0.122814
0.00541688
0.122052
0.00566005
0.121255
0.00602164
0.120412
0.00652094
0.119505
0.00720446
0.118512
0.00816834
0.117438
0.00931937
0.116278
0.0107815
0.11504
0.0128448
0.113743
0.0153117
0.11261
0.0185454
0.0223399
0.111537
0.040824
-0.118163
-0.0218119
0.057848
-0.110546
0.0732163
-0.0969666
0.0870953
-0.0880852
0.0995074
-0.0758699
0.110572
-0.0640266
0.120393
-0.0528184
0.129043
-0.042249
0.136514
-0.03197
0.142901
-0.0224581
0.148262
-0.0126612
0.152487
-0.00556011
0.155552
-0.0017484
0.157618
0.000472352
0.158904
0.0031019
0.159563
0.00498276
0.159721
0.0063197
0.159493
0.00722989
0.158985
0.00783798
0.158274
0.00821797
0.157424
0.00844247
0.156638
0.00680219
0.155834
0.00659052
0.155029
0.00638726
0.154231
0.00622028
0.153442
0.00608496
0.152661
0.00600452
0.151885
0.00598884
0.151107
0.00605085
0.150319
0.00620504
0.149511
0.00646837
0.148672
0.00686062
0.147792
0.00740111
0.146857
0.00813873
0.145851
0.00917529
0.144785
0.010385
0.143666
0.0118999
0.142512
0.0139989
0.141367
0.0164569
0.140414
0.0194988
0.0230886
0.139665
0.0478199
-0.140697
-0.0252851
0.0679739
-0.1307
0.0860597
-0.115052
0.102241
-0.104267
0.116603
-0.0902314
0.129324
-0.0767473
0.140576
-0.0640706
0.150507
-0.0521798
0.159177
-0.0406407
0.166731
-0.030012
0.173274
-0.0192037
0.178722
-0.0110076
0.183012
-0.0060389
0.186245
-0.00276013
0.188576
0.000770573
0.190139
0.00341998
0.191058
0.00540049
0.191453
0.00683469
0.191438
0.00785287
0.19111
0.00854579
0.190552
0.00900117
0.189921
0.00743327
0.189223
0.00728771
0.188488
0.00712235
0.187733
0.00697514
0.186969
0.00684919
0.1862
0.0067733
0.185427
0.0067617
0.184648
0.0068305
0.183856
0.00699671
0.183046
0.00727872
0.182209
0.00769685
0.181341
0.00826956
0.180432
0.0090478
0.179469
0.010138
0.178476
0.0113786
0.177467
0.0129086
0.176463
0.0150033
0.175525
0.0173942
0.174795
0.0202297
0.0235472
0.174336
0.0559141
-0.167571
-0.0290407
0.0799293
-0.154715
0.101375
-0.136498
0.120414
-0.123306
0.137191
-0.107009
0.151945
-0.0915013
0.164917
-0.0770421
0.176328
-0.0635908
0.186318
-0.050631
0.195094
-0.0387876
0.202821
-0.026931
0.209473
-0.0176591
0.214998
-0.0115642
0.21947
-0.00723156
0.222991
-0.00275093
0.225656
0.000755021
0.227572
0.00348504
0.228844
0.00556269
0.229581
0.00711544
0.229886
0.00824082
0.229852
0.00903454
0.229545
0.00774083
0.229102
0.00773092
0.228566
0.00765769
0.22797
0.00757162
0.227333
0.00748616
0.226668
0.00743754
0.225984
0.00744588
0.225283
0.00753134
0.224566
0.00771419
0.22383
0.00801437
0.223074
0.00845276
0.222298
0.00904629
0.221498
0.00984784
0.220668
0.0109679
0.219839
0.0122077
0.219034
0.0137131
0.218273
0.0157642
0.217625
0.0180423
0.217195
0.0206597
0.0236902
0.217052
0.0653326
-0.199769
-0.0331341
0.0940919
-0.183474
0.119674
-0.162079
0.142246
-0.145878
0.162017
-0.12678
0.179285
-0.10877
0.194363
-0.0921198
0.207548
-0.0767757
0.219063
-0.0621462
0.229183
-0.0489078
0.238144
-0.0358919
0.245994
-0.0255086
0.252729
-0.0182992
0.258435
-0.0129376
0.263197
-0.00751316
0.267077
-0.00312455
0.270155
0.000406886
0.272518
0.00320003
0.274254
0.00537877
0.275457
0.00703804
0.276218
0.00827357
0.276444
0.00751521
0.276447
0.00772721
0.276288
0.0078166
0.276012
0.00784829
0.27565
0.00784757
0.275228
0.00786004
0.274761
0.00791271
0.274261
0.00803126
0.273736
0.00823949
0.273191
0.00855972
0.27263
0.00901312
0.272061
0.00961543
0.271488
0.0104212
0.27091
0.0115457
0.270366
0.0127521
0.269883
0.0141961
0.269479
0.0161679
0.269221
0.0183002
0.269191
0.0206902
0.0234426
0.269439
0.0763592
-0.238489
-0.0376388
0.110932
-0.218047
0.141592
-0.192739
0.168518
-0.172804
0.191988
-0.15025
0.212369
-0.129151
0.230049
-0.109799
0.245405
-0.0921319
0.258749
-0.0754899
0.270428
-0.0605863
0.28075
-0.0462143
0.289849
-0.0346078
0.297792
-0.0262417
0.304706
-0.0198517
0.310694
-0.0135008
0.315814
-0.00824425
0.320132
-0.00391116
0.323716
-0.000384108
0.326637
0.00245791
0.328967
0.00470787
0.330784
0.0064566
0.331767
0.00653222
0.332437
0.00705699
0.332866
0.00738778
0.333111
0.00760347
0.333217
0.00774193
0.333218
0.00785851
0.333143
0.00798822
0.333011
0.00816275
0.33284
0.00841041
0.332644
0.00875608
0.332435
0.00922193
0.332228
0.00982259
0.332034
0.0106152
0.33186
0.0117201
0.331747
0.0128648
0.331727
0.0142166
0.331813
0.0160813
0.332067
0.0180463
0.332552
0.0202055
0.0226952
0.333299
0.0893459
-0.285188
-0.0426472
0.131033
-0.259735
0.167916
-0.229622
0.200196
-0.205084
0.228227
-0.178281
0.252456
-0.15338
0.273357
-0.1307
0.291396
-0.110171
0.306979
-0.0910728
0.320532
-0.0741393
0.332442
-0.0581239
0.34293
-0.0450961
0.352145
-0.0354567
0.360276
-0.027982
0.367468
-0.0206929
0.373807
-0.0145837
0.379371
-0.00947465
0.384223
-0.00523652
0.388426
-0.00174423
0.392036
0.00109788
0.395114
0.00337862
0.397054
0.00459169
0.398603
0.00550831
0.399838
0.00615314
0.400824
0.00661742
0.401615
0.00695062
0.402256
0.00721736
0.402784
0.0074605
0.403229
0.007718
0.403616
0.00802295
0.403969
0.00840331
0.404308
0.00888266
0.404656
0.00947536
0.405029
0.0102418
0.405441
0.0113086
0.405935
0.0123709
0.406542
0.0136095
0.407274
0.0153486
0.408185
0.0171357
0.409323
0.0190673
0.021311
0.410707
0.104721
-0.341637
-0.048272
0.155106
-0.31012
0.199612
-0.274127
0.238465
-0.243937
0.272111
-0.211927
0.30109
-0.182359
0.325978
-0.155587
0.347342
-0.131535
0.365695
-0.109426
0.381551
-0.0899959
0.395383
-0.0719556
0.407505
-0.0572178
0.418152
-0.0461044
0.427585
-0.0374144
0.43601
-0.0291182
0.443564
-0.0221371
0.450356
-0.016267
0.456473
-0.0113534
0.461982
-0.00725354
0.466942
-0.00386155
0.471403
-0.00108276
0.474444
0.0015511
0.477039
0.00291322
0.479267
0.00392479
0.481198
0.00468712
0.482889
0.00525961
0.484391
0.0057149
0.485749
0.00610299
0.486999
0.00646773
0.488175
0.00684691
0.489307
0.00727176
0.490421
0.00776784
0.491547
0.00834998
0.492706
0.00908252
0.493915
0.0100992
0.495219
0.0110675
0.496646
0.0121822
0.498208
0.0137869
0.499949
0.0153951
0.501907
0.0171088
0.019124
0.504094
0.111572
-0.403556
-0.049653
0.166844
-0.365392
0.215608
-0.322891
0.258106
-0.286435
0.294837
-0.248658
0.326393
-0.213916
0.353406
-0.182599
0.376499
-0.154628
0.396248
-0.129175
0.413213
-0.106961
0.42791
-0.0866521
0.440712
-0.0700201
0.451918
-0.0573099
0.46183
-0.0473263
0.470701
-0.03799
0.478712
-0.0301479
0.486008
-0.0235624
0.4927
-0.018046
0.498877
-0.01343
0.504604
-0.00958873
0.509935
-0.0064141
0.513743
-0.00225686
0.517119
-0.000462992
0.520136
0.000908333
0.522856
0.00196686
0.525336
0.00278014
0.527623
0.00342725
0.529762
0.003964
0.531791
0.00443917
0.533743
0.00489462
0.53565
0.00536466
0.537541
0.00587693
0.539444
0.00644739
0.541382
0.00714421
0.543374
0.00810762
0.545456
0.00898487
0.547656
0.00998291
0.549981
0.0114617
0.552466
0.0129097
0.555141
0.0144344
0.016254
0.558011
0.116963
-0.470157
-0.0503618
0.176418
-0.424847
0.228829
-0.375303
0.274453
-0.332058
0.313834
-0.288039
0.347607
-0.24769
0.376451
-0.211443
0.401036
-0.179213
0.421989
-0.150128
0.439907
-0.124879
0.45534
-0.102085
0.468709
-0.0833891
0.480359
-0.0689591
0.490624
-0.0575923
0.499797
-0.0471621
0.508091
-0.0384419
0.515684
-0.0311561
0.522718
-0.0250797
0.529301
-0.0200132
0.535519
-0.0158061
0.541435
-0.0123309
0.545792
-0.00661384
0.549748
-0.00441913
0.553371
-0.00271366
0.556717
-0.00137983
0.55984
-0.000342707
0.562785
0.000482449
0.565592
0.00115662
0.568298
0.00173294
0.570936
0.00225694
0.573535
0.00276579
0.576123
0.0032893
0.578725
0.0038449
0.581365
0.00450424
0.58406
0.005413
0.58684
0.00620463
0.589727
0.00709548
0.592731
0.00845864
0.595876
0.00976435
0.599185
0.0111252
0.0127756
0.602663
0.123147
-0.541882
-0.0514213
0.187178
-0.488878
0.243592
-0.431716
0.292662
-0.381129
0.334979
-0.330356
0.371228
-0.283938
0.402135
-0.242349
0.428422
-0.2055
0.450767
-0.172473
0.469811
-0.143922
0.486139
-0.118413
0.500216
-0.097466
0.512428
-0.0811716
0.523144
-0.068308
0.532685
-0.056703
0.541299
-0.0470565
0.549195
-0.0390517
0.556539
-0.0324237
0.563465
-0.0269393
0.570078
-0.0224196
0.576461
-0.0187141
0.58126
-0.0114127
0.585687
-0.00884601
0.589807
-0.00683321
0.593676
-0.00524862
0.597343
-0.00400988
0.600852
-0.00302654
0.604241
-0.00223254
0.607544
-0.00157046
0.610793
-0.000991237
0.614013
-0.000454782
0.617231
7.09958e-05
0.620471
0.000605289
0.623753
0.00122277
0.627092
0.00207356
0.630514
0.00278234
0.634037
0.00357242
0.63767
0.00482649
0.641431
0.00600276
0.645339
0.00721757
0.0087168
0.649398
0.130117
-0.6192
-0.0527982
0.199142
-0.557904
0.259932
-0.492507
0.312782
-0.433979
0.358331
-0.375905
0.397315
-0.322922
0.430515
-0.27555
0.458708
-0.233694
0.482629
-0.196394
0.502959
-0.164253
0.520329
-0.135783
0.535245
-0.112382
0.548135
-0.0940612
0.559397
-0.07957
0.569384
-0.0666906
0.578377
-0.0560488
0.586608
-0.0472834
0.594272
-0.0400877
0.601526
-0.0341927
0.608495
-0.0293889
0.615281
-0.0255
0.620457
-0.0165883
0.625282
-0.0136713
0.629822
-0.0113739
0.634135
-0.00956124
0.638268
-0.00814293
0.642264
-0.00702226
0.646159
-0.00612781
0.649986
-0.00539771
0.653774
-0.00477912
0.657548
-0.00422891
0.661332
-0.00371247
0.665146
-0.0032086
0.669009
-0.00263994
0.672935
-0.00185298
0.676945
-0.00122763
0.681053
-0.000535895
0.685269
0.000611488
0.689606
0.00166563
0.694078
0.00274552
0.00410482
0.69869
0.137885
-0.702614
-0.0544716
0.212354
-0.632373
0.277922
-0.558074
0.334905
-0.490962
0.383996
-0.424996
0.425986
-0.364912
0.461718
-0.311281
0.492025
-0.264001
0.517702
-0.222071
0.539481
-0.186032
0.558035
-0.154338
0.573917
-0.128264
0.587595
-0.107739
0.599498
-0.0914737
0.610013
-0.0772053
0.619447
-0.0654832
0.628063
-0.0558988
0.636076
-0.0481012
0.643667
-0.0417838
0.650983
-0.0367046
0.658143
-0.03266
0.663659
-0.0221044
0.668838
-0.0188499
0.673748
-0.0162839
0.678448
-0.0142611
0.682987
-0.012682
0.687407
-0.0114429
0.691746
-0.0104665
0.696034
-0.00968592
0.700299
-0.00904422
0.704565
-0.00849489
0.708854
-0.00800054
0.713183
-0.00753769
0.717569
-0.0070266
0.722028
-0.00631118
0.726573
-0.0057727
0.731217
-0.00518025
0.735969
-0.00414072
0.740841
-0.00320595
0.745842
-0.00225533
-0.00103029
0.750977
0.146482
-0.792667
-0.0564297
0.226882
-0.712772
0.297657
-0.628849
0.359154
-0.552459
0.412119
-0.477961
0.457404
-0.410198
0.495917
-0.349794
0.528556
-0.296641
0.556178
-0.249692
0.579568
-0.209422
0.599451
-0.17422
0.616424
-0.145237
0.630998
-0.122313
0.643637
-0.104113
0.654759
-0.0883276
0.664703
-0.0754266
0.673755
-0.0649508
0.682156
-0.0565028
0.690109
-0.0497363
0.697779
-0.044375
0.705306
-0.0401864
0.711146
-0.0279447
0.716652
-0.0243565
0.721899
-0.0215303
0.726947
-0.0193091
0.731848
-0.0175832
0.736646
-0.016241
0.741378
-0.0151984
0.746075
-0.0143829
0.750764
-0.0137331
0.755468
-0.0131987
0.760207
-0.0127392
0.764997
-0.0123285
0.769856
-0.0118847
0.774794
-0.0112497
0.779825
-0.0108036
0.784959
-0.0103139
0.790204
-0.00938598
0.795569
-0.00857122
0.801062
-0.00774823
-0.00665591
0.806688
0.15595
-0.88995
-0.058667
0.242807
-0.799629
0.319259
-0.705301
0.38568
-0.61888
0.442877
-0.535157
0.491768
-0.459089
0.53333
-0.391356
0.568531
-0.331842
0.598295
-0.279456
0.623468
-0.234595
0.644827
-0.195579
0.663019
-0.163429
0.6786
-0.137893
0.692069
-0.117583
0.70388
-0.100138
0.7144
-0.0859466
0.723943
-0.0744944
0.732776
-0.0653353
0.74112
-0.0580805
0.749163
-0.0524175
0.757059
-0.048083
0.763219
-0.0341042
0.76904
-0.0301777
0.774602
-0.0270925
0.779972
-0.0246784
0.785203
-0.0228143
0.790342
-0.0213798
0.795426
-0.020283
0.800489
-0.0194455
0.805556
-0.0188005
0.810651
-0.0182935
0.815793
-0.0178807
0.820997
-0.0175329
0.826279
-0.0171661
0.83165
-0.0166209
0.83712
-0.0162739
0.842698
-0.0158922
0.848394
-0.0150813
0.854212
-0.0143897
0.86016
-0.0136957
-0.0127374
0.866242
0.166341
-0.995107
-0.0611834
0.260232
-0.893521
0.342871
-0.78794
0.414663
-0.690672
0.47648
-0.596974
0.529312
-0.511921
0.574211
-0.436255
0.612222
-0.369853
0.644341
-0.311575
0.671478
-0.261732
0.694468
-0.218569
0.714013
-0.182974
0.730714
-0.154594
0.74511
-0.131979
0.75769
-0.112718
0.768854
-0.0971113
0.778946
-0.0845857
0.788253
-0.0746427
0.797021
-0.0668489
0.805457
-0.0608531
0.813733
-0.0563594
0.820214
-0.0405848
0.826344
-0.0363074
0.832209
-0.0329574
0.83788
-0.0303497
0.843417
-0.0283509
0.848867
-0.0268302
0.854272
-0.0256876
0.859664
-0.0248374
0.865071
-0.0242074
0.870516
-0.0237383
0.876017
-0.0233823
0.881592
-0.0231072
0.887252
-0.0228267
0.893012
-0.0223804
0.898878
-0.0221396
0.904857
-0.0218719
0.910961
-0.0211849
0.917192
-0.0206211
0.923556
-0.0200594
-0.0192386
0.930057
0.177718
-1.10884
-0.0639828
0.279274
-0.995076
0.368656
-0.877323
0.446306
-0.768323
0.513166
-0.663834
0.570305
-0.569059
0.618856
-0.484806
0.659945
-0.410942
0.694647
-0.346278
0.723942
-0.291027
0.74873
-0.243356
0.769767
-0.204012
0.787706
-0.172532
0.803128
-0.147401
0.816562
-0.126151
0.82844
-0.10899
0.839135
-0.0952806
0.848962
-0.0844692
0.858187
-0.0760744
0.867038
-0.0697038
0.875705
-0.0650267
0.882512
-0.0473913
0.888948
-0.0427432
0.895106
-0.0391159
0.901065
-0.0363081
0.906886
-0.0341725
0.912623
-0.0325673
0.918319
-0.031383
0.924008
-0.0305263
0.929719
-0.0299185
0.935476
-0.0294954
0.941298
-0.0292047
0.947201
-0.0290105
0.953199
-0.0288246
0.959305
-0.0284855
0.965523
-0.028358
0.971862
-0.0282108
0.978332
-0.0276545
0.984935
-0.0272242
0.991675
-0.0267992
-0.0261205
0.998556
0.190157
-1.23193
-0.0670724
0.300066
-1.10498
0.396801
-0.974058
0.480843
-0.852365
0.553209
-0.736199
0.615052
-0.630903
0.667597
-0.537351
0.712056
-0.455401
0.74959
-0.383811
0.781254
-0.322691
0.808016
-0.270119
0.830697
-0.226692
0.85
-0.191836
0.866553
-0.163954
0.880926
-0.140524
0.893589
-0.121653
0.904944
-0.106636
0.915334
-0.0948587
0.925048
-0.0857891
0.934335
-0.0789905
0.943403
-0.0740951
0.950541
-0.0545293
0.957281
-0.0494832
0.963725
-0.0455597
0.969957
-0.0425396
0.976044
-0.0402601
0.982044
-0.0385674
0.988003
-0.0373415
0.993958
-0.0364809
0.999939
-0.0358998
1.00597
-0.035528
1.01208
-0.0353089
1.01827
-0.0352024
1.02456
-0.0351179
1.03097
-0.0348935
1.0375
-0.0348858
1.04415
-0.0348653
1.05094
-0.0344465
1.05788
-0.0341555
1.06495
-0.0338725
-0.0333412
1.07217
0.203742
-1.36521
-0.0704622
0.322759
-1.224
0.427516
-1.07882
0.518534
-0.943383
0.596913
-0.814578
0.663899
-0.697889
0.720811
-0.594263
0.768959
-0.50355
0.809596
-0.424447
0.843857
-0.356953
0.872788
-0.29905
0.897273
-0.251178
0.918075
-0.212637
0.935869
-0.181749
0.951273
-0.155927
0.964793
-0.135173
0.976865
-0.118708
0.987861
-0.105854
0.998095
-0.0960233
1.00784
-0.0887318
1.01731
-0.0835718
1.02479
-0.0620029
1.03183
-0.0565246
1.03855
-0.0522794
1.04504
-0.0490288
1.05137
-0.0465933
1.05761
-0.0448055
1.0638
-0.0435344
1.06999
-0.0426688
1.07621
-0.0421155
1.08248
-0.0417981
1.08882
-0.0416545
1.09526
-0.0416404
1.1018
-0.0416628
1.10847
-0.0415593
1.11526
-0.041677
1.12219
-0.0417887
1.12925
-0.041514
1.13647
-0.0413679
1.14382
-0.0412321
-0.0408537
1.15134
0.218568
-1.50961
-0.0741649
0.347524
-1.35296
0.461036
-1.19233
0.559673
-1.04202
0.644622
-0.899528
0.71723
-0.770496
0.778921
-0.655955
0.831109
-0.555737
0.875144
-0.468483
0.912254
-0.394062
0.943562
-0.330359
0.970028
-0.277643
0.992472
-0.235082
1.01163
-0.200904
1.02816
-0.172457
1.04261
-0.149626
1.05546
-0.131556
1.0671
-0.117498
1.07788
-0.106805
1.08809
-0.0989428
1.09798
-0.0934599
1.10579
-0.0698139
1.11313
-0.0638615
1.12011
-0.0592626
1.12684
-0.0557575
1.1334
-0.0531484
1.13985
-0.0512535
1.14624
-0.049929
1.15263
-0.0490539
1.15904
-0.0485265
1.1655
-0.0482634
1.17204
-0.0481969
1.17868
-0.048278
1.18543
-0.0484109
1.1923
-0.0484328
1.19931
-0.0486805
1.20645
-0.048929
1.21374
-0.0488039
1.22118
-0.0488081
1.22877
-0.0488243
-0.0486042
1.23652
0.234743
-1.66616
-0.0781955
0.374552
-1.49277
0.497627
-1.3154
0.604588
-1.14898
0.69672
-0.99166
0.775478
-0.849255
0.842401
-0.722878
0.899013
-0.612349
0.946773
-0.516243
0.987005
-0.434294
1.02092
-0.364276
1.04956
-0.306278
1.0738
-0.259327
1.09444
-0.221547
1.1122
-0.190213
1.12767
-0.165091
1.14135
-0.145238
1.15368
-0.129832
1.16504
-0.11816
1.17573
-0.109634
1.18603
-0.103756
1.19417
-0.07796
1.20179
-0.0714837
1.20902
-0.0664919
1.21597
-0.062702
1.22272
-0.0598964
1.22934
-0.057877
1.2359
-0.056487
1.24244
-0.0555938
1.249
-0.0550868
1.25561
-0.0548751
1.2623
-0.0548847
1.26908
-0.0550613
1.27598
-0.0553063
1.283
-0.0554566
1.29016
-0.0558372
1.29745
-0.0562259
1.3049
-0.0562552
1.31251
-0.0564139
1.32027
-0.0565864
-0.0565292
1.3282
0.252388
-1.83597
-0.082571
0.404056
-1.64444
0.537583
-1.44893
0.653646
-1.26504
0.753638
-1.09165
0.839128
-0.934745
0.911781
-0.79553
0.973241
-0.67381
1.02509
-0.568087
1.06874
-0.47795
1.10552
-0.401053
1.13653
-0.337293
1.16275
-0.285542
1.18502
-0.243814
1.20411
-0.209305
1.22067
-0.181651
1.23525
-0.159816
1.24831
-0.142896
1.26026
-0.130111
1.27144
-0.120812
1.28213
-0.114452
1.29061
-0.086434
1.2985
-0.079375
1.30595
-0.0739437
1.31308
-0.0698319
1.31998
-0.0668007
1.32674
-0.0646345
1.33342
-0.0631617
1.34006
-0.0622378
1.34671
-0.0617421
1.35342
-0.0615754
1.36019
-0.0616571
1.36705
-0.0619271
1.37403
-0.0622835
1.38114
-0.0625629
1.38838
-0.0630777
1.39576
-0.0636086
1.4033
-0.0637953
1.411
-0.0641118
1.41886
-0.0644439
-0.0645535
1.42688
0.271639
-2.0203
-0.0873107
0.436275
-1.80907
0.581236
-1.59389
0.70726
-1.39107
0.815855
-1.20025
0.908722
-1.02761
0.987654
-0.874463
1.05443
-0.740587
1.11076
-0.624411
1.15817
-0.525362
1.19808
-0.440968
1.23171
-0.370917
1.26008
-0.313915
1.28412
-0.267854
1.30466
-0.229849
1.32241
-0.199393
1.33794
-0.175349
1.35177
-0.156728
1.36434
-0.142674
1.376
-0.132474
1.38707
-0.125527
1.39586
-0.0952219
1.404
-0.0875122
1.41164
-0.081586
1.41892
-0.0771078
1.42593
-0.0738152
1.43277
-0.0714739
1.4395
-0.0698961
1.44619
-0.0689241
1.45288
-0.0684264
1.45959
-0.0682948
1.46638
-0.0684412
1.47325
-0.0687994
1.48023
-0.0692639
1.48734
-0.069671
1.49458
-0.070319
1.50196
-0.070992
1.50951
-0.0713378
1.51721
-0.0718136
1.52507
-0.0723073
-0.0725864
1.53311
0.292645
-2.22051
-0.0924356
0.471475
-1.9879
0.628953
-1.75137
0.765888
-1.528
0.883912
-1.31827
0.984864
-1.12856
1.07069
-0.960285
1.1433
-0.8132
1.20454
-0.685654
1.25608
-0.5769
1.29944
-0.484327
1.33592
-0.4074
1.36666
-0.344648
1.39263
-0.29383
1.41475
-0.25197
1.43377
-0.218409
1.45032
-0.191902
1.46496
-0.171366
1.47815
-0.155863
1.49029
-0.144612
1.50171
-0.136953
1.51079
-0.104302
1.51914
-0.0958629
1.52693
-0.0893769
1.53431
-0.0844794
1.54137
-0.0808824
1.54823
-0.078331
1.55495
-0.07662
1.56161
-0.0755774
1.56824
-0.0750596
1.57489
-0.0749489
1.5816
-0.0751489
1.58839
-0.0755867
1.59528
-0.0761529
1.60229
-0.0766834
1.60943
-0.0774613
1.61672
-0.0782741
1.62416
-0.0787784
1.63176
-0.0794135
1.63952
-0.0800689
-0.0805185
1.64745
0.315575
-2.43812
-0.097969
0.509955
-2.18228
0.68115
-1.92256
0.830045
-1.6769
0.958411
-1.44664
1.06824
-1.23839
1.16162
-1.05367
1.24064
-0.892223
1.30729
-0.752301
1.36336
-0.632969
1.4105
-0.531467
1.45012
-0.447022
1.48344
-0.377967
1.51153
-0.321918
1.53536
-0.275803
1.55575
-0.238797
1.57339
-0.209539
1.58886
-0.186843
1.60269
-0.169685
1.61528
-0.157208
1.62702
-0.148687
1.63636
-0.113644
1.64488
-0.104383
1.65276
-0.0972624
1.66017
-0.0918831
1.66721
-0.0879302
1.67401
-0.0851263
1.68064
-0.0832472
1.68717
-0.0821053
1.69365
-0.0815442
1.70014
-0.0814353
1.70666
-0.0816736
1.71325
-0.0821784
1.71994
-0.0828363
1.72674
-0.0834826
1.73366
-0.0843839
1.74072
-0.0853316
1.74793
-0.0859914
1.7553
-0.0867831
1.76283
-0.0875983
-0.0882177
1.77053
0.340617
-2.6748
-0.103936
0.552049
-2.39372
0.73829
-2.1088
0.900309
-1.83892
1.04003
-1.58636
1.1596
-1.35796
1.2613
-1.15537
1.34737
-0.978292
1.41996
-0.824889
1.48101
-0.694021
1.5323
-0.582764
1.57537
-0.490087
1.61152
-0.414117
1.64191
-0.352312
1.6676
-0.301493
1.68947
-0.26066
1.70825
-0.228325
1.7246
-0.203191
1.73905
-0.184139
1.75208
-0.170231
1.76406
-0.160673
1.77362
-0.123204
1.78226
-0.113018
1.79017
-0.105174
1.79752
-0.0992395
1.80446
-0.0948696
1.8111
-0.0917622
1.81753
-0.0896726
1.82382
-0.088396
1.83003
-0.0877619
1.83623
-0.0876302
1.84244
-0.0878861
1.8487
-0.0884409
1.85504
-0.0891763
1.86149
-0.0899269
1.86805
-0.0909418
1.87473
-0.0920159
1.88156
-0.0928252
1.88855
-0.0937683
1.89569
-0.0947388
-0.0955245
1.903
0.367982
-2.93242
-0.110363
0.59813
-2.62386
0.80089
-2.31156
0.977326
-2.01535
1.12952
-1.73855
1.25981
-1.48825
1.37065
-1.26621
1.46448
-1.07212
1.5436
-0.904018
1.61014
-0.760556
1.66601
-0.638632
1.71286
-0.536936
1.75211
-0.453369
1.78502
-0.385222
1.81272
-0.329198
1.83617
-0.284108
1.85617
-0.248326
1.87342
-0.220435
1.88849
-0.199215
1.9019
-0.183638
1.91406
-0.172835
1.92379
-0.132926
1.93246
-0.121694
1.94031
-0.113025
1.94752
-0.10645
1.95424
-0.101591
1.9606
-0.0981196
1.9667
-0.095768
1.97261
-0.0943133
1.97842
-0.0935695
1.98418
-0.0933838