/*--------------------------------*- C++ -*----------------------------------*\
| =========                 |                                                 |
| \\      /  F ield         | OpenFOAM: The Open Source CFD Toolbox           |
|  \\    /   O peration     | Version:  5.x                                   |
|   \\  /    A nd           | Web:      www.OpenFOAM.org                      |
|    \\/     M anipulation  |                                                 |
\*---------------------------------------------------------------------------*/
FoamFile
{
    version     2.0;
    format      ascii;
    class       volVectorField;
    location    "100";
    object      U;
}
// * * * * * * * * * * * * * * * * * * * * * * * * * * * * * * * * * * * * * //

dimensions      [0 1 -1 0 0 0 0];

internalField   nonuniform List<vector> 
11040
(
(-2.48879 16.211 0)
(-0.0494413 20.4569 -1.28099e-19)
(4.31036 23.1501 1.23185e-17)
(8.51908 22.8412 1.44658e-17)
(11.9251 21.1371 3.2189e-17)
(14.4377 18.7281 -1.59037e-17)
(16.135 16.0291 -1.58599e-17)
(17.1461 13.3041 1.62095e-17)
(17.6003 10.721 3.6994e-17)
(17.5662 8.34438 1.20806e-18)
(16.8196 5.99011 1.83814e-17)
(15.654 4.04094 -1.00357e-18)
(14.687 2.81972 1.61188e-17)
(14.1448 2.15659 1.54006e-17)
(13.6712 1.62937 1.23753e-17)
(13.0661 1.11964 7.38134e-18)
(12.3505 0.659837 -5.87803e-18)
(11.5903 0.268255 -5.01997e-19)
(10.8057 -0.0590255 5.23515e-19)
(9.99497 -0.326305 2.9613e-18)
(9.15122 -0.536033 2.17271e-18)
(8.38579 -0.670079 1.56529e-18)
(7.69719 -0.749227 1.6298e-18)
(7.00822 -0.796648 -2.24484e-20)
(6.31592 -0.815654 -4.94145e-20)
(5.61909 -0.808055 1.09796e-19)
(4.91535 -0.775636 -1.04532e-17)
(4.2035 -0.718718 2.56926e-19)
(3.49048 -0.637902 -2.01864e-17)
(2.78499 -0.542551 2.50371e-17)
(2.05984 -0.435393 4.94348e-19)
(1.32514 -0.307175 3.65322e-19)
(0.633319 -0.165491 -4.70203e-19)
(0.0110315 -0.0267656 0)
(-0.509503 0.0996866 1.63295e-16)
(-0.896276 0.219397 0)
(-1.3579 0.375293 0)
(-2.0438 0.551038 -1.86121e-19)
(-2.76641 0.587372 1.99591e-19)
(-3.02252 0.231299 -7.14799e-17)
(-1.93317 -0.337235 -9.50275e-17)
(0.110954 15.7922 0)
(2.91094 19.001 0)
(8.1579 20.4728 -7.26125e-18)
(12.767 19.9974 7.96291e-18)
(16.2259 18.6737 -1.98897e-17)
(18.7876 17.1314 2.10221e-17)
(20.6156 15.3932 1.0172e-17)
(21.776 13.4877 1.34719e-18)
(22.3467 11.4846 -7.65323e-19)
(22.4254 9.47734 1.16511e-17)
(21.9455 7.38023 -1.31526e-18)
(20.7941 5.54096 0)
(19.3801 4.21103 0)
(18.1456 3.26622 -8.08293e-18)
(17.1419 2.43264 -8.29251e-18)
(16.1901 1.71314 -5.77884e-18)
(15.2409 1.11997 0)
(14.2976 0.629039 2.81378e-19)
(13.3526 0.221188 -7.74252e-19)
(12.3954 -0.111334 -3.9702e-19)
(11.4167 -0.373495 -1.33204e-18)
(10.5277 -0.5509 -8.37272e-19)
(9.74403 -0.664697 -3.18196e-20)
(8.97113 -0.740597 1.22097e-19)
(8.20184 -0.782792 6.38737e-19)
(7.43156 -0.794264 1.03558e-19)
(6.65592 -0.777991 4.91886e-18)
(5.8702 -0.735895 -1.17721e-19)
(5.06967 -0.669886 8.93848e-18)
(4.25162 -0.582905 -1.07808e-17)
(3.42791 -0.47713 -1.32868e-17)
(2.6054 -0.356163 1.64563e-17)
(1.79095 -0.226089 1.62757e-20)
(1.01291 -0.0938762 -5.40015e-19)
(0.312484 0.0337329 -2.81564e-17)
(-0.268636 0.158398 0)
(-0.896169 0.33363 -2.26042e-19)
(-1.5832 0.540341 4.82976e-17)
(-1.97806 0.669155 4.19511e-17)
(-1.71161 0.384011 3.87217e-17)
(-1.37466 -0.592962 6.8593e-17)
(1.51165 15.2691 0)
(4.14719 17.7212 0)
(7.87214 19.137 2.00205e-18)
(11.4526 19.3457 -5.66909e-18)
(14.4366 18.6405 6.05751e-18)
(16.9319 17.3695 -7.71807e-18)
(18.9756 15.7484 -6.2847e-18)
(20.5398 13.9278 0)
(21.6191 12.0127 -1.01834e-17)
(22.245 10.0797 -6.04881e-18)
(22.3896 8.07687 0)
(21.9121 6.29096 0)
(21.0154 4.91197 -6.4365e-18)
(20.0377 3.85601 -5.89093e-18)
(19.0809 2.91331 -6.34718e-19)
(18.0919 2.09543 6.55768e-19)
(17.0711 1.41327 0)
(16.0473 0.845506 0)
(15.0256 0.373925 1.86943e-19)
(13.9978 -0.0109161 -2.49782e-19)
(12.9535 -0.315654 2.54586e-19)
(12.0064 -0.52986 -4.92874e-19)
(11.1723 -0.668605 -7.33933e-20)
(10.3533 -0.763449 5.87845e-20)
(9.54221 -0.820489 -2.64721e-20)
(8.73398 -0.843566 -6.64798e-20)
(7.92361 -0.836149 -6.44548e-20)
(7.106 -0.800811 1.23493e-19)
(6.27667 -0.739904 0)
(5.43274 -0.656055 0)
(4.5771 -0.552287 1.64014e-17)
(3.71495 -0.433701 -1.90016e-17)
(2.85487 -0.306269 1.09072e-17)
(2.01646 -0.177796 0)
(1.22901 -0.0538568 1.46475e-17)
(0.539861 0.0747598 1.6948e-17)
(-0.116848 0.242347 0)
(-0.740321 0.390196 1.74606e-19)
(-1.10114 0.424687 -1.18012e-19)
(-0.938664 0.0920186 0)
(-1.21135 -0.946194 -3.25731e-17)
(2.88295 14.6515 3.09054e-20)
(5.34135 16.575 -2.73202e-20)
(8.24895 17.7621 6.27624e-19)
(11.3502 18.0793 0)
(14.1406 17.5857 -7.21948e-18)
(16.4913 16.5628 0)
(18.4096 15.1964 1.42465e-17)
(19.8934 13.6047 -4.59547e-20)
(20.9565 11.8907 1.43237e-18)
(21.6381 10.1395 9.65349e-18)
(21.9457 8.3294 1.42381e-18)
(21.79 6.6554 3.95978e-18)
(21.2703 5.30527 1.1358e-17)
(20.6181 4.2505 4.65543e-18)
(19.9246 3.31042 0)
(19.1403 2.46643 -8.79773e-19)
(18.2576 1.73599 1.41584e-19)
(17.3129 1.11336 -6.25161e-19)
(16.3299 0.587354 -2.58003e-19)
(15.3153 0.151509 2.62896e-19)
(14.2686 -0.198591 6.50319e-19)
(13.3103 -0.448306 4.69087e-19)
(12.4602 -0.61406 0)
(11.6226 -0.731665 -1.38647e-19)
(10.7923 -0.807783 -3.76464e-19)
(9.96515 -0.8467 7.92683e-19)
(9.13685 -0.852277 -2.45346e-18)
(8.30266 -0.827587 0)
(7.45846 -0.775356 0)
(6.60127 -0.698496 0)
(5.73065 -0.600633 -5.97069e-18)
(4.84881 -0.487095 7.10399e-18)
(3.96162 -0.364565 -2.51516e-19)
(3.0818 -0.241433 -9.10768e-18)
(2.22803 -0.123 -9.60767e-18)
(1.44698 0.00354797 -1.13113e-17)
(0.744066 0.159766 -2.43712e-17)
(0.129091 0.268548 -2.49977e-17)
(-0.313667 0.251755 -9.83304e-20)
(-0.276218 -0.0807168 -2.27119e-17)
(-0.982983 -1.09515 1.3483e-17)
(4.23172 13.948 0)
(6.40388 15.4581 -5.96976e-20)
(8.7303 16.4269 -3.93233e-19)
(11.2813 16.8393 2.17499e-19)
(13.7162 16.6267 5.28059e-18)
(15.8696 15.9193 -5.80788e-18)
(17.7151 14.8309 -1.32179e-18)
(19.2078 13.46 -7.39629e-18)
(20.3182 11.9136 0)
(21.0624 10.2884 -8.89823e-18)
(21.4557 8.5957 0)
(21.453 6.98663 -2.24924e-18)
(21.1201 5.64033 -5.99461e-18)
(20.6401 4.5688 0)
(20.119 3.63081 3.24588e-18)
(19.5262 2.78425 0)
(18.8339 2.03935 0)
(18.0565 1.39309 6.28443e-19)
(17.2101 0.835967 5.25297e-19)
(16.3021 0.363805 0)
(15.3353 -0.024122 -5.28482e-19)
(14.4298 -0.30746 0)
(13.6123 -0.501303 0)
(12.7971 -0.643785 6.56634e-20)
(11.9822 -0.741608 0)
(11.1658 -0.799311 6.08192e-19)
(10.345 -0.820976 1.89404e-18)
(9.51641 -0.810023 0)
(8.67668 -0.769548 0)
(7.82315 -0.702834 0)
(6.9544 -0.613921 4.88652e-18)
(6.07078 -0.508479 4.77422e-18)
(5.17499 -0.393796 -5.78944e-18)
(4.27392 -0.278419 -1.98482e-19)
(3.37695 -0.168457 2.28037e-19)
(2.52108 -0.0524876 0)
(1.74942 0.0850798 1.80201e-17)
(1.09659 0.167346 -1.9153e-17)
(0.541947 0.118706 2.02662e-17)
(0.399596 -0.175221 2.11011e-17)
(-0.548458 -1.11194 2.49218e-20)
(5.47408 13.1883 -8.24615e-20)
(7.34085 14.3702 5.96718e-20)
(9.23392 15.1522 -6.91117e-20)
(11.3089 15.5928 2.56581e-19)
(13.3914 15.5707 -8.67702e-19)
(15.3232 15.1205 5.67317e-18)
(17.0506 14.3094 -6.98746e-18)
(18.5149 13.2007 6.02005e-18)
(19.6615 11.8782 2.96678e-18)
(20.4791 10.4289 -1.52718e-18)
(20.9719 8.88146 0)
(21.1055 7.35475 0)
(20.9157 6.01185 1.40751e-18)
(20.5443 4.90362 -1.48636e-18)
(20.108 3.94366 -5.15212e-18)
(19.6151 3.08566 1.10041e-18)
(19.0452 2.32864 -2.10981e-18)
(18.4032 1.66851 1.02007e-19)
(17.6968 1.09439 -6.74206e-19)
(16.9265 0.600386 1.20295e-18)
(16.0885 0.186444 -1.12502e-18)
(15.2874 -0.12339 3.11681e-19)
(14.5502 -0.34161 -1.21909e-19)
(13.8037 -0.507511 1.81743e-20)
(13.0478 -0.627332 -2.29529e-19)
(12.2822 -0.70537 -1.03448e-20)
(11.5056 -0.745495 -1.74996e-18)
(10.716 -0.751124 -1.81372e-18)
(9.91104 -0.72548 0)
(9.08874 -0.672052 0)
(8.24758 -0.595157 -3.4029e-18)
(7.38698 -0.500713 -8.51579e-18)
(6.50746 -0.396323 -2.97877e-19)
(5.61162 -0.290604 5.16534e-18)
(4.70179 -0.1909 6.05714e-18)
(3.8015 -0.0908299 -6.50849e-18)
(2.96058 0.0203803 2.14288e-19)
(2.23598 0.0788962 2.97082e-17)
(1.56827 0.0092629 -3.22183e-17)
(1.19508 -0.238207 7.01944e-20)
(0.165975 -1.02342 1.29468e-17)
(6.59273 12.3981 0)
(8.17418 13.319 -1.24433e-19)
(9.72993 13.9475 6.48118e-20)
(11.4141 14.3684 1.69517e-19)
(13.1569 14.4638 1.31942e-18)
(14.8407 14.2164 2.143e-18)
(16.4091 13.6519 -4.71077e-18)
(17.8022 12.8017 1.77231e-18)
(18.9541 11.7223 0)
(19.8328 10.4825 2.23999e-18)
(20.4296 9.11593 -4.47412e-18)
(20.708 7.71266 4.51244e-18)
(20.6726 6.40983 -1.74455e-19)
(20.42 5.28235 0)
(20.0596 4.29645 1.10948e-18)
(19.6305 3.41787 1.20629e-19)
(19.1307 2.64003 8.94466e-19)
(18.5671 1.96022 7.3561e-19)
(17.9509 1.36844 -2.9914e-19)
(17.284 0.856757 -3.57097e-19)
(16.5613 0.423339 4.96553e-19)
(15.8685 0.0938239 3.13929e-19)
(15.2277 -0.143089 0)
(14.5747 -0.328001 2.79533e-20)
(13.9084 -0.466947 2.8137e-19)
(13.2282 -0.563981 -4.12941e-19)
(12.5326 -0.622625 4.75512e-19)
(11.8197 -0.646056 1.65459e-18)
(11.0874 -0.637361 -2.78243e-19)
(10.3337 -0.599981 -4.08743e-20)
(9.5567 -0.538236 -2.13286e-18)
(8.75485 -0.457983 -7.76021e-19)
(7.92707 -0.366783 -3.17855e-18)
(7.07294 -0.273181 0)
(6.19021 -0.185437 -4.41321e-18)
(5.29045 -0.103351 5.14412e-18)
(4.41047 -0.022482 -5.43776e-18)
(3.61014 0.0115752 -2.2861e-17)
(2.83819 -0.0709897 1.23446e-17)
(2.2483 -0.274517 5.59204e-20)
(1.16447 -0.878713 -2.68772e-17)
(7.58249 11.5987 5.51393e-19)
(8.91323 12.3134 -1.48175e-19)
(10.1998 12.8165 -1.50509e-19)
(11.5703 13.1923 -4.25322e-19)
(13.0078 13.3463 -8.82449e-19)
(14.4392 13.243 -2.64886e-18)
(15.82 12.881 2.74483e-18)
(17.0994 12.2668 3.79144e-18)
(18.2134 11.4295 -2.68672e-18)
(19.1196 10.4155 0)
(19.7992 9.25416 -1.62307e-18)
(20.2122 8.01132 2.6999e-20)
(20.3377 6.79428 -6.38365e-20)
(20.2278 5.68393 1.55532e-18)
(19.9694 4.68738 1.45425e-18)
(19.6156 3.79243 -1.51036e-18)
(19.1807 2.99336 0)
(18.6765 2.28943 0)
(18.1186 1.67483 1.10198e-18)
(17.5159 1.14226 -9.33278e-19)
(16.8691 0.688883 1.80657e-19)
(16.2545 0.341277 -3.05505e-19)
(15.6909 0.0881382 -1.09449e-19)
(15.1207 -0.112708 0)
(14.5425 -0.26751 1.10233e-19)
(13.9546 -0.380559 -1.12863e-19)
(13.3548 -0.455419 -4.91402e-19)
(12.7405 -0.495246 0)
(12.1088 -0.503073 0)
(11.4568 -0.482255 2.59928e-19)
(10.7813 -0.436976 2.30885e-18)
(10.0791 -0.372806 2.26614e-18)
(9.3468 -0.29696 5.30418e-18)
(8.58108 -0.217696 3.78444e-19)
(7.77609 -0.143624 0)
(6.93469 -0.0794817 -2.31773e-19)
(6.07511 -0.0277431 4.23715e-18)
(5.23985 -0.0185628 -2.43489e-20)
(4.39558 -0.108092 9.68632e-18)
(3.64342 -0.284811 1.06093e-17)
(2.49759 -0.71161 1.24658e-17)
(8.44683 10.8082 -3.38864e-19)
(9.56418 11.3612 -3.38598e-21)
(10.6327 11.7619 2.48068e-19)
(11.7526 12.0831 -3.18659e-19)
(12.9289 12.255 0)
(14.1226 12.2425 8.97759e-19)
(15.3059 12.0317 -1.71665e-18)
(16.4418 11.6142 -2.28085e-18)
(17.4768 10.9981 1.70549e-18)
(18.3686 10.2082 2.18422e-18)
(19.0932 9.26343 1.29299e-19)
(19.6096 8.20777 -4.47706e-18)
(19.8804 7.11871 0)
(19.9214 6.06923 1.03818e-18)
(19.7898 5.09134 -2.40183e-18)
(19.536 4.19639 -1.0276e-18)
(19.1841 3.38579 -9.17765e-19)
(18.75 2.66211 9.50329e-19)
(18.2513 2.02432 -3.60164e-19)
(17.7022 1.46809 0)
(17.1095 0.991895 4.80696e-19)
(16.5474 0.624219 -7.10181e-19)
(16.035 0.353566 1.9267e-19)
(15.5219 0.136317 -7.78243e-20)
(15.0079 -0.033955 1.78055e-19)
(14.4923 -0.161963 -1.82093e-19)
(13.9737 -0.251595 0)
(13.4498 -0.306246 1.32624e-18)
(12.9179 -0.329136 6.41634e-19)
(12.3747 -0.323716 3.59927e-19)
(11.8164 -0.294122 -1.76716e-18)
(11.2385 -0.245654 -5.20489e-19)
(10.6355 -0.18509 4.97575e-19)
(10.0008 -0.120302 -3.07642e-19)
(9.32506 -0.0599199 -1.93488e-18)
(8.6041 -0.0115352 -3.43698e-19)
(7.84015 0.0173179 0)
(7.05111 0.00593211 6.62466e-18)
(6.2069 -0.0850386 -7.20198e-18)
(5.38578 -0.245558 -7.85204e-18)
(4.2077 -0.541495 0)
(9.19366 10.0417 0)
(10.1322 10.4684 0)
(11.0227 10.7856 0)
(11.9418 11.0516 9.94669e-19)
(12.9019 11.2167 -1.90172e-19)
(13.8845 11.2535 -6.11716e-20)
(14.8766 11.1454 -2.91695e-19)
(15.8552 10.878 -2.92971e-19)
(16.781 10.4473 9.96356e-19)
(17.6185 9.86126 1.42205e-18)
(18.3447 9.12759 -1.39825e-18)
(18.9211 8.27069 1.83089e-18)
(19.3031 7.34066 -1.53002e-19)
(19.4817 6.39427 1.74112e-18)
(19.4848 5.47238 -3.16634e-18)
(19.3494 4.60366 2.51436e-18)
(19.1003 3.79998 1.37721e-18)
(18.7555 3.06905 -1.4231e-18)
(18.3327 2.41513 5.6482e-19)
(17.8481 1.83808 0)
(17.3124 1.33884 6.38358e-19)
(16.7978 0.949622 -4.73239e-19)
(16.3261 0.659571 -1.37303e-20)
(15.8543 0.423943 1.79032e-20)
(15.3845 0.236348 1.32253e-19)
(14.9181 0.0918289 0)
(14.4553 -0.0137626 0)
(13.9959 -0.0840497 -3.80493e-19)
(13.5388 -0.122464 -2.54504e-18)
(13.0824 -0.132586 -1.21532e-18)
(12.6241 -0.118526 1.42622e-18)
(12.1602 -0.0853209 4.09876e-19)
(11.6852 -0.0392527 -2.16717e-18)
(11.1921 0.0123135 -4.79793e-19)
(10.6696 0.0609822 3.02056e-18)
(10.1088 0.0980335 -5.25124e-19)
(9.50089 0.113705 -2.26368e-18)
(8.84444 0.0926189 3.03207e-19)
(8.10092 0.0090299 4.87639e-18)
(7.33369 -0.130173 0)
(6.21895 -0.34926 0)
(9.83316 9.31116 0)
(10.6225 9.63963 0)
(11.3669 9.88857 -1.39649e-19)
(12.1243 10.1036 -1.01286e-18)
(12.9081 10.2494 0)
(13.7112 10.3067 -3.30381e-19)
(14.5302 10.2619 3.24574e-19)
(15.353 10.1001 0)
(16.154 9.81212 -1.39676e-18)
(16.9074 9.39588 2.76188e-19)
(17.5951 8.85111 -2.76936e-19)
(18.1852 8.18676 1.06235e-18)
(18.6337 7.42997 -1.30288e-18)
(18.9182 6.61855 0)
(19.0441 5.7898 -2.02564e-18)
(19.0303 4.97939 2.33588e-18)
(18.8953 4.20807 0)
(18.6549 3.48955 0)
(18.3253 2.83356 3.31559e-19)
(17.9224 2.24495 -1.35358e-18)
(17.4582 1.72796 5.92453e-19)
(17.0007 1.31939 0)
(16.5741 1.01024 -1.03937e-19)
(16.1438 0.755482 1.7074e-19)
(15.7136 0.549073 -6.773e-20)
(15.2864 0.386109 1.68836e-19)
(14.8646 0.262359 0)
(14.4496 0.174079 0)
(14.0424 0.117725 -4.27954e-19)
(13.6433 0.0896823 1.95205e-18)
(13.2521 0.0859664 -1.10841e-18)
(12.8675 0.101926 1.17497e-18)
(12.4866 0.131957 6.54916e-19)
(12.1043 0.169521 0)
(11.7119 0.207021 1.15371e-18)
(11.3001 0.236088 -1.43266e-20)
(10.8562 0.247129 3.92409e-18)
(10.3701 0.228767 0)
(9.79839 0.163704 -3.88083e-18)
(9.1874 0.0592145 4.22756e-18)
(8.26532 -0.107955 0)
(10.3761 8.62547 0)
(11.0412 8.87749 -7.8904e-19)
(11.665 9.07108 6.86846e-19)
(12.2915 9.24122 0)
(12.9327 9.36285 6.3079e-19)
(13.587 9.42347 -6.42094e-19)
(14.2564 9.41322 -7.05818e-19)
(14.9361 9.31989 -5.14733e-19)
(15.6109 9.1333 8.59037e-19)
(16.2643 8.84776 1.73745e-18)
(16.8845 8.45847 -1.71767e-18)
(17.4478 7.96456 -5.17139e-19)
(17.9169 7.37643 1.28996e-18)
(18.2652 6.71471 -6.26867e-19)
(18.4849 6.00674 2.39417e-18)
(18.5788 5.28553 -1.53761e-18)
(18.5551 4.5753 -6.38125e-19)
(18.4242 3.8941 -2.94959e-19)
(18.198 3.25616 -8.81797e-19)
(17.8903 2.67123 1.77888e-18)
(17.5126 2.14731 -8.26504e-19)
(17.1251 1.72609 -1.23098e-20)
(16.7541 1.40164 -3.18764e-20)
(16.3738 1.12991 0)
(15.989 0.905544 -2.81021e-19)
(15.604 0.723965 7.90113e-20)
(15.2222 0.581116 6.70272e-19)
(14.8461 0.473302 -4.72897e-19)
(14.478 0.396992 1.36384e-18)
(14.1195 0.348606 -7.15222e-19)
(13.7721 0.324343 0)
(13.4362 0.31997 -1.45024e-18)
(13.1115 0.330637 -5.14955e-19)
(12.796 0.35085 5.92829e-19)
(12.4846 0.374331 -3.68852e-18)
(12.1715 0.394228 -6.54741e-19)
(11.8464 0.402751 -1.37282e-18)
(11.4995 0.392381 1.42652e-18)
(11.0943 0.351293 1.50221e-18)
(10.6604 0.288176 -3.08083e-18)
(9.99872 0.173278 -1.05121e-19)
(10.8333 7.99062 0)
(11.3944 8.18321 4.52154e-20)
(11.9183 8.33216 6.22107e-19)
(12.4382 8.46417 1.95629e-18)
(12.9643 8.56137 -1.38125e-18)
(13.4974 8.61597 9.73356e-20)
(14.0418 8.6216 -1.55392e-19)
(14.5969 8.56934 -1.12197e-18)
(15.1544 8.45041 -2.11426e-19)
(15.705 8.25836 -4.81956e-19)
(16.2424 7.98739 1.18719e-18)
(16.7508 7.63203 -9.58892e-19)
(17.2019 7.19251 -5.2835e-19)
(17.5717 6.67678 5.37422e-19)
(17.8468 6.10118 0)
(18.0202 5.49056 0)
(18.0906 4.86675 2.25912e-18)
(18.0609 4.24852 5.24699e-20)
(17.9377 3.65225 -1.59727e-18)
(17.7304 3.09104 8.78918e-20)
(17.448 2.5761 -3.71032e-19)
(17.1405 2.15334 5.23538e-19)
(16.8343 1.82096 -1.70654e-19)
(16.513 1.53759 0)
(16.1823 1.29901 -4.10464e-20)
(15.8468 1.1013 5.74211e-19)
(15.5107 0.940829 -7.51552e-19)
(15.1772 0.814134 9.46597e-19)
(14.8491 0.717868 -6.9904e-19)
(14.5286 0.648636 0)
(14.2177 0.602882 6.89192e-19)
(13.9177 0.576787 1.58267e-18)
(13.6294 0.566177 -8.10921e-19)
(13.3525 0.566525 9.34416e-19)
(13.0844 0.572885 5.31805e-19)
(12.8225 0.580216 -1.00711e-18)
(12.5612 0.583054 1.59841e-18)
(12.2939 0.577083 -1.1306e-18)
(11.9976 0.555062 -8.80108e-19)
(11.6893 0.525248 -1.47517e-19)
(11.2492 0.461426 2.43774e-18)
(11.2151 7.41007 -7.6845e-19)
(11.6891 7.55647 -2.63251e-18)
(12.1298 7.66966 2.56485e-18)
(12.5625 7.77008 0)
(12.9954 7.8449 -1.26536e-19)
(13.4305 7.88944 0)
(13.8725 7.89989 -3.53069e-18)
(14.3229 7.87021 2.49581e-18)
(14.7778 7.79365 9.39533e-19)
(15.2322 7.66456 -9.32578e-19)
(15.6838 7.47806 -4.87842e-20)
(16.1232 7.22744 -7.63354e-21)
(16.5306 6.90806 4.5887e-19)
(16.8873 6.52038 7.68086e-19)
(17.1801 6.07215 1.03391e-19)
(17.3983 5.57899 -8.83145e-19)
(17.5347 5.05695 7.43572e-19)
(17.5861 4.52192 -9.25751e-19)
(17.5534 3.98941 0)
(17.4409 3.47342 -5.16954e-19)
(17.2538 2.9867 2.86025e-19)
(17.0295 2.57723 2.84772e-19)
(16.7933 2.24767 1.52853e-21)
(16.5367 1.96108 0)
(16.2659 1.71479 3.34303e-20)
(15.986 1.50602 5.88545e-20)
(15.7014 1.33187 0)
(15.4158 1.18937 0)
(15.1322 1.07555 2.99571e-21)
(14.853 0.987322 0)
(14.5802 0.92154 -8.32387e-19)
(14.3155 0.874884 0)
(14.0597 0.843839 1.35093e-18)
(13.8132 0.824726 -1.40704e-18)
(13.5746 0.813683 0)
(13.3427 0.807109 8.15766e-19)
(13.1149 0.801418 -8.56625e-19)
(12.8875 0.794149 4.31892e-19)
(12.6485 0.781602 1.38196e-18)
(12.4072 0.769622 -1.23589e-19)
(12.1024 0.741928 -2.90728e-18)
(11.5315 6.88509 2.04336e-18)
(11.9321 6.99562 7.52069e-20)
(12.3033 7.08034 -1.13196e-18)
(12.6642 7.15508 -2.04648e-18)
(13.0214 7.21057 -4.36638e-18)
(13.3773 7.24408 5.03135e-18)
(13.7364 7.25354 -2.76536e-19)
(14.1009 7.23502 -2.10824e-18)
(14.4692 7.18371 3.82982e-18)
(14.8392 7.0953 -4.37858e-19)
(15.2105 6.96604 -1.41293e-18)
(15.5783 6.78995 2.67843e-19)
(15.9293 6.5611 -9.49143e-20)
(16.2508 6.27653 2.85177e-19)
(16.532 5.93858 -3.42813e-20)
(16.7628 5.55563 0)
(16.9339 5.13752 7.28434e-19)
(17.0391 4.69549 -5.90776e-19)
(17.0749 4.24186 -4.17401e-19)
(17.0413 3.78908 6.28089e-19)
(16.9395 3.34929 -2.03948e-19)
(16.7941 2.96923 -1.5321e-20)
(16.6268 2.65543 -1.26129e-21)
(16.4356 2.37659 -5.47745e-19)
(16.2266 2.1317 1.28119e-18)
(16.0045 1.9193 -7.88305e-19)
(15.7741 1.7376 1.04754e-18)
(15.5393 1.58447 -1.28797e-18)
(15.3031 1.45753 -1.67378e-18)
(15.068 1.35424 1.51656e-18)
(14.8361 1.27197 4.47956e-19)
(14.6089 1.20797 7.70898e-19)
(14.3875 1.15941 -2.39021e-18)
(14.1724 1.12342 2.2822e-18)
(13.9629 1.09704 -1.17872e-18)
(13.7583 1.07771 -6.36637e-19)
(13.5576 1.06308 0)
(13.3585 1.05145 -7.08249e-19)
(13.1552 1.04103 -7.38377e-19)
(12.9531 1.03497 -7.59119e-19)
(12.722 1.02434 7.93665e-19)
(11.7913 6.41511 2.64246e-21)
(12.1299 6.49771 2.75913e-19)
(12.4429 6.55993 9.95284e-19)
(12.7444 6.61419 -1.75455e-18)
(13.0399 6.65365 6.92378e-18)
(13.3319 6.67682 -5.74013e-18)
(13.6242 6.6827 7.21682e-18)
(13.9191 6.6688 3.39236e-18)
(14.2163 6.63184 -1.83642e-18)
(14.515 6.56875 -6.0867e-19)
(14.816 6.47685 -3.67369e-18)
(15.117 6.35165 1.85704e-19)
(15.4095 6.18762 0)
(15.6853 5.98086 -1.6585e-19)
(15.9369 5.7311 2.66742e-19)
(16.1563 5.44204 -3.95928e-19)
(16.3351 5.11878 0)
(16.4663 4.76808 2.96877e-19)
(16.5448 4.39833 -7.18508e-19)
(16.5678 4.01898 2.57674e-19)
(16.5334 3.63993 -6.1401e-19)
(16.4548 3.30325 6.99543e-19)
(16.3492 3.01781 3.50137e-20)
(16.2187 2.75845 -1.69886e-20)
(16.0683 2.52553 1.48488e-18)
(15.9025 2.31884 -1.50129e-18)
(15.7254 2.13767 5.53409e-20)
(15.5409 1.98087 1.2898e-19)
(15.352 1.8469 -1.26848e-18)
(15.1613 1.73399 1.45159e-18)
(14.9708 1.64016 -1.82255e-19)
(14.7821 1.56331 1.98858e-19)
(14.5964 1.50133 -8.82473e-19)
(14.4143 1.45205 4.08787e-19)
(14.2356 1.41327 1.93549e-18)
(14.0603 1.38318 -4.83185e-19)
(13.888 1.36023 5.44775e-19)
(13.7175 1.34305 -1.10091e-18)
(13.546 1.33058 5.75917e-19)
(13.3767 1.3241 6.06918e-19)
(13.1944 1.31797 0)
(12.0024 5.99733 -3.12329e-18)
(12.2885 6.05811 5.57064e-18)
(12.5522 6.1028 5.16682e-18)
(12.8043 6.14114 -1.35821e-17)
(13.0493 6.16793 5.02435e-18)
(13.2893 6.18239 -1.0151e-17)
(13.5277 6.18418 8.13551e-18)
(13.7667 6.17174 -1.16989e-17)
(14.0064 6.14284 1.04784e-17)
(14.2468 6.09537 -4.19155e-19)
(14.4889 6.02755 -4.16541e-18)
(14.7316 5.93607 -3.62706e-19)
(14.9701 5.81665 -2.92192e-18)
(15.1988 5.66571 2.89267e-18)
(15.4131 5.48207 -2.09621e-18)
(15.6074 5.26703 2.25779e-18)
(15.7752 5.02276 0)
(15.9104 4.75275 -1.4741e-18)
(16.008 4.46202 1.83671e-18)
(16.0641 4.15688 -1.77391e-18)
(16.0754 3.84438 -1.59046e-19)
(16.0467 3.55961 3.0843e-18)
(15.9905 3.31197 8.68889e-20)
(15.9108 3.08205 -1.26157e-18)
(15.8114 2.8711 -2.42715e-24)
(15.6958 2.67977 0)
(15.5675 2.50822 -1.85325e-18)
(15.4299 2.35611 1.83434e-18)
(15.2857 2.22271 0)
(15.1372 2.107 -1.39991e-19)
(14.9865 2.00775 0)
(14.8352 1.9236 1.36215e-18)
(14.6844 1.85309 -1.54413e-18)
(14.5352 1.79472 -1.52376e-18)
(14.3876 1.74686 3.12941e-18)
(14.242 1.70831 -1.81095e-18)
(14.0988 1.67801 -2.13653e-19)
(13.9572 1.65482 4.47119e-19)
(13.8162 1.63793 -4.63765e-19)
(13.6775 1.62767 0)
(13.5342 1.62006 -4.80239e-19)
(12.165 5.64482 0)
(12.4084 5.68943 -7.58452e-18)
(12.6322 5.72139 3.91231e-19)
(12.8448 5.74819 1.00347e-17)
(13.0498 5.7657 6.04821e-18)
(13.2492 5.77366 -6.22835e-18)
(13.446 5.77206 5.56668e-18)
(13.6419 5.75992 5.26729e-18)
(13.8374 5.7357 9.73473e-18)
(14.0326 5.69795 -1.23136e-17)
(14.2286 5.64544 1.18981e-18)
(14.425 5.57582 1.12888e-18)
(14.6186 5.48578 -3.73686e-18)
(14.8061 5.37251 2.71232e-18)
(14.9844 5.23477 3.7186e-18)
(15.1497 5.07282 -2.82281e-18)
(15.2975 4.88742 -3.17659e-18)
(15.4233 4.68024 3.27569e-18)
(15.5226 4.4541 0)
(15.592 4.21289 3.75487e-19)
(15.6279 3.96128 3.76881e-19)
(15.6303 3.72708 2.82739e-18)
(15.6077 3.51902 -5.76717e-18)
(15.5646 3.3223 3.00649e-18)
(15.5035 3.13847 1.66626e-18)
(15.4272 2.96861 4.56945e-20)
(15.3384 2.81335 -1.78408e-18)
(15.2396 2.67289 2.89836e-20)
(15.1331 2.54706 2.11493e-21)
(15.0211 2.43541 2.24842e-18)
(14.9052 2.33729 -2.27436e-18)
(14.7869 2.25191 -1.25749e-18)
(14.6676 2.17838 1.34319e-18)
(14.548 2.11572 -1.37687e-18)
(14.4288 2.06282 1.20247e-18)
(14.3105 2.01891 1.11069e-18)
(14.1936 1.98324 -5.55834e-19)
(14.0781 1.95488 1.9604e-19)
(13.9637 1.93317 0)
(13.8514 1.91805 0)
(13.7386 1.90677 5.25285e-21)
(12.286 5.36057 -3.52488e-18)
(12.4959 5.39365 3.92835e-18)
(12.6885 5.41654 -1.63416e-18)
(12.8705 5.435 -3.11322e-18)
(13.0449 5.44572 0)
(13.2135 5.44876 5.83766e-18)
(13.3788 5.44432 -1.377e-17)
(13.5424 5.43175 8.49919e-18)
(13.7047 5.40998 -2.69482e-18)
(13.866 5.37798 2.38444e-18)
(14.0273 5.33494 -1.13602e-18)
(14.1884 5.27919 -1.01075e-17)
(14.3473 5.20828 1.76791e-17)
(14.5017 5.12004 -7.56737e-18)
(14.6496 5.01337 -8.74508e-19)
(14.7886 4.88817 -3.6036e-18)
(14.9154 4.74457 1.08681e-17)
(15.0267 4.58332 -4.7371e-18)
(15.1192 4.40595 -7.0616e-18)
(15.1898 4.21485 2.92024e-18)
(15.2356 4.01302 -7.98722e-19)
(15.2543 3.82212 0)
(15.2517 3.64965 0)
(15.2318 3.48425 -3.49573e-18)
(15.1965 3.32742 3.50047e-18)
(15.1476 3.18034 5.39098e-20)
(15.0873 3.04382 0)
(15.0174 2.91833 2.05168e-18)
(14.9399 2.80402 -2.05727e-18)
(14.8563 2.70081 1.65065e-20)
(14.768 2.6084 -1.82483e-20)
(14.6766 2.5264 0)
(14.5829 2.4543 1.18354e-18)
(14.488 2.39148 -1.25039e-18)
(14.3925 2.3372 1.62807e-19)
(14.297 2.29095 -1.68476e-19)
(14.2022 2.25227 0)
(14.1082 2.2204 -1.7904e-19)
(14.0153 2.19484 -3.71939e-19)
(13.924 2.17538 1.81435e-19)
(13.8339 2.16024 5.65984e-19)
(12.378 5.12872 0)
(12.561 5.15335 0)
(12.7287 5.16959 -6.10968e-18)
(12.8866 5.18196 -1.17763e-17)
(13.0369 5.18774 1.78994e-17)
(13.1816 5.1872 -1.40598e-17)
(13.3226 5.18063 -5.26884e-18)
(13.4613 5.16761 1.10734e-17)
(13.5982 5.14735 -1.05361e-17)
(13.7336 5.11913 1.04988e-17)
(13.8683 5.08239 0)
(14.0023 5.03591 0)
(14.1341 4.9779 9.25878e-18)
(14.2623 4.90672 -1.81477e-17)
(14.3856 4.82152 1.72354e-17)
(14.5022 4.72209 -8.37206e-18)
(14.6099 4.60835 -1.04642e-18)
(14.7062 4.4806 9.06177e-18)
(14.7887 4.33968 -6.15358e-18)
(14.8551 4.18706 0)
(14.9028 4.02465 4.19662e-19)
(14.9288 3.86924 0)
(14.9372 3.72702 -3.94673e-18)
(14.9314 3.58915 7.71283e-18)
(14.9127 3.45696 -3.76488e-18)
(14.8824 3.33153 0)
(14.842 3.21369 0)
(14.793 3.10398 1.94984e-18)
(14.7368 3.00273 -2.08262e-18)
(14.6747 2.91002 -2.20644e-18)
(14.6079 2.82581 2.22285e-18)
(14.5375 2.74993 2.33444e-18)
(14.4644 2.6821 -2.34218e-18)
(14.3895 2.62198 0)
(14.3133 2.56903 -1.96989e-20)
(14.2366 2.52295 0)
(14.1599 2.48345 -5.13505e-21)
(14.0836 2.44992 -2.09298e-20)
(14.0079 2.42196 7.28695e-19)
(13.9333 2.39939 -1.0336e-18)
(13.8602 2.38106 3.41338e-19)
(12.4492 4.93613 0)
(12.6103 4.95442 -7.45884e-19)
(12.7577 4.96572 0)
(12.8959 4.97359 5.67734e-18)
(13.0269 4.97575 -5.56987e-18)
(13.1524 4.9726 0)
(13.2741 4.9645 5.35922e-18)
(13.3931 4.95114 5.11607e-18)
(13.5101 4.93195 -1.3483e-17)
(13.6252 4.90642 0)
(13.7391 4.87413 1.00027e-17)
(13.8519 4.83422 -1.99027e-17)
(13.9625 4.78535 9.87379e-18)
(14.0699 4.72632 0)
(14.1733 4.65647 -9.01426e-18)
(14.2713 4.57562 1.00406e-17)
(14.3625 4.48363 9.42049e-18)
(14.4449 4.38061 -1.04147e-17)
(14.5169 4.26706 -9.52316e-19)
(14.5767 4.14389 0)
(14.6223 4.01234 0)
(14.6507 3.88546 -5.12734e-19)
(14.6645 3.76826 2.30338e-19)
(14.667 3.65377 3.97895e-18)
(14.6588 3.54307 3.1378e-19)
(14.6408 3.43711 -3.99421e-18)
(14.6142 3.33662 4.129e-18)
(14.5802 3.24214 -3.99687e-18)
(14.5397 3.15401 -2.41556e-18)
(14.4938 3.07243 2.13953e-18)
(14.4435 2.99747 -2.22968e-18)
(14.3895 2.92908 2.22559e-18)
(14.3328 2.86714 0)
(14.2739 2.81145 -2.5113e-18)
(14.2135 2.76165 2.37563e-18)
(14.1522 2.71755 0)
(14.0905 2.67897 4.77437e-21)
(14.0287 2.64544 6.51001e-19)
(13.9671 2.61666 -6.6914e-19)
(13.9063 2.59245 3.04369e-19)
(13.8465 2.57212 -3.16253e-19)
(12.5054 4.77375 0)
(12.6482 4.78722 6.89297e-19)
(12.7787 4.7948 -5.50311e-18)
(12.9006 4.7993 1.0679e-17)
(13.0157 4.7988 -2.1477e-17)
(13.1255 4.79378 1.07877e-17)
(13.2315 4.78461 0)
(13.3347 4.77109 5.14283e-18)
(13.4356 4.75279 3.07652e-17)
(13.5345 4.72932 -2.07105e-17)
(13.6318 4.70042 0)
(13.7277 4.66543 -2.54507e-18)
(13.8215 4.62336 7.19113e-18)
(13.9122 4.57331 -2.15968e-19)
(13.9994 4.51483 -9.52847e-18)
(14.0822 4.44775 1.02742e-17)
(14.1594 4.37197 -8.92708e-18)
(14.2297 4.28753 8.5022e-18)
(14.2918 4.19474 -8.53609e-18)
(14.3444 4.09419 -8.35241e-18)
(14.386 3.98673 7.19484e-18)
(14.4139 3.88258 -3.60296e-18)
(14.4301 3.78574 4.56586e-18)
(14.437 3.69065 -4.31331e-18)
(14.4351 3.59817 -8.06948e-19)
(14.4252 3.50908 4.08e-18)
(14.4082 3.42399 0)
(14.3847 3.34339 0)
(14.3557 3.26759 -4.0091e-18)
(14.3219 3.19682 4.25376e-18)
(14.2841 3.13118 0)
(14.2429 3.07069 2.80124e-19)
(14.199 3.01533 2.83382e-19)
(14.1531 2.96497 2.41836e-18)
(14.1055 2.91936 -2.41644e-18)
(14.0568 2.8784 -1.16844e-18)
(14.0074 2.84198 1.16428e-18)
(13.9576 2.80973 -4.48026e-19)
(13.9078 2.78141 1.19879e-18)
(13.8583 2.75689 -5.82221e-19)
(13.8095 2.7358 -7.47973e-20)
(12.5504 4.63515 5.11684e-18)
(12.6776 4.64491 6.22082e-18)
(12.7938 4.64966 -1.29169e-19)
(12.902 4.65163 0)
(13.0038 4.64918 0)
(13.1006 4.64283 0)
(13.1936 4.63296 0)
(13.2838 4.61942 -2.00226e-17)
(13.3716 4.60192 3.53296e-17)
(13.4572 4.58016 -2.02291e-17)
(13.5412 4.55394 1.97027e-17)
(13.6234 4.52279 -1.24961e-17)
(13.7035 4.48597 2.1704e-17)
(13.7807 4.44282 -2.6553e-17)
(13.8548 4.393 9.60189e-18)
(13.925 4.33643 6.94263e-18)
(13.9905 4.27302 -9.076e-18)
(14.0504 4.20281 1.06479e-18)
(14.1037 4.12599 -1.11281e-18)
(14.1495 4.043 1.07445e-17)
(14.1865 3.95442 9.41516e-18)
(14.2125 3.86834 -1.56026e-17)
(14.229 3.78795 -4.96982e-19)
(14.238 3.70877 0)
(14.2399 3.63146 4.97717e-19)
(14.2352 3.55665 -5.28465e-19)
(14.2245 3.48485 -3.63552e-18)
(14.2084 3.41644 4.14944e-18)
(14.1877 3.35171 -4.22282e-18)
(14.1628 3.29086 4.20671e-18)
(14.1345 3.23401 4.29242e-18)
(14.1031 3.18121 -4.53936e-18)
(14.0693 3.13246 -2.66566e-19)
(14.0335 3.08769 2.20293e-18)
(13.9962 3.04673 -1.77817e-18)
(13.9577 3.00952 0)
(13.9183 2.97598 0)
(13.8785 2.94584 -1.4004e-19)
(13.8384 2.91892 2.86575e-19)
(13.7984 2.89511 2.88092e-19)
(13.7587 2.87425 6.97682e-20)
(12.5867 4.5156 0)
(12.7006 4.52248 -1.1873e-18)
(12.8045 4.52506 9.49014e-18)
(12.9011 4.52512 -9.67923e-18)
(12.9917 4.52124 -1.90702e-17)
(13.0774 4.51397 1.95357e-17)
(13.1596 4.50368 9.4584e-18)
(13.239 4.49028 -1.96306e-17)
(13.3159 4.47353 -1.92952e-17)
(13.3905 4.45324 1.96077e-17)
(13.4634 4.42925 0)
(13.5345 4.40122 -9.63621e-18)
(13.6033 4.3686 1.90252e-17)
(13.6696 4.33089 -2.14831e-17)
(13.7328 4.28788 0)
(13.7927 4.23952 -2.3586e-18)
(13.8485 4.18576 2.30382e-18)
(13.8996 4.12664 0)
(13.9452 4.06231 1.05978e-18)
(13.9847 3.9931 -2.09323e-18)
(14.0172 3.91943 9.56223e-18)
(14.0408 3.84777 -9.39252e-18)
(14.0566 3.78066 1.05604e-18)
(14.0663 3.71446 7.72479e-18)
(14.0702 3.64968 -7.68158e-18)
(14.0687 3.5868 5.00578e-19)
(14.0622 3.52624 -4.6316e-18)
(14.0513 3.4683 4.11037e-18)
(14.0365 3.41323 5.264e-19)
(14.0182 3.36119 0)
(13.9969 3.31229 0)
(13.973 3.26658 0)
(13.947 3.22408 -2.11823e-18)
(13.9191 3.18475 2.10838e-18)
(13.8898 3.14846 -2.62754e-19)
(13.8594 3.11517 -2.15058e-18)
(13.8282 3.08485 2.41108e-18)
(13.7964 3.05727 0)
(13.7642 3.0323 4.10057e-21)
(13.7319 3.00985 -5.43501e-19)
(13.6997 2.98991 2.63984e-19)
(12.6163 4.41154 4.40488e-18)
(12.7186 4.41618 0)
(12.812 4.41711 -2.2092e-17)
(12.8986 4.41572 1.81247e-17)
(12.9795 4.41081 0)
(13.0558 4.40293 1.81822e-17)
(13.1288 4.39243 -1.63223e-19)
(13.199 4.37927 1.84666e-17)
(13.2667 4.36326 -2.82689e-17)
(13.3323 4.34426 -1.86167e-17)
(13.3959 4.32218 1.89161e-17)
(13.4577 4.29676 4.62127e-18)
(13.5173 4.26759 0)
(13.5744 4.2343 0)
(13.6287 4.19676 -4.68773e-18)
(13.68 4.15496 2.04857e-17)
(13.7277 4.10888 -4.03269e-17)
(13.7714 4.05857 1.76615e-17)
(13.8105 4.00415 2.20349e-18)
(13.8445 3.9459 2.1795e-18)