/*--------------------------------*- C++ -*----------------------------------*\
| =========                 |                                                 |
| \\      /  F ield         | OpenFOAM: The Open Source CFD Toolbox           |
|  \\    /   O peration     | Version:  5.x                                   |
|   \\  /    A nd           | Web:      www.OpenFOAM.org                      |
|    \\/     M anipulation  |                                                 |
\*---------------------------------------------------------------------------*/
FoamFile
{
    version     2.0;
    format      ascii;
    class       volVectorField;
    location    "100";
    object      U;
}
// * * * * * * * * * * * * * * * * * * * * * * * * * * * * * * * * * * * * * //

dimensions      [0 1 -1 0 0 0 0];

internalField   nonuniform List<vector> 
11040
(
(-3.43471 22.1534 0)
(-0.103383 27.9551 -1.7481e-19)
(5.83022 31.6377 1.67873e-17)
(11.5653 31.233 1.97039e-17)
(16.2122 28.9285 4.37462e-17)
(19.6494 25.6565 -2.15736e-17)
(21.9865 21.9778 -2.14844e-17)
(23.3981 18.2538 2.19552e-17)
(24.0517 14.7177 5.00466e-17)
(24.0355 11.461 1.63437e-18)
(23.0378 8.23133 2.48349e-17)
(21.4655 5.55471 -1.35025e-18)
(20.169 3.87656 2.16375e-17)
(19.4593 2.9667 2.05867e-17)
(18.8454 2.24558 1.64807e-17)
(18.0503 1.54818 9.78247e-18)
(17.0998 0.917016 -7.74587e-18)
(16.0837 0.377014 -6.53351e-19)
(15.0308 -0.0765926 6.80507e-19)
(13.9394 -0.449151 3.76412e-18)
(12.8001 -0.74363 2.67802e-18)
(11.7641 -0.934119 1.8075e-18)
(10.8296 -1.04836 1.56052e-18)
(9.89235 -1.11873 -7.46018e-20)
(8.94819 -1.1498 -6.69246e-20)
(7.99533 -1.144 1.74113e-19)
(7.03029 -1.10414 -1.59122e-17)
(6.04896 -1.03349 3.78059e-19)
(5.04461 -0.93666 -2.98552e-17)
(4.00144 -0.805305 3.88817e-17)
(2.98102 -0.634569 7.63816e-19)
(2.0147 -0.453228 5.18519e-19)
(1.04564 -0.267359 -6.68266e-19)
(0.175899 -0.0740865 0)
(-0.566714 0.107126 2.51581e-16)
(-1.11284 0.278088 0)
(-1.7608 0.504154 0)
(-2.76677 0.753058 -2.94945e-19)
(-3.83027 0.80466 2.99962e-19)
(-4.21936 0.317701 -1.13033e-16)
(-2.65629 -0.450571 -1.39256e-16)
(0.145909 21.5912 0)
(3.98637 25.9829 0)
(11.1726 27.9903 -9.94977e-18)
(17.5042 27.3337 1.08747e-17)
(22.2594 25.5137 -2.71865e-17)
(25.7817 23.4034 2.86983e-17)
(28.2941 21.0351 1.38679e-17)
(29.8885 18.442 1.82978e-18)
(30.6758 15.7146 -1.05978e-18)
(30.7918 12.9792 1.57926e-17)
(30.1455 10.1167 -1.78242e-18)
(28.581 7.6018 0)
(26.6553 5.78105 0)
(24.973 4.48643 -1.08497e-17)
(23.6086 3.34259 -1.10996e-17)
(22.3202 2.35411 -7.70597e-18)
(21.0389 1.53849 0)
(19.7676 0.862572 3.69104e-19)
(18.4945 0.299763 -1.00964e-18)
(17.2041 -0.160624 -5.09114e-19)
(15.8831 -0.525339 -1.66239e-18)
(14.681 -0.773789 -9.77186e-19)
(13.6198 -0.934517 -2.12967e-20)
(12.5717 -1.04322 -2.30293e-19)
(11.5266 -1.10556 1.24425e-18)
(10.4781 -1.12546 1.67596e-19)
(9.41976 -1.10699 7.61821e-18)
(8.34497 -1.05315 -1.7625e-19)
(7.24935 -0.966973 1.34164e-17)
(6.13547 -0.849295 -1.66344e-17)
(4.98983 -0.700007 -2.04217e-17)
(3.82767 -0.530017 2.4192e-17)
(2.6858 -0.349748 2.2917e-20)
(1.58758 -0.164736 -7.8711e-19)
(0.588797 0.0161654 -4.08194e-17)
(-0.236073 0.190955 0)
(-1.11908 0.437625 -3.41412e-19)
(-2.11271 0.738776 7.43471e-17)
(-2.69544 0.926458 6.52e-17)
(-2.3514 0.542178 6.0741e-17)
(-1.90814 -0.793885 1.0041e-16)
(2.06121 20.879 0)
(5.67196 24.2369 0)
(10.7644 26.179 2.75662e-18)
(15.6649 26.4758 -7.80803e-18)
(19.7481 25.5246 8.33611e-18)
(23.1646 23.7955 -1.06148e-17)
(25.973 21.5828 -8.60622e-18)
(28.1342 19.0938 0)
(29.6361 16.4734 -1.39269e-17)
(30.5194 13.8274 -8.26028e-18)
(30.7457 11.0843 0)
(30.1186 8.63717 0)
(28.9138 6.74694 -8.69593e-18)
(27.594 5.29877 -7.93622e-18)
(26.2992 4.00421 -8.51284e-19)
(24.9584 2.87941 8.79292e-19)
(23.5731 1.94018 0)
(22.1837 1.15757 0)
(20.7985 0.506535 2.45089e-19)
(19.4059 -0.025914 -3.18742e-19)
(17.9914 -0.448951 3.24879e-19)
(16.7076 -0.747637 -5.88078e-19)
(15.5763 -0.942381 -1.01149e-19)
(14.4644 -1.07683 -1.32853e-19)
(13.3619 -1.15927 -5.3331e-20)
(12.2616 -1.19481 -1.09894e-19)
(11.1565 -1.18811 -8.9456e-20)
(10.0394 -1.14267 1.90245e-19)
(8.90438 -1.06166 0)
(7.74889 -0.947649 0)
(6.56717 -0.803583 2.4521e-17)
(5.36436 -0.637733 -2.80857e-17)
(4.16171 -0.459138 1.6051e-17)
(2.982 -0.277733 0)
(1.86399 -0.10184 2.14602e-17)
(0.883291 0.0789608 2.48543e-17)
(-0.0459706 0.315499 0)
(-0.950192 0.534669 2.61814e-19)
(-1.47986 0.589604 -1.77698e-19)
(-1.29263 0.137881 0)
(-1.69318 -1.26929 -4.7783e-17)
(3.93706 20.0232 4.73575e-20)
(7.30982 22.6586 -4.27396e-20)
(11.2875 24.2897 8.3787e-19)
(15.5404 24.7314 0)
(19.3731 24.0611 -9.90736e-18)
(22.6033 22.6634 0)
(25.2396 20.7962 1.96082e-17)
(27.2808 18.6219 -6.44672e-20)
(28.747 16.28 1.96571e-18)
(29.6928 13.8867 1.32133e-17)
(30.1302 11.4122 1.94706e-18)
(29.938 9.12241 5.39299e-18)
(29.2487 7.27478 1.54258e-17)
(28.3782 5.8312 6.3031e-18)
(27.451 4.54351 0)
(26.3989 3.3856 -1.17854e-18)
(25.2098 2.3817 1.94906e-19)
(23.9333 1.52424 -8.2428e-19)
(22.6025 0.798249 -3.3676e-19)
(21.2275 0.1953 3.43187e-19)
(19.8081 -0.290404 8.1732e-19)
(18.5075 -0.637985 5.545e-19)
(17.3531 -0.869801 0)
(16.2148 -1.03543 2.37795e-19)
(15.0852 -1.14395 -7.56797e-19)
(13.9586 -1.20109 1.31556e-18)
(12.8287 -1.21201 -3.85337e-18)
(11.6889 -1.18079 0)
(10.5329 -1.11104 0)
(9.35669 -1.00625 0)
(8.15636 -0.870681 -8.86524e-18)
(6.93334 -0.711666 1.04927e-17)
(5.69747 -0.53883 -3.72064e-19)
(4.46472 -0.363776 -1.33931e-17)
(3.25893 -0.195083 -1.41261e-17)
(2.14817 -0.016415 -1.66486e-17)
(1.14883 0.20612 -3.59953e-17)
(0.260732 0.370561 -3.72592e-17)
(-0.384418 0.355017 -1.47481e-19)
(-0.377856 -0.0945325 -3.41217e-17)
(-1.37701 -1.4666 1.97717e-17)
(5.78775 19.0435 0)
(8.76665 21.1125 -6.70869e-20)
(11.9484 22.445 -5.18367e-19)
(15.4442 23.0195 3.06179e-19)
(18.7863 22.7402 7.30337e-18)
(21.7434 21.7824 -7.98537e-18)
(24.2811 20.3012 -1.87413e-18)
(26.3383 18.4306 -1.01715e-17)
(27.873 16.317 0)
(28.9059 14.0931 -1.22319e-17)
(29.4585 11.7752 0)
(29.4704 9.5711 -3.08027e-18)
(29.0312 7.72651 -8.16988e-18)
(28.3912 6.25865 0)
(27.6973 4.97385 4.38271e-18)
(26.9078 3.8135 0)
(25.983 2.7912 0)
(24.9411 1.90291 8.38409e-19)
(23.8038 1.13559 6.94374e-19)
(22.5805 0.483596 0)
(21.2751 -0.0536967 -6.65336e-19)
(20.0501 -0.447358 0)
(18.9423 -0.717732 0)
(17.8361 -0.917526 -7.11915e-20)
(16.7288 -1.05584 0)
(15.6177 -1.13871 1.01704e-18)
(14.4989 -1.17158 2.98732e-18)
(13.3673 -1.15895 0)
(12.218 -1.10491 0)
(11.0468 -1.01361 0)
(9.85068 -0.890091 7.2472e-18)
(8.62904 -0.741859 7.0473e-18)
(7.38528 -0.579105 -8.52117e-18)
(6.12773 -0.413916 -2.89783e-19)
(4.86746 -0.256053 3.35198e-19)
(3.6547 -0.091081 0)
(2.55594 0.106778 2.65633e-17)
(1.61703 0.234083 -2.83235e-17)
(0.816538 0.176097 3.01053e-17)
(0.571498 -0.21867 3.16869e-17)
(-0.764501 -1.48559 3.6817e-20)
(7.49177 17.9823 -1.25382e-19)
(10.0497 19.6008 7.61866e-20)
(12.6375 20.6765 -4.00299e-20)
(15.4786 21.2891 3.27418e-19)
(18.3362 21.2716 -1.19075e-18)
(20.9898 20.6671 7.83345e-18)
(23.3659 19.5678 -9.68074e-18)
(25.3844 18.0602 8.32349e-18)
(26.9698 16.2576 4.08381e-18)
(28.1051 14.2786 -2.09734e-18)
(28.7956 12.1625 0)
(28.9941 10.0721 0)
(28.7489 8.23168 1.91639e-18)
(28.2543 6.7122 -2.02195e-18)
(27.6714 5.39606 -6.97099e-18)
(27.0134 4.21928 1.47969e-18)
(26.2522 3.18018 -2.82651e-18)
(25.3937 2.27334 1.41667e-19)
(24.4485 1.48362 -8.81047e-19)
(23.4165 0.802841 1.55696e-18)
(22.2921 0.230889 -1.41905e-18)
(21.2149 -0.198421 3.68577e-19)
(20.2216 -0.501805 -1.36372e-19)
(19.2137 -0.733465 5.85441e-20)
(18.1912 -0.901819 -4.89939e-19)
(17.1534 -1.01253 -1.39147e-20)
(16.0984 -1.07066 -2.75517e-18)
(15.0231 -1.08067 -2.78028e-18)
(13.9243 -1.04676 0)
(12.7985 -0.973404 0)
(11.6432 -0.866097 -5.04324e-18)
(10.4569 -0.732605 -1.25574e-17)
(9.23978 -0.583446 -4.37279e-19)
(7.9945 -0.430803 7.57383e-18)
(6.72268 -0.285943 8.86925e-18)
(5.45399 -0.141632 -9.5313e-18)
(4.25959 0.020354 3.14455e-19)
(3.22188 0.114174 4.36771e-17)
(2.2647 0.0288882 -4.75691e-17)
(1.70087 -0.301337 1.0433e-19)
(0.249817 -1.35997 1.93589e-17)
(9.02579 16.8768 0)
(11.1901 18.1368 -2.08103e-19)
(13.3149 19.0009 -8.36464e-21)
(15.6182 19.5851 2.04926e-19)
(18.0072 19.7282 1.73382e-18)
(20.3188 19.4026 2.89769e-18)
(22.475 18.6428 -6.46378e-18)
(24.3948 17.4916 2.43682e-18)
(25.9873 16.025 0)
(27.2076 14.3364 3.08047e-18)
(28.0427 12.4719 -6.13323e-18)
(28.4423 10.5541 6.16957e-18)
(28.411 8.77088 -2.4459e-19)
(28.0802 7.22602 0)
(27.6004 5.87438 1.50706e-18)
(27.0271 4.6691 1.67175e-19)
(26.3578 3.60113 1.2014e-18)
(25.6022 2.66693 9.79398e-19)
(24.776 1.85292 -3.92792e-19)
(23.8821 1.14814 -4.55408e-19)
(22.9137 0.550155 6.41988e-19)
(21.9851 0.0946504 3.82163e-19)
(21.1257 -0.233659 0)
(20.2488 -0.490763 9.40135e-20)
(19.3528 -0.684825 5.0288e-19)
(18.4364 -0.821195 -7.1709e-19)
(17.4973 -0.90445 7.48871e-19)
(16.5324 -0.938673 2.53953e-18)
(15.5386 -0.927822 -4.17719e-19)
(14.5124 -0.876289 -5.72848e-20)
(13.4507 -0.78959 -3.159e-18)
(12.3511 -0.675395 -1.14338e-18)
(11.2114 -0.544058 -4.6609e-18)
(10.0302 -0.407576 0)
(8.80334 -0.278151 -6.44147e-18)
(7.54404 -0.157048 7.50021e-18)
(6.30187 -0.0363305 -7.92684e-18)
(5.16254 0.0228855 -3.33661e-17)
(4.06213 -0.0792322 1.80698e-17)
(3.20225 -0.349221 8.21337e-20)
(1.67278 -1.15793 -4.0593e-17)
(10.3819 15.7587 8.37071e-19)
(12.2002 16.7355 -2.26129e-19)
(13.9551 17.4266 -2.19714e-19)
(15.8269 17.9472 -4.88112e-19)
(17.7945 18.1691 -1.20603e-18)
(19.7574 18.0403 -3.59953e-18)
(21.6539 17.5581 3.79407e-18)
(23.4153 16.7311 5.20823e-18)
(24.9536 15.5982 -3.68313e-18)
(26.2103 14.2218 0)
(27.1592 12.6419 -2.22569e-18)
(27.7446 10.9477 3.5957e-20)
(27.9362 9.28571 -9.25436e-20)
(27.8037 7.76704 2.1089e-18)
(27.4661 6.4026 1.96472e-18)
(26.9971 5.17608 -2.03723e-18)
(26.4166 4.07963 0)
(25.7409 3.11261 0)
(24.9916 2.26738 1.44007e-18)
(24.1818 1.53393 -1.21503e-18)
(23.3128 0.908654 2.11859e-19)
(22.4873 0.428616 -3.79599e-19)
(21.7308 0.0784572 -1.06429e-19)
(20.9658 -0.199975 0)
(20.19 -0.415189 1.99872e-19)
(19.401 -0.572932 -2.04452e-19)
(18.5955 -0.677888 -7.79222e-19)
(17.7694 -0.734127 0)
(16.9184 -0.745526 0)
(16.0378 -0.716358 3.86866e-19)
(15.1228 -0.651979 3.4172e-18)
(14.1683 -0.559687 3.33528e-18)
(13.169 -0.449273 7.77347e-18)
(12.1191 -0.332238 5.53086e-19)
(11.0098 -0.220948 0)
(9.84284 -0.123113 -3.36459e-19)
(8.64099 -0.0416229 6.14748e-18)
(7.46303 -0.0172627 -2.752e-20)
(6.26793 -0.128755 1.40434e-17)
(5.19151 -0.363169 1.54127e-17)
(3.57427 -0.928398 1.8445e-17)
(11.5645 14.6551 -5.15804e-19)
(13.0885 15.4099 -5.28403e-21)
(14.5438 15.9597 4.12063e-19)
(16.071 16.4036 -5.72701e-19)
(17.6786 16.6478 0)
(19.3128 16.6417 1.1762e-18)
(20.9356 16.3655 -2.22247e-18)
(22.4969 15.8073 -3.15782e-18)
(23.9238 14.9778 2.32018e-18)
(25.1577 13.9098 2.99621e-18)
(26.1662 12.6289 1.86332e-19)
(26.8921 11.1944 -6.09636e-18)
(27.2831 9.71137 0)
(27.3591 8.27951 1.40107e-18)
(27.1976 6.9435 -3.24997e-18)
(26.868 5.71936 -1.37781e-18)
(26.4034 4.6091 -1.22274e-18)
(25.8253 3.61644 1.26405e-18)
(25.1579 2.74037 -4.70104e-19)
(24.4207 1.97518 0)
(23.6238 1.319 5.86803e-19)
(22.8672 0.81162 -8.39693e-19)
(22.1775 0.437594 1.55577e-19)
(21.487 0.13689 -1.08188e-19)
(20.7957 -0.0992249 3.25089e-19)
(20.1029 -0.277101 -3.32148e-19)
(19.4064 -0.4019 0)
(18.7031 -0.478048 2.04643e-18)
(17.9893 -0.509688 9.73832e-19)
(17.2602 -0.501239 5.41681e-19)
(16.5104 -0.458034 -2.62338e-18)
(15.7331 -0.387038 -7.65955e-19)
(14.9199 -0.297407 7.30766e-19)
(14.0611 -0.200029 -4.48805e-19)
(13.1424 -0.1071 -2.81372e-18)
(12.1562 -0.0298653 -4.98723e-19)
(11.1032 0.0211705 0)
(10.0063 0.0173111 9.56269e-18)
(8.82496 -0.0961357 -1.03789e-17)
(7.66785 -0.308932 -1.13053e-17)
(6.01001 -0.699728 0)
(12.5846 13.5882 0)
(13.8623 14.17 0)
(15.0732 14.6043 0)
(16.3245 14.971 1.73923e-18)
(17.6342 15.2035 -4.77129e-19)
(18.977 15.2625 1.42926e-20)
(20.3352 15.1249 -3.14754e-19)
(21.6776 14.7707 -4.2391e-19)
(22.9511 14.1941 1.32948e-18)
(24.1068 13.4051 1.93731e-18)
(25.1136 12.4141 -1.89426e-18)
(25.9186 11.2536 2.50509e-18)
(26.4599 9.99105 -2.19559e-19)
(26.7235 8.70349 2.35672e-18)
(26.7471 7.44723 -4.25656e-18)
(26.5808 6.2619 3.37957e-18)
(26.259 5.16381 1.82889e-18)
(25.8053 4.16358 -1.88599e-18)
(25.244 3.26735 7.36142e-19)
(24.5969 2.4752 0)
(23.8791 1.78873 7.65737e-19)
(23.1876 1.25267 -5.66665e-19)
(22.5528 0.852535 1.15153e-20)
(21.9173 0.526979 -3.91643e-20)
(21.2841 0.267397 3.13455e-19)
(20.6555 0.0671371 0)
(20.0321 -0.0793188 0)
(19.4137 -0.176724 -5.95901e-19)
(18.7991 -0.229515 -3.87893e-18)
(18.1864 -0.242299 -1.82699e-18)
(17.5723 -0.220391 2.12207e-18)
(16.9518 -0.170407 6.04719e-19)
(16.3174 -0.10078 -3.18681e-18)
(15.6589 -0.0216126 -7.01255e-19)
(14.9602 0.0553773 4.40182e-18)
(14.2073 0.117664 -7.62688e-19)
(13.3861 0.151452 -3.2716e-18)
(12.4928 0.134956 4.36552e-19)
(11.4716 0.032084 6.99835e-18)
(10.4115 -0.150283 0)
(8.85801 -0.441568 0)
(13.4564 12.5753 0)
(14.5292 13.0225 0)
(15.5397 13.3628 -2.03087e-19)
(16.5692 13.6582 -1.64923e-18)
(17.6365 13.8621 0)
(18.7318 13.9469 -6.59777e-19)
(19.8506 13.8935 3.8116e-19)
(20.9768 13.6815 0)
(22.0758 13.2981 -1.83726e-18)
(23.1124 12.7402 3.05265e-19)
(24.0623 12.007 -4.00495e-19)
(24.8815 11.1104 1.4313e-18)
(25.51 10.0862 -1.77044e-18)
(25.9158 8.98549 0)
(26.1057 7.85922 -2.69058e-18)
(26.1052 6.75635 3.11858e-18)
(25.9394 5.70527 0)
(25.6295 4.7247 0)
(25.1971 3.8281 4.20118e-19)
(24.6636 3.02234 -1.71014e-18)
(24.0456 2.31354 7.3567e-19)
(23.434 1.75256 0)
(22.8621 1.32744 -4.29007e-20)
(22.284 0.976559 2.37338e-19)
(21.7051 0.691899 -2.00707e-19)
(21.1297 0.466918 2.89523e-19)
(20.561 0.295996 0)
(20.0013 0.174203 0)
(19.4523 0.0969228 -6.52079e-19)
(18.9148 0.0594734 2.94446e-18)
(18.389 0.0566819 -1.65692e-18)
(17.8736 0.0824464 1.74839e-18)
(17.3652 0.129298 9.68073e-19)
(16.8574 0.188377 0)
(16.3382 0.24924 1.6863e-18)
(15.7945 0.300114 -1.97995e-20)
(15.2077 0.327457 5.68902e-18)
(14.5628 0.315071 0)
(13.7973 0.238152 -5.58324e-18)
(12.9753 0.105547 6.0465e-18)
(11.7142 -0.116717 0)
(14.1951 11.6284 0)
(15.0973 11.9712 -1.2324e-18)
(15.943 12.2352 1.08093e-18)
(16.7933 12.4681 0)
(17.6649 12.6373 1.07582e-18)
(18.5556 12.7244 -9.37398e-19)
(19.4682 12.716 -1.66e-18)
(20.3964 12.5953 4.99628e-20)
(21.3198 12.3483 7.59618e-19)
(22.216 11.9669 2.12733e-18)
(23.0693 11.4447 -2.17338e-18)
(23.8473 10.78 -6.68559e-19)
(24.4992 9.98632 1.69607e-18)
(24.9882 9.09109 -8.18949e-19)
(25.3028 8.13144 3.18227e-18)
(25.4469 7.15242 -2.02769e-18)
(25.4314 6.18707 -8.25508e-19)
(25.2698 5.25992 -3.77314e-19)
(24.9785 4.39046 -1.10647e-18)
(24.5755 3.59211 2.20479e-18)
(24.0765 2.87611 -1.00125e-18)
(23.5619 2.29976 -1.19308e-20)
(23.0673 1.85532 -2.34794e-20)
(22.5589 1.48262 0)
(22.0436 1.17458 -5.24766e-19)
(21.5269 0.925135 1.55536e-19)
(21.0136 0.728917 1.07187e-18)
(20.5074 0.581049 -7.51574e-19)
(20.0116 0.47689 2.08813e-18)
(19.5288 0.411758 -1.0907e-18)
(19.0611 0.380662 0)
(18.6098 0.378016 -2.1629e-18)
(18.175 0.397353 -7.64555e-19)
(17.7545 0.431268 8.72658e-19)
(17.3423 0.471226 -5.4132e-18)
(16.9305 0.507764 -9.55216e-19)
(16.5054 0.52998 -1.99919e-18)
(16.0537 0.527321 2.06635e-18)
(15.5236 0.482575 2.16639e-18)
(14.956 0.407618 -4.42826e-18)
(14.0739 0.257955 -1.50544e-19)
(14.8158 10.7553 0)
(15.5759 11.017 7.0312e-20)
(16.2852 11.2196 9.78292e-19)
(16.9899 11.3997 3.13174e-18)
(17.7038 11.5341 -2.15588e-18)
(18.4283 11.6114 2.78215e-19)
(19.1689 11.6227 -9.08489e-20)
(19.9253 11.5561 -2.19231e-18)
(20.6863 11.3993 -1.6885e-19)
(21.4393 11.1435 -4.22794e-19)
(22.1759 10.7808 1.32176e-18)
(22.8749 10.3035 -1.12231e-18)
(23.4978 9.71166 -6.30201e-19)
(24.0115 9.01543 7.06922e-19)
(24.3975 8.23687 0)
(24.6463 7.40974 0)
(24.7557 6.56373 2.88655e-18)
(24.7296 5.72427 4.60545e-20)
(24.5765 4.91366 -1.99105e-18)
(24.309 4.14978 1.07506e-19)
(23.9392 3.44818 -3.71666e-19)
(23.5334 2.87164 4.49634e-19)
(23.1275 2.41801 -9.66698e-20)
(22.7003 2.03097 0)
(22.2594 1.70493 -7.59874e-20)
(21.8114 1.43474 9.53156e-19)
(21.3616 1.21557 -1.24022e-18)
(20.9149 1.04288 1.47679e-18)
(20.4749 0.91224 -1.09262e-18)
(20.0449 0.819161 0)
(19.6277 0.758935 1.04045e-18)
(19.2254 0.726468 2.36752e-18)
(18.8394 0.716151 -1.21009e-18)
(18.4697 0.721851 1.38182e-18)
(18.1136 0.736831 7.81401e-19)
(17.768 0.754167 -1.47766e-18)
(17.4253 0.766237 2.3376e-18)
(17.0777 0.767115 -1.64771e-18)
(16.6934 0.746279 -1.27826e-18)
(16.2954 0.7154 -2.13688e-19)
(15.7222 0.636377 3.50601e-18)
(15.3331 9.95983 -1.18495e-18)
(15.9742 10.1586 -4.09213e-18)
(16.5704 10.3121 3.99076e-18)
(17.1561 10.4486 0)
(17.7428 10.5515 -1.84195e-19)
(18.3331 10.6138 0)
(18.9334 10.6303 -5.88237e-18)
(19.5459 10.5928 4.25253e-18)
(20.1653 10.4921 1.85614e-18)
(20.7851 10.3204 -1.97411e-18)
(21.4021 10.071 1.66876e-19)
(22.0038 9.73472 -1.26895e-19)
(22.5633 9.30514 5.50964e-19)
(23.0551 8.78249 8.82818e-19)
(23.4612 8.17707 1.50776e-19)
(23.7669 7.51008 -1.03936e-18)
(23.9623 6.80326 8.9461e-19)
(24.0429 6.0781 -1.09124e-18)
(24.0097 5.35563 0)
(23.8685 4.65488 -5.04914e-19)
(23.626 3.99339 3.88451e-19)
(23.332 3.43654 1.71447e-19)
(23.0202 2.98817 4.03079e-21)
(22.6803 2.59812 0)
(22.3206 2.26288 6.22599e-20)
(21.9481 1.97881 9.82851e-20)
(21.5687 1.74209 0)
(21.1877 1.54883 0)
(20.809 1.39507 4.12004e-21)
(20.4361 1.27675 0)
(20.0719 1.18964 -1.26364e-18)
(19.7185 1.12928 0)
(19.3777 1.09094 2.02049e-18)
(19.0497 1.06958 -2.09736e-18)
(18.7333 1.05992 0)
(18.427 1.05697 1.20461e-18)
(18.1276 1.05569 -1.26005e-18)
(17.8304 1.05268 6.32799e-19)
(17.5194 1.04258 2.0164e-18)
(17.207 1.03362 -1.79426e-19)
(16.8137 1.00295 -4.21305e-18)
(15.7607 9.24282 3.14522e-18)
(16.3021 9.39268 1.16317e-19)
(16.8038 9.50718 -1.75762e-18)
(17.2919 9.60833 -3.19691e-18)
(17.7754 9.68424 -6.90115e-18)
(18.2576 9.73072 7.98267e-18)
(18.7446 9.74489 -4.03443e-19)
(19.2394 9.72143 -3.50203e-18)
(19.7399 9.65384 6.44236e-18)
(20.2432 9.53614 -6.42051e-19)
(20.7492 9.3632 -2.59785e-18)
(21.251 9.12694 5.95153e-19)
(21.7311 8.81924 -5.37485e-19)
(22.1718 8.4358 1.0074e-18)
(22.5588 7.97969 -1.47359e-19)
(22.8779 7.4622 0)
(23.1169 6.89667 6.09728e-19)
(23.2669 6.29826 -4.54877e-19)
(23.3233 5.68365 -2.07076e-19)
(23.2859 5.06972 1.59424e-19)
(23.1562 4.47311 1.02979e-19)
(22.9668 3.95735 -4.05005e-20)
(22.7466 3.53144 -3.34769e-21)
(22.4939 3.15298 -9.80132e-19)
(22.2166 2.82064 2.22229e-18)
(21.9215 2.53257 -1.3337e-18)
(21.6149 2.28642 1.67449e-18)
(21.302 2.0794 -2.05295e-18)
(20.9872 1.90838 -2.59715e-18)
(20.674 1.76999 2.34827e-18)
(20.3652 1.6607 6.83891e-19)
(20.063 1.57683 1.16493e-18)
(19.769 1.51453 -3.60176e-18)
(19.484 1.46986 3.42107e-18)
(19.207 1.43876 -1.76124e-18)
(18.9376 1.41767 -9.45456e-19)
(18.6742 1.40325 0)
(18.4139 1.39311 -1.04448e-18)
(18.1492 1.38463 -1.08495e-18)
(17.8866 1.38213 -1.11063e-18)
(17.5888 1.37328 1.15903e-18)
(16.1112 8.60258 2.90467e-21)
(16.5684 8.7144 4.24342e-19)
(16.991 8.79811 1.54176e-18)
(17.3985 8.87118 -2.73778e-18)
(17.7981 8.92486 1.08252e-17)
(18.1932 8.95672 -9.10632e-18)
(18.589 8.96535 1.14515e-17)
(18.9888 8.94742 5.50325e-18)
(19.392 8.89848 -2.86868e-18)
(19.7976 8.81428 -8.92e-19)
(20.2068 8.69114 -6.11374e-18)
(20.6163 8.523 2.71796e-19)
(21.0151 8.30235 0)
(21.3915 8.02374 -4.14189e-19)
(21.7357 7.6867 5.57313e-19)
(22.0367 7.29624 -7.41416e-19)
(22.2831 6.85924 0)
(22.4655 6.38478 7.61903e-19)
(22.5768 5.88424 -1.74373e-18)
(22.613 5.3704 6.21731e-19)
(22.5717 4.85681 -1.21117e-18)
(22.4702 4.40059 1.36987e-18)
(22.3315 4.01382 6.05359e-20)
(22.159 3.66245 -2.82022e-20)
(21.9594 3.34703 2.45603e-18)
(21.7387 3.06732 -2.47937e-18)
(21.5028 2.82242 8.9431e-20)
(21.2567 2.61083 2.04813e-19)
(21.0047 2.43054 -1.9734e-18)
(20.7503 2.27918 2.25346e-18)
(20.4965 2.15415 -2.80057e-19)
(20.2454 2.05262 3.034e-19)
(19.9987 1.97171 -1.33555e-18)
(19.7574 1.90847 6.21736e-19)
(19.5213 1.85986 2.90685e-18)
(19.2904 1.82341 -7.24562e-19)
(19.0644 1.79688 8.10931e-19)
(18.8415 1.77834 -1.63558e-18)
(18.6182 1.76623 8.52195e-19)
(18.3982 1.76229 8.95398e-19)
(18.1634 1.75865 0)
(16.3952 8.03458 -4.77924e-18)
(16.7812 8.11664 8.53915e-18)
(17.1371 8.17642 7.97918e-18)
(17.4776 8.22776 -2.09947e-17)
(17.8085 8.26394 7.77926e-18)
(18.133 8.28362 -1.58822e-17)
(18.4556 8.28629 1.28026e-17)
(18.7791 8.26987 -1.84829e-17)
(19.1038 8.23133 1.67163e-17)
(19.4297 8.16778 -6.13134e-19)
(19.7581 8.07673 -6.72074e-18)
(20.0878 7.95369 -6.09611e-19)
(20.4119 7.79289 -4.88921e-18)
(20.7232 7.5894 4.82349e-18)
(21.0152 7.34155 -3.64289e-18)
(21.2803 7.05107 3.93674e-18)
(21.5098 6.7209 0)
(21.6955 6.35573 -2.63405e-18)
(21.8303 5.96236 3.25887e-18)
(21.9091 5.54931 -3.08802e-18)
(21.9272 5.12621 -2.26714e-19)
(21.8912 4.74071 5.26975e-18)
(21.8175 4.40554 1.15382e-19)
(21.7119 4.09446 -2.09954e-18)
(21.5795 3.80919 -4.02378e-24)
(21.4252 3.55064 0)
(21.2537 3.31907 -2.9379e-18)
(21.0695 3.11406 2.90472e-18)
(20.8764 2.93463 0)
(20.6778 2.77944 -2.17829e-19)
(20.4762 2.64685 0)
(20.274 2.53502 2.08434e-18)
(20.0729 2.442 -2.35967e-18)
(19.8743 2.36574 -2.31028e-18)
(19.6784 2.30404 4.73219e-18)
(19.4857 2.25522 -2.73107e-18)
(19.2968 2.21778 -3.2065e-19)
(19.1109 2.19014 6.69316e-19)
(18.9264 2.17112 -6.92091e-19)
(18.7455 2.16121 0)
(18.5602 2.1548 -7.13637e-19)
(16.6137 7.55596 0)
(16.9418 7.61596 -1.15743e-17)
(17.2436 7.6584 5.63972e-19)
(17.5305 7.69402 1.5395e-17)
(17.8072 7.71744 9.34955e-18)
(18.0766 7.72807 -9.62442e-18)
(18.3425 7.7259 8.67909e-18)
(18.6074 7.70959 8.25593e-18)
(18.8719 7.67708 1.5368e-17)
(19.1361 7.62635 -1.9444e-17)
(19.4016 7.55573 1.88575e-18)
(19.6678 7.46199 1.79769e-18)
(19.9305 7.34069 -6.0644e-18)
(20.1849 7.18795 4.39662e-18)
(20.4272 7.00204 6.05695e-18)
(20.652 6.78331 -4.59335e-18)
(20.8532 6.53278 -5.22946e-18)
(21.0247 6.25269 5.35789e-18)
(21.1605 5.94683 0)
(21.2558 5.62049 6.08861e-19)
(21.3057 5.28002 6.09833e-19)
(21.3103 4.96325 4.60942e-18)
(21.2808 4.68188 -9.37675e-18)
(21.2235 4.41597 4.87036e-18)
(21.1418 4.16762 2.66415e-18)
(21.0395 3.9383 5.75627e-20)
(20.9201 3.7289 -2.83026e-18)
(20.7874 3.53971 4.58009e-20)
(20.6443 3.37052 3.29489e-21)
(20.4936 3.22073 3.48946e-18)
(20.3379 3.08947 -3.52612e-18)
(20.1791 2.97565 -1.93421e-18)
(20.019 2.87809 2.06353e-18)
(19.8589 2.79545 -2.10166e-18)
(19.6996 2.72622 1.83397e-18)
(19.5419 2.66932 1.6845e-18)
(19.3866 2.62375 -8.41983e-19)
(19.2336 2.5882 2.95592e-19)
(19.0825 2.56174 0)
(18.9347 2.54432 0)
(18.7875 2.53209 7.9271e-21)
(16.7758 7.17057 -5.34259e-18)
(17.0585 7.21484 5.95191e-18)
(17.3181 7.24495 -2.4884e-18)
(17.5636 7.26925 -4.75946e-18)
(17.7988 7.28337 0)
(18.0264 7.28721 8.99465e-18)
(18.2497 7.28105 -2.13397e-17)
(18.4706 7.264 1.31723e-17)
(18.6899 7.23461 -4.19802e-18)
(18.9081 7.19146 3.75362e-18)
(19.1262 7.13344 -1.79783e-18)
(19.3443 7.05826 -1.60249e-17)
(19.5594 6.96262 2.81221e-17)
(19.7686 6.84356 -1.20488e-17)
(19.9692 6.69958 -1.41354e-18)
(20.1576 6.5305 -5.78778e-18)
(20.3298 6.33652 1.74607e-17)
(20.4809 6.11861 -7.5967e-18)
(20.6066 5.87886 -1.13351e-17)
(20.7028 5.62048 4.67471e-18)
(20.7652 5.34756 -1.28214e-18)
(20.7911 5.08956 0)
(20.7878 4.85653 0)
(20.7612 4.63315 -5.5588e-18)
(20.7137 4.42149 5.56186e-18)
(20.6479 4.22311 8.5738e-20)
(20.5664 4.03915 0)
(20.472 3.87025 3.21158e-18)
(20.3673 3.71662 -3.21788e-18)
(20.2544 3.57815 2.57572e-20)
(20.1354 3.45447 -2.82379e-20)
(20.012 3.34502 0)
(19.8858 3.2491 1.82095e-18)
(19.7581 3.1659 -1.92248e-18)
(19.6297 3.09436 2.49545e-19)
(19.5016 3.0338 -2.57472e-19)
(19.3747 2.98357 0)
(19.2492 2.94263 -2.72096e-19)
(19.1253 2.91026 -5.63221e-19)
(19.004 2.88625 2.74867e-19)
(18.8848 2.86804 8.56052e-19)
(16.8987 6.85643 0)
(17.1452 6.88916 0)
(17.3711 6.91027 -9.26172e-18)
(17.5839 6.92632 -1.79177e-17)
(17.7866 6.9337 2.7275e-17)
(17.9817 6.93263 -2.15541e-17)
(18.1719 6.92351 -8.13099e-18)
(18.3591 6.90576 1.70737e-17)
(18.5439 6.87832 -1.63341e-17)
(18.7268 6.84018 1.63127e-17)
(18.9088 6.79057 0)
(19.0899 6.72782 0)
(19.2682 6.64954 1.45704e-17)
(19.4417 6.55347 -2.86729e-17)
(19.6085 6.43846 2.72763e-17)
(19.7663 6.3042 -1.32381e-17)
(19.9121 6.1506 -1.65005e-18)
(20.0426 5.97805 1.43614e-17)
(20.1543 5.78768 -9.73572e-18)
(20.2442 5.58147 0)
(20.3088 5.36201 6.68764e-19)
(20.3442 5.15216 0)
(20.3554 4.9602 -6.23385e-18)
(20.3476 4.7742 1.21683e-17)
(20.3222 4.59598 -5.93325e-18)
(20.281 4.42699 0)
(20.2262 4.26836 0)
(20.1598 4.12085 3.04562e-18)
(20.0836 3.98487 -3.25097e-18)
(19.9995 3.86058 -3.42887e-18)
(19.9091 3.7479 3.45256e-18)
(19.8138 3.64658 3.61044e-18)
(19.715 3.55628 -3.62036e-18)
(19.6138 3.47649 0)
(19.511 3.40649 -3.02546e-20)
(19.4075 3.34585 0)
(19.3043 3.29416 -7.85576e-21)
(19.2018 3.2506 -3.19561e-20)
(19.1002 3.2146 1.11027e-18)
(19.0004 3.18592 -1.57305e-18)
(18.9027 3.16295 5.20243e-19)
(16.9937 6.59561 0)
(17.2105 6.6197 -1.12096e-18)
(17.409 6.63414 0)
(17.5952 6.64411 8.5884e-18)
(17.7717 6.64657 -8.45696e-18)
(17.9408 6.64194 0)
(18.1048 6.63071 8.20118e-18)
(18.2654 6.61245 7.87325e-18)
(18.4231 6.5864 -2.07317e-17)
(18.5784 6.55184 0)
(18.7322 6.5082 1.55246e-17)
(18.8845 6.45428 -3.09496e-17)
(19.0339 6.3883 1.53765e-17)
(19.179 6.3086 0)
(19.3187 6.21431 -1.41688e-17)
(19.4512 6.10517 1.57473e-17)
(19.5743 5.98099 1.48074e-17)
(19.6858 5.84192 -1.63379e-17)
(19.7831 5.68862 -1.50123e-18)
(19.8638 5.52232 0)
(19.9253 5.34471 0)
(19.9635 5.17356 -8.01276e-19)
(19.9821 5.01554 3.63049e-19)
(19.9851 4.86126 6.23177e-18)
(19.9738 4.71221 4.84259e-19)
(19.9492 4.56963 -6.249e-18)
(19.913 4.43453 6.44309e-18)
(19.8666 4.30765 -6.2348e-18)
(19.8116 4.18946 -3.75677e-18)
(19.7493 4.08021 3.32702e-18)
(19.6809 3.97999 -3.45676e-18)
(19.6078 3.88873 3.44932e-18)
(19.5309 3.80629 0)
(19.4512 3.73236 -3.8741e-18)
(19.3695 3.66644 3.66328e-18)
(19.2866 3.6083 0)
(19.2033 3.55766 7.33954e-21)
(19.12 3.51387 9.97984e-19)
(19.037 3.47652 -1.0252e-18)
(18.9551 3.44537 4.65196e-19)
(18.8748 3.41946 -4.84792e-19)
(17.0685 6.37581 0)
(17.2605 6.39333 1.03213e-18)
(17.4361 6.40274 -8.25729e-18)
(17.6003 6.40818 1.60855e-17)
(17.7553 6.40704 -3.24304e-17)
(17.9031 6.39987 1.63335e-17)
(18.0459 6.38718 0)
(18.185 6.36868 7.85503e-18)
(18.321 6.34381 4.71293e-17)
(18.4543 6.31202 -3.17862e-17)
(18.5856 6.27292 0)
(18.7149 6.22563 -3.92679e-18)
(18.8414 6.16882 1.11523e-17)
(18.9639 6.10126 -3.11978e-19)
(19.0815 6.02232 -1.48547e-17)
(19.1932 5.9318 1.60255e-17)
(19.2974 5.82956 -1.39128e-17)
(19.3922 5.71564 1.3269e-17)
(19.476 5.59045 -1.32918e-17)
(19.5469 5.45482 -1.30035e-17)
(19.6029 5.30985 1.12047e-17)
(19.6403 5.16951 -5.61133e-18)
(19.6618 5.0391 7.12062e-18)
(19.6708 4.91113 -6.72532e-18)
(19.668 4.78678 -1.25342e-18)
(19.6543 4.66706 6.35604e-18)
(19.6309 4.55285 0)
(19.5988 4.44476 0)
(19.5593 4.34325 -6.2233e-18)
(19.5133 4.24861 6.60369e-18)
(19.4619 4.16096 0)
(19.406 4.08035 4.3322e-19)
(19.3465 4.00673 4.37834e-19)
(19.2842 3.93992 3.73482e-18)
(19.2197 3.87958 -3.73029e-18)
(19.1537 3.82555 -1.80025e-18)
(19.0869 3.7777 1.7934e-18)
(19.0197 3.7355 -6.88757e-19)
(18.9524 3.69864 1.84147e-18)
(18.8856 3.66693 -8.93717e-19)
(18.8198 3.63988 -1.15076e-19)
(17.1281 6.18825 7.63042e-18)
(17.2992 6.20072 9.29441e-18)
(17.4554 6.20633 -1.82087e-19)
(17.6011 6.20837 0)
(17.7381 6.2046 0)
(17.8683 6.19564 0)
(17.9936 6.182 0)
(18.115 6.16349 -3.04145e-17)
(18.2332 6.13968 5.37953e-17)
(18.3486 6.11018 -3.08804e-17)
(18.4616 6.07471 3.02026e-17)
(18.5725 6.03261 -1.91754e-17)
(18.6804 5.98289 3.34294e-17)
(18.7846 5.92464 -4.09358e-17)
(18.8844 5.85743 1.48491e-17)
(18.979 5.78112 1.07719e-17)
(19.0673 5.69562 -1.40689e-17)
(19.148 5.60095 1.65448e-18)
(19.2197 5.49741 -1.72102e-18)
(19.2812 5.38557 1.66296e-17)
(19.3309 5.26619 1.45916e-17)
(19.3658 5.15033 -2.41896e-17)
(19.3877 5.04222 -7.73371e-19)
(19.3996 4.9358 0)
(19.4017 4.832 7.74237e-19)
(19.395 4.73164 -8.18703e-19)
(19.3802 4.6354 -5.6389e-18)
(19.3582 4.54381 6.43575e-18)
(19.3298 4.45727 -6.54255e-18)
(19.2959 4.37602 6.51834e-18)
(19.2573 4.30024 6.64284e-18)
(19.2147 4.22998 -7.02592e-18)
(19.1687 4.16523 -4.12627e-19)
(19.1202 4.10592 3.40246e-18)
(19.0695 4.05178 -2.74657e-18)
(19.0173 4.00274 0)
(18.9641 3.9587 0)
(18.9102 3.91927 -2.15839e-19)
(18.856 3.88421 4.4087e-19)
(18.8019 3.85336 4.42903e-19)
(18.7483 3.82656 1.07746e-19)
(17.1761 6.02651 0)
(17.3292 6.03507 -1.76499e-18)
(17.4689 6.03779 1.41402e-17)
(17.5988 6.03728 -1.44411e-17)
(17.7206 6.03159 -2.85656e-17)
(17.836 6.0214 2.93168e-17)
(17.9465 6.0072 1.42681e-17)
(18.0533 5.98887 -2.96411e-17)
(18.1568 5.9661 -2.92545e-17)
(18.2573 5.93858 2.97818e-17)
(18.3554 5.90611 0)
(18.4511 5.86823 -1.47219e-17)
(18.5438 5.82419 2.91364e-17)
(18.633 5.77332 -3.29308e-17)
(18.7182 5.71532 0)
(18.7987 5.65013 -3.63761e-18)
(18.8738 5.57768 3.55131e-18)
(18.9425 5.49804 0)
(19.0039 5.41141 1.63701e-18)
(19.0569 5.31823 -3.23142e-18)
(19.1004 5.21906 1.47423e-17)
(19.1319 5.12273 -1.44985e-17)
(19.1529 5.0326 1.6301e-18)
(19.1657 4.94376 1.19435e-17)
(19.1706 4.8569 -1.18804e-17)
(19.1682 4.77269 7.75443e-19)
(19.1592 4.69165 -7.16294e-18)
(19.1441 4.61423 6.35762e-18)
(19.1238 4.54072 8.13066e-19)
(19.0988 4.47137 0)
(19.0697 4.4063 0)
(19.0372 4.34558 0)
(19.0018 4.28924 -3.27153e-18)
(18.964 4.23722 3.2568e-18)
(18.9242 4.18934 -4.05933e-19)
(18.883 4.14554 -3.3176e-18)
(18.8407 4.10578 3.71941e-18)
(18.7976 4.06975 0)
(18.7541 4.03726 5.91014e-21)
(18.7105 4.0082 -8.37139e-19)
(18.6669 3.9826 4.08501e-19)
(17.2152 5.88578 6.52188e-18)
(17.3527 5.8913 0)
(17.4781 5.89181 -3.28051e-17)
(17.5945 5.88938 2.69451e-17)
(17.7032 5.88232 0)
(17.8059 5.87132 2.72036e-17)
(17.9039 5.85686 -2.29988e-19)
(17.9983 5.83886 2.77878e-17)
(18.0894 5.81709 -4.26188e-17)
(18.1775 5.79134 -2.81695e-17)
(18.2631 5.76146 2.86713e-17)
(18.3463 5.72711 7.03006e-18)
(18.4264 5.68774 0)
(18.5032 5.64286 0)
(18.5764 5.59227 -7.15529e-18)
(18.6453 5.53595 3.14173e-17)
(18.7094 5.4739 -6.19639e-17)
(18.7681 5.40618 2.71188e-17)
(18.8205 5.33297 3.3793e-18)
(18.8661 5.25463 3.34062e-18)
(18.9039 5.17156 -1.58412e-18)
(18.9318 5.09089 2.39308e-17)
(18.9512 5.01532 -4.10545e-17)
(18.9639 4.9408 7.46499e-19)