/*--------------------------------*- C++ -*----------------------------------*\
| =========                 |                                                 |
| \\      /  F ield         | OpenFOAM: The Open Source CFD Toolbox           |
|  \\    /   O peration     | Version:  5.x                                   |
|   \\  /    A nd           | Web:      www.OpenFOAM.org                      |
|    \\/     M anipulation  |                                                 |
\*---------------------------------------------------------------------------*/
FoamFile
{
    version     2.0;
    format      ascii;
    class       volVectorField;
    location    "100";
    object      wallShearStress;
}
// * * * * * * * * * * * * * * * * * * * * * * * * * * * * * * * * * * * * * //

dimensions      [0 2 -2 0 0 0 0];

internalField   uniform (0 0 0);

boundaryField
{
    inlet
    {
        type            calculated;
        value           uniform (0 0 0);
    }
    outlet
    {
        type            calculated;
        value           uniform (0 0 0);
    }
    walls
    {
        type            calculated;
        value           nonuniform List<vector> 
82
(
(0.111521 -0.797804 -3.76158e-37)
(-0.0285552 -1.18142 7.20837e-21)
(-0.213432 -1.50436 -8.3149e-19)
(-0.488514 -1.54838 -9.41309e-19)
(-0.718288 -1.45769 -2.2048e-18)
(-0.886595 -1.28685 1.10565e-18)
(-0.990654 -1.08219 1.06672e-18)
(-1.03915 -0.874639 -1.00224e-18)
(-1.04388 -0.682697 -2.27433e-18)
(-1.01086 -0.513037 -7.3741e-20)
(-0.918971 -0.349729 -1.01767e-18)
(-0.802471 -0.217018 5.1782e-20)
(-0.715166 -0.138818 -7.89399e-19)
(-0.66843 -0.101004 -7.30276e-19)
(-0.628955 -0.0750604 -5.71743e-19)
(-0.580603 -0.0501736 -3.2923e-19)
(-0.526149 -0.0284636 2.51076e-19)
(-0.471144 -0.0110983 2.03312e-20)
(-0.417287 0.00224792 -2.0283e-20)
(-0.364701 0.0120215 -1.08282e-19)
(-0.313282 0.0185973 -7.4526e-20)
(-0.269571 0.0217967 -5.04277e-20)
(-0.232684 0.0228654 -4.94968e-20)
(-0.198147 0.0227071 6.1987e-22)
(-0.165896 0.0215747 1.31193e-21)
(-0.135975 0.0196685 -2.63674e-21)
(-0.108418 0.017179 2.30539e-19)
(-0.0833436 0.0142663 -5.10764e-21)
(-0.0611411 0.0111216 3.53526e-19)
(-0.0421571 0.0081113 -3.78825e-19)
(-0.0259193 0.00537375 -6.22195e-21)
(-0.0130619 0.00292627 -3.5976e-21)
(-0.00455886 0.00109545 3.36994e-21)
(-7.96863e-05 7.17084e-05 -1.50463e-36)
(0.00332733 -0.000741648 -1.07496e-18)
(0.00712654 -0.00191778 1.50463e-36)
(0.0131708 -0.0040304 -5.28972e-38)
(0.0249617 -0.00722944 2.28015e-21)
(0.0406816 -0.00824508 -2.47205e-21)
(0.0470404 -0.000511641 1.08943e-18)
(0.0222263 0.00984008 1.11193e-18)
(0.135894 -0.515166 -2.24311e-19)
(0.0819497 -0.230235 -3.16722e-20)
(0.028864 -0.0799459 -1.50005e-18)
(-0.00140033 -0.0141479 -6.19457e-19)
(-0.0187047 0.00244772 -8.02969e-19)
(-0.0532938 0.0216129 -1.00627e-18)
(-0.093224 0.038413 -2.07044e-18)
(-0.132396 0.0504834 -9.59933e-19)
(-0.169231 0.0594199 8.4766e-19)
(-0.209552 0.0705336 5.71438e-20)
(-0.256384 0.0799941 -1.6796e-18)
(-0.297743 0.0786286 7.48212e-19)
(-0.329318 0.0705471 2.07473e-21)
(-0.355806 0.0617781 4.49013e-19)
(-0.379343 0.0529588 6.82369e-19)
(-0.399217 0.0434654 -4.13124e-20)
(-0.415143 0.03344 2.82119e-37)
(-0.427451 0.023237 -2.58562e-19)
(-0.43646 0.0131392 -1.80446e-20)
(-0.442545 0.00336513 -1.34104e-19)
(-0.445713 -0.0058456 3.5491e-22)
(-0.447098 -0.0140715 -9.40395e-38)
(-0.446711 -0.0205881 -2.68461e-19)
(-0.445578 -0.0262984 -2.30695e-19)
(-0.443933 -0.0313611 4.79055e-19)
(-0.441904 -0.0358639 4.67041e-19)
(-0.439632 -0.0398669 9.11831e-19)
(-0.437227 -0.0434334 4.45341e-19)
(-0.434762 -0.0466264 1.34984e-20)
(-0.432302 -0.0495094 -4.3822e-19)
(-0.429914 -0.052144 -4.21783e-19)
(-0.42767 -0.0545924 8.17591e-19)
(-0.425604 -0.0569118 7.98145e-19)
(-0.423737 -0.0591502 -7.78749e-19)
(-0.422054 -0.0613506 5.85721e-21)
(-0.420582 -0.0635526 -5.77611e-21)
(-0.419211 -0.0657919 -5.87747e-39)
(-0.418428 -0.0681527 -1.46937e-39)
(-0.416453 -0.0706155 1.3197e-21)
(-0.421712 -0.073614 -6.70721e-19)
(-0.402529 -0.0767043 6.1256e-22)
)
;
    }
    frontAndBack
    {
        type            empty;
    }
}


// ************************************************************************* //
