/*--------------------------------*- C++ -*----------------------------------*\
| =========                 |                                                 |
| \\      /  F ield         | OpenFOAM: The Open Source CFD Toolbox           |
|  \\    /   O peration     | Version:  5.x                                   |
|   \\  /    A nd           | Web:      www.OpenFOAM.org                      |
|    \\/     M anipulation  |                                                 |
\*---------------------------------------------------------------------------*/
FoamFile
{
    version     2.0;
    format      ascii;
    class       volVectorField;
    location    "100";
    object      wallShearStress;
}
// * * * * * * * * * * * * * * * * * * * * * * * * * * * * * * * * * * * * * //

dimensions      [0 2 -2 0 0 0 0];

internalField   uniform (0 0 0);

boundaryField
{
    inlet
    {
        type            calculated;
        value           uniform (0 0 0);
    }
    outlet
    {
        type            calculated;
        value           uniform (0 0 0);
    }
    walls
    {
        type            calculated;
        value           nonuniform List<vector> 
82
(
(0.402266 -2.02138 0)
(0.0482562 -2.74866 1.09668e-20)
(-0.345203 -3.27557 -1.49483e-18)
(-0.89395 -3.21558 -1.58073e-18)
(-1.28474 -2.81311 -3.3009e-18)
(-1.52477 -2.29985 1.53929e-18)
(-1.63577 -1.79396 1.38366e-18)
(-1.64571 -1.34968 -1.20026e-18)
(-1.58013 -0.983476 -2.49145e-18)
(-1.45116 -0.688157 -7.66579e-20)
(-1.22781 -0.427527 -8.22706e-19)
(-0.977489 -0.231938 2.2687e-20)
(-0.78897 -0.126522 -2.44761e-19)
(-0.670115 -0.0803434 -4.19886e-21)
(-0.562676 -0.051241 1.6961e-19)
(-0.441851 -0.0252071 2.27496e-19)
(-0.316292 -0.00644132 -2.93339e-19)
(-0.199544 0.00310326 -4.47391e-20)
(-0.102217 0.00520042 3.98147e-20)
(-0.0297759 0.00349225 3.2844e-19)
(0.000524749 0.000407103 2.06082e-19)
(0.0194597 -0.00151233 4.88483e-19)
(0.0386444 -0.00349037 1.16925e-18)
(0.0536765 -0.005364 8.31147e-20)
(0.0632918 -0.00703812 3.16261e-22)
(0.068192 -0.00836849 -4.64778e-20)
(0.0702692 -0.00955679 3.03157e-18)
(0.0712963 -0.0107774 -4.78111e-20)
(0.0724098 -0.0120353 3.13182e-18)
(0.0742284 -0.0133744 -3.04392e-18)
(0.07713 -0.0149101 -4.80331e-20)
(0.0814887 -0.0167395 -2.36534e-20)
(0.087606 -0.0188992 2.31346e-20)
(0.0953422 -0.0212482 6.01853e-36)
(0.103187 -0.023302 -5.55477e-18)
(0.107595 -0.0240872 0)
(0.103888 -0.0224776 -5.05463e-37)
(0.0896772 -0.0177924 9.60165e-21)
(0.05966 -0.00882292 -5.84992e-21)
(0.0241007 0.0031896 3.26835e-18)
(0.0169111 0.0201385 3.12783e-18)
(0.499419 -1.45843 -5.20541e-19)
(0.376426 -0.770712 -7.77733e-20)
(0.223431 -0.360333 -4.13133e-18)
(0.0886668 -0.130416 -2.1545e-18)
(0.0157108 -0.0319506 -1.81261e-18)
(-0.00821578 -0.0035619 -1.58675e-18)
(-0.0438049 0.0122937 -5.20158e-18)
(-0.093515 0.0326601 -2.67906e-18)
(-0.14805 0.0505888 2.44885e-18)
(-0.208855 0.0693287 1.70478e-19)
(-0.279609 0.0861009 -5.32411e-18)
(-0.348038 0.0911553 2.4731e-18)
(-0.407109 0.0872711 3.91045e-21)
(-0.460136 0.0806509 1.57518e-18)
(-0.509012 0.0722867 2.45267e-18)
(-0.552784 0.0617229 -1.50642e-19)
(-0.59094 0.0493526 1.88079e-37)
(-0.623648 0.0357756 -9.84734e-19)
(-0.651213 0.0215347 -6.91976e-20)
(-0.674125 0.00707197 -5.2669e-19)
(-0.692338 -0.00712737 6.99227e-22)
(-0.706172 -0.0204068 -5.64237e-37)
(-0.715451 -0.0312718 -1.0843e-18)
(-0.722905 -0.0410289 -9.38379e-19)
(-0.729024 -0.0498969 1.9602e-18)
(-0.734208 -0.058019 1.91714e-18)
(-0.738859 -0.0654912 3.74835e-18)
(-0.743251 -0.0723979 1.8317e-18)
(-0.747588 -0.0788227 5.5581e-20)
(-0.752047 -0.0848541 -1.802e-18)
(-0.756799 -0.0905862 -1.73279e-18)
(-0.762029 -0.0961223 3.35575e-18)
(-0.767923 -0.101572 3.27128e-18)
(-0.774691 -0.107049 -3.18504e-18)
(-0.782586 -0.112681 2.38442e-20)
(-0.791966 -0.118606 -2.34805e-20)
(-0.803227 -0.125001 -2.35099e-38)
(-0.81779 -0.132173 -2.93874e-39)
(-0.834188 -0.140335 5.1782e-21)
(-0.869068 -0.151483 -2.59331e-18)
(-0.876989 -0.16228 2.3524e-21)
)
;
    }
    frontAndBack
    {
        type            empty;
    }
}


// ************************************************************************* //
