/*--------------------------------*- C++ -*----------------------------------*\
| =========                 |                                                 |
| \\      /  F ield         | OpenFOAM: The Open Source CFD Toolbox           |
|  \\    /   O peration     | Version:  5.x                                   |
|   \\  /    A nd           | Web:      www.OpenFOAM.org                      |
|    \\/     M anipulation  |                                                 |
\*---------------------------------------------------------------------------*/
FoamFile
{
    version     2.0;
    format      ascii;
    class       volVectorField;
    location    "100";
    object      wallShearStress;
}
// * * * * * * * * * * * * * * * * * * * * * * * * * * * * * * * * * * * * * //

dimensions      [0 2 -2 0 0 0 0];

internalField   uniform (0 0 0);

boundaryField
{
    inlet
    {
        type            calculated;
        value           uniform (0 0 0);
    }
    outlet
    {
        type            calculated;
        value           uniform (0 0 0);
    }
    walls
    {
        type            calculated;
        value           nonuniform List<vector> 
82
(
(-0.0405084 -0.025535 2.35099e-38)
(-0.0904205 -0.207562 2.92671e-21)
(-0.196585 -0.506486 -4.43326e-19)
(-0.382828 -0.769641 -7.16844e-19)
(-0.614489 -0.958285 -2.19653e-18)
(-0.858419 -1.05702 1.33667e-18)
(-1.08621 -1.07662 1.47561e-18)
(-1.28347 -1.03784 -1.57955e-18)
(-1.43436 -0.951778 -3.93848e-18)
(-1.5204 -0.824378 -1.33179e-19)
(-1.50691 -0.646033 -2.14382e-18)
(-1.43136 -0.463564 1.32167e-19)
(-1.36908 -0.334755 -2.10991e-18)
(-1.34911 -0.260175 -2.21384e-18)
(-1.33354 -0.203436 -1.94071e-18)
(-1.30152 -0.14896 -1.27522e-18)
(-1.25546 -0.0995418 1.12279e-18)
(-1.20265 -0.0565659 1.19528e-19)
(-1.14644 -0.0195798 -1.19006e-19)
(-1.08817 0.0119598 -9.01481e-19)
(-1.02797 0.0383216 -8.62612e-19)
(-0.975143 0.0583258 -8.80073e-19)
(-0.928274 0.0723519 -1.65908e-18)
(-0.882811 0.0833101 -1.03927e-19)
(-0.838705 0.0918199 1.37757e-21)
(-0.796004 0.0982667 4.93978e-20)
(-0.754617 0.102951 -3.03671e-18)
(-0.714332 0.10613 4.53195e-20)
(-0.674919 0.107994 -2.89059e-18)
(-0.636123 0.108692 2.70777e-18)
(-0.597639 0.108328 4.20795e-20)
(-0.559098 0.10696 1.96816e-20)
(-0.520046 0.104598 -1.95446e-20)
(-0.479992 0.101191 3.00927e-36)
(-0.438074 0.0966086 4.52667e-18)
(-0.393606 0.0906701 -3.00927e-36)
(-0.345357 0.0829922 4.11423e-38)
(-0.29298 0.0732908 -7.36595e-21)
(-0.230878 0.0601464 -1.24404e-21)
(-0.169446 0.0442032 -3.35686e-18)
(-0.069437 0.0276655 -5.50248e-18)
(-0.0758923 0.0568509 7.68293e-21)
(-0.177722 0.213185 1.14191e-20)
(-0.330768 0.369924 8.9044e-19)
(-0.498425 0.452851 7.19445e-19)
(-0.640157 0.459348 8.39167e-19)
(-0.741331 0.423952 1.00531e-18)
(-0.807335 0.377564 2.16327e-18)
(-0.852088 0.338315 1.04963e-18)
(-0.88784 0.311378 -1.00436e-18)
(-0.946474 0.312782 -7.22201e-20)
(-1.03 0.318325 2.62645e-18)
(-1.07627 0.283348 -1.31478e-18)
(-1.08227 0.229832 -8.33144e-23)
(-1.07691 0.183186 -9.00349e-19)
(-1.06944 0.144214 -1.4516e-18)
(-1.05741 0.109112 9.16724e-20)
(-1.03968 0.0770444 -7.52316e-37)
(-1.01762 0.0481332 6.28903e-19)
(-0.992426 0.0224223 4.47282e-20)
(-0.96471 -0.000155775 3.45346e-19)
(-0.934177 -0.0196411 2.91943e-22)
(-0.906456 -0.0352517 3.76158e-37)
(-0.880801 -0.0466774 7.22772e-19)
(-0.855553 -0.056009 6.26636e-19)
(-0.830923 -0.0636831 -1.31285e-18)
(-0.806937 -0.0699742 -1.28719e-18)
(-0.783578 -0.0750889 -2.5223e-18)
(-0.760756 -0.0792016 -1.23499e-18)
(-0.738352 -0.0824602 -3.75166e-20)
(-0.716236 -0.0849895 1.21914e-18)
(-0.694271 -0.0868931 1.17281e-18)
(-0.672251 -0.088249 -2.27232e-18)
(-0.649874 -0.0891078 -2.21522e-18)
(-0.626742 -0.0894777 2.15704e-18)
(-0.602268 -0.0893209 -1.60966e-20)
(-0.575802 -0.0885488 1.59479e-20)
(-0.54576 -0.0869194 0)
(-0.511147 -0.0841609 0)
(-0.465975 -0.0792303 -3.41624e-21)
(-0.411491 -0.0701913 1.69031e-18)
(-0.298024 -0.0590115 -1.5342e-21)
)
;
    }
    frontAndBack
    {
        type            empty;
    }
}


// ************************************************************************* //
