/*--------------------------------*- C++ -*----------------------------------*\
| =========                 |                                                 |
| \\      /  F ield         | OpenFOAM: The Open Source CFD Toolbox           |
|  \\    /   O peration     | Version:  5.x                                   |
|   \\  /    A nd           | Web:      www.OpenFOAM.org                      |
|    \\/     M anipulation  |                                                 |
\*---------------------------------------------------------------------------*/
FoamFile
{
    version     2.0;
    format      ascii;
    class       volScalarField;
    location    "3000";
    object      p;
}
// * * * * * * * * * * * * * * * * * * * * * * * * * * * * * * * * * * * * * //

dimensions      [0 2 -2 0 0 0 0];

internalField   nonuniform List<scalar> 
107912
(
2.41254e-05
5.07348e-05
2.31277e-05
1.29031e-05
-1.96961e-05
-4.65062e-05
-3.73011e-05
-6.02036e-05
-6.12184e-05
-7.10513e-05
-7.41797e-05
-7.85301e-05
-8.10019e-05
-8.28746e-05
-8.40889e-05
-8.48451e-05
-8.4945e-05
-8.4986e-05
-8.44296e-05
-8.37861e-05
-8.29148e-05
-8.17553e-05
-8.05532e-05
-7.91768e-05
-7.76502e-05
-7.61065e-05
-7.44372e-05
-7.27146e-05
-7.09797e-05
-6.91736e-05
-6.73975e-05
-6.56078e-05
-6.38126e-05
-6.20726e-05
-6.03516e-05
-5.86782e-05
-5.70704e-05
-5.55192e-05
-5.40556e-05
-5.26644e-05
-5.13531e-05
-5.01414e-05
-4.90098e-05
-4.79723e-05
-4.70207e-05
-4.61545e-05
-4.53777e-05
-4.46723e-05
-4.40483e-05
-4.34838e-05
-4.29899e-05
-4.25448e-05
-4.2201e-05
-4.19223e-05
-4.16822e-05
-4.14624e-05
-4.12702e-05
-4.10984e-05
-4.09463e-05
-4.08082e-05
-4.06864e-05
-4.05701e-05
-4.0472e-05
-4.03784e-05
-4.02978e-05
-4.02164e-05
-4.0149e-05
-4.00844e-05
-4.00287e-05
-3.99718e-05
-3.99272e-05
-3.98846e-05
-3.98506e-05
-3.98176e-05
-3.9791e-05
-3.97609e-05
-3.97408e-05
-3.97222e-05
-3.97064e-05
-3.96888e-05
-3.96751e-05
-3.96587e-05
-3.96466e-05
-3.96298e-05
-3.96156e-05
-3.95955e-05
-3.95776e-05
-3.95528e-05
-3.95267e-05
-3.9492e-05
-3.94548e-05
-3.94135e-05
-3.93597e-05
-3.93149e-05
-3.9236e-05
-3.92048e-05
-3.90844e-05
-3.91181e-05
-3.8921e-05
-3.91578e-05
-3.87349e-05
-4.08178e-05
3.39479e-05
5.06892e-05
2.30141e-05
1.28005e-05
-1.96262e-05
-4.63883e-05
-3.72633e-05
-6.01292e-05
-6.11662e-05
-7.09956e-05
-7.41381e-05
-7.84929e-05
-8.0973e-05
-8.28514e-05
-8.40703e-05
-8.4831e-05
-8.49343e-05
-8.49781e-05
-8.44244e-05
-8.37824e-05
-8.29129e-05
-8.17549e-05
-8.05535e-05
-7.91782e-05
-7.76523e-05
-7.6109e-05
-7.44403e-05
-7.27179e-05
-7.09832e-05
-6.91773e-05
-6.74012e-05
-6.56116e-05
-6.38164e-05
-6.20763e-05
-6.03552e-05
-5.86817e-05
-5.70738e-05
-5.55224e-05
-5.40586e-05
-5.26673e-05
-5.13557e-05
-5.01438e-05
-4.90121e-05
-4.79744e-05
-4.70226e-05
-4.61563e-05
-4.53792e-05
-4.46737e-05
-4.40495e-05
-4.3485e-05
-4.29909e-05
-4.25457e-05
-4.22018e-05
-4.19231e-05
-4.16829e-05
-4.14629e-05
-4.12707e-05
-4.10989e-05
-4.09467e-05
-4.08085e-05
-4.06867e-05
-4.05704e-05
-4.04722e-05
-4.03786e-05
-4.02979e-05
-4.02166e-05
-4.01491e-05
-4.00845e-05
-4.00288e-05
-3.99719e-05
-3.99274e-05
-3.98847e-05
-3.98507e-05
-3.98177e-05
-3.9791e-05
-3.9761e-05
-3.97408e-05
-3.97222e-05
-3.97064e-05
-3.96888e-05
-3.96751e-05
-3.96587e-05
-3.96466e-05
-3.96298e-05
-3.96156e-05
-3.95955e-05
-3.95776e-05
-3.95528e-05
-3.95267e-05
-3.9492e-05
-3.94548e-05
-3.94136e-05
-3.93597e-05
-3.9315e-05
-3.92361e-05
-3.92051e-05
-3.90847e-05
-3.91186e-05
-3.89215e-05
-3.91593e-05
-3.87356e-05
-4.0751e-05
3.52287e-05
5.06343e-05
2.28834e-05
1.26827e-05
-1.95512e-05
-4.62535e-05
-3.72204e-05
-6.00488e-05
-6.11071e-05
-7.09339e-05
-7.40909e-05
-7.84509e-05
-8.09398e-05
-8.28245e-05
-8.40485e-05
-8.48143e-05
-8.49213e-05
-8.49681e-05
-8.44175e-05
-8.37772e-05
-8.29097e-05
-8.17533e-05
-8.05529e-05
-7.91787e-05
-7.76536e-05
-7.61108e-05
-7.44427e-05
-7.27207e-05
-7.09863e-05
-6.91806e-05
-6.74046e-05
-6.56151e-05
-6.382e-05
-6.20798e-05
-6.03587e-05
-5.86851e-05
-5.7077e-05
-5.55255e-05
-5.40616e-05
-5.26701e-05
-5.13583e-05
-5.01463e-05
-4.90144e-05
-4.79765e-05
-4.70245e-05
-4.6158e-05
-4.53808e-05
-4.46751e-05
-4.40508e-05
-4.34861e-05
-4.29919e-05
-4.25466e-05
-4.22026e-05
-4.19238e-05
-4.16835e-05
-4.14636e-05
-4.12712e-05
-4.10993e-05
-4.09471e-05
-4.08089e-05
-4.0687e-05
-4.05708e-05
-4.04725e-05
-4.03789e-05
-4.02981e-05
-4.02168e-05
-4.01493e-05
-4.00847e-05
-4.00289e-05
-3.99721e-05
-3.99275e-05
-3.98848e-05
-3.98508e-05
-3.98178e-05
-3.9791e-05
-3.97611e-05
-3.97408e-05
-3.97223e-05
-3.97064e-05
-3.96888e-05
-3.9675e-05
-3.96587e-05
-3.96465e-05
-3.96298e-05
-3.96155e-05
-3.95955e-05
-3.95775e-05
-3.95528e-05
-3.95266e-05
-3.9492e-05
-3.94548e-05
-3.94137e-05
-3.93598e-05
-3.93152e-05
-3.92363e-05
-3.92054e-05
-3.9085e-05
-3.91191e-05
-3.8922e-05
-3.9161e-05
-3.87369e-05
-4.07387e-05
3.46438e-05
5.05766e-05
2.27516e-05
1.25618e-05
-1.94759e-05
-4.61148e-05
-3.71764e-05
-5.99659e-05
-6.10467e-05
-7.08704e-05
-7.40424e-05
-7.84075e-05
-8.09055e-05
-8.27967e-05
-8.4026e-05
-8.47969e-05
-8.49077e-05
-8.49576e-05
-8.44102e-05
-8.37717e-05
-8.29062e-05
-8.17515e-05
-8.05521e-05
-7.9179e-05
-7.76548e-05
-7.61125e-05
-7.44451e-05
-7.27234e-05
-7.09893e-05
-6.9184e-05
-6.7408e-05
-6.56186e-05
-6.38236e-05
-6.20833e-05
-6.03622e-05
-5.86885e-05
-5.70803e-05
-5.55287e-05
-5.40645e-05
-5.26729e-05
-5.13609e-05
-5.01487e-05
-4.90167e-05
-4.79787e-05
-4.70264e-05
-4.61598e-05
-4.53824e-05
-4.46766e-05
-4.40521e-05
-4.34873e-05
-4.2993e-05
-4.25475e-05
-4.22034e-05
-4.19246e-05
-4.16842e-05
-4.14642e-05
-4.12717e-05
-4.10998e-05
-4.09474e-05
-4.08093e-05
-4.06872e-05
-4.05711e-05
-4.04727e-05
-4.03792e-05
-4.02983e-05
-4.02171e-05
-4.01494e-05
-4.00849e-05
-4.0029e-05
-3.99722e-05
-3.99276e-05
-3.98849e-05
-3.98508e-05
-3.98179e-05
-3.97911e-05
-3.97611e-05
-3.97408e-05
-3.97223e-05
-3.97063e-05
-3.96888e-05
-3.96749e-05
-3.96586e-05
-3.96464e-05
-3.96297e-05
-3.96154e-05
-3.95954e-05
-3.95774e-05
-3.95528e-05
-3.95265e-05
-3.9492e-05
-3.94548e-05
-3.94137e-05
-3.93598e-05
-3.93153e-05
-3.92365e-05
-3.92057e-05
-3.90854e-05
-3.91197e-05
-3.89225e-05
-3.91628e-05
-3.87383e-05
-4.07341e-05
3.44527e-05
5.05147e-05
2.26156e-05
1.24353e-05
-1.93974e-05
-4.59685e-05
-3.71297e-05
-5.98775e-05
-6.09829e-05
-7.08029e-05
-7.39909e-05
-7.83614e-05
-8.08692e-05
-8.27671e-05
-8.40021e-05
-8.47784e-05
-8.48933e-05
-8.49465e-05
-8.44024e-05
-8.37659e-05
-8.29025e-05
-8.17496e-05
-8.05513e-05
-7.91795e-05
-7.76561e-05
-7.61144e-05
-7.44477e-05
-7.27264e-05
-7.09925e-05
-6.91876e-05
-6.74117e-05
-6.56224e-05
-6.38274e-05
-6.2087e-05
-6.03659e-05
-5.86921e-05
-5.70838e-05
-5.55321e-05
-5.40677e-05
-5.26759e-05
-5.13638e-05
-5.01514e-05
-4.90191e-05
-4.7981e-05
-4.70284e-05
-4.61617e-05
-4.53841e-05
-4.46781e-05
-4.40535e-05
-4.34885e-05
-4.29941e-05
-4.25485e-05
-4.22042e-05
-4.19255e-05
-4.16848e-05
-4.14649e-05
-4.12722e-05
-4.11004e-05
-4.09478e-05
-4.08098e-05
-4.06875e-05
-4.05715e-05
-4.04729e-05
-4.03795e-05
-4.02985e-05
-4.02173e-05
-4.01496e-05
-4.00851e-05
-4.00291e-05
-3.99724e-05
-3.99276e-05
-3.98851e-05
-3.98508e-05
-3.9818e-05
-3.97911e-05
-3.97612e-05
-3.97408e-05
-3.97224e-05
-3.97063e-05
-3.96888e-05
-3.96748e-05
-3.96586e-05
-3.96463e-05
-3.96297e-05
-3.96152e-05
-3.95954e-05
-3.95773e-05
-3.95528e-05
-3.95264e-05
-3.9492e-05
-3.94547e-05
-3.94138e-05
-3.93598e-05
-3.93154e-05
-3.92366e-05
-3.9206e-05
-3.90857e-05
-3.91202e-05
-3.89231e-05
-3.91647e-05
-3.87397e-05
-4.0726e-05
3.44925e-05
5.04469e-05
2.24738e-05
1.23016e-05
-1.9314e-05
-4.58118e-05
-3.70795e-05
-5.97819e-05
-6.09149e-05
-7.07301e-05
-7.39357e-05
-7.83118e-05
-8.08301e-05
-8.27352e-05
-8.39764e-05
-8.47584e-05
-8.48778e-05
-8.49345e-05
-8.43941e-05
-8.37596e-05
-8.28986e-05
-8.17476e-05
-8.05504e-05
-7.918e-05
-7.76575e-05
-7.61164e-05
-7.44505e-05
-7.27296e-05
-7.0996e-05
-6.91914e-05
-6.74156e-05
-6.56264e-05
-6.38315e-05
-6.20911e-05
-6.03699e-05
-5.86959e-05
-5.70875e-05
-5.55357e-05
-5.40712e-05
-5.26791e-05
-5.13668e-05
-5.01542e-05
-4.90217e-05
-4.79834e-05
-4.70306e-05
-4.61637e-05
-4.5386e-05
-4.46798e-05
-4.40549e-05
-4.34899e-05
-4.29953e-05
-4.25496e-05
-4.22051e-05
-4.19264e-05
-4.16856e-05
-4.14656e-05
-4.12727e-05
-4.11009e-05
-4.09482e-05
-4.08102e-05
-4.06878e-05
-4.05718e-05
-4.04732e-05
-4.03798e-05
-4.02986e-05
-4.02176e-05
-4.01497e-05
-4.00853e-05
-4.00292e-05
-3.99726e-05
-3.99277e-05
-3.98852e-05
-3.98509e-05
-3.9818e-05
-3.9791e-05
-3.97613e-05
-3.97407e-05
-3.97224e-05
-3.97062e-05
-3.96888e-05
-3.96746e-05
-3.96586e-05
-3.96461e-05
-3.96296e-05
-3.9615e-05
-3.95953e-05
-3.95771e-05
-3.95527e-05
-3.95263e-05
-3.9492e-05
-3.94546e-05
-3.94138e-05
-3.93598e-05
-3.93155e-05
-3.92368e-05
-3.92063e-05
-3.90861e-05
-3.91208e-05
-3.89236e-05
-3.91667e-05
-3.87413e-05
-4.0716e-05
3.45451e-05
5.03725e-05
2.23265e-05
1.2161e-05
-1.9225e-05
-4.56436e-05
-3.70256e-05
-5.96786e-05
-6.08421e-05
-7.06518e-05
-7.38765e-05
-7.82585e-05
-8.0788e-05
-8.2701e-05
-8.39487e-05
-8.4737e-05
-8.48611e-05
-8.49217e-05
-8.43852e-05
-8.37529e-05
-8.28944e-05
-8.17454e-05
-8.05495e-05
-7.91805e-05
-7.7659e-05
-7.61186e-05
-7.44535e-05
-7.2733e-05
-7.09998e-05
-6.91956e-05
-6.74199e-05
-6.56308e-05
-6.3836e-05
-6.20954e-05
-6.03743e-05
-5.87001e-05
-5.70916e-05
-5.55396e-05
-5.40748e-05
-5.26826e-05
-5.137e-05
-5.01573e-05
-4.90246e-05
-4.79861e-05
-4.7033e-05
-4.6166e-05
-4.53879e-05
-4.46816e-05
-4.40565e-05
-4.34913e-05
-4.29966e-05
-4.25508e-05
-4.22061e-05
-4.19274e-05
-4.16864e-05
-4.14663e-05
-4.12733e-05
-4.11015e-05
-4.09486e-05
-4.08107e-05
-4.06881e-05
-4.05722e-05
-4.04734e-05
-4.03801e-05
-4.02988e-05
-4.02179e-05
-4.01498e-05
-4.00856e-05
-4.00293e-05
-3.99728e-05
-3.99278e-05
-3.98853e-05
-3.98509e-05
-3.98181e-05
-3.9791e-05
-3.97613e-05
-3.97407e-05
-3.97224e-05
-3.97062e-05
-3.96888e-05
-3.96745e-05
-3.96585e-05
-3.96459e-05
-3.96295e-05
-3.96148e-05
-3.95952e-05
-3.95769e-05
-3.95526e-05
-3.95261e-05
-3.9492e-05
-3.94545e-05
-3.94139e-05
-3.93598e-05
-3.93156e-05
-3.92369e-05
-3.92067e-05
-3.90865e-05
-3.91214e-05
-3.89242e-05
-3.91688e-05
-3.87429e-05
-4.07053e-05
3.45857e-05
5.02908e-05
2.21743e-05
1.20141e-05
-1.91292e-05
-4.54625e-05
-3.69677e-05
-5.95668e-05
-6.07643e-05
-7.05675e-05
-7.38129e-05
-7.82011e-05
-8.07429e-05
-8.26641e-05
-8.3919e-05
-8.47139e-05
-8.48432e-05
-8.49078e-05
-8.43755e-05
-8.37457e-05
-8.28898e-05
-8.17431e-05
-8.05485e-05
-7.91811e-05
-7.76606e-05
-7.61209e-05
-7.44567e-05
-7.27367e-05
-7.10039e-05
-6.92e-05
-6.74244e-05
-6.56354e-05
-6.38407e-05
-6.21001e-05
-6.03789e-05
-5.87046e-05
-5.70959e-05
-5.55438e-05
-5.40788e-05
-5.26864e-05
-5.13735e-05
-5.01606e-05
-4.90276e-05
-4.79889e-05
-4.70355e-05
-4.61683e-05
-4.539e-05
-4.46835e-05
-4.40581e-05
-4.34929e-05
-4.29979e-05
-4.25521e-05
-4.22071e-05
-4.19284e-05
-4.16872e-05
-4.14671e-05
-4.12739e-05
-4.11021e-05
-4.09491e-05
-4.08112e-05
-4.06884e-05
-4.05726e-05
-4.04737e-05
-4.03804e-05
-4.0299e-05
-4.02182e-05
-4.015e-05
-4.00858e-05
-4.00294e-05
-3.9973e-05
-3.99279e-05
-3.98855e-05
-3.98509e-05
-3.98182e-05
-3.9791e-05
-3.97614e-05
-3.97406e-05
-3.97224e-05
-3.97061e-05
-3.96887e-05
-3.96743e-05
-3.96584e-05
-3.96457e-05
-3.96294e-05
-3.96146e-05
-3.95951e-05
-3.95767e-05
-3.95525e-05
-3.95259e-05
-3.9492e-05
-3.94543e-05
-3.94139e-05
-3.93598e-05
-3.93157e-05
-3.92371e-05
-3.9207e-05
-3.90869e-05
-3.91221e-05
-3.89248e-05
-3.9171e-05
-3.87448e-05
-4.06938e-05
3.46314e-05
5.02013e-05
2.20179e-05
1.18614e-05
-1.90253e-05
-4.52668e-05
-3.69055e-05
-5.94455e-05
-6.0681e-05
-7.04765e-05
-7.37446e-05
-7.81393e-05
-8.06943e-05
-8.26243e-05
-8.3887e-05
-8.46891e-05
-8.48238e-05
-8.48929e-05
-8.43651e-05
-8.37379e-05
-8.28849e-05
-8.17405e-05
-8.05474e-05
-7.91817e-05
-7.76624e-05
-7.61234e-05
-7.44601e-05
-7.27407e-05
-7.10082e-05
-6.92048e-05
-6.74293e-05
-6.56404e-05
-6.38458e-05
-6.21051e-05
-6.03839e-05
-5.87094e-05
-5.71006e-05
-5.55482e-05
-5.4083e-05
-5.26904e-05
-5.13773e-05
-5.01641e-05
-4.90309e-05
-4.7992e-05
-4.70382e-05
-4.61709e-05
-4.53923e-05
-4.46856e-05
-4.40599e-05
-4.34945e-05
-4.29994e-05
-4.25534e-05
-4.22083e-05
-4.19295e-05
-4.16881e-05
-4.1468e-05
-4.12745e-05
-4.11028e-05
-4.09495e-05
-4.08118e-05
-4.06888e-05
-4.05731e-05
-4.0474e-05
-4.03808e-05
-4.02992e-05
-4.02185e-05
-4.01502e-05
-4.00861e-05
-4.00295e-05
-3.99732e-05
-3.9928e-05
-3.98856e-05
-3.98509e-05
-3.98183e-05
-3.9791e-05
-3.97614e-05
-3.97406e-05
-3.97224e-05
-3.9706e-05
-3.96887e-05
-3.96741e-05
-3.96583e-05
-3.96455e-05
-3.96293e-05
-3.96144e-05
-3.9595e-05
-3.95765e-05
-3.95525e-05
-3.95257e-05
-3.9492e-05
-3.94542e-05
-3.9414e-05
-3.93597e-05
-3.93159e-05
-3.92372e-05
-3.92074e-05
-3.90873e-05
-3.91228e-05
-3.89255e-05
-3.91733e-05
-3.87468e-05
-4.06815e-05
3.46869e-05
5.0103e-05
2.18581e-05
1.17038e-05
-1.89114e-05
-4.50544e-05
-3.68387e-05
-5.93136e-05
-6.05917e-05
-7.03783e-05
-7.36712e-05
-7.80726e-05
-8.0642e-05
-8.25815e-05
-8.38525e-05
-8.46623e-05
-8.4803e-05
-8.48769e-05
-8.43539e-05
-8.37294e-05
-8.28795e-05
-8.17377e-05
-8.05462e-05
-7.91823e-05
-7.76642e-05
-7.61261e-05
-7.44637e-05
-7.27449e-05
-7.10129e-05
-6.92099e-05
-6.74345e-05
-6.56458e-05
-6.38513e-05
-6.21104e-05
-6.03892e-05
-5.87145e-05
-5.71056e-05
-5.5553e-05
-5.40875e-05
-5.26947e-05
-5.13813e-05
-5.01679e-05
-4.90344e-05
-4.79953e-05
-4.70411e-05
-4.61736e-05
-4.53947e-05
-4.46878e-05
-4.40619e-05
-4.34963e-05
-4.3001e-05
-4.25549e-05
-4.22095e-05
-4.19307e-05
-4.16891e-05
-4.1469e-05
-4.12752e-05
-4.11035e-05
-4.09501e-05
-4.08123e-05
-4.06892e-05
-4.05736e-05
-4.04743e-05
-4.03812e-05
-4.02994e-05
-4.02188e-05
-4.01503e-05
-4.00863e-05
-4.00296e-05
-3.99734e-05
-3.9928e-05
-3.98857e-05
-3.9851e-05
-3.98184e-05
-3.97909e-05
-3.97615e-05
-3.97406e-05
-3.97224e-05
-3.97059e-05
-3.96886e-05
-3.96739e-05
-3.96582e-05
-3.96453e-05
-3.96292e-05
-3.96142e-05
-3.95949e-05
-3.95763e-05
-3.95523e-05
-3.95255e-05
-3.94919e-05
-3.94541e-05
-3.9414e-05
-3.93597e-05
-3.9316e-05
-3.92374e-05
-3.92078e-05
-3.90877e-05
-3.91236e-05
-3.89261e-05
-3.91758e-05
-3.87489e-05
-4.06684e-05
3.47548e-05
4.9995e-05
2.1696e-05
1.15424e-05
-1.87854e-05
-4.48228e-05
-3.67667e-05
-5.91698e-05
-6.04957e-05
-7.0272e-05
-7.35921e-05
-7.80007e-05
-8.05856e-05
-8.25352e-05
-8.38153e-05
-8.46333e-05
-8.47805e-05
-8.48595e-05
-8.43417e-05
-8.37203e-05
-8.28738e-05
-8.17347e-05
-8.05449e-05
-7.91829e-05
-7.76662e-05
-7.6129e-05
-7.44677e-05
-7.27495e-05
-7.10179e-05
-6.92154e-05
-6.74401e-05
-6.56516e-05
-6.38572e-05
-6.21162e-05
-6.0395e-05
-5.872e-05
-5.7111e-05
-5.55582e-05
-5.40924e-05
-5.26994e-05
-5.13856e-05
-5.0172e-05
-4.90382e-05
-4.79988e-05
-4.70442e-05
-4.61766e-05
-4.53974e-05
-4.46902e-05
-4.40639e-05
-4.34982e-05
-4.30027e-05
-4.25564e-05
-4.22108e-05
-4.1932e-05
-4.16901e-05
-4.147e-05
-4.1276e-05
-4.11043e-05
-4.09506e-05
-4.0813e-05
-4.06896e-05
-4.05741e-05
-4.04746e-05
-4.03816e-05
-4.02996e-05
-4.02192e-05
-4.01506e-05
-4.00866e-05
-4.00297e-05
-3.99736e-05
-3.99282e-05
-3.98859e-05
-3.9851e-05
-3.98185e-05
-3.97909e-05
-3.97615e-05
-3.97405e-05
-3.97225e-05
-3.97058e-05
-3.96885e-05
-3.96737e-05
-3.96581e-05
-3.96451e-05
-3.96291e-05
-3.96139e-05
-3.95947e-05
-3.9576e-05
-3.95522e-05
-3.95253e-05
-3.94919e-05
-3.94539e-05
-3.94141e-05
-3.93597e-05
-3.93162e-05
-3.92376e-05
-3.92083e-05
-3.90882e-05
-3.91244e-05
-3.89269e-05
-3.91784e-05
-3.87512e-05
-4.06543e-05
3.48356e-05
4.98763e-05
2.15331e-05
1.13788e-05
-1.86443e-05
-4.45688e-05
-3.66891e-05
-5.90123e-05
-6.03921e-05
-7.01566e-05
-7.35067e-05
-7.79229e-05
-8.05247e-05
-8.24852e-05
-8.37751e-05
-8.46021e-05
-8.47562e-05
-8.48408e-05
-8.43286e-05
-8.37105e-05
-8.28676e-05
-8.17314e-05
-8.05434e-05
-7.91835e-05
-7.76683e-05
-7.6132e-05
-7.44719e-05
-7.27543e-05
-7.10233e-05
-6.92213e-05
-6.74461e-05
-6.56577e-05
-6.38635e-05
-6.21224e-05
-6.04011e-05
-5.87259e-05
-5.71167e-05
-5.55637e-05
-5.40976e-05
-5.27043e-05
-5.13902e-05
-5.01763e-05
-4.90422e-05
-4.80025e-05
-4.70476e-05
-4.61797e-05
-4.54002e-05
-4.46927e-05
-4.40662e-05
-4.35002e-05
-4.30045e-05
-4.25581e-05
-4.22122e-05
-4.19334e-05
-4.16913e-05
-4.1471e-05
-4.12769e-05
-4.11051e-05
-4.09513e-05
-4.08136e-05
-4.06901e-05
-4.05746e-05
-4.0475e-05
-4.0382e-05
-4.02999e-05
-4.02196e-05
-4.01508e-05
-4.00869e-05
-4.00299e-05
-3.99739e-05
-3.99283e-05
-3.9886e-05
-3.98511e-05
-3.98186e-05
-3.97909e-05
-3.97616e-05
-3.97405e-05
-3.97225e-05
-3.97057e-05
-3.96884e-05
-3.96735e-05
-3.9658e-05
-3.96449e-05
-3.96289e-05
-3.96136e-05
-3.95946e-05
-3.95758e-05
-3.95521e-05
-3.9525e-05
-3.94918e-05
-3.94538e-05
-3.94141e-05
-3.93597e-05
-3.93163e-05
-3.92378e-05
-3.92087e-05
-3.90887e-05
-3.91253e-05
-3.89277e-05
-3.91812e-05
-3.87537e-05
-4.06392e-05
3.49326e-05
4.9746e-05
2.13709e-05
1.12147e-05
-1.84851e-05
-4.42889e-05
-3.66049e-05
-5.88394e-05
-6.028e-05
-7.00312e-05
-7.34142e-05
-7.78385e-05
-8.04589e-05
-8.24311e-05
-8.37317e-05
-8.45682e-05
-8.47299e-05
-8.48205e-05
-8.43143e-05
-8.36998e-05
-8.28608e-05
-8.17278e-05
-8.05418e-05
-7.91842e-05
-7.76705e-05
-7.61353e-05
-7.44764e-05
-7.27595e-05
-7.10291e-05
-6.92276e-05
-6.74526e-05
-6.56644e-05
-6.38702e-05
-6.2129e-05
-6.04077e-05
-5.87323e-05
-5.71229e-05
-5.55697e-05
-5.41032e-05
-5.27096e-05
-5.13952e-05
-5.0181e-05
-4.90465e-05
-4.80065e-05
-4.70512e-05
-4.61831e-05
-4.54032e-05
-4.46955e-05
-4.40686e-05
-4.35025e-05
-4.30064e-05
-4.25599e-05
-4.22138e-05
-4.19349e-05
-4.16925e-05
-4.14722e-05
-4.12778e-05
-4.1106e-05
-4.09519e-05
-4.08143e-05
-4.06906e-05
-4.05752e-05
-4.04754e-05
-4.03825e-05
-4.03002e-05
-4.022e-05
-4.0151e-05
-4.00872e-05
-4.00301e-05
-3.99742e-05
-3.99284e-05
-3.98862e-05
-3.98511e-05
-3.98187e-05
-3.97909e-05
-3.97617e-05
-3.97405e-05
-3.97225e-05
-3.97056e-05
-3.96883e-05
-3.96733e-05
-3.96579e-05
-3.96446e-05
-3.96287e-05
-3.96134e-05
-3.95944e-05
-3.95755e-05
-3.9552e-05
-3.95248e-05
-3.94918e-05
-3.94537e-05
-3.94142e-05
-3.93597e-05
-3.93165e-05
-3.9238e-05
-3.92093e-05
-3.90893e-05
-3.91263e-05
-3.89286e-05
-3.91841e-05
-3.87565e-05
-4.06231e-05
3.50479e-05
4.96029e-05
2.12116e-05
1.10523e-05
-1.83037e-05
-4.39787e-05
-3.65134e-05
-5.86486e-05
-6.01583e-05
-6.98943e-05
-7.33139e-05
-7.77468e-05
-8.03874e-05
-8.23722e-05
-8.36846e-05
-8.45315e-05
-8.47014e-05
-8.47986e-05
-8.42988e-05
-8.36882e-05
-8.28534e-05
-8.17238e-05
-8.05401e-05
-7.91849e-05
-7.76728e-05
-7.61388e-05
-7.44812e-05
-7.27651e-05
-7.10352e-05
-6.92343e-05
-6.74595e-05
-6.56715e-05
-6.38775e-05
-6.21361e-05
-6.04147e-05
-5.87391e-05
-5.71295e-05
-5.5576e-05
-5.41092e-05
-5.27153e-05
-5.14005e-05
-5.0186e-05
-4.90512e-05
-4.80108e-05
-4.70551e-05
-4.61867e-05
-4.54064e-05
-4.46984e-05
-4.40711e-05
-4.35048e-05
-4.30085e-05
-4.25618e-05
-4.22154e-05
-4.19365e-05
-4.16938e-05
-4.14734e-05
-4.12787e-05
-4.1107e-05
-4.09527e-05
-4.08151e-05
-4.06911e-05
-4.05758e-05
-4.04758e-05
-4.0383e-05
-4.03005e-05
-4.02204e-05
-4.01513e-05
-4.00876e-05
-4.00302e-05
-3.99745e-05
-3.99286e-05
-3.98864e-05
-3.98512e-05
-3.98188e-05
-3.97908e-05
-3.97617e-05
-3.97404e-05
-3.97225e-05
-3.97055e-05
-3.96882e-05
-3.9673e-05
-3.96578e-05
-3.96444e-05
-3.96286e-05
-3.96131e-05
-3.95942e-05
-3.95753e-05
-3.95518e-05
-3.95246e-05
-3.94917e-05
-3.94535e-05
-3.94143e-05
-3.93597e-05
-3.93167e-05
-3.92383e-05
-3.92098e-05
-3.90898e-05
-3.91273e-05
-3.89295e-05
-3.91871e-05
-3.87594e-05
-4.0606e-05
3.51855e-05
4.9446e-05
2.10577e-05
1.08943e-05
-1.80956e-05
-4.36332e-05
-3.64133e-05
-5.84373e-05
-6.00255e-05
-6.97443e-05
-7.32045e-05
-7.76469e-05
-8.03097e-05
-8.23082e-05
-8.36335e-05
-8.44915e-05
-8.46704e-05
-8.47747e-05
-8.42819e-05
-8.36756e-05
-8.28454e-05
-8.17195e-05
-8.05381e-05
-7.91855e-05
-7.76753e-05
-7.61425e-05
-7.44863e-05
-7.2771e-05
-7.10418e-05
-6.92415e-05
-6.74669e-05
-6.56791e-05
-6.38852e-05
-6.21437e-05
-6.04223e-05
-5.87464e-05
-5.71366e-05
-5.55828e-05
-5.41156e-05
-5.27214e-05
-5.14062e-05
-5.01914e-05
-4.90561e-05
-4.80154e-05
-4.70593e-05
-4.61906e-05
-4.54099e-05
-4.47016e-05
-4.40739e-05
-4.35073e-05
-4.30108e-05
-4.25638e-05
-4.22172e-05
-4.19382e-05
-4.16953e-05
-4.14747e-05
-4.12798e-05
-4.1108e-05
-4.09535e-05
-4.08159e-05
-4.06917e-05
-4.05765e-05
-4.04763e-05
-4.03835e-05
-4.03009e-05
-4.02209e-05
-4.01516e-05
-4.0088e-05
-4.00305e-05
-3.99748e-05
-3.99288e-05
-3.98866e-05
-3.98513e-05
-3.9819e-05
-3.97909e-05
-3.97618e-05
-3.97404e-05
-3.97225e-05
-3.97054e-05
-3.96881e-05
-3.96728e-05
-3.96576e-05
-3.96442e-05
-3.96284e-05
-3.96128e-05
-3.95941e-05
-3.9575e-05
-3.95516e-05
-3.95243e-05
-3.94917e-05
-3.94534e-05
-3.94143e-05
-3.93597e-05
-3.93169e-05
-3.92385e-05
-3.92104e-05
-3.90905e-05
-3.91285e-05
-3.89305e-05
-3.91903e-05
-3.87626e-05
-4.05878e-05
3.5348e-05
4.92742e-05
2.09122e-05
1.07439e-05
-1.78555e-05
-4.32464e-05
-3.63029e-05
-5.82022e-05
-5.98799e-05
-6.95795e-05
-7.3085e-05
-7.75375e-05
-8.02249e-05
-8.22384e-05
-8.35777e-05
-8.44479e-05
-8.46366e-05
-8.47486e-05
-8.42635e-05
-8.36618e-05
-8.28365e-05
-8.17146e-05
-8.05358e-05
-7.91861e-05
-7.76779e-05
-7.61464e-05
-7.44917e-05
-7.27774e-05
-7.10488e-05
-6.92493e-05
-6.74748e-05
-6.56872e-05
-6.38935e-05
-6.21519e-05
-6.04304e-05
-5.87542e-05
-5.71442e-05
-5.55901e-05
-5.41225e-05
-5.27279e-05
-5.14123e-05
-5.01971e-05
-4.90614e-05
-4.80203e-05
-4.70637e-05
-4.61947e-05
-4.54136e-05
-4.4705e-05
-4.40768e-05
-4.351e-05
-4.30132e-05
-4.2566e-05
-4.22192e-05
-4.194e-05
-4.16968e-05
-4.14761e-05
-4.1281e-05
-4.11091e-05
-4.09544e-05
-4.08167e-05
-4.06924e-05
-4.05772e-05
-4.04769e-05
-4.03841e-05
-4.03012e-05
-4.02214e-05
-4.0152e-05
-4.00883e-05
-4.00307e-05
-3.99751e-05
-3.99289e-05
-3.98868e-05
-3.98514e-05
-3.98191e-05
-3.97909e-05
-3.97619e-05
-3.97404e-05
-3.97225e-05
-3.97053e-05
-3.9688e-05
-3.96726e-05
-3.96575e-05
-3.96439e-05
-3.96282e-05
-3.96126e-05
-3.95939e-05
-3.95747e-05
-3.95514e-05
-3.95241e-05
-3.94916e-05
-3.94532e-05
-3.94144e-05
-3.93597e-05
-3.93171e-05
-3.92388e-05
-3.9211e-05
-3.90911e-05
-3.91297e-05
-3.89315e-05
-3.91937e-05
-3.87661e-05
-4.05684e-05
3.55402e-05
4.90865e-05
2.07784e-05
1.06044e-05
-1.75774e-05
-4.28116e-05
-3.61804e-05
-5.79394e-05
-5.97194e-05
-6.93974e-05
-7.29537e-05
-7.74175e-05
-8.0132e-05
-8.21618e-05
-8.35167e-05
-8.44002e-05
-8.45997e-05
-8.47201e-05
-8.42433e-05
-8.36467e-05
-8.28268e-05
-8.17092e-05
-8.05333e-05
-7.91866e-05
-7.76805e-05
-7.61505e-05
-7.44975e-05
-7.27842e-05
-7.10564e-05
-6.92575e-05
-6.74833e-05
-6.5696e-05
-6.39024e-05
-6.21606e-05
-6.0439e-05
-5.87626e-05
-5.71523e-05
-5.55979e-05
-5.41299e-05
-5.27349e-05
-5.14189e-05
-5.02033e-05
-4.90671e-05
-4.80256e-05
-4.70685e-05
-4.61991e-05
-4.54175e-05
-4.47086e-05
-4.408e-05
-4.3513e-05
-4.30158e-05
-4.25684e-05
-4.22213e-05
-4.1942e-05
-4.16985e-05
-4.14776e-05
-4.12822e-05
-4.11103e-05
-4.09553e-05
-4.08177e-05
-4.06931e-05
-4.0578e-05
-4.04775e-05
-4.03847e-05
-4.03017e-05
-4.0222e-05
-4.01524e-05
-4.00888e-05
-4.0031e-05
-3.99755e-05
-3.99292e-05
-3.98871e-05
-3.98515e-05
-3.98192e-05
-3.97909e-05
-3.9762e-05
-3.97404e-05
-3.97225e-05
-3.97053e-05
-3.96879e-05
-3.96724e-05
-3.96573e-05
-3.96436e-05
-3.9628e-05
-3.96123e-05
-3.95937e-05
-3.95745e-05
-3.95513e-05
-3.95238e-05
-3.94915e-05
-3.94531e-05
-3.94145e-05
-3.93598e-05
-3.93174e-05
-3.92392e-05
-3.92117e-05
-3.90919e-05
-3.9131e-05
-3.89327e-05
-3.91972e-05
-3.87698e-05
-4.05479e-05
3.57655e-05
4.8882e-05
2.06606e-05
1.04801e-05
-1.72544e-05
-4.23207e-05
-3.6043e-05
-5.76444e-05
-5.95415e-05
-6.91955e-05
-7.28088e-05
-7.72851e-05
-8.00298e-05
-8.20776e-05
-8.34498e-05
-8.43478e-05
-8.45591e-05
-8.46888e-05
-8.4221e-05
-8.363e-05
-8.28161e-05
-8.17031e-05
-8.05304e-05
-7.9187e-05
-7.76833e-05
-7.61549e-05
-7.45036e-05
-7.27914e-05
-7.10644e-05
-6.92663e-05
-6.74924e-05
-6.57053e-05
-6.39119e-05
-6.21699e-05
-6.04483e-05
-5.87715e-05
-5.7161e-05
-5.56063e-05
-5.41378e-05
-5.27424e-05
-5.14259e-05
-5.02099e-05
-4.90732e-05
-4.80312e-05
-4.70737e-05
-4.62038e-05
-4.54218e-05
-4.47124e-05
-4.40834e-05
-4.35161e-05
-4.30186e-05
-4.25709e-05
-4.22235e-05
-4.1944e-05
-4.17002e-05
-4.14792e-05
-4.12836e-05
-4.11116e-05
-4.09564e-05
-4.08186e-05
-4.06939e-05
-4.05789e-05
-4.04781e-05
-4.03853e-05
-4.03022e-05
-4.02225e-05
-4.01528e-05
-4.00892e-05
-4.00313e-05
-3.99759e-05
-3.99294e-05
-3.98873e-05
-3.98517e-05
-3.98194e-05
-3.97909e-05
-3.97621e-05
-3.97404e-05
-3.97225e-05
-3.97052e-05
-3.96878e-05
-3.96722e-05
-3.96572e-05
-3.96434e-05
-3.96278e-05
-3.9612e-05
-3.95935e-05
-3.95742e-05
-3.95511e-05
-3.95236e-05
-3.94915e-05
-3.9453e-05
-3.94145e-05
-3.93598e-05
-3.93177e-05
-3.92395e-05
-3.92124e-05
-3.90926e-05
-3.91324e-05
-3.89339e-05
-3.92009e-05
-3.87739e-05
-4.05263e-05
3.60291e-05
4.86599e-05
2.05633e-05
1.03754e-05
-1.68793e-05
-4.17652e-05
-3.58875e-05
-5.73118e-05
-5.93432e-05
-6.89705e-05
-7.2648e-05
-7.71386e-05
-7.99169e-05
-8.19846e-05
-8.33761e-05
-8.429e-05
-8.45144e-05
-8.46544e-05
-8.41963e-05
-8.36116e-05
-8.28041e-05
-8.16963e-05
-8.0527e-05
-7.91872e-05
-7.7686e-05
-7.61594e-05
-7.45101e-05
-7.2799e-05
-7.1073e-05
-6.92757e-05
-6.7502e-05
-6.57153e-05
-6.3922e-05
-6.21799e-05
-6.04582e-05
-5.87811e-05
-5.71703e-05
-5.56152e-05
-5.41462e-05
-5.27504e-05
-5.14334e-05
-5.02169e-05
-4.90797e-05
-4.80372e-05
-4.70792e-05
-4.62089e-05
-4.54263e-05
-4.47166e-05
-4.40871e-05
-4.35194e-05
-4.30216e-05
-4.25736e-05
-4.22259e-05
-4.19462e-05
-4.17022e-05
-4.1481e-05
-4.12851e-05
-4.11129e-05
-4.09575e-05
-4.08197e-05
-4.06948e-05
-4.05798e-05
-4.04789e-05
-4.03861e-05
-4.03027e-05
-4.02232e-05
-4.01533e-05
-4.00897e-05
-4.00316e-05
-3.99763e-05
-3.99297e-05
-3.98876e-05
-3.98519e-05
-3.98196e-05
-3.9791e-05
-3.97623e-05
-3.97405e-05
-3.97226e-05
-3.97051e-05
-3.96877e-05
-3.9672e-05
-3.9657e-05
-3.96431e-05
-3.96276e-05
-3.96117e-05
-3.95933e-05
-3.95739e-05
-3.95509e-05
-3.95233e-05
-3.94914e-05
-3.94529e-05
-3.94147e-05
-3.93599e-05
-3.9318e-05
-3.92399e-05
-3.92132e-05
-3.90934e-05
-3.9134e-05
-3.89352e-05
-3.92048e-05
-3.87782e-05
-4.05034e-05
3.63348e-05
4.84197e-05
2.04917e-05
1.02953e-05
-1.64441e-05
-4.1135e-05
-3.57098e-05
-5.69351e-05
-5.91206e-05
-6.87184e-05
-7.24686e-05
-7.69754e-05
-7.97914e-05
-8.18813e-05
-8.32943e-05
-8.42259e-05
-8.44649e-05
-8.46161e-05
-8.41689e-05
-8.35912e-05
-8.27907e-05
-8.16884e-05
-8.0523e-05
-7.91872e-05
-7.76888e-05
-7.61642e-05
-7.45169e-05
-7.28071e-05
-7.1082e-05
-6.92858e-05
-6.75123e-05
-6.57259e-05
-6.39328e-05
-6.21906e-05
-6.04688e-05
-5.87914e-05
-5.71802e-05
-5.56247e-05
-5.41552e-05
-5.27589e-05
-5.14414e-05
-5.02244e-05
-4.90866e-05
-4.80436e-05
-4.70851e-05
-4.62143e-05
-4.54312e-05
-4.4721e-05
-4.4091e-05
-4.3523e-05
-4.30247e-05
-4.25764e-05
-4.22285e-05
-4.19486e-05
-4.17042e-05
-4.14828e-05
-4.12866e-05
-4.11144e-05
-4.09587e-05
-4.08208e-05
-4.06957e-05
-4.05807e-05
-4.04796e-05
-4.03868e-05
-4.03033e-05
-4.02239e-05
-4.01538e-05
-4.00902e-05
-4.0032e-05
-3.99768e-05
-3.993e-05
-3.98879e-05
-3.98521e-05
-3.98198e-05
-3.97911e-05
-3.97624e-05
-3.97405e-05
-3.97226e-05
-3.9705e-05
-3.96876e-05
-3.96718e-05
-3.96568e-05
-3.96428e-05
-3.96273e-05
-3.96114e-05
-3.9593e-05
-3.95736e-05
-3.95507e-05
-3.95231e-05
-3.94914e-05
-3.94528e-05
-3.94147e-05
-3.936e-05
-3.93183e-05
-3.92403e-05
-3.9214e-05
-3.90943e-05
-3.91356e-05
-3.89366e-05
-3.92087e-05
-3.87829e-05
-4.04793e-05
3.66877e-05
4.81611e-05
2.04516e-05
1.02452e-05
-1.59403e-05
-4.04198e-05
-3.55047e-05
-5.65069e-05
-5.88693e-05
-6.84347e-05
-7.22674e-05
-7.67928e-05
-7.96513e-05
-8.17661e-05
-8.32033e-05
-8.41545e-05
-8.44097e-05
-8.45736e-05
-8.41383e-05
-8.35683e-05
-8.27756e-05
-8.16794e-05
-8.05183e-05
-7.91868e-05
-7.76915e-05
-7.6169e-05
-7.45241e-05
-7.28157e-05
-7.10917e-05
-6.92964e-05
-6.75233e-05
-6.57373e-05
-6.39444e-05
-6.2202e-05
-6.04801e-05
-5.88023e-05
-5.71908e-05
-5.56349e-05
-5.41648e-05
-5.2768e-05
-5.145e-05
-5.02324e-05
-4.90941e-05
-4.80504e-05
-4.70914e-05
-4.62201e-05
-4.54364e-05
-4.47258e-05
-4.40952e-05
-4.35268e-05
-4.30282e-05
-4.25795e-05
-4.22313e-05
-4.19511e-05
-4.17064e-05
-4.14848e-05
-4.12884e-05
-4.1116e-05
-4.09601e-05
-4.08221e-05
-4.06967e-05
-4.05818e-05
-4.04805e-05
-4.03876e-05
-4.03039e-05
-4.02246e-05
-4.01544e-05
-4.00908e-05
-4.00324e-05
-3.99773e-05
-3.99304e-05
-3.98882e-05
-3.98523e-05
-3.982e-05
-3.97912e-05
-3.97626e-05
-3.97406e-05
-3.97226e-05
-3.97049e-05
-3.96875e-05
-3.96716e-05
-3.96567e-05
-3.96426e-05
-3.96271e-05
-3.96111e-05
-3.95928e-05
-3.95733e-05
-3.95505e-05
-3.95229e-05
-3.94913e-05
-3.94527e-05
-3.94149e-05
-3.93601e-05
-3.93187e-05
-3.92408e-05
-3.92149e-05
-3.90952e-05
-3.91373e-05
-3.89381e-05
-3.92129e-05
-3.8788e-05
-4.04539e-05
3.70915e-05
4.78842e-05
2.04494e-05
1.02306e-05
-1.53595e-05
-3.9608e-05
-3.52659e-05
-5.60184e-05
-5.85838e-05
-6.81138e-05
-7.20401e-05
-7.65874e-05
-7.94938e-05
-8.16368e-05
-8.31014e-05
-8.40744e-05
-8.43479e-05
-8.45259e-05
-8.41037e-05
-8.35425e-05
-8.27584e-05
-8.1669e-05
-8.05127e-05
-7.91859e-05
-7.7694e-05
-7.6174e-05
-7.45316e-05
-7.28247e-05
-7.11019e-05
-6.93077e-05
-6.7535e-05
-6.57494e-05
-6.39567e-05
-6.22141e-05
-6.04921e-05
-5.8814e-05
-5.72021e-05
-5.56458e-05
-5.41751e-05
-5.27777e-05
-5.14592e-05
-5.0241e-05
-4.9102e-05
-4.80577e-05
-4.70981e-05
-4.62262e-05
-4.54419e-05
-4.47308e-05
-4.40997e-05
-4.35309e-05
-4.30318e-05
-4.25828e-05
-4.22343e-05
-4.19538e-05
-4.17088e-05
-4.14869e-05
-4.12902e-05
-4.11176e-05
-4.09615e-05
-4.08234e-05
-4.06978e-05
-4.05829e-05
-4.04814e-05
-4.03885e-05
-4.03046e-05
-4.02254e-05
-4.0155e-05
-4.00914e-05
-4.00329e-05
-3.99778e-05
-3.99308e-05
-3.98886e-05
-3.98526e-05
-3.98202e-05
-3.97913e-05
-3.97627e-05
-3.97407e-05
-3.97226e-05
-3.97049e-05
-3.96874e-05
-3.96714e-05
-3.96565e-05
-3.96423e-05
-3.96269e-05
-3.96108e-05
-3.95926e-05
-3.9573e-05
-3.95502e-05
-3.95226e-05
-3.94913e-05
-3.94526e-05
-3.9415e-05
-3.93603e-05
-3.93192e-05
-3.92413e-05
-3.92158e-05
-3.90962e-05
-3.91392e-05
-3.89397e-05
-3.92171e-05
-3.87934e-05
-4.04273e-05
3.75504e-05
4.75897e-05
2.04917e-05
1.02575e-05
-1.46935e-05
-3.86879e-05
-3.4986e-05
-5.54599e-05
-5.82578e-05
-6.77495e-05
-7.1782e-05
-7.6355e-05
-7.93159e-05
-8.14909e-05
-8.29866e-05
-8.39842e-05
-8.42784e-05
-8.44721e-05
-8.40647e-05
-8.35133e-05
-8.27387e-05
-8.16569e-05