/*--------------------------------*- C++ -*----------------------------------*\
| =========                 |                                                 |
| \\      /  F ield         | OpenFOAM: The Open Source CFD Toolbox           |
|  \\    /   O peration     | Version:  5.x                                   |
|   \\  /    A nd           | Web:      www.OpenFOAM.org                      |
|    \\/     M anipulation  |                                                 |
\*---------------------------------------------------------------------------*/
FoamFile
{
    version     2.0;
    format      ascii;
    class       volScalarField;
    location    "3000";
    object      p;
}
// * * * * * * * * * * * * * * * * * * * * * * * * * * * * * * * * * * * * * //

dimensions      [0 2 -2 0 0 0 0];

internalField   nonuniform List<scalar> 
107912
(
-9.78658e-06
1.77345e-05
-1.19624e-05
-1.38795e-05
-4.02865e-05
-5.45971e-05
-4.12905e-05
-5.38817e-05
-4.80599e-05
-5.07391e-05
-4.77029e-05
-4.67704e-05
-4.43463e-05
-4.22613e-05
-3.99361e-05
-3.76702e-05
-3.5375e-05
-3.32294e-05
-3.10771e-05
-2.91439e-05
-2.72456e-05
-2.54938e-05
-2.38852e-05
-2.23667e-05
-2.09906e-05
-1.97247e-05
-1.85644e-05
-1.75334e-05
-1.65805e-05
-1.5731e-05
-1.49746e-05
-1.42849e-05
-1.36733e-05
-1.31327e-05
-1.264e-05
-1.22108e-05
-1.18334e-05
-1.14905e-05
-1.11992e-05
-1.09287e-05
-1.06951e-05
-1.04862e-05
-1.02969e-05
-1.01345e-05
-9.98745e-06
-9.86012e-06
-9.74768e-06
-9.64546e-06
-9.55752e-06
-9.4756e-06
-9.40631e-06
-9.33635e-06
-9.28719e-06
-9.25485e-06
-9.22401e-06
-9.18939e-06
-9.16647e-06
-9.13995e-06
-9.12426e-06
-9.10603e-06
-9.09445e-06
-9.07282e-06
-9.06565e-06
-9.0519e-06
-9.04718e-06
-9.03449e-06
-9.03203e-06
-9.02343e-06
-9.02142e-06
-9.01296e-06
-9.01349e-06
-9.00424e-06
-9.00728e-06
-9.00185e-06
-9.00272e-06
-8.99475e-06
-8.9975e-06
-8.99156e-06
-8.99191e-06
-8.99419e-06
-8.99482e-06
-8.99296e-06
-8.99399e-06
-8.99341e-06
-8.99423e-06
-8.9924e-06
-8.99407e-06
-8.99523e-06
-8.99641e-06
-9.00153e-06
-9.00247e-06
-9.01462e-06
-9.01171e-06
-9.0402e-06
-9.02648e-06
-9.09302e-06
-9.04649e-06
-9.20723e-06
-9.06518e-06
-9.48793e-06
-8.96772e-06
-1.17238e-05
-1.367e-05
1.77325e-05
-1.20418e-05
-1.39343e-05
-4.01998e-05
-5.45005e-05
-4.12677e-05
-5.38368e-05
-4.80391e-05
-5.07173e-05
-4.76935e-05
-4.67636e-05
-4.4345e-05
-4.22625e-05
-3.99393e-05
-3.76749e-05
-3.53804e-05
-3.32352e-05
-3.10833e-05
-2.91499e-05
-2.72514e-05
-2.54993e-05
-2.38904e-05
-2.23716e-05
-2.09951e-05
-1.97288e-05
-1.85681e-05
-1.75367e-05
-1.65835e-05
-1.57337e-05
-1.4977e-05
-1.4287e-05
-1.36753e-05
-1.31345e-05
-1.26416e-05
-1.22122e-05
-1.18346e-05
-1.14916e-05
-1.12001e-05
-1.09295e-05
-1.06958e-05
-1.04869e-05
-1.02975e-05
-1.01351e-05
-9.98794e-06
-9.86055e-06
-9.74804e-06
-9.6458e-06
-9.55777e-06
-9.47583e-06
-9.4065e-06
-9.33657e-06
-9.28733e-06
-9.25495e-06
-9.22406e-06
-9.18949e-06
-9.1665e-06
-9.14003e-06
-9.12425e-06
-9.10606e-06
-9.0944e-06
-9.07285e-06
-9.06561e-06
-9.0519e-06
-9.04713e-06
-9.0345e-06
-9.03197e-06
-9.02341e-06
-9.02136e-06
-9.01295e-06
-9.0134e-06
-9.00424e-06
-9.00713e-06
-9.00178e-06
-9.00264e-06
-8.99475e-06
-8.99737e-06
-8.9915e-06
-8.99187e-06
-8.99415e-06
-8.99478e-06
-8.99293e-06
-8.99395e-06
-8.99338e-06
-8.9942e-06
-8.9924e-06
-8.99405e-06
-8.99523e-06
-8.99641e-06
-9.00154e-06
-9.00247e-06
-9.01464e-06
-9.01174e-06
-9.04027e-06
-9.02653e-06
-9.09316e-06
-9.04655e-06
-9.20754e-06
-9.06526e-06
-9.48935e-06
-8.96767e-06
-1.16236e-05
-1.40763e-05
1.77318e-05
-1.21326e-05
-1.39965e-05
-4.01028e-05
-5.43852e-05
-4.12383e-05
-5.37855e-05
-4.80121e-05
-5.06908e-05
-4.768e-05
-4.67536e-05
-4.43411e-05
-4.22616e-05
-3.9941e-05
-3.76784e-05
-3.53849e-05
-3.32403e-05
-3.10889e-05
-2.91554e-05
-2.7257e-05
-2.55047e-05
-2.38954e-05
-2.23764e-05
-2.09996e-05
-1.97329e-05
-1.8572e-05
-1.75402e-05
-1.65866e-05
-1.57366e-05
-1.49795e-05
-1.42893e-05
-1.36773e-05
-1.31363e-05
-1.26433e-05
-1.22137e-05
-1.18359e-05
-1.14928e-05
-1.12011e-05
-1.09304e-05
-1.06967e-05
-1.04876e-05
-1.02982e-05
-1.01357e-05
-9.98852e-06
-9.86108e-06
-9.74847e-06
-9.64621e-06
-9.5581e-06
-9.47611e-06
-9.40674e-06
-9.33683e-06
-9.28752e-06
-9.2551e-06
-9.22415e-06
-9.18963e-06
-9.16655e-06
-9.14013e-06
-9.12425e-06
-9.10611e-06
-9.09436e-06
-9.07292e-06
-9.06558e-06
-9.05192e-06
-9.04708e-06
-9.03453e-06
-9.03191e-06
-9.02341e-06
-9.0213e-06
-9.01297e-06
-9.01331e-06
-9.00427e-06
-9.00694e-06
-9.00171e-06
-9.00255e-06
-8.99478e-06
-8.99722e-06
-8.99146e-06
-8.99182e-06
-8.99412e-06
-8.99472e-06
-8.99292e-06
-8.99389e-06
-8.99338e-06
-8.99415e-06
-8.99243e-06
-8.99402e-06
-8.99526e-06
-8.99642e-06
-9.0016e-06
-9.00248e-06
-9.01472e-06
-9.01179e-06
-9.04037e-06
-9.02662e-06
-9.09336e-06
-9.04671e-06
-9.20791e-06
-9.06541e-06
-9.49106e-06
-8.96818e-06
-1.16061e-05
-1.37257e-05
1.77286e-05
-1.22234e-05
-1.40609e-05
-4.00045e-05
-5.42665e-05
-4.12074e-05
-5.37321e-05
-4.7984e-05
-5.06629e-05
-4.76657e-05
-4.67429e-05
-4.43366e-05
-4.22605e-05
-3.99423e-05
-3.76817e-05
-3.53891e-05
-3.32453e-05
-3.10944e-05
-2.91609e-05
-2.72626e-05
-2.551e-05
-2.39005e-05
-2.23813e-05
-2.10041e-05
-1.97371e-05
-1.85758e-05
-1.75436e-05
-1.65898e-05
-1.57394e-05
-1.49821e-05
-1.42916e-05
-1.36794e-05
-1.31382e-05
-1.2645e-05
-1.22152e-05
-1.18373e-05
-1.14941e-05
-1.12022e-05
-1.09314e-05
-1.06975e-05
-1.04884e-05
-1.02989e-05
-1.01364e-05
-9.98914e-06
-9.86164e-06
-9.74892e-06
-9.64665e-06
-9.5584e-06
-9.47638e-06
-9.40695e-06
-9.33711e-06
-9.28769e-06
-9.25521e-06
-9.22416e-06
-9.18975e-06
-9.16654e-06
-9.14022e-06
-9.12419e-06
-9.10612e-06
-9.09423e-06
-9.07296e-06
-9.06548e-06
-9.05192e-06
-9.04697e-06
-9.03454e-06
-9.03179e-06
-9.02337e-06
-9.02118e-06
-9.01295e-06
-9.01314e-06
-9.00429e-06
-9.00666e-06
-9.00158e-06
-9.00239e-06
-8.99478e-06
-8.99698e-06
-8.99136e-06
-8.99175e-06
-8.99405e-06
-8.99465e-06
-8.99287e-06
-8.99381e-06
-8.99332e-06
-8.99409e-06
-8.99242e-06
-8.99398e-06
-8.99525e-06
-8.99641e-06
-9.0016e-06
-9.00248e-06
-9.01474e-06
-9.01182e-06
-9.04044e-06
-9.02668e-06
-9.09352e-06
-9.04681e-06
-9.20829e-06
-9.06555e-06
-9.49279e-06
-8.96874e-06
-1.16003e-05
-1.35272e-05
1.77228e-05
-1.23161e-05
-1.41289e-05
-3.99021e-05
-5.4142e-05
-4.11746e-05
-5.36753e-05
-4.79547e-05
-5.06334e-05
-4.76507e-05
-4.67316e-05
-4.4332e-05
-4.22593e-05
-3.99438e-05
-3.76853e-05
-3.53938e-05
-3.32507e-05
-3.11004e-05
-2.91668e-05
-2.72685e-05
-2.55158e-05
-2.39059e-05
-2.23865e-05
-2.10089e-05
-1.97416e-05
-1.858e-05
-1.75473e-05
-1.65931e-05
-1.57424e-05
-1.49848e-05
-1.42941e-05
-1.36816e-05
-1.31402e-05
-1.26469e-05
-1.2217e-05
-1.18387e-05
-1.14955e-05
-1.12033e-05
-1.09324e-05
-1.06985e-05
-1.04892e-05
-1.02997e-05
-1.01371e-05
-9.98984e-06
-9.86228e-06
-9.74943e-06
-9.64715e-06
-9.55876e-06
-9.4767e-06
-9.4072e-06
-9.33743e-06
-9.28789e-06
-9.25535e-06
-9.22419e-06
-9.18989e-06
-9.16655e-06
-9.14034e-06
-9.12414e-06
-9.10614e-06
-9.09411e-06
-9.07302e-06
-9.06539e-06
-9.05193e-06
-9.04686e-06
-9.03456e-06
-9.03166e-06
-9.02334e-06
-9.02106e-06
-9.01295e-06
-9.01297e-06
-9.00432e-06
-9.00634e-06
-9.00144e-06
-9.00221e-06
-8.9948e-06
-8.99671e-06
-8.99126e-06
-8.99166e-06
-8.99398e-06
-8.99455e-06
-8.99284e-06
-8.99372e-06
-8.99329e-06
-8.99402e-06
-8.99244e-06
-8.99393e-06
-8.99528e-06
-8.99641e-06
-9.00164e-06
-9.00248e-06
-9.01481e-06
-9.01187e-06
-9.04053e-06
-9.02678e-06
-9.09372e-06
-9.047e-06
-9.20869e-06
-9.06572e-06
-9.49464e-06
-8.96936e-06
-1.15895e-05
-1.34124e-05
1.77143e-05
-1.24117e-05
-1.42011e-05
-3.97938e-05
-5.40093e-05
-4.1139e-05
-5.36139e-05
-4.79235e-05
-5.06014e-05
-4.76345e-05
-4.67193e-05
-4.4327e-05
-4.22579e-05
-3.99454e-05
-3.76892e-05
-3.53987e-05
-3.32564e-05
-3.11067e-05
-2.91731e-05
-2.72749e-05
-2.55219e-05
-2.39117e-05
-2.2392e-05
-2.10141e-05
-1.97464e-05
-1.85844e-05
-1.75513e-05
-1.65967e-05
-1.57456e-05
-1.49877e-05
-1.42967e-05
-1.3684e-05
-1.31424e-05
-1.26489e-05
-1.22188e-05
-1.18403e-05
-1.14969e-05
-1.12045e-05
-1.09335e-05
-1.06995e-05
-1.049e-05
-1.03006e-05
-1.01379e-05
-9.99057e-06
-9.86295e-06
-9.74993e-06
-9.64768e-06
-9.55909e-06
-9.47701e-06
-9.40742e-06
-9.33776e-06
-9.28805e-06
-9.25546e-06
-9.22415e-06
-9.19e-06
-9.16649e-06
-9.14043e-06
-9.124e-06
-9.10611e-06
-9.09389e-06
-9.07305e-06
-9.06522e-06
-9.0519e-06
-9.04667e-06
-9.03454e-06
-9.03146e-06
-9.02326e-06
-9.02087e-06
-9.01291e-06
-9.01271e-06
-9.00431e-06
-9.00594e-06
-9.00124e-06
-9.00198e-06
-8.99478e-06
-8.99637e-06
-8.99112e-06
-8.99154e-06
-8.99387e-06
-8.99442e-06
-8.99276e-06
-8.99359e-06
-8.99321e-06
-8.99391e-06
-8.99241e-06
-8.99386e-06
-8.99526e-06
-8.99638e-06
-9.00164e-06
-9.00245e-06
-9.01482e-06
-9.01189e-06
-9.0406e-06
-9.02685e-06
-9.0939e-06
-9.04713e-06
-9.20908e-06
-9.06587e-06
-9.49657e-06
-8.97002e-06
-1.1576e-05
-1.32875e-05
1.77026e-05
-1.25099e-05
-1.42774e-05
-3.9679e-05
-5.38678e-05
-4.11005e-05
-5.35477e-05
-4.78903e-05
-5.0567e-05
-4.76173e-05
-4.67061e-05
-4.43216e-05
-4.22564e-05
-3.99471e-05
-3.76932e-05
-3.5404e-05
-3.32625e-05
-3.11135e-05
-2.91799e-05
-2.72817e-05
-2.55285e-05
-2.39179e-05
-2.23979e-05
-2.10196e-05
-1.97515e-05
-1.85892e-05
-1.75556e-05
-1.66006e-05
-1.57491e-05
-1.49908e-05
-1.42996e-05
-1.36865e-05
-1.31448e-05
-1.26511e-05
-1.22208e-05
-1.1842e-05
-1.14985e-05
-1.12058e-05
-1.09347e-05
-1.07006e-05
-1.0491e-05
-1.03015e-05
-1.01388e-05
-9.99138e-06
-9.86371e-06
-9.75051e-06
-9.64827e-06
-9.55948e-06
-9.47738e-06
-9.4077e-06
-9.33813e-06
-9.28826e-06
-9.2556e-06
-9.22415e-06
-9.19014e-06
-9.16646e-06
-9.14054e-06
-9.1239e-06
-9.10611e-06
-9.09369e-06
-9.0731e-06
-9.06507e-06
-9.05188e-06
-9.0465e-06
-9.03454e-06
-9.03128e-06
-9.0232e-06
-9.02069e-06
-9.01288e-06
-9.01247e-06
-9.00432e-06
-9.00554e-06
-9.00104e-06
-9.00174e-06
-8.99477e-06
-8.99604e-06
-8.991e-06
-8.99143e-06
-8.99377e-06
-8.99429e-06
-8.99271e-06
-8.99347e-06
-8.99315e-06
-8.9938e-06
-8.99242e-06
-8.99379e-06
-8.99528e-06
-8.99636e-06
-9.00168e-06
-9.00243e-06
-9.01489e-06
-9.01194e-06
-9.0407e-06
-9.02696e-06
-9.09412e-06
-9.04733e-06
-9.20953e-06
-9.06606e-06
-9.49866e-06
-8.97079e-06
-1.15615e-05
-1.31424e-05
1.76869e-05
-1.26098e-05
-1.43575e-05
-3.95569e-05
-5.37166e-05
-4.10589e-05
-5.34761e-05
-4.78549e-05
-5.05298e-05
-4.75988e-05
-4.66916e-05
-4.43157e-05
-4.22546e-05
-3.99488e-05
-3.76975e-05
-3.54095e-05
-3.3269e-05
-3.11207e-05
-2.91871e-05
-2.7289e-05
-2.55355e-05
-2.39245e-05
-2.24043e-05
-2.10255e-05
-1.9757e-05
-1.85943e-05
-1.75601e-05
-1.66047e-05
-1.57528e-05
-1.49942e-05
-1.43026e-05
-1.36892e-05
-1.31472e-05
-1.26534e-05
-1.22229e-05
-1.18438e-05
-1.15002e-05
-1.12072e-05
-1.09359e-05
-1.07017e-05
-1.0492e-05
-1.03025e-05
-1.01397e-05
-9.99221e-06
-9.86449e-06
-9.75108e-06
-9.64888e-06
-9.55984e-06
-9.47774e-06
-9.40794e-06
-9.3385e-06
-9.28842e-06
-9.25571e-06
-9.22408e-06
-9.19025e-06
-9.16637e-06
-9.14063e-06
-9.12372e-06
-9.10605e-06
-9.09341e-06
-9.07312e-06
-9.06484e-06
-9.05182e-06
-9.04625e-06
-9.0345e-06
-9.03103e-06
-9.0231e-06
-9.02045e-06
-9.0128e-06
-9.01215e-06
-9.00428e-06
-9.00508e-06
-9.0008e-06
-9.00144e-06
-8.99472e-06
-8.99565e-06
-8.99083e-06
-8.99128e-06
-8.99363e-06
-8.99412e-06
-8.9926e-06
-8.99331e-06
-8.99304e-06
-8.99367e-06
-8.99239e-06
-8.99369e-06
-8.99525e-06
-8.99631e-06
-9.00167e-06
-9.00238e-06
-9.0149e-06
-9.01194e-06
-9.04077e-06
-9.02704e-06
-9.09432e-06
-9.04748e-06
-9.20998e-06
-9.06622e-06
-9.50082e-06
-8.97163e-06
-1.15462e-05
-1.29797e-05
1.76664e-05
-1.27107e-05
-1.44408e-05
-3.94265e-05
-5.35547e-05
-4.10139e-05
-5.33987e-05
-4.78172e-05
-5.04895e-05
-4.7579e-05
-4.6676e-05
-4.43093e-05
-4.22526e-05
-3.99506e-05
-3.7702e-05
-3.54154e-05
-3.3276e-05
-3.11285e-05
-2.91948e-05
-2.72968e-05
-2.5543e-05
-2.39316e-05
-2.24111e-05
-2.10319e-05
-1.97629e-05
-1.85997e-05
-1.7565e-05
-1.66091e-05
-1.57569e-05
-1.49978e-05
-1.43059e-05
-1.36922e-05
-1.31499e-05
-1.26559e-05
-1.22252e-05
-1.18457e-05
-1.1502e-05
-1.12087e-05
-1.09373e-05
-1.0703e-05
-1.04931e-05
-1.03036e-05
-1.01407e-05
-9.99314e-06
-9.86535e-06
-9.75174e-06
-9.64956e-06
-9.56028e-06
-9.47816e-06
-9.40825e-06
-9.33892e-06
-9.28865e-06
-9.25585e-06
-9.22407e-06
-9.19039e-06
-9.16632e-06
-9.14074e-06
-9.12359e-06
-9.10602e-06
-9.09317e-06
-9.07316e-06
-9.06466e-06
-9.05179e-06
-9.04605e-06
-9.03448e-06
-9.03081e-06
-9.02301e-06
-9.02023e-06
-9.01275e-06
-9.01187e-06
-9.00425e-06
-9.00464e-06
-9.00056e-06
-9.00116e-06
-8.99468e-06
-8.99529e-06
-8.99068e-06
-8.99115e-06
-8.99351e-06
-8.99396e-06
-8.99253e-06
-8.99317e-06
-8.99296e-06
-8.99354e-06
-8.99239e-06
-8.99362e-06
-8.99526e-06
-8.99629e-06
-9.00171e-06
-9.00237e-06
-9.01498e-06
-9.01199e-06
-9.04088e-06
-9.02716e-06
-9.09458e-06
-9.04771e-06
-9.2105e-06
-9.06642e-06
-9.50315e-06
-8.97259e-06
-1.153e-05
-1.28004e-05
1.76401e-05
-1.28115e-05
-1.45269e-05
-3.92864e-05
-5.33808e-05
-4.09652e-05
-5.33147e-05
-4.7777e-05
-5.0446e-05
-4.75576e-05
-4.66589e-05
-4.43023e-05
-4.22502e-05
-3.99524e-05
-3.77067e-05
-3.54217e-05
-3.32833e-05
-3.11366e-05
-2.9203e-05
-2.7305e-05
-2.5551e-05
-2.39391e-05
-2.24183e-05
-2.10386e-05
-1.97691e-05
-1.86055e-05
-1.75702e-05
-1.66138e-05
-1.57611e-05
-1.50016e-05
-1.43093e-05
-1.36953e-05
-1.31528e-05
-1.26585e-05
-1.22276e-05
-1.18478e-05
-1.15039e-05
-1.12103e-05
-1.09388e-05
-1.07043e-05
-1.04942e-05
-1.03047e-05
-1.01418e-05
-9.99408e-06
-9.86624e-06
-9.75239e-06
-9.65024e-06
-9.56069e-06
-9.47856e-06
-9.40852e-06
-9.33933e-06
-9.28884e-06
-9.25596e-06
-9.224e-06
-9.19049e-06
-9.16621e-06
-9.14082e-06
-9.12339e-06
-9.10592e-06
-9.09286e-06
-9.07315e-06
-9.06441e-06
-9.05171e-06
-9.04577e-06
-9.03441e-06
-9.03052e-06
-9.02288e-06
-9.01996e-06
-9.01264e-06
-9.01152e-06
-9.00417e-06
-9.00415e-06
-9.00028e-06
-9.00083e-06
-8.99459e-06
-8.99488e-06
-8.99049e-06
-8.99098e-06
-8.99335e-06
-8.99376e-06
-8.99241e-06
-8.99299e-06
-8.99284e-06
-8.99338e-06
-8.99234e-06
-8.99352e-06
-8.99523e-06
-8.99623e-06
-9.0017e-06
-9.00231e-06
-9.01501e-06
-9.012e-06
-9.04096e-06
-9.02724e-06
-9.0948e-06
-9.04787e-06
-9.21101e-06
-9.0666e-06
-9.50557e-06
-8.97363e-06
-1.15126e-05
-1.26003e-05
1.76071e-05
-1.29108e-05
-1.46149e-05
-3.91352e-05
-5.31935e-05
-4.09127e-05
-5.32236e-05
-4.77342e-05
-5.03988e-05
-4.75347e-05
-4.66404e-05
-4.42948e-05
-4.22475e-05
-3.99542e-05
-3.77116e-05
-3.54283e-05
-3.32911e-05
-3.11453e-05
-2.92118e-05
-2.73139e-05
-2.55596e-05
-2.39472e-05
-2.2426e-05
-2.10458e-05
-1.97759e-05
-1.86118e-05
-1.75758e-05
-1.66189e-05
-1.57657e-05
-1.50057e-05
-1.43131e-05
-1.36987e-05
-1.31559e-05
-1.26614e-05
-1.22302e-05
-1.185e-05
-1.15059e-05
-1.1212e-05
-1.09403e-05
-1.07058e-05
-1.04955e-05
-1.03059e-05
-1.01429e-05
-9.99513e-06
-9.8672e-06
-9.75314e-06
-9.65099e-06
-9.5612e-06
-9.47904e-06
-9.40887e-06
-9.33979e-06
-9.2891e-06
-9.25612e-06
-9.224e-06
-9.19064e-06
-9.16617e-06
-9.14093e-06
-9.12326e-06
-9.10587e-06
-9.0926e-06
-9.07318e-06
-9.06421e-06
-9.05166e-06
-9.04554e-06
-9.03437e-06
-9.03028e-06
-9.02278e-06
-9.01972e-06
-9.01256e-06
-9.01121e-06
-9.00411e-06
-9.0037e-06
-9.00001e-06
-9.00052e-06
-8.99452e-06
-8.99451e-06
-8.99033e-06
-8.99083e-06
-8.99321e-06
-8.99358e-06
-8.99232e-06
-8.99283e-06
-8.99275e-06
-8.99325e-06
-8.99233e-06
-8.99344e-06
-8.99524e-06
-8.99621e-06
-9.00175e-06
-9.0023e-06
-9.0151e-06
-9.01205e-06
-9.04109e-06
-9.02739e-06
-9.0951e-06
-9.04813e-06
-9.21161e-06
-9.06683e-06
-9.50816e-06
-8.97483e-06
-1.14941e-05
-1.23768e-05
1.75661e-05
-1.30072e-05
-1.47038e-05
-3.89706e-05
-5.29908e-05
-4.08557e-05
-5.31242e-05
-4.76883e-05
-5.03475e-05
-4.75099e-05
-4.66201e-05
-4.42864e-05
-4.22443e-05
-3.9956e-05
-3.77167e-05
-3.54353e-05
-3.32994e-05
-3.11546e-05
-2.9221e-05
-2.73233e-05
-2.55686e-05
-2.39558e-05
-2.24343e-05
-2.10534e-05
-1.9783e-05
-1.86184e-05
-1.75817e-05
-1.66242e-05
-1.57705e-05
-1.501e-05
-1.4317e-05
-1.37022e-05
-1.31591e-05
-1.26644e-05
-1.2233e-05
-1.18523e-05
-1.15081e-05
-1.12138e-05
-1.0942e-05
-1.07073e-05
-1.04968e-05
-1.03072e-05
-1.01441e-05
-9.99619e-06
-9.86819e-06
-9.75389e-06
-9.65175e-06
-9.56168e-06
-9.4795e-06
-9.40918e-06
-9.34024e-06
-9.28933e-06
-9.25623e-06
-9.22394e-06
-9.19074e-06
-9.16606e-06
-9.141e-06
-9.12305e-06
-9.10576e-06
-9.09227e-06
-9.07316e-06
-9.06394e-06
-9.05156e-06
-9.04525e-06
-9.03429e-06
-9.02998e-06
-9.02263e-06
-9.01942e-06
-9.01243e-06
-9.01084e-06
-9.00399e-06
-9.00321e-06
-8.9997e-06
-9.00016e-06
-8.9944e-06
-8.9941e-06
-8.99014e-06
-8.99065e-06
-8.99303e-06
-8.99336e-06
-8.99219e-06
-8.99264e-06
-8.99261e-06
-8.99307e-06
-8.99229e-06
-8.99334e-06
-8.99521e-06
-8.99615e-06
-9.00174e-06
-9.00225e-06
-9.01513e-06
-9.01206e-06
-9.04119e-06
-9.02749e-06
-9.09536e-06
-9.04831e-06
-9.21221e-06
-9.06703e-06
-9.51083e-06
-8.97611e-06
-1.14744e-05
-1.21246e-05
1.75158e-05
-1.30986e-05
-1.47923e-05
-3.87903e-05
-5.27707e-05
-4.0794e-05
-5.30159e-05
-4.76391e-05
-5.02918e-05
-4.74832e-05
-4.65981e-05
-4.42774e-05
-4.22407e-05
-3.99578e-05
-3.77221e-05
-3.54426e-05
-3.33082e-05
-3.11644e-05
-2.92309e-05
-2.73334e-05
-2.55784e-05
-2.3965e-05
-2.24431e-05
-2.10617e-05
-1.97907e-05
-1.86255e-05
-1.75881e-05
-1.663e-05
-1.57758e-05
-1.50147e-05
-1.43213e-05
-1.37061e-05
-1.31626e-05
-1.26677e-05
-1.22359e-05
-1.18549e-05
-1.15104e-05
-1.12158e-05
-1.09438e-05
-1.07089e-05
-1.04982e-05
-1.03086e-05
-1.01454e-05
-9.99737e-06
-9.86927e-06
-9.75474e-06
-9.65258e-06
-9.56226e-06
-9.48004e-06
-9.40958e-06
-9.34075e-06
-9.28965e-06
-9.25641e-06
-9.22397e-06
-9.1909e-06
-9.16603e-06
-9.14111e-06
-9.12292e-06
-9.1057e-06
-9.09201e-06
-9.07318e-06
-9.06373e-06
-9.0515e-06
-9.04501e-06
-9.03424e-06
-9.02973e-06
-9.02251e-06
-9.01916e-06
-9.01233e-06
-9.01053e-06
-9.0039e-06
-9.00276e-06
-8.99942e-06
-8.99984e-06
-8.9943e-06
-8.99373e-06
-8.98998e-06
-8.99049e-06
-8.99289e-06
-8.99317e-06
-8.99209e-06
-8.99248e-06
-8.99251e-06
-8.99294e-06
-8.99228e-06
-8.99327e-06
-8.99523e-06
-8.99613e-06
-9.0018e-06
-9.00225e-06
-9.01524e-06
-9.01213e-06
-9.04135e-06
-9.02765e-06
-9.0957e-06
-9.04858e-06
-9.21291e-06
-9.06729e-06
-9.51368e-06
-8.97759e-06
-1.14535e-05
-1.184e-05
1.74549e-05
-1.31825e-05
-1.48787e-05
-3.85914e-05
-5.25305e-05
-4.07268e-05
-5.28971e-05
-4.75862e-05
-5.02309e-05
-4.74543e-05
-4.65738e-05
-4.42673e-05
-4.22365e-05
-3.99594e-05
-3.77275e-05
-3.54504e-05
-3.33174e-05
-3.11748e-05
-2.92414e-05
-2.7344e-05
-2.55887e-05
-2.39747e-05
-2.24525e-05
-2.10704e-05
-1.97988e-05
-1.86331e-05
-1.75948e-05
-1.66362e-05
-1.57813e-05
-1.50197e-05
-1.43258e-05
-1.37102e-05
-1.31663e-05
-1.26712e-05
-1.22391e-05
-1.18576e-05
-1.15129e-05
-1.12179e-05
-1.09456e-05
-1.07106e-05
-1.04997e-05
-1.03101e-05
-1.01467e-05
-9.99856e-06
-9.87036e-06
-9.75559e-06
-9.65342e-06
-9.56282e-06
-9.48057e-06
-9.40995e-06
-9.34125e-06
-9.28993e-06
-9.25654e-06
-9.22394e-06
-9.19101e-06
-9.16593e-06
-9.14118e-06
-9.12273e-06
-9.10557e-06
-9.09167e-06
-9.07315e-06
-9.06346e-06
-9.05139e-06
-9.0447e-06
-9.03413e-06
-9.02941e-06
-9.02234e-06
-9.01885e-06
-9.01217e-06
-9.01015e-06
-9.00375e-06
-9.00228e-06
-8.9991e-06
-8.99947e-06
-8.99416e-06
-8.99333e-06
-8.9898e-06
-8.9903e-06
-8.9927e-06
-8.99293e-06
-8.99195e-06
-8.99229e-06
-8.99237e-06
-8.99276e-06
-8.99223e-06
-8.99316e-06
-8.9952e-06
-8.99607e-06
-9.0018e-06
-9.00221e-06
-9.01529e-06
-9.01215e-06
-9.04147e-06
-9.02777e-06
-9.096e-06
-9.04878e-06
-9.2136e-06
-9.06752e-06
-9.51662e-06
-8.97918e-06
-1.14312e-05
-1.15166e-05
1.7382e-05
-1.32561e-05
-1.4961e-05
-3.83703e-05
-5.2267e-05
-4.06537e-05
-5.27667e-05
-4.75292e-05
-5.01644e-05
-4.74229e-05
-4.65472e-05
-4.42563e-05
-4.22316e-05
-3.9961e-05
-3.77332e-05
-3.54585e-05
-3.33272e-05
-3.11858e-05
-2.92526e-05
-2.73554e-05
-2.55997e-05
-2.39852e-05
-2.24625e-05
-2.10797e-05
-1.98075e-05
-1.86412e-05
-1.76021e-05
-1.66428e-05
-1.57873e-05
-1.50251e-05
-1.43307e-05
-1.37146e-05
-1.31704e-05
-1.26749e-05
-1.22424e-05
-1.18605e-05
-1.15155e-05
-1.12201e-05
-1.09477e-05
-1.07125e-05
-1.05014e-05
-1.03117e-05
-1.01481e-05
-9.99988e-06
-9.87156e-06
-9.75657e-06
-9.65434e-06
-9.5635e-06
-9.48119e-06
-9.4104e-06
-9.3418e-06
-9.29031e-06
-9.25675e-06
-9.22401e-06
-9.19119e-06
-9.16592e-06
-9.1413e-06
-9.12261e-06
-9.1055e-06
-9.09142e-06
-9.07316e-06
-9.06326e-06
-9.05132e-06
-9.04446e-06
-9.03407e-06
-9.02916e-06
-9.02221e-06
-9.01859e-06
-9.01205e-06
-9.00983e-06
-9.00363e-06
-9.00185e-06
-8.99881e-06
-8.99913e-06
-8.99404e-06
-8.99299e-06
-8.98965e-06
-8.99014e-06
-8.99254e-06
-8.99273e-06
-8.99185e-06
-8.99213e-06
-8.99227e-06
-8.99262e-06
-8.99222e-06
-8.99311e-06
-8.99523e-06
-8.99606e-06
-9.00187e-06
-9.00223e-06
-9.01541e-06
-9.01224e-06
-9.04166e-06
-9.02796e-06
-9.09638e-06
-9.04908e-06
-9.21441e-06
-9.06781e-06
-9.51973e-06
-8.98099e-06
-1.14077e-05
-1.11487e-05
1.72956e-05
-1.33157e-05
-1.50368e-05
-3.81229e-05
-5.19765e-05
-4.05736e-05
-5.26227e-05
-4.74673e-05
-5.00914e-05
-4.73886e-05
-4.65179e-05
-4.4244e-05
-4.22259e-05
-3.99623e-05
-3.7739e-05
-3.5467e-05
-3.33375e-05
-3.11974e-05
-2.92643e-05
-2.73674e-05
-2.56114e-05
-2.39962e-05
-2.24731e-05
-2.10896e-05
-1.98167e-05
-1.86497e-05
-1.76098e-05
-1.66498e-05
-1.57936e-05
-1.50308e-05
-1.43359e-05
-1.37192e-05
-1.31746e-05
-1.26788e-05
-1.2246e-05
-1.18636e-05
-1.15183e-05
-1.12225e-05
-1.09498e-05
-1.07144e-05
-1.05031e-05
-1.03133e-05
-1.01496e-05
-1.00012e-05
-9.87278e-06
-9.75754e-06
-9.65527e-06
-9.56416e-06
-9.48179e-06
-9.41084e-06
-9.34236e-06
-9.29066e-06
-9.25691e-06
-9.22402e-06
-9.19132e-06
-9.16585e-06
-9.14137e-06
-9.12243e-06
-9.10537e-06
-9.09109e-06
-9.07313e-06
-9.06299e-06
-9.0512e-06
-9.04416e-06
-9.03396e-06
-9.02884e-06
-9.02203e-06
-9.01827e-06
-9.01188e-06
-9.00945e-06
-9.00346e-06
-9.00138e-06
-8.99849e-06
-8.99876e-06
-8.99389e-06
-8.99261e-06
-8.98947e-06
-8.98994e-06
-8.99234e-06
-8.99249e-06
-8.9917e-06
-8.99193e-06
-8.99213e-06
-8.99245e-06
-8.99217e-06
-8.99301e-06
-8.99521e-06
-8.99602e-06
-9.00188e-06
-9.0022e-06
-9.01548e-06
-9.01227e-06
-9.04182e-06
-9.0281e-06
-9.09673e-06
-9.04931e-06
-9.21521e-06
-9.06807e-06
-9.52291e-06
-8.98293e-06
-1.13827e-05
-1.07287e-05
1.71942e-05
-1.3357e-05
-1.51031e-05
-3.78443e-05
-5.16545e-05
-4.04853e-05
-5.24633e-05
-4.73999e-05
-5.0011e-05
-4.73511e-05
-4.64855e-05
-4.42304e-05
-4.22192e-05
-3.99634e-05
-3.77448e-05
-3.54758e-05
-3.33484e-05
-3.12098e-05
-2.92769e-05
-2.73802e-05
-2.56238e-05
-2.40081e-05
-2.24845e-05
-2.11002e-05
-1.98266e-05
-1.86589e-05
-1.7618e-05
-1.66573e-05
-1.58004e-05
-1.50369e-05
-1.43415e-05
-1.37243e-05
-1.31792e-05
-1.26831e-05
-1.22498e-05
-1.18669e-05
-1.15213e-05
-1.12251e-05
-1.09522e-05
-1.07166e-05
-1.0505e-05
-1.03151e-05
-1.01513e-05
-1.00027e-05
-9.87412e-06
-9.75864e-06
-9.6563e-06
-9.56493e-06
-9.48249e-06
-9.41137e-06
-9.34298e-06
-9.29112e-06
-9.25716e-06
-9.22414e-06
-9.19152e-06
-9.16587e-06
-9.1415e-06
-9.12234e-06
-9.10531e-06
-9.09085e-06
-9.07315e-06
-9.0628e-06
-9.05113e-06
-9.04392e-06
-9.03389e-06
-9.02859e-06
-9.02189e-06
-9.01801e-06
-9.01174e-06
-9.00913e-06
-9.00332e-06
-9.00098e-06
-8.9982e-06
-8.99842e-06
-8.99376e-06
-8.99229e-06
-8.98934e-06
-8.98978e-06
-8.99218e-06
-8.99229e-06
-8.9916e-06
-8.99178e-06
-8.99203e-06
-8.99232e-06
-8.99217e-06
-8.99296e-06
-8.99524e-06
-8.99602e-06
-9.00197e-06
-9.00224e-06
-9.01563e-06
-9.01239e-06
-9.04204e-06
-9.02832e-06
-9.09717e-06
-9.04964e-06
-9.21613e-06
-9.0684e-06
-9.52627e-06
-8.98514e-06
-1.13564e-05
-1.02493e-05
1.70765e-05
-1.33751e-05
-1.51567e-05
-3.75288e-05
-5.12958e-05
-4.03874e-05
-5.22857e-05
-4.73259e-05
-4.99221e-05
-4.73097e-05
-4.64495e-05
-4.4215e-05
-4.22113e-05
-3.99641e-05
-3.77506e-05
-3.54849e-05
-3.33597e-05
-3.12227e-05
-2.929e-05
-2.73937e-05
-2.56369e-05
-2.40205e-05
-2.24965e-05
-2.11113e-05
-1.98371e-05
-1.86686e-05
-1.76267e-05
-1.66653e-05
-1.58076e-05
-1.50434e-05
-1.43473e-05
-1.37296e-05
-1.3184e-05
-1.26875e-05
-1.22539e-05
-1.18704e-05
-1.15245e-05
-1.12278e-05
-1.09547e-05
-1.07188e-05
-1.05069e-05
-1.0317e-05
-1.0153e-05
-1.00042e-05
-9.87548e-06
-9.75975e-06
-9.65733e-06
-9.5657e-06
-9.4832e-06
-9.41189e-06
-9.3436e-06
-9.29155e-06
-9.25737e-06
-9.22421e-06
-9.19168e-06
-9.16584e-06
-9.14159e-06
-9.12219e-06
-9.10519e-06
-9.09055e-06
-9.07311e-06
-9.06254e-06
-9.05101e-06
-9.04363e-06
-9.03377e-06
-9.02828e-06
-9.02171e-06
-9.01769e-06
-9.01156e-06
-9.00876e-06
-9.00314e-06
-9.00055e-06
-8.99788e-06
-8.99805e-06
-8.99359e-06
-8.99195e-06
-8.98919e-06
-8.98959e-06
-8.99199e-06
-8.99205e-06
-8.99145e-06
-8.99158e-06
-8.99189e-06
-8.99215e-06
-8.99212e-06
-8.99288e-06
-8.99523e-06
-8.99598e-06
-9.00199e-06
-9.00223e-06
-9.01572e-06
-9.01244e-06
-9.04223e-06
-9.02849e-06
-9.09757e-06
-9.04988e-06
-9.21704e-06
-9.06869e-06
-9.52968e-06
-8.98752e-06
-1.13285e-05
-9.70131e-06
1.69417e-05
-1.33641e-05
-1.51936e-05
-3.71699e-05
-5.08943e-05
-4.02779e-05
-5.20873e-05
-4.72443e-05
-4.98234e-05
-4.7264e-05
-4.64094e-05
-4.41977e-05
-4.22021e-05
-3.99643e-05
-3.77564e-05
-3.54944e-05
-3.33716e-05
-3.12363e-05
-2.9304e-05
-2.74081e-05
-2.56509e-05
-2.40339e-05
-2.25093e-05
-2.11233e-05
-1.98482e-05
-1.8679e-05
-1.76361e-05
-1.66738e-05
-1.58154e-05
-1.50504e-05
-1.43537e-05
-1.37353e-05
-1.31892e-05
-1.26923e-05
-1.22582e-05
-1.18742e-05
-1.15279e-05
-1.12307e-05
-1.09573e-05
-1.07212e-05
-1.05091e-05
-1.0319e-05
-1.01548e-05
-1.00059e-05
-9.87696e-06
-9.761e-06
-9.65847e-06
-9.5666e-06
-9.484e-06
-9.41251e-06
-9.34429e-06
-9.2921e-06
-9.25767e-06
-9.22439e-06
-9.19191e-06
-9.1659e-06
-9.14174e-06
-9.12213e-06
-9.10513e-06
-9.09033e-06
-9.07313e-06
-9.06236e-06
-9.05094e-06
-9.0434e-06
-9.03369e-06
-9.02804e-06
-9.02157e-06
-9.01743e-06
-9.01142e-06
-9.00846e-06
-9.00298e-06
-9.00018e-06
-8.9976e-06
-8.99772e-06
-8.99346e-06
-8.99166e-06
-8.98908e-06
-8.98943e-06
-8.99183e-06
-8.99185e-06
-8.99135e-06
-8.99143e-06
-8.9918e-06
-8.99203e-06
-8.99213e-06
-8.99285e-06
-8.99528e-06
-8.996e-06
-9.0021e-06
-9.00229e-06
-9.01589e-06
-9.01257e-06
-9.0425e-06
-9.02874e-06
-9.09807e-06
-9.05024e-06
-9.21809e-06
-9.06907e-06
-9.53326e-06
-8.9902e-06
-1.12992e-05
-9.0759e-06
1.67888e-05
-1.3317e-05
-1.52091e-05
-3.67604e-05
-5.04428e-05
-4.01543e-05
-5.18641e-05
-4.71534e-05
-4.97132e-05
-4.72128e-05
-4.63644e-05
-4.4178e-05
-4.21911e-05
-3.99638e-05
-3.7762e-05
-3.5504e-05
-3.33839e-05
-3.12505e-05
-2.93186e-05
-2.74231e-05
-2.56656e-05
-2.40479e-05
-2.25228e-05
-2.11359e-05
-1.986e-05
-1.86899e-05
-1.76459e-05
-1.66828e-05
-1.58236e-05
-1.50578e-05
-1.43604e-05
-1.37414e-05
-1.31946e-05
-1.26974e-05
-1.22627e-05
-1.18781e-05
-1.15315e-05
-1.12338e-05
-1.09601e-05
-1.07237e-05
-1.05113e-05
-1.03211e-05
-1.01567e-05
-1.00076e-05
-9.87848e-06
-9.76227e-06
-9.65962e-06
-9.56749e-06
-9.48481e-06
-9.41312e-06
-9.34499e-06
-9.29263e-06
-9.25794e-06
-9.22454e-06
-9.19211e-06
-9.16591e-06
-9.14185e-06
-9.12202e-06
-9.10503e-06
-9.09006e-06
-9.07311e-06
-9.06213e-06
-9.05082e-06
-9.04312e-06
-9.03358e-06
-9.02774e-06
-9.02139e-06
-9.01713e-06
-9.01123e-06
-9.0081e-06
-9.0028e-06
-8.99978e-06
-8.99731e-06
-8.99736e-06
-8.9933e-06
-8.99135e-06
-8.98896e-06
-8.98925e-06
-8.99163e-06
-8.99162e-06
-8.9912e-06
-8.99125e-06
-8.99167e-06
-8.99188e-06
-8.9921e-06
-8.99278e-06
-8.99529e-06
-8.99598e-06
-9.00214e-06
-9.0023e-06
-9.01601e-06
-9.01265e-06
-9.04274e-06
-9.02894e-06
-9.09853e-06
-9.05052e-06
-9.21912e-06
-9.0694e-06
-9.53684e-06
-8.99308e-06
-1.12683e-05
-8.36288e-06
1.66178e-05
-1.32259e-05
-1.51981e-05
-3.62922e-05
-4.99333e-05
-4.00134e-05
-5.16121e-05
-4.70515e-05
-4.95896e-05
-4.71554e-05
-4.63138e-05
-4.41554e-05
-4.21781e-05
-3.99625e-05
-3.77673e-05
-3.55139e-05
-3.33968e-05
-3.12654e-05
-2.93341e-05
-2.74391e-05
-2.56812e-05
-2.40628e-05
-2.25372e-05
-2.11493e-05
-1.98726e-05
-1.87016e-05
-1.76565e-05
-1.66925e-05
-1.58323e-05
-1.50657e-05
-1.43676e-05
-1.37479e-05
-1.32005e-05
-1.27029e-05
-1.22676e-05
-1.18824e-05
-1.15354e-05
-1.12372e-05
-1.09632e-05
-1.07265e-05
-1.05137e-05
-1.03234e-05
-1.01588e-05
-1.00094e-05
-9.88015e-06
-9.76368e-06
-9.6609e-06
-9.56852e-06
-9.48573e-06
-9.41385e-06
-9.34578e-06
-9.29328e-06
-9.2583e-06
-9.22479e-06
-9.19239e-06
-9.16602e-06
-9.14203e-06
-9.122e-06
-9.10499e-06
-9.08987e-06
-9.07314e-06
-9.06198e-06
-9.05076e-06
-9.04291e-06
-9.0335e-06
-9.02751e-06
-9.02125e-06
-9.01688e-06
-9.01109e-06
-9.00781e-06
-9.00264e-06
-8.99946e-06
-8.99705e-06
-8.99705e-06
-8.99317e-06
-8.99111e-06
-8.98887e-06
-8.98911e-06
-8.99147e-06
-8.99143e-06
-8.99111e-06
-8.99112e-06
-8.99159e-06
-8.99177e-06
-8.99212e-06
-8.99277e-06
-8.99535e-06
-8.99602e-06
-9.00227e-06
-9.0024e-06
-9.01622e-06
-9.01282e-06
-9.04305e-06
-9.02922e-06
-9.0991e-06
-9.05092e-06
-9.2203e-06
-9.06982e-06
-9.54057e-06
-8.99631e-06
-1.12358e-05
-7.55258e-06
1.64292e-05
-1.30819e-05
-1.51546e-05
-3.57564e-05
-4.93566e-05
-3.9851e-05
-5.13258e-05
-4.69359e-05
-4.945e-05
-4.70902e-05
-4.62562e-05
-4.41293e-05
-4.21624e-05
-3.99599e-05
-3.7772e-05
-3.55237e-05
-3.341e-05
-3.12808e-05
-2.93502e-05
-2.74558e-05
-2.56975e-05
-2.40785e-05
-2.25523e-05
-2.11634e-05
-1.98858e-05
-1.87139e-05
-1.76676e-05
-1.67027e-05
-1.58416e-05
-1.50741e-05
-1.43752e-05
-1.37548e-05
-1.32067e-05
-1.27086e-05
-1.22728e-05
-1.18869e-05
-1.15395e-05
-1.12407e-05
-1.09664e-05
-1.07293e-05
-1.05163e-05
-1.03258e-05
-1.01609e-05
-1.00113e-05
-9.88185e-06
-9.76512e-06
-9.66219e-06
-9.56956e-06
-9.48667e-06
-9.41458e-06
-9.34657e-06
-9.29394e-06
-9.25865e-06
-9.22502e-06
-9.19264e-06
-9.16609e-06
-9.14217e-06
-9.12193e-06
-9.10492e-06
-9.08964e-06
-9.07313e-06
-9.06178e-06
-9.05066e-06
-9.04266e-06
-9.03339e-06
-9.02723e-06
-9.02107e-06
-9.01658e-06
-9.0109e-06
-9.00748e-06
-9.00245e-06
-8.99911e-06
-8.99678e-06
-8.9967e-06
-8.99302e-06
-8.99084e-06
-8.98878e-06
-8.98894e-06
-8.99128e-06
-8.9912e-06
-8.99097e-06
-8.99094e-06
-8.99147e-06
-8.99163e-06
-8.99209e-06
-8.99272e-06
-8.99537e-06
-8.99602e-06
-9.00234e-06
-9.00243e-06
-9.01636e-06
-9.01293e-06
-9.04333e-06
-9.02945e-06
-9.09962e-06
-9.05123e-06
-9.22145e-06
-9.07021e-06
-9.54427e-06
-8.99977e-06
-1.12017e-05
-6.63459e-06
1.62247e-05
-1.28749e-05
-1.50719e-05
-3.51434e-05
-4.87025e-05
-3.96621e-05
-5.09991e-05
-4.68038e-05
-4.92918e-05
-4.70158e-05
-4.61908e-05
-4.40989e-05
-4.21438e-05
-3.99558e-05
-3.7776e-05
-3.55335e-05
-3.34235e-05