/*--------------------------------*- C++ -*----------------------------------*\
| =========                 |                                                 |
| \\      /  F ield         | OpenFOAM: The Open Source CFD Toolbox           |
|  \\    /   O peration     | Version:  5.x                                   |
|   \\  /    A nd           | Web:      www.OpenFOAM.org                      |
|    \\/     M anipulation  |                                                 |
\*---------------------------------------------------------------------------*/
FoamFile
{
    version     2.0;
    format      ascii;
    class       volScalarField;
    location    "3000";
    object      p;
}
// * * * * * * * * * * * * * * * * * * * * * * * * * * * * * * * * * * * * * //

dimensions      [0 2 -2 0 0 0 0];

internalField   nonuniform List<scalar> 
107912
(
1.20466e-10
2.58591e-07
9.95419e-08
1.71282e-07
3.61392e-08
-9.02698e-08
-9.78234e-09
-1.05331e-07
-8.03047e-08
-1.2332e-07
-1.18685e-07
-1.36617e-07
-1.38333e-07
-1.45474e-07
-1.47068e-07
-1.50472e-07
-1.5029e-07
-1.51791e-07
-1.5086e-07
-1.50311e-07
-1.49348e-07
-1.47619e-07
-1.45929e-07
-1.44084e-07
-1.41615e-07
-1.39421e-07
-1.36909e-07
-1.34122e-07
-1.31553e-07
-1.28625e-07
-1.2571e-07
-1.22852e-07
-1.19749e-07
-1.1673e-07
-1.13689e-07
-1.10503e-07
-1.07432e-07
-1.04284e-07
-1.01118e-07
-9.80231e-08
-9.48412e-08
-9.1744e-08
-8.86331e-08
-8.55276e-08
-8.24807e-08
-7.94162e-08
-7.64306e-08
-7.34431e-08
-7.05234e-08
-6.76223e-08
-6.47888e-08
-6.19803e-08
-5.95421e-08
-5.73335e-08
-5.52349e-08
-5.32205e-08
-5.12417e-08
-4.9346e-08
-4.75213e-08
-4.5743e-08
-4.404e-08
-4.2382e-08
-4.0784e-08
-3.92343e-08
-3.77315e-08
-3.62755e-08
-3.4857e-08
-3.34806e-08
-3.21362e-08
-3.08235e-08
-2.95424e-08
-2.82786e-08
-2.70452e-08
-2.58221e-08
-2.46167e-08
-2.34251e-08
-2.2231e-08
-2.1058e-08
-1.98696e-08
-1.87017e-08
-1.75148e-08
-1.63437e-08
-1.51567e-08
-1.39893e-08
-1.28021e-08
-1.16733e-08
-1.04877e-08
-9.4733e-09
-8.28093e-09
-7.54813e-09
-6.2839e-09
-6.21605e-09
-4.62304e-09
-6.17567e-09
-3.3956e-09
-8.91736e-09
-2.37517e-09
-1.84022e-08
-7.99279e-10
-4.78893e-08
6.0618e-09
-2.89113e-07
8.41841e-10
2.58725e-07
9.8916e-08
1.70561e-07
3.64187e-08
-8.94617e-08
-9.57659e-09
-1.04978e-07
-8.0044e-08
-1.23028e-07
-1.18469e-07
-1.36407e-07
-1.38168e-07
-1.45328e-07
-1.46945e-07
-1.50367e-07
-1.50201e-07
-1.51714e-07
-1.50796e-07
-1.50254e-07
-1.493e-07
-1.47578e-07
-1.45893e-07
-1.44053e-07
-1.41589e-07
-1.39398e-07
-1.36889e-07
-1.34105e-07
-1.31538e-07
-1.28612e-07
-1.25699e-07
-1.22843e-07
-1.19741e-07
-1.16723e-07
-1.13683e-07
-1.10498e-07
-1.07429e-07
-1.04281e-07
-1.01116e-07
-9.80212e-08
-9.48399e-08
-9.17432e-08
-8.86327e-08
-8.55275e-08
-8.24809e-08
-7.94167e-08
-7.64314e-08
-7.34442e-08
-7.05247e-08
-6.76237e-08
-6.47904e-08
-6.1982e-08
-5.95438e-08
-5.73354e-08
-5.52369e-08
-5.32224e-08
-5.12437e-08
-4.9348e-08
-4.75233e-08
-4.5745e-08
-4.4042e-08
-4.2384e-08
-4.0786e-08
-3.92361e-08
-3.77334e-08
-3.62773e-08
-3.48589e-08
-3.34824e-08
-3.2138e-08
-3.08252e-08
-2.95442e-08
-2.82804e-08
-2.7047e-08
-2.58239e-08
-2.46186e-08
-2.34271e-08
-2.22331e-08
-2.10602e-08
-1.9872e-08
-1.87043e-08
-1.75176e-08
-1.63468e-08
-1.51601e-08
-1.3993e-08
-1.28063e-08
-1.16781e-08
-1.0493e-08
-9.47941e-09
-8.28761e-09
-7.55616e-09
-6.29241e-09
-6.227e-09
-4.63386e-09
-6.19154e-09
-3.40933e-09
-8.94301e-09
-2.3929e-09
-1.84533e-08
-8.24176e-10
-4.80576e-08
6.06006e-09
-2.80193e-07
1.60562e-09
2.58878e-07
9.81759e-08
1.69716e-07
3.67239e-08
-8.85021e-08
-9.31938e-09
-1.04574e-07
-7.97272e-08
-1.22687e-07
-1.18208e-07
-1.36159e-07
-1.37968e-07
-1.45152e-07
-1.46796e-07
-1.50239e-07
-1.50092e-07
-1.51619e-07
-1.50716e-07
-1.50183e-07
-1.49239e-07
-1.47526e-07
-1.45847e-07
-1.44013e-07
-1.41555e-07
-1.39367e-07
-1.36863e-07
-1.34082e-07
-1.31518e-07
-1.28595e-07
-1.25684e-07
-1.22829e-07
-1.1973e-07
-1.16713e-07
-1.13674e-07
-1.10491e-07
-1.07422e-07
-1.04276e-07
-1.01111e-07
-9.80175e-08
-9.4837e-08
-9.17407e-08
-8.86308e-08
-8.55262e-08
-8.248e-08
-7.94162e-08
-7.64312e-08
-7.34444e-08
-7.05251e-08
-6.76244e-08
-6.47913e-08
-6.19831e-08
-5.9545e-08
-5.73368e-08
-5.52383e-08
-5.3224e-08
-5.12454e-08
-4.93497e-08
-4.7525e-08
-4.57467e-08
-4.40437e-08
-4.23857e-08
-4.07877e-08
-3.92379e-08
-3.77351e-08
-3.6279e-08
-3.48605e-08
-3.34841e-08
-3.21397e-08
-3.08269e-08
-2.95459e-08
-2.82821e-08
-2.70488e-08
-2.58257e-08
-2.46205e-08
-2.34291e-08
-2.22352e-08
-2.10625e-08
-1.98745e-08
-1.8707e-08
-1.75205e-08
-1.63501e-08
-1.51638e-08
-1.39972e-08
-1.2811e-08
-1.16834e-08
-1.04989e-08
-9.48638e-09
-8.2953e-09
-7.56544e-09
-6.30235e-09
-6.23982e-09
-4.64676e-09
-6.21032e-09
-3.42613e-09
-8.97351e-09
-2.41549e-09
-1.85141e-08
-8.58354e-10
-4.82569e-08
6.00527e-09
-2.78588e-07
2.39699e-09
2.5901e-07
9.74258e-08
1.68842e-07
3.70314e-08
-8.75082e-08
-9.05426e-09
-1.04154e-07
-7.93994e-08
-1.22334e-07
-1.17937e-07
-1.35901e-07
-1.3776e-07
-1.44969e-07
-1.4664e-07
-1.50106e-07
-1.49978e-07
-1.51519e-07
-1.50633e-07
-1.5011e-07
-1.49175e-07
-1.47472e-07
-1.45799e-07
-1.43971e-07
-1.41519e-07
-1.39335e-07
-1.36836e-07
-1.34058e-07
-1.31497e-07
-1.28577e-07
-1.25668e-07
-1.22815e-07
-1.19718e-07
-1.16702e-07
-1.13665e-07
-1.10483e-07
-1.07415e-07
-1.0427e-07
-1.01106e-07
-9.80134e-08
-9.48337e-08
-9.1738e-08
-8.86287e-08
-8.55246e-08
-8.24789e-08
-7.94156e-08
-7.64309e-08
-7.34444e-08
-7.05254e-08
-6.76249e-08
-6.47921e-08
-6.19841e-08
-5.95462e-08
-5.73382e-08
-5.52398e-08
-5.32255e-08
-5.1247e-08
-4.93514e-08
-4.75268e-08
-4.57485e-08
-4.40454e-08
-4.23874e-08
-4.07894e-08
-3.92396e-08
-3.77368e-08
-3.62807e-08
-3.48622e-08
-3.34857e-08
-3.21414e-08
-3.08286e-08
-2.95476e-08
-2.82838e-08
-2.70506e-08
-2.58276e-08
-2.46224e-08
-2.34311e-08
-2.22374e-08
-2.10648e-08
-1.9877e-08
-1.87098e-08
-1.75236e-08
-1.63535e-08
-1.51676e-08
-1.40015e-08
-1.28158e-08
-1.16889e-08
-1.05051e-08
-9.49358e-09
-8.30326e-09
-7.57505e-09
-6.31267e-09
-6.25312e-09
-4.66017e-09
-6.2298e-09
-3.44366e-09
-9.00516e-09
-2.43914e-09
-1.85772e-08
-8.94274e-10
-4.8462e-08
5.94395e-09
-2.78017e-07
3.24576e-09
2.59121e-07
9.66496e-08
1.6792e-07
3.7351e-08
-8.64598e-08
-8.77635e-09
-1.03706e-07
-7.90541e-08
-1.21959e-07
-1.1765e-07
-1.35627e-07
-1.37539e-07
-1.44774e-07
-1.46475e-07
-1.49964e-07
-1.49857e-07
-1.51414e-07
-1.50544e-07
-1.50031e-07
-1.49108e-07
-1.47414e-07
-1.45747e-07
-1.43927e-07
-1.41481e-07
-1.39301e-07
-1.36807e-07
-1.34032e-07
-1.31474e-07
-1.28558e-07
-1.25651e-07
-1.228e-07
-1.19705e-07
-1.16691e-07
-1.13656e-07
-1.10475e-07
-1.07408e-07
-1.04264e-07
-1.01101e-07
-9.80092e-08
-9.48303e-08
-9.17352e-08
-8.86266e-08
-8.5523e-08
-8.24778e-08
-7.94149e-08
-7.64306e-08
-7.34445e-08
-7.05258e-08
-6.76256e-08
-6.4793e-08
-6.19852e-08
-5.95474e-08
-5.73397e-08
-5.52414e-08
-5.32272e-08
-5.12488e-08
-4.93532e-08
-4.75286e-08
-4.57503e-08
-4.40473e-08
-4.23893e-08
-4.07913e-08
-3.92414e-08
-3.77387e-08
-3.62826e-08
-3.48641e-08
-3.34876e-08
-3.21432e-08
-3.08305e-08
-2.95495e-08
-2.82857e-08
-2.70525e-08
-2.58296e-08
-2.46245e-08
-2.34333e-08
-2.22397e-08
-2.10673e-08
-1.98797e-08
-1.87127e-08
-1.75269e-08
-1.63571e-08
-1.51716e-08
-1.40061e-08
-1.28209e-08
-1.16948e-08
-1.05117e-08
-9.50124e-09
-8.31172e-09
-7.58527e-09
-6.32364e-09
-6.26724e-09
-4.67441e-09
-6.25046e-09
-3.46223e-09
-9.0387e-09
-2.46414e-09
-1.86439e-08
-9.31977e-10
-4.86774e-08
5.88101e-09
-2.76993e-07
4.16432e-09
2.59211e-07
9.58363e-08
1.66936e-07
3.76866e-08
-8.53402e-08
-8.48056e-09
-1.03223e-07
-7.86853e-08
-1.21555e-07
-1.17342e-07
-1.35332e-07
-1.37302e-07
-1.44564e-07
-1.46298e-07
-1.49811e-07
-1.49727e-07
-1.513e-07
-1.50449e-07
-1.49947e-07
-1.49035e-07
-1.47352e-07
-1.45692e-07
-1.4388e-07
-1.4144e-07
-1.39265e-07
-1.36775e-07
-1.34005e-07
-1.3145e-07
-1.28537e-07
-1.25632e-07
-1.22784e-07
-1.19691e-07
-1.16679e-07
-1.13645e-07
-1.10466e-07
-1.07401e-07
-1.04258e-07
-1.01096e-07
-9.80046e-08
-9.48266e-08
-9.17322e-08
-8.86243e-08
-8.55213e-08
-8.24766e-08
-7.94142e-08
-7.64303e-08
-7.34446e-08
-7.05263e-08
-6.76264e-08
-6.4794e-08
-6.19864e-08
-5.95488e-08
-5.73413e-08
-5.52431e-08
-5.3229e-08
-5.12507e-08
-4.93551e-08
-4.75306e-08
-4.57523e-08
-4.40493e-08
-4.23913e-08
-4.07933e-08
-3.92434e-08
-3.77407e-08
-3.62846e-08
-3.4866e-08
-3.34895e-08
-3.21452e-08
-3.08325e-08
-2.95515e-08
-2.82878e-08
-2.70546e-08
-2.58317e-08
-2.46267e-08
-2.34356e-08
-2.22422e-08
-2.107e-08
-1.98826e-08
-1.87159e-08
-1.75304e-08
-1.6361e-08
-1.5176e-08
-1.4011e-08
-1.28264e-08
-1.17011e-08
-1.05187e-08
-9.50949e-09
-8.32083e-09
-7.59626e-09
-6.33543e-09
-6.28242e-09
-4.68971e-09
-6.27266e-09
-3.48219e-09
-9.07469e-09
-2.49097e-09
-1.87154e-08
-9.72194e-10
-4.89064e-08
5.81326e-09
-2.75719e-07
5.15719e-09
2.59274e-07
9.49854e-08
1.65886e-07
3.8038e-08
-8.4145e-08
-8.16563e-09
-1.02701e-07
-7.82912e-08
-1.21122e-07
-1.17012e-07
-1.35014e-07
-1.37047e-07
-1.44338e-07
-1.46106e-07
-1.49647e-07
-1.49587e-07
-1.51178e-07
-1.50346e-07
-1.49855e-07
-1.48957e-07
-1.47285e-07
-1.45633e-07
-1.43828e-07
-1.41396e-07
-1.39225e-07
-1.36741e-07
-1.33975e-07
-1.31424e-07
-1.28515e-07
-1.25613e-07
-1.22767e-07
-1.19677e-07
-1.16666e-07
-1.13634e-07
-1.10456e-07
-1.07392e-07
-1.04251e-07
-1.0109e-07
-9.79996e-08
-9.48226e-08
-9.1729e-08
-8.86218e-08
-8.55194e-08
-8.24753e-08
-7.94134e-08
-7.643e-08
-7.34447e-08
-7.05267e-08
-6.76271e-08
-6.47951e-08
-6.19876e-08
-5.95502e-08
-5.73431e-08
-5.52449e-08
-5.32309e-08
-5.12528e-08
-4.93572e-08
-4.75327e-08
-4.57545e-08
-4.40515e-08
-4.23935e-08
-4.07954e-08
-3.92456e-08
-3.77428e-08
-3.62867e-08
-3.48682e-08
-3.34916e-08
-3.21473e-08
-3.08346e-08
-2.95536e-08
-2.82899e-08
-2.70568e-08
-2.58341e-08
-2.46291e-08
-2.34382e-08
-2.22449e-08
-2.10729e-08
-1.98857e-08
-1.87194e-08
-1.75342e-08
-1.63652e-08
-1.51807e-08
-1.40163e-08
-1.28323e-08
-1.17079e-08
-1.05263e-08
-9.51836e-09
-8.33062e-09
-7.60808e-09
-6.34812e-09
-6.29873e-09
-4.70618e-09
-6.29652e-09
-3.50365e-09
-9.11333e-09
-2.51979e-09
-1.8792e-08
-1.01519e-09
-4.91497e-08
5.73929e-09
-2.74358e-07
6.2292e-09
2.59305e-07
9.40983e-08
1.64767e-07
3.84048e-08
-8.28712e-08
-7.83098e-09
-1.02139e-07
-7.7871e-08
-1.20656e-07
-1.16659e-07
-1.34673e-07
-1.36774e-07
-1.44095e-07
-1.45901e-07
-1.4947e-07
-1.49437e-07
-1.51046e-07
-1.50235e-07
-1.49757e-07
-1.48873e-07
-1.47213e-07
-1.45569e-07
-1.43773e-07
-1.41349e-07
-1.39183e-07
-1.36705e-07
-1.33944e-07
-1.31395e-07
-1.28491e-07
-1.25591e-07
-1.22748e-07
-1.19661e-07
-1.16652e-07
-1.13622e-07
-1.10446e-07
-1.07383e-07
-1.04243e-07
-1.01083e-07
-9.79943e-08
-9.48184e-08
-9.17254e-08
-8.86191e-08
-8.55174e-08
-8.24739e-08
-7.94126e-08
-7.64296e-08
-7.34448e-08
-7.05272e-08
-6.7628e-08
-6.47963e-08
-6.1989e-08
-5.95518e-08
-5.73449e-08
-5.52469e-08
-5.32329e-08
-5.1255e-08
-4.93595e-08
-4.7535e-08
-4.57568e-08
-4.40538e-08
-4.23958e-08
-4.07977e-08
-3.92479e-08
-3.77451e-08
-3.6289e-08
-3.48704e-08
-3.34939e-08
-3.21496e-08
-3.08369e-08
-2.95559e-08
-2.82923e-08
-2.70592e-08
-2.58366e-08
-2.46317e-08
-2.34409e-08
-2.22478e-08
-2.1076e-08
-1.98891e-08
-1.8723e-08
-1.75382e-08
-1.63697e-08
-1.51857e-08
-1.4022e-08
-1.28387e-08
-1.17152e-08
-1.05345e-08
-9.5279e-09
-8.34116e-09
-7.62078e-09
-6.36176e-09
-6.31626e-09
-4.72387e-09
-6.32211e-09
-3.5267e-09
-9.15476e-09
-2.55072e-09
-1.8874e-08
-1.0611e-09
-4.94077e-08
5.65865e-09
-2.72914e-07
7.38636e-09
2.59296e-07
9.31764e-08
1.63578e-07
3.87866e-08
-8.15151e-08
-7.47588e-09
-1.01533e-07
-7.74231e-08
-1.20155e-07
-1.1628e-07
-1.34306e-07
-1.3648e-07
-1.43834e-07
-1.4568e-07
-1.49279e-07
-1.49274e-07
-1.50904e-07
-1.50116e-07
-1.49652e-07
-1.48782e-07
-1.47135e-07
-1.455e-07
-1.43714e-07
-1.41297e-07
-1.39137e-07
-1.36666e-07
-1.33909e-07
-1.31365e-07
-1.28465e-07
-1.25568e-07
-1.22728e-07
-1.19643e-07
-1.16636e-07
-1.13609e-07
-1.10435e-07
-1.07373e-07
-1.04235e-07
-1.01077e-07
-9.79885e-08
-9.48137e-08
-9.17216e-08
-8.86161e-08
-8.55152e-08
-8.24723e-08
-7.94117e-08
-7.64292e-08
-7.34448e-08
-7.05277e-08
-6.76289e-08
-6.47975e-08
-6.19905e-08
-5.95535e-08
-5.73469e-08
-5.5249e-08
-5.32352e-08
-5.12574e-08
-4.93619e-08
-4.75375e-08
-4.57593e-08
-4.40563e-08
-4.23983e-08
-4.08002e-08
-3.92504e-08
-3.77476e-08
-3.62914e-08
-3.48729e-08
-3.34963e-08
-3.2152e-08
-3.08393e-08
-2.95584e-08
-2.82948e-08
-2.70618e-08
-2.58392e-08
-2.46345e-08
-2.34438e-08
-2.22509e-08
-2.10793e-08
-1.98927e-08
-1.8727e-08
-1.75426e-08
-1.63746e-08
-1.51911e-08
-1.40281e-08
-1.28456e-08
-1.17231e-08
-1.05433e-08
-9.53815e-09
-8.35248e-09
-7.63443e-09
-6.37641e-09
-6.33507e-09
-4.74287e-09
-6.34958e-09
-3.55146e-09
-9.19915e-09
-2.58389e-09
-1.89617e-08
-1.11007e-09
-4.96808e-08
5.57081e-09
-2.71366e-07
8.63519e-09
2.59239e-07
9.22211e-08
1.62314e-07
3.91832e-08
-8.00729e-08
-7.09952e-09
-1.0088e-07
-7.69461e-08
-1.19618e-07
-1.15874e-07
-1.33912e-07
-1.36164e-07
-1.43552e-07
-1.45443e-07
-1.49074e-07
-1.491e-07
-1.50752e-07
-1.49988e-07
-1.49538e-07
-1.48684e-07
-1.47052e-07
-1.45426e-07
-1.43649e-07
-1.41242e-07
-1.39088e-07
-1.36623e-07
-1.33872e-07
-1.31332e-07
-1.28437e-07
-1.25544e-07
-1.22706e-07
-1.19625e-07
-1.1662e-07
-1.13595e-07
-1.10423e-07
-1.07363e-07
-1.04227e-07
-1.01069e-07
-9.79823e-08
-9.48087e-08
-9.17175e-08
-8.8613e-08
-8.55128e-08
-8.24707e-08
-7.94106e-08
-7.64288e-08
-7.34449e-08
-7.05282e-08
-6.76298e-08
-6.47988e-08
-6.1992e-08
-5.95552e-08
-5.7349e-08
-5.52512e-08
-5.32375e-08
-5.12599e-08
-4.93645e-08
-4.75401e-08
-4.5762e-08
-4.40589e-08
-4.2401e-08
-4.08029e-08
-3.9253e-08
-3.77502e-08
-3.62941e-08
-3.48755e-08
-3.3499e-08
-3.21546e-08
-3.0842e-08
-2.95611e-08
-2.82975e-08
-2.70646e-08
-2.58421e-08
-2.46375e-08
-2.3447e-08
-2.22543e-08
-2.10829e-08
-1.98967e-08
-1.87313e-08
-1.75473e-08
-1.63799e-08
-1.5197e-08
-1.40347e-08
-1.28529e-08
-1.17315e-08
-1.05527e-08
-9.54916e-09
-8.36464e-09
-7.64908e-09
-6.39215e-09
-6.35527e-09
-4.76327e-09
-6.37903e-09
-3.57803e-09
-9.2467e-09
-2.61946e-09
-1.90554e-08
-1.16227e-09
-4.99695e-08
5.47505e-09
-2.69705e-07
9.98258e-09
2.59124e-07
9.12349e-08
1.60971e-07
3.9594e-08
-7.85408e-08
-6.70114e-09
-1.00176e-07
-7.64386e-08
-1.19041e-07
-1.1544e-07
-1.33488e-07
-1.35826e-07
-1.43249e-07
-1.45188e-07
-1.48853e-07
-1.48912e-07
-1.50587e-07
-1.49849e-07
-1.49416e-07
-1.48579e-07
-1.46961e-07
-1.45346e-07
-1.4358e-07
-1.41183e-07
-1.39035e-07
-1.36578e-07
-1.33832e-07
-1.31297e-07
-1.28407e-07
-1.25517e-07
-1.22683e-07
-1.19605e-07
-1.16602e-07
-1.13579e-07
-1.1041e-07
-1.07352e-07
-1.04217e-07
-1.01061e-07
-9.79756e-08
-9.48033e-08
-9.1713e-08
-8.86095e-08
-8.55102e-08
-8.24688e-08
-7.94095e-08
-7.64283e-08
-7.3445e-08
-7.05288e-08
-6.76308e-08
-6.48002e-08
-6.19937e-08
-5.95572e-08
-5.73513e-08
-5.52536e-08
-5.32401e-08
-5.12627e-08
-4.93673e-08
-4.7543e-08
-4.57649e-08
-4.40618e-08
-4.24039e-08
-4.08058e-08
-3.92559e-08
-3.77531e-08
-3.62969e-08
-3.48784e-08
-3.35018e-08
-3.21575e-08
-3.08448e-08
-2.9564e-08
-2.83005e-08
-2.70676e-08
-2.58452e-08
-2.46407e-08
-2.34504e-08
-2.22579e-08
-2.10868e-08
-1.99008e-08
-1.87359e-08
-1.75524e-08
-1.63855e-08
-1.52032e-08
-1.40418e-08
-1.28609e-08
-1.17406e-08
-1.05628e-08
-9.56099e-09
-8.37771e-09
-7.66482e-09
-6.40906e-09
-6.37694e-09
-4.78518e-09
-6.41061e-09
-3.60655e-09
-9.29761e-09
-2.65759e-09
-1.91555e-08
-1.21789e-09
-5.02743e-08
5.3706e-09
-2.67925e-07
1.14357e-08
2.58941e-07
9.02204e-08
1.59548e-07
4.00183e-08
-7.69151e-08
-6.28007e-09
-9.94179e-08
-7.58989e-08
-1.18422e-07
-1.14975e-07
-1.33033e-07
-1.35463e-07
-1.42923e-07
-1.44914e-07
-1.48615e-07
-1.4871e-07
-1.5041e-07
-1.497e-07
-1.49284e-07
-1.48465e-07
-1.46864e-07
-1.4526e-07
-1.43506e-07
-1.41118e-07
-1.38977e-07
-1.36528e-07
-1.33789e-07
-1.31259e-07
-1.28374e-07
-1.25488e-07
-1.22657e-07
-1.19583e-07
-1.16583e-07
-1.13563e-07
-1.10396e-07
-1.07339e-07
-1.04207e-07
-1.01052e-07
-9.79683e-08
-9.47974e-08
-9.17082e-08
-8.86058e-08
-8.55074e-08
-8.24669e-08
-7.94083e-08
-7.64277e-08
-7.3445e-08
-7.05294e-08
-6.76318e-08
-6.48017e-08
-6.19955e-08
-5.95592e-08
-5.73538e-08
-5.52562e-08
-5.32428e-08
-5.12656e-08
-4.93703e-08
-4.7546e-08
-4.57679e-08
-4.40649e-08
-4.2407e-08
-4.08088e-08
-3.9259e-08
-3.77561e-08
-3.62999e-08
-3.48814e-08
-3.35048e-08
-3.21605e-08
-3.08479e-08
-2.9567e-08
-2.83036e-08
-2.70708e-08
-2.58485e-08
-2.46442e-08
-2.3454e-08
-2.22618e-08
-2.1091e-08
-1.99054e-08
-1.87408e-08
-1.75578e-08
-1.63915e-08
-1.521e-08
-1.40494e-08
-1.28694e-08
-1.17503e-08
-1.05737e-08
-9.5737e-09
-8.39175e-09
-7.68172e-09
-6.42721e-09
-6.40019e-09
-4.8087e-09
-6.44445e-09
-3.63715e-09
-9.3521e-09
-2.69844e-09
-1.92624e-08
-1.27711e-09
-5.05955e-08
5.2566e-09
-2.66018e-07
1.30022e-08
2.58678e-07
8.91813e-08
1.58041e-07
4.04551e-08
-7.51924e-08
-5.83572e-09
-9.86008e-08
-7.53257e-08
-1.17758e-07
-1.14478e-07
-1.32544e-07
-1.35073e-07
-1.42573e-07
-1.4462e-07
-1.48359e-07
-1.48493e-07
-1.5022e-07
-1.4954e-07
-1.49142e-07
-1.48343e-07
-1.46759e-07
-1.45167e-07
-1.43425e-07
-1.41049e-07
-1.38916e-07
-1.36475e-07
-1.33743e-07
-1.31217e-07
-1.28339e-07
-1.25457e-07
-1.2263e-07
-1.1956e-07
-1.16563e-07
-1.13545e-07
-1.10381e-07
-1.07326e-07
-1.04196e-07
-1.01043e-07
-9.79604e-08
-9.47911e-08
-9.1703e-08
-8.86018e-08
-8.55043e-08
-8.24647e-08
-7.9407e-08
-7.64271e-08
-7.34451e-08
-7.053e-08
-6.76329e-08
-6.48032e-08
-6.19974e-08
-5.95614e-08
-5.73564e-08
-5.5259e-08
-5.32457e-08
-5.12688e-08
-4.93735e-08
-4.75493e-08
-4.57712e-08
-4.40682e-08
-4.24103e-08
-4.08121e-08
-3.92623e-08
-3.77594e-08
-3.63032e-08
-3.48847e-08
-3.35081e-08
-3.21638e-08
-3.08511e-08
-2.95703e-08
-2.8307e-08
-2.70742e-08
-2.58521e-08
-2.46479e-08
-2.34579e-08
-2.22659e-08
-2.10954e-08
-1.99102e-08
-1.87461e-08
-1.75637e-08
-1.6398e-08
-1.52172e-08
-1.40576e-08
-1.28785e-08
-1.17608e-08
-1.05854e-08
-9.58734e-09
-8.40682e-09
-7.69985e-09
-6.4467e-09
-6.42513e-09
-4.83394e-09
-6.48071e-09
-3.66998e-09
-9.41039e-09
-2.74221e-09
-1.93764e-08
-1.34014e-09
-5.09332e-08
5.13213e-09
-2.63976e-07
1.46899e-08
2.58323e-07
8.81221e-08
1.56448e-07
4.09035e-08
-7.33695e-08
-5.36759e-09
-9.77208e-08
-7.47175e-08
-1.17046e-07
-1.13947e-07
-1.32019e-07
-1.34655e-07
-1.42196e-07
-1.44303e-07
-1.48084e-07
-1.48259e-07
-1.50015e-07
-1.49367e-07
-1.48989e-07
-1.48211e-07
-1.46646e-07
-1.45067e-07
-1.43339e-07
-1.40975e-07
-1.38849e-07
-1.36418e-07
-1.33693e-07
-1.31173e-07
-1.28301e-07
-1.25423e-07
-1.22601e-07
-1.19535e-07
-1.1654e-07
-1.13526e-07
-1.10365e-07
-1.07312e-07
-1.04184e-07
-1.01033e-07
-9.79519e-08
-9.47842e-08
-9.16973e-08
-8.85974e-08
-8.5501e-08
-8.24623e-08
-7.94055e-08
-7.64264e-08
-7.34451e-08
-7.05306e-08
-6.76341e-08
-6.48049e-08
-6.19994e-08
-5.95637e-08
-5.73591e-08
-5.52619e-08
-5.32488e-08
-5.12721e-08
-4.9377e-08
-4.75528e-08
-4.57748e-08
-4.40717e-08
-4.24138e-08
-4.08157e-08
-3.92658e-08
-3.77629e-08
-3.63067e-08
-3.48881e-08
-3.35115e-08
-3.21673e-08
-3.08547e-08
-2.95739e-08
-2.83106e-08
-2.70779e-08
-2.58559e-08
-2.46519e-08
-2.34622e-08
-2.22704e-08
-2.11002e-08
-1.99154e-08
-1.87518e-08
-1.75699e-08
-1.6405e-08
-1.5225e-08
-1.40663e-08
-1.28883e-08
-1.17721e-08
-1.0598e-08
-9.602e-09
-8.42301e-09
-7.71931e-09
-6.46762e-09
-6.45187e-09
-4.86102e-09
-6.51954e-09
-3.70519e-09
-9.4727e-09
-2.78907e-09
-1.94979e-08
-1.40716e-09
-5.12877e-08
4.9961e-09
-2.61794e-07
1.6507e-08
2.57861e-07
8.70483e-08
1.54765e-07
4.1362e-08
-7.14438e-08
-4.87535e-09
-9.67732e-08
-7.40726e-08
-1.16282e-07
-1.13379e-07
-1.31454e-07
-1.34208e-07
-1.4179e-07
-1.43964e-07
-1.47787e-07
-1.48007e-07
-1.49794e-07
-1.4918e-07
-1.48825e-07
-1.4807e-07
-1.46525e-07
-1.4496e-07
-1.43245e-07
-1.40894e-07
-1.38778e-07
-1.36356e-07
-1.33639e-07
-1.31125e-07
-1.2826e-07
-1.25387e-07
-1.22569e-07
-1.19508e-07
-1.16516e-07
-1.13506e-07
-1.10347e-07
-1.07297e-07
-1.04171e-07
-1.01022e-07
-9.79427e-08
-9.47768e-08
-9.16912e-08
-8.85926e-08
-8.54974e-08
-8.24598e-08
-7.94039e-08
-7.64256e-08
-7.34451e-08
-7.05313e-08
-6.76354e-08
-6.48067e-08
-6.20016e-08
-5.95662e-08
-5.73621e-08
-5.52651e-08
-5.32522e-08
-5.12757e-08
-4.93806e-08
-4.75565e-08
-4.57786e-08
-4.40755e-08
-4.24177e-08
-4.08195e-08
-3.92696e-08
-3.77667e-08
-3.63105e-08
-3.48919e-08
-3.35153e-08
-3.2171e-08
-3.08584e-08
-2.95777e-08
-2.83145e-08
-2.70819e-08
-2.58601e-08
-2.46562e-08
-2.34667e-08
-2.22752e-08
-2.11054e-08
-1.9921e-08
-1.87579e-08
-1.75767e-08
-1.64125e-08
-1.52333e-08
-1.40758e-08
-1.28989e-08
-1.17842e-08
-1.06115e-08
-9.61772e-09
-8.44039e-09
-7.74019e-09
-6.49008e-09
-6.48053e-09
-4.89008e-09
-6.56111e-09
-3.74294e-09
-9.53928e-09
-2.83924e-09
-1.96272e-08
-1.4784e-09
-5.16589e-08
4.8474e-09
-2.59462e-07
1.84618e-08
2.57276e-07
8.59662e-08
1.52992e-07
4.18292e-08
-6.94127e-08
-4.35881e-09
-9.57531e-08
-7.33898e-08
-1.15463e-07
-1.12773e-07
-1.30849e-07
-1.33727e-07
-1.41354e-07
-1.43599e-07
-1.47468e-07
-1.47737e-07
-1.49557e-07
-1.4898e-07
-1.48648e-07
-1.47917e-07
-1.46393e-07
-1.44844e-07
-1.43145e-07
-1.40808e-07
-1.387e-07
-1.3629e-07
-1.33581e-07
-1.31074e-07
-1.28216e-07
-1.25348e-07
-1.22535e-07
-1.19478e-07
-1.1649e-07
-1.13483e-07
-1.10328e-07
-1.0728e-07
-1.04157e-07
-1.0101e-07
-9.79328e-08
-9.47687e-08
-9.16845e-08
-8.85875e-08
-8.54934e-08
-8.2457e-08
-7.94022e-08
-7.64247e-08
-7.3445e-08
-7.05319e-08
-6.76367e-08
-6.48086e-08
-6.20039e-08
-5.95689e-08
-5.73653e-08
-5.52685e-08
-5.32557e-08
-5.12796e-08
-4.93846e-08
-4.75605e-08
-4.57826e-08
-4.40796e-08
-4.24218e-08
-4.08235e-08
-3.92737e-08
-3.77708e-08
-3.63145e-08
-3.48959e-08
-3.35193e-08
-3.21751e-08
-3.08625e-08
-2.95818e-08
-2.83187e-08
-2.70862e-08
-2.58645e-08
-2.46608e-08
-2.34716e-08
-2.22804e-08
-2.11109e-08
-1.99271e-08
-1.87645e-08
-1.7584e-08
-1.64206e-08
-1.52423e-08
-1.40859e-08
-1.29103e-08
-1.17971e-08
-1.0626e-08
-9.63461e-09
-8.45905e-09
-7.76258e-09
-6.51417e-09
-6.51124e-09
-4.92124e-09
-6.60559e-09
-3.78341e-09
-9.61038e-09
-2.89293e-09
-1.97648e-08
-1.55407e-09
-5.20466e-08
4.68476e-09
-2.56974e-07
2.05631e-08
2.5655e-07
8.48832e-08
1.51126e-07
4.23034e-08
-6.72744e-08
-3.81798e-09
-9.46555e-08
-7.26675e-08
-1.14585e-07
-1.12127e-07
-1.30198e-07
-1.33213e-07
-1.40884e-07
-1.43207e-07
-1.47124e-07
-1.47445e-07
-1.49301e-07
-1.48763e-07
-1.48457e-07
-1.47752e-07
-1.46252e-07
-1.44719e-07
-1.43036e-07
-1.40714e-07
-1.38617e-07
-1.36218e-07
-1.33518e-07
-1.31018e-07
-1.28168e-07
-1.25306e-07
-1.22498e-07
-1.19447e-07
-1.16462e-07
-1.13459e-07
-1.10308e-07
-1.07262e-07
-1.04142e-07
-1.00997e-07
-9.7922e-08
-9.476e-08
-9.16773e-08
-8.85819e-08
-8.54891e-08
-8.24539e-08
-7.94002e-08
-7.64237e-08
-7.34449e-08
-7.05326e-08
-6.7638e-08
-6.48106e-08
-6.20063e-08
-5.95717e-08
-5.73687e-08
-5.52721e-08
-5.32595e-08
-5.12837e-08
-4.93888e-08
-4.75648e-08
-4.5787e-08
-4.4084e-08
-4.24261e-08
-4.08279e-08
-3.9278e-08
-3.77751e-08
-3.63188e-08
-3.49003e-08
-3.35236e-08
-3.21794e-08
-3.08669e-08
-2.95862e-08
-2.83232e-08
-2.70908e-08
-2.58693e-08
-2.46658e-08
-2.34768e-08
-2.2286e-08
-2.11169e-08
-1.99336e-08
-1.87716e-08
-1.75918e-08
-1.64293e-08
-1.5252e-08
-1.40968e-08
-1.29224e-08
-1.18111e-08
-1.06416e-08
-9.65272e-09
-8.47907e-09
-7.78659e-09
-6.54002e-09
-6.54414e-09
-4.95465e-09
-6.65316e-09
-3.82677e-09
-9.68624e-09
-2.95035e-09
-1.9911e-08
-1.63442e-09
-5.24504e-08
4.50678e-09
-2.54322e-07
2.28193e-08
2.55666e-07
8.3808e-08
1.49166e-07
4.27828e-08
-6.50278e-08
-3.25308e-09
-9.34749e-08
-7.19044e-08
-1.13644e-07
-1.11437e-07
-1.295e-07
-1.32662e-07
-1.40379e-07
-1.42787e-07
-1.46754e-07
-1.47132e-07
-1.49026e-07
-1.4853e-07
-1.48252e-07
-1.47575e-07
-1.46099e-07
-1.44584e-07
-1.42919e-07
-1.40613e-07
-1.38527e-07
-1.3614e-07
-1.3345e-07
-1.30958e-07
-1.28117e-07
-1.25261e-07
-1.22458e-07
-1.19413e-07
-1.16432e-07
-1.13433e-07
-1.10286e-07
-1.07243e-07
-1.04126e-07
-1.00984e-07
-9.79103e-08
-9.47505e-08
-9.16695e-08
-8.85758e-08
-8.54845e-08
-8.24505e-08
-7.93981e-08
-7.64226e-08
-7.34447e-08
-7.05333e-08
-6.76394e-08
-6.48127e-08
-6.20089e-08
-5.95747e-08
-5.73723e-08
-5.52759e-08
-5.32636e-08
-5.12881e-08
-4.93933e-08
-4.75694e-08
-4.57916e-08
-4.40886e-08
-4.24308e-08
-4.08326e-08
-3.92827e-08
-3.77798e-08
-3.63235e-08
-3.49049e-08
-3.35282e-08
-3.21841e-08
-3.08715e-08
-2.9591e-08
-2.8328e-08
-2.70957e-08
-2.58744e-08
-2.46711e-08
-2.34824e-08
-2.2292e-08
-2.11233e-08
-1.99405e-08
-1.87792e-08
-1.76001e-08
-1.64386e-08
-1.52624e-08
-1.41085e-08
-1.29355e-08
-1.1826e-08
-1.06583e-08
-9.67216e-09
-8.50056e-09
-7.81233e-09
-6.56774e-09
-6.57936e-09
-4.99047e-09
-6.70402e-09
-3.87322e-09
-9.76713e-09
-3.01174e-09
-2.00661e-08
-1.71969e-09
-5.28697e-08
4.31196e-09
-2.51499e-07
2.52392e-08
2.54604e-07
8.27504e-08
1.47113e-07
4.32653e-08
-6.26722e-08
-2.6646e-09
-9.22059e-08
-7.10993e-08
-1.12637e-07
-1.10702e-07
-1.28752e-07
-1.32072e-07
-1.39837e-07
-1.42335e-07
-1.46355e-07
-1.46795e-07
-1.4873e-07
-1.48279e-07
-1.48031e-07
-1.47383e-07
-1.45935e-07
-1.44439e-07
-1.42793e-07
-1.40505e-07
-1.38431e-07
-1.36057e-07
-1.33377e-07
-1.30894e-07
-1.28061e-07
-1.25212e-07
-1.22415e-07
-1.19376e-07
-1.164e-07
-1.13405e-07
-1.10262e-07
-1.07222e-07
-1.04108e-07
-1.00969e-07
-9.78977e-08
-9.47402e-08
-9.1661e-08
-8.85691e-08
-8.54794e-08
-8.24469e-08
-7.93957e-08
-7.64213e-08
-7.34445e-08
-7.0534e-08
-6.76409e-08
-6.48149e-08
-6.20117e-08
-5.95779e-08
-5.73761e-08
-5.528e-08
-5.3268e-08
-5.12928e-08
-4.93981e-08
-4.75743e-08
-4.57966e-08
-4.40936e-08
-4.24359e-08
-4.08376e-08
-3.92877e-08
-3.77848e-08
-3.63284e-08
-3.49099e-08
-3.35332e-08
-3.21891e-08
-3.08766e-08
-2.9596e-08
-2.83332e-08
-2.7101e-08
-2.58799e-08
-2.46768e-08
-2.34884e-08
-2.22984e-08
-2.11302e-08
-1.9948e-08
-1.87874e-08
-1.76092e-08
-1.64486e-08
-1.52735e-08
-1.41211e-08
-1.29496e-08
-1.18421e-08
-1.06762e-08
-9.69301e-09
-8.5236e-09
-7.83992e-09
-6.59746e-09
-6.61706e-09
-5.02885e-09
-6.75834e-09
-3.92297e-09
-9.85331e-09
-3.07736e-09
-2.02305e-08
-1.81016e-09
-5.33036e-08
4.09865e-09
-2.48496e-07
2.78312e-08
2.53342e-07
8.17212e-08
1.44965e-07
4.37489e-08
-6.02079e-08
-2.05331e-09
-9.08426e-08
-7.02509e-08
-1.11559e-07
-1.0992e-07
-1.27949e-07
-1.3144e-07
-1.39253e-07
-1.41851e-07
-1.45926e-07
-1.46432e-07
-1.48411e-07
-1.48008e-07
-1.47792e-07
-1.47177e-07
-1.45757e-07
-1.44283e-07
-1.42657e-07
-1.40387e-07
-1.38326e-07
-1.35966e-07
-1.33298e-07
-1.30824e-07
-1.28001e-07
-1.25159e-07
-1.22368e-07
-1.19336e-07
-1.16364e-07
-1.13375e-07
-1.10236e-07
-1.07199e-07
-1.04089e-07
-1.00952e-07
-9.7884e-08
-9.47291e-08
-9.16518e-08
-8.85619e-08
-8.54738e-08
-8.24428e-08
-7.93931e-08
-7.64199e-08
-7.34442e-08
-7.05346e-08
-6.76425e-08
-6.48172e-08
-6.20146e-08
-5.95813e-08
-5.73802e-08
-5.52843e-08
-5.32726e-08
-5.12978e-08
-4.94033e-08
-4.75796e-08
-4.58019e-08
-4.4099e-08
-4.24412e-08
-4.0843e-08
-3.92931e-08
-3.77901e-08
-3.63338e-08
-3.49152e-08
-3.35385e-08
-3.21944e-08
-3.08819e-08
-2.96015e-08
-2.83387e-08
-2.71067e-08
-2.58858e-08
-2.46829e-08
-2.34949e-08
-2.23053e-08
-2.11376e-08
-1.9956e-08
-1.87962e-08
-1.76188e-08
-1.64594e-08
-1.52855e-08
-1.41346e-08
-1.29646e-08
-1.18593e-08
-1.06954e-08
-9.71536e-09
-8.54832e-09
-7.86947e-09
-6.62931e-09
-6.65739e-09
-5.06996e-09
-6.81635e-09
-3.97622e-09
-9.94505e-09
-3.14745e-09
-2.04045e-08
-1.9061e-09
-5.37508e-08
3.86502e-09
-2.45308e-07
3.06034e-08
2.51858e-07
8.07327e-08
1.42725e-07
4.42314e-08
-5.76363e-08
-1.4203e-09
-8.93793e-08
-6.9358e-08
-1.10406e-07
-1.09087e-07
-1.27088e-07
-1.30764e-07
-1.38626e-07
-1.41331e-07
-1.45465e-07
-1.46042e-07
-1.48067e-07
-1.47717e-07
-1.47536e-07
-1.46955e-07
-1.45566e-07
-1.44114e-07
-1.4251e-07
-1.40261e-07
-1.38214e-07
-1.35869e-07
-1.33213e-07
-1.30749e-07
-1.27936e-07
-1.25102e-07
-1.22318e-07
-1.19293e-07
-1.16326e-07
-1.13342e-07
-1.10208e-07
-1.07175e-07
-1.04068e-07
-1.00935e-07
-9.78691e-08
-9.4717e-08
-9.16417e-08
-8.8554e-08
-8.54677e-08
-8.24384e-08
-7.93902e-08
-7.64183e-08
-7.34438e-08
-7.05353e-08
-6.76441e-08
-6.48197e-08
-6.20177e-08
-5.95849e-08
-5.73845e-08
-5.5289e-08
-5.32776e-08
-5.13032e-08
-4.94087e-08
-4.75852e-08
-4.58076e-08
-4.41047e-08
-4.2447e-08
-4.08487e-08
-3.92989e-08
-3.77958e-08
-3.63395e-08
-3.49209e-08
-3.35442e-08
-3.22002e-08
-3.08877e-08
-2.96073e-08
-2.83447e-08
-2.71128e-08
-2.58921e-08
-2.46895e-08
-2.35019e-08
-2.23127e-08
-2.11456e-08
-1.99647e-08
-1.88056e-08
-1.76292e-08
-1.64709e-08
-1.52983e-08
-1.4149e-08
-1.29808e-08
-1.18778e-08
-1.07161e-08
-9.73932e-09
-8.57482e-09
-7.90111e-09
-6.66345e-09
-6.70052e-09
-5.11399e-09
-6.87824e-09
-4.03321e-09
-1.00426e-08
-3.22231e-09
-2.05883e-08
-2.00783e-09
-5.42097e-08
3.60912e-09
-2.41928e-07
3.35632e-08
2.50129e-07
7.97981e-08
1.40393e-07
4.47107e-08
-5.49593e-08
-7.67006e-10
-8.78098e-08
-6.84197e-08
-1.09173e-07
-1.08201e-07
-1.26165e-07
-1.30041e-07
-1.37952e-07
-1.40773e-07
-1.44968e-07
-1.45623e-07
-1.47698e-07
-1.47402e-07
-1.47259e-07
-1.46716e-07
-1.45359e-07
-1.43933e-07
-1.42351e-07
-1.40124e-07
-1.38092e-07
-1.35764e-07
-1.33121e-07
-1.30667e-07
-1.27866e-07
-1.2504e-07
-1.22263e-07
-1.19246e-07
-1.16285e-07
-1.13306e-07
-1.10177e-07
-1.07148e-07
-1.04046e-07
-1.00916e-07
-9.7853e-08
-9.47038e-08
-9.16308e-08
-8.85454e-08
-8.54611e-08
-8.24336e-08
-7.9387e-08
-7.64165e-08
-7.34433e-08
-7.05359e-08
-6.76457e-08
-6.48222e-08
-6.2021e-08
-5.95887e-08
-5.73891e-08
-5.52939e-08
-5.32828e-08
-5.13089e-08
-4.94146e-08
-4.75912e-08
-4.58137e-08
-4.41108e-08
-4.24532e-08
-4.08548e-08
-3.9305e-08
-3.7802e-08
-3.63456e-08
-3.49271e-08
-3.35503e-08
-3.22063e-08
-3.08939e-08
-2.96136e-08
-2.83511e-08
-2.71193e-08
-2.58989e-08
-2.46966e-08
-2.35093e-08
-2.23206e-08
-2.11541e-08
-1.99739e-08
-1.88157e-08
-1.76404e-08
-1.64833e-08
-1.53121e-08
-1.41646e-08
-1.29982e-08
-1.18976e-08
-1.07382e-08
-9.765e-09
-8.60323e-09
-7.93498e-09
-6.70001e-09
-6.74661e-09
-5.16113e-09
-6.94422e-09
-4.09417e-09
-1.01462e-08
-3.30222e-09
-2.07822e-08
-2.1157e-09
-5.46783e-08
3.32884e-09
-2.3835e-07
3.67174e-08
2.48133e-07
7.89318e-08
1.37973e-07
4.51847e-08
-5.21803e-08
-9.52068e-11
-8.61282e-08
-6.74351e-08
-1.07855e-07
-1.07259e-07
-1.25177e-07
-1.29268e-07
-1.37228e-07
-1.40174e-07
-1.44434e-07
-1.45172e-07
-1.473e-07
-1.47063e-07
-1.46962e-07
-1.46458e-07
-1.45137e-07
-1.43737e-07
-1.4218e-07
-1.39977e-07
-1.37961e-07
-1.3565e-07
-1.33022e-07