/*--------------------------------*- C++ -*----------------------------------*\
| =========                 |                                                 |
| \\      /  F ield         | OpenFOAM: The Open Source CFD Toolbox           |
|  \\    /   O peration     | Version:  5.x                                   |
|   \\  /    A nd           | Web:      www.OpenFOAM.org                      |
|    \\/     M anipulation  |                                                 |
\*---------------------------------------------------------------------------*/
FoamFile
{
    version     2.0;
    format      ascii;
    class       surfaceScalarField;
    location    "3000";
    object      phi;
}
// * * * * * * * * * * * * * * * * * * * * * * * * * * * * * * * * * * * * * //

dimensions      [0 3 -1 0 0 0 0];

internalField   nonuniform List<scalar> 
215247
(
1.69119e-11
1.1814e-12
-1.8476e-11
1.6341e-11
5.70909e-13
1.94562e-11
-3.11524e-12
2.25739e-11
-3.11768e-12
2.18855e-11
6.88454e-13
1.80814e-11
3.80409e-12
1.69611e-11
1.12025e-12
1.56995e-11
1.26157e-12
1.42549e-11
1.44462e-12
1.29933e-11
1.26159e-12
1.17847e-11
1.20861e-12
1.07685e-11
1.01624e-12
9.78725e-12
9.8123e-13
8.99503e-12
7.92223e-13
8.22998e-12
7.65045e-13
7.57235e-12
6.57629e-13
6.98018e-12
5.92169e-13
6.42007e-12
5.60112e-13
5.94707e-12
4.72998e-13
5.49919e-12
4.47882e-13
5.08223e-12
4.16957e-13
4.71793e-12
3.64296e-13
4.36856e-12
3.49375e-13
4.04894e-12
3.19613e-13
3.75999e-12
2.88959e-13
3.48175e-12
2.78232e-13
3.23041e-12
2.51347e-13
2.99672e-12
2.33689e-13
2.77136e-12
2.25359e-13
2.5706e-12
2.00757e-13
2.37917e-12
1.91433e-13
2.19676e-12
1.82408e-13
2.03144e-12
1.65316e-13
1.87286e-12
1.58577e-13
1.7245e-12
1.48358e-13
1.58741e-12
1.37093e-13
1.45562e-12
1.31783e-13
1.33428e-12
1.21342e-13
1.21966e-12
1.14619e-13
1.11058e-12
1.09089e-13
1.01015e-12
1.00426e-13
9.14172e-13
9.59753e-14
8.2463e-13
8.95421e-14
7.40559e-13
8.40686e-14
6.6082e-13
7.97404e-14
5.87033e-13
7.37835e-14
5.16912e-13
7.01224e-14
4.51677e-13
6.52324e-14
3.90291e-13
6.13874e-14
3.32734e-13
5.75566e-14
2.79016e-13
5.37179e-14
2.28326e-13
5.06882e-14
1.89485e-13
3.8841e-14
1.54025e-13
3.54584e-14
1.21739e-13
3.22862e-14
9.15335e-14
3.02044e-14
6.39541e-14
2.75793e-14
3.86543e-14
2.52985e-14
1.49805e-14
2.36738e-14
-7.03832e-15
2.20174e-14
-2.76266e-14
2.05878e-14
-4.69331e-14
1.93055e-14
-6.50468e-14
1.81135e-14
-8.21207e-14
1.70727e-14
-9.81921e-14
1.60711e-14
-1.13413e-13
1.52202e-14
-1.27786e-13
1.43722e-14
-1.41384e-13
1.35973e-14
-1.54248e-13
1.28642e-14
-1.66345e-13
1.20958e-14
-1.77761e-13
1.1415e-14
-1.88361e-13
1.05995e-14
-1.98141e-13
9.77928e-15
-2.06996e-13
8.85307e-15
-2.14759e-13
7.76372e-15
-2.21331e-13
6.57043e-15
-2.26395e-13
5.06344e-15
-2.29738e-13
3.34025e-15
-2.30948e-13
1.21197e-15
-2.29659e-13
-1.29219e-15
-2.25247e-13
-4.41081e-15
-2.17239e-13
-8.01029e-15
-2.0466e-13
-1.25778e-14
-1.86857e-13
-1.78063e-14
-1.62514e-13
-2.43418e-14
-1.30525e-13
-3.1991e-14
-8.92396e-14
-4.12843e-14
-3.67206e-14
-5.2522e-14
2.90982e-14
-6.58172e-14
1.11687e-13
-8.2593e-14
2.13675e-13
-1.01985e-13
3.44337e-13
-1.30672e-13
4.98967e-13
-1.5462e-13
7.10643e-13
-2.11677e-13
9.50868e-13
-2.40223e-13
1.30941e-12
-3.58537e-13
1.71932e-12
-4.09651e-13
2.44853e-12
-7.29473e-13
3.28591e-12
-8.37354e-13
5.67145e-12
-2.38558e-12
8.61113e-12
-2.93973e-12
-1.87123e-09
1.87984e-09
5.60451e-11
5.61875e-12
-6.04825e-11
5.39634e-11
2.65262e-12
6.43175e-11
-1.34694e-11
7.43115e-11
-1.31117e-11
7.21182e-11
2.88183e-12
5.98812e-11
1.6041e-11
5.6032e-11
4.96944e-12
5.19518e-11
5.34174e-12
4.71458e-11
6.25064e-12
4.30128e-11
5.3946e-12
3.9007e-11
5.2144e-12
3.56568e-11
4.36645e-12
3.24091e-11
4.22894e-12
2.97902e-11
3.41106e-12
2.72577e-11
3.2976e-12
2.50823e-11
2.833e-12
2.31207e-11
2.55376e-12
2.12672e-11
2.41359e-12
1.97004e-11
2.03981e-12
1.82173e-11
1.93105e-12
1.68367e-11
1.79756e-12
1.56298e-11
1.57113e-12
1.44727e-11
1.50653e-12
1.34142e-11
1.37804e-12
1.24568e-11
1.24635e-12
1.15353e-11
1.19974e-12
1.07029e-11
1.08384e-12
9.92859e-12
1.00795e-12
9.18223e-12
9.71716e-13
8.51715e-12
8.65835e-13
7.88298e-12
8.25608e-13
7.27886e-12
7.86529e-13
6.73116e-12
7.1301e-13
6.20587e-12
6.83869e-13
5.71443e-12
6.39787e-13
5.26026e-12
5.91271e-13
4.82373e-12
5.68303e-13
4.42179e-12
5.23289e-13
4.04206e-12
4.94347e-13
3.68071e-12
4.70435e-13
3.348e-12
4.33138e-13
3.03007e-12
4.13898e-13
2.73345e-12
3.86163e-13
2.45493e-12
3.62586e-13
2.19078e-12
3.43889e-13
1.94633e-12
3.1823e-13
1.71404e-12
3.02414e-13
1.49792e-12
2.81352e-13
1.29456e-12
2.64751e-13
1.10387e-12
2.48243e-13
9.25904e-13
2.31682e-13
7.57963e-13
2.18626e-13
6.29301e-13
1.67502e-13
5.11799e-13
1.52958e-13
4.04819e-13
1.39267e-13
3.04744e-13
1.30277e-13
2.13352e-13
1.18971e-13
1.29515e-13
1.09134e-13
5.10738e-14
1.02115e-13
-2.18908e-14
9.498e-14
-9.01078e-14
8.88041e-14
-1.54082e-13
8.32777e-14
-2.14101e-13
7.81319e-14
-2.70673e-13
7.36431e-14
-3.23924e-13
6.93216e-14
-3.74355e-13
6.56491e-14
-4.21974e-13
6.19909e-14
-4.67027e-13
5.86484e-14
-5.09647e-13
5.54839e-14
-5.49723e-13
5.21711e-14
-5.8754e-13
4.92311e-14
-6.22661e-13
4.5718e-14
-6.55056e-13
4.21739e-14
-6.84393e-13
3.81865e-14
-7.10113e-13
3.34852e-14
-7.31887e-13
2.83417e-14
-7.48673e-13
2.18484e-14
-7.59756e-13
1.44192e-14
-7.63789e-13
5.24715e-15
-7.59541e-13
-5.54373e-15
-7.44969e-13
-1.89805e-14
-7.18494e-13
-3.44896e-14
-6.76901e-13
-5.41688e-14
-6.18015e-13
-7.66963e-14
-5.37513e-13
-1.04842e-13
-4.31693e-13
-1.37815e-13
-2.95173e-13
-1.77803e-13
-1.2141e-13
-2.26288e-13
9.61856e-14
-2.83411e-13
3.69491e-13
-3.55904e-13
7.06518e-13
-4.39007e-13
1.13905e-12
-5.6322e-13
1.64963e-12
-6.65182e-13
2.35074e-12
-9.12793e-13
3.14285e-12
-1.03233e-12
4.33141e-12
-1.54708e-12
5.68006e-12
-1.75797e-12
8.09849e-12
-3.14824e-12
1.0843e-11
-3.58186e-12
1.87218e-11
-1.02644e-11
2.63812e-11
-1.05992e-11
-3.87006e-09
2.02521e-09
1.0406e-10
1.31713e-11
-1.11612e-10
1.00164e-10
6.54821e-12
1.19319e-10
-3.2624e-11
1.37512e-10
-3.13044e-11
1.33561e-10
6.83215e-12
1.11266e-10
3.83359e-11
1.03988e-10
1.22482e-11
9.64836e-11
1.28458e-11
8.75588e-11
1.51754e-11
7.99182e-11
1.30352e-11
7.24808e-11
1.26518e-11
6.6268e-11
1.05792e-11
6.02374e-11
1.02596e-11
5.53741e-11
8.27441e-12
5.06692e-11
8.00245e-12
4.66279e-11
6.87428e-12
4.29818e-11
6.19994e-12
3.95379e-11
5.85743e-12
3.66252e-11
4.95253e-12
3.38683e-11
4.6879e-12
3.13023e-11
4.3636e-12
2.90586e-11
3.81486e-12
2.69075e-11
3.65758e-12
2.49401e-11
3.34543e-12
2.31601e-11
3.02642e-12
2.14471e-11
2.9127e-12
1.98996e-11
2.63139e-12
1.846e-11
2.44748e-12
1.70727e-11
2.35907e-12
1.58362e-11
2.10229e-12
1.46572e-11
2.00461e-12
1.35342e-11
1.90954e-12
1.2516e-11
1.73123e-12
1.15394e-11
1.66042e-12
1.06259e-11
1.55329e-12
9.78154e-12
1.43567e-12
8.97006e-12
1.37978e-12
8.22284e-12
1.27051e-12
7.5169e-12
1.20029e-12
6.84518e-12
1.14215e-12
6.22665e-12
1.05167e-12
5.6356e-12
1.00494e-12
5.08418e-12
9.37587e-13
4.56639e-12
8.80374e-13
4.07533e-12
8.34946e-13
3.62088e-12
7.72677e-13
3.18903e-12
7.34265e-13
2.78724e-12
6.83145e-13
2.40916e-12
6.42827e-13
2.05464e-12
6.0276e-13
1.72378e-12
5.62546e-13
1.41155e-12
5.30854e-13
1.17237e-12
4.06681e-13
9.53889e-13
3.71439e-13
7.54969e-13
3.38188e-13
5.6891e-13
3.16335e-13
3.98968e-13
2.88912e-13
2.43075e-13
2.65026e-13
9.72257e-14
2.47964e-13
-3.84472e-14
2.30651e-13
-1.65285e-13
2.15641e-13
-2.84237e-13
2.02228e-13
-3.95831e-13
1.89725e-13
-5.01015e-13
1.78827e-13
-6.00025e-13
1.6833e-13
-6.93787e-13
1.5941e-13
-7.8232e-13
1.50524e-13
-8.66079e-13
1.42406e-13
-9.45316e-13
1.34721e-13
-1.01982e-12
1.26677e-13
-1.09013e-12
1.19534e-13
-1.15542e-12
1.11005e-13
-1.21564e-12
1.02398e-13
-1.27018e-12
9.27246e-14
-1.318e-12
8.13046e-14
-1.35848e-12
6.88239e-14
-1.38971e-12
5.30702e-14
-1.41033e-12
3.5039e-14
-1.41786e-12
1.27842e-14
-1.41001e-12
-1.33975e-14
-1.383e-12
-4.59947e-14
-1.33387e-12
-8.36184e-14
-1.25668e-12
-1.31357e-13
-1.14738e-12
-1.86005e-13
-9.97952e-13
-2.54266e-13
-8.01503e-13
-3.34266e-13
-5.48097e-13
-4.31208e-13
-2.25499e-13
-5.4889e-13
1.78361e-13
-6.8727e-13
6.85794e-13
-8.63342e-13
1.3112e-12
-1.06441e-12
2.11431e-12
-1.36635e-12
3.06142e-12
-1.61227e-12
4.36339e-12
-2.21477e-12
5.8318e-12
-2.50074e-12
8.03929e-12
-3.75458e-12
1.05366e-11
-4.25505e-12
1.50275e-11
-7.63933e-12
2.00972e-11
-8.65159e-12
3.46792e-11
-2.48464e-11
4.82005e-11
-2.41205e-11
-6.00353e-09
2.18167e-09
1.62424e-10
2.4293e-11
-1.73545e-10
1.56549e-10
1.24235e-11
1.86213e-10
-6.2288e-11
2.14173e-10
-5.92653e-11
2.08188e-10
1.2818e-11
1.73936e-10
7.25876e-11
1.6245e-10
2.37338e-11
1.50772e-10
2.45244e-11
1.36866e-10
2.90815e-11
1.24956e-10
2.49454e-11
1.13349e-10
2.42587e-11
1.03646e-10
2.02823e-11
9.42255e-11
1.96796e-11
8.66226e-11
1.58773e-11
7.92683e-11
1.53567e-11
7.29489e-11
1.31937e-11
6.7246e-11
1.19028e-11
6.18602e-11
1.12433e-11
5.73035e-11
9.50919e-12
5.29909e-11
9.00049e-12
4.8977e-11
8.37746e-12
4.54664e-11
7.32549e-12
4.21013e-11
7.02268e-12
3.90235e-11
6.42317e-12
3.62383e-11
5.81168e-12
3.35585e-11
5.59249e-12
3.11374e-11
5.05249e-12
2.8885e-11
4.69983e-12
2.67146e-11
4.52945e-12
2.47801e-11
4.03683e-12
2.29355e-11
3.84923e-12
2.11787e-11
3.66632e-12
1.95856e-11
3.32433e-12
1.80578e-11
3.18823e-12
1.66286e-11
2.98243e-12
1.53075e-11
2.75676e-12
1.4038e-11
2.64931e-12
1.2869e-11
2.43952e-12
1.17645e-11
2.30479e-12
1.07136e-11
2.19304e-12
9.74588e-12
2.01938e-12
8.82119e-12
1.92963e-12
7.9585e-12
1.80028e-12
7.1484e-12
1.69047e-12
6.38013e-12
1.60322e-12
5.6691e-12
1.4837e-12
4.99347e-12
1.40991e-12
4.36482e-12
1.31178e-12
3.7733e-12
1.23435e-12
3.21862e-12
1.15744e-12
2.70095e-12
1.08021e-12
2.21243e-12
1.01937e-12
1.83823e-12
7.80878e-13
1.49635e-12
7.13314e-13
1.18508e-12
6.49468e-13
8.93951e-13
6.07457e-13
6.28011e-13
5.54852e-13
3.84056e-13
5.08978e-13
1.55833e-13
4.76187e-13
-5.6474e-14
4.42956e-13
-2.54947e-13
4.14113e-13
-4.41081e-13
3.8836e-13
-6.157e-13
3.64344e-13
-7.80287e-13
3.43411e-13
-9.35208e-13
3.23251e-13
-1.08192e-12
3.06116e-13
-1.22044e-12
2.89047e-13
-1.35149e-12
2.73457e-13
-1.47546e-12
2.58691e-13
-1.59204e-12
2.4325e-13
-1.70202e-12
2.2952e-13
-1.80417e-12
2.13151e-13
-1.89839e-12
1.96618e-13
-1.98373e-12
1.78054e-13
-2.05855e-12
1.56125e-13
-2.1219e-12
1.32172e-13
-2.17077e-12
1.01942e-13
-2.20307e-12
6.73346e-14
-2.21492e-12
2.46369e-14
-2.20272e-12
-2.56023e-14
-2.16057e-12
-8.81369e-14
-2.08388e-12
-1.60318e-13
-1.96334e-12
-2.51898e-13
-1.79261e-12
-3.56733e-13
-1.55921e-12
-4.87664e-13
-1.25235e-12
-6.41135e-13
-8.56518e-13
-8.27037e-13
-3.52586e-13
-1.05283e-12
2.78237e-13
-1.31809e-12
1.07088e-12
-1.65599e-12
2.04765e-12
-2.04117e-12
3.30211e-12
-2.62082e-12
4.78104e-12
-3.09119e-12
6.81451e-12
-4.24824e-12
9.10673e-12
-4.79295e-12
1.25539e-11
-7.20175e-12
1.64496e-11
-8.15047e-12
2.34585e-11
-1.46485e-11
3.13512e-11
-1.65442e-11
5.4028e-11
-4.75233e-11
7.4615e-11
-4.47077e-11
-8.27888e-09
2.34996e-09
2.32928e-10
3.94595e-11
-2.48094e-10
2.24937e-10
2.04139e-11
2.67065e-10
-1.04416e-10
3.06584e-10
-9.8784e-11
2.98261e-10
2.11404e-11
2.49897e-10
1.20952e-10
2.33287e-10
4.03437e-11
2.16551e-10
4.12609e-11
1.96658e-10
4.89738e-11
1.79583e-10
4.20204e-11
1.62942e-10
4.09e-11
1.49009e-10
3.4215e-11
1.35487e-10
3.32024e-11
1.2456e-10
2.68035e-11
1.13994e-10
2.59228e-11
1.0491e-10
2.22777e-11
9.67116e-11
2.01015e-11
8.89688e-11
1.89861e-11
8.24163e-11
1.60617e-11
7.62148e-11
1.52019e-11
7.04433e-11
1.4149e-11
6.5394e-11
1.23747e-11
6.05548e-11
1.18619e-11
5.61289e-11
1.08492e-11
5.21228e-11
9.81777e-12
4.8269e-11
9.44624e-12
4.47872e-11
8.53435e-12
4.15476e-11
7.93938e-12
3.84265e-11
7.65058e-12
3.56442e-11
6.8191e-12
3.29912e-11
6.50223e-12
3.04649e-11
6.19268e-12
2.81736e-11
5.6156e-12
2.59764e-11
5.38539e-12
2.39212e-11
5.0377e-12
2.20211e-11
4.65684e-12
2.01954e-11
4.47502e-12
1.85142e-11
4.12072e-12
1.69257e-11
3.89326e-12
1.54144e-11
3.7043e-12
1.40227e-11
3.41116e-12
1.26928e-11
3.25946e-12
1.14521e-11
3.04098e-12
1.0287e-11
2.85555e-12
9.18215e-12
2.70811e-12
8.15954e-12
2.50631e-12
7.18784e-12
2.3816e-12
6.28372e-12
2.2159e-12
5.43297e-12
2.0851e-12
4.6352e-12
1.95521e-12
3.89065e-12
1.82477e-12
3.18805e-12
1.72197e-12
2.64988e-12
1.31905e-12
2.15811e-12
1.20508e-12
1.71035e-12
1.09723e-12
1.29161e-12
1.02619e-12
9.0905e-13
9.37414e-13
5.58115e-13
8.59912e-13
2.29828e-13
8.04473e-13
-7.55706e-14
7.48353e-13
-3.6106e-13
6.99602e-13
-6.28802e-13
6.56102e-13
-8.79977e-13
6.15518e-13
-1.11672e-12
5.80148e-13
-1.33955e-12
5.46083e-13
-1.55056e-12
5.17128e-13
-1.7498e-12
4.88289e-13
-1.93829e-12
4.61939e-13
-2.11659e-12
4.36994e-13
-2.28424e-12
4.109e-13
-2.44243e-12
3.87703e-13
-2.58933e-12
3.60057e-13
-2.72483e-12
3.32118e-13
-2.84756e-12
3.00781e-13
-2.95518e-12
2.63738e-13
-3.04631e-12
2.233e-13
-3.11663e-12
1.7227e-13
-3.16314e-12
1.13844e-13
-3.18028e-12
4.17772e-14
-3.16287e-12
-4.30221e-14
-3.10245e-12
-1.48554e-13
-2.9924e-12
-2.70368e-13
-2.81938e-12
-4.24915e-13
-2.57431e-12
-6.01811e-13
-2.23923e-12
-8.22744e-13
-1.79867e-12
-1.0817e-12
-1.23036e-12
-1.39534e-12
-5.06863e-13
-1.77633e-12
3.98811e-13
-2.22376e-12
1.53677e-12
-2.79396e-12
2.93902e-12
-3.44342e-12
4.73977e-12
-4.42157e-12
6.86264e-12
-5.21406e-12
9.78115e-12
-7.16675e-12
1.30707e-11
-8.08246e-12
1.80167e-11
-1.21478e-11
2.36042e-11
-1.37378e-11
3.36532e-11
-2.46977e-11
4.49517e-11
-2.78427e-11
7.73392e-11
-7.99109e-11
1.06389e-10
-7.37573e-11
-1.07034e-08
2.53093e-09
3.17645e-10
5.91603e-11
-3.37345e-10
3.07452e-10
3.06068e-11
3.6427e-10
-1.61234e-10
4.17379e-10
-1.51893e-10
4.06399e-10
3.21208e-11
3.41486e-10
1.85864e-10
3.18672e-10
6.31581e-11
2.9584e-10
6.40932e-11
2.68793e-10
7.60203e-11
2.45504e-10
6.53094e-11
2.22817e-10
6.35876e-11
2.03785e-10
5.32461e-11
1.85322e-10
5.16656e-11
1.70385e-10
4.17404e-11
1.55946e-10
4.03622e-11
1.43524e-10
3.46994e-11
1.32312e-10
3.13134e-11
1.21723e-10
2.95751e-11
1.1276e-10
2.50251e-11
1.04277e-10
2.36849e-11
9.63826e-11
2.20436e-11
8.94742e-11
1.92831e-11
8.28542e-11
1.84819e-11
7.67995e-11
1.69039e-11
7.13182e-11
1.52991e-11
6.60463e-11
1.47182e-11
6.12828e-11
1.32978e-11
5.68505e-11
1.23717e-11
5.25808e-11
1.19203e-11
4.87742e-11
1.06257e-11
4.51446e-11
1.01319e-11
4.16884e-11
9.64881e-12
3.85537e-11
8.75033e-12
3.55477e-11
8.39136e-12
3.27361e-11
7.84932e-12
3.01365e-11
7.25646e-12
2.76388e-11
6.97272e-12
2.53387e-11
6.42075e-12
2.31655e-11
6.06647e-12
2.1098e-11
5.77182e-12
1.91939e-11
5.31525e-12
1.73746e-11
5.07878e-12
1.56772e-11
4.73838e-12
1.40832e-11
4.44954e-12
1.25716e-11
4.21971e-12
1.11725e-11
3.90537e-12
9.84313e-12
3.71102e-12
8.60615e-12
3.45288e-12
7.44217e-12
3.24907e-12
6.35068e-12
3.0467e-12
5.33198e-12
2.84346e-12
4.3707e-12
2.68325e-12
3.63442e-12
2.05532e-12
2.9615e-12
1.878e-12
2.34876e-12
1.70997e-12
1.77581e-12
1.59914e-12
1.25229e-12
1.46094e-12
7.72044e-13
1.34015e-12
3.2282e-13
1.2537e-12
-9.50937e-14
1.16626e-12
-4.85752e-13
1.09026e-12
-8.52123e-13
1.02247e-12
-1.19582e-12
9.59212e-13
-1.51975e-12
9.0408e-13
-1.82466e-12
8.50991e-13
-2.11338e-12
8.05845e-13
-2.38599e-12
7.60899e-13
-2.64387e-12
7.1982e-13
-2.88783e-12
6.80945e-13
-3.1172e-12
6.40272e-13
-3.33361e-12
6.0411e-13
-3.5346e-12
5.61043e-13
-3.71997e-12
5.17495e-13
-3.88789e-12
4.6869e-13
-4.03513e-12
4.1098e-13
-4.15984e-12
3.48003e-13
-4.25611e-12
2.68543e-13
-4.31983e-12
1.77561e-13
-4.34342e-12
6.53682e-14
-4.31979e-12
-6.66559e-14
-4.23741e-12
-2.30929e-13
-4.08724e-12
-4.20547e-13
-3.85105e-12
-6.61107e-13
-3.51643e-12
-9.36429e-13
-3.05888e-12
-1.28029e-12
-2.45728e-12
-1.6833e-12
-1.68121e-12
-2.17141e-12
-6.93248e-13
-2.7643e-12
5.43525e-13
-3.46054e-12
2.09735e-12
-4.34778e-12
4.01213e-12
-5.35819e-12
6.47061e-12
-6.88007e-12
9.36909e-12
-8.11253e-12
1.33527e-11
-1.11504e-11
1.78432e-11
-1.25729e-11
2.45917e-11
-1.88963e-11
3.22152e-11
-2.1361e-11
4.59148e-11
-3.83976e-11
6.12999e-11
-4.32277e-11
1.0527e-10
-1.23881e-10
1.44412e-10
-1.129e-10
-1.32845e-08
2.72551e-09
4.18971e-10
8.38856e-11
-4.43696e-10
4.06559e-10
4.30188e-11
4.80596e-10
-2.35271e-10
5.49595e-10
-2.20892e-10
5.35619e-10
4.60966e-11
4.51419e-10
2.70064e-10
4.21132e-10
9.3445e-11
3.90987e-10
9.42376e-11
3.55433e-10
1.11575e-10
3.24702e-10
9.60397e-11
2.94787e-10
9.3503e-11
2.69638e-10
7.83952e-11
2.45253e-10
7.60506e-11
2.25497e-10
6.14959e-11
2.06407e-10
5.94522e-11
1.89974e-10
5.11331e-11
1.7514e-10
4.61473e-11
1.61129e-10
4.35857e-11
1.49266e-10
3.68879e-11
1.38039e-10
3.49118e-11
1.27592e-10
3.24912e-11
1.18447e-10
2.84281e-11
1.09685e-10
2.72438e-11
1.01671e-10
2.49177e-11
9.4415e-11
2.25552e-11
8.7437e-11
2.16962e-11
8.11319e-11
1.96029e-11
7.52645e-11
1.82391e-11
6.96132e-11
1.75716e-11
6.45743e-11
1.56646e-11
5.97698e-11
1.49364e-11
5.51953e-11
1.42233e-11
5.10458e-11
1.28999e-11
4.7067e-11
1.23702e-11
4.33454e-11
1.15709e-11
3.99042e-11
1.06976e-11
3.65982e-11
1.02787e-11
3.35538e-11
9.46514e-12
3.06771e-11
8.94314e-12
2.79405e-11
8.5084e-12
2.54201e-11
7.83572e-12
2.30119e-11
7.48697e-12
2.07651e-11
6.98514e-12
1.86551e-11
6.55952e-12
1.66543e-11
6.22058e-12
1.48023e-11
5.75733e-12
1.30425e-11
5.47081e-12
1.14051e-11
5.09029e-12
9.86429e-12
4.78989e-12
8.41941e-12
4.49158e-12
7.07087e-12
4.19201e-12
5.79836e-12
3.95575e-12
4.82375e-12
3.02994e-12
3.93284e-12
2.76891e-12
3.12157e-12
2.52123e-12
2.36306e-12
2.35766e-12
1.66988e-12
2.15411e-12
1.03401e-12
1.97602e-12
4.39251e-13
1.84846e-12
-1.1407e-13
1.71958e-12
-6.31286e-13
1.60747e-12
-1.11635e-12
1.50753e-12
-1.57138e-12
1.41424e-12
-2.00024e-12
1.33294e-12
-2.4039e-12
1.25465e-12
-2.78613e-12
1.18807e-12
-3.14702e-12
1.12178e-12
-3.48839e-12
1.0612e-12
-3.81133e-12
1.00388e-12
-4.11496e-12
9.439e-13
-4.40141e-12
8.90565e-13
-4.66746e-12
8.27086e-13
-4.91284e-12
7.62873e-13
-5.13511e-12
6.90965e-13
-5.33004e-12
6.05903e-13
-5.49515e-12
5.13118e-13
-5.62268e-12
3.96067e-13
-5.70715e-12
2.62035e-13
-5.73858e-12
9.6798e-14
-5.70759e-12
-9.76532e-14
-5.59896e-12
-3.39556e-13
-5.40072e-12
-6.18787e-13
-5.08882e-12
-9.73012e-13
-4.64687e-12
-1.37838e-12
-4.04247e-12
-1.88469e-12
-3.24779e-12
-2.47799e-12
-2.22257e-12
-3.19663e-12
-9.17501e-13
-4.06936e-12
7.16329e-13
-5.09437e-12
2.76872e-12
-6.40018e-12
5.29809e-12
-7.88756e-12
8.5449e-12
-1.01269e-11
1.23733e-11
-1.1941e-11
1.76329e-11
-1.641e-11
2.35631e-11
-1.85031e-11
3.24693e-11
-2.78025e-11
4.25316e-11
-3.14232e-11
6.05942e-11
-5.64604e-11
8.08594e-11
-6.34929e-11
1.38573e-10
-1.81595e-10
1.89699e-10
-1.64026e-10
-1.60295e-08
2.93468e-09
5.39673e-10
1.1411e-10
-5.69898e-10
5.25125e-10
5.7567e-11
6.19242e-10
-3.29389e-10
7.06723e-10
-3.08373e-10
6.89403e-10
6.34164e-11
5.82847e-10
3.7662e-10
5.43605e-10
1.32688e-10
5.04725e-10
1.33117e-10
4.59095e-10
1.57205e-10
4.1949e-10
1.35645e-10
3.8097e-10
1.32023e-10
3.48509e-10
1.10857e-10
3.17053e-10
1.07506e-10
2.9153e-10
8.70187e-11
2.66878e-10
8.41043e-11
2.4564e-10
7.23708e-11
2.26469e-10
6.53184e-11
2.0836e-10
6.16946e-11
1.93024e-10
5.22244e-11
1.78509e-10
4.94266e-11
1.65002e-10
4.59976e-11
1.53177e-10
4.0254e-11
1.41848e-10
3.85723e-11
1.31487e-10
3.52791e-11
1.22103e-10
3.19388e-11
1.13081e-10
3.07185e-11
1.04928e-10
2.77556e-11
9.73404e-11
2.58266e-11
9.00333e-11
2.48786e-11
8.35175e-11
2.21804e-11
7.73046e-11
2.11493e-11
7.13901e-11
2.01378e-11
6.60242e-11
1.82658e-11
6.08794e-11
1.75149e-11
5.60674e-11
1.63829e-11
5.16176e-11
1.51474e-11
4.73429e-11
1.45534e-11
4.34063e-11
1.34017e-11
3.96865e-11
1.2663e-11
3.6148e-11
1.20469e-11
3.28888e-11
1.10949e-11
2.97749e-11
1.06009e-11
2.68697e-11
9.89035e-12
2.41413e-11
9.28791e-12
2.1554e-11
8.80788e-12
1.91592e-11
8.15212e-12
1.68836e-11
7.7464e-12
1.47662e-11
7.2077e-12
1.27737e-11
6.78239e-12
1.09052e-11
6.36003e-12
9.16132e-12
5.93593e-12
7.51577e-12
5.60129e-12
6.25549e-12
4.29022e-12
5.10322e-12
3.92118e-12
4.05391e-12
3.57054e-12
3.07294e-12
3.33862e-12
2.17634e-12
3.05071e-12
1.35385e-12
2.79851e-12
5.84593e-13
2.61772e-12
-1.31083e-13
2.43526e-12
-8.00039e-13
2.27643e-12
-1.4274e-12
2.13489e-12
-2.01592e-12
2.00276e-12
-2.57057e-12
1.88759e-12
-3.09264e-12
1.77671e-12
-3.58695e-12
1.68238e-12
-4.05366e-12
1.5885e-12
-4.49512e-12
1.50266e-12
-4.91273e-12
1.42148e-12
-5.30535e-12
1.33652e-12
-5.67576e-12
1.26097e-12
-6.01978e-12
1.1711e-12
-6.33708e-12
1.08017e-12
-6.62452e-12
9.78404e-13
-6.8766e-12
8.57984e-13
-7.09018e-12
7.26694e-13
-7.2552e-12
5.61084e-13
-7.36462e-12
3.71448e-13
-7.40555e-12
1.37729e-13
-7.36587e-12
-1.37335e-13
-7.22598e-12
-4.79447e-13
-6.97042e-12
-8.74351e-13
-6.56813e-12
-1.3753e-12
-5.99803e-12
-1.94849e-12
-5.21825e-12
-2.66447e-12
-4.19297e-12
-3.50327e-12
-2.87014e-12
-4.51946e-12
-1.18636e-12
-5.75315e-12
9.21755e-13
-7.20248e-12
3.56951e-12
-9.04794e-12
6.83297e-12
-1.1151e-11
1.10208e-11
-1.43148e-11
1.59599e-11
-1.688e-11
2.2742e-11
-2.31921e-11
3.03911e-11
-2.61522e-11
4.18697e-11
-3.92811e-11
5.48417e-11
-4.4395e-11
7.8097e-11
-7.97159e-11
1.04166e-10
-8.95617e-11
1.78114e-10
-2.55543e-10
2.43406e-10
-2.29318e-10
-1.89456e-08
3.15953e-09
6.82943e-10
1.5027e-10
-7.19103e-10
6.66477e-10
7.40331e-11
7.839e-10
-4.46812e-10
8.92772e-10
-4.17244e-10
8.71756e-10
8.4432e-11
7.39429e-10
5.08948e-10
6.895e-10
1.82617e-10
6.40223e-10
1.82394e-10
5.8271e-10
2.14718e-10
5.32559e-10
1.85795e-10
4.83833e-10
1.8075e-10
4.42662e-10
1.52027e-10
4.02793e-10
1.47375e-10
3.70391e-10
1.19421e-10
3.39109e-10
1.15387e-10
3.12138e-10
9.93422e-11
2.8779e-10
8.9666e-11
2.64789e-10
8.4696e-11
2.45304e-10
7.17096e-11
2.26862e-10
6.78679e-11
2.09703e-10
6.3157e-11
1.94674e-10
5.52828e-11
1.8028e-10
5.29667e-11
1.67114e-10
4.84449e-11
1.55188e-10
4.38644e-11
1.43724e-10
4.21828e-11
1.33364e-10
3.81154e-11
1.23722e-10
3.54693e-11
1.14437e-10
3.41634e-11
1.06156e-10
3.04609e-11
9.82611e-11
2.90445e-11
9.07457e-11
2.76532e-11
8.39266e-11
2.50848e-11
7.7389e-11
2.40526e-11
7.12743e-11
2.24976e-11
6.56193e-11
2.08024e-11
6.01874e-11
1.99854e-11
5.51851e-11
1.8404e-11
5.0458e-11
1.739e-11
4.59616e-11
1.65433e-11
4.18199e-11
1.52365e-11
3.78628e-11
1.4558e-11
3.4171e-11
1.35822e-11
3.07038e-11
1.27551e-11
2.74159e-11
1.20958e-11
2.43726e-11
1.11955e-11
2.14807e-11
1.06383e-11
1.87899e-11
9.89854e-12
1.62577e-11
9.31458e-12
1.38831e-11
8.73461e-12
1.16667e-11
8.15227e-12
9.57551e-12
7.69252e-12
7.97392e-12
5.89182e-12
6.50931e-12
5.38578e-12
5.17549e-12
4.90437e-12
3.92869e-12
4.58542e-12
2.78894e-12
4.19046e-12
1.7434e-12
3.84404e-12
7.65587e-13
3.59553e-12
-1.44134e-13
3.34498e-12
-9.9444e-13
3.12673e-12
-1.79187e-12
2.93232e-12
-2.53992e-12
2.75081e-12
-3.2449e-12
2.59257e-12
-3.90845e-12
2.44025e-12
-4.53671e-12
2.31064e-12
-5.12986e-12
2.18165e-12
-5.69091e-12
2.06372e-12
-6.22164e-12
1.95221e-12
-6.72059e-12
1.83548e-12
-7.1913e-12
1.73168e-12
-7.62848e-12
1.60828e-12
-8.03169e-12
1.48337e-12
-8.39699e-12
1.3437e-12
-8.71737e-12
1.17837e-12
-8.98888e-12
9.98197e-13
-9.19875e-12
7.70953e-13
-9.33805e-12
5.10746e-13
-9.39046e-12
1.90137e-13
-9.34059e-12
-1.87201e-13
-9.16361e-12
-6.56425e-13
-8.83992e-12
-1.19805e-12
-8.33013e-12
-1.88508e-12
-7.60754e-12
-2.67108e-12
-6.61903e-12
-3.65297e-12
-5.3193e-12
-4.80301e-12
-3.64221e-12
-6.19655e-12
-1.50769e-12
-7.88767e-12
1.16499e-12
-9.87516e-12
4.52124e-12
-1.24042e-11
8.65847e-12
-1.52882e-11
1.39659e-11
-1.96222e-11
2.02267e-11
-2.31408e-11
2.8819e-11
-3.17843e-11
3.85134e-11
-3.58465e-11
5.30478e-11
-5.38155e-11
6.94792e-11
-6.08263e-11
9.88915e-11
-1.09128e-10
1.31836e-10
-1.22507e-10
2.2488e-10
-3.48586e-10
3.06853e-10
-3.11292e-10
-2.204e-08
3.40119e-09
8.52459e-10
1.92735e-10
-8.94923e-10
8.34472e-10
9.20194e-11
9.78824e-10
-5.91163e-10
1.11234e-09
-5.50759e-10
1.08728e-09
1.09488e-10
9.25399e-10
6.70832e-10
8.62773e-10
2.45243e-10
8.01163e-10
2.44003e-10
7.29682e-10
2.86199e-10
6.67043e-10
2.48434e-10
6.06249e-10
2.41543e-10
5.54737e-10
2.03539e-10
5.04889e-10
1.97223e-10
4.64306e-10
1.60004e-10
4.25144e-10
1.54549e-10
3.9135e-10
1.33136e-10
3.60842e-10
1.20174e-10
3.32017e-10
1.13521e-10
3.07591e-10
9.61352e-11
2.84474e-10
9.09853e-11
2.62964e-10
8.46663e-11
2.4412e-10
7.41275e-11
2.26074e-10
7.10125e-11
2.09568e-10
6.49508e-11
1.94614e-10
5.88187e-11
1.8024e-10
5.6556e-11
1.67251e-10
5.11045e-11
1.5516e-10
4.75606e-11
1.4352e-10
4.58039e-11
1.33137e-10
4.08436e-11
1.23237e-10
3.89443e-11
1.13815e-10
3.70754e-11
1.05265e-10
3.36351e-11
9.70675e-11
3.22497e-11
8.94012e-11
3.01639e-11
8.23105e-11
2.78931e-11
7.55e-11
2.67959e-11
6.9228e-11
2.46761e-11
6.3301e-11
2.3317e-11
5.76634e-11
2.21808e-11
5.24704e-11
2.04296e-11
4.75089e-11
1.95195e-11
4.28799e-11
1.82111e-11
3.85325e-11
1.71026e-11
3.441e-11
1.62183e-11
3.05939e-11
1.50115e-11
2.69679e-11
1.42643e-11
2.35938e-11
1.32726e-11
2.04186e-11
1.24898e-11
1.7441e-11
1.17122e-11
1.46618e-11
1.09315e-11
1.20395e-11
1.03148e-11
1.00313e-11
7.90003e-12
8.19442e-12
7.22263e-12
6.5215e-12
6.57729e-12
4.95791e-12
6.14902e-12
3.52833e-12
5.62003e-12
2.21692e-12
5.15545e-12
9.90544e-13
4.8219e-12
-1.50458e-13
4.48598e-12
-1.2169e-12
4.19317e-12
-2.21703e-12
3.93245e-12
-3.15519e-12
3.68897e-12
-4.03933e-12
3.47671e-12
-4.87148e-12
3.2724e-12
-5.65934e-12
3.0985e-12
-6.40318e-12
2.92548e-12
-7.10672e-12
2.76726e-12
-7.77222e-12
2.6177e-12
-8.39786e-12
2.46111e-12
-8.98807e-12
2.32189e-12
-9.53624e-12
2.15645e-12
-1.00418e-11
1.98892e-12
-1.04999e-11
1.80177e-12
-1.09016e-11
1.58015e-12
-1.12422e-11
1.33875e-12
-1.15056e-11
1.03432e-12
-1.16806e-11
6.85751e-13
-1.17468e-11
2.56389e-13
-1.16851e-11
-2.48971e-13
-1.14642e-11
-8.77257e-13
-1.10598e-11
-1.60248e-12
-1.04225e-11
-2.52235e-12
-9.51908e-12
-3.57455e-12
-8.28291e-12
-4.88914e-12
-6.65753e-12
-6.42839e-12
-4.56005e-12
-8.29403e-12
-1.89071e-12
-1.0557e-11
1.45198e-12
-1.32179e-11
5.64873e-12
-1.66009e-11
1.08228e-11
-2.04623e-11
1.74579e-11
-2.62573e-11
2.52871e-11
-3.097e-11
3.60249e-11
-4.25222e-11
4.81454e-11
-4.7967e-11
6.62982e-11
-7.19683e-11
8.68294e-11
-8.13573e-11
1.23518e-10
-1.45817e-10
1.64583e-10
-1.63571e-10
2.79999e-10
-4.64003e-10
3.81548e-10
-4.1284e-10
-2.53193e-08
3.66089e-09
1.05245e-09
2.41769e-10
-1.10148e-09
1.03357e-09
1.10894e-10
1.20891e-09
-7.66498e-10
1.37069e-09
-7.1254e-10
1.34127e-09
1.3891e-10
1.14566e-09
8.66441e-10
1.06801e-09
3.22896e-10
9.91813e-10
3.20197e-10
9.03969e-10
3.74044e-10
8.26584e-10
3.25819e-10
7.51566e-10
3.16562e-10
6.8781e-10
2.67295e-10
6.26157e-10
2.58876e-10
5.75871e-10
2.1029e-10
5.27368e-10
2.03052e-10
4.85475e-10
1.75029e-10
4.47654e-10
1.57995e-10
4.11914e-10
1.49261e-10
3.8162e-10
1.26429e-10
3.52948e-10
1.19658e-10
3.26271e-10
1.11343e-10
3.02892e-10
9.7507e-11
2.80507e-10
9.3397e-11
2.60033e-10
8.54254e-11
2.41479e-10
7.73726e-11
2.23649e-10
7.43856e-11
2.07536e-10
6.72181e-11
1.92534e-10
6.25621e-11
1.78095e-10
6.02436e-11
1.65213e-10
5.37249e-11
1.52932e-10
5.1226e-11
1.41244e-10
4.87635e-11
1.30636e-10
4.42428e-11
1.20467e-10
4.24187e-11
1.10957e-10
3.96742e-11
1.02159e-10
3.66902e-11
9.37109e-11
3.52445e-11
8.59301e-11
3.24568e-11
7.8577e-11
3.067e-11
7.15834e-11
2.91744e-11
6.51409e-11
2.68722e-11
5.89857e-11
2.56747e-11
5.32432e-11
2.39536e-11
4.78496e-11
2.24961e-11
4.27352e-11
2.13328e-11
3.80009e-11
1.97458e-11
3.35022e-11
1.8763e-11
2.93161e-11
1.74587e-11
2.53767e-11
1.64292e-11
2.16824e-11
1.54065e-11
1.8234e-11
1.43798e-11
1.49806e-11
1.35682e-11
1.24891e-11
1.03915e-11
1.02097e-11
9.50203e-12
8.13357e-12
8.65341e-12
6.19338e-12
8.08921e-12
4.41918e-12
7.39423e-12
2.79162e-12
6.78301e-12
1.26971e-12
6.34381e-12
-1.46285e-13
5.90197e-12
-1.4697e-12
5.51659e-12
-2.71081e-12
5.17356e-12
-3.87502e-12
4.85318e-12
-4.97213e-12
4.57382e-12
-6.00473e-12
4.30499e-12
-6.98233e-12
4.0761e-12
-7.90527e-12
3.84842e-12
-8.77817e-12
3.64017e-12
-9.60387e-12
3.44339e-12
-1.03801e-11
3.23731e-12
-1.11123e-11
3.05411e-12
-1.17924e-11
2.83652e-12
-1.24196e-11
2.61611e-12
-1.29879e-11
2.37011e-12
-1.34864e-11
2.07868e-12
-1.39091e-11
1.76142e-12
-1.42361e-11
1.36138e-12
-1.44537e-11
9.03331e-13
-1.45366e-11
3.39306e-13
-1.4461e-11
-3.24587e-13
-1.41885e-11
-1.14978e-12
-1.36887e-11
-2.10227e-12
-1.29007e-11
-3.31036e-12
-1.17833e-11
-4.69197e-12
-1.02541e-11
-6.41835e-12
-8.24337e-12
-8.4391e-12
-5.64834e-12
-1.08891e-11
-2.34616e-12
-1.38592e-11
1.7895e-12
-1.73535e-11
6.98066e-12
-2.17921e-11
1.33818e-11
-2.68635e-11
2.15871e-11
-3.44626e-11
3.12719e-11
-4.06548e-11
4.45457e-11
-5.5796e-11
5.9536e-11
-6.29574e-11
8.19613e-11
-9.43936e-11
1.07337e-10
-1.06733e-10
1.52599e-10
-1.91079e-10
2.03222e-10
-2.14194e-10
3.4476e-10
-6.05541e-10
4.69201e-10
-5.37281e-10
-2.87901e-08
3.93997e-09
1.28778e-09
2.97487e-10
-1.3435e-09
1.26895e-09
1.29728e-10
1.47978e-09
-9.77335e-10
1.67385e-09
-9.06604e-10
1.63977e-09
1.72984e-10
1.40587e-09
1.10034e-09
1.31051e-09
4.18261e-10
1.21712e-09
4.13587e-10
1.11016e-09
4.81e-10
1.01542e-09
4.20564e-10
9.23677e-10
4.08302e-10
8.45461e-10
3.45511e-10
7.69879e-10
3.34458e-10
7.08111e-10
2.72058e-10
6.48562e-10
2.62601e-10
5.97079e-10
2.26512e-10
5.50596e-10
2.04478e-10
5.06664e-10
1.93193e-10
4.69415e-10
1.63678e-10
4.34158e-10
1.54915e-10
4.01357e-10
1.44143e-10
3.726e-10
1.26264e-10
3.45072e-10
1.20925e-10
3.19892e-10
1.10605e-10
2.97069e-10
1.00196e-10
2.75142e-10
9.63132e-11
2.55323e-10
8.70363e-11
2.36871e-10
8.10149e-11
2.19112e-10
7.80022e-11
2.03268e-10
6.95692e-11
1.88161e-10
6.63326e-11
1.73787e-10
6.31379e-11
1.60739e-10
5.72907e-11
1.48232e-10
5.49258e-11
1.36535e-10
5.13708e-11
1.25714e-10
4.75109e-11
1.15323e-10
4.56355e-11
1.05753e-10
4.20268e-11
9.6709e-11
3.97143e-11
8.81076e-11
3.77759e-11
8.01832e-11
3.47965e-11
7.26126e-11
3.32453e-11
6.55495e-11
3.10167e-11
5.89154e-11
2.91302e-11
5.26247e-11
2.76235e-11
4.68014e-11
2.55691e-11
4.12678e-11
2.42965e-11
3.61187e-11
2.26079e-11
3.12729e-11
2.1275e-11
2.67285e-11
1.99509e-11
2.24866e-11
1.86217e-11
1.84846e-11
1.75702e-11
1.54199e-11
1.34562e-11
1.26155e-11
1.23065e-11
1.0061e-11
1.12079e-11
7.67409e-12
1.04761e-11
5.49097e-12
9.57735e-12
3.48827e-12
8.78571e-12
1.61573e-12
8.21635e-12
-1.26545e-13
7.64424e-12
-1.75484e-12
7.14488e-12
-3.28186e-12
6.70057e-12
-4.71423e-12
6.28555e-12
-6.06401e-12
5.9236e-12
-7.33438e-12
5.57536e-12
-8.53705e-12
5.27876e-12
-9.67243e-12
4.98379e-12
-1.07462e-11
4.71395e-12
-1.17619e-11
4.45907e-12
-1.27167e-11
4.19208e-12
-1.36173e-11
3.95474e-12