/*--------------------------------*- C++ -*----------------------------------*\
| =========                 |                                                 |
| \\      /  F ield         | OpenFOAM: The Open Source CFD Toolbox           |
|  \\    /   O peration     | Version:  5.x                                   |
|   \\  /    A nd           | Web:      www.OpenFOAM.org                      |
|    \\/     M anipulation  |                                                 |
\*---------------------------------------------------------------------------*/
FoamFile
{
    version     2.0;
    format      ascii;
    class       surfaceScalarField;
    location    "3000";
    object      phi;
}
// * * * * * * * * * * * * * * * * * * * * * * * * * * * * * * * * * * * * * //

dimensions      [0 3 -1 0 0 0 0];

internalField   nonuniform List<scalar> 
215247
(
1.59694e-09
2.67661e-08
-1.87393e-09
1.59118e-09
6.08775e-12
1.9105e-09
-3.20066e-10
2.10189e-09
-1.90243e-10
1.80197e-09
2.99309e-10
1.30962e-09
4.9411e-10
1.16336e-09
1.4678e-10
9.97835e-10
1.66096e-10
8.24518e-10
1.73865e-10
6.89835e-10
1.35325e-10
5.65261e-10
1.24617e-10
4.67442e-10
9.93425e-11
3.77902e-10
9.00777e-11
3.09138e-10
7.02694e-11
2.46782e-10
6.2546e-11
1.95962e-10
5.21287e-11
1.53165e-10
4.34647e-11
1.1535e-10
3.85824e-11
8.57034e-11
3.03933e-11
5.97824e-11
2.67854e-11
3.78452e-11
2.27371e-11
2.0484e-11
1.82105e-11
5.56453e-12
1.54919e-11
-6.36135e-12
1.22763e-11
-1.57727e-11
1.11444e-11
-2.34439e-11
8.39748e-12
-2.91413e-11
7.5948e-12
-3.34236e-11
5.19557e-12
-3.65279e-11
3.91041e-12
-3.84771e-11
2.90393e-12
-3.96317e-11
2.18175e-12
-4.00553e-11
1.51333e-12
-3.99101e-11
9.35241e-13
-3.93228e-11
4.14304e-13
-3.83687e-11
2.16131e-13
-3.7172e-11
8.15869e-13
-3.57611e-11
-9.2357e-13
-3.42396e-11
6.76473e-13
-3.26336e-11
-3.71445e-13
-3.09571e-11
-4.165e-13
-2.93043e-11
-2.73038e-13
-2.76418e-11
-3.12771e-13
-2.60225e-11
-2.29061e-13
-2.44641e-11
-3.97099e-13
-2.29635e-11
1.26825e-12
-2.15536e-11
-7.05824e-13
-2.02121e-11
1.95629e-12
-1.89403e-11
-5.00939e-13
-1.77371e-11
2.2142e-12
-1.65844e-11
5.09725e-13
-1.54971e-11
5.96708e-13
-1.44468e-11
-1.3789e-13
-1.36286e-11
2.12543e-12
-1.28669e-11
3.54962e-13
-1.21931e-11
1.5644e-12
-1.15452e-11
5.46924e-13
-1.0974e-11
1.61483e-12
-1.0465e-11
4.80066e-13
-1.00102e-11
1.77948e-12
-9.59878e-12
8.62264e-13
-9.24166e-12
1.48987e-12
-8.91779e-12
7.10188e-13
-8.64933e-12
1.86542e-12
-8.409e-12
8.60538e-13
-8.21777e-12
1.74551e-12
-8.05392e-12
8.7765e-13
-7.93069e-12
1.87257e-12
-7.83319e-12
9.55109e-13
-7.76676e-12
1.83873e-12
-7.72265e-12
1.07426e-12
-7.709e-12
1.94612e-12
-7.70635e-12
1.65819e-12
-7.73137e-12
1.44503e-12
-7.76287e-12
1.13165e-12
-7.81032e-12
1.9093e-12
-7.86471e-12
1.32852e-12
-7.92702e-12
1.58464e-12
-7.98631e-12
8.92008e-13
-8.04003e-12
2.1702e-12
-8.09089e-12
1.15517e-12
-8.12533e-12
2.7824e-12
-8.14059e-12
9.72956e-13
-8.1278e-12
2.68795e-12
-8.08199e-12
1.16602e-12
-7.99289e-12
3.12818e-12
-7.84906e-12
7.43664e-13
-7.64068e-12
3.08733e-12
-7.34989e-12
7.12611e-13
-6.96687e-12
3.67134e-12
-6.46009e-12
-1.4427e-13
-5.81932e-12
3.4321e-12
-4.96568e-12
-9.81938e-13
-3.95184e-12
3.14e-12
-2.51767e-12
5.38346e-13
-9.09292e-13
5.16774e-13
1.58473e-12
-6.1253e-13
4.36547e-12
-2.49031e-12
9.64261e-12
-1.03514e-12
1.53871e-11
-3.12532e-12
3.49576e-11
-1.68548e-11
5.84104e-11
-2.14406e-11
-2.27271e-08
2.27885e-08
5.28154e-09
2.75787e-08
-6.11245e-09
5.22808e-09
6.00355e-11
6.28693e-09
-1.37954e-09
6.89006e-09
-7.92031e-10
5.93083e-09
1.25855e-09
4.34839e-09
2.07907e-09
3.8407e-09
6.556e-10
3.30814e-09
6.99995e-10
2.73153e-09
7.51589e-10
2.28995e-09
5.78262e-10
1.87699e-09
5.38245e-10
1.55389e-09
4.24738e-10
1.25722e-09
3.88354e-10
1.0293e-09
3.0053e-10
8.22479e-10
2.70617e-10
6.53842e-10
2.22985e-10
5.11643e-10
1.87145e-10
3.86071e-10
1.65843e-10
2.87446e-10
1.30503e-10
2.01251e-10
1.14755e-10
1.28245e-10
9.74856e-11
7.04114e-11
7.78796e-11
2.07078e-11
6.6516e-11
-1.90654e-11
5.35699e-11
-5.04833e-11
4.52244e-11
-7.61102e-11
3.60126e-11
-9.5184e-11
2.95681e-11
-1.09538e-10
2.1553e-11
-1.1998e-10
1.63302e-11
-1.26569e-10
1.14959e-11
-1.30513e-10
8.26511e-12
-1.3202e-10
5.22338e-12
-1.31631e-10
2.71344e-12
-1.29762e-10
4.64619e-13
-1.26668e-10
-2.10252e-13
-1.22769e-10
-2.74024e-13
-1.18141e-10
-3.57289e-12
-1.13145e-10
-8.0685e-13
-1.0786e-10
-3.28132e-12
-1.02341e-10
-3.41897e-12
-9.68907e-11
-3.07877e-12
-9.14053e-11
-3.0436e-12
-8.60645e-11
-2.81569e-12
-8.09179e-11
-2.52524e-12
-7.59594e-11
6.84016e-13
-7.13067e-11
-3.15272e-12
-6.68665e-11
2.90869e-12
-6.26706e-11
-2.55598e-12
-5.86855e-11
3.83296e-12
-5.48798e-11
-1.6594e-13
-5.12792e-11
2.58058e-13
-4.78137e-11
-1.5363e-12
-4.51026e-11
4.16378e-12
-4.2589e-11
5.71166e-14
-4.03534e-11
3.13282e-12
-3.82164e-11
7.06919e-13
-3.63188e-11
3.46863e-12
-3.46436e-11
5.96405e-13
-3.31326e-11
3.92658e-12
-3.17762e-11
1.7298e-12
-3.0587e-11
3.42474e-12
-2.95237e-11
1.46366e-12
-2.86278e-11
4.39724e-12
-2.78395e-11
1.86403e-12
-2.7201e-11
4.1036e-12
-2.66642e-11
2.14677e-12
-2.62505e-11
4.5712e-12
-2.5933e-11
2.36789e-12
-2.57094e-11
4.45148e-12
-2.55673e-11
2.86287e-12
-2.55152e-11
4.90746e-12
-2.5513e-11
3.87039e-12
-2.55908e-11
3.68845e-12
-2.56991e-11
2.77244e-12
-2.58553e-11
4.26264e-12
-2.60355e-11
3.54365e-12
-2.62378e-11
3.85675e-12
-2.64379e-11
2.34173e-12
-2.66192e-11
4.67915e-12
-2.67835e-11
3.34779e-12
-2.68969e-11
6.22326e-12
-2.69479e-11
2.88683e-12
-2.69068e-11
5.91348e-12
-2.67536e-11
3.35776e-12
-2.64591e-11
6.64178e-12
-2.59833e-11
2.2417e-12
-2.52956e-11
6.33138e-12
-2.43321e-11
2.07266e-12
-2.30671e-11
7.30913e-12
-2.13893e-11
-1.62662e-13
-1.92731e-11
6.377e-12
-1.64462e-11
-2.42209e-12
-1.31012e-11
5.09213e-12
-8.3487e-12
-1.14218e-12
-3.05381e-12
-1.4649e-12
5.22214e-12
-5.63321e-12
1.43552e-11
-9.2936e-12
3.18707e-11
-1.32096e-11
5.06573e-11
-1.79202e-11
1.15271e-10
-7.73024e-11
1.68369e-10
-7.11412e-11
-4.6911e-08
2.43568e-08
9.79423e-09
2.90348e-08
-1.12409e-08
9.66672e-09
1.87948e-10
1.16153e-08
-3.32888e-09
1.27052e-08
-1.8807e-09
1.09727e-08
2.99037e-09
8.09386e-09
4.95973e-09
7.12788e-09
1.62205e-09
6.15151e-09
1.67685e-09
5.08146e-09
1.82217e-09
4.26426e-09
1.39606e-09
3.49746e-09
1.30509e-09
2.89737e-09
1.02641e-09
2.34591e-09
9.40339e-10
1.92181e-09
7.26277e-10
1.53689e-09
6.55603e-10
1.22284e-09
5.38411e-10
9.57834e-10
4.52738e-10
7.23843e-10
4.00525e-10
5.39871e-10
3.15207e-10
3.79095e-10
2.76366e-10
2.42849e-10
2.34451e-10
1.34838e-10
1.86667e-10
4.19993e-11
1.59904e-10
-3.23522e-11
1.28175e-10
-9.11301e-11
1.05904e-10
-1.39105e-10
8.47046e-11
-1.74867e-10
6.74655e-11
-2.01814e-10
4.93811e-11
-2.21465e-10
3.66924e-11
-2.33919e-10
2.49074e-11
-2.41433e-10
1.68214e-11
-2.44394e-10
9.30943e-12
-2.4381e-10
3.25981e-12
-2.40454e-10
-1.77211e-12
-2.34809e-10
-4.65756e-12
-2.27653e-10
-5.03369e-12
-2.19124e-10
-1.16982e-11
-2.09903e-10
-7.65882e-12
-2.00134e-10
-1.17201e-11
-1.89925e-10
-1.23e-11
-1.79834e-10
-1.16926e-11
-1.69671e-10
-1.18193e-11
-1.59776e-10
-1.12676e-11
-1.50234e-10
-1.08896e-11
-1.41038e-10
-5.43126e-12
-1.32412e-10
-1.09738e-11
-1.24169e-10
-1.82904e-12
-1.16389e-10
-9.38133e-12
-1.08988e-10
4.67905e-14
-1.01929e-10
-5.41808e-12
-9.52408e-11
-4.63534e-12
-8.88147e-11
-6.76477e-12
-8.37785e-11
2.22156e-12
-7.91157e-11
-3.30218e-12
-7.49589e-11
1.37654e-12
-7.09965e-11
-1.86357e-12
-6.74664e-11
2.29105e-12
-6.4362e-11
-1.26127e-12
-6.1551e-11
3.53656e-12
-5.90357e-11
7.08628e-13
-5.68208e-11
3.2377e-12
-5.48526e-11
7.87938e-13
-5.31827e-11
5.06655e-12
-5.17237e-11
1.78003e-12
-5.05331e-11
5.0928e-12
-4.95404e-11
2.4384e-12
-4.87671e-11
6.02763e-12
-4.81809e-11
3.09163e-12
-4.77623e-11
6.21436e-12
-4.75013e-11
3.95752e-12
-4.73992e-11
7.0255e-12
-4.73999e-11
5.89005e-12
-4.75401e-11
5.56388e-12
-4.77436e-11
4.42393e-12
-4.80324e-11
6.86449e-12
-4.83675e-11
5.38008e-12
-4.87398e-11
6.09229e-12
-4.91136e-11
3.85051e-12
-4.94525e-11
7.68465e-12
-4.97543e-11
5.04437e-12
-4.99641e-11
9.77284e-12
-5.00584e-11
4.17787e-12
-4.99825e-11
9.14439e-12
-4.96964e-11
4.58021e-12
-4.91492e-11
1.0033e-11
-4.82653e-11
2.47147e-12
-4.69892e-11
9.07373e-12
-4.51988e-11
1.56911e-12
-4.28514e-11
9.86499e-12
-3.97353e-11
-2.82521e-12
-3.58086e-11
7.29257e-12
-3.0559e-11
-7.82983e-12
-2.43556e-11
3.74148e-12
-1.55287e-11
-7.57832e-12
-5.7196e-12
-8.69696e-12
9.65617e-12
-1.87535e-11
2.65547e-11
-2.59418e-11
5.90886e-11
-4.08114e-11
9.37562e-11
-4.93883e-11
2.13313e-10
-1.93545e-10
3.04177e-10
-1.59574e-10
-7.26243e-08
2.6021e-08
1.52579e-08
3.11619e-08
-1.7401e-08
1.50523e-08
3.94097e-10
1.80482e-08
-6.32524e-09
1.97182e-08
-3.54938e-09
1.70854e-08
5.6236e-09
1.26713e-08
9.37648e-09
1.1139e-08
3.1557e-09
9.62323e-09
3.19434e-09
7.95779e-09
3.48895e-09
6.68232e-09
2.67321e-09
5.48551e-09
2.50292e-09
4.5469e-09
1.96748e-09
3.68448e-09
1.80483e-09
3.0202e-09
1.39319e-09
2.41733e-09
1.26019e-09
1.92504e-09
1.03323e-09
1.50943e-09
8.7017e-10
1.1424e-09
7.6965e-10
8.53597e-10
6.05813e-10
6.01168e-10
5.30971e-10
3.87156e-10
4.50603e-10
2.1737e-10
3.58722e-10
7.14046e-11
3.07524e-10
-4.55864e-11
2.47186e-10
-1.38148e-10
2.01441e-10
-2.1375e-10
1.62848e-10
-2.70186e-10
1.27177e-10
-3.12774e-10
9.44617e-11
-3.43908e-10
7.03288e-11
-3.63724e-10
4.72011e-11
-3.75774e-10
3.15227e-11
-3.8067e-10
1.69201e-11
-3.7998e-10
5.24703e-12
-3.74924e-10
-4.43919e-12
-3.66262e-10
-1.00574e-11
-3.55215e-10
-1.29067e-11
-3.41997e-10
-2.22464e-11
-3.27679e-10
-1.80266e-11
-3.12487e-10
-2.39952e-11
-2.96596e-10
-2.50787e-11
-2.80877e-10
-2.41701e-11
-2.65035e-10
-2.42469e-11
-2.49607e-10
-2.32836e-11
-2.34723e-10
-2.19364e-11
-2.2037e-10
-1.47983e-11
-2.0691e-10
-2.13971e-11
-1.94038e-10
-8.66606e-12
-1.81895e-10
-1.85686e-11
-1.70335e-10
-5.26398e-12
-1.59311e-10
-1.26086e-11
-1.48861e-10
-1.1079e-11
-1.38828e-10
-1.40211e-11
-1.30959e-10
-4.08127e-13
-1.23677e-10
-7.81567e-12
-1.17178e-10
-7.97406e-13
-1.10991e-10
-5.20229e-12
-1.0547e-10
1.06103e-12
-1.00623e-10
-3.8435e-12
-9.62265e-11
3.24998e-12
-9.22978e-11
-5.44679e-13
-8.88316e-11
3.35112e-12
-8.57597e-11
-2.04705e-14
-8.31458e-11
6.29335e-12
-8.08685e-11
1.67466e-12
-7.90038e-11
6.57694e-12
-7.74549e-11
3.10741e-12
-7.62426e-11
8.29508e-12
-7.53283e-11
4.26924e-12
-7.4671e-11
8.70814e-12
-7.42648e-11
5.89237e-12
-7.41013e-11
1.02369e-11
-7.41055e-11
8.33908e-12
-7.43207e-11
8.27816e-12
-7.46391e-11
6.52634e-12
-7.50886e-11
9.63335e-12
-7.56122e-11
8.25075e-12
-7.61913e-11
8.98366e-12
-7.67752e-11
5.94727e-12
-7.7305e-11
1.06228e-11
-7.77735e-11
8.01395e-12
-7.81001e-11
1.36272e-11
-7.82461e-11
6.6512e-12
-7.81265e-11
1.25036e-11
-7.76773e-11
7.0447e-12
-7.68211e-11
1.31972e-11
-7.54385e-11
3.63555e-12
-7.34437e-11
1.12294e-11
-7.06447e-11
1.81702e-12
-6.69771e-11
1.13784e-11
-6.21077e-11
-5.3162e-12
-5.59739e-11
6.50564e-12
-4.77727e-11
-1.37825e-11
-3.80868e-11
-3.22366e-13
-2.42991e-11
-1.77193e-11
-8.99091e-12
-2.00609e-11
1.50209e-11
-3.87217e-11
4.13711e-11
-4.89396e-11
9.21485e-11
-8.59153e-11
1.46093e-10
-9.86086e-11
3.31944e-10
-3.74447e-10
4.68596e-10
-2.92027e-10
-9.99344e-08
2.7784e-08
2.1829e-08
3.41039e-08
-2.47599e-08
2.1545e-08
6.78513e-10
2.5764e-08
-1.05448e-08
2.81206e-08
-5.90501e-09
2.44492e-08
9.29445e-09
1.82309e-08
1.55961e-08
1.60039e-08
5.38311e-09
1.38365e-08
5.36217e-09
1.14574e-08
5.86856e-09
9.62624e-09
4.50488e-09
7.91017e-09
4.21904e-09
6.56034e-09
3.3184e-09
5.32072e-09
3.04488e-09
4.36417e-09
2.35102e-09
3.49617e-09
2.1281e-09
2.78671e-09
1.74366e-09
2.18748e-09
1.4699e-09
1.65816e-09
1.29959e-09
1.24133e-09
1.02331e-09
8.76925e-10
8.96154e-10
5.67839e-10
7.60302e-10
3.22435e-10
6.04824e-10
1.11413e-10
5.18873e-10
-5.78591e-11
4.16522e-10
-1.91898e-10
3.37e-10
-3.0146e-10
2.7296e-10
-3.83366e-10
2.10898e-10
-4.45272e-10
1.57189e-10
-4.90644e-10
1.16337e-10
-5.19651e-10
7.71262e-11
-5.37432e-10
5.03243e-11
-5.44875e-10
2.54665e-11
-5.44224e-10
5.73049e-12
-5.37253e-10
-1.03649e-11
-5.25057e-10
-2.12398e-11
-5.09393e-10
-2.64568e-11
-4.90577e-10
-4.0808e-11
-4.70152e-10
-3.66669e-11
-4.48445e-10
-4.43513e-11
-4.25716e-10
-4.64598e-11
-4.03214e-10
-4.51876e-11
-3.80522e-10
-4.55557e-11
-3.58413e-10
-4.39227e-11
-3.37075e-10
-4.22976e-11
-3.1649e-10
-3.29038e-11
-2.97184e-10
-3.98996e-11
-2.78711e-10
-2.44552e-11
-2.61288e-10
-3.49681e-11
-2.44694e-10
-1.90916e-11
-2.2887e-10
-2.65763e-11
-2.13865e-10
-2.42679e-11
-1.99465e-10
-2.70899e-11
-1.88166e-10
-9.31546e-12
-1.7771e-10
-1.70028e-11
-1.68372e-10
-8.1951e-12
-1.5949e-10
-1.27745e-11
-1.51557e-10
-4.96283e-12
-1.44597e-10
-9.49671e-12
-1.3828e-10
-1.06993e-12
-1.32638e-10
-4.76452e-12
-1.27654e-10
9.35719e-14
-1.23245e-10
-3.0861e-12
-1.19486e-10
4.51306e-12
-1.16216e-10
-1.60889e-13
-1.13534e-10
5.82935e-12
-1.1131e-10
2.20625e-12
-1.09566e-10
8.49829e-12
-1.08253e-10
4.3305e-12
-1.07305e-10
9.74747e-12
-1.06722e-10
6.68522e-12
-1.06484e-10
1.19875e-11
-1.06492e-10
1.03438e-11
-1.06797e-10
1.03903e-11
-1.07253e-10
8.65772e-12
-1.07896e-10
1.26163e-11
-1.08648e-10
1.0477e-11
-1.09476e-10
1.1686e-11
-1.10313e-10
8.18427e-12
-1.11072e-10
1.40715e-11
-1.11742e-10
1.02788e-11
-1.12209e-10
1.72918e-11
-1.12415e-10
8.2243e-12
-1.12241e-10
1.55378e-11
-1.11593e-10
8.11065e-12
-1.1036e-10
1.57328e-11
-1.08372e-10
2.96286e-12
-1.05505e-10
1.21828e-11
-1.01483e-10
-6.3459e-13
-9.62141e-11
1.07235e-11
-8.92204e-11
-1.16555e-11
-8.04119e-11
2.11568e-12
-6.86372e-11
-2.54573e-11
-5.47335e-11
-9.91516e-12
-3.49433e-11
-3.49112e-11
-1.29772e-11
-3.92035e-11
2.14745e-11
-7.08348e-11
5.92576e-11
-8.64273e-11
1.32057e-10
-1.54409e-10
2.09255e-10
-1.72316e-10
4.74573e-10
-6.36126e-10
6.66347e-10
-4.81265e-10
-1.28913e-07
2.96492e-08
2.96879e-08
3.79038e-08
-3.35019e-08
2.93287e-08
1.03834e-09
3.49655e-08
-1.61818e-08
3.81299e-08
-9.0681e-09
3.32711e-08
1.41542e-08
2.49478e-08
2.39221e-08
2.18738e-08
8.45886e-09
1.89234e-08
8.31459e-09
1.56937e-08
9.09991e-09
1.31925e-08
7.00809e-09
1.08527e-08
6.56023e-09
9.006e-09
5.16773e-09
7.31117e-09
4.74229e-09
6.00074e-09
3.6644e-09
4.81183e-09
3.31928e-09
3.83909e-09
2.71926e-09
3.01709e-09
2.29412e-09
2.29075e-09
2.02851e-09
1.71835e-09
1.59787e-09
1.21779e-09
1.39937e-09
7.93032e-10
1.18767e-09
4.55508e-10
9.45141e-10
1.65197e-10
8.11228e-10
-6.7875e-11
6.52161e-10
-2.52599e-10
5.2503e-10
-4.03712e-10
4.27223e-10
-5.16851e-10
3.27738e-10
-6.02507e-10
2.45909e-10
-6.65453e-10
1.82406e-10
-7.05881e-10
1.20587e-10
-7.30869e-10
7.85659e-11
-7.4164e-10
3.95518e-11
-7.4125e-10
8.62345e-12
-7.32152e-10
-1.65008e-11
-7.15851e-10
-3.36244e-11
-6.94748e-10
-4.39525e-11
-6.69291e-10
-6.28012e-11
-6.41591e-10
-5.99363e-11
-6.12101e-10
-7.02837e-11
-5.81189e-10
-7.35486e-11
-5.50557e-10
-7.18736e-11
-5.19647e-10
-7.22606e-11
-4.89516e-10
-6.98308e-11
-4.60422e-10
-6.66201e-11
-4.32344e-10
-5.53027e-11
-4.06005e-10
-6.2213e-11
-3.80792e-10
-4.29479e-11
-3.57014e-10
-5.48128e-11
-3.34359e-10
-3.48281e-11
-3.12755e-10
-4.35113e-11
-2.92261e-10
-3.98748e-11
-2.726e-10
-4.3135e-11
-2.57169e-10
-1.90172e-11
-2.4289e-10
-2.78805e-11
-2.3013e-10
-1.60793e-11
-2.18001e-10
-2.14168e-11
-2.07159e-10
-1.09395e-11
-1.97652e-10
-1.61761e-11
-1.89017e-10
-5.12694e-12
-1.81309e-10
-9.28388e-12
-1.74496e-10
-2.65824e-12
-1.68473e-10
-6.32207e-12
-1.63333e-10
3.6405e-12
-1.58867e-10
-2.01518e-12
-1.55198e-10
5.87504e-12
-1.5216e-10
1.86226e-12
-1.49773e-10
9.97185e-12
-1.47978e-10
5.04207e-12
-1.4668e-10
1.19295e-11
-1.45883e-10
8.69726e-12
-1.45553e-10
1.54104e-11
-1.45564e-10
1.30591e-11
-1.45977e-10
1.36592e-11
-1.46598e-10
1.13434e-11
-1.47473e-10
1.59437e-11
-1.48497e-10
1.4188e-11
-1.49625e-10
1.53931e-11
-1.50765e-10
1.1138e-11
-1.51799e-10
1.76184e-11
-1.52709e-10
1.42185e-11
-1.53343e-10
2.1672e-11
-1.53621e-10
1.13569e-11
-1.53378e-10
1.902e-11
-1.52488e-10
1.07724e-11
-1.50799e-10
1.83072e-11
-1.48078e-10
3.444e-12
-1.44157e-10
1.26705e-11
-1.3866e-10
-2.24609e-12
-1.3146e-10
9.03041e-12
-1.21905e-10
-1.79981e-11
-1.09872e-10
-4.24503e-12
-9.37935e-11
-3.82666e-11
-7.48084e-11
-2.28907e-11
-4.77934e-11
-5.75919e-11
-1.78089e-11
-6.44771e-11
2.91961e-11
-1.12799e-10
8.07366e-11
-1.33427e-10
1.79976e-10
-2.47559e-10
2.85072e-10
-2.71804e-10
6.45095e-10
-9.90245e-10
9.03002e-10
-7.33966e-10
-1.59624e-07
3.16201e-08
3.90406e-08
4.27071e-08
-4.38325e-08
3.86142e-08
1.4653e-09
4.5883e-08
-2.34509e-08
4.99925e-08
-1.31768e-08
4.37882e-08
2.03581e-08
3.30259e-08
3.46854e-08
2.89249e-08
1.25601e-08
2.50382e-08
1.22015e-08
2.07999e-08
1.33385e-08
1.74945e-08
1.03139e-08
1.4409e-08
9.64583e-09
1.19645e-08
7.61301e-09
9.72273e-09
6.98447e-09
7.98568e-09
5.40252e-09
6.41e-09
4.89484e-09
5.1194e-09
4.01062e-09
4.02825e-09
3.38551e-09
3.06374e-09
2.99341e-09
2.30304e-09
2.35902e-09
1.63761e-09
2.06536e-09
1.07267e-09
1.75293e-09
6.2337e-10
1.3949e-09
2.36806e-10
1.19802e-09
-7.38206e-11
9.62797e-10
-3.20243e-10
7.72742e-10
-5.22e-10
6.29513e-10
-6.73294e-10
4.80717e-10
-7.88042e-10
3.6128e-10
-8.726e-10
2.6737e-10
-9.2717e-10
1.75914e-10
-9.61186e-10
1.13443e-10
-9.76279e-10
5.55958e-11
-9.76472e-10
9.8192e-12
-9.65057e-10
-2.67915e-11
-9.44022e-10
-5.36552e-11
-9.16552e-10
-6.93935e-11
-8.83262e-10
-9.57874e-11
-8.46943e-10
-9.48047e-11
-8.08205e-10
-1.07774e-10
-7.67549e-10
-1.12989e-10
-7.27221e-10
-1.10877e-10
-6.86496e-10
-1.11816e-10
-6.46778e-10
-1.08293e-10
-6.08407e-10
-1.03956e-10
-5.7136e-10
-9.0162e-11
-5.36602e-10
-9.59376e-11
-5.03315e-10
-7.40243e-11
-4.71921e-10
-8.48985e-11
-4.42001e-10
-6.24873e-11
-4.13465e-10
-7.03231e-11
-3.86389e-10
-6.53052e-11
-3.60421e-10
-6.74792e-11
-3.40035e-10
-3.74511e-11
-3.21168e-10
-4.53804e-11
-3.04301e-10
-3.12489e-11
-2.88276e-10
-3.605e-11
-2.73943e-10
-2.35849e-11
-2.61377e-10
-2.72479e-11
-2.49962e-10
-1.47696e-11
-2.39774e-10
-1.79884e-11
-2.30764e-10
-1.00768e-11
-2.22804e-10
-1.27747e-11
-2.16006e-10
-1.3648e-12
-2.10102e-10
-6.33152e-12
-2.05247e-10
2.85185e-12
-2.01231e-10
-6.91673e-13
-1.98071e-10
8.62877e-12
-1.95697e-10
4.19233e-12
-1.93978e-10
1.21288e-11
-1.92923e-10
9.14081e-12
-1.92482e-10
1.68686e-11
-1.92495e-10
1.51412e-11
-1.93034e-10
1.6153e-11
-1.93853e-10
1.40967e-11
-1.95004e-10
1.95306e-11
-1.96354e-10
1.7077e-11
-1.97838e-10
1.88459e-11
-1.99339e-10
1.43476e-11
-2.00702e-10
2.17821e-11
-2.01898e-10
1.72945e-11
-2.02729e-10
2.56903e-11
-2.0309e-10
1.33513e-11
-2.02763e-10
2.19466e-11
-2.01579e-10
1.16217e-11
-1.9934e-10
1.98282e-11
-1.95738e-10
1.48203e-12
-1.90549e-10
1.12932e-11
-1.83279e-10
-7.50334e-12
-1.7376e-10
4.07661e-12
-1.61132e-10
-2.9614e-11
-1.45229e-10
-1.58905e-11
-1.23989e-10
-5.89497e-11
-9.89096e-11
-4.38764e-11
-6.32385e-11
-9.05539e-11
-2.36406e-11
-1.01163e-10
3.83896e-11
-1.72101e-10
1.06409e-10
-2.00827e-10
2.37241e-10
-3.74346e-10
3.75648e-10
-4.06543e-10
8.47962e-10
-1.45876e-09
1.18488e-09
-1.06794e-09
-1.92135e-07
3.37001e-08
5.01212e-08
4.85552e-08
-5.5982e-08
4.96425e-08
1.94472e-09
5.87771e-08
-3.25854e-08
6.39867e-08
-1.83851e-08
5.62718e-08
2.80744e-08
4.2702e-08
4.82582e-08
3.73624e-08
1.79016e-08
3.23606e-08
1.72058e-08
2.69318e-08
1.87693e-08
2.26652e-08
1.4583e-08
1.86918e-08
1.3621e-08
1.55309e-08
1.07767e-08
1.26346e-08
9.88394e-09
1.03851e-08
7.65536e-09
8.34498e-09
6.93785e-09
6.67199e-09
5.68693e-09
5.25681e-09
4.80332e-09
4.00536e-09
4.24798e-09
3.01755e-09
3.34937e-09
2.15315e-09
2.93293e-09
1.41891e-09
2.49026e-09
8.34424e-10
1.98274e-09
3.31395e-10
1.70357e-09
-7.31995e-11
1.37057e-09
-3.94488e-10
1.09776e-09
-6.57779e-10
8.96631e-10
-8.55542e-10
6.82742e-10
-1.00582e-09
5.15217e-10
-1.11688e-09
3.82207e-10
-1.18891e-09
2.51557e-10
-1.23419e-09
1.62623e-10
-1.25487e-09
8.02229e-11
-1.25611e-09
1.49841e-11
-1.24222e-09
-3.70387e-11
-1.21577e-09
-7.54513e-11
-1.1809e-09
-1.00047e-10
-1.13842e-09
-1.33904e-10
-1.09193e-09
-1.36196e-10
-1.04225e-09
-1.53213e-10
-9.90047e-10
-1.60608e-10
-9.38205e-10
-1.58024e-10
-8.8581e-10
-1.59155e-10
-8.34682e-10
-1.54298e-10
-7.85262e-10
-1.47531e-10
-7.37523e-10
-1.31289e-10
-6.92724e-10
-1.35569e-10
-6.49803e-10
-1.09321e-10
-6.0932e-10
-1.20314e-10
-5.70726e-10
-9.32928e-11
-5.33913e-10
-1.01558e-10
-4.98975e-10
-9.44041e-11
-4.65472e-10
-9.64044e-11
-4.39166e-10
-5.7404e-11
-4.14817e-10
-6.56091e-11
-3.9304e-10
-4.74806e-11
-3.72359e-10
-5.24925e-11
-3.53853e-10
-3.65297e-11
-3.37629e-10
-3.99816e-11
-3.22889e-10
-2.43609e-11
-3.09735e-10
-2.73538e-11
-2.98097e-10
-1.70852e-11
-2.8782e-10
-1.9656e-11
-2.79038e-10
-5.36269e-12
-2.71415e-10
-1.08338e-11
-2.65141e-10
7.33452e-13
-2.59955e-10
-2.63665e-12
-2.5587e-10
8.86616e-12
-2.52802e-10
4.10281e-12
-2.50576e-10
1.37823e-11
-2.49212e-10
1.11191e-11
-2.48636e-10
2.05005e-11
-2.48651e-10
1.81882e-11
-2.49339e-10
2.00894e-11
-2.50391e-10
1.75056e-11
-2.5187e-10
2.3656e-11
-2.53608e-10
2.18871e-11
-2.55515e-10
2.36584e-11
-2.57445e-10
1.84095e-11
-2.59197e-10
2.62485e-11
-2.60732e-10
2.24221e-11
-2.61797e-10
3.08367e-11
-2.62252e-10
1.7234e-11
-2.61821e-10
2.56173e-11
-2.60283e-10
1.43207e-11
-2.57383e-10
2.15919e-11
-2.52722e-10
7.35456e-13
-2.46015e-10
9.43589e-12
-2.36624e-10
-1.20876e-11
-2.24329e-10
-2.16054e-12
-2.08028e-10
-4.17972e-11
-1.87498e-10
-3.01854e-11
-1.60095e-10
-8.19645e-11
-1.27734e-10
-6.95589e-11
-8.17333e-11
-1.31449e-10
-3.06551e-11
-1.46658e-10
4.92859e-11
-2.45781e-10
1.36964e-10
-2.82613e-10
3.05392e-10
-5.35952e-10
4.83409e-10
-5.77956e-10
1.08824e-09
-2.05661e-09
1.51916e-09
-1.49243e-09
-2.26501e-07
3.58922e-08
6.31953e-08
5.55808e-08
-7.02084e-08
6.26884e-08
2.45223e-09
7.39418e-08
-4.38389e-08
8.04259e-08
-2.48687e-08
7.1031e-08
3.74691e-08
5.42507e-08
6.50391e-08
4.7425e-08
2.47273e-08
4.10999e-08
2.35311e-08
3.42719e-08
2.55974e-08
2.88606e-08
1.99946e-08
2.38339e-08
1.86476e-08
1.98176e-08
1.47933e-08
1.61404e-08
1.35615e-08
1.32774e-08
1.05191e-08
1.06813e-08
9.53367e-09
8.54975e-09
7.81891e-09
6.74564e-09
6.60752e-09
5.14953e-09
5.8444e-09
3.88858e-09
4.61065e-09
2.78474e-09
4.03728e-09
1.8466e-09
3.42855e-09
1.09909e-09
2.73064e-09
4.55522e-10
2.34706e-09
-6.26243e-11
1.8885e-09
-4.74518e-10
1.51054e-09
-8.12383e-10
1.23481e-09
-1.0666e-09
9.38377e-10
-1.26016e-09
7.09319e-10
-1.40363e-09
5.26006e-10
-1.49717e-09
3.458e-10
-1.5565e-09
2.22798e-10
-1.58437e-09
1.0901e-10
-1.58728e-09
1.89145e-11
-1.57082e-09
-5.24229e-11
-1.53824e-09
-1.07149e-10
-1.4948e-09
-1.41719e-10
-1.4416e-09
-1.86998e-10
-1.38318e-09
-1.93663e-10
-1.32062e-09
-2.14496e-10
-1.25477e-09
-2.25201e-10
-1.18931e-09
-2.22168e-10
-1.12309e-09
-2.24217e-10
-1.05843e-09
-2.17683e-10
-9.95897e-10
-2.09203e-10
-9.35459e-10
-1.90073e-10
-8.78728e-10
-1.91318e-10
-8.24351e-10
-1.62132e-10
-7.7306e-10
-1.70298e-10
-7.24147e-10
-1.40592e-10
-6.7748e-10
-1.46438e-10
-6.33182e-10
-1.37025e-10
-5.90711e-10
-1.3711e-10
-5.57358e-10
-8.92911e-11
-5.26481e-10
-9.50976e-11
-4.98853e-10
-7.37236e-11
-4.72629e-10
-7.73755e-11
-4.49149e-10
-5.86405e-11
-4.28566e-10
-5.89839e-11
-4.09863e-10
-4.15623e-11
-3.93173e-10
-4.25602e-11
-3.78403e-10
-3.04482e-11
-3.65365e-10
-3.10925e-11
-3.54217e-10
-1.49311e-11
-3.44544e-10
-1.87896e-11
-3.36578e-10
-5.50341e-12
-3.29996e-10
-7.65876e-12
-3.24806e-10
5.35194e-12
-3.2091e-10
1.87828e-12
-3.1808e-10
1.28218e-11
-3.16345e-10
1.09779e-11
-3.15607e-10
2.15852e-11
-3.1562e-10
2.03899e-11
-3.16484e-10
2.3132e-11
-3.17811e-10
2.11414e-11
-3.19679e-10
2.81532e-11
-3.21875e-10
2.57194e-11
-3.24284e-10
2.81711e-11
-3.26721e-10
2.29239e-11
-3.28932e-10
3.14529e-11
-3.30869e-10
2.65503e-11
-3.32206e-10
3.53937e-11
-3.32771e-10
1.97177e-11
-3.3221e-10
2.83977e-11
-3.30246e-10
1.47003e-11
-3.26553e-10
2.16627e-11
-3.20629e-10
-3.27842e-12
-3.12108e-10
4.71661e-12
-3.00187e-10
-2.16046e-11
-2.84582e-10
-1.32436e-11
-2.63905e-10
-6.12837e-11
-2.37862e-10
-5.21683e-11
-2.03122e-10
-1.15856e-10
-1.62092e-10
-1.06743e-10
-1.03809e-10
-1.86755e-10
-3.90683e-11
-2.08186e-10
6.21472e-11
-3.44069e-10
1.73196e-10
-3.92947e-10
3.86195e-10
-7.4537e-10
6.11136e-10
-7.98848e-10
1.37171e-09
-2.81298e-09
1.91406e-09
-2.03169e-09
-2.62782e-07
3.81992e-08
7.85631e-08
6.38057e-08
-8.67992e-08
7.80642e-08
2.95183e-09
9.1708e-08
-5.74823e-08
9.96619e-08
-3.28212e-08
8.84173e-08
4.87157e-08
6.79898e-08
8.54697e-08
5.93896e-08
3.33299e-08
5.14996e-08
3.14241e-08
4.30334e-08
3.40658e-08
3.62639e-08
2.67671e-08
2.99918e-08
2.49219e-08
2.4957e-08
1.98312e-08
2.0351e-08
1.81711e-08
1.67557e-08
1.41183e-08
1.34959e-08
1.2797e-08
1.08158e-08
1.05029e-08
8.54605e-09
8.88038e-09
6.53699e-09
7.85722e-09
4.94836e-09
6.20226e-09
3.55707e-09
5.43235e-09
2.37396e-09
4.61533e-09
1.43027e-09
3.67837e-09
6.1751e-10
3.16285e-09
-3.75479e-11
2.54736e-09
-5.5886e-10
2.03606e-09
-9.86911e-10
1.66738e-09
-1.30957e-09
1.26594e-09
-1.55576e-09
9.59832e-10
-1.73881e-09
7.1359e-10
-1.85879e-09
4.70039e-10
-1.93559e-09
3.04208e-10
-1.97266e-09
1.50743e-10
-1.97813e-09
2.90575e-11
-1.95909e-09
-6.70917e-11
-1.91964e-09
-1.41192e-10
-1.86636e-09
-1.90044e-10
-1.80069e-09
-2.47361e-10
-1.72834e-09
-2.60153e-10
-1.65065e-09
-2.87169e-10
-1.56876e-09
-3.01625e-10
-1.48724e-09
-2.98142e-10
-1.4047e-09
-3.00709e-10
-1.32405e-09
-2.92116e-10
-1.24601e-09
-2.80259e-10
-1.17054e-09
-2.57852e-10
-1.09967e-09
-2.55795e-10
-1.03172e-09
-2.21418e-10
-9.67609e-10
-2.28125e-10
-9.06458e-10
-1.92963e-10
-8.48101e-10
-1.98158e-10
-7.92695e-10
-1.85492e-10
-7.39579e-10
-1.8462e-10
-6.97863e-10
-1.23947e-10
-6.59233e-10
-1.28855e-10
-6.24657e-10
-1.02014e-10
-5.91849e-10
-1.05134e-10
-5.62461e-10
-8.17e-11
-5.36698e-10
-8.05357e-11
-5.13286e-10
-5.9188e-11
-4.92396e-10
-5.90116e-11
-4.73903e-10
-4.36929e-11
-4.57583e-10
-4.33589e-11
-4.43622e-10
-2.35328e-11
-4.31513e-10
-2.72254e-11
-4.21535e-10
-1.08356e-11
-4.13292e-10
-1.20707e-11
-4.06789e-10
3.68721e-12
-4.01906e-10
4.83248e-13
-3.98356e-10
1.36013e-11
-3.96178e-10
1.27157e-11
-3.95245e-10
2.53676e-11
-3.95255e-10
2.38204e-11
-3.96323e-10
2.78711e-11
-3.97975e-10
2.54674e-11
-4.00301e-10
3.33828e-11
-4.03038e-10
3.19502e-11
-4.06038e-10
3.44509e-11
-4.09073e-10
2.84424e-11
-4.11825e-10
3.72213e-11
-4.14233e-10
3.31381e-11
-4.1589e-10
4.15678e-11
-4.16578e-10
2.44427e-11
-4.15858e-10
3.22725e-11
-4.13382e-10
1.71806e-11
-4.08742e-10
2.22184e-11
-4.0131e-10
-6.04258e-12
-3.90629e-10
-5.18772e-13
-3.757e-10
-3.07442e-11
-3.5616e-10
-2.59858e-11
-3.30285e-10
-8.20916e-11
-2.97694e-10
-7.77716e-11
-2.54249e-10
-1.53728e-10
-2.02927e-10
-1.50489e-10
-1.30084e-10
-2.53581e-10
-4.91354e-11
-2.82478e-10
7.72692e-11
-4.6284e-10
2.16014e-10
-5.24346e-10
4.81677e-10
-1.00323e-09
7.62021e-10
-1.07141e-09
1.7049e-09
-3.74754e-09
2.37889e-09
-2.69788e-09
-3.01017e-07
4.06235e-08
9.6563e-08
7.33282e-08
-1.06073e-07
9.61239e-08
3.39164e-09
1.12446e-07
-7.38046e-08
1.22087e-07
-4.24619e-08
1.08829e-07
6.19742e-08
8.42863e-08
1.10013e-07
7.35777e-08
4.40383e-08
6.38429e-08
4.11589e-08
5.3466e-08
4.44426e-08
4.50898e-08
3.51434e-08
3.73496e-08
3.2662e-08
3.11056e-08
2.60752e-08
2.5398e-08
2.3879e-08
2.09305e-08
1.85865e-08
1.68802e-08
1.6847e-08
1.35455e-08
1.38378e-08
1.07195e-08
1.17061e-08
8.21673e-09
1.036e-08
6.23581e-09
8.18318e-09
4.50014e-09
7.16828e-09
3.02328e-09
6.09192e-09
1.844e-09
4.85775e-09
8.27914e-10
4.17868e-09
8.07819e-12
3.36688e-09
-6.45139e-10
2.68991e-09
-1.18208e-09
2.20456e-09
-1.58758e-09
1.6728e-09
-1.89766e-09
1.27014e-09
-2.12897e-09
9.44926e-10
-2.28142e-09
6.22943e-10
-2.3799e-09
4.03308e-10
-2.42874e-09
2.00255e-10
-2.43795e-09
3.90723e-11
-2.41647e-09
-8.7427e-11
-2.36938e-09
-1.87387e-10
-2.30485e-09
-2.52814e-10
-2.22479e-09
-3.27348e-10
-2.13621e-09
-3.48013e-10
-2.04085e-09
-3.81443e-10
-1.94014e-09
-4.01283e-10
-1.83977e-09
-3.97526e-10
-1.73803e-09
-4.01668e-10
-1.63854e-09
-3.90547e-10
-1.5422e-09
-3.75694e-10
-1.44898e-09
-3.4961e-10
-1.36142e-09
-3.4222e-10
-1.27742e-09
-3.04139e-10
-1.19816e-09
-3.05887e-10
-1.12253e-09
-2.67284e-10
-1.05034e-09
-2.68635e-10
-9.81788e-10
-2.52487e-10
-9.16073e-10
-2.48283e-10
-8.64457e-10
-1.74333e-10
-8.16649e-10
-1.75149e-10
-7.7384e-10
-1.43562e-10
-7.33235e-10
-1.44302e-10
-6.96847e-10
-1.1684e-10
-6.64944e-10
-1.10656e-10
-6.35954e-10
-8.67691e-11
-6.10084e-10
-8.32838e-11
-5.87177e-10
-6.52317e-11
-5.66968e-10
-6.17776e-11
-5.49673e-10
-3.93063e-11
-5.34675e-10
-4.02979e-11
-5.2231e-10
-2.14508e-11
-5.12098e-10
-2.05433e-11
-5.04036e-10
-2.70671e-12
-4.97981e-10
-3.68478e-12
-4.93575e-10
1.11287e-11
-4.90871e-10
1.17794e-11
-4.89702e-10
2.60734e-11
-4.89704e-10
2.62287e-11
-4.91012e-10
3.16451e-11
-4.93043e-10
3.02037e-11
-4.95908e-10
3.91514e-11
-4.99281e-10
3.71358e-11
-5.02976e-10
4.04797e-11
-5.06713e-10
3.46725e-11
-5.10102e-10
4.39285e-11
-5.13062e-10
3.86499e-11
-5.15091e-10
4.70106e-11
-5.15919e-10
2.75468e-11
-5.15003e-10
3.49645e-11
-5.11914e-10
1.68245e-11
-5.06143e-10
2.04321e-11
-4.96919e-10
-1.29848e-11
-4.83673e-10
-9.71847e-12
-4.65175e-10
-4.63206e-11
-4.40969e-10
-4.53993e-11
-4.08935e-10
-1.12613e-10
-3.68586e-10
-1.13914e-10
-3.1484e-10
-2.06167e-10
-2.51336e-10
-2.09988e-10
-1.61281e-10
-3.40484e-10
-6.11567e-11
-3.79209e-10
9.4986e-11
-6.15572e-10
2.66458e-10
-6.94728e-10
5.94161e-10
-1.32734e-09
9.39718e-10
-1.41268e-09
2.09522e-09
-4.89859e-09
2.92428e-09
-3.52342e-09
-3.41256e-07
4.3167e-08
1.17574e-07
8.41266e-08
-1.28382e-07
1.17267e-07
3.70002e-09
1.36571e-07
-9.31077e-08
1.4814e-07
-5.40303e-08
1.32715e-07
7.74018e-08
1.03562e-07
1.39169e-07
9.03618e-08
5.72417e-08
7.84588e-08
5.30655e-08
6.58608e-08
5.70432e-08
5.55901e-08
4.54175e-08
4.61241e-08
4.21306e-08
3.84481e-08
3.37546e-08
3.14368e-08
3.08946e-08
2.59328e-08
2.4095e-08
2.09431e-08
2.18409e-08
1.68288e-08
1.79566e-08
1.33396e-08
1.51989e-08
1.02477e-08
1.34564e-08
7.79796e-09
1.06364e-08
5.65042e-09
9.32027e-09
3.8219e-09
7.92471e-09
2.36015e-09
6.3243e-09
1.1001e-09
5.44235e-09
8.22424e-11
4.38927e-09
-7.29766e-10
3.50671e-09
-1.39799e-09
2.87811e-09
-1.90364e-09
2.18415e-09
-2.2912e-09
1.6627e-09
-2.58129e-09
1.24034e-09
-2.77356e-09
8.20138e-10
-2.89892e-09
5.34061e-10
-2.96278e-09
2.69506e-10
-2.9773e-09
5.90662e-11
-2.95371e-09
-1.05838e-10
-2.89826e-09
-2.3659e-10
-2.82098e-09
-3.24202e-10
-2.72434e-09
-4.17604e-10
-2.61696e-09
-4.48569e-10
-2.50101e-09
-4.91561e-10
-2.37833e-09
-5.17545e-10
-2.25586e-09
-5.13558e-10
-2.13159e-09
-5.18826e-10
-2.00997e-09
-5.04734e-10