/*--------------------------------*- C++ -*----------------------------------*\
| =========                 |                                                 |
| \\      /  F ield         | OpenFOAM: The Open Source CFD Toolbox           |
|  \\    /   O peration     | Version:  5.x                                   |
|   \\  /    A nd           | Web:      www.OpenFOAM.org                      |
|    \\/     M anipulation  |                                                 |
\*---------------------------------------------------------------------------*/
FoamFile
{
    version     2.0;
    format      ascii;
    class       surfaceScalarField;
    location    "3000";
    object      phi;
}
// * * * * * * * * * * * * * * * * * * * * * * * * * * * * * * * * * * * * * //

dimensions      [0 3 -1 0 0 0 0];

internalField   nonuniform List<scalar> 
215247
(
1.42485e-09
-6.52677e-08
-1.42302e-09
1.6059e-09
-1.80964e-10
2.06608e-09
-4.60543e-10
2.4377e-09
-3.71271e-10
2.29721e-09
1.40131e-10
1.87197e-09
4.25853e-10
1.79374e-09
7.83592e-11
1.6747e-09
1.19184e-10
1.51191e-09
1.62917e-10
1.37589e-09
1.36179e-10
1.23907e-09
1.36736e-10
1.12341e-09
1.161e-10
1.01085e-09
1.12592e-10
9.1872e-10
9.25784e-11
8.2996e-10
8.87529e-11
7.52198e-10
7.81004e-11
6.82652e-10
6.96948e-11
6.15717e-10
6.71147e-11
5.592e-10
5.6671e-11
5.05381e-10
5.40067e-11
4.54636e-10
5.09043e-11
4.1034e-10
4.44858e-11
3.67516e-10
4.29359e-11
3.28037e-10
3.94505e-11
2.9242e-10
3.61221e-11
2.57923e-10
3.44406e-11
2.26773e-10
3.1791e-11
1.97969e-10
2.89948e-11
1.70269e-10
2.78965e-11
1.45869e-10
2.46151e-11
1.22928e-10
2.32117e-11
1.01444e-10
2.17423e-11
8.24954e-11
1.92515e-11
6.48683e-11
1.78452e-11
4.90074e-11
1.59441e-11
3.50477e-11
1.46448e-11
2.23737e-11
1.25273e-11
1.14856e-11
1.16084e-11
2.0057e-12
9.75224e-12
-6.19766e-12
8.56258e-12
-1.29251e-11
6.96583e-12
-1.85652e-11
5.96475e-12
-2.30518e-11
4.7905e-12
-2.65258e-11
3.42815e-12
-2.91398e-11
3.38359e-12
-3.09188e-11
1.23823e-12
-3.20485e-11
2.38269e-12
-3.25772e-11
-9.012e-15
-3.26203e-11
1.37992e-12
-3.22392e-11
-2.69468e-14
-3.15033e-11
-2.68483e-13
-3.04944e-11
-1.19118e-12
-2.95713e-11
-4.81065e-14
-2.85973e-11
-1.12658e-12
-2.76318e-11
5.23177e-14
-2.66299e-11
-9.81031e-13
-2.56417e-11
-2.27669e-13
-2.47106e-11
-1.07252e-12
-2.38006e-11
-1.0418e-13
-2.2916e-11
-7.72517e-13
-2.20727e-11
-1.53457e-13
-2.12516e-11
-8.77984e-13
-2.04724e-11
-1.04477e-13
-1.97058e-11
-7.74348e-13
-1.89703e-11
-1.22846e-13
-1.82374e-11
-7.34838e-13
-1.75194e-11
-1.54993e-13
-1.68091e-11
-6.8968e-13
-1.61089e-11
-1.63173e-13
-1.54218e-11
-6.01651e-13
-1.47623e-11
-1.34398e-13
-1.41333e-11
-3.97975e-13
-1.35572e-11
-1.81949e-13
-1.30297e-11
-2.98052e-13
-1.25825e-11
1.02766e-14
-1.22004e-11
-8.7782e-14
-1.19095e-11
-6.70015e-15
-1.17108e-11
6.90983e-14
-1.16056e-11
2.23789e-13
-1.15956e-11
3.17652e-13
-1.16821e-11
2.63683e-13
-1.18562e-11
4.34967e-13
-1.21239e-11
4.99606e-13
-1.24629e-11
6.781e-13
-1.28799e-11
5.96762e-13
-1.33384e-11
7.03774e-13
-1.38437e-11
7.05284e-13
-1.43411e-11
7.87878e-13
-1.48322e-11
6.89338e-13
-1.52271e-11
5.93942e-13
-1.5524e-11
5.73438e-13
-1.55826e-11
2.44915e-13
-1.53982e-11
1.31371e-13
-1.46976e-11
-4.9578e-13
-1.35674e-11
-9.53873e-13
-1.13423e-11
-2.02884e-12
-8.26394e-12
-2.62409e-12
-2.52503e-12
-5.66744e-12
5.15359e-12
-7.47319e-12
2.52105e-11
-1.98912e-11
5.36104e-11
-2.83092e-11
-1.95081e-08
1.9562e-08
4.71813e-09
-6.53834e-08
-4.60484e-09
5.27484e-09
-7.37464e-10
6.78389e-09
-1.97001e-09
7.97806e-09
-1.56509e-09
7.5399e-09
5.77982e-10
6.18968e-09
1.77682e-09
5.9037e-09
3.64536e-10
5.52916e-09
4.93959e-10
4.99013e-09
7.0211e-10
4.54706e-09
5.79479e-10
4.09625e-09
5.87469e-10
3.71604e-09
4.96836e-10
3.34518e-09
4.83548e-10
3.04128e-09
3.97055e-10
2.74837e-09
3.81702e-10
2.4917e-09
3.35223e-10
2.26174e-09
2.99833e-10
2.04068e-09
2.88415e-10
1.85369e-09
2.43824e-10
1.67569e-09
2.32258e-10
1.50786e-09
2.18916e-10
1.3612e-09
1.91394e-10
1.21947e-09
1.84773e-10
1.08879e-09
1.70075e-10
9.70801e-10
1.54736e-10
8.56572e-10
1.48634e-10
7.53385e-10
1.35826e-10
6.57918e-10
1.24717e-10
5.66146e-10
1.19931e-10
4.85247e-10
1.05762e-10
4.09182e-10
9.96212e-11
3.37951e-10
9.33162e-11
2.75088e-10
8.25334e-11
2.16605e-10
7.66198e-11
1.63967e-10
6.86581e-11
1.17621e-10
6.19424e-11
7.55297e-11
5.44227e-11
3.93562e-11
4.86558e-11
7.84419e-12
4.16663e-11
-1.94275e-11
3.6386e-11
-4.18204e-11
2.96454e-11
-6.05992e-11
2.51172e-11
-7.55515e-11
2.01907e-11
-8.71503e-11
1.48348e-11
-9.58853e-11
1.3106e-11
-1.01858e-10
6.4863e-12
-1.05663e-10
7.67284e-12
-1.0748e-10
1.16121e-12
-1.07672e-10
3.26681e-12
-1.06464e-10
-7.99532e-13
-1.04063e-10
-1.91527e-12
-1.00767e-10
-4.83433e-12
-9.77333e-11
-2.03502e-12
-9.45341e-11
-4.56513e-12
-9.13512e-11
-1.85584e-12
-8.80536e-11
-4.23112e-12
-8.47923e-11
-2.31839e-12
-8.17247e-11
-4.21666e-12
-7.87187e-11
-1.88542e-12
-7.58012e-11
-3.45171e-12
-7.301e-11
-1.76196e-12
-7.0305e-11
-3.62164e-12
-6.77266e-11
-1.61001e-12
-6.51973e-11
-3.22534e-12
-6.27599e-11
-1.51626e-12
-6.03442e-11
-3.1432e-12
-5.79672e-11
-1.61523e-12
-5.56225e-11
-2.95678e-12
-5.33011e-11
-1.54953e-12
-5.10361e-11
-2.76965e-12
-4.88531e-11
-1.48257e-12
-4.67753e-11
-2.08831e-12
-4.4869e-11
-1.40303e-12
-4.31253e-11
-1.61561e-12
-4.16393e-11
-6.02411e-13
-4.03817e-11
-1.04103e-12
-3.94189e-11
-4.81844e-13
-3.87614e-11
-1.74659e-13
-3.84105e-11
5.07505e-13
-3.8379e-11
7.76091e-13
-3.86614e-11
1.0433e-12
-3.92403e-11
1.41163e-12
-4.01223e-11
1.94528e-12
-4.12454e-11
2.3322e-12
-4.26208e-11
2.50515e-12
-4.41401e-11
2.61396e-12
-4.58081e-11
2.90278e-12
-4.74543e-11
2.91283e-12
-4.90735e-11
2.87167e-12
-5.03825e-11
2.20739e-12
-5.13616e-11
2.15135e-12
-5.1555e-11
7.99012e-13
-5.09467e-11
1.80163e-13
-4.86241e-11
-2.45978e-12
-4.49014e-11
-4.31866e-12
-3.75252e-11
-9.03344e-12
-2.7397e-11
-1.20147e-11
-8.37713e-12
-2.4417e-11
1.68355e-11
-3.23544e-11
8.30131e-11
-8.57731e-11
1.55863e-10
-1.01066e-10
-4.03e-08
2.0948e-08
8.71953e-09
-6.56697e-08
-8.43214e-09
9.74149e-09
-1.75935e-09
1.25121e-08
-4.74099e-09
1.4688e-08
-3.74063e-09
1.39171e-08
1.34857e-09
1.14808e-08
4.21368e-09
1.09251e-08
9.20467e-10
1.0247e-08
1.17216e-09
9.25202e-09
1.69729e-09
8.4365e-09
1.39519e-09
7.60352e-09
1.42041e-09
6.9005e-09
1.20036e-09
6.21423e-09
1.16989e-09
5.65112e-09
9.60678e-10
5.10827e-09
9.24571e-10
4.63234e-09
8.11528e-10
4.20555e-09
7.26828e-10
3.79544e-09
6.98745e-10
3.44821e-09
5.91276e-10
3.11768e-09
5.63023e-10
2.80607e-09
5.30747e-10
2.53353e-09
4.64176e-10
2.27024e-09
4.48236e-10
2.02743e-09
4.12922e-10
1.80808e-09
3.74667e-10
1.59578e-09
3.60952e-10
1.40394e-09
3.28364e-10
1.2264e-09
3.02521e-10
1.05576e-09
2.90831e-10
9.05263e-10
2.56557e-10
7.63751e-10
2.41493e-10
6.31223e-10
2.26186e-10
5.14217e-10
1.99931e-10
4.05354e-10
1.85778e-10
3.07351e-10
1.6686e-10
2.2103e-10
1.49022e-10
1.42617e-10
1.32773e-10
7.52058e-11
1.16879e-10
1.64573e-11
1.0076e-10
-3.43977e-11
8.76787e-11
-7.61888e-11
7.17779e-11
-1.11249e-10
6.06342e-11
-1.39186e-10
4.85148e-11
-1.60887e-10
3.66301e-11
-1.77248e-10
3.03358e-11
-1.88472e-10
1.72767e-11
-1.95645e-10
1.6237e-11
-1.99123e-10
4.20311e-12
-1.99561e-10
5.1548e-12
-1.97394e-10
-2.48448e-12
-1.92994e-10
-5.75719e-12
-1.86932e-10
-1.09354e-11
-1.81333e-10
-6.66504e-12
-1.75426e-10
-1.04939e-11
-1.69536e-10
-6.60424e-12
-1.63436e-10
-1.0212e-11
-1.57395e-10
-7.55032e-12
-1.51715e-10
-9.97908e-12
-1.46142e-10
-6.61477e-12
-1.40736e-10
-8.6678e-12
-1.35556e-10
-6.23415e-12
-1.30545e-10
-8.6132e-12
-1.25759e-10
-5.69707e-12
-1.21071e-10
-7.86615e-12
-1.16543e-10
-5.42495e-12
-1.12066e-10
-7.54575e-12
-1.07653e-10
-5.44645e-12
-1.03304e-10
-7.22188e-12
-9.89911e-11
-5.32347e-12
-9.47924e-11
-6.78889e-12
-9.07388e-11
-4.981e-12
-8.68833e-11
-5.65519e-12
-8.33437e-11
-4.51831e-12
-8.01072e-11
-4.55806e-12
-7.7343e-11
-2.91584e-12
-7.50123e-11
-2.96692e-12
-7.32238e-11
-1.95527e-12
-7.20021e-11
-1.06876e-12
-7.13477e-11
1.95783e-13
-7.12898e-11
1.08912e-12
-7.18106e-11
1.74144e-12
-7.28868e-11
2.7997e-12
-7.45209e-11
3.8012e-12
-7.6607e-11
4.79707e-12
-7.91567e-11
5.22225e-12
-8.19791e-11
5.72359e-12
-8.50725e-11
6.17777e-12
-8.81293e-11
6.29182e-12
-9.11312e-11
6.04532e-12
-9.35636e-11
4.89107e-12
-9.53793e-11
4.23531e-12
-9.57394e-11
1.36929e-12
-9.46126e-11
-6.39695e-13
-9.03005e-11
-6.53799e-12
-8.34049e-11
-1.10337e-11
-6.97096e-11
-2.25076e-11
-5.09605e-11
-3.02846e-11
-1.56559e-11
-5.96408e-11
3.09488e-11
-7.87139e-11
1.53399e-10
-2.08039e-10
2.81556e-10
-2.29091e-10
-6.24405e-08
2.24225e-08
1.35478e-08
-6.61675e-08
-1.30518e-08
1.51421e-08
-3.35341e-09
1.94094e-08
-9.00865e-09
2.27549e-08
-7.08588e-09
2.16183e-08
2.48498e-09
1.79097e-08
7.92303e-09
1.70195e-08
1.81086e-09
1.5976e-08
2.21594e-09
1.4437e-08
3.23648e-09
1.31712e-08
2.66128e-09
1.18776e-08
2.71391e-09
1.07833e-08
2.29521e-09
9.71497e-09
2.23842e-09
8.8369e-09
1.83934e-09
7.99037e-09
1.77119e-09
7.2477e-09
1.55466e-09
6.58123e-09
1.39349e-09
5.94092e-09
1.33934e-09
5.39833e-09
1.13404e-09
4.88185e-09
1.0798e-09
4.39489e-09
1.01792e-09
3.96873e-09
8.90621e-10
3.55708e-09
8.60006e-10
3.17741e-09
7.92594e-10
2.83424e-09
7.18453e-10
2.50216e-09
6.93076e-10
2.20203e-09
6.29376e-10
1.92415e-09
5.80689e-10
1.65711e-09
5.5818e-10
1.4215e-09
4.92441e-10
1.19993e-09
4.63462e-10
9.92416e-10
4.34096e-10
8.09127e-10
3.83706e-10
6.38576e-10
3.56677e-10
4.85002e-10
3.20587e-10
3.49686e-10
2.85335e-10
2.26741e-10
2.55595e-10
1.21007e-10
2.23481e-10
2.88212e-11
1.9342e-10
-5.10039e-11
1.68159e-10
-1.16647e-10
1.37746e-10
-1.71746e-10
1.16155e-10
-2.15688e-10
9.29861e-11
-2.49863e-10
7.06584e-11
-2.75663e-10
5.7141e-11
-2.93414e-10
3.44074e-11
-3.04807e-10
2.90702e-11
-3.10406e-10
9.30135e-12
-3.11228e-10
7.66012e-12
-3.07965e-10
-5.24677e-12
-3.0119e-10
-1.16334e-11
-2.91807e-10
-2.0603e-11
-2.83116e-10
-1.43482e-11
-2.73936e-10
-1.98158e-11
-2.64769e-10
-1.44928e-11
-2.55274e-10
-1.95538e-11
-2.4586e-10
-1.56994e-11
-2.37008e-10
-1.87778e-11
-2.28316e-10
-1.3998e-11
-2.19886e-10
-1.67293e-11
-2.118e-10
-1.30026e-11
-2.03984e-10
-1.63665e-11
-1.96512e-10
-1.20096e-11
-1.89196e-10
-1.49908e-11
-1.82124e-10
-1.13448e-11
-1.75137e-10
-1.44414e-11
-1.68244e-10
-1.1341e-11
-1.61455e-10
-1.38363e-11
-1.54716e-10
-1.10255e-11
-1.48162e-10
-1.31689e-11
-1.41829e-10
-1.04033e-11
-1.35808e-10
-1.11903e-11
-1.30277e-10
-9.26631e-12
-1.25222e-10
-9.06394e-12
-1.20899e-10
-6.23309e-12
-1.17259e-10
-6.26787e-12
-1.14463e-10
-4.19414e-12
-1.12552e-10
-2.48118e-12
-1.11527e-10
-8.53359e-14
-1.11435e-10
1.55111e-12
-1.12245e-10
3.19687e-12
-1.13926e-10
4.95357e-12
-1.16476e-10
7.04344e-12
-1.19735e-10
8.66364e-12
-1.23714e-10
9.89104e-12
-1.28124e-10
1.06002e-11
-1.32954e-10
1.16655e-11
-1.3773e-10
1.16281e-11
-1.42417e-10
1.14375e-11
-1.46219e-10
9.07244e-12
-1.49055e-10
7.78169e-12
-1.49621e-10
2.38449e-12
-1.47866e-10
-1.62207e-12
-1.41137e-10
-1.28281e-11
-1.30383e-10
-2.1342e-11
-1.09008e-10
-4.34148e-11
-7.97758e-11
-5.8694e-11
-2.46923e-11
-1.14343e-10
4.78752e-11
-1.50885e-10
2.38299e-10
-3.98103e-10
4.33515e-10
-4.242e-10
-8.59961e-08
2.39893e-08
1.93384e-08
-6.69354e-08
-1.85693e-08
2.16284e-08
-5.6434e-09
2.76583e-08
-1.50388e-08
3.23876e-08
-1.18149e-08
3.08572e-08
4.0152e-09
2.56707e-08
1.311e-08
2.43695e-08
3.11225e-09
2.28888e-08
3.6968e-09
2.07056e-08
5.41985e-09
1.8899e-08
4.46808e-09
1.70542e-08
4.55876e-09
1.54887e-08
3.86115e-09
1.39605e-08
3.7668e-09
1.27022e-08
3.09807e-09
1.1489e-08
2.98445e-09
1.04238e-08
2.62015e-09
9.46736e-09
2.35019e-09
8.54841e-09
2.25855e-09
7.76917e-09
1.91354e-09
7.02733e-09
1.82191e-09
6.32787e-09
1.71763e-09
5.71535e-09
1.50343e-09
5.12377e-09
1.4518e-09
4.57803e-09
1.33848e-09
4.08455e-09
1.21245e-09
3.60707e-09
1.17069e-09
3.17541e-09
1.06163e-09
2.77563e-09
9.80761e-10
2.39146e-09
9.42652e-10
2.05239e-09
8.31869e-10
1.73346e-09
7.82807e-10
1.43474e-09
7.33205e-10
1.17079e-09
6.48104e-10
9.25153e-10
6.02682e-10
7.03907e-10
5.42172e-10
5.08888e-10
4.80995e-10
3.31661e-10
4.32957e-10
1.79183e-10
3.76644e-10
4.61852e-11
3.26803e-10
-6.90236e-11
2.83855e-10
-1.63829e-10
2.32955e-10
-2.43453e-10
1.96327e-10
-3.0701e-10
1.56986e-10
-3.56502e-10
1.20467e-10
-3.93923e-10
9.53258e-11
-4.19744e-10
6.01633e-11
-4.36392e-10
4.68537e-11
-4.44685e-10
1.75233e-11
-4.4608e-10
1.01897e-11
-4.41583e-10
-9.18154e-12
-4.32006e-10
-2.05983e-11
-4.18668e-10
-3.37078e-11
-4.06272e-10
-2.59038e-11
-3.93164e-10
-3.26974e-11
-3.80057e-10
-2.66276e-11
-3.66474e-10
-3.28866e-11
-3.52994e-10
-2.85487e-11
-3.40314e-10
-3.1397e-11
-3.27856e-10
-2.58327e-11
-3.15774e-10
-2.85611e-11
-3.04177e-10
-2.40942e-11
-2.9297e-10
-2.74266e-11
-2.8225e-10
-2.22188e-11
-2.71754e-10
-2.53608e-11
-2.61604e-10
-2.10749e-11
-2.51581e-10
-2.42835e-11
-2.41687e-10
-2.08074e-11
-2.31944e-10
-2.34213e-11
-2.22269e-10
-2.03353e-11
-2.12863e-10
-2.22928e-11
-2.0377e-10
-1.90651e-11
-1.95126e-10
-1.95534e-11
-1.87183e-10
-1.68635e-11
-1.79923e-10
-1.60368e-11
-1.73711e-10
-1.21441e-11
-1.68485e-10
-1.10544e-11
-1.64466e-10
-7.91219e-12
-1.61719e-10
-4.91259e-12
-1.60242e-10
-1.30439e-12
-1.60107e-10
1.73236e-12
-1.61266e-10
4.47044e-12
-1.63678e-10
7.65033e-12
-1.67334e-10
1.08308e-11
-1.72013e-10
1.36533e-11
-1.77724e-10
1.56949e-11
-1.84056e-10
1.71854e-11
-1.90988e-10
1.86917e-11
-1.97847e-10
1.87445e-11
-2.04575e-10
1.82416e-11
-2.10039e-10
1.4781e-11
-2.14113e-10
1.20287e-11
-2.14934e-10
3.38849e-12
-2.12423e-10
-3.93583e-12
-2.02779e-10
-2.22193e-11
-1.87362e-10
-3.65752e-11
-1.56717e-10
-7.3855e-11
-1.14819e-10
-1.00241e-10
-3.58656e-11
-1.9321e-10
6.80112e-11
-2.54497e-10
3.40004e-10
-6.69905e-10
6.15978e-10
-6.99997e-10
-1.11032e-07
2.56525e-08
2.62417e-08
-6.80647e-08
-2.51138e-08
2.93738e-08
-8.77514e-09
3.74652e-08
-2.31306e-08
4.38214e-08
-1.81708e-08
4.18767e-08
5.95979e-09
3.49882e-08
1.99992e-08
3.31853e-08
4.9154e-09
3.11847e-08
5.6977e-09
2.82438e-08
8.36105e-09
2.57917e-08
6.92049e-09
2.32909e-08
7.05953e-09
2.11612e-08
5.99139e-09
1.90826e-08
5.84566e-09
1.73678e-08
4.81348e-09
1.57143e-08
4.63805e-09
1.42614e-08
4.07359e-09
1.29559e-08
3.65594e-09
1.17015e-08
3.51327e-09
1.0637e-08
2.9782e-09
9.62354e-09
2.83573e-09
8.66788e-09
2.67354e-09
7.83045e-09
2.3412e-09
7.02175e-09
2.26065e-09
6.27557e-09
2.08473e-09
5.60052e-09
1.88812e-09
4.94743e-09
1.82393e-09
4.35683e-09
1.65313e-09
3.8097e-09
1.52824e-09
3.28394e-09
1.46878e-09
2.81971e-09
1.29641e-09
2.38299e-09
1.21999e-09
1.9739e-09
1.14275e-09
1.61227e-09
1.0103e-09
1.27568e-09
9.39695e-10
9.72433e-10
8.45681e-10
7.0502e-10
7.49443e-10
4.61947e-10
6.76012e-10
2.52729e-10
5.86717e-10
7.01565e-11
5.09937e-10
-8.8063e-11
4.42861e-10
-2.18354e-10
3.63612e-10
-3.27853e-10
3.06312e-10
-4.15337e-10
2.45102e-10
-4.83553e-10
1.88627e-10
-5.35215e-10
1.47998e-10
-5.7097e-10
9.54568e-11
-5.94136e-10
7.13989e-11
-6.05834e-10
2.89248e-11
-6.08058e-10
1.40665e-11
-6.02188e-10
-1.44666e-11
-5.89337e-10
-3.23712e-11
-5.71312e-10
-5.19174e-11
-5.54511e-10
-4.17612e-11
-5.36715e-10
-5.04946e-11
-5.18894e-10
-4.31737e-11
-5.00417e-10
-5.10648e-11
-4.82063e-10
-4.55444e-11
-4.64788e-10
-4.84459e-11
-4.4781e-10
-4.14203e-11
-4.31338e-10
-4.44948e-11
-4.15521e-10
-3.84553e-11
-4.00236e-10
-4.25103e-11
-3.85607e-10
-3.56015e-11
-3.71287e-10
-3.93397e-11
-3.57434e-10
-3.36655e-11
-3.43754e-10
-3.77552e-11
-3.30247e-10
-3.32312e-11
-3.16949e-10
-3.64168e-11
-3.03738e-10
-3.24037e-11
-2.90897e-10
-3.48526e-11
-2.78479e-10
-3.04946e-11
-2.66675e-10
-3.07478e-11
-2.55825e-10
-2.6825e-11
-2.45907e-10
-2.52522e-11
-2.37418e-10
-1.94836e-11
-2.30277e-10
-1.78047e-11
-2.24782e-10
-1.27754e-11
-2.21025e-10
-8.06703e-12
-2.19001e-10
-2.45853e-12
-2.18813e-10
2.1772e-12
-2.20388e-10
6.85522e-12
-2.23679e-10
1.1509e-11
-2.28668e-10
1.66545e-11
-2.35055e-10
2.07421e-11
-2.42851e-10
2.43506e-11
-2.51499e-10
2.63948e-11
-2.60965e-10
2.8957e-11
-2.70335e-10
2.87725e-11
-2.79524e-10
2.8289e-11
-2.86993e-10
2.27265e-11
-2.92563e-10
1.84307e-11
-2.93699e-10
5.08215e-12
-2.90285e-10
-6.45148e-12
-2.77148e-10
-3.48208e-11
-2.5613e-10
-5.70378e-11
-2.14354e-10
-1.15042e-10
-1.57237e-10
-1.56436e-10
-4.96368e-11
-3.003e-10
9.17885e-11
-3.95448e-10
4.61103e-10
-1.03878e-09
8.3387e-10
-1.07264e-09
-1.37614e-07
2.74162e-08
3.44282e-08
-6.96561e-08
-3.28355e-08
3.85748e-08
-1.29217e-08
4.9062e-08
-3.3618e-08
5.73197e-08
-2.64282e-08
5.49521e-08
8.32722e-09
4.61197e-08
2.88321e-08
4.37088e-08
7.32645e-09
4.10933e-08
8.31339e-09
3.72663e-08
1.21882e-08
3.40479e-08
1.01391e-08
3.07708e-08
1.03367e-08
2.7969e-08
8.7936e-09
2.5235e-08
8.57993e-09
2.29747e-08
7.07412e-09
2.07951e-08
6.81777e-09
1.8878e-08
5.991e-09
1.71543e-08
5.37989e-09
1.54979e-08
5.16993e-09
1.40913e-08
4.38512e-09
1.27518e-08
4.17551e-09
1.14887e-08
3.937e-09
1.0381e-08
3.44916e-09
9.31147e-09
3.33046e-09
8.3244e-09
3.07206e-09
7.43097e-09
2.78201e-09
6.56671e-09
2.68846e-09
5.78492e-09
2.43545e-09
5.06041e-09
2.25309e-09
4.36422e-09
2.16531e-09
3.74925e-09
1.9118e-09
3.17061e-09
1.79909e-09
2.62852e-09
1.68529e-09
2.14911e-09
1.4902e-09
1.70281e-09
1.38644e-09
1.30061e-09
1.24838e-09
9.45779e-10
1.10485e-09
6.23162e-10
9.98957e-10
3.45351e-10
8.65134e-10
1.02801e-10
7.52916e-10
-1.07491e-10
6.53661e-10
-2.80793e-10
5.37409e-10
-4.2654e-10
4.52702e-10
-5.431e-10
3.62147e-10
-6.34117e-10
2.80184e-10
-7.03168e-10
2.17755e-10
-7.51107e-10
1.43675e-10
-7.82327e-10
1.03582e-10
-7.98315e-10
4.5185e-11
-8.01708e-10
1.83771e-11
-7.94342e-10
-2.11835e-11
-7.77687e-10
-4.83948e-11
-7.54146e-10
-7.49772e-11
-7.32127e-10
-6.30387e-11
-7.08767e-10
-7.33784e-11
-6.85339e-10
-6.5729e-11
-6.6103e-10
-7.4971e-11
-6.36861e-10
-6.91865e-11
-6.14099e-10
-7.09829e-11
-5.91716e-10
-6.33167e-11
-5.69997e-10
-6.58599e-11
-5.49129e-10
-5.89349e-11
-5.28964e-10
-6.23814e-11
-5.09655e-10
-5.45101e-11
-4.90755e-10
-5.80057e-11
-4.72462e-10
-5.16571e-11
-4.54404e-10
-5.55044e-11
-4.36568e-10
-5.07276e-11
-4.19006e-10
-5.37187e-11
-4.01558e-10
-4.9589e-11
-3.84598e-10
-5.1408e-11
-3.68192e-10
-4.65364e-11
-3.52597e-10
-4.60305e-11
-3.38259e-10
-4.08479e-11
-3.25153e-10
-3.80342e-11
-3.13928e-10
-3.0483e-11
-3.04488e-10
-2.6751e-11
-2.97219e-10
-1.97286e-11
-2.92246e-10
-1.27055e-11
-2.89562e-10
-4.91436e-12
-2.89306e-10
2.22957e-12
-2.91378e-10
9.02959e-12
-2.9572e-10
1.61522e-11
-3.02304e-10
2.33335e-11
-3.1074e-10
2.94737e-11
-3.21035e-10
3.47156e-11
-3.32461e-10
3.80825e-11
-3.44967e-10
4.15211e-11
-3.57351e-10
4.13962e-11
-3.69495e-10
4.04634e-11
-3.79374e-10
3.28815e-11
-3.86746e-10
2.59317e-11
-3.88271e-10
6.80244e-12
-3.83788e-10
-1.07942e-11
-3.66483e-10
-5.18862e-11
-3.3877e-10
-8.45988e-11
-2.83697e-10
-1.69885e-10
-2.08382e-10
-2.31469e-10
-6.65654e-11
-4.41997e-10
1.19674e-10
-5.81417e-10
6.04514e-10
-1.52344e-09
1.09275e-09
-1.56066e-09
-1.65805e-07
2.92844e-08
4.40905e-08
-7.18449e-08
-4.19028e-08
4.94536e-08
-1.82844e-08
6.27085e-08
-4.68731e-08
7.31768e-08
-3.68964e-08
7.03944e-08
1.11097e-08
5.93603e-08
3.98668e-08
5.62174e-08
1.04697e-08
5.2878e-08
1.16532e-08
4.80213e-08
1.70451e-08
4.38977e-08
1.42631e-08
3.97064e-08
1.45281e-08
3.61075e-08
1.2393e-08
3.25964e-08
1.20914e-08
2.96872e-08
9.98396e-09
2.68815e-08
9.62373e-09
2.44111e-08
8.46187e-09
2.21884e-08
7.60283e-09
2.00522e-08
7.30654e-09
1.82367e-08
6.20088e-09
1.65075e-08
5.9051e-09
1.48767e-08
5.56812e-09
1.34456e-08
4.88066e-09
1.20639e-08
4.71233e-09
1.07885e-08
4.34768e-09
9.63341e-09
3.9377e-09
8.51618e-09
3.80596e-09
7.50521e-09
3.44737e-09
6.56798e-09
3.19072e-09
5.6674e-09
3.06633e-09
4.87153e-09
2.70803e-09
4.12254e-09
2.54863e-09
3.42077e-09
2.38759e-09
2.79984e-09
2.11181e-09
2.22168e-09
1.9651e-09
1.70049e-09
1.76996e-09
1.24046e-09
1.56598e-09
8.22083e-10
1.41743e-09
4.61636e-10
1.22646e-09
1.4677e-10
1.06844e-09
-1.26356e-10
9.27726e-10
-3.51615e-10
7.63087e-10
-5.41202e-10
6.42863e-10
-6.92983e-10
5.14686e-10
-8.11679e-10
3.98938e-10
-9.01896e-10
3.09016e-10
-9.64735e-10
2.06212e-10
-1.00588e-09
1.46112e-10
-1.02725e-09
6.64618e-11
-1.03227e-09
2.50836e-11
-1.02331e-09
-2.94549e-11
-1.00227e-09
-6.8149e-11
-9.7227e-10
-1.05057e-10
-9.44107e-10
-9.03115e-11
-9.14171e-10
-1.0316e-10
-8.84099e-10
-9.44777e-11
-8.52873e-10
-1.05724e-10
-8.21797e-10
-9.87679e-11
-7.92506e-10
-9.98538e-11
-7.63692e-10
-9.06035e-11
-7.35722e-10
-9.30838e-11
-7.08836e-10
-8.41759e-11
-6.82851e-10
-8.80022e-11
-6.57962e-10
-7.80198e-11
-6.33597e-10
-8.18515e-11
-6.1001e-10
-7.38212e-11
-5.86724e-10
-7.84417e-11
-5.6372e-10
-7.25238e-11
-5.4107e-10
-7.59086e-11
-5.18561e-10
-7.08083e-11
-4.96682e-10
-7.28738e-11
-4.75512e-10
-6.66057e-11
-4.55387e-10
-6.53867e-11
-4.3688e-10
-5.83321e-11
-4.19961e-10
-5.40575e-11
-4.05465e-10
-4.36426e-11
-3.93273e-10
-3.84717e-11
-3.8388e-10
-2.84063e-11
-3.77449e-10
-1.83987e-11
-3.73972e-10
-7.35856e-12
-3.73629e-10
2.63431e-12
-3.76292e-10
1.26945e-11
-3.81886e-10
2.24443e-11
-3.90373e-10
3.28315e-11
-4.01254e-10
4.11882e-11
-4.14535e-10
4.90555e-11
-4.29279e-10
5.35172e-11
-4.45418e-10
5.86304e-11
-4.61406e-10
5.81742e-11
-4.77085e-10
5.71788e-11
-4.89853e-10
4.62562e-11
-4.99386e-10
3.64474e-11
-5.01392e-10
9.50336e-12
-4.95648e-10
-1.54856e-11
-4.73396e-10
-7.34922e-11
-4.37716e-10
-1.19601e-10
-3.66826e-10
-2.40037e-10
-2.6984e-10
-3.2739e-10
-8.73295e-11
-6.23851e-10
1.52167e-10
-8.20354e-10
7.73513e-10
-2.14427e-09
1.3989e-09
-2.18591e-09
-1.95667e-07
3.12613e-08
5.54452e-08
-7.47871e-08
-5.25017e-08
6.22605e-08
-2.50998e-08
7.86943e-08
-6.33069e-08
9.17199e-08
-4.99218e-08
8.85533e-08
1.42763e-08
7.50473e-08
5.33731e-08
7.1029e-08
1.44881e-08
6.68414e-08
1.58411e-08
6.07945e-08
2.30923e-08
5.56066e-08
1.94513e-08
5.03434e-08
1.97914e-08
4.58034e-08
1.69334e-08
4.13748e-08
1.65202e-08
3.76965e-08
1.36626e-08
3.41485e-08
1.3172e-08
3.10211e-08
1.15895e-08
2.82052e-08
1.04191e-08
2.54983e-08
1.00138e-08
2.31958e-08
8.50368e-09
2.10024e-08
8.09885e-09
1.89335e-08
7.63736e-09
1.71166e-08
6.69792e-09
1.53626e-08
6.46668e-09
1.3743e-08
5.96759e-09
1.22755e-08
5.40566e-09
1.08562e-08
5.22563e-09
9.57141e-09
4.73259e-09
8.3799e-09
4.38263e-09
7.23498e-09
4.21166e-09
6.22273e-09
3.72078e-09
5.26987e-09
3.50203e-09
4.37697e-09
3.28101e-09
3.58652e-09
2.90283e-09
2.85037e-09
2.70179e-09
2.18653e-09
2.43441e-09
1.60028e-09
2.15275e-09
1.06697e-09
1.95124e-09
6.07257e-10
1.68673e-09
2.05452e-10
1.47074e-09
-1.43276e-10
1.27703e-09
-4.31128e-10
1.05153e-09
-6.73591e-10
8.861e-10
-8.67921e-10
7.09581e-10
-1.02013e-09
5.51878e-10
-1.13605e-09
4.25637e-10
-1.21707e-09
2.87819e-10
-1.27042e-09
2.00285e-10
-1.29854e-09
9.51507e-11
-1.30577e-09
3.30311e-11
-1.29514e-09
-3.93174e-11
-1.26909e-09
-9.34982e-11
-1.23157e-09
-1.41825e-10
-1.19621e-09
-1.2495e-10
-1.15854e-09
-1.40151e-10
-1.12063e-09
-1.31589e-10
-1.08123e-09
-1.44624e-10
-1.04198e-09
-1.376e-10
-1.00495e-09
-1.36548e-10
-9.68513e-10
-1.26711e-10
-9.33125e-10
-1.28101e-10
-8.99094e-10
-1.17976e-10
-8.66196e-10
-1.20515e-10
-8.34673e-10
-1.0927e-10
-8.03814e-10
-1.12441e-10
-7.7393e-10
-1.03561e-10
-7.44428e-10
-1.07556e-10
-7.15276e-10
-1.01437e-10
-6.86573e-10
-1.04316e-10
-6.58043e-10
-9.92114e-11
-6.30309e-10
-1.00119e-10
-6.03467e-10
-9.31577e-11
-5.77949e-10
-9.06126e-11
-5.54474e-10
-8.15382e-11
-5.33012e-10
-7.52182e-11
-5.14616e-10
-6.19517e-11
-4.99141e-10
-5.33951e-11
-4.87213e-10
-3.99982e-11
-4.79039e-10
-2.62543e-11
-4.74611e-10
-1.16331e-11
-4.7416e-10
2.43693e-12
-4.77519e-10
1.60973e-11
-4.846e-10
2.9789e-11
-4.95349e-10
4.35939e-11
-5.09139e-10
5.52049e-11
-5.25974e-10
6.58896e-11
-5.44671e-10
7.24356e-11
-5.65137e-10
7.90759e-11
-5.85422e-10
7.86213e-11
-6.05316e-10
7.70108e-11
-6.21533e-10
6.27249e-11
-6.33652e-10
4.8618e-11
-6.36251e-10
1.22564e-11
-6.29031e-10
-2.26598e-11
-6.0093e-10
-1.01336e-10
-5.55806e-10
-1.64573e-10
-4.6617e-10
-3.29462e-10
-3.43477e-10
-4.49913e-10
-1.12751e-10
-8.54464e-10
1.89796e-10
-1.12261e-09
9.71767e-10
-2.92605e-09
1.75941e-09
-2.97327e-09
-2.27258e-07
3.33505e-08
6.87345e-08
-7.86844e-08
-6.48381e-08
7.72765e-08
-3.36414e-08
9.73413e-08
-8.33719e-08
1.1331e-07
-6.58907e-08
1.0982e-07
1.77665e-08
9.35647e-08
6.96294e-08
8.85067e-08
1.95464e-08
8.33295e-08
2.10189e-08
7.59144e-08
3.05076e-08
6.9481e-08
2.58851e-08
6.29667e-08
2.63059e-08
5.73196e-08
2.2581e-08
5.18118e-08
2.20286e-08
4.72253e-08
1.82497e-08
4.28002e-08
1.75974e-08
3.88951e-08
1.54952e-08
3.53761e-08
1.39384e-08
3.19926e-08
1.33978e-08
2.91121e-08
1.13845e-08
2.63673e-08
1.08441e-08
2.3778e-08
1.0227e-08
2.15022e-08
8.97421e-09
1.93054e-08
8.66373e-09
1.72764e-08
7.99683e-09
1.54368e-08
7.24589e-09
1.36578e-08
7.00503e-09
1.20469e-08
6.34456e-09
1.05523e-08
5.87772e-09
9.11606e-09
5.64838e-09
7.84566e-09
4.9916e-09
6.6495e-09
4.69885e-09
5.52845e-09
4.40268e-09
4.53548e-09
3.8966e-09
3.61052e-09
3.62735e-09
2.77611e-09
3.26937e-09
2.03883e-09
2.89123e-09
1.3679e-09
2.62239e-09
7.89244e-10
2.26633e-09
2.8317e-10
1.97758e-09
-1.56305e-10
1.71764e-09
-5.19384e-10
1.41509e-09
-8.25477e-10
1.19289e-09
-1.0711e-09
9.56129e-10
-1.2638e-09
7.44781e-10
-1.41087e-09
5.73813e-10
-1.51402e-09
3.9084e-10
-1.58236e-09
2.70066e-10
-1.6189e-09
1.31805e-10
-1.62913e-09
4.50482e-11
-1.61684e-09
-5.07719e-11
-1.5851e-09
-1.23704e-10
-1.53887e-09
-1.88021e-10
-1.4951e-09
-1.67864e-10
-1.44836e-09
-1.86558e-10
-1.40125e-09
-1.77286e-10
-1.35222e-09
-1.92973e-10
-1.30333e-09
-1.84825e-10
-1.25717e-09
-1.82077e-10
-1.21172e-09
-1.70464e-10
-1.16756e-09
-1.71278e-10
-1.12507e-09
-1.586e-10
-1.08399e-09
-1.61048e-10
-1.0446e-09
-1.47105e-10
-1.00605e-09
-1.50278e-10
-9.68703e-10
-1.39294e-10
-9.3183e-10
-1.43917e-10
-8.9539e-10
-1.36514e-10
-8.59506e-10
-1.39564e-10
-8.23833e-10
-1.3342e-10
-7.89151e-10
-1.34234e-10
-7.55579e-10
-1.25492e-10
-7.23657e-10
-1.21584e-10
-6.94281e-10
-1.09734e-10
-6.67423e-10
-1.00963e-10
-6.4439e-10
-8.3435e-11
-6.25011e-10
-7.21958e-11
-6.10065e-10
-5.41324e-11
-5.99813e-10
-3.56172e-11
-5.94249e-10
-1.59777e-11
-5.93662e-10
2.73824e-12
-5.9784e-10
2.14875e-11
-6.0668e-10
3.94819e-11
-6.2011e-10
5.82301e-11
-6.37351e-10
7.34389e-11
-6.58402e-10
8.82126e-11
-6.81792e-10
9.66685e-11
-7.07398e-10
1.05841e-10
-7.32789e-10
1.04955e-10
-7.57695e-10
1.03142e-10
-7.7802e-10
8.38112e-11
-7.93227e-10
6.49773e-11
-7.96558e-10
1.64377e-11
-7.87614e-10
-3.03824e-11
-7.52624e-10
-1.35542e-10
-6.96344e-10
-2.20026e-10
-5.84571e-10
-4.40328e-10
-4.31483e-10
-6.01766e-10
-1.43824e-10
-1.14131e-09
2.3311e-10
-1.49888e-09
1.20336e-09
-3.89568e-09
2.18226e-09
-3.95201e-09
-2.60631e-07
3.55557e-08
8.4228e-08
-8.37721e-08
-7.91387e-08
9.48152e-08
-4.42287e-08
1.19004e-07
-1.07561e-07
1.38346e-07
-8.52319e-08
1.34632e-07
2.14803e-08
1.15348e-07
8.89139e-08
1.09064e-07
2.583e-08
1.02737e-07
2.73459e-08
9.37583e-08
3.9487e-08
8.58738e-08
3.37699e-08
7.7905e-08
3.42748e-08
7.09607e-08
2.95256e-08
6.41878e-08
2.88018e-08
5.85324e-08
2.39055e-08
5.30742e-08
2.30558e-08
4.82514e-08
2.03183e-08
4.39017e-08
1.82885e-08
3.97182e-08
1.75816e-08
3.61533e-08
1.49498e-08
3.27555e-08
1.42423e-08
2.95497e-08
1.34332e-08
2.67296e-08
1.17947e-08
2.40075e-08
1.13862e-08
2.14927e-08
1.05121e-08
1.92111e-08
9.52787e-09
1.70049e-08
9.2117e-09
1.50064e-08
8.34357e-09
1.31513e-08
7.73324e-09
1.13687e-08
7.4314e-09
9.79107e-09
6.56979e-09
8.30525e-09
6.18525e-09
6.91248e-09
5.79602e-09
5.67814e-09
5.13153e-09
4.52803e-09
4.77811e-09
3.49012e-09
4.30802e-09
2.5725e-09
3.8094e-09
1.73717e-09
3.45839e-09
1.01629e-09
2.98777e-09
3.85429e-10
2.60898e-09
-1.62753e-10
2.26637e-09
-6.16067e-10
1.86911e-09
-9.98585e-10
1.57626e-09
-1.30592e-09
1.2641e-09
-1.54746e-09
9.8726e-10
-1.73221e-09
7.59326e-10
-1.86229e-09
5.21798e-10
-1.94898e-09
3.57553e-10
-1.99604e-09
1.79723e-10
-2.01028e-09
5.99221e-11
-1.99642e-09
-6.37433e-11
-1.95827e-09
-1.61119e-10
-1.902e-09
-2.43293e-10
-1.84846e-09
-2.2065e-10
-1.79115e-09
-2.42975e-10
-1.73325e-09
-2.34376e-10
-1.67294e-09
-2.52656e-10
-1.61272e-09
-2.44649e-10
-1.55581e-09
-2.38526e-10
-1.49973e-09
-2.2626e-10
-1.44522e-09
-2.25343e-10
-1.39276e-09
-2.10901e-10
-1.34201e-09
-2.11284e-10
-1.29334e-09
-1.95535e-10
-1.2457e-09
-1.97579e-10
-1.19953e-09
-1.85389e-10
-1.15394e-09
-1.89002e-10
-1.10888e-09
-1.8136e-10
-1.0645e-09
-1.83571e-10
-1.02038e-09
-1.77474e-10
-9.7748e-10
-1.76534e-10
-9.35938e-10
-1.66757e-10
-8.96433e-10
-1.60775e-10
-8.60069e-10
-1.45826e-10
-8.26814e-10
-1.33893e-10
-7.98285e-10
-1.11941e-10
-7.74274e-10
-9.55656e-11
-7.55745e-10
-7.22727e-11
-7.43023e-10
-4.80036e-11
-7.36102e-10
-2.27668e-11
-7.35344e-10
2.2378e-12
-7.40484e-10
2.66662e-11
-7.51399e-10
5.06781e-11
-7.67996e-10
7.48185e-11
-7.8932e-10
9.49807e-11
-8.15361e-10
1.14236e-10
-8.44308e-10
1.2585e-10
-8.76002e-10
1.3749e-10
-9.07447e-10
1.3654e-10
-9.38297e-10
1.33887e-10
-9.63504e-10
1.09294e-10
-9.82387e-10
8.3888e-11
-9.8662e-10
2.08276e-11
-9.75676e-10
-4.13232e-11
-9.32599e-10
-1.78371e-10
-8.63179e-10
-2.89331e-10
-7.25344e-10
-5.77932e-10
-5.36429e-10
-7.90561e-10
-1.81754e-10
-1.49585e-09
2.82666e-10
-1.96299e-09
1.47281e-09
-5.08563e-09
2.67642e-09
-5.15527e-09
-2.95834e-07
3.78804e-08
1.02224e-07
-9.03453e-08
-9.56518e-08
1.15225e-07
-5.72289e-08
1.44074e-07
-1.3641e-07
1.6726e-07
-1.08418e-07
1.63472e-07
2.52687e-08
1.40889e-07
1.11498e-07
1.33172e-07
3.35472e-08
1.25516e-07
3.50032e-08
1.14758e-07
5.0245e-08
1.0519e-07
4.3338e-08
9.55378e-08
4.39276e-08
8.70789e-08
3.7985e-08
7.88281e-08
3.70533e-08
7.19184e-08
3.08161e-08
6.52472e-08
2.97274e-08
5.93445e-08
2.62216e-08
5.40157e-08
2.36178e-08
4.8889e-08
2.27089e-08
4.45159e-08
1.93231e-08
4.03465e-08
1.84123e-08
3.6412e-08
1.73681e-08
3.29478e-08
1.52596e-08
2.96041e-08
1.47302e-08
2.6514e-08
1.36026e-08
2.37087e-08
1.23339e-08
2.09963e-08
1.19247e-08
1.85381e-08
1.08029e-08
1.62553e-08
1.00166e-08
1.40617e-08
9.62568e-09
1.21192e-08
8.51281e-09
1.02892e-08
8.01603e-09
8.57347e-09
7.51243e-09
7.05199e-09
6.65398e-09
5.63396e-09
6.19684e-09
4.35375e-09
5.58896e-09
3.22118e-09
4.9433e-09
2.18981e-09
4.49013e-09
1.29918e-09
3.87945e-09
5.19222e-10
3.38985e-09
-1.58959e-10
2.94591e-09
-7.20334e-10
2.43104e-09
-1.1945e-09
2.0513e-09
-1.57599e-09
1.64672e-09
-1.87636e-09
1.28802e-09
-2.10664e-09
9.90822e-10
-2.26941e-09
6.84627e-10
-2.37858e-09
4.68313e-10
-2.43874e-09
2.40231e-10
-2.45831e-09