/*--------------------------------*- C++ -*----------------------------------*\
| =========                 |                                                 |
| \\      /  F ield         | OpenFOAM: The Open Source CFD Toolbox           |
|  \\    /   O peration     | Version:  5.x                                   |
|   \\  /    A nd           | Web:      www.OpenFOAM.org                      |
|    \\/     M anipulation  |                                                 |
\*---------------------------------------------------------------------------*/
FoamFile
{
    version     2.0;
    format      ascii;
    class       volVectorField;
    location    "3000";
    object      U;
}
// * * * * * * * * * * * * * * * * * * * * * * * * * * * * * * * * * * * * * //

dimensions      [0 1 -1 0 0 0 0];

internalField   nonuniform List<vector> 
107912
(
(2.8034e-08 9.58518e-07 -1.03449e-30)
(1.30822e-08 6.71908e-07 9.87706e-31)
(3.48446e-08 8.74164e-07 3.32171e-27)
(1.05117e-07 9.63263e-07 1.28894e-26)
(3.43598e-07 1.12943e-06 1.77231e-26)
(4.32738e-07 8.13865e-07 4.84647e-26)
(4.04582e-07 7.09841e-07 4.93153e-27)
(4.5505e-07 6.72737e-07 2.05741e-30)
(4.41536e-07 5.65123e-07 -5.29052e-30)
(4.48111e-07 5.08136e-07 -6.46399e-30)
(4.25874e-07 4.33224e-07 -7.04771e-30)
(4.14938e-07 3.84126e-07 5.69953e-26)
(3.91592e-07 3.31947e-07 1.08727e-25)
(3.74065e-07 2.9297e-07 4.24971e-29)
(3.52972e-07 2.56897e-07 -1.09593e-25)
(3.33695e-07 2.26298e-07 1.11266e-25)
(3.1463e-07 2.00042e-07 1.32038e-29)
(2.96291e-07 1.76664e-07 0)
(2.78649e-07 1.56322e-07 -2.08987e-25)
(2.62589e-07 1.39081e-07 -9.80924e-26)
(2.46451e-07 1.2304e-07 0)
(2.31606e-07 1.09347e-07 0)
(2.17678e-07 9.72225e-08 -8.69017e-26)
(2.04043e-07 8.60802e-08 8.44161e-26)
(1.91438e-07 7.64968e-08 8.14482e-26)
(1.79514e-07 6.78159e-08 1.52035e-25)
(1.67923e-07 5.99022e-08 -7.45412e-26)
(1.57281e-07 5.3076e-08 7.05557e-26)
(1.4696e-07 4.67453e-08 -6.58021e-26)
(1.37153e-07 4.11009e-08 -6.4968e-26)
(1.28111e-07 3.61733e-08 6.05735e-26)
(1.19255e-07 3.15684e-08 0)
(1.10908e-07 2.75132e-08 -5.54465e-26)
(1.03105e-07 2.39112e-08 6.21745e-30)
(9.55067e-08 2.05974e-08 -6.08719e-30)
(8.8412e-08 1.77125e-08 9.3518e-31)
(8.16708e-08 1.51061e-08 4.36228e-26)
(7.51874e-08 1.27616e-08 -5.86545e-31)
(6.9147e-08 1.07291e-08 -4.73206e-30)
(6.33244e-08 8.88711e-09 -3.6882e-26)
(5.78233e-08 7.28295e-09 4.38463e-30)
(5.26489e-08 5.88389e-09 0)
(4.76824e-08 4.64725e-09 0)
(4.30337e-08 3.59679e-09 -1.46318e-26)
(3.85964e-08 2.68581e-09 0)
(3.44225e-08 1.91969e-09 -2.59543e-26)
(3.04876e-08 1.28265e-09 -6.0219e-27)
(2.67662e-08 7.57395e-10 -5.68939e-27)
(2.32742e-08 3.42049e-10 0)
(1.99832e-08 2.07553e-11 0)
(1.68943e-08 -2.12824e-10 -2.32437e-27)
(1.4005e-08 -3.66736e-10 -2.11419e-30)
(1.15388e-08 -4.53449e-10 -5.0559e-27)
(9.43516e-09 -4.68202e-10 -4.84906e-27)
(7.587e-09 -4.4203e-10 -9.34429e-27)
(5.83972e-09 -3.95911e-10 9.00008e-27)
(4.23062e-09 -3.20891e-10 -1.72865e-26)
(2.78736e-09 -2.30893e-10 -9.98401e-31)
(1.43886e-09 -1.30582e-10 8.00238e-27)
(1.93454e-10 -2.05637e-11 -7.69215e-27)
(-9.59264e-10 9.72278e-11 0)
(-2.03658e-09 2.22459e-10 -1.42458e-26)
(-3.03344e-09 3.52234e-10 8.53087e-31)
(-3.96845e-09 4.88089e-10 1.31778e-26)
(-4.83837e-09 6.26383e-10 7.89581e-31)
(-5.65357e-09 7.68043e-10 -1.21695e-26)
(-6.41688e-09 9.12941e-10 -3.64519e-31)
(-7.13e-09 1.05787e-09 0)
(-7.79921e-09 1.20632e-09 -1.07731e-26)
(-8.41976e-09 1.35325e-09 0)
(-9.00035e-09 1.49984e-09 -9.90096e-27)
(-9.53403e-09 1.64689e-09 -1.89979e-26)
(-1.00207e-08 1.78849e-09 0)
(-1.04601e-08 1.92955e-09 2.5781e-31)
(-1.08379e-08 2.06196e-09 -2.59815e-31)
(-1.11611e-08 2.18723e-09 -2.33333e-31)
(-1.14046e-08 2.30224e-09 1.49763e-26)
(-1.15704e-08 2.40002e-09 -2.83664e-26)
(-1.16334e-08 2.48162e-09 0)
(-1.15814e-08 2.53501e-09 0)
(-1.13901e-08 2.55926e-09 1.17328e-26)
(-1.10337e-08 2.54179e-09 -1.11125e-26)
(-1.04783e-08 2.47324e-09 1.0148e-26)
(-9.69662e-09 2.34491e-09 1.45003e-31)
(-8.61728e-09 2.13231e-09 -6.86499e-32)
(-7.24377e-09 1.83475e-09 7.93713e-27)
(-5.40967e-09 1.40017e-09 -1.60039e-30)
(-3.21886e-09 8.50835e-10 -5.69794e-33)
(-2.77383e-10 7.15747e-11 -4.5539e-32)
(3.02573e-09 -8.43183e-10 -5.18059e-27)
(7.66311e-09 -2.17553e-09 0)
(1.24895e-08 -3.61982e-09 -2.82302e-32)
(1.99413e-08 -5.90276e-09 4.20408e-32)
(2.67107e-08 -8.07131e-09 -1.39132e-32)
(3.93758e-08 -1.21446e-08 4.51162e-30)
(4.85046e-08 -1.52845e-08 -6.08363e-27)
(7.22289e-08 -2.32188e-08 1.61071e-27)
(8.47418e-08 -2.78268e-08 -2.50201e-26)
(1.38368e-07 -4.63515e-08 -4.41472e-32)
(1.57959e-07 -5.4087e-08 3.28647e-26)
(3.5513e-07 -1.23934e-07 -5.70998e-31)
(4.11621e-07 -3.67622e-07 3.92195e-25)
(8.41439e-08 2.92756e-06 0)
(3.90219e-08 2.0723e-06 0)
(1.11061e-07 2.68283e-06 -2.91475e-29)
(3.2619e-07 2.95185e-06 -4.09923e-26)
(1.04902e-06 3.45181e-06 -1.40057e-26)
(1.3235e-06 2.50143e-06 0)
(1.24172e-06 2.18317e-06 -5.4727e-30)
(1.39549e-06 2.06611e-06 -7.72081e-26)
(1.35532e-06 1.73848e-06 -5.9605e-26)
(1.37568e-06 1.56254e-06 -2.05605e-29)
(1.30829e-06 1.33341e-06 2.02063e-29)
(1.27484e-06 1.18207e-06 -9.08424e-26)
(1.20361e-06 1.02201e-06 -1.72951e-25)
(1.14986e-06 9.0196e-07 9.27702e-26)
(1.08527e-06 7.91085e-07 -2.11834e-29)
(1.02612e-06 6.96893e-07 0)
(9.67613e-07 6.16096e-07 1.72172e-25)
(9.11299e-07 5.44129e-07 -1.62937e-25)
(8.57116e-07 4.81513e-07 1.66553e-25)
(8.07759e-07 4.28416e-07 1.56276e-25)
(7.58174e-07 3.79037e-07 -1.49639e-25)
(7.12542e-07 3.36868e-07 -1.80046e-29)
(6.69717e-07 2.99527e-07 7.27203e-29)
(6.27804e-07 2.6522e-07 -1.65274e-29)
(5.8904e-07 2.35702e-07 -1.29862e-25)
(5.52366e-07 2.08965e-07 -2.42305e-25)
(5.16726e-07 1.84597e-07 -1.46351e-29)
(4.83991e-07 1.63568e-07 0)
(4.52247e-07 1.4407e-07 1.2661e-29)
(4.22081e-07 1.26685e-07 1.03579e-25)
(3.94264e-07 1.11505e-07 -9.99768e-30)
(3.67023e-07 9.73224e-08 9.10466e-26)
(3.41344e-07 8.48301e-08 1.76797e-25)
(3.17336e-07 7.37332e-08 0)
(2.93963e-07 6.35259e-08 0)
(2.72134e-07 5.46369e-08 7.47516e-26)
(2.51393e-07 4.66067e-08 -2.47833e-31)
(2.31446e-07 3.93837e-08 -6.70066e-26)
(2.1286e-07 3.312e-08 7.54484e-30)
(1.94944e-07 2.74441e-08 -7.2933e-30)
(1.78018e-07 2.25002e-08 0)
(1.62095e-07 1.81878e-08 -2.61743e-26)
(1.46814e-07 1.43761e-08 2.12109e-31)
(1.32509e-07 1.11372e-08 5.80041e-30)
(1.18854e-07 8.32819e-09 0)
(1.0601e-07 5.96516e-09 2.06872e-26)
(9.3901e-08 3.99967e-09 9.60913e-27)
(8.24487e-08 2.37853e-09 -2.26017e-30)
(7.17023e-08 1.09582e-09 -4.23153e-27)
(6.15739e-08 1.02853e-10 0)
(5.20677e-08 -6.19975e-10 -7.16632e-32)
(4.31752e-08 -1.09732e-09 6.8999e-27)
(3.55853e-08 -1.36713e-09 1.61259e-26)
(2.91114e-08 -1.41562e-09 7.73393e-27)
(2.34216e-08 -1.33794e-09 1.49016e-26)
(1.80438e-08 -1.19822e-09 -2.87044e-26)
(1.30908e-08 -9.69723e-10 1.37805e-26)
(8.64751e-09 -6.94833e-10 0)
(4.49648e-09 -3.87877e-10 1.27579e-26)
(6.62569e-10 -5.09743e-11 -1.22648e-26)
(-2.88602e-09 3.10019e-10 1.41593e-30)
(-6.20241e-09 6.94012e-10 2.27132e-26)
(-9.27125e-09 1.09209e-09 1.36037e-30)
(-1.21495e-08 1.50898e-09 0)
(-1.48276e-08 1.93346e-09 2.02265e-26)
(-1.73371e-08 2.36837e-09 1.94071e-26)
(-1.96868e-08 2.8133e-09 0)
(-2.18821e-08 3.25838e-09 -1.79409e-26)
(-2.39421e-08 3.71433e-09 -1.71799e-26)
(-2.58524e-08 4.16566e-09 0)
(-2.76395e-08 4.61595e-09 -1.57898e-26)
(-2.92823e-08 5.06765e-09 -4.92761e-31)
(-3.07803e-08 5.50262e-09 -1.45208e-26)
(-3.2133e-08 5.93583e-09 4.30988e-31)
(-3.3296e-08 6.34247e-09 0)
(-3.4291e-08 6.72707e-09 2.50261e-26)
(-3.50412e-08 7.08001e-09 -2.38842e-26)
(-3.55519e-08 7.37992e-09 4.52361e-26)
(-3.57465e-08 7.62988e-09 0)
(-3.55879e-08 7.79297e-09 -2.021e-26)
(-3.50006e-08 7.86627e-09 3.37642e-30)
(-3.39061e-08 7.81103e-09 -3.45786e-30)
(-3.21996e-08 7.59852e-09 -1.61822e-26)
(-2.97974e-08 7.20174e-09 1.51642e-26)
(-2.64806e-08 6.54564e-09 -1.37147e-26)
(-2.22592e-08 5.62757e-09 9.17374e-32)
(-1.66233e-08 4.28815e-09 2.25037e-26)
(-9.88939e-09 2.59452e-09 1.03104e-26)
(-8.5163e-10 1.94392e-10 0)
(9.30188e-09 -2.62529e-09 5.78919e-32)
(2.35473e-08 -6.72667e-09 -1.07498e-31)
(3.83854e-08 -1.11795e-08 -6.78156e-27)
(6.12684e-08 -1.82031e-08 -4.46551e-32)
(8.2086e-08 -2.48938e-08 4.4482e-32)
(1.20959e-07 -3.74176e-08 -3.71395e-27)
(1.4905e-07 -4.71225e-08 9.74499e-27)
(2.21819e-07 -7.15018e-08 2.16033e-29)
(2.60353e-07 -8.58075e-08 1.99621e-26)
(4.24692e-07 -1.42694e-07 1.99781e-32)
(4.84859e-07 -1.67065e-07 -5.24068e-26)
(1.08601e-06 -3.804e-07 -2.95501e-29)
(1.10231e-06 -1.15029e-06 -9.45233e-25)
(1.40747e-07 5.02597e-06 -2.22278e-28)
(6.5558e-08 3.58555e-06 -1.42933e-26)
(1.98338e-07 4.62309e-06 -5.63377e-27)
(5.68742e-07 5.08179e-06 2.19852e-26)
(1.79959e-06 5.92923e-06 -1.53116e-26)
(2.27351e-06 4.31761e-06 9.06659e-30)
(2.13967e-06 3.76913e-06 -5.29245e-30)
(2.40269e-06 3.56315e-06 1.65795e-25)
(2.3357e-06 3.00221e-06 1.27962e-25)
(2.37083e-06 2.69752e-06 1.84576e-29)
(2.25614e-06 2.30362e-06 0)
(2.19858e-06 2.04187e-06 2.39534e-29)
(2.07653e-06 1.76607e-06 3.71859e-25)
(1.98398e-06 1.55856e-06 0)
(1.87289e-06 1.36721e-06 -2.31681e-29)
(1.771e-06 1.20445e-06 2.29958e-29)
(1.67019e-06 1.06488e-06 -1.85228e-25)
(1.57311e-06 9.40531e-07 1.75296e-25)
(1.4797e-06 8.32341e-07 0)
(1.39455e-06 7.40569e-07 -1.68174e-25)
(1.30903e-06 6.55252e-07 1.61034e-25)
(1.2303e-06 5.82362e-07 1.59512e-25)
(1.15639e-06 5.17824e-07 2.97959e-25)
(1.08407e-06 4.58539e-07 3.52953e-29)
(1.01717e-06 4.07512e-07 -3.41203e-29)
(9.5386e-07 3.61301e-07 1.30389e-25)
(8.92351e-07 3.19187e-07 0)
(8.35835e-07 2.82833e-07 1.46333e-29)
(7.81035e-07 2.49135e-07 -1.39142e-29)
(7.28962e-07 2.19086e-07 -1.34544e-29)
(6.80932e-07 1.92843e-07 -1.12171e-31)
(6.33903e-07 1.6833e-07 -1.95945e-25)
(5.89568e-07 1.46735e-07 -9.51131e-26)
(5.48113e-07 1.27552e-07 -1.09485e-29)
(5.07759e-07 1.09908e-07 1.0161e-29)
(4.70067e-07 9.45396e-08 -9.96019e-30)
(4.34251e-07 8.06571e-08 0)
(3.99812e-07 6.81699e-08 8.66919e-30)
(3.67715e-07 5.73394e-08 -1.64937e-29)
(3.3678e-07 4.75259e-08 6.329e-26)
(3.07551e-07 3.89765e-08 7.28035e-30)
(2.80054e-07 3.15188e-08 2.81549e-26)
(2.53665e-07 2.49266e-08 0)
(2.28961e-07 1.93238e-08 0)
(2.05381e-07 1.44643e-08 -2.34329e-26)
(1.83199e-07 1.03754e-08 5.54209e-30)
(1.62287e-07 6.97364e-09 4.94788e-30)
(1.42508e-07 4.16701e-09 -4.86488e-30)
(1.23949e-07 1.9452e-09 4.55843e-27)
(1.06456e-07 2.24237e-10 -4.24956e-30)
(9.00376e-08 -1.02988e-09 3.99084e-27)
(7.46786e-08 -1.85945e-09 -7.42946e-27)
(6.15702e-08 -2.32969e-09 -8.67438e-27)
(5.03893e-08 -2.41795e-09 8.31985e-27)
(4.05596e-08 -2.28763e-09 1.60405e-26)
(3.1271e-08 -2.04941e-09 1.54474e-26)
(2.27153e-08 -1.65813e-09 0)
(1.50389e-08 -1.18611e-09 1.4301e-26)
(7.86831e-09 -6.58311e-10 -1.37321e-26)
(1.24518e-09 -7.86789e-11 1.32031e-26)
(-4.88508e-09 5.4281e-10 -1.2725e-26)
(-1.0614e-08 1.20414e-09 -2.44493e-26)
(-1.59156e-08 1.88997e-09 2.87289e-30)
(-2.08878e-08 2.60838e-09 2.26188e-26)
(-2.55142e-08 3.34001e-09 -4.35398e-26)
(-2.98493e-08 4.08976e-09 -2.08868e-26)
(-3.39084e-08 4.85687e-09 0)
(-3.77006e-08 5.62433e-09 1.93088e-26)
(-4.12591e-08 6.41053e-09 3.69808e-26)
(-4.45591e-08 7.18886e-09 0)
(-4.76461e-08 7.96536e-09 1.69938e-26)
(-5.04839e-08 8.74427e-09 1.63039e-26)
(-5.30716e-08 9.49429e-09 -2.00415e-30)
(-5.54081e-08 1.02412e-08 4.42516e-31)
(-5.74175e-08 1.09421e-08 -8.70811e-31)
(-5.91365e-08 1.16049e-08 -2.69341e-26)
(-6.0433e-08 1.22129e-08 2.57063e-26)
(-6.13161e-08 1.27291e-08 -2.43448e-26)
(-6.16537e-08 1.31589e-08 -2.29167e-26)
(-6.13816e-08 1.34385e-08 2.17512e-26)
(-6.03699e-08 1.35628e-08 -2.01387e-26)
(-5.84831e-08 1.34648e-08 1.90742e-26)
(-5.55404e-08 1.30951e-08 2.76346e-31)
(-5.13973e-08 1.24066e-08 -1.63207e-26)
(-4.5677e-08 1.12703e-08 1.47605e-26)
(-3.83953e-08 9.68061e-09 2.18029e-31)
(-2.86752e-08 7.36395e-09 -1.21135e-26)
(-1.70589e-08 4.43339e-09 -1.10965e-26)
(-1.47311e-09 2.85234e-10 -7.82762e-32)
(1.60434e-08 -4.59297e-09 0)
(4.06056e-08 -1.16771e-08 -7.25016e-27)
(6.62064e-08 -1.93828e-08 -1.52243e-29)
(1.0565e-07 -3.1506e-08 0)
(1.41577e-07 -4.3095e-08 0)
(2.08554e-07 -6.46954e-08 0)
(2.57057e-07 -8.15411e-08 -1.04883e-26)
(3.82368e-07 -1.23556e-07 -2.78759e-27)
(4.48934e-07 -1.48512e-07 0)
(7.31723e-07 -2.46473e-07 0)
(8.35361e-07 -2.89661e-07 5.68572e-26)
(1.86626e-06 -6.55173e-07 -7.0307e-27)
(1.85203e-06 -1.95227e-06 -9.94098e-25)
(1.97769e-07 7.26081e-06 2.50528e-28)
(9.25972e-08 5.22072e-06 1.53588e-26)
(2.98321e-07 6.70393e-06 -2.68871e-29)
(8.35044e-07 7.36227e-06 1.83215e-29)
(2.59767e-06 8.57047e-06 0)
(3.28586e-06 6.27198e-06 8.60981e-26)
(3.10245e-06 5.47629e-06 -8.29716e-27)
(3.48098e-06 5.17137e-06 -8.89851e-26)
(3.3872e-06 4.36329e-06 -6.86967e-26)
(3.43821e-06 3.91922e-06 0)
(3.27404e-06 3.34942e-06 0)
(3.19074e-06 2.96842e-06 0)
(3.01478e-06 2.56848e-06 -1.999e-25)
(2.88068e-06 2.26658e-06 0)
(2.71994e-06 1.98866e-06 -2.49025e-29)
(2.57224e-06 1.75199e-06 2.47175e-29)
(2.4261e-06 1.54907e-06 1.98965e-25)
(2.28527e-06 1.36824e-06 2.28815e-29)
(2.14975e-06 1.21091e-06 -1.92515e-25)
(2.02613e-06 1.07742e-06 0)
(1.90201e-06 9.53352e-07 -1.73146e-25)
(1.78769e-06 8.47315e-07 -1.71594e-25)
(1.68036e-06 7.53438e-07 -1.6029e-25)
(1.57535e-06 6.67215e-07 -1.55658e-25)
(1.47817e-06 5.92978e-07 1.82037e-29)
(1.3862e-06 5.25757e-07 -2.91269e-31)
(1.29687e-06 4.64502e-07 1.37485e-25)
(1.21476e-06 4.1161e-07 0)
(1.13515e-06 3.62593e-07 -1.21406e-25)
(1.0595e-06 3.18879e-07 -1.48032e-29)
(9.8971e-07 2.80697e-07 -2.23645e-25)
(9.21385e-07 2.45042e-07 2.10861e-25)
(8.56969e-07 2.13623e-07 -1.26552e-29)
(7.96728e-07 1.85712e-07 9.52613e-26)
(7.38097e-07 1.60045e-07 -2.2171e-29)
(6.83326e-07 1.37682e-07 1.07178e-29)
(6.31279e-07 1.17483e-07 0)
(5.81236e-07 9.93145e-08 9.32895e-30)
(5.34591e-07 8.3553e-08 -9.01186e-30)
(4.89637e-07 6.92729e-08 -1.10709e-29)
(4.47161e-07 5.68302e-08 8.09618e-30)
(4.072e-07 4.59754e-08 0)
(3.68851e-07 3.638e-08 0)
(3.32947e-07 2.82229e-08 6.48095e-30)
(2.98678e-07 2.11474e-08 2.52062e-26)
(2.6644e-07 1.51924e-08 0)
(2.36046e-07 1.02369e-08 0)
(2.07301e-07 6.14709e-09 -5.02998e-30)
(1.80325e-07 2.90784e-09 1.97668e-31)
(1.549e-07 3.97215e-10 4.57351e-30)
(1.31036e-07 -1.43439e-09 -4.29516e-27)
(1.08711e-07 -2.64808e-09 7.99226e-27)
(8.96585e-08 -3.33806e-09 -9.33609e-27)
(7.34078e-08 -3.4733e-09 -8.96062e-27)
(5.91164e-08 -3.28981e-09 -3.45225e-26)
(4.56146e-08 -2.9483e-09 1.66299e-26)
(3.31771e-08 -2.38474e-09 -3.97304e-30)
(2.20163e-08 -1.70288e-09 -1.53912e-26)
(1.1592e-08 -9.39346e-10 -1.77047e-30)
(1.96307e-09 -1.00289e-10 6.60323e-32)
(-6.94931e-09 7.9999e-10 1.36951e-26)
(-1.52781e-08 1.75835e-09 0)
(-2.29858e-08 2.75258e-09 -2.53225e-26)
(-3.02143e-08 3.79433e-09 1.107e-30)
(-3.69404e-08 4.85548e-09 -1.10211e-30)
(-4.32428e-08 5.9431e-09 0)
(-4.91439e-08 7.05603e-09 1.29384e-30)
(-5.4657e-08 8.16961e-09 -2.53765e-30)
(-5.98301e-08 9.3104e-09 2.33004e-30)
(-6.46275e-08 1.04399e-08 0)
(-6.91152e-08 1.15667e-08 0)
(-7.32407e-08 1.26969e-08 1.75493e-26)
(-7.70025e-08 1.37852e-08 3.36397e-26)
(-8.03992e-08 1.48686e-08 0)
(-8.33208e-08 1.58854e-08 -1.53553e-26)
(-8.582e-08 1.68464e-08 1.76958e-30)
(-8.77059e-08 1.77276e-08 -2.76721e-26)
(-8.8991e-08 1.84753e-08 2.62063e-26)
(-8.94841e-08 1.9097e-08 2.46643e-26)
(-8.90917e-08 1.95002e-08 -2.34166e-26)
(-8.76253e-08 1.96772e-08 -2.16821e-26)
(-8.48882e-08 1.95309e-08 -3.245e-31)
(-8.06184e-08 1.89892e-08 0)
(-7.46056e-08 1.79835e-08 0)
(-6.63039e-08 1.63271e-08 0)
(-5.57345e-08 1.40102e-08 0)
(-4.1628e-08 1.06378e-08 -1.89471e-31)
(-2.47657e-08 6.36977e-09 1.92115e-31)
(-2.14858e-09 3.36059e-10 -1.03112e-26)
(2.32802e-08 -6.76725e-09 0)
(5.8917e-08 -1.70647e-08 7.80307e-27)
(9.60859e-08 -2.82885e-08 7.87203e-27)
(1.53297e-07 -4.5898e-08 -5.22103e-32)
(2.0547e-07 -6.27944e-08 -4.60078e-32)
(3.02575e-07 -9.4144e-08 4.66003e-32)
(3.73046e-07 -1.1876e-07 -2.76115e-32)
(5.5462e-07 -1.79686e-07 3.05945e-27)
(6.51381e-07 -2.16349e-07 -9.69563e-32)
(1.06082e-06 -3.58282e-07 1.06048e-31)
(1.211e-06 -4.22764e-07 -6.1194e-26)
(2.69849e-06 -9.49693e-07 1.64263e-31)
(2.65152e-06 -2.81011e-06 1.42555e-24)
(2.54987e-07 9.63941e-06 4.15806e-30)
(1.20181e-07 6.98756e-06 8.2677e-27)
(4.12556e-07 8.93486e-06 6.37887e-27)
(1.12734e-06 9.80292e-06 -2.50311e-26)
(3.44567e-06 1.13846e-05 -6.88511e-30)
(4.36402e-06 8.37457e-06 -9.25757e-26)
(4.13437e-06 7.31377e-06 8.88516e-27)
(4.63499e-06 6.89879e-06 1.22766e-29)
(4.51467e-06 5.8292e-06 -2.26851e-29)
(4.58281e-06 5.23425e-06 4.66088e-29)
(4.36701e-06 4.47674e-06 -2.49615e-29)
(4.25623e-06 3.96694e-06 1.1226e-25)
(4.02318e-06 3.43388e-06 -5.37827e-29)
(3.84461e-06 3.03015e-06 -1.14864e-25)
(3.63086e-06 2.65909e-06 0)
(3.43409e-06 2.34272e-06 -5.3735e-29)
(3.23936e-06 2.07153e-06 -2.14042e-25)
(3.05158e-06 1.82979e-06 4.93167e-29)
(2.87088e-06 1.61948e-06 2.07133e-25)
(2.70592e-06 1.44097e-06 1.94328e-25)
(2.54035e-06 1.27512e-06 1.86255e-25)
(2.38777e-06 1.13332e-06 0)
(2.24449e-06 1.00779e-06 0)
(2.10434e-06 8.92509e-07 3.34968e-25)
(1.97459e-06 7.93222e-07 -1.61656e-25)
(1.85179e-06 7.03332e-07 0)
(1.73253e-06 6.21429e-07 -2.95883e-25)
(1.62287e-06 5.50685e-07 -1.40019e-25)
(1.51656e-06 4.85141e-07 2.6126e-25)
(1.41555e-06 4.26681e-07 1.29013e-25)
(1.32233e-06 3.75612e-07 1.20345e-25)
(1.23108e-06 3.27934e-07 -1.13461e-25)
(1.14505e-06 2.85912e-07 0)
(1.06458e-06 2.48582e-07 -3.49742e-29)
(9.86277e-07 2.14256e-07 9.77363e-26)
(9.13116e-07 1.84341e-07 1.18525e-29)
(8.43591e-07 1.57325e-07 -8.66511e-26)
(7.76751e-07 1.33022e-07 -8.34839e-26)
(7.14439e-07 1.11936e-07 -9.40222e-30)
(6.5439e-07 9.2833e-08 -7.32686e-26)
(5.97649e-07 7.61849e-08 -8.71251e-30)
(5.44264e-07 6.16605e-08 3.26132e-26)
(4.93037e-07 4.88204e-08 3.09563e-26)
(4.45071e-07 3.79025e-08 0)
(3.99291e-07 2.84314e-08 2.71262e-26)
(3.56222e-07 2.04581e-08 -2.57853e-26)
(3.15615e-07 1.38213e-08 5.73072e-30)
(2.77211e-07 8.34217e-09 -1.1048e-29)
(2.4117e-07 4.00013e-09 -5.26954e-27)
(2.07201e-07 6.32554e-10 0)
(1.75316e-07 -1.82716e-09 9.24516e-27)
(1.45486e-07 -3.46005e-09 -1.72031e-26)
(1.20031e-07 -4.3912e-09 1.00525e-26)
(9.83189e-08 -4.58181e-09 -4.62048e-30)
(7.92185e-08 -4.34508e-09 1.85818e-26)
(6.11775e-08 -3.89557e-09 -1.78932e-26)
(4.45572e-08 -3.14996e-09 0)
(2.96405e-08 -2.24495e-09 0)
(1.57098e-08 -1.22994e-09 0)
(2.84146e-09 -1.13781e-10 3.66404e-30)
(-9.06937e-09 1.08473e-09 -7.19836e-30)
(-2.01999e-08 2.36108e-09 3.52482e-30)
(-3.0501e-08 3.68574e-09 2.72546e-26)
(-4.01612e-08 5.07411e-09 -5.24036e-26)
(-4.91502e-08 6.48866e-09 -1.27822e-30)
(-5.75727e-08 7.93879e-09 0)
(-6.5459e-08 9.42283e-09 0)
(-7.28266e-08 1.09079e-08 0)
(-7.97396e-08 1.24294e-08 -2.14193e-26)
(-8.61509e-08 1.39359e-08 0)
(-9.21477e-08 1.54388e-08 0)
(-9.76609e-08 1.69461e-08 -3.77751e-26)
(-1.02688e-07 1.83975e-08 -1.81024e-26)
(-1.07227e-07 1.98422e-08 0)
(-1.11132e-07 2.11977e-08 3.30517e-26)
(-1.14472e-07 2.24784e-08 9.28034e-31)
(-1.16994e-07 2.36523e-08 -3.27446e-30)
(-1.18714e-07 2.46475e-08 -5.64146e-26)
(-1.19376e-07 2.54739e-08 -2.65519e-26)
(-1.18856e-07 2.6008e-08 2.5203e-26)
(-1.16903e-07 2.62395e-08 2.33352e-26)
(-1.13254e-07 2.60383e-08 2.21097e-26)
(-1.07559e-07 2.53087e-08 -3.20253e-31)
(-9.95391e-08 2.39579e-08 0)
(-8.84657e-08 2.17381e-08 0)
(-7.43649e-08 1.86335e-08 0)
(-5.55486e-08 1.41206e-08 0)
(-3.30508e-08 8.4062e-09 0)
(-2.88507e-09 3.38546e-10 1.10976e-26)
(3.10446e-08 -9.17012e-09 0)
(7.85665e-08 -2.29291e-08 -1.279e-31)
(1.28167e-07 -3.79583e-08 7.36396e-32)
(2.04434e-07 -6.14693e-08 5.63382e-32)
(2.74074e-07 -8.41174e-08 0)
(4.03463e-07 -1.25936e-07 4.72506e-27)
(4.97575e-07 -1.59011e-07 -1.24315e-31)
(7.39366e-07 -2.40208e-07 -3.29265e-27)
(8.68651e-07 -2.89741e-07 5.04414e-32)
(1.41341e-06 -4.78729e-07 -1.2886e-27)
(1.61343e-06 -5.67286e-07 0)
(3.58544e-06 -1.26522e-06 0)
(3.50355e-06 -3.72696e-06 -7.63927e-25)
(3.12051e-07 1.21693e-05 0)
(1.48339e-07 8.89652e-06 -8.88145e-27)
(5.42889e-07 1.13259e-05 -5.91839e-29)
(1.44821e-06 1.24139e-05 2.68891e-26)
(4.34602e-06 1.43809e-05 1.97132e-26)
(5.51142e-06 1.06361e-05 0)
(5.23995e-06 9.29136e-06 1.42783e-29)
(5.86953e-06 8.75398e-06 -1.31118e-29)
(5.72326e-06 7.40795e-06 -2.43064e-29)
(5.80986e-06 6.64972e-06 7.72055e-29)
(5.54034e-06 5.69201e-06 -5.35436e-29)
(5.40028e-06 5.0431e-06 -2.41253e-25)
(5.10681e-06 4.36734e-06 2.30204e-25)
(4.88069e-06 3.85371e-06 1.23569e-25)
(4.61039e-06 3.38247e-06 -2.32607e-25)
(4.36107e-06 2.98015e-06 0)
(4.11429e-06 2.63537e-06 0)
(3.87616e-06 2.32796e-06 2.17725e-25)
(3.64698e-06 2.06051e-06 0)
(3.4376e-06 1.83341e-06 -2.09135e-25)
(3.22752e-06 1.62252e-06 -4.86128e-29)
(3.03382e-06 1.4421e-06 4.87379e-29)
(2.85188e-06 1.28242e-06 0)
(2.67395e-06 1.1358e-06 -3.60215e-25)
(2.50918e-06 1.00947e-06 1.73856e-25)
(2.35319e-06 8.95116e-07 3.9267e-29)
(2.20175e-06 7.90935e-07 3.18266e-25)
(2.06244e-06 7.00917e-07 1.50703e-25)
(1.9274e-06 6.17538e-07 -1.40604e-25)
(1.79909e-06 5.43165e-07 -1.38791e-25)
(1.68064e-06 4.78183e-07 3.12485e-29)
(1.56473e-06 4.17532e-07 1.22002e-25)
(1.45543e-06 3.64062e-07 0)
(1.35318e-06 3.16562e-07 -1.10316e-25)
(1.2537e-06 2.7289e-07 -1.05149e-25)
(1.16074e-06 2.34821e-07 0)
(1.0724e-06 2.00443e-07 1.86534e-25)
(9.87471e-07 1.69518e-07 8.98178e-26)
(9.08288e-07 1.4268e-07 0)
(8.31984e-07 1.18368e-07 -1.89419e-29)
(7.59883e-07 9.71771e-08 1.87513e-29)
(6.9204e-07 7.86874e-08 -3.50973e-26)
(6.26944e-07 6.2341e-08 -3.33143e-26)
(5.65986e-07 4.84381e-08 0)
(5.07808e-07 3.63765e-08 -2.91999e-26)
(4.53073e-07 2.62195e-08 2.57327e-31)
(4.01467e-07 1.77627e-08 0)
(3.52658e-07 1.07786e-08 0)
(3.06852e-07 5.24074e-09 5.6822e-27)
(2.63678e-07 9.42661e-10 -5.29729e-30)
(2.23152e-07 -2.20066e-09 -9.94994e-27)
(1.85237e-07 -4.29143e-09 9.25725e-27)
(1.52884e-07 -5.48755e-09 0)
(1.25289e-07 -5.74328e-09 -1.03792e-26)
(1.01005e-07 -5.45389e-09 1.99944e-26)
(7.80731e-08 -4.8918e-09 9.40497e-30)
(5.69451e-08 -3.95415e-09 -4.60209e-30)
(3.79795e-08 -2.81208e-09 4.27241e-30)
(2.02699e-08 -1.52904e-09 -4.26013e-30)
(3.90979e-09 -1.17076e-10 1.64592e-26)
(-1.1233e-08 1.40029e-09 -1.58627e-26)
(-2.53832e-08 3.01695e-09 0)
(-3.84798e-08 4.6955e-09 -2.93334e-26)
(-5.07609e-08 6.45533e-09 2.81991e-26)
(-6.2189e-08 8.24879e-09 2.71374e-26)
(-7.28966e-08 1.00878e-08 3.24289e-30)
(-8.29225e-08 1.197e-08 2.50512e-26)
(-9.22889e-08 1.38538e-08 0)
(-1.01077e-07 1.57838e-08 0)
(-1.09228e-07 1.7695e-08 2.22018e-26)
(-1.16851e-07 1.96016e-08 -1.32144e-30)
(-1.2386e-07 2.15138e-08 2.03277e-26)
(-1.3025e-07 2.33548e-08 0)
(-1.36021e-07 2.51869e-08 -1.10358e-30)
(-1.40986e-07 2.69058e-08 -1.77856e-26)
(-1.45233e-07 2.85291e-08 9.98903e-31)
(-1.48441e-07 3.00164e-08 3.20546e-26)
(-1.5063e-07 3.12761e-08 3.03604e-26)
(-1.51476e-07 3.23208e-08 -5.24418e-30)
(-1.50821e-07 3.29934e-08 8.01943e-31)
(-1.48347e-07 3.32808e-08 -2.51263e-26)
(-1.43721e-07 3.30175e-08 -2.37946e-26)
(-1.36498e-07 3.20822e-08 -5.17529e-32)
(-1.26323e-07 3.0356e-08 2.03728e-26)
(-1.12274e-07 2.75255e-08 2.68792e-31)
(-9.4381e-08 2.35677e-08 -5.18901e-31)
(-7.05088e-08 1.78223e-08 2.44007e-31)
(-4.19581e-08 1.05435e-08 0)
(-3.69063e-09 2.81652e-10 1.19702e-26)
(3.93707e-08 -1.18277e-08 1.11635e-26)
(9.96435e-08 -2.93158e-08 9.08772e-27)
(1.62601e-07 -4.84618e-08 -9.1828e-27)
(2.59298e-07 -7.83206e-08 0)
(3.47715e-07 -1.07204e-07 -5.37423e-32)
(5.11685e-07 -1.60263e-07 -1.0201e-26)
(6.31237e-07 -2.02548e-07 0)
(9.37445e-07 -3.0547e-07 3.62144e-27)
(1.10176e-06 -3.69161e-07 2.72585e-26)
(1.79102e-06 -6.08476e-07 -6.06327e-29)
(2.04437e-06 -7.24247e-07 0)
(4.52992e-06 -1.60308e-06 -1.88759e-31)
(4.41169e-06 -4.70397e-06 -4.0634e-25)
(3.68563e-07 1.48582e-05 0)
(1.7713e-07 1.09588e-05 0)
(6.9142e-07 1.38878e-05 -7.30255e-27)
(1.80049e-06 1.52057e-05 3.66242e-29)
(5.30115e-06 1.75691e-05 -4.26336e-26)
(6.73153e-06 1.30681e-05 -5.96309e-30)
(6.4239e-06 1.14195e-05 -1.86986e-30)
(7.18961e-06 1.07461e-05 1.3995e-29)
(7.01836e-06 9.1082e-06 8.38961e-26)
(7.12491e-06 8.17329e-06 0)
(6.79967e-06 7.00219e-06 0)
(6.62844e-06 6.20305e-06 1.29612e-25)
(6.27115e-06 5.37432e-06 -2.4758e-25)
(5.99419e-06 4.7421e-06 -1.32708e-25)
(5.66362e-06 4.16311e-06 2.50299e-25)
(5.35805e-06 3.6681e-06 -2.54091e-25)
(5.05553e-06 3.24399e-06 2.47197e-25)
(4.7634e-06 2.86574e-06 -2.34244e-25)
(4.48223e-06 2.53667e-06 -5.85993e-29)
(4.22513e-06 2.25714e-06 0)
(3.96726e-06 1.99766e-06 5.2278e-29)
(3.72937e-06 1.77557e-06 -1.04246e-28)
(3.50586e-06 1.57901e-06 4.89666e-29)
(3.28733e-06 1.39858e-06 1.9378e-25)
(3.08487e-06 1.24305e-06 4.53173e-29)
(2.89319e-06 1.1023e-06 1.74468e-25)
(2.70714e-06 9.74075e-07 -1.71145e-25)
(2.53592e-06 8.63244e-07 -7.8288e-31)
(2.36995e-06 7.60618e-07 -1.51199e-25)
(2.21227e-06 6.69065e-07 -3.68696e-29)
(2.06667e-06 5.89059e-07 3.36201e-29)
(1.92421e-06 5.14405e-07 -1.31379e-25)
(1.78986e-06 4.48575e-07 1.27516e-25)
(1.66416e-06 3.90094e-07 -1.18684e-25)
(1.54189e-06 3.36332e-07 7.54809e-31)
(1.42761e-06 2.89454e-07 5.26721e-29)
(1.319e-06 2.47126e-07 -1.00376e-25)
(1.2146e-06 2.09049e-07 -9.66894e-26)
(1.11725e-06 1.75996e-07 9.05959e-26)
(1.02344e-06 1.46058e-07 8.48394e-26)
(9.348e-07 1.19957e-07 -1.95269e-29)
(8.51385e-07 9.71816e-08 6.26805e-31)
(7.71354e-07 7.70451e-08 3.58674e-26)
(6.96402e-07 5.99137e-08 0)
(6.2487e-07 4.50499e-08 1.50598e-29)
(5.57569e-07 3.25294e-08 -1.45648e-29)
(4.94113e-07 2.21017e-08 1.38488e-26)
(4.34097e-07 1.34866e-08 1.31105e-26)
(3.77771e-07 6.65131e-09 -5.84486e-30)
(3.2468e-07 1.34226e-09 2.36635e-31)
(2.74846e-07 -2.5456e-09 5.3595e-27)
(2.28219e-07 -5.13698e-09 0)
(1.88434e-07 -6.62455e-09 0)
(1.54502e-07 -6.95677e-09 2.23299e-26)
(1.24628e-07 -6.61609e-09 7.37337e-31)
(9.64264e-08 -5.93707e-09 0)
(7.04401e-08 -4.79724e-09 -1.99081e-26)
(4.71093e-08 -3.40364e-09 4.77461e-30)
(2.53265e-08 -1.83516e-09 -4.41448e-30)
(5.2024e-09 -1.07653e-10 -3.54239e-26)
(-1.34243e-08 1.75044e-09 3.41486e-26)
(-3.08297e-08 3.73109e-09 -4.08306e-30)
(-4.69398e-08 5.78852e-09 3.15693e-26)
(-6.2046e-08 7.9463e-09 3.63408e-30)
(-7.61036e-08 1.01459e-08 -3.63696e-30)
(-8.92743e-08 1.24018e-08 3.35467e-30)
(-1.01607e-07 1.47111e-08 -2.69675e-26)
(-1.13127e-07 1.70228e-08 2.59193e-26)
(-1.23937e-07 1.93912e-08 -3.09249e-30)
(-1.33962e-07 2.17367e-08 -2.3893e-26)
(-1.43339e-07 2.40766e-08 0)
(-1.51959e-07 2.64231e-08 0)
(-1.5982e-07 2.86823e-08 0)
(-1.66917e-07 3.09299e-08 1.18783e-30)
(-1.73026e-07 3.30384e-08 -1.19708e-30)
(-1.7825e-07 3.50287e-08 0)
(-1.82199e-07 3.68513e-08 -3.45071e-26)
(-1.84895e-07 3.83937e-08 3.26824e-26)
(-1.85942e-07 3.96708e-08 3.07603e-26)
(-1.85145e-07 4.04899e-08 2.92078e-26)
(-1.82114e-07 4.08343e-08 -5.25164e-30)
(-1.76439e-07 4.05006e-08 2.56221e-26)
(-1.67577e-07 3.934e-08 0)
(-1.55089e-07 3.72049e-08 8.59268e-30)
(-1.37848e-07 3.37124e-08 0)
(-1.15883e-07 2.883e-08 -1.8337e-26)
(-8.65851e-08 2.17525e-08 0)
(-5.1535e-08 1.27811e-08 -2.13946e-31)
(-4.57425e-09 1.51948e-10 -1.28828e-26)
(4.82943e-08 -1.47701e-08 -1.20146e-26)
(1.22243e-07 -3.62756e-08 -9.78108e-27)
(1.99549e-07 -5.98767e-08 9.88326e-27)
(3.18143e-07 -9.65624e-08 0)
(4.26743e-07 -1.32207e-07 0)
(6.27736e-07 -1.97333e-07 1.10466e-26)
(7.74661e-07 -2.49653e-07 1.43489e-26)
(1.14974e-06 -3.75847e-07 -7.8417e-27)
(1.35179e-06 -4.55126e-07 1.2392e-28)
(2.19524e-06 -7.48235e-07 3.18525e-27)
(2.50562e-06 -8.94778e-07 6.58259e-32)
(5.53476e-06 -1.96469e-06 8.91258e-27)
(5.37914e-06 -5.74362e-06 1.75325e-24)
(4.24109e-07 1.7714e-05 0)
(2.06667e-07 1.31864e-05 1.02692e-26)
(8.60479e-07 1.66315e-05 -4.2196e-29)
(2.18728e-06 1.81894e-05 4.75875e-29)
(6.31353e-06 2.0959e-05 -2.17347e-28)
(8.02781e-06 1.56826e-05 1.08796e-25)
(7.69114e-06 1.37095e-05 -3.2504e-29)
(8.60049e-06 1.28851e-05 -2.01616e-29)
(8.40564e-06 1.09392e-05 -9.01232e-26)
(8.5338e-06 9.81322e-06 1.04668e-29)
(8.15096e-06 8.41479e-06 1.23662e-25)
(7.94663e-06 7.45342e-06 -1.38713e-25)
(7.52201e-06 6.46078e-06 0)
(7.19077e-06 5.70058e-06 1.42617e-25)
(6.79598e-06 5.00567e-06 2.68507e-25)
(6.43025e-06 4.41072e-06 2.73478e-25)
(6.06807e-06 3.90108e-06 -2.65869e-25)
(5.71805e-06 3.44642e-06 2.5151e-25)
(5.38113e-06 3.05088e-06 0)
(5.07277e-06 2.71474e-06 5.88374e-29)
(4.7636e-06 2.40285e-06 -5.6703e-29)
(4.47823e-06 2.13576e-06 0)
(4.21002e-06 1.89941e-06 0)
(3.94786e-06 1.68249e-06 0)
(3.70488e-06 1.49543e-06 0)
(3.47479e-06 1.32617e-06 -1.87815e-25)
(3.25151e-06 1.172e-06 0)
(3.04594e-06 1.03869e-06 0)
(2.84671e-06 9.15286e-07 3.25387e-25)
(2.65743e-06 8.05183e-07 -3.96643e-29)
(2.48258e-06 7.08951e-07 3.61706e-29)
(2.31155e-06 6.1918e-07 1.41224e-25)
(2.15025e-06 5.40001e-07 -1.37181e-25)
(1.99929e-06 4.69658e-07 1.60404e-29)
(1.85248e-06 4.05001e-07 1.21752e-25)
(1.71524e-06 3.48605e-07 2.79396e-29)
(1.58481e-06 2.9769e-07 1.07917e-25)
(1.45945e-06 2.51887e-07 1.04049e-25)
(1.34253e-06 2.12117e-07 -9.74211e-26)
(1.22987e-06 1.761e-07 -9.13217e-26)
(1.12342e-06 1.44691e-07 -2.17135e-29)
(1.02323e-06 1.17282e-07 1.9511e-29)
(9.27113e-07 9.30471e-08 -2.03941e-29)
(8.37088e-07 7.24229e-08 0)
(7.51172e-07 5.45267e-08 0)
(6.70335e-07 3.9447e-08 6.42921e-26)
(5.94114e-07 2.6884e-08 1.42106e-29)
(5.22024e-07 1.65006e-08 -1.41093e-26)
(4.54364e-07 8.25686e-09 0)
(3.90588e-07 1.84873e-09 0)
(3.30723e-07 -2.85068e-09 0)
(2.74708e-07 -5.98987e-09 0)
(2.26917e-07 -7.79841e-09 1.25313e-26)
(1.86156e-07 -8.22038e-09 -2.40321e-26)
(1.50257e-07 -7.83071e-09 -2.31584e-26)
(1.16376e-07 -7.03079e-09 -2.2307e-26)
(8.51528e-08 -5.67857e-09 2.142e-26)
(5.7115e-08 -4.01847e-09 -2.0652e-26)
(3.09415e-08 -2.14629e-09 4.75115e-30)
(6.75935e-09 -8.24507e-11 1.906e-26)
(-1.56236e-08 2.13951e-09 -1.83783e-26)
(-3.65381e-08 4.50928e-09 3.53135e-26)
(-5.58972e-08 6.97214e-09 4.06907e-30)
(-7.40491e-08 9.55608e-09 -1.55121e-31)
(-9.09415e-08 1.21908e-08 -3.91442e-30)
(-1.06768e-07 1.48938e-08 -3.61062e-30)
(-1.21586e-07 1.76611e-08 1.41943e-31)
(-1.3543e-07 2.04317e-08 -5.57751e-26)
(-1.48418e-07 2.32703e-08 -2.67048e-26)
(-1.60465e-07 2.60818e-08 -2.57215e-26)
(-1.7173e-07 2.88866e-08 2.93246e-30)
(-1.82089e-07 3.16991e-08 -1.26836e-31)
(-1.91534e-07 3.44068e-08 -2.81848e-30)
(-2.00062e-07 3.71e-08 0)
(-2.07403e-07 3.96261e-08 2.4551e-30)
(-2.13682e-07 4.20094e-08 -2.4358e-30)
(-2.18431e-07 4.41908e-08 -6.11959e-30)
(-2.21674e-07 4.60349e-08 -7.03549e-26)
(-2.22941e-07 4.75594e-08 0)
(-2.21995e-07 4.85329e-08 -3.14348e-26)