/*--------------------------------*- C++ -*----------------------------------*\
| =========                 |                                                 |
| \\      /  F ield         | OpenFOAM: The Open Source CFD Toolbox           |
|  \\    /   O peration     | Version:  5.x                                   |
|   \\  /    A nd           | Web:      www.OpenFOAM.org                      |
|    \\/     M anipulation  |                                                 |
\*---------------------------------------------------------------------------*/
FoamFile
{
    version     2.0;
    format      ascii;
    class       volVectorField;
    location    "3000";
    object      U;
}
// * * * * * * * * * * * * * * * * * * * * * * * * * * * * * * * * * * * * * //

dimensions      [0 1 -1 0 0 0 0];

internalField   nonuniform List<vector> 
107912
(
(-8.18785e-06 9.13645e-05 -2.95009e-29)
(1.25496e-06 6.35995e-05 2.81667e-29)
(3.46499e-06 8.66186e-05 -4.01557e-25)
(1.02538e-05 9.39918e-05 -1.0485e-24)
(3.03215e-05 9.98077e-05 -1.96633e-23)
(3.26263e-05 6.14056e-05 2.93123e-23)
(2.80024e-05 4.91244e-05 2.08039e-23)
(3.07077e-05 4.54253e-05 1.98509e-28)
(2.62336e-05 3.3573e-05 -2.90968e-27)
(2.50619e-05 2.84216e-05 -2.6293e-27)
(2.12823e-05 2.16428e-05 -2.37631e-27)
(1.89775e-05 1.75629e-05 1.95258e-23)
(1.59524e-05 1.35145e-05 3.48554e-23)
(1.36122e-05 1.06532e-05 3.78756e-27)
(1.13113e-05 8.22392e-06 -2.97599e-23)
(9.27026e-06 6.27875e-06 2.78553e-23)
(7.4907e-06 4.75487e-06 3.20743e-27)
(5.87549e-06 3.49609e-06 0)
(4.47395e-06 2.50315e-06 -4.30578e-23)
(3.30042e-06 1.74213e-06 -1.90192e-23)
(2.2205e-06 1.10313e-06 0)
(1.34434e-06 6.2987e-07 0)
(5.90141e-07 2.59152e-07 -1.42269e-23)
(-5.4478e-08 -2.68779e-08 1.31043e-23)
(-5.68791e-07 -2.30386e-07 1.20748e-23)
(-9.97655e-07 -3.79798e-07 2.15112e-23)
(-1.33963e-06 -4.80182e-07 -1.01075e-23)
(-1.59825e-06 -5.41496e-07 9.22355e-24)
(-1.8012e-06 -5.74803e-07 -8.29345e-24)
(-1.94067e-06 -5.83139e-07 -7.94673e-24)
(-2.03395e-06 -5.75628e-07 7.21637e-24)
(-2.08932e-06 -5.54195e-07 0)
(-2.10677e-06 -5.23594e-07 -6.3317e-24)
(-2.10057e-06 -4.88014e-07 6.9546e-28)
(-2.07039e-06 -4.47087e-07 -6.8089e-28)
(-2.02235e-06 -4.05621e-07 -2.86443e-28)
(-1.96267e-06 -3.63526e-07 4.80493e-24)
(-1.89123e-06 -3.21075e-07 2.14511e-28)
(-1.81402e-06 -2.81701e-07 -5.25786e-28)
(-1.73164e-06 -2.43194e-07 -4.11201e-24)
(-1.6459e-06 -2.07379e-07 4.91594e-28)
(-1.5604e-06 -1.74431e-07 0)
(-1.47394e-06 -1.43704e-07 0)
(-1.38992e-06 -1.16139e-07 -1.73379e-24)
(-1.30817e-06 -9.07482e-08 0)
(-1.22975e-06 -6.86605e-08 -3.22245e-24)
(-1.15537e-06 -4.81013e-08 -7.68021e-25)
(-1.08401e-06 -3.07432e-08 -7.472e-25)
(-1.01613e-06 -1.43656e-08 0)
(-9.50934e-07 -8.41267e-10 0)
(-8.88513e-07 1.13516e-08 -3.37458e-25)
(-8.29007e-07 2.1655e-08 -3.18403e-28)
(-7.77645e-07 3.11566e-08 -7.88602e-25)
(-7.31235e-07 3.63789e-08 -7.82733e-25)
(-6.91313e-07 4.06409e-08 -1.56043e-24)
(-6.53625e-07 4.43287e-08 1.554e-24)
(-6.17351e-07 4.70719e-08 -3.0923e-24)
(-5.86775e-07 4.83489e-08 -1.8824e-28)
(-5.5865e-07 5.05085e-08 1.53648e-24)
(-5.33265e-07 5.16512e-08 -1.53127e-24)
(-5.10837e-07 5.3261e-08 0)
(-4.90558e-07 5.42255e-08 -3.04963e-24)
(-4.73044e-07 5.57466e-08 1.86054e-28)
(-4.57695e-07 5.67159e-08 3.04029e-24)
(-4.44407e-07 5.81564e-08 1.85673e-28)
(-4.33493e-07 5.92458e-08 -3.03083e-24)
(-4.24015e-07 6.09279e-08 -9.25808e-29)
(-4.16619e-07 6.21388e-08 0)
(-4.10727e-07 6.40519e-08 -3.02427e-24)
(-4.06038e-07 6.55973e-08 0)
(-4.02943e-07 6.77061e-08 -3.02082e-24)
(-4.00677e-07 6.95595e-08 -6.04908e-24)
(-3.99576e-07 7.17684e-08 0)
(-3.99388e-07 7.39622e-08 9.20325e-29)
(-3.99605e-07 7.64075e-08 -9.27482e-29)
(-4.00634e-07 7.88469e-08 -9.19552e-29)
(-4.01439e-07 8.14514e-08 6.06133e-24)
(-4.02906e-07 8.38077e-08 -1.21118e-23)
(-4.03904e-07 8.65233e-08 0)
(-4.04724e-07 8.8953e-08 0)
(-4.04862e-07 9.15214e-08 6.02498e-24)
(-4.0417e-07 9.3445e-08 -6.11396e-24)
(-4.02379e-07 9.55113e-08 6.02118e-24)
(-3.99031e-07 9.69219e-08 9.32512e-29)
(-3.93695e-07 9.80566e-08 -4.60752e-29)
(-3.86396e-07 9.82758e-08 6.11429e-24)
(-3.75608e-07 9.79434e-08 9.97165e-29)
(-3.62597e-07 9.65174e-08 6.0561e-33)
(-3.43472e-07 9.3793e-08 -4.61194e-29)
(-3.2275e-07 8.96929e-08 -6.17812e-24)
(-2.91009e-07 8.31061e-08 0)
(-2.59763e-07 7.53038e-08 -4.69176e-29)
(-2.07005e-07 6.18991e-08 7.00186e-29)
(-1.62977e-07 4.95609e-08 -2.32709e-29)
(-7.13783e-08 2.24036e-08 -7.68196e-30)
(-1.38194e-08 4.70966e-09 -6.20348e-24)
(1.61791e-07 -5.17505e-08 6.11277e-24)
(2.34818e-07 -7.64889e-08 -1.25102e-23)
(6.45715e-07 -2.15769e-07 -2.39271e-29)
(7.38294e-07 -2.52646e-07 6.5007e-24)
(2.43354e-06 -8.49114e-07 1.61631e-29)
(2.75791e-06 -3.69347e-06 1.61658e-23)
(-1.53712e-05 0.000277935 0)
(3.76502e-06 0.000195467 0)
(1.097e-05 0.000264492 -5.19734e-27)
(3.14811e-05 0.000286734 3.34948e-24)
(9.20704e-05 0.000304187 1.57003e-23)
(9.96626e-05 0.000189103 0)
(8.59312e-05 0.000151293 -4.64114e-27)
(9.40917e-05 0.000139523 -3.96485e-23)
(8.05947e-05 0.000103587 -3.58308e-23)
(7.6993e-05 8.75882e-05 -8.3781e-27)
(6.54973e-05 6.68796e-05 8.23376e-27)
(5.84228e-05 5.42681e-05 -3.11204e-23)
(4.91704e-05 4.18352e-05 -5.55449e-23)
(4.1982e-05 3.29988e-05 2.69635e-23)
(3.49185e-05 2.55104e-05 -5.96329e-27)
(2.86438e-05 1.95029e-05 0)
(2.31685e-05 1.4793e-05 4.05723e-23)
(1.81965e-05 1.09006e-05 -3.57073e-23)
(1.38798e-05 7.82745e-06 3.43202e-23)
(1.02618e-05 5.46883e-06 3.03277e-23)
(6.93298e-06 3.48861e-06 -2.73214e-23)
(4.22877e-06 2.01833e-06 -3.03196e-27)
(1.90056e-06 8.66154e-07 6.78481e-28)
(-9.02756e-08 -2.41987e-08 -2.6372e-27)
(-1.6805e-06 -6.59679e-07 -1.92522e-23)
(-3.00713e-06 -1.12718e-06 -3.42934e-23)
(-4.06608e-06 -1.44301e-06 -2.02843e-27)
(-4.86817e-06 -1.63756e-06 0)
(-5.49827e-06 -1.74502e-06 1.5726e-27)
(-5.93265e-06 -1.77496e-06 1.26695e-23)
(-6.2243e-06 -1.75536e-06 1.89997e-27)
(-6.39888e-06 -1.69243e-06 1.05904e-23)
(-6.45643e-06 -1.6008e-06 2.01915e-23)
(-6.44058e-06 -1.49333e-06 0)
(-6.35065e-06 -1.3691e-06 0)
(-6.20552e-06 -1.24298e-06 8.26082e-24)
(-6.0241e-06 -1.11456e-06 -2.87419e-29)
(-5.80631e-06 -9.84904e-07 -7.38352e-24)
(-5.57046e-06 -8.64508e-07 8.38404e-28)
(-5.31837e-06 -7.46578e-07 -8.10452e-28)
(-5.05587e-06 -6.36858e-07 0)
(-4.79386e-06 -5.35834e-07 -2.99205e-24)
(-4.52882e-06 -4.41569e-07 1.20123e-29)
(-4.27112e-06 -3.56964e-07 6.80434e-28)
(-4.02034e-06 -2.79036e-07 0)
(-3.77966e-06 -2.11188e-07 2.56852e-24)
(-3.55133e-06 -1.4806e-07 1.22552e-24)
(-3.33219e-06 -9.46966e-08 -2.92438e-28)
(-3.12373e-06 -4.44057e-08 -5.7348e-25)
(-2.92351e-06 -2.82734e-09 0)
(-2.73172e-06 3.46716e-08 -1.20245e-29)
(-2.54886e-06 6.63767e-08 1.03936e-24)
(-2.39117e-06 9.55083e-08 2.51524e-24)
(-2.24863e-06 1.11591e-07 1.2484e-24)
(-2.12583e-06 1.24721e-07 2.48848e-24)
(-2.01001e-06 1.36114e-07 -4.95616e-24)
(-1.89857e-06 1.44537e-07 2.46511e-24)
(-1.80457e-06 1.48523e-07 0)
(-1.71813e-06 1.55123e-07 2.4494e-24)
(-1.64009e-06 1.58697e-07 -2.44141e-24)
(-1.5711e-06 1.63638e-07 2.97628e-28)
(-1.50875e-06 1.66677e-07 4.86198e-24)
(-1.45494e-06 1.71315e-07 2.96676e-28)
(-1.40775e-06 1.74347e-07 0)
(-1.36687e-06 1.7876e-07 4.84949e-24)
(-1.3333e-06 1.82171e-07 4.83303e-24)
(-1.30419e-06 1.87307e-07 0)
(-1.28143e-06 1.91079e-07 -4.8349e-24)
(-1.26328e-06 1.96942e-07 -4.82239e-24)
(-1.24887e-06 2.0175e-07 0)
(-1.23936e-06 2.08188e-07 -4.81702e-24)
(-1.23241e-06 2.13963e-07 1.39687e-28)
(-1.22905e-06 2.20645e-07 -4.83546e-24)
(-1.22843e-06 2.27463e-07 1.4679e-28)
(-1.22901e-06 2.34961e-07 0)
(-1.23217e-06 2.42539e-07 9.6083e-24)
(-1.23472e-06 2.50442e-07 -9.665e-24)
(-1.23918e-06 2.57753e-07 1.93133e-23)
(-1.24225e-06 2.66069e-07 0)
(-1.24475e-06 2.73573e-07 -9.71747e-24)
(-1.24516e-06 2.81434e-07 9.45904e-29)
(-1.24302e-06 2.87379e-07 1.99387e-29)
(-1.2375e-06 2.9367e-07 -9.60147e-24)
(-1.22719e-06 2.98041e-07 9.74471e-24)
(-1.21078e-06 3.01465e-07 -9.63049e-24)
(-1.18832e-06 3.0217e-07 7.43931e-29)
(-1.15518e-06 3.01062e-07 1.92889e-23)
(-1.11514e-06 2.96702e-07 9.78033e-24)
(-1.0564e-06 2.88243e-07 0)
(-9.92668e-07 2.75621e-07 7.51664e-29)
(-8.95199e-07 2.55285e-07 -1.46756e-28)
(-7.99081e-07 2.31258e-07 -9.80778e-24)
(-6.37137e-07 1.89973e-07 -7.45056e-29)
(-5.01694e-07 1.51877e-07 7.42168e-29)
(-2.20627e-07 6.84115e-08 -9.8536e-24)
(-4.34108e-08 1.36134e-08 9.89247e-24)
(4.95031e-07 -1.59739e-07 8.05909e-29)
(7.20121e-07 -2.36999e-07 9.97454e-24)
(1.97913e-06 -6.64453e-07 1.89321e-29)
(2.26394e-06 -7.83195e-07 -1.03661e-23)
(7.42753e-06 -2.60163e-06 -2.34735e-28)
(6.53967e-06 -1.152e-05 -3.87465e-23)
(-9.22591e-06 0.000475381 1.60587e-24)
(6.39611e-06 0.000337497 -9.7776e-25)
(1.95315e-05 0.000453757 6.92154e-25)
(5.43926e-05 0.000491672 -1.8042e-24)
(0.00015708 0.000521253 1.68048e-23)
(0.000170995 0.000326983 1.07594e-26)
(0.000148054 0.00026151 -5.06211e-27)
(0.000161849 0.000240658 8.52692e-23)
(0.000139011 0.000179336 7.70576e-23)
(0.000132775 0.000151493 9.03571e-27)
(0.000113147 0.000115923 0)
(0.000100951 9.40559e-05 7.96505e-27)
(8.5062e-05 7.26076e-05 1.19508e-22)
(7.26652e-05 5.72966e-05 0)
(6.04915e-05 4.43403e-05 -6.05297e-27)
(4.9663e-05 3.39309e-05 6.00797e-27)
(4.02069e-05 2.57654e-05 -4.3649e-23)
(3.16161e-05 1.90152e-05 3.84157e-23)
(2.41539e-05 1.36816e-05 0)
(1.78936e-05 9.58456e-06 -3.26366e-23)
(1.21348e-05 6.14499e-06 2.94021e-23)
(7.45101e-06 3.5866e-06 2.75846e-23)
(3.41786e-06 1.58134e-06 4.88172e-23)
(-3.22147e-08 2.98612e-08 5.49924e-27)
(-2.79089e-06 -1.07982e-06 -5.06743e-27)
(-5.09325e-06 -1.89731e-06 1.84577e-23)
(-6.93273e-06 -2.45173e-06 0)
(-8.32798e-06 -2.79515e-06 1.88093e-27)
(-9.4251e-06 -2.98702e-06 -1.7885e-27)
(-1.01836e-05 -3.0441e-06 -1.62566e-27)
(-1.06946e-05 -3.01454e-06 3.6392e-27)
(-1.10028e-05 -2.90955e-06 -2.27951e-23)
(-1.11082e-05 -2.75432e-06 -1.08639e-23)
(-1.1086e-05 -2.5711e-06 -1.24178e-27)
(-1.09354e-05 -2.35859e-06 1.12674e-27)
(-1.06889e-05 -2.14241e-06 -1.10447e-27)
(-1.03791e-05 -1.92184e-06 0)
(-1.00062e-05 -1.69901e-06 9.57855e-28)
(-9.6016e-06 -1.49181e-06 -1.82764e-27)
(-9.16854e-06 -1.28875e-06 7.05823e-24)
(-8.71729e-06 -1.09973e-06 8.26524e-28)
(-8.26654e-06 -9.25591e-07 3.21845e-24)
(-7.81041e-06 -7.63057e-07 0)
(-7.36667e-06 -6.17117e-07 0)
(-6.9348e-06 -4.82684e-07 -2.83788e-24)
(-6.52014e-06 -3.65547e-07 6.79465e-28)
(-6.12668e-06 -2.56626e-07 6.40223e-28)
(-5.74898e-06 -1.64426e-07 -6.29483e-28)
(-5.38961e-06 -7.76509e-08 6.17793e-25)
(-5.04447e-06 -5.79577e-09 -5.85401e-28)
(-4.71373e-06 5.8993e-08 5.79407e-25)
(-4.39835e-06 1.13769e-07 -1.11914e-24)
(-4.12649e-06 1.63992e-07 -1.353e-24)
(-3.88076e-06 1.91885e-07 1.34295e-24)
(-3.6688e-06 2.14613e-07 2.67853e-24)
(-3.46903e-06 2.34342e-07 2.66717e-24)
(-3.27686e-06 2.48941e-07 0)
(-3.11466e-06 2.55904e-07 2.64869e-24)
(-2.96552e-06 2.67307e-07 -2.63646e-24)
(-2.83089e-06 2.73556e-07 2.62819e-24)
(-2.7118e-06 2.82135e-07 -2.62745e-24)
(-2.60421e-06 2.87428e-07 -5.23362e-24)
(-2.5114e-06 2.95452e-07 6.38222e-28)
(-2.42997e-06 3.00738e-07 5.21791e-24)
(-2.35939e-06 3.08377e-07 -1.04388e-23)
(-2.30145e-06 3.14306e-07 -5.20154e-24)
(-2.25124e-06 3.23189e-07 0)
(-2.21195e-06 3.29739e-07 5.20355e-24)
(-2.18058e-06 3.39862e-07 1.03801e-23)
(-2.1557e-06 3.48193e-07 0)
(-2.1393e-06 3.59323e-07 5.18434e-24)
(-2.12732e-06 3.69303e-07 5.19091e-24)
(-2.12152e-06 3.80862e-07 -1.82027e-28)
(-2.12039e-06 3.9263e-07 1.57942e-28)
(-2.12129e-06 4.05553e-07 -3.18281e-28)
(-2.12674e-06 4.18628e-07 -1.03409e-23)
(-2.13119e-06 4.32292e-07 1.04024e-23)
(-2.13881e-06 4.44894e-07 -1.03933e-23)
(-2.14407e-06 4.59207e-07 -1.03675e-23)
(-2.14835e-06 4.72164e-07 1.04585e-23)
(-2.14904e-06 4.85713e-07 -1.03398e-23)
(-2.14531e-06 4.95955e-07 1.04923e-23)
(-2.13576e-06 5.06772e-07 1.5767e-28)
(-2.11792e-06 5.14296e-07 -1.04879e-23)
(-2.08959e-06 5.20159e-07 1.03648e-23)
(-2.0508e-06 5.21327e-07 1.60135e-28)
(-1.9936e-06 5.19354e-07 -1.03802e-23)
(-1.92448e-06 5.11778e-07 -1.0526e-23)
(-1.82318e-06 4.97113e-07 -7.91517e-29)
(-1.71317e-06 4.75224e-07 0)
(-1.54512e-06 4.40076e-07 -1.03482e-23)
(-1.37921e-06 3.98448e-07 2.58097e-29)
(-1.10012e-06 3.2718e-07 0)
(-8.66307e-07 2.61117e-07 0)
(-3.82103e-07 1.17214e-07 0)
(-7.59932e-08 2.18782e-08 -1.0647e-23)
(8.50977e-07 -2.76697e-07 -1.04911e-23)
(1.24009e-06 -4.12213e-07 0)
(3.40632e-06 -1.14786e-06 0)
(3.89717e-06 -1.36324e-06 1.11607e-23)
(1.27482e-05 -4.47418e-06 1.04498e-23)
(1.07362e-05 -1.94787e-05 -4.14428e-23)
(-3.27627e-06 0.000684549 -1.72648e-24)
(9.13971e-06 0.000490442 1.05125e-24)
(2.92866e-05 0.00065495 1.4337e-27)
(7.91155e-05 0.000709364 -1.78955e-27)
(0.000225416 0.000751552 0)
(0.00024681 0.000475854 5.36386e-23)
(0.000214634 0.000380431 -3.82648e-23)
(0.000234246 0.00034935 -4.58287e-23)
(0.000201762 0.000261318 -4.14385e-23)
(0.000192677 0.000220537 0)
(0.00016449 0.000169125 0)
(0.0001468 0.000137213 0)
(0.000123844 0.000106072 -6.42879e-23)
(0.000105854 8.37423e-05 0)
(8.81994e-05 6.48748e-05 -6.5128e-27)
(7.24741e-05 4.9693e-05 6.46445e-27)
(5.87303e-05 3.77773e-05 4.69694e-23)
(4.62385e-05 2.79236e-05 5.21362e-27)
(3.53822e-05 2.0132e-05 -3.97548e-23)
(2.62656e-05 1.41413e-05 0)
(1.78809e-05 9.11227e-06 -3.16532e-23)
(1.10532e-05 5.36482e-06 -2.96736e-23)
(5.17285e-06 2.42699e-06 -2.62686e-23)
(1.4055e-07 1.51089e-07 -2.42043e-23)
(-3.88749e-06 -1.4802e-06 2.64199e-27)
(-7.25076e-06 -2.68361e-06 -1.51163e-28)
(-9.94029e-06 -3.50291e-06 1.86678e-23)
(-1.19833e-05 -4.01324e-06 0)
(-1.35914e-05 -4.30159e-06 -1.53195e-23)
(-1.47063e-05 -4.39261e-06 -1.83989e-27)
(-1.54602e-05 -4.35613e-06 -2.66629e-23)
(-1.59182e-05 -4.20908e-06 2.45372e-23)
(-1.60806e-05 -3.988e-06 -1.45948e-27)
(-1.60561e-05 -3.72529e-06 1.07257e-23)
(-1.58442e-05 -3.41948e-06 -2.47043e-27)
(-1.54924e-05 -3.10767e-06 1.18873e-27)
(-1.50474e-05 -2.78893e-06 0)
(-1.45103e-05 -2.46672e-06 1.03091e-27)
(-1.39264e-05 -2.16663e-06 -9.95868e-28)
(-1.33005e-05 -1.8724e-06 -2.31314e-28)
(-1.26479e-05 -1.59838e-06 9.08023e-28)
(-1.19954e-05 -1.34577e-06 0)
(-1.13349e-05 -1.10992e-06 0)
(-1.0692e-05 -8.98056e-07 7.76251e-28)
(-1.00662e-05 -7.02908e-07 3.05264e-24)
(-9.465e-06 -5.3264e-07 0)
(-8.89446e-06 -3.74583e-07 0)
(-8.34667e-06 -2.40406e-07 -6.7085e-28)
(-7.82536e-06 -1.1452e-07 5.7856e-30)
(-7.32468e-06 -9.9343e-09 6.30041e-28)
(-6.84475e-06 8.42617e-08 -6.23603e-25)
(-6.38703e-06 1.63959e-07 1.20394e-24)
(-5.99258e-06 2.36725e-07 -1.45618e-24)
(-5.63607e-06 2.77517e-07 -1.44637e-24)
(-5.32828e-06 3.1055e-07 -5.76471e-24)
(-5.0383e-06 3.39386e-07 2.87126e-24)
(-4.75943e-06 3.60615e-07 -6.98061e-28)
(-4.52391e-06 3.70945e-07 -2.8506e-24)
(-4.30736e-06 3.8744e-07 -3.46022e-28)
(-4.11191e-06 3.96705e-07 5.6833e-31)
(-3.93896e-06 4.09175e-07 2.82775e-24)
(-3.78273e-06 4.17027e-07 0)
(-3.64799e-06 4.28631e-07 -5.62781e-24)
(-3.52974e-06 4.36466e-07 5.52197e-31)
(-3.42721e-06 4.47533e-07 7.02623e-29)
(-3.34304e-06 4.56282e-07 0)
(-3.27016e-06 4.69142e-07 3.4178e-28)
(-3.21306e-06 4.78777e-07 -6.83746e-28)
(-3.16745e-06 4.93437e-07 2.66979e-28)
(-3.1313e-06 5.05645e-07 0)
(-3.10748e-06 5.21763e-07 0)
(-3.09009e-06 5.3635e-07 5.58675e-24)
(-3.08165e-06 5.53096e-07 1.12005e-23)
(-3.07992e-06 5.70245e-07 0)
(-3.08112e-06 5.88967e-07 -5.61388e-24)
(-3.08898e-06 6.08003e-07 6.79473e-28)
(-3.09549e-06 6.27807e-07 -1.11951e-23)
(-3.10645e-06 6.46144e-07 1.11853e-23)
(-3.11399e-06 6.66858e-07 1.11582e-23)
(-3.12013e-06 6.85692e-07 -1.12558e-23)
(-3.12112e-06 7.05298e-07 -1.11281e-23)
(-3.11563e-06 7.20187e-07 -1.72331e-28)
(-3.10168e-06 7.35787e-07 0)
(-3.07569e-06 7.4671e-07 0)
(-3.03452e-06 7.55108e-07 0)
(-2.97812e-06 7.56786e-07 0)
(-2.89504e-06 7.53763e-07 -1.70477e-28)
(-2.79458e-06 7.42725e-07 1.72856e-28)
(-2.64757e-06 7.21251e-07 -1.11665e-23)
(-2.48773e-06 6.89376e-07 0)
(-2.24392e-06 6.38152e-07 1.11374e-23)
(-2.00288e-06 5.77537e-07 1.13611e-23)
(-1.59815e-06 4.73901e-07 -8.61832e-29)
(-1.25847e-06 3.77514e-07 -8.6042e-29)
(-5.56545e-07 1.68742e-07 8.715e-29)
(-1.11598e-07 2.9091e-08 -4.36025e-29)
(1.23127e-06 -4.03593e-07 1.12917e-23)
(1.79726e-06 -6.03906e-07 -8.74326e-29)
(4.93337e-06 -1.66907e-06 6.61368e-29)
(5.64491e-06 -1.99814e-06 -1.2012e-23)
(1.84113e-05 -6.47663e-06 1.2315e-29)
(1.52262e-05 -2.79732e-05 5.94593e-23)
(1.17509e-06 0.000905906 5.40287e-29)
(1.20054e-05 0.000655059 5.64832e-25)
(4.03584e-05 0.000868602 -8.20241e-25)
(0.000105777 0.000940362 2.11731e-24)
(0.000297148 0.000995614 -1.12411e-26)
(0.000327333 0.000636556 -5.76593e-23)
(0.00028596 0.000508749 4.11194e-23)
(0.000311567 0.000466149 1.05771e-26)
(0.000269161 0.000350063 -1.11694e-26)
(0.000256998 0.000295151 2.08607e-26)
(0.000219818 0.000226862 -1.0238e-26)
(0.000196237 0.000184046 3.87148e-23)
(0.000165759 0.000142487 -1.64807e-26)
(0.000141766 0.000112546 -3.35501e-23)
(0.000118233 8.72859e-05 0)
(9.72422e-05 6.69281e-05 -1.31e-26)
(7.88804e-05 5.09405e-05 -5.05277e-23)
(6.21828e-05 3.77149e-05 1.05034e-26)
(4.76635e-05 2.72486e-05 4.27727e-23)
(3.54584e-05 1.91938e-05 3.77922e-23)
(2.42355e-05 1.24324e-05 3.405e-23)
(1.5085e-05 7.38439e-06 0)
(7.20246e-06 3.42606e-06 0)
(4.53777e-07 3.55543e-07 5.21007e-23)
(-4.95399e-06 -1.85022e-06 -2.4011e-23)
(-9.47147e-06 -3.47972e-06 0)
(-1.30874e-05 -4.59358e-06 -4.01845e-23)
(-1.58383e-05 -5.29132e-06 -1.8335e-23)
(-1.80059e-05 -5.6901e-06 3.29731e-23)
(-1.95133e-05 -5.82322e-06 1.58009e-23)
(-2.05363e-05 -5.78371e-06 1.43497e-23)
(-2.11625e-05 -5.5952e-06 -1.3205e-23)
(-2.13925e-05 -5.3063e-06 0)
(-2.13709e-05 -4.96043e-06 -9.20195e-28)
(-2.10979e-05 -4.55626e-06 1.08768e-23)
(-2.06368e-05 -4.14307e-06 1.32079e-27)
(-2.00499e-05 -3.71985e-06 -9.55177e-24)
(-1.93391e-05 -3.29177e-06 -9.20518e-24)
(-1.8565e-05 -2.89234e-06 -1.04523e-27)
(-1.77339e-05 -2.50055e-06 -8.17215e-24)
(-1.68665e-05 -2.13545e-06 -9.77275e-28)
(-1.59987e-05 -1.79868e-06 3.72926e-24)
(-1.51196e-05 -1.48411e-06 3.59776e-24)
(-1.42636e-05 -1.20143e-06 0)
(-1.343e-05 -9.41078e-07 3.2857e-24)
(-1.2629e-05 -7.13522e-07 -3.20233e-24)
(-1.18686e-05 -5.0278e-07 7.41592e-28)
(-1.11384e-05 -3.23214e-07 -1.45116e-27)
(-1.04434e-05 -1.5543e-07 -7.14231e-25)
(-9.77581e-06 -1.54386e-08 0)
(-9.13573e-06 1.1044e-07 1.34229e-24)
(-8.52516e-06 2.17051e-07 -2.59147e-24)
(-7.99908e-06 3.13892e-07 1.56793e-24)
(-7.52365e-06 3.68789e-07 -7.58428e-28)
(-7.11288e-06 4.12878e-07 3.10281e-24)
(-6.726e-06 4.5166e-07 -3.08936e-24)
(-6.35404e-06 4.80002e-07 0)
(-6.03967e-06 4.94146e-07 0)
(-5.7507e-06 5.16032e-07 0)
(-5.48987e-06 5.28694e-07 7.42627e-28)
(-5.25902e-06 5.45326e-07 -1.48541e-27)
(-5.05049e-06 5.56079e-07 7.40819e-28)
(-4.87068e-06 5.71466e-07 6.05721e-24)
(-4.71283e-06 5.82183e-07 -1.20881e-23)
(-4.57597e-06 5.9689e-07 1.00695e-28)
(-4.46357e-06 6.08796e-07 0)
(-4.36631e-06 6.25873e-07 0)
(-4.29004e-06 6.38942e-07 0)
(-4.2291e-06 6.58427e-07 -6.01158e-24)
(-4.1808e-06 6.74906e-07 0)
(-4.14899e-06 6.96321e-07 0)
(-4.12574e-06 7.15947e-07 -1.20251e-23)
(-4.11444e-06 7.38233e-07 -6.027e-24)
(-4.11203e-06 7.61222e-07 0)
(-4.1135e-06 7.86136e-07 1.2083e-23)
(-4.12391e-06 8.1163e-07 3.65582e-28)
(-4.13261e-06 8.37985e-07 4.01196e-28)
(-4.14709e-06 8.6254e-07 -2.4077e-23)
(-4.15704e-06 8.90072e-07 -1.20086e-23)
(-4.16511e-06 9.15255e-07 1.21145e-23)
(-4.16637e-06 9.4127e-07 1.19765e-23)
(-4.15891e-06 9.61211e-07 1.2154e-23)
(-4.14019e-06 9.81839e-07 -1.82633e-28)
(-4.10538e-06 9.96447e-07 0)
(-4.05037e-06 1.00743e-06 0)
(-3.97494e-06 1.0097e-06 0)
(-3.86402e-06 1.00539e-06 0)
(-3.72977e-06 9.90652e-07 0)
(-3.53367e-06 9.61659e-07 1.20182e-23)
(-3.32017e-06 9.19064e-07 0)
(-2.99505e-06 8.50341e-07 -1.8303e-28)
(-2.67314e-06 7.69289e-07 9.3178e-29)
(-2.1337e-06 6.30651e-07 9.27569e-29)
(-1.68008e-06 5.01416e-07 0)
(-7.4488e-07 2.23028e-07 1.22851e-23)
(-1.50388e-07 3.49155e-08 -1.87609e-28)
(1.6375e-06 -5.41352e-07 -1.21528e-23)
(2.39422e-06 -8.13792e-07 4.70761e-29)
(6.5666e-06 -2.23106e-06 -1.22792e-23)
(7.51447e-06 -2.69324e-06 0)
(2.44333e-05 -8.61666e-06 0)
(2.00254e-05 -3.70307e-05 -3.19622e-23)
(4.99266e-06 0.00113983 0)
(1.50019e-05 0.000832149 -6.07146e-25)
(5.28951e-05 0.00109523 -6.89328e-27)
(0.00013452 0.0011852 -2.27403e-24)
(0.000372314 0.00125395 -2.06902e-23)
(0.000412774 0.000809983 0)
(0.000362331 0.000647219 1.23755e-26)
(0.000394101 0.000591647 -1.13647e-26)
(0.000341536 0.000446149 -1.20058e-26)
(0.000326052 0.000375805 3.36255e-26)
(0.000279441 0.000289547 -2.20152e-26)
(0.000249547 0.000234895 -8.32821e-23)
(0.000211073 0.000182136 7.43793e-23)
(0.000180636 0.00014394 3.60937e-23)
(0.000150802 0.000111765 -6.35509e-23)
(0.00012415 8.57911e-05 0)
(0.000100814 6.53801e-05 0)
(7.95819e-05 4.84886e-05 4.78792e-23)
(6.11088e-05 3.511e-05 0)
(4.55632e-05 2.48036e-05 -4.0672e-23)
(3.12715e-05 1.61523e-05 -8.65793e-27)
(1.96034e-05 9.68066e-06 8.68023e-27)
(9.54981e-06 4.60455e-06 0)
(9.38227e-07 6.61476e-07 -5.60604e-23)
(-5.97012e-06 -2.17768e-06 2.58228e-23)
(-1.17442e-05 -4.27827e-06 5.45211e-27)
(-1.63703e-05 -5.72009e-06 4.32444e-23)
(-1.98956e-05 -6.62856e-06 1.97339e-23)
(-2.26765e-05 -7.15385e-06 -1.77487e-23)
(-2.46166e-05 -7.33873e-06 -1.69985e-23)
(-2.59381e-05 -7.30115e-06 3.68431e-27)
(-2.67534e-05 -7.0724e-06 1.42079e-23)
(-2.70633e-05 -6.71407e-06 0)
(-2.7051e-05 -6.28149e-06 -1.2424e-23)
(-2.67179e-05 -5.77386e-06 -1.17017e-23)
(-2.6144e-05 -5.25334e-06 0)
(-2.54085e-05 -4.71905e-06 2.05643e-23)
(-2.45144e-05 -4.17826e-06 9.90357e-24)
(-2.35386e-05 -3.67267e-06 0)
(-2.24894e-05 -3.17655e-06 -2.12499e-27)
(-2.13931e-05 -2.71391e-06 2.10361e-27)
(-2.02954e-05 -2.28689e-06 -4.01331e-24)
(-1.91829e-05 -1.88785e-06 -3.87182e-24)
(-1.80989e-05 -1.52908e-06 0)
(-1.7043e-05 -1.1987e-06 -3.53688e-24)
(-1.6028e-05 -9.09406e-07 -2.49432e-28)
(-1.50641e-05 -6.42153e-07 0)
(-1.41384e-05 -4.13531e-07 0)
(-1.32569e-05 -2.00842e-07 7.70163e-25)
(-1.24103e-05 -2.25766e-08 -7.29787e-28)
(-1.15984e-05 1.37435e-07 -1.44463e-24)
(-1.08237e-05 2.73117e-07 1.39452e-24)
(-1.01563e-05 3.9569e-07 0)
(-9.55328e-06 4.65997e-07 -1.6753e-24)
(-9.03186e-06 5.21969e-07 3.33846e-24)
(-8.5409e-06 5.71597e-07 1.62395e-27)
(-8.06899e-06 6.07589e-07 -8.08538e-28)
(-7.66985e-06 6.26031e-07 8.05384e-28)
(-7.30306e-06 6.53648e-07 -8.03069e-28)
(-6.97196e-06 6.70117e-07 3.27581e-24)
(-6.67891e-06 6.91215e-07 -3.27472e-24)
(-6.41416e-06 7.05235e-07 0)
(-6.1859e-06 7.24639e-07 -6.51835e-24)
(-5.98548e-06 7.38593e-07 6.50458e-24)
(-5.81171e-06 7.57184e-07 6.50523e-24)
(-5.66893e-06 7.72603e-07 7.92067e-28)
(-5.54546e-06 7.9417e-07 6.48882e-24)
(-5.44855e-06 8.11039e-07 0)
(-5.37111e-06 8.35677e-07 0)
(-5.30972e-06 8.56838e-07 6.48979e-24)
(-5.2693e-06 8.83899e-07 -3.94441e-28)
(-5.23972e-06 9.09009e-07 6.47078e-24)
(-5.22529e-06 9.37241e-07 0)
(-5.2221e-06 9.66546e-07 -3.93771e-28)
(-5.22384e-06 9.98098e-07 -6.50169e-24)
(-5.23691e-06 1.03055e-06 3.9345e-28)
(-5.24793e-06 1.06393e-06 1.29662e-23)
(-5.26613e-06 1.09519e-06 1.29566e-23)
(-5.27859e-06 1.13002e-06 -2.2667e-28)
(-5.28867e-06 1.16202e-06 3.9789e-28)
(-5.29018e-06 1.19485e-06 -1.28902e-23)
(-5.28051e-06 1.22024e-06 -1.30803e-23)
(-5.25659e-06 1.24618e-06 9.85889e-33)
(-5.21221e-06 1.26474e-06 1.30743e-23)
(-5.14227e-06 1.27841e-06 1.97148e-28)
(-5.0463e-06 1.2813e-06 -3.99267e-28)
(-4.90542e-06 1.27546e-06 1.97438e-28)
(-4.73477e-06 1.25672e-06 0)
(-4.48592e-06 1.21948e-06 1.29346e-23)
(-4.21464e-06 1.16531e-06 1.32189e-23)
(-3.80225e-06 1.0776e-06 1.29009e-23)
(-3.39331e-06 9.74474e-07 -1.31603e-23)
(-2.70946e-06 7.98052e-07 0)
(-2.13322e-06 6.3316e-07 -9.96689e-29)
(-9.4819e-07 2.80081e-07 -2.64439e-23)
(-1.92625e-07 3.89561e-08 0)
(2.07122e-06 -6.91017e-07 1.30802e-23)
(3.03364e-06 -1.04371e-06 1.33867e-23)
(8.31253e-06 -2.83708e-06 -2.93105e-28)
(9.51336e-06 -3.45465e-06 0)
(3.08308e-05 -1.09023e-05 -1.42491e-29)
(2.51591e-05 -4.6655e-05 -1.71486e-23)
(8.40841e-06 0.00138667 0)
(1.81385e-05 0.00102255 0)
(6.70609e-05 0.00133534 9.53186e-25)
(0.000165498 0.00144437 -8.6469e-27)
(0.00045093 0.00152703 4.44211e-23)
(0.000503329 0.000997081 -1.19287e-28)
(0.00044405 0.00079665 1.56228e-28)
(0.000482145 0.000726482 1.22091e-26)
(0.000419235 0.000550203 5.14272e-23)
(0.00040017 0.000463013 0)
(0.000343695 0.000357635 0)
(0.000307041 0.000290135 4.47863e-23)
(0.000260073 0.000225336 -7.99933e-23)
(0.000222724 0.000178183 -3.88809e-23)
(0.000186136 0.000138526 6.83857e-23)
(0.000153398 0.000106456 -6.40386e-23)
(0.000124706 8.12363e-05 5.85372e-23)
(9.85837e-05 6.0357e-05 -5.15126e-23)
(7.58422e-05 4.38051e-05 -1.25031e-26)
(5.66824e-05 3.10404e-05 0)
(3.90719e-05 2.03261e-05 9.31761e-27)
(2.46738e-05 1.22944e-05 -1.80968e-26)
(1.22648e-05 5.99274e-06 8.27097e-27)
(1.63019e-06 1.09047e-06 3.01669e-23)
(-6.91122e-06 -2.44791e-06 6.58742e-27)
(-1.40542e-05 -5.07002e-06 2.47582e-23)
(-1.9783e-05 -6.87748e-06 -2.326e-23)
(-2.4156e-05 -8.02328e-06 -2.92761e-28)
(-2.76099e-05 -8.69359e-06 -1.91029e-23)
(-3.00273e-05 -8.94169e-06 -4.58781e-27)
(-3.16806e-05 -8.91217e-06 3.96534e-27)
(-3.27087e-05 -8.64523e-06 -1.53e-23)
(-3.31131e-05 -8.21629e-06 1.45854e-23)
(-3.3118e-05 -7.69363e-06 -1.33741e-23)
(-3.27265e-05 -7.07742e-06 1.12386e-28)
(-3.20368e-05 -6.44345e-06 5.83236e-27)
(-3.11462e-05 -5.79125e-06 -1.1067e-23)
(-3.0059e-05 -5.1306e-06 -1.06656e-23)
(-2.88697e-05 -4.51164e-06 1.00434e-23)
(-2.75888e-05 -3.90402e-06 9.46706e-24)
(-2.6249e-05 -3.33697e-06 -2.21793e-27)
(-2.49061e-05 -2.8132e-06 4.03634e-29)
(-2.35444e-05 -2.32353e-06 4.16951e-24)
(-2.22167e-05 -1.88304e-06 0)
(-2.09229e-05 -1.47746e-06 1.84694e-27)
(-1.96787e-05 -1.12164e-06 -2.11237e-27)
(-1.84969e-05 -7.93748e-07 1.76679e-24)
(-1.73615e-05 -5.12137e-07 1.72232e-24)
(-1.62803e-05 -2.51292e-07 -8.05248e-28)
(-1.52416e-05 -3.16779e-08 6.2708e-30)
(-1.42453e-05 1.65112e-07 7.78134e-25)
(-1.32945e-05 3.32197e-07 0)
(-1.24754e-05 4.82298e-07 0)
(-1.17354e-05 5.69423e-07 3.6042e-24)
(-1.10952e-05 6.38195e-07 -1.35761e-29)
(-1.04924e-05 6.99635e-07 0)
(-9.9132e-06 7.43874e-07 -3.56044e-24)
(-9.42294e-06 7.67138e-07 8.68785e-28)
(-8.97256e-06 8.00875e-07 -8.62647e-28)
(-8.56596e-06 8.21591e-07 -7.05011e-24)
(-8.20606e-06 8.47502e-07 7.0494e-24)
(-7.8809e-06 8.65176e-07 -8.58046e-28)
(-7.60056e-06 8.8887e-07 7.01521e-24)
(-7.35436e-06 9.0644e-07 8.54285e-28)
(-7.14092e-06 9.29195e-07 -8.54962e-28)
(-6.96546e-06 9.48506e-07 8.5172e-28)
(-6.81382e-06 9.74874e-07 -6.98519e-24)
(-6.69468e-06 9.95935e-07 6.98282e-24)
(-6.5995e-06 1.02609e-06 -8.50071e-28)
(-6.524e-06 1.05237e-06 -6.98413e-24)
(-6.47428e-06 1.08546e-06 0)
(-6.43787e-06 1.11653e-06 0)
(-6.42003e-06 1.15116e-06 0)
(-6.41593e-06 1.18728e-06 4.23783e-28)
(-6.41792e-06 1.22596e-06 -4.27081e-28)
(-6.43379e-06 1.2659e-06 0)
(-6.44724e-06 1.3068e-06 -1.39538e-23)
(-6.46934e-06 1.34529e-06 1.39432e-23)
(-6.48446e-06 1.38792e-06 1.39096e-23)
(-6.4966e-06 1.42726e-06 1.40315e-23)
(-6.4983e-06 1.46731e-06 6.56758e-28)
(-6.48617e-06 1.49858e-06 1.40774e-23)
(-6.45658e-06 1.53015e-06 0)
(-6.40182e-06 1.55293e-06 -1.28867e-28)
(-6.31576e-06 1.56935e-06 0)
(-6.19761e-06 1.5729e-06 -1.40797e-23)
(-6.02448e-06 1.56528e-06 0)
(-5.81461e-06 1.54219e-06 -2.15524e-28)
(-5.50909e-06 1.4959e-06 -1.39208e-23)
(-5.1756e-06 1.42923e-06 -1.42268e-23)
(-4.66958e-06 1.3209e-06 -1.38852e-23)
(-4.16699e-06 1.19393e-06 1.41641e-23)
(-3.32836e-06 9.7672e-07 0)
(-2.6202e-06 7.73082e-07 0)
(-1.1677e-06 3.39882e-07 2.84611e-23)
(-2.3865e-07 4.07404e-08 1.42875e-23)
(2.53398e-06 -8.53705e-07 -2.81559e-23)
(3.71824e-06 -1.29578e-06 6.99562e-28)
(1.01779e-05 -3.49063e-06 2.8448e-23)
(1.16493e-05 -4.28923e-06 2.77943e-29)
(3.762e-05 -1.33422e-05 -1.40268e-23)
(3.06485e-05 -5.68642e-05 7.38638e-23)
(1.13008e-05 0.00164674 0)
(2.14274e-05 0.00122711 6.99916e-25)
(8.30313e-05 0.0015894 4.34615e-27)
(0.000198872 0.00171835 -4.90136e-27)
(0.000532992 0.00181529 -6.20361e-26)
(0.000599187 0.00119884 7.09397e-23)
(0.000531431 0.000957917 -2.8554e-26)
(0.000576006 0.000871334 -1.9653e-27)
(0.000502624 0.000662908 -5.52502e-23)
(0.000479707 0.000557337 -5.54918e-29)
(0.000412939 0.000431626 5.05191e-23)
(0.000369053 0.000350179 -4.81434e-23)
(0.000313073 0.000272438 0)
(0.000268313 0.000215565 4.17831e-23)
(0.00022449 0.000167807 7.35709e-23)
(0.000185211 0.000129116 6.8924e-23)
(0.000150748 9.86674e-05 -6.29598e-23)
(0.000119353 7.34471e-05 5.54257e-23)
(9.20027e-05 5.34351e-05 0)
(6.89316e-05 3.79843e-05 1.11312e-26)
(4.77304e-05 2.50156e-05 -1.07274e-26)
(3.03709e-05 1.52729e-05 0)
(1.54051e-05 7.62605e-06 0)
(2.57238e-06 1.66811e-06 0)
(-7.74747e-06 -2.64309e-06 0)
(-1.63829e-05 -5.84339e-06 -2.66522e-23)
(-2.33161e-05 -8.05906e-06 0)
(-2.86182e-05 -9.47251e-06 0)
(-3.28112e-05 -1.03092e-05 4.11196e-23)
(-3.57561e-05 -1.06341e-05 -4.93775e-27)
(-3.77784e-05 -1.06202e-05 4.26777e-27)
(-3.90464e-05 -1.03181e-05 1.64584e-23)
(-3.95621e-05 -9.81798e-06 -1.56908e-23)
(-3.95938e-05 -9.20216e-06 -2.82697e-27)
(-3.9147e-05 -8.47232e-06 1.35608e-23)
(-3.8339e-05 -7.71865e-06 3.08697e-27)
(-3.7287e-05 -6.94146e-06 1.19041e-23)
(-3.5997e-05 -6.15344e-06 1.14774e-23)
(-3.45821e-05 -5.41356e-06 -1.08001e-23)
(-3.30555e-05 -4.68683e-06 -1.01904e-23)
(-3.14566e-05 -4.00806e-06 -2.43668e-27)
(-2.98525e-05 -3.38064e-06 2.24959e-27)
(-2.82248e-05 -2.79374e-06 -1.76237e-27)
(-2.66367e-05 -2.2655e-06 0)
(-2.50886e-05 -1.77916e-06 0)
(-2.35992e-05 -1.3517e-06 7.98625e-24)
(-2.21839e-05 -9.58709e-07 1.96873e-27)
(-2.0824e-05 -6.19898e-07 -1.85354e-24)
(-1.95285e-05 -3.07371e-07 0)
(-1.82839e-05 -4.31066e-08 0)
(-1.70898e-05 1.93313e-07 0)
(-1.595e-05 3.9431e-07 0)
(-1.49681e-05 5.73893e-07 1.95453e-24)
(-1.40813e-05 6.79344e-07 -3.87889e-24)
(-1.33134e-05 7.61933e-07 -3.86664e-24)
(-1.25906e-05 8.3622e-07 -3.85108e-24)
(-1.18963e-05 8.89375e-07 3.83083e-24)
(-1.13081e-05 9.18028e-07 -3.82437e-24)
(-1.07679e-05 9.58325e-07 9.28378e-28)
(-1.02802e-05 9.83762e-07 3.79324e-24)
(-9.84845e-06 1.01488e-06 -3.79375e-24)
(-9.45837e-06 1.03662e-06 7.55722e-24)
(-9.12206e-06 1.06492e-06 9.20928e-28)
(-8.82667e-06 1.08651e-06 -9.45124e-31)
(-8.5706e-06 1.11375e-06 -9.20115e-28)
(-8.35997e-06 1.13736e-06 -9.16629e-28)
(-8.17806e-06 1.16888e-06 5.78611e-31)
(-8.03499e-06 1.19455e-06 -1.50256e-23)
(-7.92072e-06 1.23062e-06 -7.4924e-24)
(-7.83002e-06 1.26249e-06 -7.51737e-24)