/*--------------------------------*- C++ -*----------------------------------*\
| =========                 |                                                 |
| \\      /  F ield         | OpenFOAM: The Open Source CFD Toolbox           |
|  \\    /   O peration     | Version:  5.x                                   |
|   \\  /    A nd           | Web:      www.OpenFOAM.org                      |
|    \\/     M anipulation  |                                                 |
\*---------------------------------------------------------------------------*/
FoamFile
{
    version     2.0;
    format      ascii;
    class       volVectorField;
    location    "3000";
    object      U;
}
// * * * * * * * * * * * * * * * * * * * * * * * * * * * * * * * * * * * * * //

dimensions      [0 1 -1 0 0 0 0];

internalField   nonuniform List<vector> 
107912
(
(2.88919e-05 7.38916e-05 -3.04912e-28)
(1.26377e-06 6.30715e-05 2.91156e-28)
(3.5698e-06 8.86926e-05 7.71817e-25)
(1.15676e-05 0.000105858 9.68958e-25)
(3.63872e-05 0.000119715 -9.60691e-24)
(4.48242e-05 8.43697e-05 2.49684e-23)
(4.2004e-05 7.37168e-05 1.87942e-23)
(4.88694e-05 7.23058e-05 6.94928e-28)
(4.67721e-05 5.98933e-05 -3.4701e-27)
(4.75268e-05 5.39224e-05 -3.8797e-27)
(4.49859e-05 4.57824e-05 -4.20392e-27)
(4.33854e-05 4.01791e-05 3.2779e-23)
(4.07171e-05 3.45265e-05 6.36657e-23)
(3.83536e-05 3.00461e-05 1.26376e-26)
(3.5874e-05 2.61144e-05 -6.26618e-23)
(3.33626e-05 2.26277e-05 6.27386e-23)
(3.10264e-05 1.97277e-05 7.45393e-27)
(2.86973e-05 1.71106e-05 0)
(2.64493e-05 1.48367e-05 -1.16971e-22)
(2.44267e-05 1.29358e-05 -5.46784e-23)
(2.23434e-05 1.11523e-05 0)
(2.04252e-05 9.64024e-06 0)
(1.86363e-05 8.32033e-06 -4.79757e-23)
(1.68398e-05 7.10057e-06 4.63883e-23)
(1.51994e-05 6.06998e-06 4.4664e-23)
(1.36361e-05 5.14758e-06 8.29961e-23)
(1.21048e-05 4.31443e-06 -4.05279e-23)
(1.07175e-05 3.61295e-06 3.8252e-23)
(9.36792e-06 2.97602e-06 -3.55036e-23)
(8.09536e-06 2.42226e-06 -3.49419e-23)
(6.94566e-06 1.95763e-06 3.24777e-23)
(5.827e-06 1.53905e-06 0)
(4.80405e-06 1.18845e-06 -2.95485e-23)
(3.87591e-06 8.95736e-07 3.30343e-27)
(2.9999e-06 6.43872e-07 -3.23422e-27)
(2.2239e-06 4.42879e-07 -7.15443e-28)
(1.52204e-06 2.78726e-07 2.31733e-23)
(8.89386e-07 1.48595e-07 6.23133e-28)
(3.46722e-07 5.15124e-08 -2.53583e-27)
(-1.35008e-07 -2.107e-08 -1.98154e-23)
(-5.41115e-07 -7.01179e-08 2.36474e-27)
(-8.79051e-07 -1.00058e-07 0)
(-1.16039e-06 -1.1476e-07 0)
(-1.37863e-06 -1.16931e-07 -8.20698e-24)
(-1.54971e-06 -1.09069e-07 0)
(-1.6709e-06 -9.467e-08 -1.5084e-23)
(-1.75253e-06 -7.47128e-08 -3.57531e-24)
(-1.79863e-06 -5.21289e-08 -3.46061e-24)
(-1.81405e-06 -2.74247e-08 0)
(-1.80406e-06 -2.77673e-09 0)
(-1.77183e-06 2.15083e-08 -1.5423e-24)
(-1.72004e-06 4.40963e-08 -1.4509e-27)
(-1.66465e-06 6.48125e-08 -3.58341e-24)
(-1.60878e-06 7.8916e-08 -3.54561e-24)
(-1.55173e-06 8.97592e-08 -7.05145e-24)
(-1.49567e-06 1.00456e-07 7.01161e-24)
(-1.4348e-06 1.08019e-07 -1.39225e-23)
(-1.37886e-06 1.12884e-07 -8.45596e-28)
(-1.32471e-06 1.18364e-07 6.89516e-24)
(-1.27118e-06 1.2219e-07 -6.86231e-24)
(-1.22057e-06 1.26106e-07 0)
(-1.17106e-06 1.28741e-07 -1.36368e-23)
(-1.12426e-06 1.31221e-07 8.31285e-28)
(-1.07882e-06 1.32985e-07 1.3562e-23)
(-1.0344e-06 1.34309e-07 8.27633e-28)
(-9.91784e-07 1.34858e-07 -1.34915e-23)
(-9.49189e-07 1.35317e-07 -4.11827e-28)
(-9.07778e-07 1.34758e-07 0)
(-8.66948e-07 1.3432e-07 -1.34189e-23)
(-8.26575e-07 1.32885e-07 0)
(-7.88203e-07 1.31542e-07 -1.33814e-23)
(-7.50908e-07 1.29788e-07 -2.67946e-23)
(-7.16369e-07 1.28021e-07 0)
(-6.84731e-07 1.26392e-07 4.06928e-28)
(-6.56124e-07 1.2501e-07 -4.10093e-28)
(-6.32163e-07 1.23935e-07 -4.06319e-28)
(-6.11827e-07 1.23652e-07 2.67721e-23)
(-5.96769e-07 1.23884e-07 -5.35069e-23)
(-5.86064e-07 1.25163e-07 0)
(-5.80443e-07 1.27171e-07 0)
(-5.7955e-07 1.30424e-07 2.65756e-23)
(-5.83165e-07 1.34476e-07 -2.69624e-23)
(-5.9137e-07 1.39805e-07 2.65421e-23)
(-6.03366e-07 1.46108e-07 4.10906e-28)
(-6.18948e-07 1.53459e-07 -2.02987e-28)
(-6.37412e-07 1.61735e-07 2.69226e-23)
(-6.57453e-07 1.70629e-07 4.22203e-28)
(-6.79081e-07 1.80258e-07 -1.31424e-31)
(-6.98675e-07 1.89582e-07 -2.02712e-28)
(-7.18147e-07 1.9909e-07 -2.7105e-23)
(-7.29226e-07 2.06663e-07 0)
(-7.3814e-07 2.13557e-07 -2.05025e-28)
(-7.26816e-07 2.14979e-07 3.05703e-28)
(-7.1309e-07 2.15204e-07 -1.01421e-28)
(-6.53615e-07 2.01422e-07 -5.01019e-29)
(-6.01499e-07 1.8924e-07 -2.67464e-23)
(-4.39424e-07 1.41117e-07 2.64096e-23)
(-3.18094e-07 1.04097e-07 -5.31508e-23)
(9.16505e-08 -3.08776e-08 -1.01435e-28)
(3.69139e-07 -1.26979e-07 2.68277e-23)
(1.92122e-06 -6.71216e-07 -2.43394e-28)
(2.84425e-06 -3.39227e-06 5.65661e-23)
(6.37776e-05 0.000225371 0)
(4.02667e-06 0.000194077 0)
(1.14394e-05 0.000270485 -5.57135e-27)
(3.56668e-05 0.000322244 -3.07667e-24)
(0.000110548 0.000364112 7.68146e-24)
(0.00013681 0.0002587 0)
(0.000128664 0.000226092 -4.73812e-27)
(0.000149492 0.000221299 -4.42746e-23)
(0.000143336 0.000183885 -4.56127e-23)
(0.000145671 0.000165466 -1.2358e-26)
(0.000138033 0.000140703 1.21451e-26)
(0.000133165 0.000123495 -5.22443e-23)
(0.000125057 0.000106207 -1.01408e-22)
(0.000117839 9.24533e-05 5.2868e-23)
(0.000110263 8.03909e-05 -1.20975e-26)
(0.00010258 6.9686e-05 0)
(9.5423e-05 6.07733e-05 9.73848e-23)
(8.82848e-05 5.27307e-05 -9.12863e-23)
(8.13917e-05 4.57397e-05 9.32282e-23)
(7.51824e-05 3.989e-05 8.71569e-23)
(6.87899e-05 3.44056e-05 -8.31157e-23)
(6.28987e-05 2.97507e-05 -9.95805e-27)
(5.74019e-05 2.56866e-05 1.87738e-26)
(5.18839e-05 2.19323e-05 -9.10503e-27)
(4.68408e-05 1.87567e-05 -7.12128e-23)
(4.20345e-05 1.59148e-05 -1.32295e-22)
(3.7327e-05 1.33479e-05 -7.97458e-27)
(3.30591e-05 1.11845e-05 0)
(2.89074e-05 9.22067e-06 6.82124e-27)
(2.49921e-05 7.51243e-06 5.5708e-23)
(2.14529e-05 6.07793e-06 2.7565e-27)
(1.80097e-05 4.78589e-06 4.86328e-23)
(1.48599e-05 3.70257e-06 9.42248e-23)
(1.20009e-05 2.79749e-06 0)
(9.30259e-06 2.01853e-06 0)
(6.91103e-06 1.39587e-06 3.9696e-23)
(4.74747e-06 8.87013e-07 -1.25984e-28)
(2.79683e-06 4.82978e-07 -3.56747e-23)
(1.12261e-06 1.80825e-07 4.04346e-27)
(-3.63919e-07 -4.55873e-08 -3.90866e-27)
(-1.61787e-06 -1.99418e-07 0)
(-2.662e-06 -2.94128e-07 -1.43066e-23)
(-3.53179e-06 -3.41684e-07 7.40576e-29)
(-4.20731e-06 -3.50394e-07 3.22989e-27)
(-4.73743e-06 -3.28072e-07 0)
(-5.11388e-06 -2.85274e-07 1.2023e-23)
(-5.36826e-06 -2.25228e-07 5.70509e-24)
(-5.51309e-06 -1.56826e-07 -1.35792e-27)
(-5.5632e-06 -8.17861e-08 -2.64303e-24)
(-5.53486e-06 -6.68793e-09 0)
(-5.43788e-06 6.74023e-08 -5.77939e-29)
(-5.28046e-06 1.36427e-07 4.73624e-24)
(-5.11153e-06 1.99742e-07 1.14293e-23)
(-4.94088e-06 2.42977e-07 5.65499e-24)
(-4.76636e-06 2.76126e-07 1.12452e-23)
(-4.5947e-06 3.08942e-07 -2.23622e-23)
(-4.40828e-06 3.32052e-07 1.10987e-23)
(-4.23679e-06 3.47025e-07 0)
(-4.07075e-06 3.63767e-07 1.09922e-23)
(-3.90654e-06 3.75564e-07 -1.09411e-23)
(-3.75126e-06 3.87523e-07 1.33121e-27)
(-3.59929e-06 3.95668e-07 2.1741e-23)
(-3.45564e-06 4.03231e-07 1.32555e-27)
(-3.31612e-06 4.08697e-07 0)
(-3.17972e-06 4.12718e-07 2.16008e-23)
(-3.04883e-06 4.14453e-07 2.1514e-23)
(-2.91803e-06 4.15805e-07 0)
(-2.79082e-06 4.14136e-07 -2.1478e-23)
(-2.66539e-06 4.12741e-07 -2.13976e-23)
(-2.54136e-06 4.08381e-07 0)
(-2.42349e-06 4.04212e-07 -2.13384e-23)
(-2.30891e-06 3.98877e-07 5.827e-28)
(-2.20279e-06 3.93417e-07 -2.1394e-23)
(-2.10555e-06 3.88475e-07 6.49372e-28)
(-2.01764e-06 3.84221e-07 0)
(-1.94399e-06 3.80985e-07 4.24732e-23)
(-1.88151e-06 3.80106e-07 -4.269e-23)
(-1.8352e-06 3.80898e-07 8.53212e-23)
(-1.80228e-06 3.84841e-07 0)
(-1.78497e-06 3.91083e-07 -4.28807e-23)
(-1.78221e-06 4.01068e-07 5.95487e-28)
(-1.79329e-06 4.13611e-07 6.24527e-30)
(-1.81848e-06 4.29987e-07 -4.23245e-23)
(-1.8553e-06 4.49433e-07 4.29405e-23)
(-1.90317e-06 4.7201e-07 -4.24182e-23)
(-1.95987e-06 4.97513e-07 3.27466e-28)
(-2.02142e-06 5.24831e-07 8.48792e-23)
(-2.08782e-06 5.54471e-07 4.30049e-23)
(-2.14799e-06 5.83082e-07 0)
(-2.20774e-06 6.12314e-07 3.29604e-28)
(-2.24179e-06 6.35512e-07 -6.42965e-28)
(-2.26905e-06 6.56643e-07 -4.28811e-23)
(-2.23432e-06 6.60898e-07 -3.24715e-28)
(-2.19197e-06 6.61391e-07 3.23456e-28)
(-2.0095e-06 6.18921e-07 -4.28313e-23)
(-1.84907e-06 5.81015e-07 4.2651e-23)
(-1.35209e-06 4.33018e-07 1.74317e-28)
(-9.78899e-07 3.18079e-07 4.23777e-23)
(2.76866e-07 -9.68062e-08 8.08558e-29)
(1.12829e-06 -3.96692e-07 -4.27799e-23)
(5.85902e-06 -2.0586e-06 -1.09038e-27)
(7.06146e-06 -1.03914e-05 -1.35352e-22)
(6.55857e-05 0.000386722 -4.03221e-24)
(7.24288e-06 0.000334312 -2.79442e-24)
(2.06189e-05 0.000463514 -1.31212e-24)
(6.19122e-05 0.000551512 1.6465e-24)
(0.000188723 0.000622804 8.1977e-24)
(0.000234496 0.000445645 8.5102e-27)
(0.000221266 0.00038942 -4.41466e-27)
(0.000256714 0.000380559 9.51985e-23)
(0.000246607 0.000317047 9.80737e-23)
(0.000250633 0.000285181 1.20754e-26)
(0.000237747 0.000242803 0)
(0.000229428 0.000213129 1.3925e-26)
(0.000215593 0.000183413 2.18149e-22)
(0.000203217 0.000159699 0)
(0.000190219 0.00013891 -1.31703e-26)
(0.000177025 0.00012045 1.30724e-26)
(0.000164715 0.000105068 -1.04769e-22)
(0.000152433 9.11882e-05 9.82105e-23)
(0.000140568 7.91186e-05 0)
(0.000129867 6.90127e-05 -9.37924e-23)
(0.000118856 5.9543e-05 8.9445e-23)
(0.0001087 5.14983e-05 8.84099e-23)
(9.92197e-05 4.44746e-05 1.64565e-22)
(8.97057e-05 3.79876e-05 1.94173e-26)
(8.1004e-05 3.24959e-05 -1.8708e-26)
(7.27093e-05 2.75822e-05 7.11984e-23)
(6.45867e-05 2.31438e-05 0)
(5.72172e-05 1.94002e-05 7.91793e-27)
(5.00493e-05 1.60028e-05 -7.52887e-27)
(4.32884e-05 1.30463e-05 -7.22718e-27)
(3.71736e-05 1.05623e-05 9.71216e-27)
(3.12259e-05 8.32524e-06 -1.04673e-22)
(2.57828e-05 6.44812e-06 -5.06945e-23)
(2.08407e-05 4.87924e-06 -5.82989e-27)
(1.61765e-05 3.52862e-06 5.39605e-27)
(1.20404e-05 2.44781e-06 -5.28939e-27)
(8.29793e-06 1.56416e-06 0)
(4.92317e-06 8.61745e-07 4.62543e-27)
(2.025e-06 3.35637e-07 -8.81989e-27)
(-5.48724e-07 -5.92193e-08 3.40107e-23)
(-2.72095e-06 -3.28448e-07 3.96044e-27)
(-4.53074e-06 -4.95128e-07 1.53891e-23)
(-6.03914e-06 -5.80013e-07 0)
(-7.21191e-06 -5.97434e-07 0)
(-8.13312e-06 -5.60975e-07 -1.33602e-23)
(-8.78865e-06 -4.88757e-07 3.18973e-27)
(-9.23292e-06 -3.86527e-07 2.97281e-27)
(-9.48759e-06 -2.69517e-07 -2.92294e-27)
(-9.57824e-06 -1.40905e-07 2.84725e-24)
(-9.53301e-06 -1.19258e-08 -2.69228e-27)
(-9.36886e-06 1.15451e-07 2.64809e-24)
(-9.10001e-06 2.34257e-07 -5.09978e-24)
(-8.81058e-06 3.43288e-07 -6.14802e-24)
(-8.51781e-06 4.17881e-07 6.08331e-24)
(-8.218e-06 4.75061e-07 1.21043e-23)
(-7.92288e-06 5.31713e-07 1.20343e-23)
(-7.60228e-06 5.71612e-07 0)
(-7.3071e-06 5.97563e-07 1.19101e-23)
(-7.02123e-06 6.26473e-07 -1.18316e-23)
(-6.73846e-06 6.46928e-07 1.17782e-23)
(-6.47097e-06 6.67608e-07 -1.1755e-23)
(-6.20914e-06 6.81739e-07 -2.34028e-23)
(-5.9616e-06 6.94828e-07 2.84987e-27)
(-5.72112e-06 7.04329e-07 2.32762e-23)
(-5.48601e-06 7.11309e-07 -4.64971e-23)
(-5.26035e-06 7.14353e-07 -2.31544e-23)
(-5.03487e-06 7.16707e-07 0)
(-4.81553e-06 7.13882e-07 2.31157e-23)
(-4.59925e-06 7.11501e-07 4.60584e-23)
(-4.38539e-06 7.04033e-07 0)
(-4.18212e-06 6.96869e-07 2.29656e-23)
(-3.98454e-06 6.87735e-07 2.29933e-23)
(-3.80151e-06 6.78368e-07 -1.44009e-27)
(-3.63377e-06 6.69913e-07 6.98367e-28)
(-3.48213e-06 6.62646e-07 -1.4071e-27)
(-3.35506e-06 6.57135e-07 -4.57114e-23)
(-3.24727e-06 6.55686e-07 4.59469e-23)
(-3.16735e-06 6.57136e-07 -4.5915e-23)
(-3.11051e-06 6.64024e-07 -4.57815e-23)
(-3.0806e-06 6.7487e-07 4.61509e-23)
(-3.07579e-06 6.92167e-07 -4.56078e-23)
(-3.09486e-06 7.13871e-07 4.62711e-23)
(-3.13826e-06 7.42185e-07 6.95181e-28)
(-3.20173e-06 7.75785e-07 -4.62154e-23)
(-3.28424e-06 8.14778e-07 4.56526e-23)
(-3.382e-06 8.58794e-07 7.05216e-28)
(-3.48813e-06 9.05942e-07 -4.56772e-23)
(-3.60258e-06 9.5705e-07 -4.62838e-23)
(-3.70633e-06 1.00639e-06 -3.479e-28)
(-3.80931e-06 1.05672e-06 0)
(-3.86805e-06 1.09666e-06 -4.53526e-23)
(-3.91497e-06 1.13289e-06 2.68236e-28)
(-3.85522e-06 1.1401e-06 0)
(-3.78202e-06 1.14052e-06 0)
(-3.46783e-06 1.0671e-06 0)
(-3.19085e-06 1.00081e-06 -4.5904e-23)
(-2.33532e-06 7.45488e-07 -4.53255e-23)
(-1.69137e-06 5.45114e-07 0)
(4.69535e-07 -1.70152e-07 0)
(1.93535e-06 -6.95989e-07 4.6047e-23)
(1.00478e-05 -3.54436e-06 4.51371e-23)
(1.16676e-05 -1.76045e-05 -1.45497e-22)
(6.7519e-05 0.000557251 4.33927e-24)
(1.10025e-05 0.000484277 3.00109e-24)
(3.12992e-05 0.00066822 -4.28302e-27)
(9.04988e-05 0.000794102 2.35839e-27)
(0.000271023 0.000896236 0)
(0.000338124 0.000646009 4.55614e-23)
(0.000320152 0.000564415 -3.45148e-23)
(0.000370896 0.000550682 -5.1156e-23)
(0.000356991 0.000460011 -5.27294e-23)
(0.000362837 0.000413624 0)
(0.000344567 0.00035261 0)
(0.000332612 0.000309551 0)
(0.000312758 0.00026657 -1.17331e-22)
(0.000294908 0.000232161 0)
(0.000276149 0.000202012 -1.41666e-26)
(0.000257084 0.000175222 1.40614e-26)
(0.00023927 0.000152879 1.12674e-22)
(0.000221491 0.000132721 1.28929e-26)
(0.000204306 0.000115185 -1.07904e-22)
(0.000188789 0.000100491 0)
(0.00017283 8.67304e-05 -9.62458e-23)
(0.000158097 7.50293e-05 -9.51056e-23)
(0.000144337 6.48131e-05 -8.85428e-23)
(0.000130533 5.53796e-05 -8.56187e-23)
(0.000117898 4.73865e-05 9.9669e-27)
(0.000105852 4.02362e-05 -1.99661e-28)
(9.40572e-05 3.37768e-05 7.48068e-23)
(8.33486e-05 2.83248e-05 0)
(7.29338e-05 2.3378e-05 -6.55485e-23)
(6.31088e-05 1.90711e-05 -7.97842e-27)
(5.4218e-05 1.54508e-05 -1.19963e-22)
(4.55714e-05 1.21908e-05 1.1266e-22)
(3.76555e-05 9.45304e-06 -6.75419e-27)
(3.04655e-05 7.16397e-06 5.06809e-23)
(2.368e-05 5.19283e-06 -1.17801e-26)
(1.76599e-05 3.61359e-06 5.69248e-27)
(1.22114e-05 2.32197e-06 0)
(7.29734e-06 1.29397e-06 4.97798e-27)
(3.07479e-06 5.22828e-07 -4.80878e-27)
(-6.75775e-07 -5.68951e-08 -2.38487e-27)
(-3.84306e-06 -4.536e-07 4.36755e-27)
(-6.48343e-06 -7.0056e-07 0)
(-8.68531e-06 -8.2811e-07 0)
(-1.03992e-05 -8.56996e-07 3.66453e-27)
(-1.17468e-05 -8.07222e-07 1.43712e-23)
(-1.27078e-05 -7.04744e-07 0)
(-1.3361e-05 -5.58434e-07 0)
(-1.37381e-05 -3.89997e-07 -3.09947e-27)
(-1.38761e-05 -2.04607e-07 4.04178e-29)
(-1.3816e-05 -1.81756e-08 2.89757e-27)
(-1.35825e-05 1.66089e-07 -2.85008e-24)
(-1.31964e-05 3.38204e-07 5.48612e-24)
(-1.27792e-05 4.96162e-07 -6.6169e-24)
(-1.23566e-05 6.04537e-07 -6.5518e-24)
(-1.19233e-05 6.87495e-07 -2.60508e-23)
(-1.14964e-05 7.69853e-07 1.29551e-23)
(-1.10325e-05 8.27783e-07 -3.14632e-27)
(-1.0605e-05 8.65707e-07 -1.2818e-23)
(-1.01909e-05 9.07676e-07 -1.55179e-27)
(-9.78115e-06 9.37584e-07 4.93534e-30)
(-9.39341e-06 9.67636e-07 1.26511e-23)
(-9.01382e-06 9.88333e-07 0)
(-8.65485e-06 1.00736e-06 -2.51254e-23)
(-8.30609e-06 1.02131e-06 1.73758e-28)
(-7.96508e-06 1.03147e-06 -1.04233e-28)
(-7.63771e-06 1.03601e-06 0)
(-7.31062e-06 1.03943e-06 1.51882e-27)
(-6.99237e-06 1.03545e-06 -3.03708e-27)
(-6.67855e-06 1.03199e-06 1.57711e-27)
(-6.36825e-06 1.02128e-06 0)
(-6.07325e-06 1.01089e-06 0)
(-5.78653e-06 9.97765e-07 2.47468e-23)
(-5.52087e-06 9.84225e-07 4.95578e-23)
(-5.27738e-06 9.7208e-07 0)
(-5.05726e-06 9.61615e-07 -2.48139e-23)
(-4.87275e-06 9.53754e-07 3.00295e-27)
(-4.71625e-06 9.51738e-07 -4.94507e-23)
(-4.60015e-06 9.53989e-07 4.9415e-23)
(-4.51757e-06 9.64097e-07 4.92728e-23)
(-4.47407e-06 9.79975e-07 -4.96696e-23)
(-4.46702e-06 1.00517e-06 -4.90856e-23)
(-4.49462e-06 1.03681e-06 -7.60062e-28)
(-4.55753e-06 1.07799e-06 0)
(-4.64958e-06 1.12687e-06 0)
(-4.76928e-06 1.18352e-06 0)
(-4.91111e-06 1.24747e-06 0)
(-5.0651e-06 1.31593e-06 -7.49886e-28)
(-5.23116e-06 1.39012e-06 7.60348e-28)
(-5.38174e-06 1.4617e-06 -4.90611e-23)
(-5.53111e-06 1.53464e-06 0)
(-5.61647e-06 1.59249e-06 4.88112e-23)
(-5.68447e-06 1.6448e-06 4.96725e-23)
(-5.59807e-06 1.65505e-06 -3.76609e-28)
(-5.49171e-06 1.65502e-06 -3.74091e-28)
(-5.03656e-06 1.54824e-06 3.78908e-28)
(-4.63433e-06 1.45063e-06 -1.88181e-28)
(-3.39519e-06 1.08e-06 4.87838e-23)
(-2.46036e-06 7.85876e-07 -3.73978e-28)
(6.68314e-07 -2.51716e-07 2.81042e-28)
(2.79127e-06 -1.02827e-06 -4.95593e-23)
(1.44969e-05 -5.13663e-06 4.75364e-29)
(1.65862e-05 -2.53044e-05 2.08779e-22)
(7.27106e-05 0.000737122 1.3768e-27)
(1.53832e-05 0.00064456 1.60989e-24)
(4.36559e-05 0.000885021 1.49247e-24)
(0.000121612 0.00105041 -1.85008e-24)
(0.000357542 0.0011848 -7.9585e-27)
(0.00044795 0.000860603 -4.89778e-23)
(0.000425674 0.000751821 3.70871e-23)
(0.0004924 0.00073229 1.07841e-26)
(0.000474917 0.000613442 -1.49151e-26)
(0.000482724 0.000551383 2.92949e-26)
(0.000458958 0.000470682 -1.50853e-26)
(0.00044318 0.000413259 6.49052e-23)
(0.000417015 0.000356131 -3.11643e-26)
(0.000393363 0.000310245 -6.56981e-23)
(0.000368487 0.000270058 0)
(0.000343177 0.000234323 -3.0408e-26)
(0.000319488 0.000204495 -1.2121e-22)
(0.000295835 0.000177585 2.76577e-26)
(0.000272962 0.000154163 1.16096e-22)
(0.000252282 0.000134526 1.08522e-22)
(0.000231023 0.000116144 1.03532e-22)
(0.000211379 0.000100499 0)
(0.000193023 8.68391e-05 0)
(0.000174615 7.42284e-05 1.84276e-22)
(0.000157752 6.35334e-05 -8.87417e-23)
(0.000141671 5.39679e-05 0)
(0.000125929 4.53259e-05 -1.61013e-22)
(0.000111626 3.80261e-05 -7.59836e-23)
(9.77155e-05 3.14043e-05 1.41073e-22)
(8.45911e-05 2.56363e-05 6.94394e-23)
(7.27077e-05 2.07851e-05 6.45586e-23)
(6.11527e-05 1.64172e-05 -6.0626e-23)
(5.05697e-05 1.2746e-05 0)
(4.09538e-05 9.67511e-06 -9.70986e-27)
(3.1879e-05 7.03e-06 5.19146e-23)
(2.38234e-05 4.90805e-06 6.29415e-27)
(1.65309e-05 3.17198e-06 -4.60551e-23)
(9.95252e-06 1.78836e-06 -4.44669e-23)
(4.29633e-06 7.48815e-07 -5.04038e-27)
(-7.28719e-07 -3.40681e-08 -3.93768e-23)
(-4.97483e-06 -5.71817e-07 -4.70049e-27)
(-8.51679e-06 -9.08499e-07 1.78303e-23)
(-1.14722e-05 -1.0849e-06 1.71225e-23)
(-1.37754e-05 -1.12858e-06 0)
(-1.55883e-05 -1.06675e-06 1.54676e-23)
(-1.6884e-05 -9.33343e-07 -1.49887e-23)
(-1.77676e-05 -7.4118e-07 3.44342e-27)
(-1.82812e-05 -5.18434e-07 -6.72146e-27)
(-1.84746e-05 -2.73004e-07 -3.29166e-24)
(-1.84024e-05 -2.53773e-08 0)
(-1.80977e-05 2.19552e-07 6.13472e-24)
(-1.75883e-05 4.48718e-07 -1.18087e-23)
(-1.7036e-05 6.58977e-07 7.12468e-24)
(-1.64756e-05 8.03741e-07 -3.43149e-27)
(-1.59002e-05 9.14318e-07 1.40217e-23)
(-1.53327e-05 1.02441e-06 -1.39392e-23)
(-1.47159e-05 1.10167e-06 0)
(-1.41469e-05 1.15267e-06 0)
(-1.35955e-05 1.20863e-06 0)
(-1.30498e-05 1.24886e-06 3.32534e-27)
(-1.25333e-05 1.28897e-06 -6.64773e-27)
(-1.20275e-05 1.31688e-06 3.31358e-27)
(-1.15491e-05 1.34228e-06 2.70425e-23)
(-1.10842e-05 1.36114e-06 -5.39233e-23)
(-1.06296e-05 1.3747e-06 -1.08669e-28)
(-1.01931e-05 1.38097e-06 0)
(-9.75697e-06 1.3855e-06 0)
(-9.33255e-06 1.3804e-06 0)
(-8.91406e-06 1.37575e-06 -2.66749e-23)
(-8.50021e-06 1.36165e-06 0)
(-8.10671e-06 1.3478e-06 0)
(-7.72426e-06 1.33048e-06 -5.32658e-23)
(-7.36985e-06 1.31248e-06 -2.66675e-23)
(-7.04496e-06 1.29647e-06 0)
(-6.75128e-06 1.2826e-06 5.34087e-23)
(-6.50501e-06 1.27233e-06 1.61545e-27)
(-6.29612e-06 1.26974e-06 3.73899e-29)
(-6.14108e-06 1.27296e-06 -1.0637e-22)
(-6.0308e-06 1.28659e-06 -5.30292e-23)
(-5.97261e-06 1.30797e-06 5.34588e-23)
(-5.96309e-06 1.3417e-06 5.2828e-23)
(-5.99979e-06 1.3841e-06 5.35998e-23)
(-6.08361e-06 1.43914e-06 -8.05252e-28)
(-6.20631e-06 1.50452e-06 0)
(-6.36592e-06 1.58017e-06 0)
(-6.55504e-06 1.6656e-06 0)
(-6.76045e-06 1.75697e-06 0)
(-6.9819e-06 1.85596e-06 0)
(-7.18283e-06 1.9514e-06 5.28028e-23)
(-7.38203e-06 2.04859e-06 0)
(-7.49611e-06 2.12561e-06 -8.01184e-28)
(-7.58676e-06 2.19502e-06 4.08571e-28)
(-7.47203e-06 2.2084e-06 4.05333e-28)
(-7.33009e-06 2.20752e-06 0)
(-6.72427e-06 2.0648e-06 5.33994e-23)
(-6.18751e-06 1.93266e-06 -8.10917e-28)
(-4.53823e-06 1.43818e-06 -5.25038e-23)
(-3.29106e-06 1.0412e-06 2.01044e-28)
(8.71666e-07 -3.4215e-07 -5.27198e-23)
(3.69704e-06 -1.39681e-06 0)
(1.92164e-05 -6.84174e-06 0)
(2.18313e-05 -3.35158e-05 -1.12322e-22)
(7.89155e-05 0.000926616 0)
(2.04819e-05 0.000815725 -1.72978e-24)
(5.79027e-05 0.0011143 -1.02798e-26)
(0.000155469 0.00132079 1.98609e-24)
(0.000448345 0.00148884 -1.00337e-23)
(0.000564207 0.00109027 0)
(0.000538185 0.000952416 1.26117e-26)
(0.000621577 0.00092603 -1.15815e-26)
(0.000600821 0.000778043 -1.60251e-26)
(0.000610744 0.000699087 4.79752e-26)
(0.000581405 0.000597618 -3.24251e-26)
(0.00056162 0.000524792 -1.39594e-22)
(0.000528851 0.000452588 1.35599e-22)
(0.000499059 0.00039439 7.06757e-23)
(0.0004677 0.000343443 -1.33574e-22)
(0.000435751 0.000298107 0)
(0.000405795 0.000260228 0)
(0.000375872 0.000226058 1.22257e-22)
(0.000346919 0.000196302 0)
(0.000320707 0.000171335 -1.16789e-22)
(0.000293774 0.000147979 -2.7004e-26)
(0.000268862 0.000128079 2.70736e-26)
(0.000245572 0.000110703 0)
(0.000222224 9.46657e-05 -1.98231e-22)
(0.000200815 8.10516e-05 9.54384e-23)
(0.000180396 6.88777e-05 2.14179e-26)
(0.000160411 5.78779e-05 1.73239e-22)
(0.000142237 4.8579e-05 8.17807e-23)
(0.000124564 4.01458e-05 -7.59304e-23)
(0.000107887 3.27962e-05 -7.47022e-23)
(9.27772e-05 2.6611e-05 1.67358e-26)
(7.80874e-05 2.10428e-05 6.52145e-23)
(6.46277e-05 1.63585e-05 0)
(5.23928e-05 1.24384e-05 -5.86999e-23)
(4.08467e-05 9.06079e-06 -5.58517e-23)
(3.05916e-05 6.34755e-06 0)
(2.13053e-05 4.12685e-06 9.91502e-23)
(1.29267e-05 2.35445e-06 4.78406e-23)
(5.71784e-06 1.02059e-06 0)
(-6.88083e-07 1.41746e-08 -1.02204e-26)
(-6.10451e-06 -6.79845e-07 1.01175e-26)
(-1.06258e-05 -1.11696e-06 -1.91884e-23)
(-1.44006e-05 -1.34934e-06 -1.84267e-23)
(-1.73462e-05 -1.41183e-06 0)
(-1.96672e-05 -1.33959e-06 -1.66501e-23)
(-2.13302e-05 -1.17487e-06 -7.44224e-28)
(-2.24678e-05 -9.35157e-07 0)
(-2.31342e-05 -6.55215e-07 0)
(-2.33922e-05 -3.4636e-07 3.54944e-24)
(-2.33115e-05 -3.3647e-08 -3.35628e-27)
(-2.29341e-05 2.75921e-07 -6.60246e-24)
(-2.22957e-05 5.66094e-07 6.35448e-24)
(-2.16006e-05 8.32268e-07 0)
(-2.08941e-05 1.01619e-06 -7.58899e-24)
(-2.01675e-05 1.15639e-06 1.50872e-23)
(-1.94502e-05 1.29635e-06 7.32639e-27)
(-1.86702e-05 1.39439e-06 -3.64433e-27)
(-1.795e-05 1.45962e-06 3.61802e-27)
(-1.72519e-05 1.53061e-06 -3.60762e-27)
(-1.65608e-05 1.5821e-06 1.46811e-23)
(-1.59063e-05 1.63303e-06 -1.46519e-23)
(-1.52654e-05 1.66884e-06 0)
(-1.46589e-05 1.7011e-06 -2.91025e-23)
(-1.40695e-05 1.72535e-06 2.90162e-23)
(-1.34931e-05 1.74258e-06 2.89774e-23)
(-1.29395e-05 1.75082e-06 3.5271e-27)
(-1.23865e-05 1.75654e-06 2.88466e-23)
(-1.18481e-05 1.75032e-06 0)
(-1.13173e-05 1.7444e-06 0)
(-1.07923e-05 1.72676e-06 2.87826e-23)
(-1.02931e-05 1.70918e-06 -1.7484e-27)
(-9.80784e-06 1.68746e-06 2.86627e-23)
(-9.35811e-06 1.66471e-06 0)
(-8.94575e-06 1.64464e-06 -1.74123e-27)
(-8.57303e-06 1.62718e-06 -2.87388e-23)
(-8.26034e-06 1.61442e-06 1.73863e-27)
(-7.99514e-06 1.61129e-06 5.72761e-23)
(-7.79818e-06 1.61565e-06 5.72411e-23)
(-7.65806e-06 1.63314e-06 -1.64487e-27)
(-7.58401e-06 1.66052e-06 1.75547e-27)
(-7.57175e-06 1.70349e-06 -5.68595e-23)
(-7.61815e-06 1.75756e-06 -5.76844e-23)
(-7.72434e-06 1.82755e-06 -6.37415e-31)
(-7.87991e-06 1.91072e-06 5.76134e-23)
(-8.08234e-06 2.00682e-06 8.68225e-28)
(-8.32223e-06 2.11539e-06 -1.75792e-27)
(-8.58284e-06 2.23138e-06 8.6909e-28)
(-8.86379e-06 2.35703e-06 0)
(-9.11885e-06 2.47809e-06 5.68292e-23)
(-9.37159e-06 2.60128e-06 5.7994e-23)
(-9.51667e-06 2.6988e-06 5.65401e-23)
(-9.63172e-06 2.78641e-06 -5.7538e-23)
(-9.48697e-06 2.80303e-06 0)
(-9.30692e-06 2.8008e-06 -4.33332e-28)
(-8.5402e-06 2.61937e-06 -1.14943e-22)
(-7.85906e-06 2.44917e-06 0)
(-5.77159e-06 1.82171e-06 5.65097e-23)
(-4.18921e-06 1.31184e-06 5.68669e-23)
(1.07767e-06 -4.42264e-07 -1.04452e-27)
(4.6533e-06 -1.80552e-06 0)
(2.42155e-05 -8.6665e-06 -5.50538e-29)
(2.74228e-05 -4.22477e-05 -6.04046e-23)
(8.54298e-05 0.00112593 0)
(2.64146e-05 0.000998317 0)
(7.42814e-05 0.00135637 -1.71388e-24)
(0.000192304 0.00160549 -6.38856e-28)
(0.000543475 0.00180861 2.15167e-23)
(0.000687102 0.00133584 -2.42365e-27)
(0.000658034 0.00116701 -1.84413e-27)
(0.000758777 0.00113257 1.24355e-26)
(0.000735145 0.000954551 6.53149e-23)
(0.000747358 0.000857399 0)
(0.000712411 0.000734056 0)
(0.000688438 0.000644727 7.50531e-23)
(0.000648783 0.000556468 -1.45831e-22)
(0.000612504 0.00048507 -7.6076e-23)
(0.000574281 0.000422593 1.43731e-22)
(0.000535283 0.000366955 -1.43931e-22)
(0.00049865 0.000320419 1.4028e-22)
(0.000462038 0.000278443 -1.31531e-22)
(0.000426591 0.00024187 -3.29019e-26)
(0.000394453 0.000211159 0)
(0.000361449 0.000182445 2.90527e-26)
(0.000330888 0.000157955 -5.78468e-26)
(0.000302301 0.000136569 2.71309e-26)
(0.000273653 0.000116837 1.06657e-22)
(0.00024736 0.000100068 2.48341e-26)
(0.000222277 8.50761e-05 9.54005e-23)
(0.00019773 7.15287e-05 -9.317e-23)
(0.000175389 6.00663e-05 -5.08064e-28)
(0.000153667 4.96735e-05 -8.16931e-23)
(0.000133163 4.06111e-05 -1.98847e-26)
(0.000114575 3.29797e-05 1.80098e-26)
(9.65058e-05 2.61105e-05 -7.02268e-23)
(7.99424e-05 2.03261e-05 6.80241e-23)
(6.48797e-05 1.54829e-05 -6.31751e-23)
(5.06653e-05 1.13087e-05 4.12828e-28)
(3.80324e-05 7.95066e-06 2.79922e-26)
(2.65897e-05 5.20108e-06 -5.33573e-23)
(1.62631e-05 3.00327e-06 -5.15148e-23)
(7.37203e-06 1.3463e-06 4.84645e-23)
(-5.30809e-07 9.36289e-08 4.56107e-23)
(-7.21751e-06 -7.73767e-07 -1.06263e-26)
(-1.28032e-05 -1.32346e-06 2.37185e-28)
(-1.74697e-05 -1.62006e-06 1.98423e-23)
(-2.11162e-05 -1.70613e-06 0)
(-2.39927e-05 -1.6257e-06 8.66957e-27)
(-2.6059e-05 -1.42956e-06 -9.42087e-27)
(-2.74775e-05 -1.14075e-06 8.22423e-24)
(-2.83148e-05 -8.00733e-07 7.97609e-24)
(-2.86483e-05 -4.24984e-07 -3.7033e-27)
(-2.85636e-05 -4.31388e-08 4.37835e-29)
(-2.81127e-05 3.35238e-07 3.55636e-24)
(-2.73394e-05 6.9061e-07 0)
(-2.64938e-05 1.01654e-06 0)
(-2.56326e-05 1.24259e-06 1.63268e-23)
(-2.47453e-05 1.41455e-06 3.16352e-28)
(-2.38686e-05 1.58669e-06 0)
(-2.29147e-05 1.70705e-06 -1.60316e-23)
(-2.2033e-05 1.78778e-06 3.90921e-27)
(-2.11781e-05 1.87493e-06 -3.86887e-27)
(-2.03314e-05 1.93868e-06 -3.15964e-23)
(-1.95293e-05 2.00127e-06 3.15414e-23)
(-1.87436e-05 2.04572e-06 -3.83805e-27)
(-1.8e-05 2.08538e-06 3.13209e-23)
(-1.72771e-05 2.11557e-06 3.80823e-27)
(-1.65702e-05 2.13676e-06 -3.81125e-27)
(-1.58911e-05 2.14721e-06 3.78897e-27)
(-1.52126e-05 2.15423e-06 -3.10533e-23)
(-1.4552e-05 2.14691e-06 3.10215e-23)
(-1.39007e-05 2.13963e-06 -3.77432e-27)
(-1.32565e-05 2.11829e-06 -3.0975e-23)
(-1.26437e-05 2.09674e-06 0)
(-1.20481e-05 2.07039e-06 0)
(-1.1496e-05 2.04259e-06 0)
(-1.09897e-05 2.01826e-06 1.87399e-27)
(-1.0532e-05 1.99703e-06 -1.88857e-27)
(-1.01479e-05 1.98171e-06 0)
(-9.82215e-06 1.97807e-06 -6.16432e-23)
(-9.58007e-06 1.98377e-06 6.1602e-23)
(-9.4078e-06 2.0055e-06 6.14245e-23)
(-9.31662e-06 2.03944e-06 6.19204e-23)
(-9.30131e-06 2.0924e-06 2.13565e-27)
(-9.35803e-06 2.15911e-06 6.20829e-23)
(-9.48817e-06 2.24523e-06 0)
(-9.67897e-06 2.3476e-06 -1.39178e-28)
(-9.92733e-06 2.46572e-06 0)
(-1.02217e-05 2.5992e-06 -6.19955e-23)
(-1.05416e-05 2.74167e-06 0)
(-1.08864e-05 2.89596e-06 -9.47295e-28)
(-1.11997e-05 3.04453e-06 -6.11621e-23)
(-1.151e-05 3.19557e-06 -6.24158e-23)
(-1.16886e-05 3.31505e-06 -6.08538e-23)
(-1.18299e-05 3.422e-06 6.19269e-23)
(-1.16535e-05 3.44198e-06 0)
(-1.14327e-05 3.43781e-06 0)
(-1.04943e-05 3.21472e-06 1.2371e-22)
(-9.6583e-06 3.00253e-06 6.1596e-23)
(-7.10302e-06 2.23234e-06 -1.2164e-22)
(-5.16109e-06 1.59852e-06 1.0076e-27)
(1.28395e-06 -5.5301e-07 1.22139e-22)
(5.66031e-06 -2.25887e-06 1.17231e-28)
(2.9503e-05 -1.06182e-05 -6.05772e-23)
(3.33773e-05 -5.15187e-05 2.60064e-22)
(9.24122e-05 0.00133518 0)
(3.33153e-05 0.00119286 1.98945e-24)
(9.30553e-05 0.00161153 -5.40372e-27)
(0.000232371 0.00190472 6.09373e-27)
(0.000642953 0.00214424 -5.02184e-26)
(0.000816822 0.00159816 6.00017e-23)
(0.000785568 0.00139644 -2.90672e-26)
(0.000904342 0.00135257 -6.82122e-27)
(0.000878342 0.00114374 -7.01696e-23)
(0.000893041 0.00102701 3.49929e-27)
(0.000852499 0.000880676 7.83182e-23)
(0.00082417 0.000773677 -8.06087e-23)
(0.000777354 0.000668339 0)
(0.000734235 0.000582797 8.17528e-23)
(0.000688758 0.00050797 1.54506e-22)
(0.000642286 0.00044128 1.54909e-22)
(0.000598544 0.000385439 -1.50873e-22)
(0.000554801 0.00033507 1.41423e-22)
(0.000512424 0.000291161 0)
(0.000473941 0.000254258 3.28301e-26)
(0.000434445 0.000219777 -3.16394e-26)
(0.000397828 0.000190333 0)
(0.000363557 0.00016462 0)
(0.000329225 0.000140901 0)
(0.000297682 0.000120722 0)
(0.000267585 0.000102685 -1.02698e-22)
(0.000238137 8.63847e-05 0)
(0.00021131 7.258e-05 0)
(0.000185227 6.00665e-05 1.75831e-22)
(0.000160603 4.91486e-05 -2.13975e-26)
(0.000138263 3.99485e-05 1.93804e-26)
(0.000116552 3.16682e-05 7.55226e-23)
(9.66395e-05 2.46886e-05 -7.31795e-23)
(7.85228e-05 1.88415e-05 -5.28434e-27)
(6.14266e-05 1.38002e-05 6.47049e-23)
(4.62226e-05 9.73868e-06 1.48529e-26)
(3.24466e-05 6.41136e-06 5.73844e-23)
(2.00114e-05 3.74761e-06 5.54359e-23)
(9.29672e-06 1.73552e-06 -5.21157e-23)
(-2.29647e-07 2.11222e-07 -4.90955e-23)
(-8.29597e-06 -8.48805e-07 -1.17185e-26)
(-1.50393e-05 -1.52489e-06 1.07305e-26)
(-2.06769e-05 -1.8952e-06 -9.17027e-27)
(-2.50887e-05 -2.01059e-06 0)
(-2.85732e-05 -1.92477e-06 0)
(-3.10829e-05 -1.69753e-06 3.73777e-23)
(-3.28121e-05 -1.35826e-06 9.01237e-27)
(-3.38411e-05 -9.55352e-07 -8.58376e-24)
(-3.42627e-05 -5.09154e-07 0)
(-3.41799e-05 -5.39971e-08 0)
(-3.36552e-05 3.9755e-07 0)
(-3.27416e-05 8.22532e-07 0)
(-3.17375e-05 1.21234e-06 8.8815e-24)
(-3.07128e-05 1.48365e-06 -1.75713e-23)
(-2.96551e-05 1.68971e-06 -1.74746e-23)
(-2.86088e-05 1.89646e-06 -1.73764e-23)
(-2.74697e-05 2.04083e-06 1.7249e-23)
(-2.64156e-05 2.13843e-06 -1.71968e-23)
(-2.53931e-05 2.24296e-06 4.16376e-27)
(-2.43802e-05 2.32006e-06 1.70003e-23)
(-2.34202e-05 2.39524e-06 -1.69748e-23)
(-2.24796e-05 2.44913e-06 3.3794e-23)
(-2.1589e-05 2.4968e-06 4.11007e-27)
(-2.07232e-05 2.53348e-06 -8.87702e-30)
(-1.98764e-05 2.55898e-06 -4.10178e-27)
(-1.90626e-05 2.57192e-06 -4.07781e-27)
(-1.82497e-05 2.58036e-06 6.72105e-30)
(-1.74581e-05 2.57197e-06 -6.67522e-23)
(-1.66775e-05 2.56324e-06 -3.32489e-23)
(-1.59053e-05 2.53804e-06 -3.33407e-23)
(-1.51707e-05 2.51225e-06 4.04588e-27)
(-1.44566e-05 2.48104e-06 -3.9091e-30)
(-1.37946e-05 2.4479e-06 -4.06011e-27)
(-1.31874e-05 2.4191e-06 0)
(-1.26385e-05 2.3939e-06 4.06222e-27)
(-1.21776e-05 2.37596e-06 -4.03028e-27)