/*--------------------------------*- C++ -*----------------------------------*\
| =========                 |                                                 |
| \\      /  F ield         | OpenFOAM: The Open Source CFD Toolbox           |
|  \\    /   O peration     | Version:  5.x                                   |
|   \\  /    A nd           | Web:      www.OpenFOAM.org                      |
|    \\/     M anipulation  |                                                 |
\*---------------------------------------------------------------------------*/
FoamFile
{
    version     2.0;
    format      ascii;
    class       volVectorField;
    location    "3000";
    object      wallShearStress;
}
// * * * * * * * * * * * * * * * * * * * * * * * * * * * * * * * * * * * * * //

dimensions      [0 2 -2 0 0 0 0];

internalField   uniform (0 0 0);

boundaryField
{
    inlet
    {
        type            calculated;
        value           uniform (0 0 0);
    }
    outlet
    {
        type            calculated;
        value           uniform (0 0 0);
    }
    walls
    {
        type            calculated;
        value           nonuniform List<vector> 
204
(
(-1.09335e-05 -2.12773e-05 9.80282e-29)
(-3.77914e-07 -1.81389e-05 -9.3298e-29)
(-1.05633e-06 -2.5297e-05 -2.21336e-25)
(-3.30297e-06 -2.99256e-05 -2.76502e-25)
(-1.02556e-05 -3.37899e-05 2.72112e-24)
(-1.29168e-05 -2.43918e-05 -7.22635e-24)
(-1.20702e-05 -2.12012e-05 -5.40691e-24)
(-1.41661e-05 -2.09831e-05 -1.71516e-28)
(-1.36823e-05 -1.75437e-05 1.03179e-27)
(-1.40247e-05 -1.59307e-05 1.13761e-27)
(-1.3386e-05 -1.36392e-05 1.22895e-27)
(-1.3003e-05 -1.20553e-05 -9.83611e-24)
(-1.22886e-05 -1.04314e-05 -1.92298e-23)
(-1.16445e-05 -9.13141e-06 -1.61841e-27)
(-1.095e-05 -7.97874e-06 1.9138e-23)
(-1.0237e-05 -6.94954e-06 -1.92609e-23)
(-9.56129e-06 -6.08483e-06 -2.30334e-27)
(-8.8837e-06 -5.3015e-06 -2.0089e-40)
(-8.22117e-06 -4.61553e-06 3.63732e-23)
(-7.61946e-06 -4.03843e-06 1.70617e-23)
(-6.99715e-06 -3.49539e-06 1.03315e-39)
(-6.41817e-06 -3.03166e-06 -2.86986e-42)
(-5.87565e-06 -2.62535e-06 1.51306e-23)
(-5.32819e-06 -2.24848e-06 -1.4681e-23)
(-4.8238e-06 -1.92798e-06 -1.41787e-23)
(-4.34167e-06 -1.64033e-06 -2.64316e-23)
(-3.86668e-06 -1.37937e-06 1.29485e-23)
(-3.43324e-06 -1.15837e-06 -1.22558e-23)
(-3.01026e-06 -9.57182e-07 1.14106e-23)
(-2.60895e-06 -7.81375e-07 1.1263e-23)
(-2.24435e-06 -6.332e-07 -1.04963e-23)
(-1.88836e-06 -4.99301e-07 5.40968e-40)
(-1.56091e-06 -3.86586e-07 9.60219e-24)
(-1.26246e-06 -2.92127e-07 -1.07596e-27)
(-9.7963e-07 -2.10545e-07 1.05643e-27)
(-7.27819e-07 -1.4519e-07 3.10045e-28)
(-4.99233e-07 -9.15849e-08 -7.60177e-24)
(-2.9234e-07 -4.89836e-08 -2.45355e-28)
(-1.14172e-07 -1.70482e-08 8.35145e-28)
(4.45524e-08 6.90377e-09 6.53831e-24)
(1.7883e-07 2.31581e-08 -7.81515e-28)
(2.9093e-07 3.31281e-08 1.37822e-40)
(3.84574e-07 3.80689e-08 2.69049e-43)
(4.57403e-07 3.88693e-08 2.72306e-24)
(5.1469e-07 3.62737e-08 2.24208e-43)
(5.55381e-07 3.15693e-08 5.0139e-24)
(5.82864e-07 2.49139e-08 1.18914e-24)
(5.98473e-07 1.74542e-08 1.15152e-24)
(6.03737e-07 9.19579e-09 -4.01136e-41)
(6.00449e-07 1.01655e-09 3.39815e-44)
(5.89639e-07 -7.06937e-09 5.13267e-25)
(5.72199e-07 -1.45643e-08 4.82674e-28)
(5.53669e-07 -2.14911e-08 1.19188e-24)
(5.34612e-07 -2.61292e-08 1.17825e-24)
(5.14807e-07 -2.97204e-08 2.33945e-24)
(4.95549e-07 -3.32024e-08 -2.32312e-24)
(4.74428e-07 -3.56703e-08 4.60364e-24)
(4.5479e-07 -3.71622e-08 2.78916e-28)
(4.35904e-07 -3.89116e-08 -2.26892e-24)
(4.17242e-07 -4.00486e-08 2.25244e-24)
(3.99617e-07 -4.12572e-08 4.48416e-44)
(3.82401e-07 -4.19851e-08 4.453e-24)
(3.66102e-07 -4.2704e-08 -2.70691e-28)
(3.50343e-07 -4.31402e-08 -4.40421e-24)
(3.34938e-07 -4.3466e-08 -2.67981e-28)
(3.20189e-07 -4.34939e-08 4.3556e-24)
(3.0552e-07 -4.35334e-08 1.32554e-28)
(2.91278e-07 -4.3201e-08 -2.56045e-40)
(2.77313e-07 -4.29467e-08 4.29237e-24)
(2.63552e-07 -4.23342e-08 5.07971e-45)
(2.50486e-07 -4.1787e-08 4.25255e-24)
(2.37856e-07 -4.10855e-08 8.48737e-24)
(2.26138e-07 -4.03986e-08 -4.37654e-41)
(2.15424e-07 -3.97442e-08 -1.28026e-28)
(2.05706e-07 -3.91858e-08 1.2857e-28)
(1.97498e-07 -3.87017e-08 1.26942e-28)
(1.90476e-07 -3.84906e-08 -8.33486e-24)
(1.85114e-07 -3.84209e-08 1.65976e-23)
(1.81148e-07 -3.86869e-08 0)
(1.7875e-07 -3.91628e-08 -8.03919e-40)
(1.77826e-07 -4.00288e-08 -8.15455e-24)
(1.78276e-07 -4.11143e-08 8.24268e-24)
(1.8011e-07 -4.25936e-08 -8.08405e-24)
(1.83085e-07 -4.43459e-08 -1.24689e-28)
(1.87104e-07 -4.64092e-08 6.13631e-29)
(1.91972e-07 -4.87231e-08 -8.10864e-24)
(1.97254e-07 -5.12123e-08 -1.19302e-28)
(2.02985e-07 -5.38938e-08 3.73941e-32)
(2.08046e-07 -5.64699e-08 6.03632e-29)
(2.13044e-07 -5.90663e-08 8.04107e-24)
(2.15515e-07 -6.10861e-08 -7.17465e-43)
(2.17327e-07 -6.28695e-08 6.0366e-29)
(2.132e-07 -6.30545e-08 -8.9673e-29)
(2.08386e-07 -6.28608e-08 2.9637e-29)
(1.90297e-07 -5.86039e-08 3.07837e-29)
(1.74489e-07 -5.48228e-08 7.75803e-24)
(1.27008e-07 -4.06999e-08 -7.63179e-24)
(9.16346e-08 -2.98175e-08 1.53029e-23)
(-2.62303e-08 9.04077e-09 2.90985e-29)
(-1.05331e-07 3.6805e-08 -7.66786e-24)
(-5.46084e-07 1.91738e-07 -1.78108e-28)
(-8.41843e-07 1.6183e-06 -1.52031e-23)
(5.33836e-06 -1.86857e-05 3.93599e-24)
(3.25972e-06 -9.53745e-06 -1.01845e-23)
(3.5913e-06 -6.98345e-06 8.65097e-28)
(9.41803e-07 -1.45721e-06 -1.33069e-23)
(-8.74429e-07 1.01135e-06 1.3904e-23)
(-3.5192e-06 3.49117e-06 -1.24523e-23)
(-5.4195e-06 4.56845e-06 1.49419e-27)
(-7.2127e-06 5.23664e-06 -1.30758e-40)
(-8.42741e-06 5.32982e-06 -2.86986e-42)
(-9.38306e-06 5.2141e-06 -8.7509e-24)
(-9.95274e-06 4.89521e-06 -1.43623e-27)
(-1.03479e-05 4.52907e-06 7.03299e-24)
(-1.04996e-05 4.10828e-06 1.19039e-23)
(-1.05569e-05 3.70557e-06 -5.47537e-24)
(-1.04987e-05 3.31336e-06 2.30519e-27)
(-1.03535e-05 2.94188e-06 -4.08577e-24)
(-1.01904e-05 2.60704e-06 7.36922e-24)
(-9.95792e-06 2.29492e-06 1.43493e-42)
(-9.72173e-06 2.01724e-06 -1.38113e-24)
(-9.47664e-06 1.76618e-06 -8.34053e-42)
(-9.19222e-06 1.53558e-06 1.95188e-28)
(-8.94269e-06 1.33455e-06 1.77597e-24)
(-8.67141e-06 1.15167e-06 -4.88806e-29)
(-8.3992e-06 9.88404e-07 -4.3826e-29)
(-8.15175e-06 8.42228e-07 -5.17334e-25)
(-7.88428e-06 7.10235e-07 -4.11542e-25)
(-7.64108e-06 5.94717e-07 3.35089e-25)
(-7.40403e-06 4.8901e-07 8.96831e-44)
(-7.15775e-06 3.95375e-07 7.90823e-29)
(-6.94231e-06 3.12727e-07 -7.81356e-29)
(-6.72034e-06 2.37538e-07 3.92061e-26)
(-6.50623e-06 1.72687e-07 -1.68156e-44)
(-6.31219e-06 1.13021e-07 -2.29263e-27)
(-6.10814e-06 6.0846e-08 5.63324e-27)
(-5.92755e-06 1.61158e-08 2.4143e-27)
(-5.74973e-06 -2.58631e-08 -6.6233e-27)
(-5.57249e-06 -6.03125e-08 -5.69311e-29)
(-5.41805e-06 -9.18995e-08 3.86271e-26)
(-5.25603e-06 -1.19238e-07 7.84916e-29)
(-5.1121e-06 -1.41296e-07 -9.44859e-26)
(-4.97428e-06 -1.62669e-07 1.02718e-25)
(-4.83671e-06 -1.78496e-07 -5.44791e-29)
(-4.72018e-06 -1.93327e-07 2.30218e-25)
(-4.5971e-06 -2.05095e-07 -2.37313e-25)
(-4.49389e-06 -2.1378e-07 -4.93952e-25)
(-4.39227e-06 -2.22367e-07 6.04943e-29)
(-4.29942e-06 -2.2677e-07 5.20358e-25)
(-4.21962e-06 -2.31954e-07 -5.37695e-25)
(-4.14037e-06 -2.33543e-07 5.41933e-29)
(-4.08103e-06 -2.35481e-07 -6.69196e-29)
(-4.01896e-06 -2.34993e-07 -7.04769e-29)
(-3.98268e-06 -2.3175e-07 6.95455e-29)
(-3.96942e-06 -2.33139e-07 -7.2892e-25)
(-3.93974e-06 -2.37753e-07 -7.56393e-25)
(-3.91457e-06 -2.40847e-07 1.8415e-29)
(-3.89436e-06 -2.47166e-07 -9.94312e-29)
(-3.85778e-06 -2.55082e-07 2.02963e-28)
(-3.81693e-06 -2.60876e-07 -1.02587e-28)
(-3.77918e-06 -2.6485e-07 -8.73722e-25)
(-3.74347e-06 -2.69028e-07 4.48416e-44)
(-3.70435e-06 -2.72191e-07 -1.83321e-24)
(-3.67107e-06 -2.74357e-07 9.36475e-25)
(-3.63865e-06 -2.77018e-07 -1.18019e-28)
(-3.6053e-06 -2.78403e-07 2.38009e-28)
(-3.57888e-06 -2.79722e-07 9.92306e-25)
(-3.55075e-06 -2.8104e-07 1.24678e-28)
(-3.52634e-06 -2.81433e-07 -1.87903e-28)
(-3.50575e-06 -2.82277e-07 6.31273e-29)
(-3.48413e-06 -2.82565e-07 2.41472e-41)
(-3.46858e-06 -2.82606e-07 -1.07989e-24)
(-3.45329e-06 -2.82951e-07 -6.76239e-29)
(-3.44059e-06 -2.82732e-07 1.1192e-24)
(-3.43181e-06 -2.8278e-07 -1.1289e-24)
(-3.42305e-06 -2.82658e-07 -7.10568e-29)
(-3.4192e-06 -2.82417e-07 7.05833e-29)
(-3.41612e-06 -2.82389e-07 2.24208e-44)
(-3.41631e-06 -2.82197e-07 1.20999e-24)
(-3.41886e-06 -2.82163e-07 -1.21833e-24)
(-3.42344e-06 -2.82152e-07 2.24208e-43)
(-3.43131e-06 -2.82192e-07 1.25671e-24)
(-3.4408e-06 -2.82377e-07 2.5738e-24)
(-3.45385e-06 -2.82658e-07 2.60566e-24)
(-3.46863e-06 -2.83061e-07 1.3254e-24)
(-3.48688e-06 -2.83694e-07 -1.35118e-24)
(-3.50725e-06 -2.84421e-07 -1.36676e-24)
(-3.53085e-06 -2.85448e-07 -2.80163e-24)
(-3.55747e-06 -2.86627e-07 -2.27302e-40)
(-3.58666e-06 -2.88107e-07 4.476e-29)
(-3.62053e-06 -2.89879e-07 -4.42505e-29)
(-3.65584e-06 -2.91942e-07 1.50119e-24)
(-3.69814e-06 -2.94507e-07 1.52914e-24)
(-3.7404e-06 -2.97266e-07 -1.07708e-30)
(-3.79318e-06 -3.0088e-07 4.85793e-29)
(-3.84312e-06 -3.04439e-07 1.60176e-24)
(-3.9137e-06 -3.09776e-07 -1.6535e-24)
(-3.96586e-06 -3.13856e-07 -1.71168e-24)
(-4.07633e-06 -3.22687e-07 -3.44282e-24)
(-4.11013e-06 -3.25902e-07 -2.24208e-44)
(-4.32888e-06 -3.43719e-07 -1.79981e-24)
(-4.2807e-06 -3.41446e-07 6.93332e-30)
(-4.91631e-06 -3.93164e-07 -1.84811e-24)
(-4.61628e-06 -1.72708e-06 -4.18507e-24)
)
;
    }
    frontAndBack
    {
        type            empty;
    }
}


// ************************************************************************* //
