/*--------------------------------*- C++ -*----------------------------------*\
| =========                 |                                                 |
| \\      /  F ield         | OpenFOAM: The Open Source CFD Toolbox           |
|  \\    /   O peration     | Version:  5.x                                   |
|   \\  /    A nd           | Web:      www.OpenFOAM.org                      |
|    \\/     M anipulation  |                                                 |
\*---------------------------------------------------------------------------*/
FoamFile
{
    version     2.0;
    format      ascii;
    class       volScalarField;
    location    "3000";
    object      yPlus;
}
// * * * * * * * * * * * * * * * * * * * * * * * * * * * * * * * * * * * * * //

dimensions      [0 0 0 0 0 0 0];

internalField   uniform 0;

boundaryField
{
    inlet
    {
        type            calculated;
        value           uniform 0;
    }
    outlet
    {
        type            calculated;
        value           uniform 0;
    }
    walls
    {
        type            calculated;
        value           nonuniform List<scalar> 
204
(
0.0165575
0.0148223
0.0176371
0.0193964
0.0210432
0.0181756
0.0171739
0.0173405
0.0161072
0.015599
0.01468
0.0140408
0.0132952
0.012664
0.0120538
0.0114594
0.0109206
0.010387
0.00987596
0.00941192
0.00892855
0.00847701
0.00804482
0.00759921
0.00718053
0.0067653
0.00634214
0.00594147
0.00553029
0.00512015
0.0047254
0.00431218
0.0039025
0.00349453
0.00306508
0.0026321
0.00217187
0.00165618
0.00103166
0.000643522
0.00128491
0.00163496
0.00187569
0.00204205
0.00216274
0.00224385
0.00229652
0.00232543
0.00233476
0.00232813
0.00230749
0.00227421
0.00223798
0.00220158
0.00216448
0.00212706
0.00208601
0.00204804
0.00201042
0.00197247
0.00193594
0.00189943
0.00186437
0.00182953
0.00179482
0.00176077
0.0017259
0.0016912
0.00165608
0.0016204
0.00158573
0.00155105
0.00151832
0.00148769
0.00145959
0.00143596
0.00141597
0.00140173
0.00139241
0.00138907
0.0013914
0.00139916
0.0014125
0.00143033
0.00145239
0.00147764
0.0015046
0.00153312
0.0015592
0.00158494
0.00160142
0.0016155
0.00160744
0.00159654
0.00153273
0.00147442
0.00126376
0.00107818
0.000580627
0.00116865
0.00267314
0.00394955
0.0147505
0.0106966
0.00920113
0.00423018
0.00361816
0.00678083
0.00789976
0.00864615
0.0089532
0.00912064
0.00913188
0.00910222
0.0090063
0.00890591
0.00878609
0.00865402
0.00853229
0.00839811
0.00827448
0.00815443
0.00802467
0.00791457
0.00779867
0.00768517
0.00758222
0.00747173
0.00737342
0.00727568
0.00717425
0.00708692
0.0069945
0.0069066
0.00682605
0.00673972
0.00666589
0.00659031
0.0065157
0.00645207
0.00638275
0.00632468
0.00626738
0.00621108
0.00616649
0.00611697
0.00608104
0.00604421
0.00601473
0.00599268
0.00597215
0.00596534
0.00595716
0.00597018
0.0059946
0.00600023
0.00600969
0.0060207
0.00601707
0.00601055
0.00600696
0.00600441
0.00599897
0.00599848
0.005998
0.00599692
0.0060015
0.00600425
0.00601038
0.00601945
0.00602762
0.00604115
0.00605467
0.00607065
0.00609003
0.00610945
0.00613343
0.00615806
0.00618583
0.0062158
0.00624776
0.0062829
0.00631965
0.00635987
0.00640185
0.00644723
0.00649479
0.00654553
0.0065993
0.00665568
0.00671663
0.00677913
0.00684836
0.00691776
0.00699711
0.00707404
0.00717012
0.00724949
0.00738206
0.00744519
0.0076743
0.00766503
0.00825126
0.0081562
)
;
    }
    frontAndBack
    {
        type            empty;
    }
}


// ************************************************************************* //
