/*--------------------------------*- C++ -*----------------------------------*\
| =========                 |                                                 |
| \\      /  F ield         | OpenFOAM: The Open Source CFD Toolbox           |
|  \\    /   O peration     | Version:  5.x                                   |
|   \\  /    A nd           | Web:      www.OpenFOAM.org                      |
|    \\/     M anipulation  |                                                 |
\*---------------------------------------------------------------------------*/
FoamFile
{
    version     2.0;
    format      ascii;
    class       volScalarField;
    location    "1550";
    object      p;
}
// * * * * * * * * * * * * * * * * * * * * * * * * * * * * * * * * * * * * * //

dimensions      [0 2 -2 0 0 0 0];

internalField   nonuniform List<scalar> 
11040
(
-0.00238592
-99.7347
-337.069
-401.18
-422.364
-435.34
-436.794
-426.496
-407.827
-381.896
-348.212
-296.468
-246.655
-211.177
-186.385
-159.956
-133.112
-107.755
-83.7516
-60.5841
-38.165
-18.7993
-2.61651
12.5286
26.7152
39.9673
52.2801
63.6421
73.9915
83.2287
91.2411
97.9087
103.176
107.111
109.913
111.839
112.628
112.049
111.722
115.211
115.271
36.5756
-59.9111
-212.479
-290.475
-331.384
-361.456
-379.288
-383.471
-376.489
-360.051
-334.365
-291.475
-246.3
-211.468
-186.13
-160.01
-133.474
-108.25
-84.3252
-61.2215
-38.8434
-19.5256
-3.31241
11.8623
26.081
39.3707
51.7287
63.1421
73.5518
82.8604
90.9495
97.6975
103.044
107.039
109.877
111.852
112.71
112.113
111.373
113.836
113.375
61.254
-32.5007
-142.36
-234.015
-288.795
-325.028
-347.62
-356.287
-353.299
-340.638
-319.323
-283.739
-242.966
-208.958
-183.518
-158.391
-132.619
-107.79
-84.1374
-61.2535
-39.0347
-19.796
-3.62557
11.5185
25.7182
39.0007
51.3637
62.7923
73.2288
82.5774
90.7194
97.5322
102.945
106.998
109.876
111.89
112.812
112.27
111.387
113.05
112.238
78.6341
-5.13928
-87.3793
-171.034
-229.424
-270.858
-300.451
-317.069
-321.364
-315.172
-300.013
-272.175
-236.924
-204.865
-179.75
-155.734
-130.951
-106.718
-83.4914
-60.9513
-38.988
-19.9158
-3.84389
11.2333
25.3866
38.6403
50.9919
62.4239
72.8794
82.2641
90.4599
97.3417
102.831
106.959
109.889
111.925
112.886
112.405
111.474
112.654
112.01
92.3274
20.5653
-43.3255
-114.927
-173.763
-218.796
-253.049
-275.641
-286.31
-286.343
-277.337
-257.133
-228.282
-199.19
-174.821
-151.955
-128.391
-104.992
-82.3589
-60.3056
-38.7263
-19.919
-4.00956
10.9465
25.0077
38.1943
50.5036
61.9158
72.3745
81.7876
90.0382
97.0014
102.593
106.828
109.845
111.919
112.917
112.523
111.591
112.593
112.453
102.746
42.957
-8.03436
-67.4285
-121.97
-167.093
-203.664
-230.74
-247.185
-253.451
-250.816
-238.177
-216.309
-191.237
-168.36
-146.852
-124.761
-102.457
-80.606
-59.1914
-38.1338
-19.6913
-4.02634
10.7357
24.6413
37.7054
49.9244
61.2765
71.7063
81.125
89.4193
96.467
102.179
106.556
109.701
111.846
112.911
112.673
111.829
112.817
113.225
110.635
61.65
20.2375
-28.3117
-76.0016
-118.361
-154.812
-184.212
-204.947
-216.69
-220.157
-214.756
-200.173
-180.214
-159.877
-140.154
-119.82
-98.9171
-78.0889
-57.498
-37.1193
-19.1612
-3.8385
10.6458
24.3221
37.1961
49.2633
60.5007
70.8552
80.2434
88.5582
95.6834
101.528
106.076
109.398
111.672
112.866
112.872
112.251
113.295
114.241
116.576
76.7337
42.7953
3.35821
-36.8071
-74.5036
-108.737
-138.273
-161.392
-177.227
-185.909
-186.966
-179.463
-165.369
-148.667
-131.375
-113.183
-94.0559
-74.5697
-55.0439
-35.5461
-18.227
-3.36587
10.7395
24.0966
36.698
48.5361
59.5872
69.8018
79.1042
87.3978
94.5768
100.552
105.295
108.846
111.328
112.75
113.12
112.874
114.091
115.463
120.995
88.614
60.6678
28.6894
-4.39402
-36.6116
-67.1718
-94.9801
-118.509
-136.68
-149.185
-155.484
-154.301
-146.254
-134.052
-119.941
-104.371
-87.4585
-69.7117
-51.5626
-33.1997
-16.7109
-2.45773
11.1393
24.0644
36.2929
47.8087
58.5856
68.5775
77.718
85.9245
93.1066
99.1846
104.125
107.944
110.726
112.504
113.381
113.68
115.238
116.86
124.208
97.8145
74.7298
48.7936
21.8751
-4.90467
-31.1121
-55.9533
-78.2377
-96.9644
-111.61
-121.575
-125.452
-122.979
-115.659
-105.362
-92.9198
-78.6735
-63.1101
-46.7193
-29.8049
-14.3796
-0.911735
12.0173
24.3719
36.1082
47.1953
57.6003
67.2779
76.1698
84.2072
91.318
97.4388
102.541
106.634
109.779
112.029
113.552
114.56
116.614
118.413
126.476
104.863
85.7419
64.677
42.9011
21.0237
-0.806654
-22.1131
-42.0539
-59.8664
-75.0254
-86.9559
-94.3066
-96.3481
-93.6475
-87.4303
-78.4948
-67.308
-54.3546
-40.1352
-25.0358
-10.9542
1.51576
13.5867
25.2047
36.3075
46.8447
56.7719
66.0412
74.5989
82.387
89.3493
95.4394
100.64
104.969
108.481
111.243
113.462
115.262
117.893
119.983
128.024
110.235
94.3562
77.2103
59.6267
41.9253
24.0873
6.35143
-10.745
-26.6913
-41.0857
-53.4534
-62.6429
-67.7807
-68.846
-66.4396
-61.0737
-53.159
-43.1321
-31.4551
-18.5415
-6.11244
5.1161
16.1115
26.8
37.1029
46.9481
56.2765
65.0349
73.171
80.6339
87.3783
93.3709
98.605
103.107
106.933
110.158
112.99
115.513
118.646
121.204
129.046
114.333
101.118
87.1251
72.9185
58.658
44.2466
29.7758
15.5584
1.91353
-10.9156
-22.5928
-32.2262
-39.0084
-42.6427
-43.2873
-41.124
-36.3808
-29.3712
-20.4618
-10.0289
0.459537
10.1995
19.8931
29.445
38.7626
47.7539
56.3441
64.4726
72.0863
79.1378
85.589
91.4149
96.6142
101.216
105.274
108.853
112.132
115.188
118.613
121.654
129.702
117.486
106.469
95.0178
83.5184
72.0421
60.4664
48.8039
37.2246
25.9124
14.9912
4.66204
-4.43344
-11.653
-16.6382
-19.313
-19.6218
-17.5961
-13.386
-7.22193
0.612024
8.96727
17.0182
25.2123
33.437
41.5886
49.5594
57.2614
64.6269
71.6003
78.1352
84.1964
89.7627
94.8335
99.4354
103.608
107.401
110.943
114.303
117.804
121.078
130.116
119.945
110.752
101.357
92.0267
82.7845
73.5076
64.1716
54.8634
45.6801
36.6781
27.9545
19.9425
13.1079
7.76149
4.05732
2.16162
2.17475
4.08925
7.81226
13.1762
19.3775
25.6486
32.2255
38.9897
45.8343
52.644
59.3218
65.7939
72.0027
77.9016
83.4559
88.6433
93.4596
97.9231
102.057
105.892
109.506
112.952
116.378
119.615
130.398
121.916
114.24
106.513
98.9225
91.4656
84.0303
76.5786
69.1514
61.7965
54.532
47.3953
40.6653
34.6599
29.6089
25.6598
22.9953
21.7665
22.0501
23.8549
27.1183
31.3521
35.9092
40.8782
46.1494
51.6229
57.1876
62.7465
68.2243
73.5616
78.7107
83.6358
88.3123
92.7301
96.8973
100.821
104.512
108.014
111.356
114.599
117.66
130.66
123.583
117.175
110.806
104.616
98.5847
92.615
86.6669
80.7574
74.9077
69.1168
63.3949
57.9144
52.8846
48.4625
44.76
41.9295
40.1171
39.4264
39.9183
41.5991
44.2224
47.2904
50.8072
54.683
58.8335
63.1619
67.5809
72.0202
76.4232
80.7429
84.9426
88.9945
92.8827
96.6053
100.158
103.538
106.765
109.853
112.819
115.625
130.897
124.933
119.526
114.209
109.092
104.145
99.2829
94.4694
89.7104
85.015
80.3755
75.7925
71.3747
67.2565
63.5414
60.3072
57.6675
55.7396
54.6199
54.3811
55.0601
56.5597
58.5178
60.9023
63.6469
66.6858
69.9414
73.3413
76.8255
80.3436
83.853
87.3184
90.7118
94.0136
97.2155
100.306
103.273
106.126
108.867
111.496
113.996
131.092
125.991
121.357
116.844
112.54
108.407
104.373
100.405
96.5031
92.6705
88.8974
85.1798
81.5913
78.2211
75.137
72.3929
70.0698
68.2555
67.0276
66.4523
66.5727
67.3701
68.5833
70.1714
72.0886
74.2857
76.7026
79.2828
81.9773
84.744
87.5462
90.3524
93.1363
95.8779
98.5656
101.185
103.721
106.176
108.546
110.823
113.001
131.274
126.854
122.835
118.951
115.275
111.768
108.365
105.039
101.786
98.6069
95.4915
92.4349
89.4882
86.7135
84.1554
81.8515
79.8592
78.2425
77.0605
76.3668
76.2008
76.5797
77.3127
78.3617
79.6964
81.2801
83.0676
85.0153
87.0849
89.2425
91.4577
93.7035
95.9568
98.199
100.418
102.599
104.726
106.799
108.81
110.751
112.617
131.451
127.583
124.061
120.681
117.505
114.491
111.584
108.759
106.012
103.34
100.735
98.192
95.7473
93.4457
91.3175
89.3881
87.6994
86.2975
85.2261
84.5265
84.2307
84.37
84.8007
85.4915
86.4231
87.568
88.8918
90.3617
91.9482
93.6245
95.3659
97.1503
98.9583
100.773
102.584
104.377
106.138
107.865
109.549
111.182
112.76
131.626
128.212
125.101
122.134
119.363
116.747
114.237
111.812
109.465
107.195
104.994
102.856
100.809
98.8853
97.1062
95.4889
94.064
92.8651
91.924
91.2717
90.9327
90.9409
91.1848
91.6406
92.2959
93.1298
94.1161
95.2298
96.4485
97.751
99.1179
100.531
101.975
103.436
104.903
106.365
107.811
109.235
110.633
111.994
113.316
131.798
128.765
125.998
123.374
120.937
118.648
116.462
114.36
112.339
110.392
108.515
106.702
104.974
103.354
101.859
100.5
99.2983
98.28
97.4675
96.8838
96.5469
96.4884
96.6192
96.9216
97.3882
98.0025
98.7442
99.5941
100.535
101.551
102.625
103.745
104.897
106.07
107.255
108.442
109.621
110.79
111.942
113.07
114.17
131.967
129.256
126.781
124.445
122.288
120.27
118.352
116.518
114.763
113.081
111.468
109.919
108.449
107.077
105.813
104.667
103.653
102.791
102.096
101.586
101.273
101.185
101.249
101.452
101.789
102.248
102.812
103.467
104.199
104.996
105.844
106.734
107.654
108.596
109.552
110.514
111.475
112.432
113.378
114.309
115.22
132.132
129.696
127.47
125.38
123.459
121.67
119.977
118.366
116.831
115.369
113.974
112.641
111.384
110.214
109.141
108.171
107.314
106.584
105.993
105.554
105.275
105.178
105.203
105.341
105.59
105.938
106.373
106.883
107.458
108.087
108.761
109.471
110.209
110.967
111.74
112.521
113.304
114.086
114.862
115.629
116.381
132.293
130.093
128.082
126.203
124.483
122.888
121.385
119.962
118.614
117.335
116.121
114.969
113.887
112.885
111.97
111.146
110.419
109.802
109.301
108.926
108.682
108.588
108.592
108.687
108.874
109.143
109.484
109.886
110.341
110.843
111.382
111.952
112.547
113.16
113.786
114.421
115.06
115.7
116.338
116.97
117.591
132.447
130.453
128.629
126.931
125.384
123.955
122.615
121.352
120.161
119.037
117.976
116.975
116.04
115.178
114.395
113.692
113.075
112.551
112.128
111.809
111.6
111.514
111.507
111.575
111.719
111.931
112.2
112.521
112.886
113.289
113.724
114.185
114.667
115.165
115.675
116.194
116.716
117.242
117.766
118.288
118.801
132.595
130.779
129.118
127.578
126.182
124.896
123.696
122.57
121.513
120.521
119.59
118.716
117.904
117.16
116.487
115.886
115.361
114.918
114.559
114.29
114.112
114.037
114.025
114.076
114.189
114.358
114.575
114.834
115.129
115.456
115.81
116.185
116.578
116.985
117.403
117.828
118.257
118.69
119.123
119.554
119.98
132.736
131.076
129.557
128.156
126.889
125.728
124.649
123.641
122.7
121.822
121.001
120.236
119.529
118.885
118.305
117.789
117.342
116.965
116.662
116.436
116.286
116.222
116.209
116.248
116.339
116.476
116.653
116.865
117.106
117.374
117.663
117.971
118.294
118.628
118.972
119.322
119.677
120.034
120.393
120.751
121.104
132.87
131.346
129.953
128.673
127.52
126.467
125.493
124.588
123.748
122.967
122.242
121.569
120.952
120.392
119.891
119.449
119.067
118.747
118.491
118.3
118.175
118.122
118.111
118.142
118.217
118.33
118.476
118.65
118.85
119.07
119.309
119.564
119.83
120.107
120.391
120.681
120.975
121.272
121.57
121.868
122.162
132.996
131.593
130.31
129.136
128.083
127.125
126.243
125.428
124.674
123.978
123.336
122.743
122.203
121.716
121.282
120.902
120.575
120.303
120.087
119.928
119.824
119.781
119.771
119.798
119.86
119.955
120.077
120.222
120.388
120.572
120.771
120.982
121.204
121.433
121.67
121.911
122.156
122.404
122.652
122.901
123.147
133.114
131.817
130.632
129.552
128.587
127.712
126.911
126.174
125.496
124.874
124.303
123.781
123.306
122.882
122.506
122.178
121.899
121.668
121.486
121.353
121.268
121.234
121.227
121.25
121.304
121.384
121.487
121.609
121.748
121.902
122.069
122.245
122.431
122.623
122.82
123.022
123.227
123.434
123.642
123.851
124.056
133.225
132.021
130.923
129.925
129.037
128.236
127.505
126.837
126.227
125.669
125.161
124.699
124.282
123.912
123.586
123.304
123.065
122.869
122.716
122.606
122.536
122.51
122.506
122.526
122.573
122.642
122.73
122.834
122.952
123.081
123.221
123.37
123.526
123.687
123.853
124.022
124.194
124.368
124.542
124.718
124.891
133.328
132.206
131.184
130.259
129.439
128.703
128.035
127.428
126.876
126.376
125.923
125.513
125.147
124.823
124.541
124.298
124.094
123.928
123.8
123.709
123.653
123.633
123.632
123.651
123.693
123.753
123.828
123.917
124.017
124.128
124.246
124.372
124.503
124.639
124.779
124.921
125.066
125.213
125.36
125.508
125.653
133.424
132.374
131.419
130.559
129.799
129.12
128.507
127.953
127.454
127.004
126.599
126.236
125.914
125.631
125.386
125.178
125.004
124.864
124.757
124.682
124.638
124.624
124.625
124.644
124.681
124.734
124.8
124.876
124.962
125.056
125.157
125.263
125.375
125.49
125.608
125.728
125.851
125.974
126.099
126.224
126.346
133.512
132.525
131.629
130.826
130.119
129.49
128.926
128.421
127.967
127.562
127.2
126.878
126.594
126.347
126.136
125.957
125.809
125.692
125.603
125.543
125.508
125.5
125.503
125.522
125.556
125.602
125.66
125.726
125.8
125.881
125.967
126.058
126.153
126.25
126.351
126.453
126.556
126.661
126.766
126.872
126.975
133.592
132.66
131.817
131.063
130.403
129.819
129.298
128.835
128.422
128.056
127.732
127.447
127.197
126.982
126.799
126.646
126.522
126.424
126.351
126.303
126.277
126.273
126.279
126.297
126.328
126.37
126.421
126.479
126.543
126.612
126.686
126.764
126.845
126.928
127.013
127.1
127.188
127.277
127.366
127.455
127.543
133.666
132.781
131.983
131.273
130.653
130.108
129.626
129.2
128.824
128.493
128.203
127.95
127.731
127.544
127.387
127.257
127.152
127.072
127.013
126.975
126.957
126.957
126.965
126.984
127.013
127.051
127.096
127.147
127.203
127.263
127.327
127.394
127.463
127.535
127.607
127.681
127.755
127.831
127.906
127.982
128.056
133.731
132.888
132.129
131.456
130.872
130.362
129.914
129.521
129.177
128.878
128.618
128.394
128.202
128.04
127.906
127.796
127.709
127.643
127.597
127.568
127.556
127.56
127.57
127.589
127.616
127.651
127.691
127.736
127.785
127.838
127.893
127.951
128.011
128.071
128.133
128.196
128.26
128.324
128.388
128.452
128.514
133.79
132.981
132.255
131.615
131.062
130.582
130.163
129.8
129.486
129.215
128.982
128.784
128.616
128.477
128.362
128.271
128.2
128.147
128.112
128.092
128.086
128.094
128.106
128.125
128.152
128.184
128.221
128.262
128.305
128.352
128.4
128.45
128.501
128.553
128.607
128.66
128.714
128.768
128.823
128.877
128.93
133.842
133.061
132.363
131.75
131.223
130.769
130.377
130.04
129.751
129.506
129.298
129.123
128.977
128.858
128.762
128.686
128.629
128.589
128.563
128.55
128.549
128.559
128.573
128.592
128.618
128.648
128.681
128.718
128.757
128.798
128.84
128.884
128.928
128.973
129.019
129.065
129.111
129.157
129.203
129.249
129.294
133.886
133.127
132.452
131.862
131.358
130.926
130.557
130.243
129.977
129.754
129.568
129.414
129.289
129.188
129.108
129.048
129.004
128.975
128.959
128.954
128.959
128.973
128.989
129.01
129.036
129.065
129.097
129.131
129.166
129.203
129.241
129.279
129.318
129.357
129.396
129.435
129.475
129.514
129.553
129.592
129.629
133.924
133.181
132.523
131.952
131.465
131.053
130.703
130.41
130.165
129.963
129.796
129.662
129.554
129.47
129.406
129.359
129.326
129.306
129.297
129.298
129.306
129.322
129.34
129.361
129.386
129.414
129.443
129.474
129.506
129.539
129.573
129.607
129.641
129.675
129.709
129.743
129.777
129.811
129.844
129.877
129.909
133.954
133.222
132.577
132.019
131.547
131.15
130.817
130.541
130.315
130.131
129.983
129.866
129.776
129.707
129.658
129.624
129.605
129.596
129.597
129.606
129.621
129.642
129.664
129.688
129.715
129.743
129.773
129.803
129.833
129.864
129.894
129.925
129.955
129.985
130.015
130.044
130.073
130.101
130.129
130.157
130.184
133.978
133.253
132.616
132.067
131.605
131.22
130.901
130.64
130.429
130.262
130.13
130.029
129.954
129.9
129.863
129.84
129.829
129.827
129.833
129.845
129.863
129.885
129.908
129.932
129.959
129.986
130.014
130.043
130.071
130.099
130.127
130.155
130.182
130.209
130.236
130.261
130.287
130.312
130.336
130.36
130.383
133.995
133.27
132.637
132.094
131.64
131.264
130.956
130.708
130.511
130.357
130.24
130.154
130.093
130.054
130.033
130.025
130.029
130.041
130.06
130.084
130.11
130.14
130.169
130.198
130.228
130.258
130.288
130.317
130.346
130.373
130.4
130.426
130.451
130.475
130.499
130.521
130.543
130.564
130.584
130.604
130.623
134.003
133.267
132.628
132.085
131.634
131.264
130.967
130.731
130.547
130.408
130.305
130.233
130.185
130.156
130.142
130.14
130.148
130.164
130.185
130.211
130.24
130.271
130.301
130.331
130.361
130.391
130.421
130.449
130.477
130.503
130.528
130.553
130.576
130.599
130.62
130.641
130.661
130.679
130.697
130.715
130.731
134.001
133.246
132.595
132.044
131.591
131.223
130.932
130.705
130.534
130.409
130.324
130.27
130.243
130.237
130.249
130.272
130.305
130.344
130.385
130.427
130.469
130.509
130.548
130.586
130.622
130.656
130.689
130.72
130.749
130.776
130.802
130.826
130.849
130.87
130.89
130.909
130.926
130.943
130.958
130.973
130.987
125.737
133.172
139.072
142.365
144.221
145.369
145.928
146.067
145.94
145.643
145.24
144.776
144.284
143.783
143.288
142.807
142.346
141.907
141.493
141.103
140.737
140.395
140.076
139.778
139.5
139.241
139
138.776
138.568
138.373
138.192
138.023
137.865
137.717
137.578
137.448
137.325
137.209
137.1
136.998
136.901
136.81
136.725
136.644
136.568
136.496
136.429
136.365
136.304
136.247
136.192
136.14
136.091
136.043
135.998
135.955
135.913
135.873
135.834
135.796
135.76
135.724
135.69
135.656
135.623
135.591
135.56
135.53
135.501
135.475
135.446
135.429
135.395
135.407
124.726
132.722
138.888
142.414
144.367
145.52
146.054
146.163
146.007
145.685
145.261
144.782
144.276
143.765
143.263
142.776
142.31
141.869
141.453
141.062
140.696
140.354
140.035
139.737
139.46
139.203
138.963
138.74
138.533
138.339
138.16
137.992
137.835
137.688
137.551
137.421
137.3
137.185
137.077
136.976
136.88
136.79
136.705
136.625
136.55
136.479
136.412
136.349
136.289
136.232
136.178
136.127
136.078
136.031
135.986
135.943
135.902
135.862
135.824
135.787
135.751
135.715
135.681
135.648
135.615
135.584
135.553
135.523
135.494
135.468
135.44
135.423
135.389
135.401
123.975
131.532
138.35
142.329
144.463
145.663
146.192
146.275
146.087
145.735
145.287
144.787
144.266
143.743
143.232
142.738
142.268
141.824
141.406
141.014
140.647
140.305
139.987
139.69
139.415
139.158
138.92
138.699
138.493
138.301
138.123
137.957
137.801
137.656
137.52
137.392
137.272
137.158
137.052
136.951
136.857
136.768
136.684
136.605
136.531
136.46
136.394
136.332
136.273
136.216
136.163
136.112
136.064
136.018
135.974
135.931
135.89
135.851
135.813
135.776
135.741
135.706
135.672
135.639
135.607
135.575
135.545
135.515
135.487
135.461
135.433
135.416
135.382
135.395
123.577
130.509
137.649
142.06
144.457
145.752
146.304
146.38
146.17
145.789
145.313
144.791
144.252
143.716
143.194
142.693
142.218
141.77
141.35
140.957
140.59
140.249
139.931
139.636
139.362
139.107
138.871
138.651
138.447
138.257
138.081
137.917
137.763
137.62
137.485
137.359
137.24
137.128
137.023
136.924
136.83
136.743
136.66
136.582
136.509
136.44
136.375
136.313
136.254
136.199
136.147
136.097
136.049
136.003
135.96
135.918
135.878
135.839
135.801
135.765
135.73
135.696
135.662
135.63
135.598
135.567
135.536
135.507
135.479
135.453
135.426
135.409
135.376
135.388
123.694
130.122
137.074
141.656
144.315
145.754
146.356
146.442
146.224
145.827
145.332
144.789
144.231
143.679
143.146
142.638
142.157
141.706
141.283
140.889
140.523
140.182
139.866
139.573
139.3
139.048
138.813
138.596
138.395
138.207
138.033
137.871
137.72
137.578
137.446
137.322
137.205
137.094
136.991
136.893
136.801
136.715
136.634
136.557
136.485
136.417
136.353
136.292
136.235
136.18
136.129
136.079
136.033
135.988
135.945
135.904
135.864
135.826
135.789
135.753
135.718
135.685
135.652
135.619
135.588
135.557
135.527
135.499
135.47
135.445
135.418
135.402
135.368
135.381
124.07
130.227
136.788
141.309
144.081
145.643
146.326
146.442
146.223
145.817
145.313
144.761
144.191
143.628
143.085
142.568
142.082
141.627
141.203
140.809
140.443
140.104
139.789
139.498
139.228
138.978
138.747
138.533
138.334
138.15
137.978
137.819
137.67
137.531
137.401
137.279
137.164
137.056
136.955
136.859
136.769
136.684
136.604
136.529
136.458
136.392
136.329
136.269
136.213
136.16
136.109
136.061
136.015
135.971
135.928
135.888
135.849
135.812
135.775
135.74
135.706
135.673
135.64
135.609
135.578
135.547
135.518
135.49
135.462
135.437
135.41
135.394
135.361
135.373
124.569
130.591
136.742
141.138
143.874
145.455
146.198
146.364
146.162
145.751
145.237
144.677
144.106
143.542
142.997
142.476
141.987
141.53
141.105
140.711
140.347
140.01
139.698
139.41
139.143
138.897
138.669
138.459
138.263
138.083
137.915
137.759
137.613
137.478
137.35
137.231
137.119
137.013
136.914
136.82
136.732
136.649
136.571
136.498
136.429
136.364
136.302
136.244
136.189
136.137
136.087
136.04
135.995
135.952
135.911
135.871
135.833
135.796
135.761
135.726
135.693
135.66
135.628
135.597
135.566
135.537
135.508
135.48
135.452
135.428
135.401
135.385
135.353
135.365
125.247
131.017
136.746
141.054
143.735
145.265
146.007
146.203
146.028
145.628
145.111
144.54
143.96
143.395
142.855
142.342
141.858
141.405
140.983
140.592
140.23
139.897
139.589
139.305
139.043
138.801
138.578
138.372
138.181
138.005
137.841
137.689
137.548
137.416
137.292
137.176
137.067
136.964
136.867
136.776
136.69
136.61
136.534
136.463
136.395
136.332
136.272
136.216
136.162
136.112
136.063
136.017
135.973
135.931
135.891
135.853
135.815
135.779
135.745
135.711
135.678
135.646
135.615
135.584
135.554
135.525
135.497
135.469
135.442
135.418
135.392
135.376
135.345
135.357
126.219
131.45
136.608
140.85
143.546
145.063
145.791
145.988
145.825
145.439
144.93
144.36
143.772
143.198
142.654
142.144
141.671
141.231
140.821
140.439
140.085
139.758
139.456
139.178
138.923
138.687
138.469
138.269
138.084
137.913
137.755
137.608
137.471
137.344
137.224
137.112
137.007
136.908
136.814
136.726
136.643
136.565
136.492
136.423
136.358
136.297
136.239
136.184
136.133
136.083
136.037
135.992
135.95
135.909
135.87
135.832
135.796
135.761
135.727
135.694
135.662
135.631
135.601
135.571
135.542
135.513
135.485
135.458
135.431
135.408
135.382
135.367
135.336
135.348
127.371
131.815
136.242
140.356
143.105
144.672
145.463
145.71
145.573
145.194
144.688
144.123
143.539
142.966
142.417
141.902
141.428
140.995
140.598
140.233
139.896
139.583
139.293
139.025
138.778
138.55
138.34
138.147
137.97
137.806
137.654
137.513
137.382
137.26
137.146
137.039
136.938
136.843
136.753
136.669
136.589
136.515
136.444
136.378
136.316
136.257
136.202
136.149
136.099
136.052
136.007
135.964
135.923
135.884
135.846
135.81
135.775
135.741
135.708
135.676
135.645
135.615
135.585
135.556
135.528
135.5
135.472
135.446
135.42
135.397
135.372
135.357
135.326
135.339
128.185
131.858
135.5
139.363
142.198
143.883
144.799
145.182
145.162
144.864
144.398
143.848
143.268
142.694
142.144
141.629
141.154
140.72
140.325
139.968
139.645
139.351
139.08
138.83
138.598
138.384
138.185
138.002
137.833
137.678
137.534
137.402
137.278
137.163
137.055
136.953
136.858
136.768
136.683
136.603
136.527
136.456
136.39
136.327
136.268
136.212
136.159
136.109
136.062
136.017
135.974
135.933
135.894
135.856
135.82
135.785
135.752
135.719
135.688
135.657
135.627
135.597
135.569
135.54
135.513
135.486
135.459
135.433
135.408
135.385
135.36
135.346
135.316
135.329
128.099
131.229
134.224
137.672
140.505
142.359
143.495
144.119
144.328
144.223
143.908
143.465
142.951
142.406
141.863
141.345
140.863
140.423
140.026
139.669
139.351
139.066
138.81
138.578
138.367
138.173
137.992
137.825
137.669
137.526
137.393
137.269
137.155
137.048
136.948
136.853
136.764
136.68
136.601
136.526
136.456
136.39
136.327
136.268
136.213
136.161
136.111
136.064
136.02
135.977
135.937
135.898
135.861
135.826
135.791
135.758
135.726
135.695
135.665
135.635
135.606
135.578
135.55
135.523
135.496
135.47
135.444
135.419
135.395
135.373
135.348
135.334
135.305
135.318
127.069
129.838
132.403
135.35
137.983
139.921
141.275
142.193
142.729
142.939
142.9
142.686
142.354
141.948
141.503
141.044
140.588
140.151
139.744
139.374
139.045
138.755
138.5
138.277
138.081
137.905
137.746
137.601
137.466
137.34
137.222
137.112
137.009
136.912
136.822
136.736
136.655
136.579
136.506
136.438
136.373
136.312
136.255
136.201
136.15
136.102
136.056
136.013
135.972
135.933
135.895
135.859
135.824
135.791
135.759
135.728
135.698
135.668
135.64
135.612
135.584
135.557
135.531
135.505
135.479
135.453
135.429
135.404
135.38
135.359
135.336
135.322
135.294
135.307
125.302
127.777
130.075
132.597
134.958
136.877
138.367
139.505
140.324
140.851
141.136
141.23
141.178
141.015
140.771
140.474
140.146
139.802
139.456
139.116
138.791
138.488
138.215
137.975
137.769
137.595
137.446
137.319
137.207
137.105
137.01
136.919
136.833
136.751
136.672
136.597
136.526
136.459
136.395
136.334
136.277
136.223
136.172
136.123
136.078
136.035
135.994
135.955
135.917
135.882
135.847
135.814
135.783
135.752
135.723
135.694
135.666
135.638
135.612
135.585
135.56
135.534
135.509
135.484
135.46
135.435
135.411
135.388
135.365
135.345
135.322
135.309
135.281
135.295
123.045
125.275
127.386
129.606
131.723
133.563
135.109
136.389
137.412
138.191
138.751
139.128
139.354
139.459
139.468
139.4
139.274
139.104
138.902
138.679
138.445
138.208
137.972
137.742
137.526
137.33
137.16
137.019
136.905
136.813
136.737
136.672
136.612
136.552
136.493
136.434
136.376
136.319
136.264
136.213
136.164
136.118
136.074
136.033
135.994
135.957
135.921
135.887
135.855
135.823
135.793
135.764
135.736
135.708
135.682
135.656
135.63
135.605
135.581
135.556
135.532
135.509
135.485
135.462
135.439
135.416
135.393
135.371
135.349
135.329
135.307
135.295
135.268
135.282
120.556
122.58
124.529
126.524
128.44
130.18
131.728
133.084
134.246
135.213
135.994
136.609
137.078
137.422
137.661
137.815
137.899
137.928
137.911
137.858
137.773
137.664
137.537
137.397
137.25
137.1
136.95
136.805
136.671
136.554
136.459
136.385
136.331
136.289
136.255
136.222
136.188
136.151
136.112
136.072
136.034
135.996
135.961
135.928
135.897
135.866
135.838
135.81
135.783
135.757
135.731
135.706
135.682
135.659
135.635
135.613
135.59
135.568
135.546
135.524
135.502
135.48
135.459
135.437
135.416
135.394
135.373
135.352
135.331
135.312
135.292
135.28
135.255
135.269
118.104
119.938
121.725
123.524
125.266
126.897
128.404
129.78
131.017
132.107
133.051
133.855
134.528
135.082
135.529
135.883
136.158
136.367
136.521
136.63
136.701
136.741
136.753
136.741
136.709
136.661
136.599
136.527
136.448
136.365
136.278
136.193
136.116
136.05
136
135.965
135.941
135.923
135.908
135.891
135.872
135.851
135.829
135.806
135.784
135.762
135.741
135.72
135.7
135.68
135.66
135.64
135.621
135.602
135.583
135.564
135.545
135.526
135.507
135.488
135.468
135.449
135.43
135.41
135.39
135.371
135.351
135.331
135.312
135.294
135.275
135.264
135.24
135.255
116.116
117.757
119.37
120.983
122.557
124.064
125.492
126.835
128.081
129.223
130.256
131.179
131.994
132.706
133.32
133.844
134.287
134.658
134.965
135.218
135.425
135.592
135.727
135.833
135.913
135.971
136.008
136.025
136.025
136.01
135.985
135.951
135.912
135.868
135.823
135.779
135.741
135.712
135.694
135.684
135.68
135.676
135.672
135.665
135.655
135.644
135.632
135.62
135.607
135.594
135.581
135.567
135.553
135.539
135.525
135.51
135.495
135.48
135.464
135.448
135.432
135.415
135.398
135.381
135.363
135.345
135.327
135.309
135.291
135.275
135.256
135.247
135.224
135.241
114.807
116.247
117.679
119.107
120.513
121.881
123.204
124.471
125.676
126.81
127.866
128.841
129.733
130.541
131.266
131.912
132.483
132.983
133.419
133.796
134.121
134.4
134.638
134.84
135.011
135.155
135.274
135.371
135.448
135.506
135.547
135.574
135.588
135.593
135.59
135.582
135.569
135.552
135.533
135.518
135.507
135.503
135.504
135.509
135.513
135.515
135.515
135.512
135.508
135.502
135.496
135.488
135.48
135.472
135.462
135.452
135.441
135.43
135.418
135.405
135.392
135.378
135.364
135.349
135.334
135.318
135.302
135.286
135.269
135.254
135.237
135.229
135.207
135.225
114.146
115.387
116.632
117.877
119.114
120.334
121.53
122.695
123.822
124.903
125.933
126.907
127.819
128.668
129.452
130.17
130.823
131.414
131.945
132.419
132.841
133.214
133.542
133.83
134.082
134.302
134.493
134.658
134.8
134.922
135.025
135.112
135.182
135.238
135.281
135.314
135.337
135.353
135.362
135.366
135.365
135.362
135.36
135.361
135.366
135.375
135.385
135.394
135.401
135.404
135.405
135.405
135.403
135.4
135.396
135.391
135.384
135.377
135.369
135.36
135.35
135.34
135.328
135.316
135.303
135.289
135.275
135.261
135.246
135.232
135.217
135.209
135.189
135.21
114.045
115.094
116.154
117.22
118.289
119.356
120.415
121.46
122.485
123.485
124.453
125.385
126.276
127.122
127.919
128.667
129.362
130.006
130.598
131.139
131.632
132.077
132.479
132.84
133.162
133.449
133.704
133.93
134.129
134.305
134.46
134.596
134.715
134.819
134.908
134.985
135.048
135.1
135.141
135.174
135.199
135.217
135.229
135.237
135.243
135.249
135.257
135.269
135.283
135.296
135.307
135.315
135.321
135.324
135.326
135.326
135.324
135.321
135.317
135.312
135.306
135.298
135.29
135.28
135.27
135.259
135.247
135.234
135.221
135.209
135.195
135.189
135.17
135.193
114.387
115.258
116.144
117.042
117.95
118.866
119.784
120.701
121.611
122.511
123.395
124.259
125.098
125.908
126.685
127.427
128.13
128.793
129.414
129.993
130.53
131.026
131.481
131.897
132.275
132.619
132.929
133.208
133.459
133.683
133.884
134.063
134.223
134.366
134.493
134.607
134.708
134.797
134.873
134.938
134.992
135.036
135.071
135.1
135.121
135.137
135.149
135.16
135.172
135.185
135.201
135.217
135.231
135.242
135.251
135.256
135.26
135.262
135.262
135.261
135.259
135.255
135.249
135.243
135.235
135.226
135.216
135.206
135.195
135.184
135.172
135.167
135.15
135.176
115.057
115.769
116.498
117.243
118.003
118.775
119.558
120.347
121.139
121.93
122.718
123.497
124.264
125.016
125.748
126.456
127.139
127.793
128.416
129.007
129.564
130.086
130.573
131.026
131.445
131.83
132.184
132.508
132.802
133.07
133.312
133.531
133.728
133.906
134.067
134.212
134.343
134.46
134.567
134.661
134.745
134.817
134.879
134.93
134.973
135.008
135.036
135.058
135.075
135.09
135.104
135.119
135.136
135.153
135.169
135.182
135.192
135.199
135.204
135.207
135.209
135.208
135.206
135.203
135.198
135.192