# y+ ()      
# Time       	patch        	min          	max          	average      
0            	walls	1.088674e+01	1.439126e+01	1.260415e+01
