# y+ ()      
# Time       	patch        	min          	max          	average      
0            	walls	9.814326e+01	1.626845e+02	1.506886e+02
