/*--------------------------------*- C++ -*----------------------------------*\
| =========                 |                                                 |
| \\      /  F ield         | OpenFOAM: The Open Source CFD Toolbox           |
|  \\    /   O peration     | Version:  5.x                                   |
|   \\  /    A nd           | Web:      www.OpenFOAM.org                      |
|    \\/     M anipulation  |                                                 |
\*---------------------------------------------------------------------------*/
FoamFile
{
    version     2.0;
    format      ascii;
    class       volScalarField;
    location    "1200";
    object      nuTilda;
}
// * * * * * * * * * * * * * * * * * * * * * * * * * * * * * * * * * * * * * //

dimensions      [0 2 -1 0 0 0 0];

internalField   nonuniform List<scalar> 
41860
(
4.12334e-05
4.37043e-05
5.51377e-05
5.81302e-05
5.37837e-05
4.98091e-05
4.43105e-05
3.96648e-05
3.59191e-05
3.28173e-05
3.00786e-05
2.81226e-05
2.59692e-05
2.50002e-05
2.33634e-05
2.28611e-05
2.19959e-05
2.13887e-05
2.09983e-05
1.97055e-05
1.95419e-05
2.87517e-05
1.89822e-05
2.98331e-05
1.86058e-05
3.03537e-05
3.06832e-05
1.82873e-05
3.07448e-05
3.07034e-05
3.06831e-05
1.79642e-05
1.79278e-05
3.04128e-05
1.7884e-05
3.01114e-05
1.79017e-05
1.79134e-05
1.79926e-05
2.89498e-05
1.81707e-05
1.82824e-05
3.00953e-05
3.01322e-05
1.71613e-05
3.00689e-05
3.00318e-05
2.9998e-05
2.99533e-05
2.99105e-05
2.98651e-05
2.98194e-05
2.97733e-05
2.97265e-05
2.96739e-05
1.7114e-05
1.71341e-05
2.95179e-05
1.71708e-05
2.94221e-05
2.93552e-05
2.93212e-05
1.72551e-05
2.91763e-05
1.72807e-05
2.90155e-05
1.72874e-05
1.72997e-05
2.87787e-05
2.86078e-05
1.72622e-05
2.84357e-05
2.82499e-05
1.71647e-05
1.70918e-05
2.78162e-05
1.69437e-05
1.67961e-05
1.66347e-05
2.66613e-05
1.63542e-05
1.03075e-05
0.000190784
0.000223849
0.000287177
0.000303948
0.000280977
0.000259903
0.000230585
0.000205785
0.000185779
0.00016921
0.000154577
0.000144142
0.000132641
0.000127486
0.000118737
0.000116054
0.000110981
0.000107158
0.000104512
9.82398e-05
9.67016e-05
9.68896e-05
9.11345e-05
9.39872e-05
8.75945e-05
9.17667e-05
9.01327e-05
8.50411e-05
8.88181e-05
8.84966e-05
8.7986e-05
8.28843e-05
8.27797e-05
8.73206e-05
8.28387e-05
8.75508e-05
8.34646e-05
8.38059e-05
8.47843e-05
9.00331e-05
8.69546e-05
8.83061e-05
8.2755e-05
8.2687e-05
7.80633e-05
8.2467e-05
8.24347e-05
8.23592e-05
8.23567e-05
8.23664e-05
8.24092e-05
8.24788e-05
8.25672e-05
8.26798e-05
8.28247e-05
7.84218e-05
7.86426e-05
8.32607e-05
7.90482e-05
8.3641e-05
8.39963e-05
8.40804e-05
7.995e-05
8.44702e-05
8.0317e-05
8.48397e-05
8.05619e-05
8.07887e-05
8.50191e-05
8.5447e-05
8.09166e-05
8.51332e-05
8.53156e-05
8.07771e-05
8.04529e-05
8.43576e-05
7.99993e-05
7.92976e-05
7.85002e-05
8.12263e-05
7.71841e-05
1.24468e-05
0.000240045
0.000278289
0.000363059
0.000386876
0.000358
0.000330857
0.000292962
0.000260906
0.000235191
0.000214182
0.000196302
0.000183408
0.000171585
0.000165407
0.000160526
0.000158759
0.000157846
0.000157344
0.00015676
0.000156053
0.000155072
0.00015741
0.000153983
0.00015614
0.000152717
0.000154514
0.000154027
0.000149935
0.000151972
0.000150825
0.000149805
0.000146058
0.000145033
0.000146729
0.00014321
0.000144938
0.000141726
0.000141132
0.000140742
0.000142693
0.000140445
0.000140571
0.000140344
0.000139996
0.000137292
0.000139311
0.000138988
0.000138687
0.000138419
0.000138183
0.00013798
0.000137811
0.000137671
0.000137563
0.000137485
0.000135168
0.000135165
0.000137368
0.00013521
0.000137418
0.000137539
0.000137552
0.000135491
0.00013764
0.000135565
0.000137692
0.00013555
0.000135575
0.000137496
0.000137597
0.000135251
0.000137073
0.000136945
0.000134475
0.000133956
0.000135379
0.000132797
0.000131739
0.000130564
0.000130469
0.000128329
1.50178e-05
0.000327751
0.000371071
0.000436574
0.000473854
0.000463927
0.000433763
0.000406307
0.000383805
0.000363829
0.000345456
0.000329415
0.000309461
0.000297281
0.000279252
0.000276365
0.000270166
0.000268999
0.000266881
0.000264047
0.000262417
0.000258933
0.000258474
0.000254133
0.000253077
0.000249212
0.000247802
0.000245785
0.000241358
0.000240639
0.000238027
0.000235675
0.000231943
0.000229678
0.000228966
0.000225587
0.000225062
0.000222082
0.000220582
0.000219289
0.000219272
0.000217338
0.000216725
0.000215352
0.000214296
0.000212301
0.000212713
0.000211968
0.000211278
0.000210646
0.000210077
0.000209569
0.000209119
0.000208723
0.000208384
0.000208094
0.000206727
0.000206552
0.000207458
0.000206299
0.000207242
0.00020726
0.000207173
0.000206151
0.000207066
0.000206016
0.000206909
0.000205764
0.000205669
0.000206336
0.000206308
0.000204872
0.000205409
0.00020508
0.000203399
0.000202554
0.000202573
0.000200586
0.000198953
0.000197133
0.000195085
0.00019324
1.81083e-05
0.000453185
0.000548151
0.00064324
0.000697795
0.000719008
0.000679573
0.000654861
0.000629262
0.000601006
0.000571555
0.000543767
0.000508952
0.000485355
0.000451666
0.000438472
0.000422895
0.000416589
0.000409899
0.000402937
0.000398216
0.000391188
0.000387095
0.000380571
0.000375974
0.000370508
0.000365768
0.000361615
0.000355904
0.000352403
0.000347899
0.000343815
0.000339261
0.000335425
0.000332463
0.000328476
0.00032592
0.000322478
0.000319871
0.000317533
0.000315909
0.000313727
0.000312372
0.000309425
0.000307311
0.000305382
0.000304514
0.000303214
0.000302009
0.000300901
0.000299896
0.000298987
0.000298169
0.000297437
0.000296793
0.000296227
0.000295254
0.000294852
0.000294904
0.000294201
0.000294335
0.000294215
0.000293992
0.000293479
0.000293639
0.000293078
0.00029322
0.000292536
0.000292298
0.000292178
0.000292005
0.000290942
0.000290652
0.00029009
0.000288664
0.00028744
0.000286479
0.000284555
0.000282276
0.000279711
0.000276074
0.000273606
2.18189e-05
0.000618922
0.000788712
0.000991902
0.00107885
0.00111229
0.0010498
0.0010063
0.000961135
0.000912779
0.000863494
0.000816746
0.00076293
0.000722897
0.000672129
0.000644854
0.000616915
0.000602554
0.000589201
0.000576523
0.000566928
0.000555204
0.000546658
0.000536541
0.000528011
0.000519632
0.000511386
0.000504397
0.000496388
0.000490003
0.000483141
0.000476876
0.000470653
0.000464892
0.000459764
0.00045447
0.000450012
0.000445491
0.000441565
0.000438028
0.000435015
0.000432133
0.000429999
0.000424958
0.000421383
0.000418946
0.000417012
0.000415021
0.000413172
0.000411473
0.000409922
0.000408517
0.000407243
0.000406096
0.000405075
0.000404169
0.000403178
0.000402501
0.000401999
0.000401367
0.000400999
0.000400713
0.000400323
0.00039996
0.000399681
0.000399254
0.000398962
0.000398382
0.000397987
0.00039738
0.000397048
0.000396005
0.000395177
0.000394357
0.000392832
0.000391178
0.000389493
0.000387276
0.000384284
0.000380871
0.000375889
0.000371876
2.62675e-05
0.000848415
0.00108547
0.00143669
0.00156646
0.00159618
0.00150393
0.00143255
0.00136188
0.00128922
0.00121666
0.00114774
0.00107251
0.00101314
0.000943568
0.000899858
0.000857098
0.000832017
0.000809928
0.000789861
0.000773767
0.000756071
0.000742083
0.000727092
0.000713939
0.000701505
0.000689263
0.000678693
0.000667473
0.000657854
0.000648073
0.000639109
0.000630495
0.000622379
0.000614913
0.000607727
0.000601249
0.000595143
0.000589627
0.00058467
0.000580252
0.000576319
0.000573324
0.000565753
0.000560242
0.000556841
0.00055386
0.000551014
0.000548371
0.000545943
0.000543723
0.000541708
0.000539875
0.000538221
0.000536738
0.000535418
0.000534157
0.000533145
0.000532217
0.00053143
0.000530695
0.000530209
0.000529619
0.000529211
0.000528645
0.00052816
0.000527585
0.000526917
0.000526349
0.000525393
0.000524888
0.000523679
0.000522439
0.000521335
0.000519518
0.000517386
0.000515081
0.000512362
0.000508593
0.000504223
0.000498041
0.00049152
3.15922e-05
0.00118355
0.00144462
0.0019639
0.00214307
0.00216197
0.00203608
0.00193278
0.00183399
0.00173497
0.00163715
0.00154392
0.0014453
0.00136427
0.00127396
0.00121166
0.00115174
0.00111323
0.0010801
0.00105071
0.00102636
0.00100118
0.000980463
0.000959259
0.000940472
0.000922853
0.000905789
0.000890776
0.000875443
0.000861961
0.000848586
0.000836294
0.000824609
0.000813604
0.000803401
0.000793776
0.000784952
0.000776795
0.00076935
0.000762673
0.000756658
0.000751365
0.000747375
0.000736859
0.000728857
0.000724071
0.000719898
0.000716
0.000712381
0.00070906
0.000706021
0.000703261
0.000700745
0.000698472
0.000696426
0.000694602
0.000692911
0.000691494
0.00069015
0.000689077
0.000687999
0.000687268
0.000686441
0.000685888
0.000685085
0.00068445
0.000683642
0.000682794
0.000682037
0.000680777
0.000680078
0.00067862
0.000677001
0.000675587
0.000673386
0.000670729
0.000667818
0.000664479
0.00065988
0.000654444
0.000647177
0.00063705
3.79527e-05
0.00163122
0.0018821
0.00257875
0.00281282
0.00281658
0.00265351
0.00251555
0.00238694
0.00226012
0.00213551
0.00201618
0.00189227
0.00178742
0.0016743
0.00159119
0.00151171
0.00145694
0.00141016
0.00136914
0.00133449
0.00129998
0.00127093
0.00124197
0.00121622
0.00119213
0.00116914
0.00114863
0.00112817
0.00110996
0.00109216
0.00107577
0.00106026
0.0010457
0.00103218
0.00101952
0.00100786
0.000997151
0.000987347
0.00097856
0.000970633
0.000963643
0.000958463
0.00094462
0.00093348
0.000926841
0.000921214
0.00091602
0.000911202
0.000906787
0.000902744
0.000899072
0.000895723
0.000892694
0.000889962
0.000887523
0.000885277
0.000883364
0.000881553
0.000880098
0.000878644
0.000877613
0.000876505
0.000875751
0.000874713
0.000873878
0.000872844
0.000871769
0.000870806
0.000869247
0.000868331
0.000866591
0.00086459
0.000862839
0.000860213
0.000856994
0.000853455
0.000849428
0.00084396
0.000837352
0.000829154
0.000814129
4.55329e-05
0.0022123
0.0024254
0.00329411
0.00358797
0.00357284
0.00336884
0.00319374
0.00303386
0.00287808
0.00272535
0.0025783
0.00242725
0.00229648
0.00215833
0.00205207
0.00195054
0.0018765
0.00181313
0.00175774
0.00171036
0.00166428
0.0016249
0.00158632
0.00155193
0.00151983
0.00148949
0.0014622
0.00143538
0.00141135
0.00138808
0.00136663
0.00134641
0.00132747
0.00130988
0.00129347
0.00127833
0.00126446
0.00125176
0.00124037
0.0012301
0.001221
0.00121437
0.00119685
0.00118184
0.00117277
0.00116532
0.00115852
0.00115223
0.00114647
0.0011412
0.00113641
0.00113204
0.00112809
0.00112452
0.00112133
0.0011184
0.00111588
0.00111352
0.00111159
0.00110969
0.00110829
0.00110685
0.00110585
0.00110456
0.00110349
0.00110222
0.00110089
0.00109971
0.00109784
0.00109669
0.00109466
0.00109227
0.00109016
0.00108709
0.00108329
0.0010791
0.00107434
0.00106799
0.00106012
0.00105123
0.00102983
5.45411e-05
0.00295853
0.00311287
0.00412766
0.00448535
0.00444726
0.00419807
0.00398332
0.00379091
0.00360524
0.00342326
0.00324704
0.00306705
0.00290831
0.00274283
0.00261096
0.0024847
0.00238824
0.002305
0.00223206
0.00216908
0.00210868
0.00205654
0.00200606
0.00196095
0.00191893
0.00187945
0.00184378
0.00180909
0.00177785
0.00174782
0.00172012
0.00169407
0.00166972
0.00164711
0.00162606
0.00160664
0.00158885
0.00157257
0.00155795
0.00154479
0.00153307
0.00152462
0.00150313
0.00148342
0.0014712
0.00146145
0.00145265
0.00144454
0.00143713
0.00143034
0.00142418
0.00141856
0.00141348
0.00140888
0.00140478
0.00140101
0.00139776
0.00139472
0.00139221
0.00138978
0.00138794
0.0013861
0.0013848
0.00138323
0.0013819
0.00138038
0.00137878
0.00137736
0.00137519
0.00137378
0.00137147
0.00136868
0.00136621
0.00136271
0.00135832
0.00135347
0.00134797
0.00134076
0.00133154
0.00132232
0.00129303
6.52103e-05
0.00391055
0.00398114
0.00510137
0.00552565
0.0054596
0.00516032
0.00490336
0.00467733
0.00446109
0.00424903
0.00404243
0.00383186
0.00364319
0.00344802
0.00328798
0.00313415
0.00301198
0.0029053
0.00281117
0.00272919
0.00265121
0.00258332
0.00251814
0.00245972
0.00240543
0.00235462
0.00230856
0.0022641
0.00222392
0.00218552
0.00215007
0.0021168
0.00208575
0.00205693
0.00203012
0.00200541
0.00198275
0.00196203
0.00194339
0.00192662
0.00191162
0.00190087
0.00187515
0.00184985
0.00183358
0.00182088
0.00180959
0.00179924
0.00178978
0.00178113
0.00177328
0.00176612
0.00175965
0.0017538
0.00174856
0.00174378
0.00173962
0.00173577
0.00173254
0.00172949
0.00172708
0.00172477
0.00172311
0.00172123
0.00171961
0.00171783
0.00171595
0.0017143
0.00171182
0.00171015
0.00170759
0.00170442
0.00170159
0.0016977
0.00169275
0.00168726
0.00168102
0.00167303
0.00166243
0.00165338
0.00161493
7.77955e-05
0.00511859
0.00506651
0.00624159
0.00673367
0.00663307
0.00627808
0.00597625
0.00571575
0.00546869
0.00522613
0.0049883
0.00474577
0.0045254
0.0042982
0.00410735
0.00392294
0.00377158
0.00363763
0.00351827
0.00341338
0.00331397
0.00322673
0.00314348
0.00306857
0.00299909
0.00293418
0.00287524
0.00281866
0.00276737
0.00271857
0.0026735
0.00263127
0.0025919
0.00255537
0.00252141
0.00249011
0.00246139
0.00243515
0.00241147
0.00239021
0.00237109
0.00235738
0.00232717
0.00229536
0.00227394
0.00225747
0.00224305
0.0022299
0.00221791
0.00220695
0.00219702
0.00218797
0.00217978
0.00217238
0.00216576
0.00215973
0.00215445
0.00214962
0.00214551
0.00214169
0.00213861
0.00213572
0.00213362
0.0021314
0.00212946
0.00212741
0.00212524
0.00212336
0.00212061
0.00211868
0.00211591
0.00211242
0.00210925
0.00210503
0.0020996
0.00209353
0.00208662
0.002078
0.00206601
0.00205774
0.00200981
9.25695e-05
0.00664399
0.00641667
0.00757946
0.00813868
0.00799476
0.00757751
0.00722814
0.00693271
0.00665513
0.00638223
0.00611286
0.00583737
0.00558383
0.00532235
0.00509803
0.00487985
0.00469569
0.00453042
0.00438139
0.00424921
0.00412392
0.0040131
0.00390772
0.00381243
0.0037242
0.0036418
0.00356688
0.00349525
0.00343013
0.00336842
0.00331136
0.003258
0.00320825
0.00316213
0.00311925
0.00307975
0.00304345
0.00301032
0.00298033
0.00295341
0.0029291
0.00291155
0.00287658
0.00283734
0.00280946
0.00278817
0.00276979
0.00275315
0.00273802
0.0027242
0.00271169
0.00270029
0.00268999
0.00268067
0.00267234
0.00266477
0.00265813
0.00265209
0.00264689
0.00264214
0.00263822
0.00263464
0.00263199
0.00262939
0.0026271
0.00262477
0.00262233
0.00262022
0.00261726
0.00261508
0.00261218
0.00260844
0.002605
0.00260057
0.00259478
0.00258825
0.00258079
0.00257175
0.00255846
0.0025517
0.00249578
0.000109814
0.00856104
0.00809341
0.00915231
0.00977298
0.00957551
0.00908857
0.00868904
0.0083588
0.00805186
0.00774962
0.00744914
0.00714029
0.00685254
0.00655473
0.00629432
0.00603911
0.00581836
0.00561754
0.00543412
0.00526983
0.00511369
0.00497437
0.0048421
0.00472183
0.00461052
0.00450647
0.00441175
0.00432147
0.00423914
0.00416137
0.00408938
0.00402215
0.00395947
0.00390139
0.00384737
0.00379763
0.00375183
0.00371006
0.00367213
0.0036381
0.00360722
0.00358465
0.00354457
0.00349699
0.00346117
0.00343372
0.00341034
0.00338932
0.00337026
0.00335289
0.00333717
0.00332286
0.00330993
0.00329825
0.00328779
0.00327833
0.00326998
0.00326245
0.00325591
0.00325002
0.00324508
0.00324065
0.00323733
0.00323427
0.0032316
0.00322898
0.00322628
0.00322399
0.00322088
0.00321851
0.00321558
0.00321172
0.00320812
0.00320363
0.00319768
0.0031909
0.00318307
0.00317395
0.00315951
0.00315503
0.0030954
0.000129808
0.0109592
0.0101739
0.0110061
0.0116621
0.0114034
0.0108408
0.0103897
0.0100266
0.00969342
0.00936449
0.00903464
0.00869303
0.00837076
0.00803504
0.00773618
0.00744071
0.00717955
0.00693885
0.00671614
0.00651465
0.00632224
0.00614894
0.00598436
0.00583371
0.00569419
0.00556354
0.00544437
0.00533103
0.00522734
0.00512962
0.00503905
0.00495454
0.00487574
0.00480273
0.00473479
0.00467222
0.00461453
0.00456189
0.00451396
0.00447093
0.00443175
0.00440256
0.00435688
0.00430012
0.0042547
0.00421947
0.00418974
0.00416322
0.00413926
0.00411744
0.00409772
0.00407978
0.00406358
0.00404895
0.00403585
0.00402404
0.00401357
0.0040042
0.00399601
0.00398872
0.00398251
0.00397702
0.00397286
0.00396926
0.00396615
0.00396325
0.00396032
0.00395788
0.00395472
0.00395224
0.00394941
0.00394563
0.00394204
0.00393771
0.00393186
0.00392514
0.00391722
0.00390844
0.00389313
0.00389171
0.00383465
0.000334484
0.0139456
0.0127531
0.0131985
0.0138113
0.0134754
0.0128386
0.0123418
0.0119568
0.0116081
0.0112608
0.0109073
0.0105362
0.0101811
0.00980724
0.00946841
0.00913001
0.00882491
0.0085402
0.00827339
0.00802955
0.00779527
0.0075821
0.00737927
0.00719217
0.00701856
0.00685551
0.00670638
0.00656473
0.00643465
0.00631226
0.00619862
0.00609265
0.00599376
0.00590214
0.00581681
0.00573821
0.00566559
0.0055993
0.00553877
0.00548435
0.00543464
0.00539676
0.00534467
0.00527796
0.0052212
0.00517625
0.00513847
0.00510503
0.00507491
0.00504755
0.00502282
0.00500037
0.00498008
0.00496177
0.00494537
0.00493063
0.00491753
0.00490587
0.00489562
0.00488658
0.0048788
0.00487201
0.00486678
0.0048625
0.00485888
0.00485568
0.00485255
0.00485002
0.00484695
0.00484448
0.00484192
0.00483845
0.00483511
0.00483123
0.00482586
0.00481958
0.00481195
0.00480409
0.00478829
0.00479068
0.0047416
0.000807851
0.0176487
0.0159456
0.0158011
0.0162157
0.0157506
0.0150395
0.0145116
0.0141286
0.0137917
0.0134498
0.0130903
0.0127022
0.012322
0.0119142
0.0115368
0.011155
0.0108038
0.0104719
0.0101569
0.0098661
0.00958468
0.00932578
0.00907859
0.00884862
0.00863447
0.00843253
0.00824717
0.00807112
0.00790876
0.00775608
0.00761401
0.00748151
0.00735774
0.00724299
0.00713602
0.0070374
0.00694612
0.00686269
0.00678631
0.0067175
0.00665447
0.00660521
0.00654544
0.00646805
0.0063982
0.0063413
0.00629342
0.00625126
0.00621343
0.00617913
0.00614814
0.00612003
0.00609464
0.00607173
0.0060512
0.00603279
0.0060164
0.00600187
0.00598905
0.00597784
0.00596813
0.00595969
0.00595311
0.00594795
0.00594369
0.00594015
0.00593686
0.00593431
0.00593147
0.00592916
0.00592709
0.00592423
0.00592144
0.00591837
0.00591392
0.0059086
0.00590176
0.00589548
0.00587969
0.00588668
0.00584353
0.00284737
0.0222228
0.0198888
0.0188993
0.0188775
0.0181919
0.0173939
0.0168469
0.0164901
0.0161981
0.0158985
0.0155682
0.0151924
0.0148096
0.0143838
0.0139777
0.0135581
0.0131629
0.0127841
0.0124191
0.0120786
0.0117461
0.0114366
0.0111396
0.0108606
0.0105995
0.0103519
0.0101236
0.00990646
0.00970523
0.00951588
0.00933919
0.00917424
0.00901992
0.00887668
0.00874297
0.00861954
0.00850505
0.00840024
0.00830399
0.00821706
0.00813726
0.0080732
0.00800384
0.00791499
0.00783039
0.00775913
0.00769871
0.00764565
0.00759818
0.00755521
0.00751639
0.00748122
0.00744944
0.00742079
0.00739509
0.00737209
0.00735158
0.00733347
0.00731743
0.0073035
0.00729136
0.00728087
0.00727254
0.00726621
0.00726114
0.00725717
0.00725373
0.00725121
0.00724876
0.0072468
0.00724545
0.00724355
0.00724169
0.00723985
0.00723685
0.00723309
0.00722761
0.00722366
0.00720844
0.00722088
0.00718351
0.00452149
0.027855
0.0247433
0.0225879
0.0218098
0.0207782
0.0198672
0.0193066
0.018993
0.0187724
0.0185493
0.0182875
0.0179651
0.0176181
0.0172073
0.0167979
0.0163593
0.0159327
0.0155148
0.0151043
0.0147161
0.0143325
0.0139705
0.0136204
0.013288
0.0129746
0.0126754
0.0123978
0.012133
0.0118862
0.0116534
0.0114354
0.0112315
0.0110403
0.0108625
0.0106962
0.0105423
0.0103993
0.0102681
0.0101472
0.0100377
0.0099369
0.00985388
0.00977217
0.00967089
0.00957005
0.009482
0.0094063
0.00933977
0.00928031
0.00922658
0.00917804
0.00913408
0.00909435
0.00905855
0.00902638
0.00899766
0.00897198
0.00894938
0.00892933
0.00891198
0.00889683
0.00888375
0.00887317
0.00886526
0.0088591
0.00885454
0.00885088
0.00884842
0.0088465
0.00884509
0.0088447
0.00884412
0.0088436
0.00884346
0.00884247
0.00884093
0.00883744
0.0088366
0.00882249
0.00884126
0.00880438
0.00652728
0.0347655
0.030691
0.0269523
0.0250292
0.0234976
0.0224355
0.0218614
0.0216016
0.0214697
0.0213478
0.0211861
0.0209554
0.0206862
0.0203329
0.0199599
0.0195371
0.0191071
0.0186719
0.0182319
0.0178077
0.0173812
0.0169714
0.0165705
0.0161846
0.0158171
0.015463
0.0151317
0.0148142
0.014516
0.0142338
0.0139682
0.0137189
0.0134844
0.0132656
0.0130605
0.0128702
0.0126928
0.0125294
0.0123785
0.0122412
0.0121147
0.0120078
0.0119101
0.011795
0.0116767
0.0115696
0.0114758
0.0113929
0.0113188
0.0112519
0.0111913
0.0111366
0.011087
0.0110424
0.0110022
0.0109663
0.0109343
0.0109061
0.010881
0.0108594
0.0108405
0.0108242
0.0108107
0.0108007
0.010793
0.0107876
0.0107835
0.0107811
0.0107798
0.0107791
0.0107799
0.0107809
0.0107822
0.0107842
0.0107857
0.010787
0.0107861
0.0107891
0.0107764
0.0108023
0.0107585
0.00888654
0.0429838
0.0379037
0.0320216
0.0285401
0.0263373
0.0250756
0.0244851
0.0242865
0.024255
0.0242503
0.0242104
0.0241
0.0239434
0.0236869
0.0233922
0.0230275
0.0226345
0.0222176
0.0217786
0.0213441
0.0208953
0.0204536
0.020014
0.019583
0.0191669
0.0187605
0.0183763
0.0180051
0.0176531
0.0173179
0.0170003
0.0167007
0.0164176
0.0161523
0.0159026
0.01567
0.0154525
0.0152514
0.0150649
0.0148943
0.0147368
0.0146008
0.0144826
0.014352
0.0142151
0.0140872
0.0139727
0.0138706
0.013779
0.0136962
0.0136212
0.0135533
0.0134918
0.0134364
0.0133864
0.0133419
0.0133019
0.0132668
0.0132356
0.0132087
0.0131852
0.0131649
0.0131478
0.0131349
0.0131251
0.0131184
0.0131137
0.0131111
0.0131103
0.0131104
0.0131125
0.0131155
0.0131188
0.0131233
0.0131278
0.0131324
0.0131345
0.0131416
0.0131304
0.0131638
0.0131052
0.0116417
0.0520034
0.046272
0.0377011
0.0323041
0.0292681
0.0277553
0.0271459
0.0270157
0.0270939
0.0272173
0.0273138
0.0273443
0.0273255
0.0271961
0.0270149
0.0267471
0.0264329
0.0260754
0.0256772
0.0252691
0.0248309
0.0243862
0.0239325
0.0234771
0.0230286
0.0225827
0.0221549
0.0217365
0.021335
0.0209489
0.0205797
0.0202289
0.0198951
0.0195804
0.0192826
0.0190038
0.0187418
0.0184982
0.0182713
0.0180627
0.0178693
0.0176991
0.0175557
0.0174073
0.0172513
0.0171016
0.0169646
0.0168408
0.0167291
0.0166278
0.0165359
0.0164526
0.016377
0.0163088
0.0162471
0.0161921
0.0161428
0.0160994
0.0160607
0.0160274
0.0159983
0.0159732
0.0159516
0.0159351
0.0159224
0.0159137
0.0159079
0.0159048
0.0159044
0.0159052
0.0159086
0.0159135
0.0159189
0.0159261
0.0159337
0.0159419
0.015947
0.0159582
0.0159478
0.0159881
0.0159082
0.0148293
0.0613814
0.0552643
0.0437193
0.0361838
0.0322193
0.030422
0.0298
0.0297474
0.0299441
0.0302037
0.0304467
0.0306342
0.0307722
0.0307925
0.0307513
0.0306117
0.0304125
0.0301523
0.0298347
0.029493
0.0291043
0.0286934
0.0282602
0.0278118
0.0273589
0.0268977
0.026447
0.0259986
0.0255614
0.0251353
0.024723
0.0243271
0.0239467
0.023585
0.0232403
0.0229152
0.0226078
0.0223201
0.0220506
0.0218009
0.0215686
0.0213608
0.0211882
0.0210198
0.0208445
0.0206734
0.0205134
0.0203668
0.0202332
0.0201115
0.0200007
0.0199001
0.0198084
0.0197257
0.0196507
0.0195837
0.0195234
0.0194704
0.0194232
0.0193825
0.0193469
0.019316
0.0192891
0.0192681
0.0192517
0.0192404
0.0192328
0.0192287
0.0192283
0.0192294
0.0192339
0.0192405
0.019248
0.0192577
0.0192682
0.0192796
0.0192872
0.0193017
0.0192907
0.0193363
0.0192304
0.0184749
0.0708196
0.0643632
0.0495327
0.0398313
0.0350294
0.0329843
0.0323861
0.0324264
0.0327513
0.0331517
0.0335476
0.0339057
0.0342155
0.034403
0.034523
0.034537
0.0344831
0.0343519
0.0341506
0.0339122
0.0336104
0.0332712
0.0328963
0.0324923
0.0320699
0.0316264
0.0311832
0.0307319
0.030283
0.0298381
0.0294008
0.028975
0.0285609
0.0281628
0.0277795
0.0274147
0.0270667
0.0267385
0.0264286
0.0261393
0.0258686
0.0256229
0.0254194
0.0252302
0.0250365
0.0248459
0.0246646
0.0244959
0.0243406
0.0241983
0.0240678
0.023949
0.0238405
0.0237423
0.0236529
0.0235731
0.023501
0.0234375
0.0233809
0.023332
0.0232893
0.0232523
0.0232194
0.0231933
0.0231725
0.0231577
0.0231477
0.023142
0.0231411
0.0231421
0.0231472
0.0231551
0.0231642
0.0231759
0.0231887
0.0232024
0.0232114
0.0232277
0.0232137
0.0232615
0.0231274
0.0226001
0.0800381
0.0729336
0.0551157
0.0431125
0.0376826
0.0354871
0.0349266
0.0350358
0.0354527
0.0359912
0.0365404
0.0370805
0.037572
0.037939
0.038237
0.0384264
0.0385449
0.0385696
0.0385167
0.0384154
0.0382343
0.0380019
0.0377222
0.0373996
0.0370441
0.036655
0.0362544
0.0358336
0.0354046
0.0349699
0.0345344
0.034103
0.0336768
0.0332614
0.0328563
0.0324664
0.0320905
0.0317324
0.0313912
0.0310697
0.0307665
0.0304877
0.0302561
0.0300477
0.0298385
0.0296323
0.029434
0.0292471
0.0290729
0.0289121
0.0287636
0.0286279
0.0285033
0.0283902
0.028287
0.0281946
0.0281109
0.0280372
0.0279713
0.0279143
0.0278647
0.0278217
0.027783
0.0277517
0.0277262
0.0277077
0.0276948
0.027687
0.0276852
0.0276856
0.0276909
0.0276996
0.0277096
0.0277225
0.0277366
0.0277515
0.0277604
0.0277763
0.0277566
0.0278021
0.02764
0.0272314
0.0886927
0.0804803
0.0615904
0.0473392
0.0408425
0.0384296
0.0378202
0.0379036
0.0383146
0.0388874
0.0395021
0.0401394
0.0407486
0.0412944
0.041781
0.0421629
0.0424777
0.0426799
0.0428065
0.042874
0.042844
0.0427512
0.0426023
0.0423969
0.0421437
0.0418458
0.0415245
0.0411697
0.0407953
0.0404045
0.040003
0.0395963
0.0391865
0.0387802
0.0383778
0.0379849
0.0376013
0.0372314
0.0368751
0.0365357
0.0362129
0.0359123
0.0356608
0.0354389
0.0352197
0.0350046
0.0347964
0.0345983
0.0344116
0.0342377
0.034076
0.0339273
0.0337901
0.0336653
0.033551
0.0334483
0.0333551
0.033273
0.0331995
0.0331361
0.0330808
0.0330332
0.0329899
0.0329544
0.032925
0.0329033
0.0328879
0.0328783
0.0328755
0.0328754
0.0328807
0.0328899
0.0329005
0.032914
0.0329285
0.0329434
0.0329508
0.0329641
0.0329365
0.0329747
0.0327877
0.0324034
0.0963432
0.0870049
0.0691035
0.0540441
0.0462184
0.0430697
0.0419525
0.0417108
0.0418906
0.0423044
0.0428285
0.0434165
0.0440221
0.0446147
0.0451858
0.0456744
0.0461475
0.0465327
0.0468698
0.0471338
0.0472792
0.047357
0.0473752
0.0473207
0.0472035
0.0470349
0.0468298
0.0465771
0.0462935
0.0459828
0.0456505
0.0453024
0.0449419
0.0445762
0.0442062
0.0438385
0.0434734
0.0431164
0.0427678
0.0424316
0.0421084
0.0418035
0.0415462
0.0413214
0.0411018
0.0408873
0.0406792
0.0404799
0.0402903
0.0401123
0.0399455
0.0397913
0.0396482
0.0395177
0.0393977
0.0392898
0.0391917
0.0391053
0.039028
0.0389616
0.038904
0.0388546
0.0388096
0.0387726
0.0387416
0.0387187
0.0387025
0.0386924
0.0386899
0.0386901
0.0386963
0.0387066
0.0387181
0.0387325
0.0387475
0.038762
0.0387672
0.0387768
0.0387405
0.0387671
0.0385628
0.0381406
0.102521
0.0930721
0.0774107
0.0629719
0.0544544
0.0501769
0.0480403
0.0470797
0.0467414
0.0467624
0.0469989
0.0473509
0.0477945
0.0482704
0.0487841
0.0492602
0.0497547
0.0502046
0.0506374
0.051028
0.0513523
0.0516289
0.0518493
0.0519722
0.0520219
0.0520221
0.0519694
0.0518541
0.0516991
0.0515064
0.0512807
0.0510279
0.0507529
0.050463
0.0501594
0.0498496
0.0495345
0.0492201
0.0489074
0.0486011
0.0483027
0.0480171
0.0477738
0.0475614
0.0473549
0.0471539
0.0469588
0.0467711
0.0465913
0.0464214
0.0462609
0.0461119
0.045973
0.045846
0.0457288
0.0456236
0.0455279
0.0454441
0.0453693
0.0453058
0.0452512
0.0452053
0.0451635
0.0451296
0.0451014
0.0450813
0.0450678
0.0450605
0.0450611
0.0450644
0.0450737
0.0450873
0.0451017
0.0451187
0.0451357
0.0451512
0.0451557
0.0451622
0.0451194
0.045132
0.044923
0.0444342
0.107136
0.0992765
0.0861848
0.0731076
0.0641973
0.0587054
0.0554582
0.0536726
0.0527289
0.0522738
0.0521219
0.052131
0.0523006
0.0525373
0.0528658
0.0532071
0.0535905
0.0539791
0.0543798
0.0547777
0.0551517
0.0555113
0.0558352
0.0561282
0.0563678
0.0565779
0.056704
0.0567562
0.0567675
0.0567309
0.0566488
0.0565294
0.0563787
0.0562025
0.0560028
0.0557873
0.0555578
0.0553204
0.0550769
0.0548323
0.054589
0.0543517
0.0541471
0.0539673
0.0537923
0.0536215
0.0534553
0.053295
0.0531404
0.0529936
0.0528541
0.0527242
0.0526025
0.0524914
0.0523889
0.0522974
0.0522144
0.0521428
0.0520797
0.0520274
0.0519839
0.0519489
0.0519176
0.0518938
0.051875
0.051864
0.0518592
0.0518603
0.0518692
0.0518804
0.0518975
0.0519187
0.0519402
0.0519637
0.0519866
0.0520069
0.0520148
0.052022
0.0519788
0.0519784
0.0517816
0.0512274
0.111532
0.105432
0.0949646
0.0832971
0.073335
0.0665075
0.0625803
0.06032
0.0590058
0.0582196
0.05774
0.057447
0.0573546
0.0573435
0.0574428
0.0575838
0.0577811
0.0580202
0.0582903
0.0585917
0.0589016
0.0592293
0.0595524
0.0598819
0.0601959
0.0605023
0.0607817
0.0610176
0.0612296
0.0613777
0.0614681
0.0615166
0.0615274
0.0615019
0.0614435
0.0613605
0.0612545
0.0611315
0.0609937
0.0608468
0.0606936
0.0605385
0.0604021
0.0602797
0.0601585
0.060039
0.0599214
0.0598073
0.0596963
0.0595906
0.0594895
0.0593955
0.0593074
0.0592277
0.0591546
0.0590909
0.0590341
0.0589873
0.0589479
0.0589183
0.0588965
0.0588827
0.0588717
0.0588676
0.0588676
0.0588746
0.0588871
0.0589047
0.0589296
0.0589563
0.0589886
0.0590243
0.0590598
0.0590968
0.0591324
0.0591644
0.0591832
0.0591984
0.0591652
0.0591584
0.0589933
0.0584
0.116331
0.111627
0.103312
0.0932862
0.0837839
0.0761161
0.0703933
0.0669503
0.0650174
0.0638544
0.0631576
0.0627246
0.062504
0.062336
0.0622448
0.0621981
0.0622169
0.0622896
0.0623921
0.0625396
0.0627123
0.0629233
0.0631578
0.0634218
0.0637042
0.0640024
0.0643098
0.06461
0.064911
0.0651934
0.065456
0.0656951
0.0658916
0.0660401
0.0661515
0.0662334
0.0662844
0.0663101
0.0663137
0.0663005
0.0662734
0.0662364
0.0662004
0.0661627
0.0661213
0.0660771
0.066031
0.0659848
0.0659385
0.0658942
0.0658515
0.0658129
0.0657773
0.0657473
0.0657215
0.0657025
0.0656883
0.0656819
0.0656811
0.0656883
0.0657017
0.0657219
0.065744
0.0657719
0.0658027
0.0658393
0.0658803
0.0659256
0.0659771
0.0660298
0.0660873
0.0661475
0.0662071
0.0662676
0.0663261
0.0663803
0.0664214
0.0664565
0.066448
0.0664481
0.0663351
0.0657513
0.120468
0.11718
0.11086
0.102875
0.0947752
0.0875442
0.081445
0.0766584
0.0730267
0.0705939
0.0691925
0.0683034
0.067703
0.0672455
0.0669669
0.0667939
0.0667196
0.0666625
0.0666053
0.0665879
0.0665988
0.0666551
0.0667502
0.066886
0.0670589
0.0672624
0.067497
0.067752
0.0680319
0.0683256
0.0686326
0.0689444
0.0692552
0.0695542
0.0698398
0.0700971
0.0703162
0.0705073
0.0706745
0.0708204
0.0709469
0.0710575
0.0711497
0.0712216
0.0712838
0.071338
0.0713858
0.0714294
0.0714691
0.0715073
0.0715437
0.0715806
0.0716176
0.071657
0.0716975
0.0717418
0.0717884
0.0718399
0.0718946
0.0719548
0.0720191
0.0720884
0.0721583
0.0722325
0.0723083
0.0723885
0.0724717
0.0725581
0.0726494
0.0727411
0.0728369
0.0729345
0.0730312
0.0731284
0.0732233
0.0733137
0.0733923
0.0734633
0.0734985
0.0735267
0.0734865
0.0729778
0.123924
0.121716
0.117293
0.111471
0.104989
0.0985653
0.0928365
0.0880141
0.0840314
0.080787
0.0782245
0.0760637
0.0743625
0.0731113