/*--------------------------------*- C++ -*----------------------------------*\
| =========                 |                                                 |
| \\      /  F ield         | OpenFOAM: The Open Source CFD Toolbox           |
|  \\    /   O peration     | Version:  5.x                                   |
|   \\  /    A nd           | Web:      www.OpenFOAM.org                      |
|    \\/     M anipulation  |                                                 |
\*---------------------------------------------------------------------------*/
FoamFile
{
    version     2.0;
    format      ascii;
    class       volScalarField;
    location    "1200";
    object      p;
}
// * * * * * * * * * * * * * * * * * * * * * * * * * * * * * * * * * * * * * //

dimensions      [0 2 -2 0 0 0 0];

internalField   nonuniform List<scalar> 
41860
(
0.0455066
51783.3
29319.5
92077
103054
113649
122070
128898
134793
139828
144205
148055
151547
154650
157538
160103
162535
164778
166875
168861
170711
172487
174165
175780
177327
178817
180258
181646
183004
184317
185611
186865
188108
189316
190519
191692
192862
194008
195154
196277
197405
198502
199518
200409
201294
202141
202983
203805
204607
205408
206180
206959
207707
208466
209197
209938
210657
211382
212090
212800
213500
214192
214893
215625
216353
217110
217866
218654
219449
220274
221130
222008
222933
223902
224918
225996
227166
228414
229837
231278
233381
234364
376.505
51797
29307.3
92021.2
103040
113637
122060
128890
134787
139823
144200
148051
151544
154648
157535
160101
162533
164776
166874
168860
170709
172486
174164
175779
177327
178816
180257
181646
183003
184317
185611
186865
188107
189315
190519
191692
192862
194008
195153
196277
197405
198502
199518
200409
201294
202141
202983
203805
204607
205407
206179
206959
207707
208466
209197
209938
210656
211382
212090
212800
213500
214192
214893
215625
216353
217110
217866
218654
219449
220274
221130
222008
222933
223902
224918
225996
227165
228414
229837
231278
233381
234361
945.628
51821
29303
91952.5
103025
113622
122049
128881
134779
139816
144195
148046
151540
154644
157533
160098
162531
164775
166872
168858
170708
172485
174163
175778
177326
178815
180257
181645
183003
184316
185610
186864
188107
189315
190519
191692
192862
194008
195153
196276
197404
198502
199518
200409
201293
202141
202983
203805
204607
205407
206179
206959
207707
208466
209197
209938
210656
211382
212090
212800
213500
214192
214893
215625
216353
217110
217866
218654
219449
220274
221130
222008
222933
223902
224918
225996
227165
228414
229837
231278
233382
234358
1646.19
51857.2
29307.5
91880.2
103009
113608
122037
128872
134771
139810
144189
148042
151536
154641
157530
160096
162529
164773
166870
168857
170707
172484
174162
175777
177325
178815
180256
181645
183002
184316
185610
186864
188106
189315
190518
191691
192862
194007
195153
196276
197404
198502
199518
200409
201293
202141
202982
203805
204607
205407
206179
206959
207707
208465
209196
209938
210656
211382
212090
212799
213500
214192
214893
215625
216353
217109
217866
218654
219449
220274
221130
222007
222933
223902
224918
225996
227165
228413
229837
231278
233382
234355
2527.96
51911.3
29322.5
91797.9
102992
113592
122025
128861
134763
139803
144183
148037
151532
154637
157526
160093
162526
164771
166869
168855
170705
172482
174161
175776
177324
178814
180255
181644
183002
184315
185609
186863
188106
189314
190518
191691
192861
194007
195153
196276
197404
198501
199518
200409
201293
202141
202982
203804
204607
205407
206179
206958
207707
208465
209196
209938
210656
211382
212090
212799
213500
214192
214893
215625
216353
217109
217866
218654
219449
220274
221130
222007
222933
223902
224918
225996
227165
228413
229837
231278
233382
234351
3640.9
51989.7
29352.3
91700.3
102973
113573
122010
128849
134753
139794
144176
148031
151526
154633
157523
160090
162523
164768
166866
168853
170704
172481
174159
175775
177323
178813
180254
181643
183001
184315
185609
186863
188105
189314
190517
191691
192861
194007
195152
196276
197404
198501
199517
200408
201293
202141
202982
203804
204607
205407
206179
206958
207707
208465
209196
209938
210656
211382
212090
212799
213500
214192
214893
215625
216353
217109
217866
218654
219449
220274
221130
222007
222933
223902
224918
225996
227165
228413
229837
231278
233382
234346
5019.53
52098.2
29400.1
91583.6
102952
113551
121993
128835
134741
139784
144168
148024
151520
154628
157518
160086
162520
164765
166864
168851
170702
172479
174158
175774
177322
178812
180253
181642
183000
184314
185608
186862
188105
189313
190517
191690
192860
194006
195152
196275
197403
198501
199517
200408
201293
202140
202982
203804
204607
205407
206179
206958
207706
208465
209196
209938
210656
211382
212090
212799
213500
214192
214893
215625
216353
217109
217866
218654
219449
220274
221130
222007
222933
223902
224918
225996
227165
228413
229837
231278
233382
234341
6702.69
52244.2
29469.6
91443.8
102926
113526
121972
128818
134726
139773
144158
148015
151513
154621
157513
160081
162516
164762
166861
168848
170699
172477
174156
175772
177320
178810
180252
181641
182999
184313
185607
186861
188104
189312
190516
191690
192860
194006
195151
196275
197403
198500
199517
200408
201292
202140
202982
203804
204606
205406
206179
206958
207706
208465
209196
209938
210656
211382
212090
212799
213500
214192
214893
215625
216353
217109
217866
218653
219449
220274
221130
222007
222933
223902
224918
225996
227165
228413
229837
231277
233382
234334
8739.61
52436.7
29566
91275.9
102897
113495
121948
128798
134709
139758
144146
148005
151504
154614
157506
160076
162511
164757
166857
168845
170696
172474
174154
175770
177318
178809
180250
181640
182998
184312
185606
186860
188103
189312
190516
191689
192859
194005
195151
196274
197402
198500
199516
200407
201292
202140
202981
203803
204606
205406
206178
206958
207706
208465
209196
209938
210656
211382
212090
212799
213500
214191
214893
215625
216353
217109
217866
218653
219449
220274
221130
222007
222933
223902
224918
225996
227165
228413
229837
231277
233382
234327
11188.9
52687.3
29696.6
91074.7
102861
113459
121919
128774
134689
139742
144132
147993
151494
154605
157499
160070
162506
164753
166853
168841
170693
172471
174151
175768
177316
178807
180249
181638
182996
184311
185605
186859
188102
189311
190515
191688
192859
194005
195150
196274
197402
198500
199516
200407
201292
202139
202981
203803
204606
205406
206178
206957
207706
208464
209196
209937
210656
211381
212089
212799
213499
214191
214893
215625
216353
217109
217866
218653
219449
220274
221130
222007
222933
223902
224918
225996
227165
228413
229837
231277
233382
234318
14118
53011.1
29870.8
90833.7
102820
113416
121884
128745
134665
139722
144115
147979
151482
154595
157490
160062
162499
164747
166848
168837
170689
172468
174148
175765
177314
178805
180247
181636
182995
184309
185604
186858
188101
189310
190514
191687
192858
194004
195150
196273
197401
198499
199515
200407
201291
202139
202980
203803
204605
205406
206178
206957
207706
208464
209195
209937
210655
211381
212089
212799
213499
214191
214893
215625
216353
217109
217866
218653
219449
220274
221130
222007
222933
223902
224918
225996
227165
228413
229837
231277
233382
234308
17603.4
53427.3
30099.9
90545.7
102770
113366
121844
128712
134637
139698
144096
147962
151468
154583
157480
160053
162491
164740
166842
168832
170685
172464
174144
175762
177311
178802
180245
181634
182993
184308
185602
186857
188100
189309
190513
191686
192857
194003
195149
196273
197401
198498
199515
200406
201291
202139
202980
203802
204605
205405
206177
206957
207705
208464
209195
209937
210655
211381
212089
212799
213499
214191
214892
215624
216353
217109
217866
218653
219449
220274
221130
222007
222933
223902
224918
225995
227165
228413
229837
231277
233382
234296
21731
53960.8
30398.9
90202.4
102712
113306
121795
128672
134603
139670
144072
147943
151451
154568
157467
160042
162482
164732
166835
168826
170679
172459
174140
175758
177308
178799
180242
181632
182991
184306
185600
186855
188099
189307
190512
191685
192856
194002
195148
196272
197400
198498
199514
200405
201290
202138
202980
203802
204605
205405
206177
206957
207705
208464
209195
209937
210655
211381
212089
212798
213499
214191
214892
215624
216353
217109
217866
218653
219448
220274
221130
222007
222933
223902
224918
225995
227165
228413
229837
231277
233382
234282
26596.1
54643.9
30786.3
89794.4
102642
113236
121738
128624
134563
139637
144045
147919
151431
154551
157452
160030
162471
164723
166827
168818
170673
172454
174135
175754
177304
178796
180239
181629
182988
184304
185598
186853
188097
189306
190510
191684
192855
194001
195147
196271
197399
198497
199513
200405
201289
202137
202979
203801
204604
205404
206177
206956
207705
208463
209195
209936
210655
211380
212089
212798
213499
214191
214892
215624
216353
217109
217866
218653
219448
220273
221130
222007
222933
223902
224918
225995
227165
228413
229837
231276
233381
234266
32301.9
55519.1
31286.2
89311.3
102560
113154
121671
128568
134516
139598
144012
147891
151407
154531
157435
160015
162458
164712
166817
168810
170666
172447
174130
175749
177300
178792
180236
181626
182986
184301
185596
186851
188095
189304
190509
191683
192854
194000
195146
196270
197398
198496
199512
200404
201289
202137
202978
203801
204604
205404
206176
206956
207704
208463
209194
209936
210654
211380
212089
212798
213499
214191
214892
215624
216353
217109
217866
218653
219448
220274
221130
222007
222933
223902
224918
225996
227165
228413
229837
231276
233380
234249
38957.8
56641.3
31929.6
88741.8
102461
113058
121592
128503
134461
139552
143973
147859
151379
154508
157415
159998
162443
164699
166806
168800
170657
172440
174123
175743
177294
178787
180231
181623
182982
184298
185594
186849
188093
189302
190507
191681
192852
193999
195145
196269
197397
198495
199511
200403
201288
202136
202978
203800
204603
205403
206176
206955
207704
208462
209194
209936
210654
211380
212088
212798
213499
214191
214892
215624
216353
217109
217866
218653
219449
220274
221130
222007
222933
223902
224918
225996
227165
228413
229837
231276
233379
234229
46675.8
58082.6
32756.9
88073.9
102343
112946
121499
128425
134395
139498
143928
147821
151347
154480
157391
159978
162426
164684
166793
168789
170648
172431
174115
175736
177288
178782
180227
181618
182979
184295
185591
186846
188091
189300
190505
191679
192850
193997
195144
196268
197396
198494
199510
200402
201287
202135
202977
203800
204603
205403
206175
206955
207703
208462
209194
209935
210654
211380
212088
212798
213498
214191
214892
215624
216353
217109
217866
218653
219449
220274
221130
222007
222933
223902
224918
225996
227165
228413
229837
231275
233379
234207
55564.9
59936.8
33821.3
87296.5
102199
112815
121389
128334
134318
139434
143875
147776
151308
154447
157363
159954
162405
164666
166778
168775
170636
172421
174106
175729
177282
178776
180222
181614
182975
184291
185587
186843
188088
189298
190503
191677
192849
193996
195142
196266
197395
198493
199509
200401
201286
202134
202976
203799
204602
205402
206175
206954
207703
208462
209193
209935
210654
211379
212088
212797
213498
214191
214892
215624
216353
217109
217866
218653
219449
220274
221130
222008
222933
223902
224918
225996
227166
228413
229837
231275
233379
234182
65722.3
62324.9
35193.2
86401.2
102023
112664
121260
128227
134227
139359
143812
147723
151263
154409
157330
159926
162381
164645
166760
168760
170623
172409
174096
175720
177274
178769
180215
181608
182970
184287
185583
186840
188085
189295
190500
191675
192847
193994
195140
196265
197394
198492
199508
200400
201285
202134
202975
203798
204601
205401
206174
206954
207703
208461
209193
209935
210653
211379
212088
212797
213498
214191
214893
215624
216353
217109
217866
218654
219449
220274
221130
222008
222934
223903
224919
225996
227166
228414
229838
231275
233380
234159
77221.2
65401.7
36966
85386.7
101807
112490
121111
128102
134121
139272
143739
147661
151211
154365
157292
159894
162353
164621
166740
168742
170607
172396
174085
175709
177265
178762
180209
181602
182965
184282
185579
186836
188081
189292
190498
191673
192844
193992
195139
196263
197392
198491
199507
200399
201284
202133
202974
203797
204600
205401
206174
206953
207702
208461
209193
209934
210653
211379
212088
212797
213498
214191
214893
215625
216353
217109
217867
218654
219450
220275
221131
222009
222934
223903
224919
225997
227166
228414
229838
231274
233381
234141
90099.5
69361.2
39264.6
84264.1
101541
112294
120937
127956
133998
139170
143654
147590
151150
154313
157248
159856
162321
164594
166716
168722
170590
172381
174071
175698
177255
178753
180201
181595
182959
184277
185575
186832
188078
189289
190495
191670
192842
193990
195137
196262
197391
198490
199505
200397
201282
202132
202973
203796
204600
205400
206173
206952
207702
208460
209192
209934
210653
211379
212088
212797
213498
214192
214893
215625
216354
217110
217867
218654
219450
220275
221132
222009
222935
223904
224920
225998
227167
228415
229839
231274
233383
234129
104352
74442.9
42255.7
83066.2
101213
112074
120740
127789
133855
139052
143555
147507
151080
154254
157197
159813
162284
164562
166689
168698
170570
172363
174056
175685
177243
178743
180192
181588
182952
184271
185569
186828
188074
189286
190491
191668
192839
193988
195135
196260
197389
198489
199504
200396
201281
202131
202972
203796
204599
205399
206173
206952
207702
208460
209192
209934
210653
211379
212088
212797
213499
214192
214894
215626
216355
217111
217868
218655
219451
220276
221133
222010
222936
223905
224921
225999
227168
228416
229839
231274
233385
234125
119912
80934.9
46160.3
81862.6
100813
111836
120518
127598
133692
138916
143442
147413
150999
154186
157138
159764
162242
164526
166658
168672
170547
172344
174039
175670
177231
178732
180183
181580
182945
184265
185564
186823
188070
189282
190488
191665
192837
193986
195133
196258
197387
198488
199503
200395
201280
202130
202972
203795
204599
205399
206172
206951
207702
208460
209192
209934
210653
211379
212088
212798
213499
214193
214895
215627
216356
217112
217869
218656
219453
220277
221134
222012
222937
223906
224922
226000
227169
228417
229840
231273
233387
234131
136599
89163
51267.8
80782
100331
111584
120277
127385
133508
138763
143315
147305
150908
154110
157073
159709
162195
164485
166624
168642
170522
172322
174020
175654
177217
178720
180173
181571
182937
184258
185558
186819
188065
189279
190485
191662
192834
193984
195131
196257
197386
198487
199502
200394
201279
202129
202971
203794
204598
205398
206172
206951
207702
208460
209193
209934
210654
211379
212089
212798
213500
214195
214897
215628
216358
217113
217871
218658
219454
220279
221135
222013
222939
223908
224924
226002
227171
228418
229841
231273
233389
234145
154069
99454.9
57945.4
80048.3
99774.9
111329
120028
127155
133305
138594
143173
147187
150806
154025
157000
159648
162142
164441
166586
168610
170495
172299
174000
175637
177202
178708
180162
181562
182930
184252
185553
186814
188061
189275
190482
191660
192832
193982
195129
196256
197385
198487
199501
200393
201278
202129
202970
203794
204598
205398
206173
206951
207702
208460
209193
209934
210654
211380
212089
212799
213501
214196
214899
215630
216360
217115
217873
218660
219456
220281
221138
222016
222941
223910
224926
226004
227172
228419
229842
231272
233390
234166
171788
112068
66633.5
80027.8
99190.3
111091
119793
126919
133090
138412
143020
147058
150696
153933
156921
159582
162086
164393
166546
168575
170466
172274
173979
175620
177187
178695
180152
181553
182922
184246
185547
186810
188057
189273
190479
191658
192830
193981
195128
196255
197384
198487
199501
200393
201278
202129
202970
203794
204599
205399
206173
206952
207703
208460
209194
209935
210656
211381
212091
212801
213503
214199
214902
215633
216363
217118
217876
218663
219459
220284
221140
222019
222943
223913
224929
226006
227174
228421
229843
231270
233389
234190
189031
127062
77810.6
81277.3
98711.3
110902
119610
126699
132876
138227
142862
146926
150582
153837
156838
159514
162028
164344
166505
168540
170437
172250
173959
175603
177173
178683
180142
181545
182916
184240
185543
186807
188055
189271
190478
191657
192830
193981
195128
196255
197384
198488
199501
200394
201278
202130
202971
203795
204600
205400
206175
206953
207705
208462
209196
209936
210657
211382
212093
212803
213506
214202
214905
215636
216366
217121
217880
218666
219463
220288
221144
222022
222947
223916
224932
226009
227177
228423
229843
231268
233384
234218
204924
144129
91900.2
84565.4
98628.8
110822
119538
126542
132687
138054
142713
146798
150470
153744
156757
159447
161971
164296
166467
168507
170411
172228
173940
175588
177161
178674
180135
181539
182911
184237
185541
186805
188054
189271
190478
191658
192830
193982
195129
196257
197386
198490
199503
200396
201279
202132
202973
203797
204602
205401
206177
206955
207707
208464
209199
209938
210660
211385
212096
212806
213509
214206
214910
215640
216371
217125
217885
218670
219468
220292
221149
222027
222951
223920
224936
226012
227179
228424
229842
231265
233373
234247
218555
162433
109084
90837.8
99486.9
110978
119654
126516
132569
137921
142591
146692
150374
153664
156687
159390
161923
164256
166435
168481
170390
172211
173927
175578
177154
178669
180131
181537
182911
184238
185542
186808
188056
189274
190480
191662
192833
193986
195132
196261
197389
198494
199506
200399
201282
202136
202976
203801
204605
205405
206181
206958
207711
208467
209203
209942
210664
211388
212100
212810
213514
214212
214917
215646
216377
217131
217891
218676
219474
220298
221154
222033
222956
223925
224940
226016
227181
228425
229839
231259
233353
234277
229200
180613
129016
101048
102183
111661
120058
126720
132594
137873
142527
146631
150314
153612
156640
159353
161892
164231
166417
168467
170381
172206
173924
175577
177155
178672
180136
181542
182917
184245
185548
186815
188063
189282
190487
191669
192840
193993
195138
196267
197395
198502
199512
200405
201287
202141
202981
203806
204611
205410
206187
206962
207717
208472
209208
209947
210670
211393
212106
212816
213520
214220
214925
215654
216385
217139
217899
218683
219481
220305
221161
222039
222962
223931
224945
226020
227183
228425
229834
231251
233321
234303
236619
197117
150572
115768
107959
113504
120950
127282
132879
137988
142571
146651
150318
153612
156635
159352
161893
164234
166423
168474
170392
172218
173938
175591
177170
178688
180152
181559
182933
184261
185564
186831
188078
189297
190501
191683
192853
194005
195150
196279
197405
198513
199522
200415
201296
202150
202990
203814
204619
205417
206195
206970
207725
208479
209216
209954
210678
211401
212113
212823
213528
214229
214935
215663
216396
217148
217909
218693
219491
220314
221170
222048
222969
223937
224950
226023
227184
228423
229824
231238
233272
234318
241152
210664
171885
134630
118069
117621
122789
128397
133579
138395
142811
146810
150429
153699
156702
159410
161944
164280
166468
168516
170433
172258
173977
175629
177206
178723
180186
181592
182964
184291
185593
186859
188104
189322
190524
191706
192874
194026
195169
196297
197422
198531
199538
200430
201309
202164
203003
203827
204632
205429
206207
206981
207737
208489
209228
209964
210688
211411
212124
212834
213540
214242
214949
215676
216409
217161
217922
218705
219503
220325
221180
222058
222978
223944
224956
226026
227183
228418
229808
231217
233199
234314
243530
220706
190850
155930
133034
125417
126501
130464
134909
139266
143384
147206
150717
153922
156878
159559
162073
164394
166571
168610
170521
172339
174053
175701
177274
178787
180246
181649
183018
184343
185641
186904
188147
189363
190562
191741
192907
194057
195198
196325
197448
198556
199561
200452
201329
202184
203022
203845
204650
205446
206224
206996
207753
208505
209243
209978
210703
211425
212139
212849
213555
214259
214966
215693
216426
217177
217938
218719
219517
220339
221192
222069
222988
223952
224961
226028
227179
228407
229783
231184
233098
234277
244505
227582
205939
176901
151823
137844
133411
134309
137276
140841
144474
147983
151291
154365
157228
159848
162317
164605
166758
168776
170673
172478
174181
175820
177384
178891
180342
181740
183103
184422
185715
186974
188212
189424
190619
191795
192957
194105
195242
196367
197486
198594
199596
200484
201359
202214
203050
203872
204676
205470
206248
207019
207775
208526
209264
209999
210723
211444
212158
212868
213575
214280
214989
215714
216447
217197
217958
218738
219535
220356
221207
222083
222999
223960
224965
226026
227169
228389
229744
231133
232961
234191
244616
232054
216799
194850
171764
154332
144523
141134
141485
143577
146358
149340
152305
155147
157845
160351
162735
164959
167066
169047
170916
172697
174381
176002
177552
179046
180486
181874
183228
184539
185824
187077
188307
189514
190702
191873
193030
194173
195305
196426
197541
198646
199645
200531
201403
202255
203089
203909
204712
205505
206282
207051
207807
208555
209294
210026
210751
211471
212185
212895
213602
214308
215018
215742
216475
217223
217983
218762
219557
220376
221225
222098
223010
223967
224966
226020
227152
228358
229687
231056
232780
234040
244193
234784
224015
208437
189783
172485
159386
151764
148602
148295
149572
151615
153988
156437
158863
161175
163413
165528
167552
169468
171288
173028
174679
176272
177797
179272
180694
182067
183405
184705
185977
187220
188441
189638
190818
191982
193131
194267
195393
196509
197618
198719
199713
200595
201463
202313
203144
203961
204763
205552
206328
207095
207849
208596
209333
210064
210788
211507
212220
212930
213637
214344
215054
215777
216509
217256
218014
218791
219584
220400
221246
222115
223021
223972
224963
226006
227123
228310
229603
230941
232548
233808
243435
236290
228533
217758
203977
189327
175817
165585
159123
155867
154922
155415
156757
158520
160485
162476
164475
166412
168297
170107
171843
173516
175113
176661
178149
179592
180986
182335
183653
184933
186189
187416
188623
189808
190976
192129
193268
194395
195512
196621
197722
198817
199805
200682
201545
202391
203219
204032
204830
205617
206390
207154
207906
208650
209386
210115
210837
211554
212267
212976
213682
214390
215100
215821
216552
217296
218052
218826
219616
220428
221268
222132
223031
223972
224952
225981
227076
228237
229485
230778
232256
233484
242463
236945
231208
223703
213989
202838
191102
180517
172166
166390
163000
161449
161242
161885
163064
164510
166115
167761
169425
171064
172666
174231
175742
177219
178648
180041
181393
182706
183992
185245
186476
187682
188869
190036
191188
192326
193451
194566
195671
196769
197860
198946
199927
200797
201653
202494
203317
204125
204919
205702
206472
207231
207981
208722
209455
210181
210901
211616
212327
213034
213740
214447
215157
215876
216605
217346
218098
218868
219652
220459
221293
222148
223038
223966
224930
225938
227005
228130
229323
230555
231899
233064
241362
237022
232665
227303
220510
212496
203389
194152
185699
178690
173469
169951
167946
167093
167106
167687
168645
169817
171122
172490
173880
175277
176653
178018
179355
180672
181960
183219
184458
185670
186866
188040
189198
190340
191470
192586
193693
194790
195879
196963
198041
199115
200086
200948
201795
202628
203444
204247
205035
205812
206577
207332
208077
208814
209543
210266
210983
211695
212403
213108
213813
214518
215227
215943
216668
217404
218152
218916
219694
220493
221317
222161
223037
223948
224890
225871
226902
227981
229109
230264
231472
232551
240193
236718
233325
229370
224535
218863
212214
204986
197685
190844
184943
180193
176700
174348
173000
172445
172475
172925
173670
174608
175665
176800
177968
179163
180361
181562
182753
183930
185099
186251
187394
188522
189640
190746
191843
192931
194012
195085
196153
197217
198276
199334
200291
201142
201979
202802
203609
204403
205184
205954
206712
207461
208200
208932
209656
210374
211086
211794
212499
213201
213902
214605
215310
216023
216742
217473
218214
218970
219739
220527
221339
222168
223026
223914
224829
225775
226762
227784
228836
229902
230978
231956
239007
236179
233474
230461
226916
222849
218083
212742
207027
201225
195697
190704
186480
183103
180595
178902
177878
177419
177399
177716
178276
179011
179862
180800
181788
182815
183862
184918
185984
187048
188114
189176
190236
191291
192342
193390
194433
195474
196512
197549
198584
199619
200558
201394
202216
203026
203822
204605
205375
206135
206885
207625
208357
209081
209798
210510
211216
211918
212617
213314
214011
214709
215410
216116
216829
217552
218284
219029
219786
220561
221356
222165
222999
223860
224739
225643
226577
227533
228502
229472
230423
231293
237851
235518
233316
230953
228270
225273
221821
217939
213679
209153
204554
200067
195898
192194
189059
186567
184657
183318
182468
182046
181967
182161
182563
183127
183808
184579
185414
186292
187207
188143
189099
190066
191042
192024
193012
194002
194994
195989
196986
197985
198986
199991
200905
201720
202524
203316
204095
204863
205620
206367
207105
207834
208555
209269
209978
210680
211378
212072
212764
213454
214143
214834
215527
216225
216929
217641
218361
219092
219833
220589
221363
222148
222953
223777
224616
225469
226342
227226
228108
228979
229817
230582
236776
234821
232993
231086
228984
226696
224120
221254
218100
214684
211090
207413
203780
200318
197131
194344
191950
190009
188496
187403
186682
186284
186161
186262
186546
186976
187521
188155
188860
189618
190420
191254
192115
192996
193894
194806
195729
196661
197602
198551
199506
200470
201350
202138
202917
203685
204444
205192
205930
206660
207382
208096
208803
209504
210200
210890
211577
212260
212941
213621
214300
214981
215663
216349
217040
217738
218442
219155
219876
220610
221357
222111
222881
223664
224454
225252
226060
226868
227664
228442
229181
229855
235824
234153
232597
231009
229299
227476
225469
223272
220872
218269
215492
212582
209601
206635
203750
201069
198598
196425
194558
193029
191831
190940
190338
189986
189855
189911
190125
190469
190921
191458
192068
192735
193450
194203
194988
195800
196635
197489
198359
199244
200142
201053
201891
202645
203392
204131
204863
205586
206302
207010
207712
208408
209098
209782
210462
211137
211809
212479
213146
213812
214478
215145
215813
216484
217159
217839
218524
219216
219913
220619
221336
222057
222787
223527
224266
225008
225750
226487
227206
227901
228559
229159
235003
233547
232195
230836
229400
227896
226270
224518
222627
220588
218409
216104
213700
211247
208779
206392
204088
201952
200003
198289
196828
195618
194668
193953
193463
193175
193067
193117
193300
193599
193994
194472
195018
195622
196276
196970
197700
198460
199246
200056
200885
201734
202521
203235
203944
204649
205348
206042
206730
207414
208092
208765
209434
210098
210759
211417
212071
212724
213375
214024
214674
215324
215975
216628
217284
217943
218606
219274
219944
220621
221306
221990
222680
223374
224065
224751
225434
226106
226757
227383
227974
228516
234294
233008
231815
230630
229396
228121
226764
225323
223786
222144
220396
218546
216601
214593
212532
210487
208453
206498
204640
202926
201385
200026
198873
197917
197163
196599
196216
195998
195928
195990
196167
196444
196810
197251
197757
198319
198930
199583
200272
200995
201745
202522
203250
203915
204580
205245
205907
206566
207222
207876
208526
209173
209817
210458
211097
211733
212367
212999
213630
214260
214890
215520
216151
216783
217417
218053
218690
219332
219973
220619
221269
221916
222565
223215
223857
224491
225119
225733
226325
226893
227429
227923
233681
232533
231468
230420
229341
228239
227082
225868
224587
223231
221797
220286
218695
217044
215333
213609
211862
210141
208460
206856
205359
203981
202754
201675
200760
200008
199419
198987
198700
198550
198523
198608
198792
199066
199418
199840
200322
200857
201440
202064
202726
203421
204082
204692
205307
205924
206543
207163
207782
208401
209019
209636
210252
210865
211478
212089
212699
213307
213915
214523
215130
215737
216345
216953
217562
218172
218782
219394
220004
220617
221231
221840
222448
223054
223650
224236
224813
225375
225916
226434
226923
227377
233149
232116
231157
230220
229265
228298
227294
226251
225163
224020
222821
221564
220244
218874
217448
215999
214514
213029
211551
210109
208726
207414
206203
205096
204113
203258
202538
201956
201506
201184
200984
200897
200915
201029
201230
201510
201859
202272
202742
203262
203827
204433
205020
205569
206127
206692
207262
207837
208415
208995
209576
210158
210741
211324
211906
212489
213071
213653
214234
214816
215397
215978
216559
217141
217722
218303
218884
219465
220043
220621
221198
221769
222337
222900
223452
223993
224524
225040
225535
226010
226460
226878
232686
231750
230882
230036
229183
228325
227443
226534
225594
224616
223596
222533
221422
220271
219073
217851
216592
215320
214040
212770
211531
210329
209191
208121
207138
206251
205469
204800
204241
203797
203463
203238
203114
203087
203149
203295
203517
203808
204163
204576
205040
205552
206060
206543
207039
207547
208064
208589
209121
209657
210198
210742
211288
211835
212385
212935
213486
214038
214590
215142
215694
216247
216799
217350
217901
218452
219001
219549
220093
220635
221176
221709
222237
222760
223270
223769
224258
224732
225187
225624
226038
226427
232281
231430
230639
229873
229104
228336
227552
226752
225930
225081
224201
223290
222343
221365
220348
219310
218239
217151
216048
214944
213851
212776
211739
210743
209807
208938
208146
207443
206828
206309
205885
205557
205323
205180
205125
205153
205258
205436
205681
205988
206352
206769
207195
207608
208039
208486
208947
209419
209901
210390
210886
211387
211893
212403
212915
213430
213947
214465
214985
215504
216025
216545
217066
217586
218104
218622
219137
219651
220160
220667
221171
221666
222156
222640
223111
223571
224021
224457
224876
225278
225661
226022
231928
231150
230427
229729
229032
228340
227639
226927
226201
225456
224689
223899
223082
222241
221370
220482
219565
218632
217682
216725
215771
214822
213895
212991
212126
211307
210543
209845
209215
208662
208187
207793
207482
207253
207105
207035
207041
207118
207263
207472
207740
208064
208409
208753
209118
209502
209904
210321
210750
211189