/*--------------------------------*- C++ -*----------------------------------*\
| =========                 |                                                 |
| \\      /  F ield         | OpenFOAM: The Open Source CFD Toolbox           |
|  \\    /   O peration     | Version:  5.x                                   |
|   \\  /    A nd           | Web:      www.OpenFOAM.org                      |
|    \\/     M anipulation  |                                                 |
\*---------------------------------------------------------------------------*/
FoamFile
{
    version     2.0;
    format      ascii;
    class       surfaceScalarField;
    location    "1200";
    object      phi;
}
// * * * * * * * * * * * * * * * * * * * * * * * * * * * * * * * * * * * * * //

dimensions      [0 3 -1 0 0 0 0];

internalField   nonuniform List<scalar> 
83317
(
0.000496187
0.000109451
-0.000607696
0.000401631
9.45541e-05
0.000326626
7.50056e-05
0.000294774
3.18514e-05
0.000277269
1.75055e-05
0.000263245
1.40234e-05
0.000252787
1.0458e-05
0.00024495
7.83645e-06
0.000238585
6.36461e-06
0.00023295
5.63487e-06
0.000227983
4.96154e-06
0.000222805
5.18112e-06
0.000218752
4.04742e-06
0.000214745
4.0109e-06
0.000212296
2.44358e-06
0.000210482
1.81735e-06
0.000208598
1.87948e-06
0.000207153
1.44811e-06
0.000205166
1.9814e-06
0.00020355
1.61933e-06
0.000201873
1.67541e-06
0.000200057
1.81618e-06
0.000198702
1.35407e-06
0.000197035
1.66642e-06
0.000195728
1.30619e-06
0.00019444
1.28758e-06
0.000192879
1.56019e-06
0.000191609
1.26976e-06
0.000190548
1.05984e-06
0.000189377
1.17053e-06
0.000187915
1.46005e-06
0.000186576
1.32565e-06
0.000185815
7.68255e-07
0.000184952
8.60317e-07
0.000184138
8.09664e-07
0.000183536
6.03194e-07
0.000182801
7.2519e-07
0.000182503
2.9612e-07
0.000182572
-7.26608e-08
0.000182639
-6.55153e-08
0.000182681
-5.13794e-08
0.000178163
4.52101e-06
0.000174336
3.81679e-06
0.000173833
4.92397e-07
0.000173421
4.10114e-07
0.00017335
8.30818e-08
0.000172945
3.85714e-07
0.000172571
3.79047e-07
0.000172251
3.08851e-07
0.000171973
2.82929e-07
0.000171738
2.20969e-07
0.000171548
1.95038e-07
0.000171393
1.37823e-07
0.000171286
1.26688e-07
0.000170851
4.10055e-07
0.000170477
3.7097e-07
0.000170778
-3.03309e-07
0.000170812
-1.86143e-08
0.000170824
-3.37103e-08
0.000171211
-3.58712e-07
0.000171281
-1.03855e-07
0.000171025
2.70046e-07
0.000170973
2.59744e-08
0.000170884
1.1417e-07
0.000170743
1.02892e-07
0.000170509
2.74073e-07
0.000170006
4.53064e-07
0.00016983
2.2322e-07
0.000169697
7.31969e-08
0.000168919
8.37706e-07
0.000168055
7.95807e-07
0.000167517
6.31881e-07
0.000166216
1.18877e-06
0.000164505
1.8339e-06
0.000163088
1.29126e-06
0.000161216
2.07177e-06
0.000158463
2.52736e-06
0.000155352
3.44079e-06
0.000151291
3.70865e-06
0.000148321
3.61639e-06
7.72428e-05
7.06093e-05
-0.000323915
0.000401059
0.000749606
0.000251959
-0.000892128
0.000577933
0.000266226
0.000459092
0.000193847
0.000411852
7.90916e-05
0.000391514
3.78428e-05
0.000377499
2.80383e-05
0.000369972
1.7985e-05
0.000366115
1.16934e-05
0.000364171
8.30897e-06
0.000363425
6.38016e-06
0.000363115
5.26903e-06
0.000362841
5.45573e-06
0.000362991
3.89485e-06
0.000363241
3.76286e-06
0.000365119
5.62001e-07
0.00036677
1.68413e-07
0.000369365
-7.18357e-07
0.000371502
-6.87833e-07
0.000373792
-3.10846e-07
0.000375832
-4.18928e-07
0.000377079
4.27251e-07
0.000378528
3.66693e-07
0.000379041
8.40585e-07
0.000379534
1.17316e-06
0.000379479
1.36122e-06
0.000378946
1.81973e-06
0.000378717
1.78908e-06
0.000377753
2.23268e-06
0.000376555
2.25767e-06
0.000375207
2.51818e-06
0.000374058
2.60828e-06
0.000372704
2.67151e-06
0.000370776
2.69965e-06
0.000368954
2.68054e-06
0.000367041
2.72055e-06
0.00036505
2.59394e-06
0.000363165
2.60548e-06
0.000361041
2.4182e-06
0.000358623
2.34402e-06
0.000356403
2.15409e-06
0.000354198
2.14828e-06
0.000355779
2.94171e-06
0.00035836
1.23008e-06
0.000358551
2.94922e-07
0.00035798
9.79493e-07
0.000357056
1.01382e-06
0.000356358
1.07239e-06
0.000355683
1.05657e-06
0.000355006
9.79752e-07
0.000354354
9.37192e-07
0.000353717
8.49939e-07
0.00035311
8.049e-07
0.000352523
7.15007e-07
0.000351957
7.02275e-07
0.000351654
6.99751e-07
0.000351369
6.53802e-07
0.000350629
4.35654e-07
0.000350146
4.72015e-07
0.000349691
4.0984e-07
0.000349035
3.11122e-07
0.000348617
2.96175e-07
0.000348362
5.31641e-07
0.000347769
6.04752e-07
0.000347119
7.76529e-07
0.00034638
8.21429e-07
0.000345596
1.07796e-06
0.000344883
1.13961e-06
0.000343713
1.41726e-06
0.000342398
1.35436e-06
0.000341228
2.03997e-06
0.000339838
2.14827e-06
0.000337949
2.57009e-06
0.000336102
2.97362e-06
0.000334069
3.93205e-06
0.000331266
4.02696e-06
0.000328059
5.38283e-06
0.000324287
6.17659e-06
0.000319825
8.07815e-06
0.000313224
1.01175e-05
0.000309034
8.16356e-06
0.000172768
0.000206636
-0.000647734
0.000496438
0.000993192
0.000429611
-0.00117083
0.000758409
0.000501009
0.000595854
0.000356402
0.00053371
0.000141236
0.000509179
6.23743e-05
0.000493864
4.33533e-05
0.000487812
2.40365e-05
0.00048658
1.29253e-05
0.000487791
7.09767e-06
0.000490629
3.5427e-06
0.000493752
2.14411e-06
0.000496887
2.32137e-06
0.000499905
8.75823e-07
0.000502495
1.17369e-06
0.000506675
-3.61924e-06
0.000509844
-2.99973e-06
0.000514224
-5.10026e-06
0.000517741
-4.20403e-06
0.000521392
-3.96308e-06
0.000524633
-3.65905e-06
0.000526896
-1.83535e-06
0.000529237
-1.97528e-06
0.000530305
-2.27268e-07
0.000531293
1.84572e-07
0.000531555
1.0992e-06
0.000531401
1.97398e-06
0.000531175
2.01439e-06
0.000530201
3.20641e-06
0.000529157
3.30227e-06
0.000527671
4.00403e-06
0.000526185
4.09386e-06
0.000524405
4.44742e-06
0.000522332
4.77508e-06
0.000520139
4.87229e-06
0.000517759
5.09939e-06
0.00051525
5.103e-06
0.000512582
5.27073e-06
0.000509757
5.24266e-06
0.000506633
5.4669e-06
0.000503512
5.27534e-06
0.000500106
5.55146e-06
0.000503348
-2.98618e-07
0.000507947
-3.37261e-06
0.000508075
1.63719e-07
0.000507402
1.65191e-06
0.000506504
1.91565e-06
0.000505647
1.92359e-06
0.000504807
1.8979e-06
0.000503951
1.83247e-06
0.000503115
1.77497e-06
0.000502287
1.67399e-06
0.000501484
1.60963e-06
0.000500699
1.4945e-06
0.000499925
1.48177e-06
0.000499272
1.34553e-06
0.000498628
1.29664e-06
0.000497824
1.23963e-06
0.00049713
1.1702e-06
0.000496463
1.07062e-06
0.000495735
1.04779e-06
0.0004951
9.20244e-07
0.000494477
1.16016e-06
0.000493602
1.47164e-06
0.000492667
1.71989e-06
0.000491591
1.88531e-06
0.000490485
2.19623e-06
0.000489252
2.35739e-06
0.000487837
2.84795e-06
0.000486188
2.98453e-06
0.000484354
3.89233e-06
0.000482495
3.9861e-06
0.000480081
5.01492e-06
0.000477391
5.62841e-06
0.000474537
6.82484e-06
0.000470981
7.54255e-06
0.000466698
9.73104e-06
0.000461544
1.12603e-05
0.00045572
1.4008e-05
0.0004472
1.85263e-05
0.000441857
1.37143e-05
0.000268505
0.000379836
-0.00100216
0.00062279
0.00128875
0.00064178
-0.00150093
0.000985101
0.000804657
0.000768324
0.000573178
0.000686642
0.000222917
0.000656008
9.30082e-05
0.000638479
6.08826e-05
0.000633053
2.94622e-05
0.000633663
1.23154e-05
0.000637286
3.47419e-06
0.000642865
-2.03639e-06
0.000648864
-3.85643e-06
0.000654654
-3.4681e-06
0.000660168
-4.63894e-06
0.00066439
-3.04738e-06
0.000669827
-9.05774e-06
0.000673826
-6.99853e-06
0.000678876
-1.01515e-05
0.000683072
-8.39944e-06
0.000687163
-8.05508e-06
0.00069089
-7.3856e-06
0.000693546
-4.4915e-06
0.000696169
-4.59925e-06
0.000697509
-1.5674e-06
0.00069862
-9.26117e-07
0.000699017
7.01589e-07
0.000698949
2.04185e-06
0.000698648
2.31467e-06
0.000697617
4.23716e-06
0.000696561
4.35879e-06
0.000694952
5.61275e-06
0.000693207
5.83764e-06
0.000691151
6.50027e-06
0.000688942
6.98488e-06
0.000686518
7.29556e-06
0.000683861
7.75569e-06
0.00068107
7.8933e-06
0.00067799
8.34833e-06
0.000674821
8.41134e-06
0.000671379
8.90725e-06
0.000667849
8.80569e-06
0.000663875
9.52238e-06
0.000666843
-3.26567e-06
0.000671596
-8.12828e-06
0.000671746
1.01043e-08
0.000670995
2.40242e-06
0.000670081
2.83218e-06
0.000669093
2.90662e-06
0.000668122
2.86979e-06
0.000667132
2.81941e-06
0.000666165
2.74262e-06
0.000665206
2.62943e-06
0.000664276
2.54029e-06
0.000663366
2.40009e-06
0.00066247
2.38206e-06
0.000661596
2.21381e-06
0.000660735
2.15577e-06
0.000659906
2.06832e-06
0.0006591
1.97913e-06
0.000658314
1.85104e-06
0.000657571
1.79689e-06
0.000656823
1.66009e-06
0.000655975
2.01129e-06
0.000654907
2.53206e-06
0.00065376
2.87287e-06
0.000652428
3.2075e-06
0.000651044
3.58894e-06
0.000649401
3.98743e-06
0.000647704
4.55515e-06
0.000645725
4.94894e-06
0.000643305
6.3259e-06
0.000640905
6.36943e-06
0.000637928
8.01294e-06
0.000634389
9.1381e-06
0.0006306
1.06439e-05
0.000626109
1.20028e-05
0.000620608
1.52785e-05
0.000613861
1.79502e-05
0.000606315
2.16316e-05
0.000595392
2.93623e-05
0.000588558
2.07126e-05
0.00039051
0.000577784
-0.00139901
0.000787186
0.00164247
0.000882884
-0.00188356
0.00126178
0.00118535
0.000981491
0.000853464
0.000873837
0.000330571
0.000834046
0.0001328
0.000812603
8.23257e-05
0.000806131
3.59339e-05
0.000807381
1.1065e-05
0.000812621
-1.76517e-06
0.000820375
-9.79084e-06
0.000829059
-1.25408e-05
0.000837467
-1.18758e-05
0.000845794
-1.29666e-05
0.000852211
-9.46405e-06
0.000859419
-1.62664e-05
0.000864821
-1.24004e-05
0.000871003
-1.63338e-05
0.000876331
-1.37271e-05
0.000881323
-1.30477e-05
0.000885965
-1.20274e-05
0.000889334
-7.86021e-06
0.000892587
-7.85314e-06
0.000894467
-3.44731e-06
0.000895956
-2.41538e-06
0.000896686
-2.79322e-08
0.00089679
1.93759e-06
0.000896635
2.46986e-06
0.00089565
5.22157e-06
0.000894584
5.42524e-06
0.000892907
7.28911e-06
0.000891032
7.71273e-06
0.00088881
8.72011e-06
0.000886396
9.39975e-06
0.00088374
9.95132e-06
0.000880805
1.06901e-05
0.000877723
1.09755e-05
0.000874304
1.17656e-05
0.000870785
1.193e-05
0.000866957
1.27345e-05
0.000863022
1.27405e-05
0.00085857
1.39731e-05
0.000861142
-5.83684e-06
0.000865966
-1.2954e-05
0.00086627
-2.95953e-07
0.000865465
3.20694e-06
0.000864457
3.84276e-06
0.000863345
4.01493e-06
0.000862248
3.96803e-06
0.00086113
3.93489e-06
0.000860035
3.83881e-06
0.000858951
3.71071e-06
0.0008579
3.59238e-06
0.000856871
3.42596e-06
0.000855858
3.39818e-06
0.000854855
3.21287e-06
0.000853871
3.1389e-06
0.000852941
2.99818e-06
0.000852032
2.89097e-06
0.000851138
2.74088e-06
0.00085031
2.62999e-06
0.00084946
2.50436e-06
0.000848469
3.00445e-06
0.000847206
3.79065e-06
0.000845831
4.25261e-06
0.000844224
4.80792e-06
0.000842532
5.28815e-06
0.000840519
5.99222e-06
0.000838415
6.66716e-06
0.000835978
7.37535e-06
0.000832969
9.34595e-06
0.000829934
9.39304e-06
0.00082622
1.17442e-05
0.000821763
1.35746e-05
0.000816937
1.54922e-05
0.000811246
1.7672e-05
0.000804286
2.22742e-05
0.000795709
2.64882e-05
0.000786075
3.13248e-05
0.000772165
4.32114e-05
0.000763483
2.95102e-05
0.000548591
0.000792593
-0.00184657
0.000996026
0.00206368
0.00114989
-0.00233069
0.00159364
0.00165539
0.00123766
0.00120944
0.00109817
0.000470058
0.00104657
0.000184397
0.00102006
0.000108841
0.00101202
4.39754e-05
0.00101389
9.19009e-06
0.00102104
-8.9109e-06
0.00103145
-2.02072e-05
0.0010434
-2.4489e-05
0.00105507
-2.35396e-05
0.00106691
-2.48102e-05
0.00107634
-1.88954e-05
0.00108624
-2.61712e-05
0.0010938
-1.99526e-05
0.00110176
-2.42939e-05
0.00110875
-2.0717e-05
0.00111511
-1.94123e-05
0.00112109
-1.80079e-05
0.00112552
-1.22895e-05
0.00112973
-1.20643e-05
0.00113241
-6.13124e-06
0.00113451
-4.51461e-06
0.00113577
-1.28185e-06
0.00113619
1.5142e-06
0.00113633
2.3296e-06
0.00113549
6.06219e-06
0.00113449
6.42739e-06
0.0011328
8.97729e-06
0.00113085
9.65881e-06
0.00112851
1.10597e-05
0.00112589
1.20205e-05
0.00112301
1.28344e-05
0.00111979
1.39062e-05
0.0011164
1.43595e-05
0.00111264
1.55258e-05
0.00110875
1.58182e-05
0.0011045
1.69857e-05
0.00110014
1.71036e-05
0.00109519
1.89235e-05
0.00109733
-7.98274e-06
0.00110224
-1.78669e-05
0.00110277
-8.21237e-07
0.00110194
4.03577e-06
0.00110083
4.95379e-06
0.00109959
5.2432e-06
0.00109838
5.18834e-06
0.00109713
5.17806e-06
0.00109591
5.05848e-06
0.0010947
4.91671e-06
0.00109353
4.76417e-06
0.00109238
4.56937e-06
0.00109126
4.52786e-06
0.00109014
4.32066e-06
0.00108906
4.22468e-06
0.00108801
4.04706e-06
0.001087
3.90329e-06
0.001086
3.73677e-06
0.00108507
3.56228e-06
0.00108412
3.45017e-06
0.001083
4.12549e-06
0.00108152
5.26295e-06
0.00107989
5.88591e-06
0.00107797
6.71947e-06
0.00107593
7.34113e-06
0.0010735
8.40894e-06
0.0010709
9.27098e-06
0.00106791
1.03562e-05
0.00106422
1.3043e-05
0.00106043
1.3178e-05
0.00105582
1.63671e-05
0.00105028
1.90929e-05
0.00104422
2.15745e-05
0.00103706
2.48099e-05
0.00102834
3.1022e-05
0.00101756
3.7228e-05
0.00100539
4.35447e-05
0.000987839
6.07076e-05
0.000976863
4.05956e-05
0.000747973
0.00102143
-0.00235281
0.00125403
0.00256734
0.00143994
-0.00285737
0.00199391
0.00222882
0.00154633
0.00165702
0.00136863
0.000647757
0.00130263
0.000250401
0.00127002
0.000141454
0.00126026
5.37335e-05
0.00126304
6.40576e-06
0.00127263
-1.84971e-05
0.00128641
-3.39884e-05
0.0013024
-4.04757e-05
0.00131811
-3.92549e-05
0.0013343
-4.09991e-05
0.00134758
-3.21753e-05
0.00136111
-3.97034e-05
0.00137162
-3.04572e-05
0.00138207
-3.47454e-05
0.00139132
-2.99654e-05
0.00139958
-2.76733e-05
0.00140737
-2.57978e-05
0.00141326
-1.81849e-05
0.0014188
-1.76017e-05
0.00142259
-9.9178e-06
0.00142556
-7.4908e-06
0.00142757
-3.28665e-06
0.00142849
5.87324e-07
0.00142909
1.73638e-06
0.00142851
6.63771e-06
0.00142768
7.26314e-06
0.00142605
1.06023e-05
0.00142409
1.16223e-05
0.00142166
1.34858e-05
0.00141886
1.48227e-05
0.00141576
1.59338e-05
0.00141225
1.74088e-05
0.00140856
1.80537e-05
0.00140443
1.96524e-05
0.00140015
2.00988e-05
0.00139545
2.16914e-05
0.00139062
2.1927e-05
0.00138513
2.44167e-05
0.00138682
-9.67781e-06
0.00139185
-2.28952e-05
0.00139265
-1.62135e-06
0.00139183
4.85512e-06
0.00139063
6.15369e-06
0.00138929
6.58292e-06
0.00138795
6.52786e-06
0.00138658
6.54474e-06
0.00138524
6.40162e-06
0.00138391
6.24777e-06
0.00138262
6.05332e-06
0.00138135
5.83102e-06
0.00138011
5.77045e-06
0.00137889
5.53839e-06
0.00137771
5.41209e-06
0.00137654
5.21469e-06
0.00137543
5.0162e-06
0.00137432
4.84118e-06
0.00137329
4.59106e-06
0.00137224
4.49742e-06
0.00137099
5.38332e-06
0.00136927
6.97728e-06
0.00136735
7.8074e-06
0.00136507
8.99447e-06
0.00136261
9.80936e-06
0.0013597
1.13141e-05
0.00135652
1.24578e-05
0.00135287
1.3998e-05
0.00134837
1.75507e-05
0.00134366
1.78817e-05
0.00133797
2.20649e-05
0.00133112
2.59249e-05
0.00132356
2.9152e-05
0.00131463
3.37304e-05
0.00130377
4.19012e-05
0.00129032
5.06545e-05
0.00127506
5.88437e-05
0.00125307
8.26537e-05
0.00123923
5.45108e-05
0.000994057
0.00126655
-0.00292563
0.00156677
0.00317128
0.00174885
-0.0034802
0.00247988
0.00292022
0.00192156
0.00221534
0.00169767
0.00087165
0.00161392
0.000334149
0.00157388
0.000181498
0.00156215
6.54605e-05
0.00156613
2.42052e-06
0.00157877
-3.11282e-05
0.00159672
-5.19439e-05
0.00161767
-6.14287e-05
0.00163839
-5.99738e-05
0.00165993
-6.25329e-05
0.00167801
-5.02608e-05
0.0016962
-5.78977e-05
0.00171059
-4.48393e-05
0.00172436
-4.85232e-05
0.00173659
-4.21881e-05
0.00174736
-3.84487e-05
0.00175753
-3.59677e-05
0.00176537
-2.60278e-05
0.00177267
-2.4902e-05
0.00177793
-1.51772e-05
0.00178211
-1.16658e-05
0.00178514
-6.31511e-06
0.0017868
-1.07271e-06
0.00178804
4.95608e-07
0.00178788
6.79747e-06
0.00178734
7.79531e-06
0.00178588
1.20707e-05
0.00178397
1.35314e-05
0.0017815
1.59472e-05
0.00177856
1.77674e-05
0.00177526
1.92283e-05
0.00177148
2.11903e-05
0.00176747
2.20602e-05
0.00176296
2.41614e-05
0.00175827
2.47901e-05
0.00175309
2.68765e-05
0.00174777
2.72391e-05
0.00174169
3.04964e-05
0.00174289
-1.0877e-05
0.00174805
-2.80566e-05
0.00174918
-2.75387e-06
0.00174842
5.61629e-06
0.00174716
7.41501e-06
0.00174572
8.02297e-06
0.00174427
7.97534e-06
0.00174279
8.02833e-06
0.00174132
7.86202e-06
0.00173987
7.69741e-06
0.00173847
7.455e-06
0.00173709
7.205e-06
0.00173575
7.12045e-06
0.00173442
6.86655e-06
0.00173313
6.69963e-06
0.00173185
6.49583e-06
0.00173064
6.22569e-06
0.00172943
6.04902e-06
0.00172831
5.70951e-06
0.00172716
5.6432e-06
0.00172576
6.78765e-06
0.00172377
8.95918e-06
0.00172152
1.00594e-05
0.00171882
1.16874e-05
0.00171587
1.27622e-05
0.00171238
1.47969e-05
0.00170851
1.63363e-05
0.00170408
1.84172e-05
0.0016986
2.30371e-05
0.00169279
2.36889e-05
0.00168581
2.90553e-05
0.00167738
3.43393e-05
0.00166799
3.85567e-05
0.00165689
4.481e-05
0.00164344
5.53718e-05
0.00162673
6.73393e-05
0.0016077
7.79087e-05
0.00158032
0.000109991
0.00156288
7.2027e-05
0.00129628
0.00153313
-0.0035734
0.00194389
0.00389667
0.00207173
-0.00421953
0.00307186
0.00374503
0.00238021
0.00290699
0.00210014
0.00115172
0.00199428
0.000440011
0.00194504
0.000230738
0.00193095
7.95536e-05
0.00193642
-3.04885e-06
0.00195278
-4.74928e-05
0.00197586
-7.50251e-05
0.00200289
-8.84596e-05
0.00202975
-8.6835e-05
0.00205784
-9.06228e-05
0.00208188
-7.42956e-05
0.00210595
-8.19688e-05
0.00212531
-6.4198e-05
0.00214342
-6.66334e-05
0.00215949
-5.82606e-05
0.00217354
-5.24997e-05
0.00218678
-4.92109e-05
0.00219717
-3.64108e-05
0.00220677
-3.45026e-05
0.00221396
-2.23698e-05
0.00221973
-1.74343e-05
0.00222413
-1.07152e-05
0.0022268
-3.74673e-06
0.00222894
-1.64127e-06
0.00222939
6.34624e-06
0.00222933
7.8564e-06
0.00222815
1.32524e-05
0.00222639
1.52877e-05
0.00222397
1.837e-05
0.00222093
2.0802e-05
0.00221748
2.26783e-05
0.00221344
2.52359e-05
0.00220913
2.63684e-05
0.00220423
2.90641e-05
0.00219911
2.99045e-05
0.00219342
3.25628e-05
0.0021876
3.30673e-05
0.00218089
3.72019e-05
0.00218153
-1.15208e-05
0.00218682
-3.33445e-05
0.00218835
-4.28137e-06
0.0021877
6.26156e-06
0.00218641
8.70454e-06
0.00218489
9.5438e-06
0.00218335
9.51598e-06
0.00218176
9.61805e-06
0.00218019
9.42888e-06
0.00217863
9.25637e-06
0.00217713
8.96202e-06
0.00217565
8.68401e-06
0.0021742
8.57009e-06
0.00217276
8.29922e-06
0.00217138
8.082e-06
0.00216999
7.88389e-06
0.0021687
7.52242e-06
0.00216739
7.3587e-06
0.00216619
6.90677e-06
0.00216495
6.88279e-06
0.00216339
8.34759e-06
0.0021611
1.12432e-05
0.00215848
1.26901e-05
0.00215529
1.48695e-05
0.00215177
1.62878e-05
0.00214759
1.89684e-05
0.0021429
2.10363e-05
0.00213754
2.37716e-05
0.00213088
2.96977e-05
0.00212373
3.08343e-05
0.00211519
3.76084e-05
0.00210484
4.46811e-05
0.00209322
5.01793e-05
0.0020795
5.85198e-05
0.00206289
7.19984e-05
0.00204221
8.80055e-05
0.00201858
0.000101565
0.00198463
0.000143912
0.00196266
9.40514e-05
0.00166921
0.00182654
-0.00430418
0.00239994
0.0047689
0.0024026
-0.00509978
0.00379392
0.00472001
0.00294252
0.00375839
0.00259402
0.00150022
0.00246039
0.000573638
0.00239966
0.000291473
0.00238261
9.66023e-05
0.00238985
-1.02906e-05
0.00241075
-6.83897e-05
0.00244008
-0.000104354
0.00247452
-0.000122907
0.0025089
-0.000121211
0.00254502
-0.000126738
0.00257638
-0.000105656
0.00260777
-0.000113362
0.00263343
-8.98577e-05
0.0026571
-9.03068e-05
0.00267811
-7.92688e-05
0.00269637
-7.07633e-05
0.00271356
-6.63938e-05
0.00272721
-5.00685e-05
0.00273979
-4.70753e-05
0.00274948
-3.20662e-05
0.00275735
-2.52977e-05
0.00276355
-1.69211e-05
0.0027676
-7.79526e-06
0.00277095
-4.99346e-06
0.00277226
5.03266e-06
0.00277289
7.22673e-06
0.00277217
1.39781e-05
0.0027707
1.67518e-05
0.00276842
2.06481e-05
0.00276538
2.38446e-05
0.00276183
2.62262e-05
0.00275756
2.95077e-05
0.00275298
3.0952e-05
0.00274769
3.43537e-05
0.00274215
3.54401e-05
0.00273595
3.87611e-05
0.00272959
3.94248e-05
0.00272223
4.45587e-05
0.00272224
-1.15319e-05
0.00272763
-3.87339e-05
0.00272962
-6.27303e-06
0.00272917
6.71374e-06
0.0027279
9.97368e-06
0.00272633
1.11135e-05
0.00272472
1.11244e-05
0.00272305
1.12922e-05
0.00272139
1.10808e-05
0.00271974
1.09088e-05
0.00271815
1.05528e-05
0.00271658
1.0251e-05
0.00271505
1.01015e-05
0.00271352
9.82428e-06
0.00271206
9.5425e-06
0.00271058
9.36579e-06
0.00270921
8.89235e-06
0.00270781
8.75449e-06
0.00270655
8.16652e-06
0.00270523
8.20416e-06
0.00270351
1.00632e-05
0.00270089
1.38617e-05
0.00269783
1.57519e-05
0.00269408
1.86172e-05
0.00268988
2.04833e-05
0.0026849
2.39522e-05
0.00267922
2.67159e-05
0.00267275
3.02359e-05
0.00266468
3.77715e-05
0.00265592
3.95894e-05
0.00264548
4.80499e-05
0.00263281
5.73452e-05
0.00261849
6.45064e-05
0.00260158
7.54198e-05
0.00258112
9.24665e-05
0.00255561
0.000113501
0.00252637
0.000130832
0.00248444
0.000185811
0.00245669
0.000121863
0.00213208
0.00215113
-0.00512562
0.0029534
0.00581826
0.00273369
-0.00614933
0.00467498
0.00586329
0.00363314
0.00480023
0.00320138
0.00193198
0.00303272
0.000742295
0.00295749
0.000366706
0.00293667
0.000117421
0.00294596
-1.95816e-05
0.00297231
-9.47384e-05
0.00300922
-0.000141258
0.00305268
-0.000166368
0.00309621
-0.000164744
0.00314212
-0.000172648
0.00318246
-0.000145997
0.00322292
-0.000153824
0.00325648
-0.000123415
0.00328721
-0.000121038
0.00331449
-0.000106549
0.00333814
-9.44091e-05
0.00336033
-8.85877e-05
0.00337818
-6.79182e-05
0.00339456
-6.34535e-05
0.00340748
-4.49874e-05
0.00341806
-3.588e-05
0.00342663
-2.54855e-05
0.0034325
-1.36719e-05
0.00343748
-9.96633e-06
0.00343998
2.53038e-06
0.00344158
5.62105e-06
0.00344154
1.40237e-05
0.00344055
1.7742e-05
0.00343856
2.26341e-05
0.00343562
2.67855e-05
0.00343206
2.97831e-05
0.00342762
3.39469e-05
0.00342281
3.57644e-05
0.00341716
4.00064e-05
0.00341122
4.13783e-05
0.00340451
4.54705e-05
0.00339762
4.63112e-05
0.0033896
5.25808e-05
0.00338889
-1.08264e-05
0.00339434
-4.41751e-05
0.00339685
-8.79234e-06
0.00339669
6.87973e-06
0.00339551
1.11565e-05
0.00339393
1.26869e-05
0.00339229
1.2763e-05
0.00339057
1.30183e-05
0.00338886
1.27887e-05
0.00338714
1.26261e-05
0.00338549
1.22007e-05
0.00338386
1.18809e-05
0.00338228
1.16877e-05
0.00338068
1.14184e-05
0.00337916
1.10588e-05
0.00337761
1.09203e-05
0.00337619
1.03103e-05
0.00337472
1.02212e-05
0.00337343
9.46411e-06
0.00337204
9.58845e-06
0.00337017
1.19347e-05
0.00336718
1.68497e-05
0.00336363
1.93032e-05
0.00335922
2.30234e-05
0.00335424
2.54672e-05
0.00334829
2.98993e-05
0.00334145
3.35627e-05
0.00333365
3.8032e-05
0.00332388
4.75398e-05
0.00331318
5.02914e-05
0.00330046
6.07743e-05
0.00328497
7.28288e-05
0.00326737
8.21092e-05
0.00324658
9.62058e-05
0.00322146
0.000117602
0.00319006
0.000144884
0.00315398
0.000166928
0.00310236
0.00023742
0.00306721
0.000157043
0.0027091
0.00250923
-0.00604318
0.00362664
0.00708106
0.00305424
-0.00740162
0.00575017
0.00719417
0.00448229
0.00606811
0.00394954
0.00246473
0.00373656
0.000955267
0.00364291
0.000460362
0.00361718
0.000143153
0.00362877
-3.11723e-05
0.00366162
-0.000127589
0.00370765
-0.000187293
0.00376203
-0.000220745
0.00381668
-0.000219396
0.00387451
-0.00023048
0.00392582
-0.000197302
0.00397744
-0.000205442
0.00402082
-0.000166794
0.00406043
-0.000160651
0.00409563
-0.000141748
0.00412609
-0.000124876
0.00415463
-0.000117126
0.00417781
-9.10998e-05
0.00419904
-8.46805e-05
0.00421608
-6.20334e-05
0.00423018
-4.9971e-05
0.00424179
-3.71002e-05
0.00425007
-2.19511e-05
0.00425718
-1.70815e-05
0.00426129
-1.57648e-06
0.00426424
2.67276e-06
0.00426517
1.30958e-05
0.0042649
1.80113e-05
0.0042634
2.4128e-05
0.00426072
2.94678e-05
0.00425728
3.32185e-05
0.00425277
3.84619e-05
0.00424781
4.07257e-05
0.00424184
4.59703e-05
0.00423554
4.76753e-05
0.00422835
5.26668e-05
0.00422095
5.37061e-05
0.00421228
6.12523e-05
0.00421077
-9.32072e-06
0.00421619
-4.95973e-05
0.0042193
-1.19011e-05
0.00421954
6.64228e-06
0.00421853
1.21642e-05
0.00421702
1.41973e-05
0.00421541
1.43755e-05
0.00421368
1.4745e-05
0.00421196
1.45056e-05
0.00421022
1.43631e-05
0.00420856
1.38614e-05
0.00420691
1.3531e-05
0.00420531
1.32877e-05
0.00420368
1.30448e-05
0.00420215
1.25885e-05
0.00420056
1.25143e-05
0.00419913
1.17369e-05
0.00419763
1.17232e-05
0.00419633
1.07636e-05
0.00419491
1.10027e-05
0.0041929
1.39454e-05
0.00418951
2.02387e-05
0.0041854
2.34072e-05
0.00418024
2.81856e-05
0.00417434
3.13711e-05
0.00416725
3.69786e-05
0.00415902
4.17962e-05
0.00414964
4.74123e-05
0.00413784
5.93397e-05
0.0041248
6.33305e-05
0.00410932
7.6254e-05
0.00409043
9.17076e-05
0.00406886
0.000103689
0.00404336
0.0001217
0.00401256
0.000148408
0.00397403
0.000183395
0.00392964
0.000211344
0.00386627
0.000300762
0.00382157
0.000201797
0.00343118
0.00289961
-0.00705937
0.00444727
0.00860123
0.00334927
-0.00889625
0.00706258
0.00873282
0.00552717
0.00760352
0.00487245
0.00311945
0.00460334
0.00122438
0.0044861
0.000577602
0.00445387
0.000175386
0.00446793
-4.52369e-05
0.00450847
-0.000168122
0.00456544
-0.00024427
0.00463299
-0.000288289
0.00470108
-0.000287494
0.00477338
-0.000302773
0.00483802
-0.000261938
0.0049033
-0.000270724
0.0049588
-0.0002223
0.0050095
-0.000211344
0.00505462
-0.000186875
0.00509368
-0.000163937
0.00513021
-0.000153654
0.00516014
-0.000121022
0.00518751
-0.000112052
0.0052098
-8.43243e-05
0.00522838
-6.85496e-05
0.00524392
-5.26396e-05
0.00525532
-3.33586e-05
0.00526523
-2.69916e-05
0.00527148
-7.82352e-06
0.00527624
-2.08454e-06
0.00527852
1.08097e-05
0.00527929
1.72395e-05
0.00527856
2.48655e-05
0.00527635
3.16797e-05
0.0052732
3.63589e-05
0.00526875
4.2917e-05
0.00526375
4.57211e-05
0.00525756
5.21622e-05
0.00525098
5.42579e-05
0.00524335
6.02965e-05
0.0052355
6.15574e-05
0.00522622
7.05302e-05
0.00522384
-6.94232e-06
0.00522915
-5.49035e-05
0.00523289
-1.56441e-05
0.00523366
5.86782e-06
0.00523295
1.28786e-05
0.00523159
1.55547e-05
0.00523009
1.5881e-05
0.00522843
1.64052e-05
0.00522677
1.61607e-05
0.00522507
1.60611e-05
0.00522346
1.547e-05
0.00522185
1.51444e-05
0.0052203
1.48397e-05
0.00521869
1.46492e-05
0.0052172
1.40774e-05
0.00521562
1.40968e-05
0.00521424
1.31182e-05
0.00521275
1.32159e-05
0.0052115
1.20088e-05
0.0052101
1.24022e-05
0.00520798
1.60718e-05
0.00520415
2.40614e-05
0.00519943
2.8126e-05
0.0051934
3.4222e-05
0.00518642
3.83465e-05
0.00517801
4.53943e-05
0.00516813
5.16762e-05
0.00515685
5.86854e-05
0.00514263
7.35674e-05
0.00512677
7.91842e-05
0.00510798
9.5053e-05
0.00508499
0.000114693
0.00505861
0.000130074
0.0050274
0.000152906
0.00498973
0.000186085
0.00494255
0.000230563
0.00488805
0.000265856
0.0048105
0.000378302
0.00475337
0.000258947
0.00433853
0.00331444
-0.00817119
0.00545037
0.0104321
0.00359732
-0.0106802
0.00866513
0.0104998
0.00681372
0.00945493
0.00601243
0.00392074
0.00567221
0.00156459
0.0055246
0.000725212
0.00548365
0.000216336
0.00550022
-6.18e-05
0.00554973
-0.000217636
0.00561974
-0.000314281
0.00570309
-0.000371639
0.00578738
-0.00037178
0.00587715
-0.000392552
0.00595793
-0.000342712
0.00603986
-0.000352661
0.00611025
-0.000292687
0.00617468
-0.00027577
0.00623217
-0.000244365
0.00628199
-0.000213757
0.00632852
-0.000200186
0.00636692
-0.000159427
0.00640203
-0.000147163
0.00643096
-0.000113248
0.00645525
-9.28445e-05
0.0064758
-7.3185e-05
0.00649124
-4.88037e-05
0.00650478
-4.05251e-05
0.00651383
-1.68815e-05
0.006521
-9.25343e-06
0.00652513
6.67907e-06
0.00652736
1.50067e-05
0.00652773
2.45e-05
0.00652627
3.3137e-05
0.00652367
3.89623e-05
0.00651946
4.7122e-05
0.0065146
5.05828e-05
0.00650831
5.84513e-05
0.00650156
6.10065e-05
0.00649359
6.82673e-05
0.00648537
6.97761e-05
0.00647557
8.03252e-05
0.00647228
-3.64665e-06
0.00647736
-5.99849e-05
0.00648176
-2.00511e-05
0.00648323
4.40438e-06
0.00648296
1.31483e-05
0.00648188
1.66303e-05
0.00648059
1.71702e-05
0.0064791
1.78977e-05
0.0064776
1.76575e-05
0.00647603
1.76283e-05
0.00647457
1.69351e-05
0.00647307
1.66354e-05
0.00647166
1.62547e-05
0.00647015
1.6154e-05
0.00646879
1.54392e-05
0.00646729
1.55958e-05
0.00646604
1.43717e-05
0.00646462
1.46278e-05
0.00646351
1.31225e-05
0.00646219
1.37175e-05
0.00645999
1.82696e-05
0.00645572
2.83361e-05
0.00645032
3.35232e-05
0.00644329
4.12511e-05
0.00643507
4.65612e-05
0.00642509
5.53726e-05
0.00641327
6.34996e-05
0.00639975
7.22022e-05
0.00638263
9.06937e-05
0.0063634
9.84042e-05
0.00634061
0.000117847
0.00631269
0.000142608
0.0062805
0.000162265
0.00624239
0.000191013
0.0061964
0.000232078
0.00613877
0.000288183
0.00607202
0.000332618
0.00597739
0.000472918
0.00590405
0.000332325
0.00548407
0.00373443
-0.00936857
0.00668134
0.0126389
0.00376758
-0.0128091
0.010623
0.0125157
0.00839871
0.0116792
0.00742228
0.00489717
0.00699214
0.00199474
0.00680519
0.00091216
0.00675242
0.000269104
0.00677126
-8.06428e-05
0.00683114
-0.000277514
0.00691656
-0.000399701
0.0070188
-0.000473872
0.00712248
-0.000475465
0.00723332
-0.000503391
0.00733354
-0.000442933
0.00743569
-0.000454808
0.00752423
-0.000381224
0.00760555
-0.000357091
0.00767833
-0.00031715
0.00774152
-0.00027695
0.00780052
-0.000259179
0.00784952
-0.000208433
0.00789434
-0.000191974
0.0079316
-0.000150512
0.00796311
-0.000124359
0.00799001
-0.000100083
0.00801063
-6.94183e-05
0.00802881
-5.87082e-05
0.00804153
-2.95969e-05
0.00805186
-1.95849e-05
0.00805845
8.10313e-08
0.00806268
1.07796e-05
0.0080646
2.25814e-05
0.00806427
3.34714e-05
0.00806252
4.07107e-05
0.00805882
5.08227e-05
0.00805432
5.50808e-05
0.00804811
6.46568e-05
0.00804137
6.77483e-05
0.0080332
7.64378e-05
0.00802475
7.82221e-05
0.00801458
9.04957e-05
0.00801037
5.67097e-07
0.00801511
-6.47226e-05
0.00802017
-2.51185e-05
0.00802249
2.08857e-06
0.00802286
1.27821e-05
0.00802222
1.72623e-05
0.0080213
1.80934e-05
0.00802011
1.90884e-05
0.0080189
1.88669e-05
0.00801759
1.89423e-05
0.00801639
1.81338e-05
0.00801513
1.7887e-05
0.00801398
1.74133e-05
0.00801268
1.74501e-05
0.00801156
1.65589e-05
0.00801025
1.69083e-05
0.00800923
1.53878e-05
0.008008
1.58618e-05
0.00800712
1.3998e-05
0.00800598
1.48551e-05
0.00800378
2.04708e-05
0.00799904
3.30746e-05
0.00799291
3.96572e-05
0.00798475
4.94103e-05
0.00797511
5.62046e-05
0.0079633
6.71776e-05
0.00794919
7.76144e-05
0.00793301
8.83832e-05
0.00791243
0.000111269
0.00788919
0.000121651
0.0078616
0.000145431
0.00782775
0.000176459
0.00778858
0.000201439
0.00774214
0.00023745
0.00768611
0.000288111
0.00761586
0.000358435
0.00753429
0.00041419
0.00741914
0.000588069
0.00732478
0.000426692
0.00692793
0.00413127
-0.0106424
0.00820175
0.0153011
0.00381538
-0.0153489
0.0130168
0.0148
0.0103526
0.0143434
0.00916807
0.00608169
0.00862449
0.00253832
0.00838637
0.00115028
0.00831745
0.000338021
0.00833793
-0.000101124
0.00840958
-0.000349166
0.00851307
-0.000503188
0.00863774
-0.000598538
0.00876455
-0.000602282