/*--------------------------------*- C++ -*----------------------------------*\
| =========                 |                                                 |
| \\      /  F ield         | OpenFOAM: The Open Source CFD Toolbox           |
|  \\    /   O peration     | Version:  5.x                                   |
|   \\  /    A nd           | Web:      www.OpenFOAM.org                      |
|    \\/     M anipulation  |                                                 |
\*---------------------------------------------------------------------------*/
FoamFile
{
    version     2.0;
    format      ascii;
    class       volVectorField;
    location    "1200";
    object      U;
}
// * * * * * * * * * * * * * * * * * * * * * * * * * * * * * * * * * * * * * //

dimensions      [0 1 -1 0 0 0 0];

internalField   nonuniform List<vector> 
41860
(
(164.204 250.643 0)
(244.35 188.253 4.35467e-16)
(282.363 114.803 1.41394e-16)
(255.164 85.7002 -3.86939e-16)
(240.912 67.5911 -9.59542e-22)
(225.185 54.5403 -2.72373e-16)
(209.942 44.7803 -3.28725e-16)
(196.911 37.5375 3.86098e-16)
(185.621 31.9602 0)
(175.677 27.5036 -4.97768e-16)
(166.711 23.8815 5.61353e-16)
(158.74 20.8683 5.98443e-16)
(151.189 18.3061 -5.17125e-21)
(145.312 16.2286 6.82086e-16)
(139.527 14.3916 -7.74112e-16)
(135.928 12.9728 -7.67309e-16)
(132.063 11.6422 8.13761e-16)
(128.844 10.5002 -8.39605e-16)
(126.071 9.47609 -8.4334e-16)
(122.77 8.50262 8.99601e-16)
(120.703 7.68603 -8.78734e-16)
(117.85 6.87359 -2.52808e-21)
(115.814 6.17282 -5.73124e-21)
(113.847 5.51545 3.48567e-21)
(111.679 4.89387 1.87179e-15)
(110.309 4.34266 -9.0612e-16)
(108.394 3.80055 0)
(106.791 3.30458 -4.54316e-16)
(105.416 2.84084 4.55032e-16)
(104.101 2.40281 0)
(102.729 1.98755 3.37858e-21)
(101.166 1.58823 -3.34633e-21)
(100.007 1.2203 -2.91832e-21)
(99.1292 0.867473 6.45378e-21)
(97.8812 0.533534 2.07691e-16)
(97.1193 0.213361 0)
(96.0926 -0.0887796 -2.48723e-17)
(95.2322 -0.381104 1.96193e-16)
(94.6615 -0.657585 -1.89365e-16)
(94.1891 -0.929631 3.68198e-16)
(93.6004 -1.18412 0)
(93.0978 -1.43409 -1.38952e-15)
(88.2988 -1.57071 0)
(87.8791 -1.75143 3.92717e-21)
(86.9019 -1.90275 9.46911e-16)
(86.5939 -2.06388 -1.80463e-21)
(85.9685 -2.20705 1.8025e-21)
(85.3407 -2.34109 9.54494e-16)
(84.7555 -2.47113 -1.91643e-15)
(84.1922 -2.59028 -9.6302e-16)
(83.6551 -2.70926 -1.84835e-21)
(83.1437 -2.81632 9.70941e-16)
(82.6531 -2.92508 -9.74445e-16)
(82.1841 -3.02317 1.86928e-21)
(81.7396 -3.12372 6.58484e-24)
(80.9665 -3.20069 6.60559e-24)
(80.5809 -3.29295 -1.89674e-21)
(80.4553 -3.38916 0)
(79.8097 -3.46254 -1.99881e-15)
(79.6744 -3.55443 -1.90515e-21)
(79.3708 -3.63788 1.98212e-15)
(78.9463 -3.7225 -2.00285e-15)
(78.3392 -3.80415 2.01147e-15)
(78.114 -3.8987 -4.02132e-15)
(77.464 -3.97455 2.02396e-15)
(77.2027 -4.06439 -2.01677e-15)
(76.4619 -4.13183 0)
(75.9666 -4.20623 9.74882e-22)
(75.5238 -4.28615 3.59607e-24)
(75.0601 -4.36349 -2.02378e-15)
(74.0636 -4.40727 -3.87999e-24)
(73.5208 -4.47982 9.89806e-22)
(72.8161 -4.54033 4.12456e-15)
(71.6275 -4.56932 -5.03263e-22)
(70.5731 -4.60616 4.29582e-15)
(69.6509 -4.6516 0)
(68.2209 -4.66077 -8.66992e-15)
(66.576 -4.65335 -2.6256e-22)
(64.8733 -4.63852 4.51634e-15)
(62.4061 -4.56715 -4.51856e-15)
(61.7897 -4.61967 4.68969e-15)
(1.8678 -0.323879 -7.67499e-15)
(210.86 311.304 0)
(299.897 231.106 -1.87608e-16)
(329.117 134.047 -5.80607e-17)
(294.091 99.2668 1.57292e-16)
(280.429 78.8308 0)
(265.154 64.3641 4.43424e-22)
(252.173 53.9155 2.74683e-16)
(241.563 46.167 6.09801e-22)
(232.54 40.1486 1.9174e-16)
(224.777 35.2932 2.2019e-16)
(218.173 31.3505 -2.53498e-16)
(211.744 27.9275 -5.50348e-16)
(206.774 25.1246 5.18008e-23)
(201.309 22.5638 -2.44026e-21)
(198.182 20.5202 0)
(194.745 18.658 0)
(192.56 17.0436 -3.90097e-16)
(190.636 15.6 0)
(188.57 14.2332 4.04275e-16)
(187.457 13.0399 0)
(185.437 11.8605 8.40427e-16)
(184.164 10.792 -4.43899e-16)
(182.587 9.77918 -4.38013e-16)
(180.821 8.80437 0)
(179.543 7.90969 -1.99658e-21)
(177.468 7.02465 -4.3921e-16)
(176.101 6.21151 0)
(174.407 5.43114 0)
(172.641 4.6838 -6.53269e-22)
(170.83 3.97273 0)
(169.114 3.30014 0)
(167.59 2.65775 0)
(165.781 2.04693 2.11638e-16)
(163.849 1.4565 0)
(162.189 0.905425 -1.02644e-16)
(160.256 0.371773 1.55855e-21)
(158.55 -0.127652 -1.50466e-21)
(156.773 -0.610166 -4.88807e-17)
(154.855 -1.06011 9.45242e-17)
(152.873 -1.4942 -2.09007e-22)
(151.123 -1.89804 -1.3682e-21)
(149.168 -2.28654 6.94771e-16)
(150.517 -2.66507 0)
(149.923 -2.97444 4.74258e-16)
(149.16 -3.25322 -4.78629e-16)
(147.953 -3.51475 1.8345e-21)
(146.919 -3.76038 4.83954e-16)
(145.925 -3.9922 -4.88353e-16)
(144.924 -4.21502 3.14336e-22)
(143.947 -4.41883 4.93647e-16)
(142.981 -4.62111 0)
(142.03 -4.80194 -4.98384e-16)
(141.097 -4.98477 1.91246e-21)
(140.177 -5.14817 6.84737e-24)
(139.266 -5.3139 -1.91757e-21)
(138.568 -5.46976 9.71816e-22)
(137.669 -5.61893 -1.93789e-21)
(136.628 -5.74848 9.7043e-22)
(135.929 -5.89066 1.01915e-15)
(134.926 -6.01324 9.78759e-22)
(134.067 -6.13878 -1.01769e-15)
(133.266 -6.27768 1.02822e-15)
(132.53 -6.42984 -9.75354e-22)
(131.487 -6.55691 1.03158e-15)
(130.702 -6.70048 -1.03043e-15)
(129.606 -6.81773 -9.8459e-22)
(128.789 -6.95376 0)
(127.751 -7.06844 1.03887e-15)
(126.612 -7.18046 -1.84482e-24)
(125.453 -7.28748 2.49007e-22)
(124.463 -7.40108 1.05997e-15)
(123.135 -7.49783 0)
(121.787 -7.58822 -2.11883e-15)
(120.529 -7.68312 -2.28489e-24)
(119.049 -7.76461 -2.20078e-15)
(117.251 -7.82463 -2.21345e-15)
(115.512 -7.88523 2.2313e-15)
(113.351 -7.91599 -2.28367e-15)
(111.157 -7.9408 -2.34688e-15)
(107.486 -7.85802 0)
(107.139 -7.98723 -2.45872e-15)
(11.0723 -1.00602 1.26477e-14)
(231.941 340.795 -4.61785e-18)
(329.257 253.934 0)
(354.694 144.59 4.4289e-17)
(315.593 106.638 1.19242e-16)
(301.88 84.9103 0)
(286.681 69.6296 0)
(274.742 58.7723 -9.99475e-17)
(265.31 50.7317 0)
(257.421 44.4672 -1.34408e-16)
(250.764 39.3931 -1.17616e-21)
(245.331 35.2707 1.71571e-16)
(239.673 31.6268 7.05951e-21)
(235.787 28.6644 2.08837e-16)
(230.479 25.846 2.13246e-16)
(227.977 23.6164 0)
(224.382 21.5073 2.3385e-16)
(222.269 19.6818 0)
(220.31 18.036 2.45423e-16)
(218.124 16.4707 2.43963e-16)
(217.017 15.1023 -2.52382e-16)
(214.829 13.746 -2.46204e-16)
(213.625 12.5234 2.55485e-16)
(211.78 11.3475 2.50049e-16)
(210.032 10.2309 2.52116e-16)
(208.477 9.1884 -1.17974e-21)
(206.414 8.17389 2.48363e-16)
(204.928 7.23171 0)
(202.925 6.32248 -1.22469e-16)
(201.193 5.46127 -3.82872e-22)
(199.243 4.63627 0)
(197.388 3.85461 1.86794e-21)
(195.557 3.10391 1.20171e-16)
(193.594 2.39265 1.18574e-16)
(191.664 1.70601 5.94815e-17)
(189.664 1.06099 0)
(187.698 0.437519 1.77951e-21)
(185.617 -0.147368 -7.05781e-18)
(183.617 -0.712734 -2.80508e-17)
(181.413 -1.24015 -5.4756e-17)
(179.259 -1.75028 -1.08867e-16)
(177.044 -2.22182 -3.22105e-21)
(174.714 -2.67735 2.92732e-21)
(176.98 -3.1331 9.14639e-24)
(176.32 -3.49685 -2.66559e-16)
(175.284 -3.82182 2.66621e-16)
(174.1 -4.13474 -2.71223e-16)
(172.93 -4.42488 -2.72686e-16)
(171.803 -4.69897 0)
(170.663 -4.96242 2.77052e-16)
(169.545 -5.20345 2.79013e-16)
(168.434 -5.44263 1.07323e-21)
(167.337 -5.65643 -9.20426e-22)
(166.255 -5.87251 2.84013e-16)
(165.185 -6.06554 -1.09167e-21)
(164.119 -6.26107 -5.73387e-16)
(163.141 -6.43882 -1.09764e-21)
(162.082 -6.61465 5.75002e-16)
(161.017 -6.77362 0)
(160.028 -6.93424 0)
(158.998 -7.08522 5.87878e-16)
(157.964 -7.23208 0)
(157.017 -7.39549 1.13084e-21)
(155.986 -7.56714 -1.67625e-21)
(154.902 -7.72361 5.67138e-22)
(153.825 -7.88514 0)
(152.672 -8.03013 5.99037e-16)
(151.576 -8.18328 -5.98944e-16)
(150.352 -8.31823 -1.19765e-15)
(149.165 -8.45853 -6.13057e-16)
(147.778 -8.58319 -4.42788e-22)
(146.529 -8.71238 -6.12435e-16)
(145.116 -8.83525 0)
(143.539 -8.94226 -2.95403e-22)
(142.005 -9.05105 1.25181e-15)
(140.332 -9.15175 -1.27258e-15)
(138.395 -9.23427 1.28938e-15)
(136.322 -9.30438 1.29052e-15)
(133.917 -9.35084 1.31784e-15)
(131.483 -9.3912 4.51373e-22)
(127.507 -9.32008 0)
(127.068 -9.44783 0)
(25.4258 -2.10529 -1.42159e-14)
(248.048 364.757 1.07234e-17)
(356.028 274.87 0)
(379.896 155.036 1.3182e-20)
(336.681 113.84 -1.10774e-16)
(322.14 90.6589 0)
(306.843 74.5631 5.7892e-22)
(295.242 63.1842 -6.239e-22)
(286.154 54.7378 0)
(278.578 48.138 -1.65466e-21)
(272.219 42.7765 1.75651e-21)
(267.044 38.4033 1.29284e-16)
(261.74 34.5477 1.38431e-16)
(257.942 31.3656 -1.53096e-16)
(252.918 28.3689 -3.16161e-16)
(249.96 25.8991 -2.6001e-21)
(246.174 23.6009 -1.71262e-16)
(243.553 21.5701 0)
(241.184 19.7482 -1.7758e-16)
(238.701 18.0272 -1.76412e-16)
(237.077 16.5007 1.81386e-16)
(234.734 15.0218 -1.77382e-16)
(233.15 13.6699 -3.65333e-16)
(231.098 12.3847 -1.09833e-21)
(229.187 11.1657 -3.60884e-16)
(227.369 10.0229 -1.80558e-16)
(225.28 8.92267 0)
(223.579 7.89147 0)
(221.474 6.90203 1.76319e-16)
(219.661 5.96405 -8.94856e-17)
(217.656 5.06623 8.81878e-17)
(215.72 4.21401 0)
(213.76 3.39426 -8.6886e-17)
(211.753 2.61846 -8.58932e-17)
(209.824 1.86901 -4.30793e-17)
(207.737 1.16343 0)
(205.774 0.480985 2.59015e-21)
(203.616 -0.160346 -2.50577e-21)
(201.565 -0.781091 2.05849e-17)
(199.342 -1.36139 -4.03815e-17)
(197.187 -1.92401 0)
(194.894 -2.44448 0)
(192.506 -2.95009 -3.10417e-16)
(194.124 -3.43713 0)
(193.42 -3.83536 1.93647e-16)
(192.252 -4.19109 0)
(191.064 -4.53682 -1.34648e-21)
(189.825 -4.85639 1.51164e-21)
(188.625 -5.15827 -2.00633e-16)
(187.415 -5.44872 2.02027e-16)
(186.226 -5.71461 -2.03625e-16)
(185.045 -5.97857 0)
(183.877 -6.21473 2.06505e-16)
(182.725 -6.45345 -2.07843e-16)
(181.583 -6.66689 0)
(180.446 -6.88316 1.9545e-22)
(179.331 -7.07715 1.61217e-21)
(178.204 -7.27193 -8.45606e-16)
(177.123 -7.45041 8.19141e-22)
(176.006 -7.62593 -8.12412e-22)
(174.956 -7.79556 -4.33287e-16)
(173.854 -7.95876 8.25573e-22)
(172.826 -8.13926 -8.32595e-22)
(171.665 -8.32704 0)
(170.547 -8.50282 4.40896e-16)
(169.334 -8.67942 -2.87607e-24)
(168.141 -8.84287 -4.44226e-16)
(166.901 -9.00986 4.44874e-16)
(165.583 -9.16012 4.45266e-16)
(164.338 -9.31796 4.55388e-16)
(162.855 -9.45786 8.99585e-16)
(161.441 -9.59814 4.55993e-16)
(159.957 -9.7377 -4.40508e-22)
(158.261 -9.85825 9.20954e-16)
(156.544 -9.97669 -9.32633e-16)
(154.727 -10.0893 1.89495e-15)
(152.68 -10.1859 -4.56252e-22)
(150.397 -10.2636 -9.60328e-16)
(147.793 -10.3182 -9.78858e-16)
(145.154 -10.3656 1.00115e-15)
(140.919 -10.2989 1.01737e-15)
(140.403 -10.4073 1.04271e-15)
(43.6221 -3.57515 1.55029e-14)
(260.109 383.021 -5.7993e-18)
(378.341 292.465 -1.04344e-16)
(402.824 164.624 -3.51616e-17)
(355.861 120.425 9.31655e-17)
(339.446 95.5934 5.25503e-17)
(323.82 78.7342 5.887e-17)
(311.779 66.7565 6.65095e-17)
(302.344 57.8602 -1.09554e-21)
(294.553 50.9185 8.10617e-17)
(288.079 45.2848 1.32697e-21)
(282.807 40.6836 -9.7155e-17)
(277.704 36.666 3.21202e-21)
(273.813 33.3056 -3.4682e-21)
(269.195 30.2035 1.19642e-16)
(265.933 27.5618 4.03694e-21)
(262.176 25.142 -8.05739e-21)
(259.267 22.9675 8.3355e-21)
(256.688 21.0229 -4.20653e-21)
(254.075 19.1927 0)
(252.169 17.5552 0)
(249.78 15.9885 2.8191e-16)
(247.967 14.5421 1.45446e-16)
(245.854 13.1788 -1.43943e-16)
(243.84 11.8826 1.44663e-16)
(241.922 10.6674 -1.4574e-16)
(239.804 9.50072 2.1993e-21)
(237.988 8.40268 -2.23076e-21)
(235.878 7.35349 -2.9573e-22)
(233.99 6.35553 -2.22428e-21)
(231.966 5.40164 -1.43366e-16)
(229.992 4.495 0)
(228.001 3.62253 7.10594e-17)
(225.977 2.79642 1.40207e-23)
(224.018 1.99744 3.51907e-17)
(221.925 1.24483 3.45839e-17)
(219.935 0.515988 8.65833e-18)
(217.78 -0.169647 4.2445e-18)
(215.706 -0.834061 0)
(213.489 -1.45618 3.3257e-17)
(211.319 -2.06011 -2.02538e-21)
(209.029 -2.61998 1.97607e-21)
(206.629 -3.16604 2.56668e-16)
(207.657 -3.67677 0)
(206.916 -4.10204 0)
(205.705 -4.48326 -1.60501e-16)
(204.474 -4.85406 1.62874e-16)
(203.19 -5.19713 0)
(201.94 -5.52122 1.65793e-16)
(200.682 -5.8333 1.14773e-21)
(199.445 -6.11912 -2.57005e-21)
(198.215 -6.40298 -4.87218e-24)
(197 -6.65714 -1.70982e-16)
(195.799 -6.9141 -1.31121e-21)
(194.608 -7.14402 0)
(193.423 -7.3771 3.4863e-16)
(192.252 -7.586 -3.50929e-16)
(191.077 -7.7962 7.03687e-16)
(189.947 -7.98878 3.5597e-16)
(188.778 -8.17834 -3.55361e-16)
(187.677 -8.36132 1.37572e-21)
(186.529 -8.53797 4.48468e-24)
(185.443 -8.73241 -3.63633e-16)
(184.228 -8.93535 -1.37886e-21)
(183.048 -9.12495 -3.66962e-16)
(181.774 -9.3159 6.99744e-22)
(180.515 -9.49249 3.6999e-16)
(179.204 -9.67282 0)
(177.816 -9.8357 0)
(176.49 -10.0057 0)
(174.941 -10.1584 -3.75083e-16)
(173.43 -10.3096 -3.81181e-16)
(171.857 -10.4607 0)
(170.072 -10.5924 -7.68225e-16)
(168.242 -10.7206 0)
(166.308 -10.8428 -7.91949e-16)
(164.141 -10.9486 1.89333e-24)
(161.722 -11.0343 -7.65247e-22)
(158.952 -11.095 8.17233e-16)
(156.143 -11.1473 8.35187e-16)
(151.661 -11.0818 -8.45453e-16)
(151.1 -11.1638 6.08876e-22)
(63.3679 -5.17887 0)
(269.112 396.684 1.06316e-17)
(396.209 306.732 1.76592e-16)
(421.304 172.466 0)
(371.456 125.838 -1.50011e-16)
(353.104 99.5224 -8.4092e-17)
(337.129 82.0287 -9.4138e-17)
(324.625 69.5501 -1.06266e-16)
(314.868 60.2901 3.5936e-21)
(306.906 53.0804 -1.29967e-16)
(300.368 47.238 7.12136e-17)
(295.066 42.4653 2.42422e-21)
(290.145 38.3238 -2.53169e-21)
(286.261 34.8333 0)
(282.002 31.6523 0)
(278.69 28.8947 3.3209e-21)
(275.072 26.3884 -1.09472e-16)
(272.055 24.1086 3.45692e-21)
(269.387 22.0703 -1.16631e-16)
(266.73 20.1551 1.16996e-16)
(264.667 18.4311 -3.73581e-21)
(262.277 16.7939 -1.19965e-16)
(260.33 15.2721 3.80601e-21)
(258.202 13.8454 -3.74498e-21)
(256.133 12.486 1.24078e-16)
(254.169 11.2115 2.50973e-16)
(252.044 9.98947 1.2363e-16)
(250.162 8.8361 -1.26678e-16)
(248.069 7.73698 -6.20157e-17)
(246.133 6.68863 3.82255e-21)
(244.106 5.68748 6.21152e-17)
(242.115 4.73489 0)
(240.119 3.81791 -6.1795e-17)
(238.09 2.94906 3.72283e-21)
(236.109 2.10791 -3.06108e-17)
(234.027 1.31527 -3.01466e-17)
(232.017 0.546821 -7.53789e-18)
(229.878 -0.17665 0)
(227.795 -0.87843 0)
(225.591 -1.53638 2.90612e-17)
(223.411 -2.17572 -1.75868e-21)
(221.14 -2.76948 0)
(218.743 -3.35062 -1.63408e-22)
(219.282 -3.8822 -2.10473e-21)
(218.507 -4.33053 2.12933e-21)
(217.275 -4.73391 1.40898e-16)
(216.003 -5.12621 1.42858e-16)
(214.685 -5.48963 4.39122e-21)
(213.398 -5.83299 8.84595e-24)
(212.104 -6.16382 -1.46694e-16)
(210.831 -6.46697 -8.64126e-24)
(209.564 -6.76813 4.55289e-21)
(208.312 -7.03797 1.50319e-16)
(207.073 -7.31081 1.51415e-16)
(205.845 -7.55512 0)
(204.622 -7.80285 -3.0679e-16)
(203.414 -8.02511 3.09288e-16)
(202.203 -8.24879 -6.20376e-16)
(201.027 -8.45342 -1.60607e-22)
(199.825 -8.65558 3.13463e-16)
(198.675 -8.84998 0)
(197.491 -9.03844 0)
(196.358 -9.24508 3.20609e-16)
(195.107 -9.46163 2.43905e-21)
(193.871 -9.66304 -1.23265e-21)
(192.553 -9.86691 0)
(191.235 -10.0547 -9.64343e-23)
(189.871 -10.2471 0)
(188.428 -10.4211 3.28775e-16)
(187.027 -10.6014 3.35031e-16)
(185.423 -10.7653 3.3118e-16)
(183.838 -10.9265 3.36921e-16)
(182.183 -11.0873 0)
(180.324 -11.229 -6.48372e-22)
(178.403 -11.3661 6.89187e-16)
(176.369 -11.4965 0)
(174.094 -11.61 0)
(171.565 -11.7031 0)
(168.654 -11.7692 0)
(165.696 -11.8255 -7.37271e-16)
(160.996 -11.7612 7.44686e-16)
(160.385 -11.8112 -1.53622e-15)
(82.1802 -6.71717 3.2549e-14)
(275.651 406.758 -9.31528e-18)
(410.852 318.629 -1.55027e-16)
(436.364 179 -3.73658e-22)
(384.301 130.364 6.2687e-17)
(364.35 102.797 8.02048e-21)
(348.071 84.7644 3.97445e-17)
(335.246 71.8796 9.01865e-17)
(325.275 62.3243 -5.02733e-17)
(317.213 54.8961 5.55397e-17)
(310.656 48.8828 -2.91373e-21)
(305.371 43.9706 6.7348e-17)
(300.606 39.7244 4.45903e-21)
(296.778 36.1294 -4.85437e-21)
(292.809 32.8797 5.1597e-21)
(289.55 30.0336 -1.13997e-20)
(286.108 27.4588 1.41054e-20)
(283.078 25.0956 8.73795e-23)
(280.389 22.9809 1.0244e-16)
(277.734 20.9947 -1.03111e-16)
(275.582 19.1986 6.5357e-21)
(273.214 17.5009 -1.06371e-16)
(271.192 15.9154 6.69944e-21)
(269.067 14.4338 1.09884e-16)
(266.977 13.02 -9.1993e-22)
(264.991 11.694 -1.45806e-20)
(262.875 10.4235 -2.21324e-16)
(260.956 9.22182 1.13575e-16)
(258.883 8.07852 3.41097e-21)
(256.924 6.98589 -3.4348e-21)
(254.903 5.94287 0)
(252.906 4.94957 -3.4218e-21)
(250.911 3.993 5.56925e-17)
(248.885 3.08612 -5.51916e-17)
(246.895 2.20743 2.76091e-17)
(244.824 1.37907 0)
(242.805 0.575277 0)
(240.681 -0.182003 0)
(238.595 -0.917196 -3.27316e-21)
(236.406 -1.60721 -2.6281e-17)
(234.226 -2.27827 3.18119e-21)
(231.973 -2.90237 -3.14748e-21)
(229.585 -3.51518 -1.86178e-22)
(229.723 -4.06626 7.60896e-21)
(228.911 -4.53513 1.26849e-16)
(227.665 -4.95841 1.27929e-16)
(226.363 -5.37015 -1.29703e-16)
(225.018 -5.75195 -3.97996e-21)
(223.701 -6.11273 -1.3223e-16)
(222.378 -6.46053 4.0602e-21)
(221.075 -6.77937 0)
(219.778 -7.0962 0)
(218.495 -7.38025 0)
(217.226 -7.6675 -2.75485e-16)
(215.966 -7.92486 2.77649e-16)
(214.712 -8.1859 5.58429e-16)
(213.474 -8.42025 0)
(212.231 -8.6562 -1.98963e-21)
(211.017 -8.87183 -2.85511e-16)
(209.787 -9.08542 2.85626e-16)
(208.596 -9.29027 -2.89044e-16)
(207.382 -9.48947 -2.8858e-16)
(206.209 -9.70722 2.92171e-16)
(204.927 -9.93608 0)
(203.642 -10.1483 0)
(202.287 -10.3639 0)
(200.918 -10.562 -2.97648e-16)
(199.508 -10.7652 -1.1404e-21)
(198.015 -10.9493 -2.99906e-16)
(196.55 -11.1392 -3.05502e-16)
(194.899 -11.3134 -3.02034e-16)
(193.247 -11.4836 -3.07354e-16)
(191.521 -11.6533 0)
(189.598 -11.804 0)
(187.597 -11.9491 -6.28637e-16)
(185.473 -12.0871 -1.21763e-21)
(183.104 -12.2077 6.12207e-22)
(180.477 -12.3075 0)
(177.44 -12.3785 6.57761e-16)
(174.349 -12.4382 -6.40567e-22)
(169.458 -12.376 -6.77454e-16)
(168.784 -12.389 7.00265e-16)
(98.6376 -8.08715 -3.09769e-14)
(280.167 413.938 1.45025e-17)
(423.135 328.843 7.00909e-17)
(449.319 184.779 2.1405e-22)
(395.531 134.39 -5.50708e-17)
(374.225 105.714 3.15359e-17)
(357.661 87.1907 -3.53643e-17)
(344.595 73.9511 -7.36317e-21)
(334.463 64.1363 4.4993e-17)
(326.33 56.5144 4.97337e-17)
(319.767 50.3491 -1.09302e-16)
(314.508 45.3133 -6.03562e-17)
(309.871 40.9714 0)
(306.109 37.285 4.44142e-21)
(302.372 33.9708 -4.51895e-21)
(299.201 31.0502 8.37231e-17)
(295.938 28.4163 8.54345e-17)
(292.949 25.9833 8.99926e-17)
(290.277 23.8025 9.26683e-17)
(287.65 21.7542 0)
(285.453 19.8952 9.79659e-17)
(283.117 18.1435 1.46028e-21)
(281.057 16.5018 0)
(278.945 14.9707 -1.00475e-16)
(276.853 13.5082 -1.01398e-16)
(274.86 12.1356 -1.02935e-16)
(272.762 10.8213 1.016e-16)
(270.824 9.57599 6.39579e-21)
(268.774 8.39231 -6.22828e-21)
(266.806 7.25946 0)
(264.795 6.17815 5.14697e-17)
(262.8 5.14762 6.30974e-21)
(260.809 4.15477 -5.13844e-17)
(258.79 3.213 1.0189e-16)
(256.797 2.29989 -5.09921e-17)
(254.739 1.43869 -2.5136e-17)
(252.716 0.60243 -6.12648e-21)
(250.607 -0.185944 0)
(248.523 -0.951876 0)
(246.348 -1.67139 2.43153e-17)
(244.173 -2.37168 0)
(241.937 -3.02369 -4.76092e-17)
(239.562 -3.66586 -1.77745e-22)
(239.363 -4.23566 0)
(238.512 -4.72336 -1.17637e-16)
(237.254 -5.16496 -2.37433e-16)
(235.928 -5.59473 -3.68163e-21)
(234.561 -5.99356 -1.21329e-16)
(233.219 -6.37052 2.4559e-16)
(231.872 -6.73407 -1.23833e-16)
(230.543 -7.06748 1.24987e-16)
(229.221 -7.39887 -3.83981e-21)
(227.912 -7.69613 -3.88493e-21)
(226.616 -7.99677 1.28055e-16)
(225.329 -8.26628 -2.58161e-16)
(224.048 -8.53969 -2.59648e-16)
(222.781 -8.78527 0)
(221.512 -9.03262 2.62847e-16)
(220.265 -9.25857 -4.05984e-21)
(219.009 -9.48274 -2.65789e-16)
(217.784 -9.6974 2.68973e-16)
(216.542 -9.9066 2.68585e-16)
(215.335 -10.1347 -5.43896e-16)
(214.023 -10.375 -4.14079e-21)
(212.697 -10.5973 2.09191e-21)
(211.307 -10.8237 -2.09928e-21)
(209.894 -11.0315 2.77115e-16)
(208.44 -11.2448 -2.78846e-16)
(206.904 -11.4384 0)
(205.382 -11.6372 0)
(203.688 -11.8209 0)
(201.975 -11.9995 -2.86178e-16)
(200.186 -12.1776 -1.10591e-21)
(198.205 -12.3367 1.09625e-21)
(196.129 -12.4894 -5.85188e-16)
(193.925 -12.6343 0)
(191.471 -12.7616 5.72483e-22)
(188.754 -12.8676 6.01339e-16)
(185.604 -12.9433 4.18905e-22)
(182.393 -13.006 0)
(177.332 -12.9466 -3.01289e-22)
(176.576 -12.9173 3.09207e-22)
(112.748 -9.29215 -1.40298e-14)
(283.112 418.891 -1.27075e-17)
(433.544 337.771 6.50426e-17)
(460.943 190.142 -1.94005e-17)
(405.838 138.164 1.00939e-16)
(383.323 108.448 -1.86856e-21)
(366.466 89.4497 3.26804e-17)
(353.196 75.8796 -3.72636e-17)
(342.924 65.822 -2.59882e-21)
(334.722 58.0178 -4.59924e-17)
(328.148 51.7088 5.04837e-17)
(322.91 46.5568 5.5681e-17)
(318.37 42.1227 0)
(314.671 38.3515 -8.17108e-21)
(311.116 34.9739 -6.86045e-17)
(308.041 31.9863 -7.68717e-17)
(304.947 29.2983 9.50053e-21)
(302.029 26.8036 -8.28922e-17)
(299.396 24.5638 -8.5572e-17)
(296.812 22.4591 -2.11143e-20)
(294.597 20.5434 9.17058e-21)
(292.3 18.742 1.59213e-21)
(290.224 17.0492 9.36877e-17)
(288.131 15.4723 0)
(286.05 13.9648 9.45258e-17)
(284.059 12.5492 0)
(281.984 11.1942 1.16312e-20)
(280.039 9.90843 -1.18682e-20)
(278.012 8.68702 0)
(276.044 7.51675 0)
(274.046 6.39966 -9.64398e-17)
(272.057 5.33434 -5.87451e-21)
(270.074 4.30751 0)
(268.064 3.33307 -4.77964e-17)
(266.074 2.38773 2.39208e-17)
(264.027 1.49573 5.83623e-21)
(262.005 0.629018 0)
(259.91 -0.188528 -5.69632e-21)
(257.829 -0.983306 1.16266e-17)
(255.669 -1.7305 -2.28645e-17)
(253.5 -2.45825 5.53625e-21)
(251.28 -3.13643 4.47793e-17)
(248.92 -3.8063 -8.85823e-17)
(248.435 -4.3944 5.43184e-17)
(247.539 -4.89968 6.77611e-21)
(246.271 -5.35846 2.237e-16)
(244.926 -5.80523 0)
(243.541 -6.22014 1.1438e-16)
(242.176 -6.61237 -7.24553e-21)
(240.808 -6.9908 1.16781e-16)
(239.457 -7.33799 -1.17879e-16)
(238.112 -7.68313 0)
(236.78 -7.9929 0)
(235.46 -8.3062 3.69414e-21)
(234.149 -8.58721 -3.71072e-21)
(232.843 -8.87233 3.74611e-21)
(231.551 -9.1285 1.31043e-23)
(230.257 -9.38665 -2.48156e-16)
(228.982 -9.62241 -2.50785e-16)
(227.701 -9.85657 -2.50974e-16)
(226.445 -10.0806 -2.54e-16)
(225.179 -10.2992 0)
(223.94 -10.5371 2.56847e-16)
(222.601 -10.7881 0)
(221.238 -11.0202 0)
(219.815 -11.2567 0)
(218.362 -11.4737 -2.61751e-16)
(216.869 -11.6965 2.63396e-16)
(215.292 -11.8991 -4.02512e-21)
(213.719 -12.1064 2.68649e-16)
(211.985 -12.2991 -2.65633e-16)
(210.217 -12.4857 2.70276e-16)
(208.37 -12.6717 8.4298e-24)
(206.335 -12.8388 -2.07032e-21)
(204.191 -12.9986 5.52476e-16)
(201.912 -13.1502 0)
(199.379 -13.2838 -5.65031e-16)
(196.579 -13.3956 -5.67338e-16)
(193.326 -13.4758 -1.51584e-22)
(190.004 -13.541 0)
(184.79 -13.4856 0)
(183.932 -13.4073 1.4674e-22)
(125.223 -10.388 1.21983e-14)
(284.889 422.203 0)
(442.346 345.639 3.27643e-19)
(471.656 195.283 1.8262e-17)
(415.625 141.832 -4.75769e-17)
(391.986 111.103 -1.59487e-21)
(374.819 91.627 -3.09761e-17)
(361.355 77.7344 -4.16412e-21)
(350.946 67.4397 0)
(342.67 59.4565 0)
(336.071 53.0063 -4.76319e-17)
(330.839 47.7403 -5.24626e-17)
(326.368 43.2144 6.72553e-21)
(322.718 39.361 -6.21448e-17)
(319.304 35.9194 1.2827e-16)
(316.32 32.8683 0)
(313.377 30.1284 9.01385e-21)
(310.543 27.5775 1.3592e-22)
(307.964 25.2831 -1.95701e-20)
(305.432 23.126 9.84651e-21)
(303.217 21.1578 -8.53895e-17)
(300.963 19.3095 8.46834e-17)
(298.885 17.5692 -8.82908e-17)
(296.817 15.9491 0)
(294.752 14.3993 -8.92475e-17)
(292.771 12.9432 -1.10345e-20)
(290.722 11.5495 -1.10011e-20)
(288.778 10.2257 1.12341e-20)
(286.774 8.96841 4.53845e-17)
(284.812 7.76272 -4.61547e-17)
(282.829 6.61163 2.48678e-22)
(280.85 5.51327 1.11457e-20)
(278.875 4.45413 1.12017e-20)
(276.876 3.44862 -1.10428e-20)
(274.89 2.47262 0)
(272.855 1.5513 2.24294e-17)
(270.837 0.655609 5.62834e-18)
(268.755 -0.189714 6.51214e-23)
(266.678 -1.01196 -1.106e-17)
(264.533 -1.78551 0)
(262.371 -2.53941 0)
(260.166 -3.24249 0)
(257.822 -3.93885 0)
(257.09 -4.54502 -6.45082e-21)
(256.145 -5.06698 1.05466e-16)
(254.867 -5.54207 -2.21351e-22)
(253.506 -6.00508 -6.61191e-21)
(252.105 -6.43535 6.6391e-21)
(250.721 -6.84219 -1.79111e-22)
(249.333 -7.23485 -1.11319e-16)
(247.962 -7.59523 -1.12395e-16)
(246.597 -7.95354 6.90788e-21)
(245.244 -8.27529 0)
(243.902 -8.60072 -7.04662e-21)
(242.569 -8.89275 -2.32373e-16)
(241.241 -9.18908 2.51365e-23)
(239.924 -9.45541 -7.18757e-21)
(238.608 -9.7239 4.73523e-16)
(237.306 -9.96908 -7.11703e-21)
(236.003 -10.2128 2.39502e-16)
(234.719 -10.4458 2.42394e-16)
(233.429 -10.6735 3.69994e-21)
(232.161 -10.9208 1.2121e-23)
(230.796 -11.182 -3.72688e-21)
(229.4 -11.4233 0)
(227.946 -11.6696 2.47642e-16)
(226.457 -11.8955 2.49821e-16)
(224.926 -12.1274 0)
(223.311 -12.3386 3.84845e-21)
(221.691 -12.554 -2.56357e-16)
(219.919 -12.7553 5.06972e-16)
(218.099 -12.9496 -2.57878e-16)
(216.198 -13.1432 -8.04208e-24)
(214.112 -13.3179 3.95834e-21)
(211.905 -13.4845 8.90559e-24)
(209.557 -13.6425 5.34704e-16)
(206.952 -13.7823 1.07721e-15)
(204.074 -13.8994 0)
(200.725 -13.9841 -5.49398e-16)
(197.301 -14.0515 0)
(191.948 -14.0011 -5.39341e-22)
(190.961 -13.8662 8.34561e-22)
(136.748 -11.4289 1.0333e-14)
(285.794 424.307 -7.39327e-22)
(449.691 352.589 -5.69142e-17)
(481.68 200.322 1.77261e-17)
(425.14 145.495 0)
(400.433 113.751 -3.42891e-21)
(382.929 93.7805 2.99409e-17)
(369.269 79.5622 3.41086e-17)
(358.717 69.0287 0)
(350.353 60.8647 -1.03962e-20)
(343.712 54.2715 4.56776e-17)
(338.469 48.8904 0)
(334.038 44.2709 -5.32133e-17)
(330.421 40.3354 5.90927e-17)
(327.112 36.8279 -6.07777e-17)
(324.206 33.7145 0)
(321.393 30.9234 0)
(318.648 28.3192 -7.33807e-17)
(316.13 25.9732 7.59563e-17)
(313.655 23.7664 7.69889e-17)
(311.453 21.7486 8.10743e-17)
(309.242 19.8555 0)
(307.173 18.07 8.39782e-17)
(305.131 16.4085 -1.95054e-22)
(303.089 14.8183 -8.50225e-17)
(301.121 13.3233 8.65741e-17)
(299.1 11.8927 8.56865e-17)
(297.162 10.5323 8.8221e-17)
(295.181 9.24054 -4.33993e-17)
(293.23 8.00088 4.41482e-17)
(291.262 6.81708 -2.10657e-20)
(289.294 5.68695 4.3861e-17)
(287.33 4.59674 -1.0723e-20)
(285.342 3.56132 -6.93451e-23)
(283.362 2.55582 -2.17621e-17)
(281.339 1.60627 0)
(279.326 0.682684 -5.3734e-18)
(277.256 -0.189383 -2.6708e-18)
(275.185 -1.03807 1.05953e-17)
(273.053 -1.83699 1.01511e-20)
(270.9 -2.61607 0)
(268.709 -3.3431 4.08736e-17)
(266.382 -4.06504 9.84787e-21)
(265.435 -4.68921 -4.95651e-17)
(264.436 -5.22721 -1.01213e-16)
(263.147 -5.71792 -1.02287e-16)
(261.773 -6.19657 0)
(260.356 -6.64166 -1.28073e-20)
(258.954 -7.06263 -2.12027e-16)
(257.549 -7.46904 -1.28995e-20)
(256.16 -7.84216 1.08014e-16)
(254.775 -8.21321 0)
(253.402 -8.54653 0)
(252.04 -8.88369 1.10776e-16)
(250.687 -9.18637 2.234e-16)
(249.338 -9.49355 -2.24767e-16)
(247.999 -9.76971 6.91055e-21)
(246.661 -10.0482 -4.55315e-16)
(245.335 -10.3025 7.22151e-21)
(244.01 -10.5555 -2.30315e-16)
(242.7 -10.7971 -7.12511e-21)
(241.388 -11.0336 2.32825e-16)
(240.093 -11.29 7.18319e-21)
(238.704 -11.5611 7.19298e-21)
(237.277 -11.8114 2.38129e-16)
(235.793 -12.0671 -2.38176e-16)
(234.27 -12.3015 -8.73552e-23)
(232.703 -12.5422 -2.41741e-16)
(231.054 -12.7617 0)
(229.389 -12.9851 0)
(227.581 -13.1946 -2.43722e-16)
(225.712 -13.3964 2.47898e-16)
(223.761 -13.5974 -3.81485e-21)
(221.627 -13.7794 0)
(219.36 -13.9526 0)
(216.947 -14.1168 -5.13594e-16)
(214.274 -14.2624 -5.1719e-16)
(211.324 -14.3847 1.97461e-21)
(207.886 -14.4738 1.00847e-21)
(204.365 -14.5429 5.37262e-16)
(198.888 -14.4985 0)
(197.738 -14.2987 5.60412e-16)
(147.825 -12.4545 -8.68411e-15)
(286.042 425.517 2.35925e-17)
(455.696 358.741 -5.42324e-17)
(491.128 205.34 -1.72282e-17)
(434.537 149.224 -1.8042e-21)
(408.813 116.446 0)
(390.942 95.9536 2.93064e-17)
(377.074 81.3981 -3.33728e-17)
(366.368 70.6186 0)
(357.899 62.2679 0)
(351.196 55.5269 0)
(345.922 50.0271 -4.84963e-17)
(341.505 45.3103 5.12863e-17)
(337.903 41.291 -5.67725e-17)
(334.665 37.7147 -1.4342e-20)
(331.82 34.5388 1.57109e-20)
(329.115 31.6956 0)
(326.456 29.0395 7.0053e-17)
(324 26.6437 -7.25509e-17)
(321.584 24.3887 -1.47131e-16)
(319.403 22.3233 -2.3579e-21)
(317.236 20.3866 -3.76103e-20)
(315.183 18.5576 -8.04559e-17)
(313.169 16.8559 8.05789e-17)
(311.151 15.2267 8.16148e-17)
(309.2 13.6941 -8.31374e-17)
(307.207 12.2275 -8.2276e-17)
(305.28 10.8318 -8.48393e-17)
(303.322 9.50652 -4.16961e-17)
(301.382 8.23391 1.50502e-22)
(299.431 7.01834 4.20576e-17)
(297.476 5.85738 -4.21957e-17)
(295.522 4.73698 0)
(293.546 3.67251 -4.18788e-17)
(291.573 2.63835 1.33251e-22)
(289.562 1.66137 -2.07225e-17)
(287.554 0.710698 -5.21297e-18)
(285.497 -0.187348 1.99246e-20)
(283.431 -1.06171 -2.00717e-20)
(281.313 -1.88526 1.9596e-20)
(279.168 -2.68879 -4.00532e-17)
(276.99 -3.43905 -3.95182e-17)
(274.681 -4.18587 1.90227e-20)
(273.547 -4.8281 -4.78254e-17)
(272.487 -5.38169 -9.76712e-17)
(271.187 -5.88749 -9.87981e-17)
(269.8 -6.38131 -1.22179e-20)
(268.369 -6.84082 -1.01168e-16)
(266.951 -7.27552 1.0245e-16)
(265.529 -7.69531 1.03372e-16)
(264.123 -8.08085 0)
(262.72 -8.46429 0)
(261.329 -8.80891 0)
(259.948 -9.15748 -1.07097e-16)
(258.575 -9.47055 0)
(257.206 -9.78829 2.17324e-16)
(255.846 -10.074 0)
(254.488 -10.3622 2.20146e-16)
(253.139 -10.6255 2.26253e-22)
(251.793 -10.8874 1.94068e-22)
(250.459 -11.1376 -2.25443e-16)
(249.125 -11.3826 -2.25178e-16)
(247.804 -11.6478 6.94742e-21)
(246.392 -11.9284 -2.27591e-16)
(244.936 -12.1875 -4.60607e-16)
(243.425 -12.4523 -7.04178e-21)
(241.869 -12.6952 -4.6468e-16)
(240.269 -12.9444 2.33765e-16)
(238.585 -13.1719 -2.3408e-16)
(236.879 -13.4031 -2.38295e-16)
(235.037 -13.6206 0)
(233.123 -13.8297 0)
(231.123 -14.0378 0)
(228.944 -14.2269 0)
(226.621 -14.4066 3.73954e-21)
(224.147 -14.5767 -7.56857e-21)
(221.41 -14.728 3.80018e-21)
(218.391 -14.8553 0)
(214.87 -14.9487 -5.08364e-16)
(211.259 -15.0189 -5.17879e-16)
(205.672 -14.9818 -5.18957e-16)
(204.318 -14.7083 -5.39476e-16)
(158.863 -13.4968 7.35124e-15)
(285.797 426.072 -2.16545e-17)
(460.482 364.218 5.10559e-17)
(500.043 210.396 0)
(443.918 153.077 4.35986e-17)
(417.236 119.236 -2.59353e-17)
(398.967 98.1832 -2.89842e-17)
(384.872 83.2715 3.29145e-17)
(373.997 72.234 -3.65086e-17)
(365.404 63.6872 0)
(358.619 56.7909 -4.33186e-17)
(353.292 51.1667 3.17012e-20)
(348.862 46.3475 -2.39943e-20)
(345.254 42.241 5.49913e-17)
(342.058 38.5922 5.61904e-17)
(339.256 35.3519 6.24745e-17)
(336.635 32.4549 -4.92671e-22)
(334.054 29.7472 3.26028e-20)
(331.656 27.3021 3.42371e-20)
(329.298 24.9997 7.06826e-17)
(327.143 22.8879 -1.49149e-16)
(325.019 20.9083 -7.41323e-17)
(322.987 19.037 -7.74855e-17)
(321 17.2959 -7.75985e-17)
(319.009 15.6284 -3.82395e-20)
(317.076 14.0591 0)
(315.11 12.5572 0)