/*--------------------------------*- C++ -*----------------------------------*\
| =========                 |                                                 |
| \\      /  F ield         | OpenFOAM: The Open Source CFD Toolbox           |
|  \\    /   O peration     | Version:  5.x                                   |
|   \\  /    A nd           | Web:      www.OpenFOAM.org                      |
|    \\/     M anipulation  |                                                 |
\*---------------------------------------------------------------------------*/
FoamFile
{
    version     2.0;
    format      ascii;
    class       volScalarField;
    location    "1000";
    object      p;
}
// * * * * * * * * * * * * * * * * * * * * * * * * * * * * * * * * * * * * * //

dimensions      [0 2 -2 0 0 0 0];

internalField   nonuniform List<scalar> 
107912
(
2.71164e-05
5.37027e-05
2.62764e-05
1.52712e-05
-1.79079e-05
-4.58134e-05
-3.69241e-05
-6.07859e-05
-6.24478e-05
-7.29383e-05
-7.66851e-05
-8.15581e-05
-8.45547e-05
-8.68715e-05
-8.85162e-05
-8.9672e-05
-9.01208e-05
-9.05141e-05
-9.02611e-05
-8.98984e-05
-8.92992e-05
-8.83658e-05
-8.738e-05
-8.61951e-05
-8.4815e-05
-8.34073e-05
-8.18395e-05
-8.01785e-05
-7.84904e-05
-7.66813e-05
-7.48742e-05
-7.30224e-05
-7.11223e-05
-6.92486e-05
-6.73608e-05
-6.54839e-05
-6.36505e-05
-6.1845e-05
-6.01007e-05
-5.84173e-05
-5.67926e-05
-5.52648e-05
-5.38083e-05
-5.24471e-05
-5.11825e-05
-5.00061e-05
-4.89382e-05
-4.79522e-05
-4.70705e-05
-4.62658e-05
-4.55549e-05
-4.49133e-05
-4.44136e-05
-4.4e-05
-4.36435e-05
-4.33203e-05
-4.30358e-05
-4.27843e-05
-4.25582e-05
-4.23542e-05
-4.21749e-05
-4.20164e-05
-4.18755e-05
-4.17495e-05
-4.16386e-05
-4.15383e-05
-4.14478e-05
-4.13656e-05
-4.12868e-05
-4.12108e-05
-4.1137e-05
-4.10717e-05
-4.10047e-05
-4.09503e-05
-4.09034e-05
-4.08751e-05
-4.08603e-05
-4.08704e-05
-4.08934e-05
-4.09255e-05
-4.09763e-05
-4.10372e-05
-4.10987e-05
-4.11585e-05
-4.1218e-05
-4.1281e-05
-4.13339e-05
-4.13854e-05
-4.1432e-05
-4.14743e-05
-4.15013e-05
-4.15127e-05
-4.14881e-05
-4.14246e-05
-4.1284e-05
-4.10553e-05
-4.07131e-05
-4.02734e-05
-3.96902e-05
-3.90996e-05
-3.83987e-05
-4.01952e-05
3.81279e-05
5.36526e-05
2.61589e-05
1.51632e-05
-1.78413e-05
-4.56956e-05
-3.68864e-05
-6.071e-05
-6.23936e-05
-7.288e-05
-7.66407e-05
-8.1518e-05
-8.45229e-05
-8.68455e-05
-8.84949e-05
-8.96554e-05
-9.01078e-05
-9.05039e-05
-9.02539e-05
-8.98928e-05
-8.92957e-05
-8.83639e-05
-8.7379e-05
-8.61953e-05
-8.48161e-05
-8.34089e-05
-8.18418e-05
-8.01812e-05
-7.84935e-05
-7.66847e-05
-7.48778e-05
-7.30262e-05
-7.11262e-05
-6.92525e-05
-6.73647e-05
-6.54877e-05
-6.36543e-05
-6.18487e-05
-6.01043e-05
-5.84207e-05
-5.67959e-05
-5.52679e-05
-5.38111e-05
-5.24498e-05
-5.11849e-05
-5.00084e-05
-4.89403e-05
-4.79541e-05
-4.70723e-05
-4.62674e-05
-4.55563e-05
-4.49146e-05
-4.44147e-05
-4.40011e-05
-4.36444e-05
-4.33212e-05
-4.30366e-05
-4.2785e-05
-4.25588e-05
-4.23548e-05
-4.21754e-05
-4.20169e-05
-4.1876e-05
-4.17499e-05
-4.1639e-05
-4.15386e-05
-4.14481e-05
-4.13659e-05
-4.1287e-05
-4.12111e-05
-4.11373e-05
-4.10719e-05
-4.1005e-05
-4.09506e-05
-4.09037e-05
-4.08753e-05
-4.08605e-05
-4.08706e-05
-4.08935e-05
-4.09256e-05
-4.09763e-05
-4.10372e-05
-4.10987e-05
-4.11585e-05
-4.12179e-05
-4.12809e-05
-4.13338e-05
-4.13853e-05
-4.14318e-05
-4.14742e-05
-4.15012e-05
-4.15127e-05
-4.14881e-05
-4.14247e-05
-4.12844e-05
-4.1056e-05
-4.07142e-05
-4.02751e-05
-3.96926e-05
-3.91037e-05
-3.84037e-05
-4.01385e-05
3.95429e-05
5.35921e-05
2.60238e-05
1.50391e-05
-1.77705e-05
-4.55612e-05
-3.68441e-05
-6.06285e-05
-6.23327e-05
-7.28158e-05
-7.65907e-05
-8.1473e-05
-8.44868e-05
-8.68157e-05
-8.84703e-05
-8.9636e-05
-9.00922e-05
-9.04915e-05
-9.02448e-05
-8.98856e-05
-8.92906e-05
-8.83606e-05
-8.73769e-05
-8.61944e-05
-8.48163e-05
-8.34097e-05
-8.18434e-05
-8.01834e-05
-7.8496e-05
-7.66878e-05
-7.4881e-05
-7.30296e-05
-7.11298e-05
-6.92561e-05
-6.73685e-05
-6.54914e-05
-6.36579e-05
-6.18523e-05
-6.01078e-05
-5.8424e-05
-5.67991e-05
-5.52709e-05
-5.3814e-05
-5.24526e-05
-5.11874e-05
-5.00108e-05
-4.89424e-05
-4.79561e-05
-4.7074e-05
-4.6269e-05
-4.55578e-05
-4.49159e-05
-4.44159e-05
-4.40022e-05
-4.36454e-05
-4.33221e-05
-4.30374e-05
-4.27858e-05
-4.25595e-05
-4.23555e-05
-4.2176e-05
-4.20174e-05
-4.18764e-05
-4.17503e-05
-4.16394e-05
-4.15389e-05
-4.14484e-05
-4.13662e-05
-4.12873e-05
-4.12114e-05
-4.11376e-05
-4.10722e-05
-4.10055e-05
-4.0951e-05
-4.0904e-05
-4.08756e-05
-4.08609e-05
-4.08708e-05
-4.08937e-05
-4.09257e-05
-4.09763e-05
-4.10373e-05
-4.10987e-05
-4.11585e-05
-4.12179e-05
-4.12808e-05
-4.13337e-05
-4.13852e-05
-4.14317e-05
-4.14741e-05
-4.15011e-05
-4.15126e-05
-4.14881e-05
-4.14248e-05
-4.12847e-05
-4.10568e-05
-4.07154e-05
-4.02771e-05
-3.96953e-05
-3.91085e-05
-3.84101e-05
-4.01266e-05
3.8872e-05
5.3529e-05
2.58874e-05
1.49119e-05
-1.76994e-05
-4.5423e-05
-3.68007e-05
-6.05445e-05
-6.22703e-05
-7.27497e-05
-7.65393e-05
-8.14267e-05
-8.44495e-05
-8.67849e-05
-8.84448e-05
-8.96158e-05
-9.00761e-05
-9.04786e-05
-9.02353e-05
-8.9878e-05
-8.92853e-05
-8.83572e-05
-8.73745e-05
-8.61935e-05
-8.48164e-05
-8.34106e-05
-8.1845e-05
-8.01855e-05
-7.84986e-05
-7.66908e-05
-7.48842e-05
-7.30331e-05
-7.11335e-05
-6.92598e-05
-6.73723e-05
-6.54951e-05
-6.36616e-05
-6.1856e-05
-6.01113e-05
-5.84275e-05
-5.68024e-05
-5.5274e-05
-5.38169e-05
-5.24554e-05
-5.11899e-05
-5.00132e-05
-4.89446e-05
-4.79581e-05
-4.70759e-05
-4.62707e-05
-4.55593e-05
-4.49173e-05
-4.44171e-05
-4.40034e-05
-4.36465e-05
-4.33231e-05
-4.30382e-05
-4.27866e-05
-4.25602e-05
-4.23562e-05
-4.21767e-05
-4.2018e-05
-4.18769e-05
-4.17508e-05
-4.16398e-05
-4.15393e-05
-4.14487e-05
-4.13666e-05
-4.12877e-05
-4.12117e-05
-4.1138e-05
-4.10725e-05
-4.1006e-05
-4.09514e-05
-4.09044e-05
-4.08758e-05
-4.08613e-05
-4.08711e-05
-4.08939e-05
-4.0926e-05
-4.09764e-05
-4.10373e-05
-4.10987e-05
-4.11585e-05
-4.12179e-05
-4.12807e-05
-4.13336e-05
-4.13851e-05
-4.14316e-05
-4.14739e-05
-4.1501e-05
-4.15126e-05
-4.14882e-05
-4.1425e-05
-4.12851e-05
-4.10576e-05
-4.07167e-05
-4.02791e-05
-3.96979e-05
-3.91133e-05
-3.84167e-05
-4.01207e-05
3.86494e-05
5.34612e-05
2.57466e-05
1.47787e-05
-1.76254e-05
-4.52771e-05
-3.67548e-05
-6.04548e-05
-6.22046e-05
-7.26793e-05
-7.64849e-05
-8.13774e-05
-8.441e-05
-8.67523e-05
-8.84178e-05
-8.95944e-05
-9.0059e-05
-9.04649e-05
-9.02252e-05
-8.98701e-05
-8.92796e-05
-8.83536e-05
-8.73721e-05
-8.61926e-05
-8.48166e-05
-8.34115e-05
-8.18467e-05
-8.01878e-05
-7.85014e-05
-7.66941e-05
-7.48877e-05
-7.30368e-05
-7.11374e-05
-6.92637e-05
-6.73764e-05
-6.54991e-05
-6.36655e-05
-6.18599e-05
-6.01152e-05
-5.84311e-05
-5.68059e-05
-5.52774e-05
-5.38201e-05
-5.24584e-05
-5.11926e-05
-5.00158e-05
-4.8947e-05
-4.79603e-05
-4.70779e-05
-4.62726e-05
-4.5561e-05
-4.49188e-05
-4.44185e-05
-4.40047e-05
-4.36476e-05
-4.33242e-05
-4.30392e-05
-4.27875e-05
-4.2561e-05
-4.2357e-05
-4.21774e-05
-4.20186e-05
-4.18775e-05
-4.17513e-05
-4.16403e-05
-4.15398e-05
-4.14492e-05
-4.1367e-05
-4.1288e-05
-4.1212e-05
-4.11385e-05
-4.10728e-05
-4.10066e-05
-4.09518e-05
-4.09049e-05
-4.08761e-05
-4.08618e-05
-4.08715e-05
-4.08941e-05
-4.09262e-05
-4.09766e-05
-4.10374e-05
-4.10987e-05
-4.11585e-05
-4.12179e-05
-4.12805e-05
-4.13336e-05
-4.1385e-05
-4.14316e-05
-4.14738e-05
-4.15009e-05
-4.15126e-05
-4.14883e-05
-4.14252e-05
-4.12855e-05
-4.10585e-05
-4.0718e-05
-4.02812e-05
-3.97008e-05
-3.91184e-05
-3.84239e-05
-4.01115e-05
3.86846e-05
5.33872e-05
2.55997e-05
1.4638e-05
-1.75465e-05
-4.51206e-05
-3.67054e-05
-6.03577e-05
-6.21344e-05
-7.26036e-05
-7.64264e-05
-8.13244e-05
-8.43675e-05
-8.67171e-05
-8.83888e-05
-8.95713e-05
-9.00406e-05
-9.04503e-05
-9.02144e-05
-8.98615e-05
-8.92736e-05
-8.83497e-05
-8.73695e-05
-8.61917e-05
-8.48168e-05
-8.34125e-05
-8.18486e-05
-8.01904e-05
-7.85044e-05
-7.66976e-05
-7.48915e-05
-7.30408e-05
-7.11417e-05
-6.9268e-05
-6.73808e-05
-6.55034e-05
-6.36698e-05
-6.18641e-05
-6.01193e-05
-5.84351e-05
-5.68097e-05
-5.5281e-05
-5.38234e-05
-5.24616e-05
-5.11955e-05
-5.00186e-05
-4.89495e-05
-4.79627e-05
-4.708e-05
-4.62746e-05
-4.55628e-05
-4.49205e-05
-4.442e-05
-4.40062e-05
-4.36489e-05
-4.33254e-05
-4.30402e-05
-4.27885e-05
-4.25618e-05
-4.23578e-05
-4.21782e-05
-4.20193e-05
-4.18781e-05
-4.17519e-05
-4.16408e-05
-4.15403e-05
-4.14496e-05
-4.13674e-05
-4.12885e-05
-4.12124e-05
-4.1139e-05
-4.10731e-05
-4.10073e-05
-4.09523e-05
-4.09054e-05
-4.08764e-05
-4.08624e-05
-4.08719e-05
-4.08944e-05
-4.09265e-05
-4.09767e-05
-4.10375e-05
-4.10988e-05
-4.11586e-05
-4.12179e-05
-4.12804e-05
-4.13336e-05
-4.1385e-05
-4.14315e-05
-4.14737e-05
-4.15009e-05
-4.15126e-05
-4.14884e-05
-4.14253e-05
-4.12859e-05
-4.10595e-05
-4.07195e-05
-4.02835e-05
-3.97039e-05
-3.91238e-05
-3.84315e-05
-4.01e-05
3.87307e-05
5.33062e-05
2.5447e-05
1.44902e-05
-1.74622e-05
-4.49524e-05
-3.66524e-05
-6.02528e-05
-6.20593e-05
-7.25221e-05
-7.63637e-05
-8.12674e-05
-8.43219e-05
-8.66793e-05
-8.83576e-05
-8.95466e-05
-9.00209e-05
-9.04345e-05
-9.02028e-05
-8.98523e-05
-8.92672e-05
-8.83456e-05
-8.73668e-05
-8.61906e-05
-8.48171e-05
-8.34136e-05
-8.18507e-05
-8.01931e-05
-7.85076e-05
-7.67015e-05
-7.48956e-05
-7.30452e-05
-7.11463e-05
-6.92726e-05
-6.73856e-05
-6.55081e-05
-6.36745e-05
-6.18687e-05
-6.01238e-05
-5.84394e-05
-5.68138e-05
-5.52849e-05
-5.38271e-05
-5.24651e-05
-5.11986e-05
-5.00216e-05
-4.89522e-05
-4.79652e-05
-4.70824e-05
-4.62767e-05
-4.55648e-05
-4.49222e-05
-4.44216e-05
-4.40077e-05
-4.36503e-05
-4.33267e-05
-4.30413e-05
-4.27895e-05
-4.25627e-05
-4.23588e-05
-4.2179e-05
-4.20201e-05
-4.18788e-05
-4.17525e-05
-4.16414e-05
-4.15408e-05
-4.14501e-05
-4.13679e-05
-4.12889e-05
-4.12128e-05
-4.11395e-05
-4.10735e-05
-4.1008e-05
-4.09529e-05
-4.09059e-05
-4.08768e-05
-4.0863e-05
-4.08723e-05
-4.08947e-05
-4.09268e-05
-4.09769e-05
-4.10376e-05
-4.10989e-05
-4.11587e-05
-4.1218e-05
-4.12803e-05
-4.13335e-05
-4.1385e-05
-4.14314e-05
-4.14735e-05
-4.15008e-05
-4.15126e-05
-4.14885e-05
-4.14255e-05
-4.12863e-05
-4.10606e-05
-4.07211e-05
-4.02859e-05
-3.97072e-05
-3.91296e-05
-3.84398e-05
-4.00872e-05
3.8762e-05
5.32176e-05
2.52891e-05
1.43357e-05
-1.73711e-05
-4.47709e-05
-3.65954e-05
-6.0139e-05
-6.19789e-05
-7.24342e-05
-7.62963e-05
-8.1206e-05
-8.42728e-05
-8.66385e-05
-8.8324e-05
-8.95199e-05
-8.99996e-05
-9.04176e-05
-9.01903e-05
-8.98425e-05
-8.92602e-05
-8.83412e-05
-8.73638e-05
-8.61895e-05
-8.48173e-05
-8.34148e-05
-8.18529e-05
-8.0196e-05
-7.85111e-05
-7.67056e-05
-7.49e-05
-7.30499e-05
-7.11513e-05
-6.92776e-05
-6.73908e-05
-6.55131e-05
-6.36794e-05
-6.18737e-05
-6.01286e-05
-5.84441e-05
-5.68182e-05
-5.52891e-05
-5.3831e-05
-5.24689e-05
-5.1202e-05
-5.00248e-05
-4.89552e-05
-4.79679e-05
-4.70849e-05
-4.6279e-05
-4.55669e-05
-4.49241e-05
-4.44233e-05
-4.40094e-05
-4.36518e-05
-4.3328e-05
-4.30425e-05
-4.27906e-05
-4.25637e-05
-4.23598e-05
-4.218e-05
-4.20209e-05
-4.18795e-05
-4.17532e-05
-4.1642e-05
-4.15414e-05
-4.14507e-05
-4.13684e-05
-4.12894e-05
-4.12133e-05
-4.11402e-05
-4.10739e-05
-4.10088e-05
-4.09535e-05
-4.09066e-05
-4.08772e-05
-4.08637e-05
-4.08727e-05
-4.0895e-05
-4.09271e-05
-4.0977e-05
-4.10377e-05
-4.10989e-05
-4.11588e-05
-4.12181e-05
-4.12802e-05
-4.13335e-05
-4.13849e-05
-4.14313e-05
-4.14734e-05
-4.15007e-05
-4.15126e-05
-4.14886e-05
-4.14257e-05
-4.12868e-05
-4.10617e-05
-4.07229e-05
-4.02885e-05
-3.97107e-05
-3.91357e-05
-3.84487e-05
-4.00729e-05
3.87973e-05
5.31206e-05
2.51267e-05
1.41753e-05
-1.72719e-05
-4.45745e-05
-3.65344e-05
-6.00155e-05
-6.18928e-05
-7.23394e-05
-7.6224e-05
-8.114e-05
-8.42201e-05
-8.65947e-05
-8.82879e-05
-8.94912e-05
-8.99767e-05
-9.03993e-05
-9.01768e-05
-8.98318e-05
-8.92528e-05
-8.83364e-05
-8.73606e-05
-8.61883e-05
-8.48176e-05
-8.34161e-05
-8.18553e-05
-8.01992e-05
-7.85148e-05
-7.671e-05
-7.49047e-05
-7.3055e-05
-7.11566e-05
-6.92829e-05
-6.73963e-05
-6.55185e-05
-6.36847e-05
-6.18789e-05
-6.01338e-05
-5.8449e-05
-5.6823e-05
-5.52936e-05
-5.38352e-05
-5.24729e-05
-5.12056e-05
-5.00283e-05
-4.89584e-05
-4.79709e-05
-4.70876e-05
-4.62815e-05
-4.55692e-05
-4.49261e-05
-4.44252e-05
-4.40112e-05
-4.36534e-05
-4.33295e-05
-4.30438e-05
-4.27918e-05
-4.25648e-05
-4.23608e-05
-4.2181e-05
-4.20217e-05
-4.18803e-05
-4.17539e-05
-4.16427e-05
-4.15419e-05
-4.14513e-05
-4.13689e-05
-4.129e-05
-4.12138e-05
-4.11408e-05
-4.10744e-05
-4.10097e-05
-4.09541e-05
-4.09072e-05
-4.08776e-05
-4.08643e-05
-4.08732e-05
-4.08953e-05
-4.09275e-05
-4.09773e-05
-4.10378e-05
-4.1099e-05
-4.1159e-05
-4.12181e-05
-4.12801e-05
-4.13334e-05
-4.13849e-05
-4.14313e-05
-4.14732e-05
-4.15007e-05
-4.15126e-05
-4.14887e-05
-4.14259e-05
-4.12872e-05
-4.10629e-05
-4.07247e-05
-4.02913e-05
-3.97145e-05
-3.91423e-05
-3.84583e-05
-4.0057e-05
3.88422e-05
5.30145e-05
2.49608e-05
1.40099e-05
-1.71624e-05
-4.43607e-05
-3.64688e-05
-5.98809e-05
-6.18002e-05
-7.22369e-05
-7.6146e-05
-8.10687e-05
-8.41632e-05
-8.65475e-05
-8.8249e-05
-8.94603e-05
-8.9952e-05
-9.03797e-05
-9.01623e-05
-8.98204e-05
-8.92447e-05
-8.83312e-05
-8.73572e-05
-8.6187e-05
-8.48179e-05
-8.34174e-05
-8.18578e-05
-8.02026e-05
-7.85189e-05
-7.67148e-05
-7.49097e-05
-7.30604e-05
-7.11624e-05
-6.92887e-05
-6.74022e-05
-6.55243e-05
-6.36905e-05
-6.18846e-05
-6.01393e-05
-5.84544e-05
-5.68281e-05
-5.52984e-05
-5.38398e-05
-5.24772e-05
-5.12095e-05
-5.0032e-05
-4.89618e-05
-4.7974e-05
-4.70905e-05
-4.62842e-05
-4.55716e-05
-4.49283e-05
-4.44272e-05
-4.40132e-05
-4.36551e-05
-4.33311e-05
-4.30453e-05
-4.2793e-05
-4.2566e-05
-4.2362e-05
-4.21821e-05
-4.20226e-05
-4.18812e-05
-4.17547e-05
-4.16434e-05
-4.15426e-05
-4.14519e-05
-4.13695e-05
-4.12906e-05
-4.12144e-05
-4.11415e-05
-4.10749e-05
-4.10105e-05
-4.09548e-05
-4.09079e-05
-4.08781e-05
-4.0865e-05
-4.08737e-05
-4.08957e-05
-4.09278e-05
-4.09775e-05
-4.10379e-05
-4.10991e-05
-4.11591e-05
-4.12182e-05
-4.12799e-05
-4.13333e-05
-4.13848e-05
-4.14311e-05
-4.1473e-05
-4.15005e-05
-4.15126e-05
-4.14887e-05
-4.14261e-05
-4.12877e-05
-4.10642e-05
-4.07267e-05
-4.02942e-05
-3.97184e-05
-3.91492e-05
-3.84686e-05
-4.00393e-05
3.88984e-05
5.28983e-05
2.47921e-05
1.38405e-05
-1.70404e-05
-4.4127e-05
-3.63982e-05
-5.97339e-05
-6.17006e-05
-7.21259e-05
-7.6062e-05
-8.09917e-05
-8.41019e-05
-8.64964e-05
-8.82071e-05
-8.9427e-05
-8.99254e-05
-9.03585e-05
-9.01466e-05
-8.9808e-05
-8.9236e-05
-8.83256e-05
-8.73534e-05
-8.61856e-05
-8.48182e-05
-8.34189e-05
-8.18606e-05
-8.02062e-05
-7.85232e-05
-7.67199e-05
-7.49152e-05
-7.30662e-05
-7.11685e-05
-6.92948e-05
-6.74085e-05
-6.55305e-05
-6.36966e-05
-6.18907e-05
-6.01452e-05
-5.84601e-05
-5.68335e-05
-5.53036e-05
-5.38446e-05
-5.24818e-05
-5.12137e-05
-5.0036e-05
-4.89654e-05
-4.79774e-05
-4.70936e-05
-4.6287e-05
-4.55743e-05
-4.49307e-05
-4.44294e-05
-4.40152e-05
-4.3657e-05
-4.33328e-05
-4.30468e-05
-4.27944e-05
-4.25673e-05
-4.23632e-05
-4.21833e-05
-4.20236e-05
-4.18821e-05
-4.17555e-05
-4.16442e-05
-4.15433e-05
-4.14526e-05
-4.13701e-05
-4.12912e-05
-4.12149e-05
-4.11423e-05
-4.10754e-05
-4.10114e-05
-4.09556e-05
-4.09087e-05
-4.08786e-05
-4.08658e-05
-4.08742e-05
-4.08961e-05
-4.09282e-05
-4.09778e-05
-4.1038e-05
-4.10992e-05
-4.11592e-05
-4.12183e-05
-4.12798e-05
-4.13332e-05
-4.13847e-05
-4.1431e-05
-4.14728e-05
-4.15004e-05
-4.15125e-05
-4.14888e-05
-4.14263e-05
-4.12883e-05
-4.10656e-05
-4.07288e-05
-4.02973e-05
-3.97227e-05
-3.91566e-05
-3.84796e-05
-4.00197e-05
3.89671e-05
5.27711e-05
2.46224e-05
1.3669e-05
-1.6903e-05
-4.387e-05
-3.63217e-05
-5.95725e-05
-6.15929e-05
-7.20052e-05
-7.59711e-05
-8.09083e-05
-8.40356e-05
-8.64412e-05
-8.81619e-05
-8.93909e-05
-8.98967e-05
-9.03356e-05
-9.01297e-05
-8.97947e-05
-8.92266e-05
-8.83195e-05
-8.73494e-05
-8.6184e-05
-8.48185e-05
-8.34204e-05
-8.18635e-05
-8.02101e-05
-7.85278e-05
-7.67254e-05
-7.4921e-05
-7.30724e-05
-7.11751e-05
-6.93014e-05
-6.74153e-05
-6.55371e-05
-6.37032e-05
-6.18972e-05
-6.01516e-05
-5.84662e-05
-5.68394e-05
-5.53092e-05
-5.38498e-05
-5.24868e-05
-5.12182e-05
-5.00403e-05
-4.89693e-05
-4.7981e-05
-4.70969e-05
-4.62901e-05
-4.55771e-05
-4.49332e-05
-4.44317e-05
-4.40174e-05
-4.3659e-05
-4.33346e-05
-4.30484e-05
-4.27959e-05
-4.25686e-05
-4.23645e-05
-4.21845e-05
-4.20246e-05
-4.18831e-05
-4.17564e-05
-4.16451e-05
-4.1544e-05
-4.14534e-05
-4.13707e-05
-4.12919e-05
-4.12156e-05
-4.11431e-05
-4.1076e-05
-4.10124e-05
-4.09564e-05
-4.09094e-05
-4.08792e-05
-4.08665e-05
-4.08748e-05
-4.08965e-05
-4.09286e-05
-4.0978e-05
-4.10382e-05
-4.10993e-05
-4.11593e-05
-4.12183e-05
-4.12796e-05
-4.13331e-05
-4.13846e-05
-4.14309e-05
-4.14726e-05
-4.15002e-05
-4.15124e-05
-4.14888e-05
-4.14264e-05
-4.12888e-05
-4.1067e-05
-4.07311e-05
-4.03006e-05
-3.97272e-05
-3.91643e-05
-3.84915e-05
-3.99981e-05
3.90507e-05
5.26319e-05
2.44531e-05
1.34969e-05
-1.6747e-05
-4.35861e-05
-3.6239e-05
-5.9395e-05
-6.14762e-05
-7.18739e-05
-7.58726e-05
-8.08178e-05
-8.39639e-05
-8.63814e-05
-8.81129e-05
-8.93519e-05
-8.98656e-05
-9.03109e-05
-9.01114e-05
-8.97803e-05
-8.92165e-05
-8.83129e-05
-8.7345e-05
-8.61823e-05
-8.48188e-05
-8.3422e-05
-8.18667e-05
-8.02143e-05
-7.85328e-05
-7.67312e-05
-7.49272e-05
-7.30791e-05
-7.11821e-05
-6.93085e-05
-6.74226e-05
-6.55443e-05
-6.37103e-05
-6.19042e-05
-6.01584e-05
-5.84727e-05
-5.68457e-05
-5.53151e-05
-5.38554e-05
-5.2492e-05
-5.12231e-05
-5.00449e-05
-4.89735e-05
-4.79849e-05
-4.71005e-05
-4.62934e-05
-4.55801e-05
-4.49359e-05
-4.44341e-05
-4.40198e-05
-4.36611e-05
-4.33365e-05
-4.30502e-05
-4.27974e-05
-4.25701e-05
-4.23659e-05
-4.21858e-05
-4.20257e-05
-4.18842e-05
-4.17574e-05
-4.1646e-05
-4.15448e-05
-4.14542e-05
-4.13714e-05
-4.12927e-05
-4.12163e-05
-4.11439e-05
-4.10767e-05
-4.10134e-05
-4.09572e-05
-4.09103e-05
-4.08798e-05
-4.08673e-05
-4.08754e-05
-4.08969e-05
-4.0929e-05
-4.09783e-05
-4.10383e-05
-4.10994e-05
-4.11594e-05
-4.12184e-05
-4.12794e-05
-4.1333e-05
-4.13845e-05
-4.14307e-05
-4.14723e-05
-4.15e-05
-4.15123e-05
-4.14889e-05
-4.14266e-05
-4.12893e-05
-4.10684e-05
-4.07334e-05
-4.03041e-05
-3.97321e-05
-3.91725e-05
-3.85043e-05
-3.99744e-05
3.91517e-05
5.24797e-05
2.42864e-05
1.33268e-05
-1.65679e-05
-4.32705e-05
-3.61487e-05
-5.91986e-05
-6.1349e-05
-7.17303e-05
-7.57655e-05
-8.07193e-05
-8.38859e-05
-8.63164e-05
-8.80598e-05
-8.93095e-05
-8.98319e-05
-9.0284e-05
-9.00914e-05
-8.97646e-05
-8.92054e-05
-8.83057e-05
-8.73403e-05
-8.61804e-05
-8.4819e-05
-8.34237e-05
-8.187e-05
-8.02187e-05
-7.85381e-05
-7.67375e-05
-7.49339e-05
-7.30863e-05
-7.11897e-05
-6.93161e-05
-6.74304e-05
-6.55519e-05
-6.37178e-05
-6.19117e-05
-6.01656e-05
-5.84797e-05
-5.68524e-05
-5.53215e-05
-5.38614e-05
-5.24977e-05
-5.12283e-05
-5.00498e-05
-4.8978e-05
-4.79891e-05
-4.71043e-05
-4.62969e-05
-4.55833e-05
-4.49388e-05
-4.44368e-05
-4.40223e-05
-4.36633e-05
-4.33386e-05
-4.3052e-05
-4.27991e-05
-4.25717e-05
-4.23674e-05
-4.21873e-05
-4.20269e-05
-4.18853e-05
-4.17584e-05
-4.16469e-05
-4.15457e-05
-4.14551e-05
-4.13722e-05
-4.12934e-05
-4.1217e-05
-4.11448e-05
-4.10774e-05
-4.10144e-05
-4.0958e-05
-4.09111e-05
-4.08805e-05
-4.08681e-05
-4.08759e-05
-4.08973e-05
-4.09294e-05
-4.09786e-05
-4.10384e-05
-4.10994e-05
-4.11595e-05
-4.12184e-05
-4.12792e-05
-4.13328e-05
-4.13843e-05
-4.14304e-05
-4.1472e-05
-4.14998e-05
-4.15122e-05
-4.14888e-05
-4.14267e-05
-4.12899e-05
-4.107e-05
-4.07359e-05
-4.03077e-05
-3.97372e-05
-3.91811e-05
-3.85179e-05
-3.99485e-05
3.92732e-05
5.23133e-05
2.41246e-05
1.31612e-05
-1.63615e-05
-4.29181e-05
-3.60498e-05
-5.89807e-05
-6.121e-05
-7.15728e-05
-7.56486e-05
-8.0612e-05
-8.3801e-05
-8.62457e-05
-8.80021e-05
-8.92635e-05
-8.97952e-05
-9.02549e-05
-9.00698e-05
-8.97476e-05
-8.91934e-05
-8.82979e-05
-8.73351e-05
-8.61783e-05
-8.48192e-05
-8.34255e-05
-8.18735e-05
-8.02235e-05
-7.85438e-05
-7.67441e-05
-7.49411e-05
-7.30939e-05
-7.11977e-05
-6.93242e-05
-6.74386e-05
-6.55601e-05
-6.37259e-05
-6.19197e-05
-6.01734e-05
-5.84872e-05
-5.68596e-05
-5.53283e-05
-5.38678e-05
-5.25037e-05
-5.12339e-05
-5.0055e-05
-4.89828e-05
-4.79936e-05
-4.71084e-05
-4.63007e-05
-4.55868e-05
-4.49419e-05
-4.44396e-05
-4.4025e-05
-4.36658e-05
-4.33408e-05
-4.30541e-05
-4.28009e-05
-4.25733e-05
-4.2369e-05
-4.21888e-05
-4.20282e-05
-4.18866e-05
-4.17594e-05
-4.16479e-05
-4.15466e-05
-4.1456e-05
-4.1373e-05
-4.12943e-05
-4.12178e-05
-4.11457e-05
-4.10782e-05
-4.10154e-05
-4.09589e-05
-4.0912e-05
-4.08812e-05
-4.08689e-05
-4.08765e-05
-4.08978e-05
-4.09298e-05
-4.09789e-05
-4.10385e-05
-4.10995e-05
-4.11595e-05
-4.12184e-05
-4.12789e-05
-4.13326e-05
-4.1384e-05
-4.14302e-05
-4.14716e-05
-4.14995e-05
-4.15119e-05
-4.14888e-05
-4.14269e-05
-4.12904e-05
-4.10716e-05
-4.07384e-05
-4.03116e-05
-3.97428e-05
-3.91903e-05
-3.85325e-05
-3.99204e-05
3.94183e-05
5.2132e-05
2.39708e-05
1.30034e-05
-1.61219e-05
-4.25226e-05
-3.59403e-05
-5.87374e-05
-6.1057e-05
-7.13992e-05
-7.55205e-05
-8.04942e-05
-8.37082e-05
-8.61683e-05
-8.79391e-05
-8.92132e-05
-8.97553e-05
-9.02231e-05
-9.00461e-05
-8.97291e-05
-8.91803e-05
-8.82893e-05
-8.73294e-05
-8.61759e-05
-8.48193e-05
-8.34273e-05
-8.18773e-05
-8.02285e-05
-7.85498e-05
-7.67513e-05
-7.49487e-05
-7.31021e-05
-7.12063e-05
-6.93328e-05
-6.74475e-05
-6.55689e-05
-6.37346e-05
-6.19282e-05
-6.01817e-05
-5.84952e-05
-5.68672e-05
-5.53356e-05
-5.38746e-05
-5.25102e-05
-5.12398e-05
-5.00606e-05
-4.8988e-05
-4.79983e-05
-4.71128e-05
-4.63047e-05
-4.55905e-05
-4.49452e-05
-4.44426e-05
-4.40279e-05
-4.36683e-05
-4.33432e-05
-4.30562e-05
-4.28028e-05
-4.25751e-05
-4.23707e-05
-4.21904e-05
-4.20296e-05
-4.18879e-05
-4.17606e-05
-4.1649e-05
-4.15475e-05
-4.14569e-05
-4.13738e-05
-4.12951e-05
-4.12186e-05
-4.11467e-05
-4.1079e-05
-4.10165e-05
-4.09599e-05
-4.0913e-05
-4.08819e-05
-4.08698e-05
-4.08771e-05
-4.08983e-05
-4.09303e-05
-4.09793e-05
-4.10387e-05
-4.10996e-05
-4.11596e-05
-4.12184e-05
-4.12787e-05
-4.13323e-05
-4.13838e-05
-4.14299e-05
-4.14712e-05
-4.14991e-05
-4.15117e-05
-4.14887e-05
-4.14269e-05
-4.1291e-05
-4.10732e-05
-4.07411e-05
-4.03157e-05
-3.97485e-05
-3.91998e-05
-3.8548e-05
-3.989e-05
3.95907e-05
5.19345e-05
2.38281e-05
1.28569e-05
-1.58436e-05
-4.20771e-05
-3.58185e-05
-5.84652e-05
-6.08881e-05
-7.12073e-05
-7.53796e-05
-8.03648e-05
-8.36065e-05
-8.60835e-05
-8.78702e-05
-8.91582e-05
-8.97116e-05
-9.01884e-05
-9.00203e-05
-8.97088e-05
-8.91659e-05
-8.82798e-05
-8.73231e-05
-8.61732e-05
-8.48194e-05
-8.34292e-05
-8.18813e-05
-8.02338e-05
-7.85563e-05
-7.67589e-05
-7.49568e-05
-7.31108e-05
-7.12155e-05
-6.93421e-05
-6.7457e-05
-6.55783e-05
-6.37438e-05
-6.19374e-05
-6.01906e-05
-5.85037e-05
-5.68754e-05
-5.53433e-05
-5.38819e-05
-5.25171e-05
-5.12462e-05
-5.00666e-05
-4.89935e-05
-4.80034e-05
-4.71174e-05
-4.6309e-05
-4.55944e-05
-4.49487e-05
-4.44458e-05
-4.40309e-05
-4.36711e-05
-4.33457e-05
-4.30585e-05
-4.28049e-05
-4.2577e-05
-4.23725e-05
-4.21921e-05
-4.2031e-05
-4.18893e-05
-4.17618e-05
-4.16502e-05
-4.15486e-05
-4.1458e-05
-4.13747e-05
-4.12961e-05
-4.12195e-05
-4.11477e-05
-4.10799e-05
-4.10176e-05
-4.09609e-05
-4.09139e-05
-4.08827e-05
-4.08706e-05
-4.08778e-05
-4.08988e-05
-4.09307e-05
-4.09796e-05
-4.10388e-05
-4.10996e-05
-4.11596e-05
-4.12184e-05
-4.12784e-05
-4.13321e-05
-4.13834e-05
-4.14295e-05
-4.14708e-05
-4.14987e-05
-4.15113e-05
-4.14885e-05
-4.1427e-05
-4.12915e-05
-4.1075e-05
-4.07439e-05
-4.03201e-05
-3.97547e-05
-3.92099e-05
-3.85646e-05
-3.98574e-05
3.97942e-05
5.17203e-05
2.37009e-05
1.27259e-05
-1.55192e-05
-4.15734e-05
-3.56811e-05
-5.81587e-05
-6.07001e-05
-7.09938e-05
-7.52236e-05
-8.02218e-05
-8.34942e-05
-8.599e-05
-8.77945e-05
-8.90976e-05
-8.96636e-05
-9.01503e-05
-8.99918e-05
-8.96866e-05
-8.91501e-05
-8.82693e-05
-8.7316e-05
-8.61701e-05
-8.48192e-05
-8.34311e-05
-8.18854e-05
-8.02395e-05
-7.85631e-05
-7.6767e-05
-7.49655e-05
-7.31201e-05
-7.12254e-05
-6.9352e-05
-6.74671e-05
-6.55884e-05
-6.37538e-05
-6.19472e-05
-6.02001e-05
-5.85128e-05
-5.68842e-05
-5.53516e-05
-5.38897e-05
-5.25244e-05
-5.1253e-05
-5.0073e-05
-4.89993e-05
-4.80089e-05
-4.71224e-05
-4.63136e-05
-4.55986e-05
-4.49525e-05
-4.44492e-05
-4.40342e-05
-4.3674e-05
-4.33484e-05
-4.30609e-05
-4.2807e-05
-4.25791e-05
-4.23744e-05
-4.21939e-05
-4.20326e-05
-4.18907e-05
-4.17631e-05
-4.16514e-05
-4.15497e-05
-4.14591e-05
-4.13756e-05
-4.1297e-05
-4.12204e-05
-4.11487e-05
-4.10808e-05
-4.10187e-05
-4.09619e-05
-4.09149e-05
-4.08835e-05
-4.08715e-05
-4.08784e-05
-4.08993e-05
-4.09312e-05
-4.09799e-05
-4.10389e-05
-4.10996e-05
-4.11596e-05
-4.12183e-05
-4.1278e-05
-4.13317e-05
-4.1383e-05
-4.1429e-05
-4.14702e-05
-4.14982e-05
-4.15109e-05
-4.14883e-05
-4.1427e-05
-4.12921e-05
-4.10767e-05
-4.07469e-05
-4.03246e-05
-3.97611e-05
-3.92203e-05
-3.85823e-05
-3.98224e-05
4.00325e-05
5.14883e-05
2.3593e-05
1.26146e-05
-1.5142e-05
-4.10028e-05
-3.55253e-05
-5.78127e-05
-6.04902e-05
-7.07556e-05
-7.50503e-05
-8.00633e-05
-8.337e-05
-8.58867e-05
-8.7711e-05
-8.90309e-05
-8.96108e-05
-9.01083e-05
-8.99604e-05
-8.96621e-05
-8.91326e-05
-8.82576e-05
-8.73082e-05
-8.61665e-05
-8.48188e-05
-8.34329e-05
-8.18898e-05
-8.02454e-05
-7.85703e-05
-7.67756e-05
-7.49748e-05
-7.31301e-05
-7.12358e-05
-6.93626e-05
-6.74779e-05
-6.55991e-05
-6.37643e-05
-6.19576e-05
-6.02102e-05
-5.85226e-05
-5.68935e-05
-5.53605e-05
-5.38981e-05
-5.25322e-05
-5.12603e-05
-5.00798e-05
-4.90056e-05
-4.80147e-05
-4.71277e-05
-4.63185e-05
-4.5603e-05
-4.49565e-05
-4.44529e-05
-4.40376e-05
-4.36771e-05
-4.33512e-05
-4.30635e-05
-4.28094e-05
-4.25812e-05
-4.23765e-05
-4.21958e-05
-4.20342e-05
-4.18923e-05
-4.17645e-05
-4.16527e-05
-4.15508e-05
-4.14602e-05
-4.13766e-05
-4.12981e-05
-4.12214e-05
-4.11498e-05
-4.10818e-05
-4.10199e-05
-4.0963e-05
-4.0916e-05
-4.08844e-05
-4.08724e-05
-4.0879e-05
-4.08998e-05
-4.09316e-05
-4.09803e-05
-4.1039e-05
-4.10996e-05
-4.11595e-05
-4.12182e-05
-4.12776e-05
-4.13313e-05
-4.13826e-05
-4.14286e-05
-4.14696e-05
-4.14976e-05
-4.15104e-05
-4.1488e-05
-4.1427e-05
-4.12926e-05
-4.10785e-05
-4.07499e-05
-4.03294e-05
-3.97681e-05
-3.92313e-05
-3.86011e-05
-3.97851e-05
4.031e-05
5.12384e-05
2.351e-05
1.25283e-05
-1.47035e-05
-4.03551e-05
-3.53461e-05
-5.74201e-05
-6.02539e-05
-7.04881e-05
-7.48563e-05
-7.98863e-05
-8.32316e-05
-8.57717e-05
-8.76183e-05
-8.89568e-05
-8.95522e-05
-9.00618e-05
-8.99255e-05
-8.96348e-05
-8.91131e-05
-8.82444e-05
-8.72994e-05
-8.61623e-05
-8.48181e-05
-8.34347e-05
-8.18943e-05
-8.02517e-05
-7.8578e-05
-7.67848e-05
-7.49846e-05
-7.31407e-05
-7.1247e-05
-6.93739e-05
-6.74894e-05
-6.56106e-05
-6.37756e-05
-6.19687e-05
-6.02209e-05
-5.85329e-05
-5.69034e-05
-5.53699e-05
-5.3907e-05
-5.25406e-05
-5.12681e-05
-5.00871e-05
-4.90123e-05
-4.80209e-05
-4.71334e-05
-4.63237e-05
-4.56078e-05
-4.49607e-05
-4.44567e-05
-4.40413e-05
-4.36804e-05
-4.33542e-05
-4.30663e-05
-4.28119e-05
-4.25835e-05
-4.23786e-05
-4.21979e-05
-4.2036e-05
-4.1894e-05
-4.17659e-05
-4.16541e-05
-4.15521e-05
-4.14614e-05
-4.13777e-05
-4.12991e-05
-4.12225e-05
-4.1151e-05
-4.10828e-05
-4.10211e-05
-4.09641e-05
-4.09171e-05
-4.08853e-05
-4.08733e-05
-4.08797e-05
-4.09004e-05
-4.09321e-05
-4.09806e-05
-4.10391e-05
-4.10996e-05
-4.11594e-05
-4.12181e-05
-4.12772e-05
-4.13309e-05
-4.1382e-05
-4.14279e-05
-4.1469e-05
-4.1497e-05
-4.15098e-05
-4.14875e-05
-4.14268e-05
-4.12931e-05
-4.10803e-05
-4.07531e-05
-4.03345e-05
-3.97754e-05
-3.92427e-05
-3.8621e-05
-3.97454e-05
4.06301e-05
5.097e-05
2.34568e-05
1.24718e-05
-1.41964e-05
-3.96202e-05
-3.51388e-05
-5.69736e-05
-5.99869e-05
-7.01868e-05
-7.46384e-05
-7.96881e-05
-8.30769e-05
-8.56433e-05
-8.7515e-05
-8.88741e-05
-8.9487e-05
-9.001e-05
-8.98866e-05
-8.96045e-05
-8.90913e-05
-8.82296e-05
-8.72894e-05
-8.61574e-05
-8.4817e-05
-8.34364e-05
-8.18989e-05
-8.02582e-05
-7.85861e-05
-7.67944e-05
-7.4995e-05
-7.31519e-05
-7.12589e-05
-6.93859e-05
-6.75017e-05
-6.56228e-05
-6.37877e-05
-6.19806e-05
-6.02324e-05
-5.8544e-05
-5.69141e-05
-5.53799e-05
-5.39165e-05
-5.25495e-05
-5.12764e-05
-5.00949e-05
-4.90194e-05
-4.80275e-05
-4.71394e-05
-4.63293e-05
-4.56129e-05
-4.49653e-05
-4.44609e-05
-4.40451e-05
-4.36839e-05
-4.33575e-05
-4.30693e-05
-4.28145e-05
-4.2586e-05
-4.23809e-05
-4.22e-05
-4.20379e-05
-4.18957e-05
-4.17675e-05
-4.16556e-05
-4.15534e-05
-4.14627e-05
-4.13788e-05
-4.13003e-05
-4.12235e-05
-4.11522e-05
-4.10839e-05
-4.10223e-05
-4.09652e-05
-4.09183e-05
-4.08862e-05
-4.08742e-05
-4.08803e-05
-4.09009e-05
-4.09326e-05
-4.0981e-05
-4.10391e-05
-4.10996e-05
-4.11593e-05
-4.12179e-05
-4.12767e-05
-4.13303e-05
-4.13814e-05
-4.14273e-05
-4.14682e-05
-4.14962e-05
-4.15091e-05
-4.14871e-05
-4.14266e-05
-4.12936e-05
-4.10822e-05
-4.07564e-05
-4.03398e-05
-3.97831e-05
-3.92546e-05
-3.8642e-05
-3.97035e-05
4.09968e-05
5.06835e-05
2.34399e-05
1.24509e-05
-1.36118e-05
-3.87863e-05
-3.48964e-05
-5.64639e-05
-5.9683e-05
-6.98455e-05
-7.43918e-05
-7.94645e-05
-8.29026e-05
-8.54989e-05
-8.73991e-05
-8.87814e-05
-8.94138e-05
-8.99519e-05
-8.98429e-05
-8.95704e-05
-8.90666e-05
-8.82128e-05
-8.72779e-05
-8.61515e-05
-8.48154e-05
-8.34378e-05
-8.19035e-05
-8.0265e-05
-7.85946e-05
-7.68046e-05
-7.50061e-05
-7.31639e-05
-7.12715e-05
-6.93987e-05
-6.75148e-05
-6.56358e-05
-6.38006e-05
-6.19933e-05
-6.02446e-05
-5.85557e-05
-5.69254e-05
-5.53906e-05
-5.39266e-05
-5.2559e-05
-5.12853e-05
-5.01032e-05
-4.9027e-05
-4.80345e-05
-4.71458e-05
-4.63352e-05
-4.56183e-05
-4.49701e-05
-4.44652e-05
-4.40493e-05
-4.36876e-05
-4.33609e-05
-4.30724e-05
-4.28174e-05
-4.25886e-05
-4.23834e-05
-4.22023e-05
-4.20399e-05
-4.18976e-05
-4.17691e-05
-4.16571e-05
-4.15548e-05
-4.14641e-05
-4.138e-05
-4.13015e-05
-4.12247e-05
-4.11535e-05
-4.10851e-05
-4.10236e-05
-4.09664e-05
-4.09194e-05
-4.08872e-05
-4.08752e-05
-4.0881e-05
-4.09015e-05
-4.09331e-05
-4.09813e-05
-4.10392e-05
-4.10995e-05
-4.11592e-05
-4.12176e-05
-4.12761e-05
-4.13297e-05
-4.13807e-05
-4.14265e-05
-4.14673e-05
-4.14953e-05
-4.15083e-05
-4.14864e-05
-4.14263e-05
-4.1294e-05
-4.10841e-05
-4.07598e-05
-4.03453e-05
-3.97912e-05
-3.92669e-05
-3.86642e-05
-3.96593e-05
4.14128e-05
5.0379e-05
2.34648e-05
1.24708e-05
-1.29426e-05
-3.78425e-05
-3.46118e-05
-5.58815e-05
-5.9336e-05
-6.94579e-05
-7.41117e-05
-7.92116e-05
-8.27055e-05
-8.53358e-05
-8.72685e-05
-8.86768e-05
-8.93315e-05
-8.98866e-05
-8.97935e-05
-8.95319e-05
-8.90387e-05
-8.81935e-05
-8.72647e-05
-8.61444e-05