/*--------------------------------*- C++ -*----------------------------------*\
| =========                 |                                                 |
| \\      /  F ield         | OpenFOAM: The Open Source CFD Toolbox           |
|  \\    /   O peration     | Version:  5.x                                   |
|   \\  /    A nd           | Web:      www.OpenFOAM.org                      |
|    \\/     M anipulation  |                                                 |
\*---------------------------------------------------------------------------*/
FoamFile
{
    version     2.0;
    format      ascii;
    class       volScalarField;
    location    "1000";
    object      p;
}
// * * * * * * * * * * * * * * * * * * * * * * * * * * * * * * * * * * * * * //

dimensions      [0 2 -2 0 0 0 0];

internalField   nonuniform List<scalar> 
107912
(
5.66329e-10
3.41398e-07
1.36523e-07
2.33009e-07
6.23439e-08
-8.89848e-08
1.51909e-08
-9.89888e-08
-6.43918e-08
-1.13675e-07
-1.04703e-07
-1.23563e-07
-1.22798e-07
-1.28883e-07
-1.28335e-07
-1.30237e-07
-1.2781e-07
-1.27644e-07
-1.24601e-07
-1.22118e-07
-1.19282e-07
-1.15521e-07
-1.11919e-07
-1.08222e-07
-1.03755e-07
-9.97255e-08
-9.53624e-08
-9.06442e-08
-8.62979e-08
-8.15077e-08
-7.6744e-08
-7.21362e-08
-6.71849e-08
-6.23738e-08
-5.75828e-08
-5.2562e-08
-4.77398e-08
-4.28273e-08
-3.78564e-08
-3.30338e-08
-2.80572e-08
-2.32014e-08
-1.83446e-08
-1.3451e-08
-8.6652e-09
-3.8221e-09
9.18674e-10
5.66592e-09
1.03549e-08
1.50195e-08
1.96304e-08
2.42245e-08
2.82272e-08
3.19217e-08
3.55436e-08
3.88794e-08
4.22954e-08
4.56163e-08
4.87486e-08
5.18777e-08
5.48473e-08
5.77704e-08
6.06153e-08
6.33528e-08
6.60506e-08
6.86639e-08
7.11963e-08
7.3698e-08
7.60946e-08
7.84623e-08
8.0772e-08
8.30024e-08
8.52235e-08
8.73507e-08
8.9463e-08
9.15278e-08
9.35292e-08
9.55381e-08
9.74493e-08
9.93884e-08
1.0124e-07
1.03096e-07
1.04911e-07
1.06669e-07
1.08458e-07
1.10084e-07
1.11862e-07
1.13265e-07
1.15091e-07
1.16028e-07
1.18117e-07
1.17938e-07
1.20955e-07
1.17935e-07
1.23827e-07
1.13584e-07
1.27837e-07
9.80326e-08
1.35847e-07
4.7278e-08
1.6128e-07
-4.1311e-07
1.7671e-09
3.41607e-07
1.35735e-07
2.32109e-07
6.27054e-08
-8.79757e-08
1.54285e-08
-9.85789e-08
-6.40976e-08
-1.13347e-07
-1.04468e-07
-1.23336e-07
-1.22625e-07
-1.28732e-07
-1.28212e-07
-1.30135e-07
-1.27726e-07
-1.27573e-07
-1.24544e-07
-1.2207e-07
-1.19243e-07
-1.1549e-07
-1.11892e-07
-1.08201e-07
-1.03738e-07
-9.97119e-08
-9.53523e-08
-9.06366e-08
-8.6292e-08
-8.15043e-08
-7.67417e-08
-7.21351e-08
-6.71851e-08
-6.23746e-08
-5.75844e-08
-5.25645e-08
-4.77425e-08
-4.28307e-08
-3.786e-08
-3.30377e-08
-2.80613e-08
-2.32056e-08
-1.8349e-08
-1.34555e-08
-8.6697e-09
-3.82663e-09
9.14152e-10
5.66143e-09
1.03505e-08
1.50151e-08
1.9626e-08
2.42202e-08
2.82233e-08
3.19177e-08
3.55395e-08
3.88758e-08
4.22916e-08
4.56123e-08
4.87448e-08
5.18739e-08
5.48437e-08
5.77669e-08
6.06119e-08
6.33495e-08
6.60474e-08
6.86609e-08
7.11933e-08
7.36951e-08
7.60918e-08
7.84596e-08
8.07694e-08
8.29999e-08
8.5221e-08
8.73483e-08
8.94607e-08
9.15255e-08
9.35269e-08
9.55359e-08
9.7447e-08
9.93861e-08
1.01238e-07
1.03093e-07
1.04909e-07
1.06667e-07
1.08456e-07
1.10081e-07
1.11859e-07
1.13262e-07
1.15088e-07
1.16023e-07
1.18113e-07
1.17931e-07
1.20949e-07
1.17921e-07
1.2382e-07
1.13557e-07
1.27828e-07
9.79606e-08
1.35832e-07
4.69789e-08
1.61318e-07
-3.94085e-07
2.886e-09
3.41847e-07
1.34802e-07
2.31054e-07
6.31023e-08
-8.67724e-08
1.57302e-08
-9.81071e-08
-6.37354e-08
-1.1296e-07
-1.0418e-07
-1.23065e-07
-1.22412e-07
-1.28548e-07
-1.28059e-07
-1.30007e-07
-1.2762e-07
-1.27483e-07
-1.24472e-07
-1.22007e-07
-1.19191e-07
-1.15447e-07
-1.11856e-07
-1.08171e-07
-1.03714e-07
-9.9691e-08
-9.53359e-08
-9.06234e-08
-8.6281e-08
-8.14962e-08
-7.67353e-08
-7.21301e-08
-6.71819e-08
-6.23723e-08
-5.75832e-08
-5.25644e-08
-4.77429e-08
-4.28317e-08
-3.78616e-08
-3.30396e-08
-2.80637e-08
-2.32082e-08
-1.83519e-08
-1.34585e-08
-8.67288e-09
-3.82991e-09
9.10789e-10
5.65804e-09
1.0347e-08
1.50117e-08
1.96226e-08
2.42168e-08
2.82204e-08
3.19146e-08
3.55362e-08
3.88729e-08
4.22884e-08
4.5609e-08
4.87415e-08
5.18707e-08
5.48406e-08
5.77639e-08
6.06089e-08
6.33467e-08
6.60446e-08
6.86582e-08
7.11908e-08
7.36926e-08
7.60895e-08
7.84573e-08
8.07672e-08
8.29977e-08
8.52189e-08
8.73462e-08
8.94586e-08
9.15235e-08
9.3525e-08
9.55339e-08
9.74451e-08
9.93841e-08
1.01236e-07
1.03091e-07
1.04907e-07
1.06664e-07
1.08453e-07
1.10079e-07
1.11856e-07
1.13258e-07
1.15084e-07
1.16018e-07
1.18108e-07
1.17922e-07
1.20943e-07
1.17906e-07
1.23812e-07
1.13524e-07
1.27816e-07
9.78759e-08
1.35807e-07
4.66269e-08
1.61261e-07
-3.90905e-07
4.00108e-09
3.42059e-07
1.33858e-07
2.29963e-07
6.35026e-08
-8.55251e-08
1.60416e-08
-9.76154e-08
-6.33601e-08
-1.12558e-07
-1.0388e-07
-1.22781e-07
-1.2219e-07
-1.28355e-07
-1.27899e-07
-1.29873e-07
-1.27509e-07
-1.27388e-07
-1.24395e-07
-1.2194e-07
-1.19136e-07
-1.15402e-07
-1.11817e-07
-1.08139e-07
-1.03688e-07
-9.96688e-08
-9.53182e-08
-9.0609e-08
-8.6269e-08
-8.14872e-08
-7.67281e-08
-7.21244e-08
-6.71782e-08
-6.23695e-08
-5.75815e-08
-5.25638e-08
-4.77429e-08
-4.28325e-08
-3.78629e-08
-3.30413e-08
-2.80659e-08
-2.32106e-08
-1.83545e-08
-1.34614e-08
-8.67591e-09
-3.83306e-09
9.07547e-10
5.65476e-09
1.03437e-08
1.50084e-08
1.96193e-08
2.42134e-08
2.82175e-08
3.19116e-08
3.5533e-08
3.887e-08
4.22853e-08
4.56057e-08
4.87383e-08
5.18674e-08
5.48375e-08
5.77608e-08
6.06059e-08
6.33439e-08
6.60418e-08
6.86556e-08
7.11882e-08
7.36901e-08
7.60871e-08
7.84549e-08
8.07649e-08
8.29955e-08
8.52167e-08
8.73441e-08
8.94566e-08
9.15215e-08
9.3523e-08
9.55319e-08
9.74431e-08
9.93821e-08
1.01234e-07
1.03089e-07
1.04905e-07
1.06662e-07
1.08451e-07
1.10076e-07
1.11853e-07
1.13255e-07
1.15081e-07
1.16013e-07
1.18103e-07
1.17913e-07
1.20937e-07
1.1789e-07
1.23803e-07
1.1349e-07
1.27803e-07
9.77884e-08
1.3578e-07
4.62653e-08
1.61194e-07
-3.89966e-07
5.193e-09
3.42247e-07
1.32882e-07
2.28811e-07
6.39188e-08
-8.42088e-08
1.63676e-08
-9.70904e-08
-6.2965e-08
-1.12131e-07
-1.03563e-07
-1.22481e-07
-1.21955e-07
-1.28151e-07
-1.27729e-07
-1.29731e-07
-1.27391e-07
-1.27287e-07
-1.24313e-07
-1.2187e-07
-1.19077e-07
-1.15355e-07
-1.11776e-07
-1.08105e-07
-1.03661e-07
-9.96452e-08
-9.52994e-08
-9.05939e-08
-8.62564e-08
-8.14778e-08
-7.67205e-08
-7.21185e-08
-6.71743e-08
-6.23666e-08
-5.75798e-08
-5.25633e-08
-4.7743e-08
-4.28334e-08
-3.78644e-08
-3.30432e-08
-2.80683e-08
-2.32132e-08
-1.83574e-08
-1.34645e-08
-8.67922e-09
-3.83649e-09
9.04017e-10
5.6512e-09
1.03401e-08
1.50047e-08
1.96157e-08
2.42098e-08
2.82143e-08
3.19083e-08
3.55294e-08
3.88669e-08
4.2282e-08
4.56021e-08
4.87347e-08
5.18639e-08
5.48341e-08
5.77575e-08
6.06027e-08
6.33409e-08
6.60388e-08
6.86527e-08
7.11854e-08
7.36873e-08
7.60845e-08
7.84524e-08
8.07624e-08
8.29931e-08
8.52144e-08
8.73419e-08
8.94543e-08
9.15193e-08
9.35208e-08
9.55298e-08
9.74409e-08
9.93799e-08
1.01232e-07
1.03087e-07
1.04902e-07
1.0666e-07
1.08448e-07
1.10073e-07
1.1185e-07
1.13251e-07
1.15077e-07
1.16007e-07
1.18098e-07
1.17904e-07
1.2093e-07
1.17873e-07
1.23794e-07
1.13454e-07
1.27789e-07
9.76958e-08
1.35753e-07
4.58859e-08
1.61126e-07
-3.88056e-07
6.48478e-09
3.42411e-07
1.3186e-07
2.27581e-07
6.43561e-08
-8.28029e-08
1.67145e-08
-9.65233e-08
-6.25429e-08
-1.11671e-07
-1.03222e-07
-1.22157e-07
-1.21701e-07
-1.2793e-07
-1.27547e-07
-1.29578e-07
-1.27264e-07
-1.27179e-07
-1.24226e-07
-1.21794e-07
-1.19014e-07
-1.15303e-07
-1.11731e-07
-1.08069e-07
-1.03632e-07
-9.96199e-08
-9.52793e-08
-9.05776e-08
-8.62428e-08
-8.14677e-08
-7.67124e-08
-7.21121e-08
-6.71701e-08
-6.23635e-08
-5.7578e-08
-5.25628e-08
-4.77431e-08
-4.28344e-08
-3.7866e-08
-3.30452e-08
-2.80709e-08
-2.32161e-08
-1.83606e-08
-1.34679e-08
-8.6828e-09
-3.84021e-09
9.0019e-10
5.64732e-09
1.03362e-08
1.50008e-08
1.96118e-08
2.42058e-08
2.82109e-08
3.19047e-08
3.55256e-08
3.88636e-08
4.22783e-08
4.55981e-08
4.87309e-08
5.18601e-08
5.48305e-08
5.7754e-08
6.05992e-08
6.33375e-08
6.60355e-08
6.86495e-08
7.11824e-08
7.36844e-08
7.60817e-08
7.84496e-08
8.07597e-08
8.29905e-08
8.52118e-08
8.73394e-08
8.94519e-08
9.15169e-08
9.35185e-08
9.55274e-08
9.74386e-08
9.93775e-08
1.01229e-07
1.03084e-07
1.049e-07
1.06657e-07
1.08445e-07
1.1007e-07
1.11846e-07
1.13246e-07
1.15072e-07
1.16001e-07
1.18092e-07
1.17894e-07
1.20922e-07
1.17854e-07
1.23783e-07
1.13416e-07
1.27774e-07
9.75965e-08
1.35723e-07
4.5483e-08
1.61053e-07
-3.85621e-07
7.88028e-09
3.42544e-07
1.30792e-07
2.26268e-07
6.48143e-08
-8.13011e-08
1.70838e-08
-9.59107e-08
-6.2092e-08
-1.11177e-07
-1.02857e-07
-1.21808e-07
-1.21429e-07
-1.27692e-07
-1.27351e-07
-1.29412e-07
-1.27127e-07
-1.27062e-07
-1.24131e-07
-1.21712e-07
-1.18946e-07
-1.15248e-07
-1.11683e-07
-1.08029e-07
-1.036e-07
-9.95924e-08
-9.52574e-08
-9.05599e-08
-8.6228e-08
-8.14567e-08
-7.67035e-08
-7.21051e-08
-6.71655e-08
-6.236e-08
-5.7576e-08
-5.25622e-08
-4.77431e-08
-4.28354e-08
-3.78676e-08
-3.30473e-08
-2.80736e-08
-2.32191e-08
-1.8364e-08
-1.34715e-08
-8.68663e-09
-3.8442e-09
8.96082e-10
5.64317e-09
1.0332e-08
1.49966e-08
1.96075e-08
2.42015e-08
2.82072e-08
3.19008e-08
3.55214e-08
3.88599e-08
4.22743e-08
4.55939e-08
4.87268e-08
5.1856e-08
5.48266e-08
5.77501e-08
6.05955e-08
6.3334e-08
6.6032e-08
6.86461e-08
7.1179e-08
7.36811e-08
7.60786e-08
7.84466e-08
8.07568e-08
8.29877e-08
8.5209e-08
8.73368e-08
8.94492e-08
9.15143e-08
9.35159e-08
9.55248e-08
9.7436e-08
9.93749e-08
1.01226e-07
1.03081e-07
1.04897e-07
1.06654e-07
1.08442e-07
1.10066e-07
1.11842e-07
1.13242e-07
1.15067e-07
1.15994e-07
1.18086e-07
1.17883e-07
1.20914e-07
1.17835e-07
1.23772e-07
1.13375e-07
1.27757e-07
9.74902e-08
1.35692e-07
4.50554e-08
1.60972e-07
-3.83007e-07
9.38476e-09
3.42638e-07
1.2968e-07
2.2487e-07
6.52931e-08
-7.96998e-08
1.74761e-08
-9.52494e-08
-6.16108e-08
-1.10645e-07
-1.02465e-07
-1.21433e-07
-1.21136e-07
-1.27436e-07
-1.27139e-07
-1.29234e-07
-1.26979e-07
-1.26936e-07
-1.24028e-07
-1.21623e-07
-1.18872e-07
-1.15188e-07
-1.11632e-07
-1.07986e-07
-1.03566e-07
-9.95628e-08
-9.52337e-08
-9.05407e-08
-8.6212e-08
-8.14447e-08
-7.66939e-08
-7.20975e-08
-6.71604e-08
-6.23563e-08
-5.75737e-08
-5.25615e-08
-4.77431e-08
-4.28364e-08
-3.78694e-08
-3.30496e-08
-2.80765e-08
-2.32223e-08
-1.83676e-08
-1.34754e-08
-8.69073e-09
-3.84848e-09
8.91682e-10
5.63871e-09
1.03274e-08
1.4992e-08
1.9603e-08
2.4197e-08
2.82032e-08
3.18966e-08
3.55169e-08
3.8856e-08
4.22701e-08
4.55893e-08
4.87223e-08
5.18515e-08
5.48223e-08
5.77459e-08
6.05914e-08
6.33301e-08
6.60281e-08
6.86424e-08
7.11755e-08
7.36776e-08
7.60753e-08
7.84433e-08
8.07536e-08
8.29846e-08
8.5206e-08
8.73338e-08
8.94463e-08
9.15115e-08
9.35131e-08
9.5522e-08
9.74332e-08
9.93721e-08
1.01224e-07
1.03079e-07
1.04894e-07
1.0665e-07
1.08438e-07
1.10062e-07
1.11838e-07
1.13237e-07
1.15062e-07
1.15987e-07
1.1808e-07
1.17872e-07
1.20906e-07
1.17814e-07
1.23761e-07
1.13331e-07
1.2774e-07
9.73764e-08
1.35659e-07
4.46025e-08
1.60883e-07
-3.8022e-07
1.10066e-08
3.42683e-07
1.28527e-07
2.23382e-07
6.57925e-08
-7.79943e-08
1.78924e-08
-9.45358e-08
-6.10979e-08
-1.10074e-07
-1.02045e-07
-1.21029e-07
-1.20822e-07
-1.2716e-07
-1.26912e-07
-1.29042e-07
-1.2682e-07
-1.268e-07
-1.23918e-07
-1.21528e-07
-1.18793e-07
-1.15123e-07
-1.11576e-07
-1.0794e-07
-1.03528e-07
-9.95306e-08
-9.5208e-08
-9.052e-08
-8.61946e-08
-8.14317e-08
-7.66834e-08
-7.20893e-08
-6.71549e-08
-6.23521e-08
-5.75712e-08
-5.25606e-08
-4.7743e-08
-4.28374e-08
-3.78712e-08
-3.3052e-08
-2.80796e-08
-2.32258e-08
-1.83714e-08
-1.34796e-08
-8.69512e-09
-3.85305e-09
8.86966e-10
5.63393e-09
1.03226e-08
1.49872e-08
1.95981e-08
2.4192e-08
2.81989e-08
3.18921e-08
3.5512e-08
3.88517e-08
4.22654e-08
4.55844e-08
4.87174e-08
5.18467e-08
5.48177e-08
5.77413e-08
6.05869e-08
6.33258e-08
6.6024e-08
6.86384e-08
7.11716e-08
7.36738e-08
7.60716e-08
7.84398e-08
8.07501e-08
8.29813e-08
8.52026e-08
8.73307e-08
8.94432e-08
9.15084e-08
9.351e-08
9.55189e-08
9.74301e-08
9.9369e-08
1.0122e-07
1.03075e-07
1.0489e-07
1.06647e-07
1.08435e-07
1.10058e-07
1.11834e-07
1.13231e-07
1.15057e-07
1.15979e-07
1.18072e-07
1.17859e-07
1.20896e-07
1.17791e-07
1.23748e-07
1.13283e-07
1.27721e-07
9.72548e-08
1.35624e-07
4.41238e-08
1.60784e-07
-3.77216e-07
1.27554e-08
3.4267e-07
1.27335e-07
2.21801e-07
6.63122e-08
-7.61795e-08
1.83336e-08
-9.37654e-08
-6.05515e-08
-1.0946e-07
-1.01595e-07
-1.20595e-07
-1.20484e-07
-1.26863e-07
-1.26667e-07
-1.28835e-07
-1.26649e-07
-1.26653e-07
-1.23799e-07
-1.21425e-07
-1.18707e-07
-1.15053e-07
-1.11516e-07
-1.0789e-07
-1.03488e-07
-9.94959e-08
-9.51802e-08
-9.04974e-08
-8.61757e-08
-8.14175e-08
-7.6672e-08
-7.20802e-08
-6.71488e-08
-6.23475e-08
-5.75683e-08
-5.25596e-08
-4.77428e-08
-4.28384e-08
-3.78731e-08
-3.30545e-08
-2.80829e-08
-2.32294e-08
-1.83755e-08
-1.3484e-08
-8.6998e-09
-3.85795e-09
8.81912e-10
5.62879e-09
1.03174e-08
1.49819e-08
1.95929e-08
2.41867e-08
2.81943e-08
3.18872e-08
3.55068e-08
3.88471e-08
4.22604e-08
4.5579e-08
4.87122e-08
5.18415e-08
5.48127e-08
5.77364e-08
6.05821e-08
6.33212e-08
6.60194e-08
6.8634e-08
7.11673e-08
7.36696e-08
7.60677e-08
7.84359e-08
8.07464e-08
8.29776e-08
8.5199e-08
8.73272e-08
8.94397e-08
9.1505e-08
9.35067e-08
9.55156e-08
9.74268e-08
9.93656e-08
1.01217e-07
1.03072e-07
1.04887e-07
1.06643e-07
1.0843e-07
1.10053e-07
1.11829e-07
1.13225e-07
1.15051e-07
1.15971e-07
1.18065e-07
1.17846e-07
1.20886e-07
1.17766e-07
1.23734e-07
1.13232e-07
1.27701e-07
9.71247e-08
1.35586e-07
4.36186e-08
1.60675e-07
-3.73972e-07
1.4641e-08
3.42586e-07
1.26108e-07
2.20124e-07
6.68518e-08
-7.42507e-08
1.88008e-08
-9.29339e-08
-5.99699e-08
-1.08801e-07
-1.01112e-07
-1.20128e-07
-1.2012e-07
-1.26543e-07
-1.26404e-07
-1.28611e-07
-1.26464e-07
-1.26494e-07
-1.2367e-07
-1.21314e-07
-1.18615e-07
-1.14977e-07
-1.11451e-07
-1.07836e-07
-1.03444e-07
-9.94582e-08
-9.515e-08
-9.0473e-08
-8.61552e-08
-8.1402e-08
-7.66595e-08
-7.20703e-08
-6.71421e-08
-6.23425e-08
-5.75651e-08
-5.25584e-08
-4.77425e-08
-4.28394e-08
-3.7875e-08
-3.30571e-08
-2.80864e-08
-2.32333e-08
-1.83798e-08
-1.34887e-08
-8.7048e-09
-3.86318e-09
8.76496e-10
5.62328e-09
1.03117e-08
1.49763e-08
1.95872e-08
2.4181e-08
2.81893e-08
3.18819e-08
3.55011e-08
3.88421e-08
4.2255e-08
4.55732e-08
4.87065e-08
5.18358e-08
5.48072e-08
5.77311e-08
6.05769e-08
6.33162e-08
6.60145e-08
6.86292e-08
7.11627e-08
7.36651e-08
7.60634e-08
7.84317e-08
8.07422e-08
8.29737e-08
8.51951e-08
8.73234e-08
8.9436e-08
9.15012e-08
9.3503e-08
9.55119e-08
9.74231e-08
9.93618e-08
1.01213e-07
1.03068e-07
1.04883e-07
1.06639e-07
1.08426e-07
1.10048e-07
1.11823e-07
1.13219e-07
1.15044e-07
1.15962e-07
1.18056e-07
1.17831e-07
1.20875e-07
1.1774e-07
1.23719e-07
1.13178e-07
1.27679e-07
9.69858e-08
1.35546e-07
4.30862e-08
1.60553e-07
-3.70471e-07
1.66733e-08
3.42418e-07
1.2485e-07
2.18346e-07
6.74109e-08
-7.22031e-08
1.92946e-08
-9.20364e-08
-5.93512e-08
-1.08092e-07
-1.00596e-07
-1.19625e-07
-1.1973e-07
-1.26198e-07
-1.26121e-07
-1.2837e-07
-1.26265e-07
-1.26324e-07
-1.23531e-07
-1.21194e-07
-1.18515e-07
-1.14895e-07
-1.1138e-07
-1.07778e-07
-1.03397e-07
-9.94174e-08
-9.51172e-08
-9.04464e-08
-8.61329e-08
-8.13851e-08
-7.66459e-08
-7.20594e-08
-6.71347e-08
-6.23368e-08
-5.75615e-08
-5.25569e-08
-4.7742e-08
-4.28404e-08
-3.7877e-08
-3.30598e-08
-2.809e-08
-2.32374e-08
-1.83845e-08
-1.34937e-08
-8.71014e-09
-3.8688e-09
8.70695e-10
5.61737e-09
1.03057e-08
1.49702e-08
1.95811e-08
2.41748e-08
2.81838e-08
3.18762e-08
3.5495e-08
3.88366e-08
4.22491e-08
4.55669e-08
4.87003e-08
5.18297e-08
5.48014e-08
5.77253e-08
6.05712e-08
6.33108e-08
6.60091e-08
6.86241e-08
7.11577e-08
7.36602e-08
7.60587e-08
7.8427e-08
8.07377e-08
8.29693e-08
8.51908e-08
8.73192e-08
8.94318e-08
9.14972e-08
9.3499e-08
9.55078e-08
9.74191e-08
9.93577e-08
1.01209e-07
1.03063e-07
1.04878e-07
1.06634e-07
1.08421e-07
1.10043e-07
1.11818e-07
1.13212e-07
1.15037e-07
1.15952e-07
1.18047e-07
1.17815e-07
1.20863e-07
1.17712e-07
1.23702e-07
1.13119e-07
1.27655e-07
9.68375e-08
1.35504e-07
4.25262e-08
1.60418e-07
-3.66699e-07
1.88632e-08
3.42152e-07
1.23566e-07
2.16464e-07
6.79886e-08
-7.00324e-08
1.9816e-08
-9.10678e-08
-5.86938e-08
-1.07331e-07
-1.00044e-07
-1.19085e-07
-1.19312e-07
-1.25826e-07
-1.25816e-07
-1.2811e-07
-1.2605e-07
-1.26139e-07
-1.23381e-07
-1.21065e-07
-1.18407e-07
-1.14806e-07
-1.11304e-07
-1.07714e-07
-1.03346e-07
-9.93732e-08
-9.50816e-08
-9.04175e-08
-8.61086e-08
-8.13666e-08
-7.6631e-08
-7.20475e-08
-6.71265e-08
-6.23306e-08
-5.75575e-08
-5.25552e-08
-4.77414e-08
-4.28413e-08
-3.78791e-08
-3.30626e-08
-2.80938e-08
-2.32417e-08
-1.83893e-08
-1.34991e-08
-8.71584e-09
-3.87479e-09
8.64484e-10
5.61104e-09
1.02993e-08
1.49637e-08
1.95745e-08
2.41681e-08
2.8178e-08
3.187e-08
3.54883e-08
3.88308e-08
4.22427e-08
4.55601e-08
4.86937e-08
5.1823e-08
5.4795e-08
5.7719e-08
6.0565e-08
6.33049e-08
6.60033e-08
6.86184e-08
7.11523e-08
7.36548e-08
7.60536e-08
7.8422e-08
8.07328e-08
8.29646e-08
8.5186e-08
8.73147e-08
8.94273e-08
9.14927e-08
9.34946e-08
9.55034e-08
9.74147e-08
9.93533e-08
1.01204e-07
1.03059e-07
1.04873e-07
1.06629e-07
1.08415e-07
1.10036e-07
1.11811e-07
1.13204e-07
1.15029e-07
1.15941e-07
1.18037e-07
1.17798e-07
1.20849e-07
1.17681e-07
1.23684e-07
1.13056e-07
1.27629e-07
9.66792e-08
1.35459e-07
4.19387e-08
1.60268e-07
-3.62637e-07
2.12217e-08
3.4177e-07
1.22263e-07
2.14476e-07
6.85842e-08
-6.77343e-08
2.03655e-08
-9.00225e-08
-5.79957e-08
-1.06513e-07
-9.94523e-08
-1.18503e-07
-1.18862e-07
-1.25425e-07
-1.25488e-07
-1.2783e-07
-1.25819e-07
-1.25941e-07
-1.23219e-07
-1.20925e-07
-1.1829e-07
-1.1471e-07
-1.11221e-07
-1.07646e-07
-1.0329e-07
-9.93252e-08
-9.50428e-08
-9.0386e-08
-8.60821e-08
-8.13464e-08
-7.66148e-08
-7.20345e-08
-6.71174e-08
-6.23237e-08
-5.7553e-08
-5.25532e-08
-4.77406e-08
-4.28421e-08
-3.78811e-08
-3.30655e-08
-2.80978e-08
-2.32462e-08
-1.83945e-08
-1.35048e-08
-8.72191e-09
-3.8812e-09
8.57833e-10
5.60424e-09
1.02923e-08
1.49566e-08
1.95675e-08
2.4161e-08
2.81716e-08
3.18633e-08
3.54812e-08
3.88244e-08
4.22358e-08
4.55527e-08
4.86864e-08
5.18158e-08
5.47881e-08
5.77121e-08
6.05583e-08
6.32985e-08
6.5997e-08
6.86123e-08
7.11463e-08
7.3649e-08
7.6048e-08
7.84165e-08
8.07275e-08
8.29594e-08
8.51809e-08
8.73097e-08
8.94224e-08
9.14878e-08
9.34898e-08
9.54986e-08
9.74099e-08
9.93483e-08
1.01199e-07
1.03054e-07
1.04868e-07
1.06623e-07
1.08409e-07
1.1003e-07
1.11804e-07
1.13196e-07
1.1502e-07
1.15929e-07
1.18026e-07
1.1778e-07
1.20835e-07
1.17648e-07
1.23665e-07
1.12989e-07
1.27601e-07
9.65105e-08
1.35411e-07
4.13235e-08
1.601e-07
-3.58269e-07
2.37606e-08
3.41256e-07
1.2095e-07
2.12379e-07
6.91965e-08
-6.53051e-08
2.09437e-08
-8.88948e-08
-5.72553e-08
-1.05636e-07
-9.88201e-08
-1.17878e-07
-1.18379e-07
-1.24993e-07
-1.25136e-07
-1.27527e-07
-1.25569e-07
-1.25726e-07
-1.23044e-07
-1.20774e-07
-1.18163e-07
-1.14607e-07
-1.11132e-07
-1.07571e-07
-1.0323e-07
-9.92731e-08
-9.50007e-08
-9.03518e-08
-8.60533e-08
-8.13244e-08
-7.6597e-08
-7.20201e-08
-6.71074e-08
-6.23161e-08
-5.75479e-08
-5.25508e-08
-4.77395e-08
-4.28428e-08
-3.78832e-08
-3.30684e-08
-2.8102e-08
-2.3251e-08
-1.84e-08
-1.35109e-08
-8.72838e-09
-3.88804e-09
8.50717e-10
5.59696e-09
1.02849e-08
1.49491e-08
1.95599e-08
2.41533e-08
2.81648e-08
3.18561e-08
3.54734e-08
3.88174e-08
4.22282e-08
4.55447e-08
4.86786e-08
5.1808e-08
5.47805e-08
5.77047e-08
6.05511e-08
6.32916e-08
6.59901e-08
6.86056e-08
7.11399e-08
7.36426e-08
7.6042e-08
7.84105e-08
8.07216e-08
8.29537e-08
8.51752e-08
8.73043e-08
8.9417e-08
9.14825e-08
9.34845e-08
9.54932e-08
9.74046e-08
9.93429e-08
1.01194e-07
1.03048e-07
1.04862e-07
1.06617e-07
1.08403e-07
1.10023e-07
1.11796e-07
1.13186e-07
1.15011e-07
1.15916e-07
1.18014e-07
1.1776e-07
1.20819e-07
1.17612e-07
1.23643e-07
1.12917e-07
1.2757e-07
9.63309e-08
1.3536e-07
4.0681e-08
1.59913e-07
-3.53578e-07
2.64917e-08
3.40587e-07
1.19634e-07
2.10171e-07
6.98243e-08
-6.27418e-08
2.1551e-08
-8.76783e-08
-5.64706e-08
-1.04693e-07
-9.81444e-08
-1.17206e-07
-1.17861e-07
-1.24528e-07
-1.24756e-07
-1.272e-07
-1.253e-07
-1.25494e-07
-1.22854e-07
-1.20611e-07
-1.18027e-07
-1.14494e-07
-1.11036e-07
-1.07491e-07
-1.03164e-07
-9.92166e-08
-9.49549e-08
-9.03146e-08
-8.60219e-08
-8.13002e-08
-7.65774e-08
-7.20044e-08
-6.70964e-08
-6.23076e-08
-5.75421e-08
-5.2548e-08
-4.77381e-08
-4.28434e-08
-3.78853e-08
-3.30715e-08
-2.81064e-08
-2.32561e-08
-1.84058e-08
-1.35173e-08
-8.73527e-09
-3.89536e-09
8.43103e-10
5.58914e-09
1.02769e-08
1.4941e-08
1.95517e-08
2.41449e-08
2.81573e-08
3.18482e-08
3.5465e-08
3.88099e-08
4.22201e-08
4.5536e-08
4.86701e-08
5.17995e-08
5.47724e-08
5.76967e-08
6.05432e-08
6.3284e-08
6.59826e-08
6.85984e-08
7.11328e-08
7.36356e-08
7.60353e-08
7.8404e-08
8.07152e-08
8.29475e-08
8.51691e-08
8.72983e-08
8.9411e-08
9.14766e-08
9.34787e-08
9.54874e-08
9.73988e-08
9.9337e-08
1.01188e-07
1.03042e-07
1.04856e-07
1.0661e-07
1.08396e-07
1.10015e-07
1.11788e-07
1.13176e-07
1.15001e-07
1.15902e-07
1.18001e-07
1.17738e-07
1.20802e-07
1.17574e-07
1.2362e-07
1.1284e-07
1.27537e-07
9.61397e-08
1.35305e-07
4.0012e-08
1.59704e-07
-3.48547e-07
2.94275e-08
3.39744e-07
1.18328e-07
2.07851e-07
7.04662e-08
-6.00416e-08
2.21875e-08
-8.63665e-08
-5.564e-08
-1.03682e-07
-9.74225e-08
-1.16483e-07
-1.17304e-07
-1.24026e-07
-1.24348e-07
-1.26848e-07
-1.2501e-07
-1.25244e-07
-1.2265e-07
-1.20434e-07
-1.17879e-07
-1.14372e-07
-1.10931e-07
-1.07403e-07
-1.03093e-07
-9.91552e-08
-9.4905e-08
-9.02739e-08
-8.59876e-08
-8.12738e-08
-7.6556e-08
-7.1987e-08
-6.70841e-08
-6.22981e-08
-5.75357e-08
-5.25447e-08
-4.77364e-08
-4.28438e-08
-3.78873e-08
-3.30746e-08
-2.81109e-08
-2.32614e-08
-1.8412e-08
-1.35241e-08
-8.7426e-09
-3.90316e-09
8.34962e-10
5.58078e-09
1.02683e-08
1.49323e-08
1.95429e-08
2.4136e-08
2.81493e-08
3.18397e-08
3.54558e-08
3.88017e-08
4.22113e-08
4.55267e-08
4.8661e-08
5.17903e-08
5.47635e-08
5.76879e-08
6.05346e-08
6.32758e-08
6.59744e-08
6.85905e-08
7.11252e-08
7.36281e-08
7.60281e-08
7.83968e-08
8.07082e-08
8.29407e-08
8.51623e-08
8.72918e-08
8.94045e-08
9.14702e-08
9.34724e-08
9.5481e-08
9.73925e-08
9.93305e-08
1.01181e-07
1.03035e-07
1.04848e-07
1.06602e-07
1.08388e-07
1.10006e-07
1.11779e-07
1.13165e-07
1.14989e-07
1.15887e-07
1.17986e-07
1.17714e-07
1.20783e-07
1.17533e-07
1.23595e-07
1.12757e-07
1.27501e-07
9.59365e-08
1.35247e-07
3.93177e-08
1.59471e-07
-3.43159e-07
3.25803e-08
3.38702e-07
1.17043e-07
2.05418e-07
7.11208e-08
-5.72027e-08
2.28533e-08
-8.49526e-08
-5.47617e-08
-1.02596e-07
-9.66517e-08
-1.15706e-07
-1.16708e-07
-1.23486e-07
-1.23909e-07
-1.26468e-07
-1.24697e-07
-1.24974e-07
-1.22428e-07
-1.20244e-07
-1.17719e-07
-1.1424e-07
-1.10818e-07
-1.07308e-07
-1.03016e-07
-9.90886e-08
-9.48506e-08
-9.02297e-08
-8.59502e-08
-8.12448e-08
-7.65326e-08
-7.1968e-08
-6.70705e-08
-6.22876e-08
-5.75284e-08
-5.25409e-08
-4.77343e-08
-4.2844e-08
-3.78893e-08
-3.30778e-08
-2.81157e-08
-2.3267e-08
-1.84184e-08
-1.35314e-08
-8.7504e-09
-3.91149e-09
8.26259e-10
5.57182e-09
1.0259e-08
1.49229e-08
1.95334e-08
2.41263e-08
2.81406e-08
3.18305e-08
3.5446e-08
3.87929e-08
4.22017e-08
4.55165e-08
4.8651e-08
5.17804e-08
5.4754e-08
5.76784e-08
6.05253e-08
6.32669e-08
6.59656e-08
6.85819e-08
7.11168e-08
7.36198e-08
7.60202e-08
7.8389e-08
8.07006e-08
8.29333e-08
8.51549e-08
8.72847e-08
8.93974e-08
9.14632e-08
9.34654e-08
9.5474e-08
9.73855e-08
9.93233e-08
1.01174e-07
1.03027e-07
1.04841e-07
1.06594e-07
1.08379e-07
1.09996e-07
1.11769e-07
1.13153e-07
1.14977e-07
1.15871e-07
1.1797e-07
1.17689e-07
1.20762e-07
1.17489e-07
1.23567e-07
1.12669e-07
1.27461e-07
9.57209e-08
1.35185e-07
3.85994e-08
1.59209e-07
-3.374e-07
3.59627e-08
3.37436e-07
1.15794e-07
2.02873e-07
7.17864e-08
-5.42242e-08
2.3548e-08
-8.34294e-08
-5.3834e-08
-1.01432e-07
-9.58292e-08
-1.14871e-07
-1.16068e-07
-1.22904e-07
-1.23437e-07
-1.26057e-07
-1.2436e-07
-1.24682e-07
-1.22189e-07
-1.20038e-07
-1.17545e-07
-1.14097e-07
-1.10695e-07
-1.07205e-07
-1.02932e-07
-9.90161e-08
-9.47914e-08
-9.01814e-08
-8.59093e-08
-8.1213e-08
-7.65068e-08
-7.1947e-08
-6.70555e-08
-6.22759e-08
-5.75201e-08
-5.25364e-08
-4.77317e-08
-4.28439e-08
-3.78912e-08
-3.3081e-08
-2.81206e-08
-2.32728e-08
-1.84252e-08
-1.35391e-08
-8.75868e-09
-3.92035e-09
8.16965e-10
5.56223e-09
1.02492e-08
1.49128e-08
1.95232e-08
2.41159e-08
2.81312e-08
3.18205e-08
3.54353e-08
3.87833e-08
4.21913e-08
4.55055e-08
4.86403e-08
5.17696e-08
5.47436e-08
5.76682e-08
6.05152e-08
6.32572e-08
6.59559e-08
6.85726e-08
7.11077e-08
7.36109e-08
7.60116e-08
7.83805e-08
8.06923e-08
8.29253e-08
8.51469e-08
8.72769e-08
8.93897e-08
9.14555e-08
9.34578e-08
9.54663e-08
9.73778e-08
9.93155e-08
1.01166e-07
1.03019e-07
1.04832e-07
1.06585e-07
1.0837e-07
1.09986e-07
1.11758e-07
1.1314e-07
1.14963e-07
1.15853e-07
1.17953e-07
1.17661e-07
1.2074e-07
1.17441e-07
1.23536e-07
1.12574e-07
1.27418e-07
9.54924e-08
1.35119e-07
3.78596e-08
1.58917e-07
-3.31255e-07
3.95868e-08
3.3592e-07
1.14596e-07
2.00216e-07
7.24615e-08
-5.1106e-08
2.42711e-08
-8.17892e-08
-5.28554e-08
-1.00183e-07
-9.49519e-08
-1.13974e-07
-1.15381e-07
-1.22277e-07
-1.22929e-07
-1.25614e-07
-1.23995e-07
-1.24368e-07
-1.21929e-07
-1.19815e-07
-1.17358e-07
-1.13941e-07
-1.10562e-07
-1.07093e-07
-1.02841e-07
-9.89373e-08
-9.47269e-08
-9.01287e-08
-8.58647e-08
-8.11781e-08
-7.64785e-08
-7.19239e-08
-6.70387e-08
-6.22629e-08
-5.75109e-08
-5.25312e-08
-4.77287e-08
-4.28435e-08
-3.78929e-08
-3.30842e-08
-2.81256e-08
-2.32789e-08
-1.84324e-08
-1.35472e-08
-8.76747e-09
-3.9298e-09
8.07039e-10
5.55197e-09
1.02386e-08
1.4902e-08
1.95122e-08
2.41047e-08
2.8121e-08
3.18097e-08
3.54238e-08
3.87728e-08
4.21801e-08
4.54936e-08
4.86286e-08
5.17579e-08
5.47323e-08
5.7657e-08
6.05042e-08
6.32466e-08
6.59455e-08
6.85624e-08
7.10978e-08
7.36011e-08
7.60023e-08
7.83713e-08
8.06832e-08
8.29164e-08
8.51381e-08
8.72684e-08
8.93812e-08
9.14471e-08
9.34495e-08
9.54578e-08
9.73695e-08
9.93069e-08
1.01158e-07
1.0301e-07
1.04823e-07
1.06575e-07
1.08359e-07
1.09974e-07
1.11745e-07
1.13126e-07
1.14948e-07
1.15833e-07
1.17934e-07
1.17631e-07
1.20715e-07
1.1739e-07
1.23503e-07
1.12473e-07
1.27372e-07
9.52506e-08
1.35048e-07
3.71008e-08
1.5859e-07
-3.24708e-07
4.34645e-08
3.34124e-07
1.13466e-07
1.97449e-07
7.31447e-08
-4.7849e-08
2.50218e-08
-8.00244e-08
-5.18241e-08
-9.88453e-08
-9.40168e-08
-1.13011e-07
-1.14645e-07
-1.21601e-07
-1.22383e-07
-1.25136e-07
-1.23603e-07
-1.24027e-07
-1.21649e-07
-1.19574e-07
-1.17154e-07
-1.13773e-07
-1.10418e-07
-1.06971e-07
-1.02741e-07
-9.88516e-08
-9.46565e-08
-9.00712e-08
-8.58159e-08
-8.11399e-08
-7.64475e-08
-7.18984e-08
-6.70202e-08
-6.22483e-08
-5.75005e-08
-5.25252e-08
-4.77249e-08
-4.28427e-08
-3.78945e-08
-3.30873e-08
-2.81308e-08
-2.32852e-08
-1.84399e-08
-1.35558e-08
-8.77679e-09
-3.93985e-09
7.96454e-10
5.541e-09
1.02272e-08
1.48904e-08
1.95004e-08
2.40926e-08
2.811e-08
3.1798e-08
3.54113e-08
3.87615e-08
4.21679e-08
4.54807e-08
4.8616e-08
5.17452e-08
5.47201e-08
5.76449e-08
6.04923e-08
6.32352e-08
6.59341e-08
6.85514e-08
7.10871e-08
7.35904e-08
7.59921e-08
7.83612e-08
8.06733e-08
8.29068e-08
8.51285e-08
8.72591e-08
8.93718e-08
9.14379e-08
9.34404e-08
9.54486e-08
9.73603e-08
9.92975e-08
1.01148e-07
1.03e-07
1.04813e-07
1.06564e-07
1.08348e-07
1.09962e-07
1.11732e-07
1.1311e-07
1.14932e-07
1.15812e-07
1.17914e-07
1.17599e-07
1.20688e-07
1.17335e-07
1.23467e-07
1.12365e-07
1.27321e-07
9.49952e-08
1.34972e-07
3.63267e-08
1.58224e-07
-3.17747e-07
4.7607e-08
3.32022e-07
1.12422e-07
1.94576e-07
7.38346e-08
-4.44555e-08
2.57989e-08
-7.81269e-08
-5.07387e-08
-9.74116e-08
-9.30207e-08
-1.11976e-07
-1.13857e-07
-1.20873e-07
-1.21796e-07
-1.2462e-07
-1.23179e-07
-1.2366e-07
-1.21346e-07
-1.19314e-07
-1.16934e-07
-1.1359e-07
-1.10262e-07
-1.06839e-07
-1.02633e-07
-9.87583e-08
-9.45797e-08
-9.00084e-08
-8.57626e-08
-8.10979e-08
-7.64133e-08
-7.18703e-08
-6.69996e-08
-6.22322e-08
-5.74887e-08
-5.25183e-08
-4.77205e-08
-4.28415e-08
-3.78959e-08
-3.30904e-08
-2.81361e-08
-2.32917e-08
-1.84478e-08
-1.35648e-08
-8.78666e-09
-3.95054e-09
7.85165e-10
5.52927e-09
1.02151e-08
1.4878e-08
1.94877e-08
2.40796e-08
2.80981e-08
3.17854e-08
3.53978e-08
3.87492e-08
4.21547e-08
4.54668e-08
4.86024e-08
5.17315e-08
5.47068e-08
5.76318e-08
6.04794e-08
6.32227e-08
6.59218e-08
6.85393e-08
7.10754e-08
7.35789e-08
7.5981e-08
7.83502e-08
8.06625e-08
8.28963e-08
8.5118e-08
8.72489e-08
8.93617e-08
9.14278e-08
9.34304e-08
9.54385e-08
9.73502e-08
9.92872e-08
1.01138e-07
1.0299e-07
1.04801e-07
1.06553e-07
1.08335e-07
1.09948e-07
1.11717e-07
1.13093e-07
1.14914e-07
1.15789e-07
1.17891e-07
1.17564e-07
1.20659e-07
1.17275e-07
1.23427e-07
1.12251e-07
1.27265e-07
9.47262e-08
1.3489e-07
3.55415e-08
1.57815e-07
-3.1036e-07
5.20244e-08
3.29585e-07
1.11486e-07
1.91601e-07
7.45302e-08
-4.09288e-08
2.6601e-08
-7.60888e-08
-4.95977e-08
-9.58764e-08
-9.19602e-08
-1.10866e-07
-1.13011e-07
-1.20089e-07
-1.21164e-07
-1.24063e-07
-1.22722e-07
-1.23263e-07
-1.21017e-07
-1.19032e-07
-1.16696e-07
-1.13391e-07
-1.10092e-07
-1.06695e-07
-1.02516e-07
-9.86568e-08
-9.44959e-08
-8.99398e-08
-8.57042e-08
-8.10517e-08
-7.63758e-08
-7.18393e-08
-6.69767e-08
-6.22141e-08
-5.74755e-08
-5.25103e-08
-4.77153e-08
-4.28397e-08
-3.7897e-08
-3.30933e-08
-2.81415e-08
-2.32985e-08
-1.8456e-08
-1.35743e-08
-8.79709e-09
-3.96189e-09
7.73146e-10
5.51676e-09
1.0202e-08
1.48646e-08
1.9474e-08
2.40656e-08
2.80852e-08
3.17717e-08
3.53833e-08
3.87359e-08
4.21404e-08
4.54518e-08
4.85876e-08
5.17167e-08
5.46925e-08
5.76176e-08
6.04654e-08
6.32093e-08
6.59084e-08
6.85263e-08
7.10627e-08
7.35663e-08
7.59689e-08
7.83382e-08
8.06507e-08
8.28849e-08
8.51065e-08
8.72378e-08
8.93506e-08
9.14168e-08
9.34195e-08
9.54274e-08
9.73392e-08
9.92758e-08
1.01126e-07
1.02978e-07
1.04789e-07
1.0654e-07
1.08321e-07
1.09933e-07
1.11701e-07
1.13075e-07
1.14895e-07
1.15763e-07
1.17866e-07
1.17526e-07
1.20626e-07
1.17212e-07
1.23384e-07
1.12129e-07
1.27205e-07
9.44433e-08
1.34802e-07
3.47506e-08
1.57357e-07
-3.02538e-07
5.67254e-08
3.26783e-07
1.10678e-07
1.8853e-07
7.52309e-08
-3.72735e-08
2.74265e-08
-7.39019e-08
-4.83995e-08
-9.42334e-08
-9.08317e-08
-1.09675e-07
-1.12106e-07
-1.19245e-07
-1.20485e-07
-1.23462e-07
-1.22228e-07
-1.22834e-07
-1.20661e-07
-1.18727e-07
-1.16437e-07
-1.13176e-07
-1.09908e-07
-1.06539e-07
-1.02387e-07
-9.85463e-08