/*--------------------------------*- C++ -*----------------------------------*\
| =========                 |                                                 |
| \\      /  F ield         | OpenFOAM: The Open Source CFD Toolbox           |
|  \\    /   O peration     | Version:  5.x                                   |
|   \\  /    A nd           | Web:      www.OpenFOAM.org                      |
|    \\/     M anipulation  |                                                 |
\*---------------------------------------------------------------------------*/
FoamFile
{
    version     2.0;
    format      ascii;
    class       volScalarField;
    location    "1000";
    object      p;
}
// * * * * * * * * * * * * * * * * * * * * * * * * * * * * * * * * * * * * * //

dimensions      [0 2 -2 0 0 0 0];

internalField   nonuniform List<scalar> 
107912
(
-1.96272e-05
3.2447e-06
-2.7441e-05
-3.01534e-05
-5.802e-05
-7.35219e-05
-5.93699e-05
-7.28649e-05
-6.66967e-05
-6.94985e-05
-6.623e-05
-6.51177e-05
-6.24168e-05
-6.00249e-05
-5.73682e-05
-5.47424e-05
-5.20573e-05
-4.95226e-05
-4.69595e-05
-4.4628e-05
-4.23207e-05
-4.01593e-05
-3.81512e-05
-3.62383e-05
-3.44941e-05
-3.28637e-05
-3.13648e-05
-2.99923e-05
-2.87258e-05
-2.75802e-05
-2.6554e-05
-2.56101e-05
-2.47631e-05
-2.40029e-05
-2.33096e-05
-2.27049e-05
-2.21394e-05
-2.16378e-05
-2.12066e-05
-2.08048e-05
-2.04432e-05
-2.01258e-05
-1.9839e-05
-1.95738e-05
-1.93424e-05
-1.91315e-05
-1.89486e-05
-1.87778e-05
-1.86232e-05
-1.84841e-05
-1.83464e-05
-1.82197e-05
-1.80994e-05
-1.80073e-05
-1.79153e-05
-1.78212e-05
-1.77352e-05
-1.76609e-05
-1.75836e-05
-1.75154e-05
-1.74479e-05
-1.73927e-05
-1.73362e-05
-1.72957e-05
-1.72509e-05
-1.72117e-05
-1.71768e-05
-1.71551e-05
-1.71299e-05
-1.71026e-05
-1.70832e-05
-1.70799e-05
-1.70648e-05
-1.70629e-05
-1.70519e-05
-1.70244e-05
-1.70166e-05
-1.70215e-05
-1.70202e-05
-1.70027e-05
-1.70084e-05
-1.70132e-05
-1.7034e-05
-1.70469e-05
-1.70812e-05
-1.71139e-05
-1.71651e-05
-1.72111e-05
-1.72779e-05
-1.73337e-05
-1.74169e-05
-1.75029e-05
-1.76002e-05
-1.77248e-05
-1.78253e-05
-1.80076e-05
-1.80813e-05
-1.84155e-05
-1.84067e-05
-1.90792e-05
-1.85685e-05
-2.22673e-05
-2.75517e-05
3.2395e-06
-2.75261e-05
-3.02144e-05
-5.79329e-05
-7.34237e-05
-5.9349e-05
-7.28199e-05
-6.6677e-05
-6.94775e-05
-6.62219e-05
-6.51119e-05
-6.24169e-05
-6.00274e-05
-5.73728e-05
-5.47485e-05
-5.20642e-05
-4.95298e-05
-4.69671e-05
-4.46352e-05
-4.23279e-05
-4.01662e-05
-3.81576e-05
-3.62444e-05
-3.44996e-05
-3.28689e-05
-3.13695e-05
-2.99966e-05
-2.87298e-05
-2.75837e-05
-2.65572e-05
-2.5613e-05
-2.47657e-05
-2.40052e-05
-2.33118e-05
-2.27067e-05
-2.21411e-05
-2.16394e-05
-2.1208e-05
-2.08061e-05
-2.04444e-05
-2.01268e-05
-1.98399e-05
-1.95747e-05
-1.93432e-05
-1.91322e-05
-1.89492e-05
-1.87784e-05
-1.86238e-05
-1.84846e-05
-1.83468e-05
-1.82201e-05
-1.80999e-05
-1.80077e-05
-1.79157e-05
-1.78215e-05
-1.77356e-05
-1.76612e-05
-1.7584e-05
-1.75158e-05
-1.74483e-05
-1.7393e-05
-1.73366e-05
-1.7296e-05
-1.72512e-05
-1.72119e-05
-1.71771e-05
-1.71553e-05
-1.713e-05
-1.71027e-05
-1.70833e-05
-1.70798e-05
-1.70649e-05
-1.70628e-05
-1.70517e-05
-1.70243e-05
-1.70165e-05
-1.70213e-05
-1.702e-05
-1.70026e-05
-1.70081e-05
-1.70131e-05
-1.70337e-05
-1.70467e-05
-1.70809e-05
-1.71136e-05
-1.71648e-05
-1.72109e-05
-1.72776e-05
-1.73335e-05
-1.74165e-05
-1.75027e-05
-1.75998e-05
-1.77246e-05
-1.7825e-05
-1.80075e-05
-1.80812e-05
-1.84156e-05
-1.84066e-05
-1.9081e-05
-1.85688e-05
-2.21527e-05
-2.85186e-05
3.23604e-06
-2.76235e-05
-3.02839e-05
-5.78357e-05
-7.33066e-05
-5.93218e-05
-7.27688e-05
-6.66513e-05
-6.94517e-05
-6.62096e-05
-6.5103e-05
-6.24143e-05
-6.00278e-05
-5.73756e-05
-5.47533e-05
-5.20699e-05
-4.95362e-05
-4.69739e-05
-4.46419e-05
-4.23346e-05
-4.01727e-05
-3.81638e-05
-3.62504e-05
-3.45049e-05
-3.2874e-05
-3.1374e-05
-3.00009e-05
-2.87337e-05
-2.75873e-05
-2.65605e-05
-2.5616e-05
-2.47684e-05
-2.40077e-05
-2.33142e-05
-2.27085e-05
-2.21429e-05
-2.16412e-05
-2.12095e-05
-2.08074e-05
-2.04456e-05
-2.01279e-05
-1.98409e-05
-1.95757e-05
-1.9344e-05
-1.91331e-05
-1.89499e-05
-1.8779e-05
-1.86244e-05
-1.84851e-05
-1.83473e-05
-1.82205e-05
-1.81005e-05
-1.80083e-05
-1.79161e-05
-1.7822e-05
-1.7736e-05
-1.76616e-05
-1.75844e-05
-1.75163e-05
-1.74489e-05
-1.73935e-05
-1.73371e-05
-1.72964e-05
-1.72517e-05
-1.72123e-05
-1.71775e-05
-1.71556e-05
-1.71302e-05
-1.71029e-05
-1.70835e-05
-1.70798e-05
-1.7065e-05
-1.70628e-05
-1.70515e-05
-1.70242e-05
-1.70165e-05
-1.70212e-05
-1.70197e-05
-1.70025e-05
-1.70079e-05
-1.7013e-05
-1.70335e-05
-1.70466e-05
-1.70807e-05
-1.71135e-05
-1.71645e-05
-1.72108e-05
-1.72772e-05
-1.73334e-05
-1.74162e-05
-1.75026e-05
-1.75995e-05
-1.77244e-05
-1.78247e-05
-1.80075e-05
-1.80813e-05
-1.84158e-05
-1.84066e-05
-1.90831e-05
-1.85699e-05
-2.21377e-05
-2.79667e-05
3.2298e-06
-2.7721e-05
-3.03555e-05
-5.77375e-05
-7.31859e-05
-5.92933e-05
-7.27157e-05
-6.66246e-05
-6.94247e-05
-6.61968e-05
-6.50934e-05
-6.24114e-05
-6.00279e-05
-5.73783e-05
-5.47579e-05
-5.20757e-05
-4.95426e-05
-4.69808e-05
-4.46487e-05
-4.23414e-05
-4.01793e-05
-3.81701e-05
-3.62565e-05
-3.45103e-05
-3.28793e-05
-3.13786e-05
-3.00053e-05
-2.87378e-05
-2.75911e-05
-2.65639e-05
-2.56191e-05
-2.47712e-05
-2.40102e-05
-2.33166e-05
-2.27103e-05
-2.21448e-05
-2.1643e-05
-2.1211e-05
-2.08089e-05
-2.04469e-05
-2.01291e-05
-1.98419e-05
-1.95768e-05
-1.93448e-05
-1.9134e-05
-1.89506e-05
-1.87797e-05
-1.86251e-05
-1.84857e-05
-1.83479e-05
-1.82209e-05
-1.81012e-05
-1.80089e-05
-1.79166e-05
-1.78225e-05
-1.77365e-05
-1.7662e-05
-1.7585e-05
-1.75168e-05
-1.74494e-05
-1.73939e-05
-1.73376e-05
-1.72968e-05
-1.72521e-05
-1.72126e-05
-1.71779e-05
-1.71558e-05
-1.71304e-05
-1.7103e-05
-1.70837e-05
-1.70797e-05
-1.70651e-05
-1.70627e-05
-1.70512e-05
-1.7024e-05
-1.70164e-05
-1.7021e-05
-1.70193e-05
-1.70023e-05
-1.70075e-05
-1.70128e-05
-1.70331e-05
-1.70465e-05
-1.70802e-05
-1.71132e-05
-1.7164e-05
-1.72106e-05
-1.72767e-05
-1.73332e-05
-1.74158e-05
-1.75024e-05
-1.7599e-05
-1.7724e-05
-1.78243e-05
-1.80074e-05
-1.80812e-05
-1.84158e-05
-1.84064e-05
-1.90852e-05
-1.8571e-05
-2.21365e-05
-2.77169e-05
3.22071e-06
-2.78208e-05
-3.04311e-05
-5.76354e-05
-7.30594e-05
-5.92631e-05
-7.26591e-05
-6.65969e-05
-6.93961e-05
-6.61834e-05
-6.50833e-05
-6.24084e-05
-6.00281e-05
-5.73813e-05
-5.47629e-05
-5.20819e-05
-4.95494e-05
-4.69882e-05
-4.46559e-05
-4.23487e-05
-4.01865e-05
-3.81768e-05
-3.62632e-05
-3.45161e-05
-3.2885e-05
-3.13834e-05
-3.001e-05
-2.87421e-05
-2.7595e-05
-2.65675e-05
-2.56224e-05
-2.47742e-05
-2.40128e-05
-2.33193e-05
-2.27122e-05
-2.21468e-05
-2.16449e-05
-2.12127e-05
-2.08104e-05
-2.04483e-05
-2.01305e-05
-1.9843e-05
-1.9578e-05
-1.93457e-05
-1.9135e-05
-1.89515e-05
-1.87805e-05
-1.86259e-05
-1.84864e-05
-1.83485e-05
-1.82214e-05
-1.81019e-05
-1.80096e-05
-1.79171e-05
-1.78231e-05
-1.7737e-05
-1.76625e-05
-1.75855e-05
-1.75174e-05
-1.74501e-05
-1.73944e-05
-1.73383e-05
-1.72973e-05
-1.72526e-05
-1.72131e-05
-1.71783e-05
-1.71561e-05
-1.71307e-05
-1.71032e-05
-1.70839e-05
-1.70796e-05
-1.70653e-05
-1.70627e-05
-1.7051e-05
-1.70238e-05
-1.70164e-05
-1.70209e-05
-1.70189e-05
-1.70022e-05
-1.70072e-05
-1.70126e-05
-1.70327e-05
-1.70463e-05
-1.70798e-05
-1.7113e-05
-1.71635e-05
-1.72104e-05
-1.72761e-05
-1.7333e-05
-1.74153e-05
-1.75023e-05
-1.75985e-05
-1.77236e-05
-1.7824e-05
-1.80074e-05
-1.80813e-05
-1.84158e-05
-1.84062e-05
-1.90874e-05
-1.85723e-05
-2.21292e-05
-2.7639e-05
3.20889e-06
-2.79238e-05
-3.05113e-05
-5.75274e-05
-7.29246e-05
-5.92303e-05
-7.2598e-05
-6.65674e-05
-6.93652e-05
-6.61691e-05
-6.50724e-05
-6.24053e-05
-6.00283e-05
-5.73845e-05
-5.47683e-05
-5.20886e-05
-4.95569e-05
-4.69963e-05
-4.46638e-05
-4.23566e-05
-4.01942e-05
-3.81841e-05
-3.62704e-05
-3.45223e-05
-3.28912e-05
-3.13887e-05
-3.00152e-05
-2.87469e-05
-2.75994e-05
-2.65714e-05
-2.5626e-05
-2.47775e-05
-2.40157e-05
-2.33223e-05
-2.27143e-05
-2.2149e-05
-2.16471e-05
-2.12145e-05
-2.08121e-05
-2.04498e-05
-2.01319e-05
-1.98442e-05
-1.95794e-05
-1.93466e-05
-1.91361e-05
-1.89524e-05
-1.87813e-05
-1.86267e-05
-1.84871e-05
-1.83492e-05
-1.8222e-05
-1.81028e-05
-1.80104e-05
-1.79177e-05
-1.78237e-05
-1.77376e-05
-1.7663e-05
-1.75861e-05
-1.7518e-05
-1.74508e-05
-1.73949e-05
-1.73389e-05
-1.72977e-05
-1.72531e-05
-1.72134e-05
-1.71788e-05
-1.71564e-05
-1.71309e-05
-1.71034e-05
-1.70841e-05
-1.70794e-05
-1.70654e-05
-1.70626e-05
-1.70505e-05
-1.70236e-05
-1.70163e-05
-1.70206e-05
-1.70183e-05
-1.7002e-05
-1.70067e-05
-1.70123e-05
-1.70322e-05
-1.70461e-05
-1.70792e-05
-1.71126e-05
-1.71629e-05
-1.721e-05
-1.72754e-05
-1.73327e-05
-1.74146e-05
-1.7502e-05
-1.75978e-05
-1.77231e-05
-1.78234e-05
-1.80073e-05
-1.80813e-05
-1.84156e-05
-1.84059e-05
-1.90895e-05
-1.85737e-05
-2.21184e-05
-2.7549e-05
3.19376e-06
-2.80297e-05
-3.0596e-05
-5.74129e-05
-7.27808e-05
-5.91948e-05
-7.2532e-05
-6.65361e-05
-6.93318e-05
-6.61538e-05
-6.50606e-05
-6.24019e-05
-6.00285e-05
-5.73879e-05
-5.47741e-05
-5.20957e-05
-4.95648e-05
-4.70048e-05
-4.46722e-05
-4.23651e-05
-4.02024e-05
-3.81919e-05
-3.62781e-05
-3.4529e-05
-3.28978e-05
-3.13943e-05
-3.00207e-05
-2.87519e-05
-2.7604e-05
-2.65756e-05
-2.56298e-05
-2.47811e-05
-2.40189e-05
-2.33254e-05
-2.27165e-05
-2.21514e-05
-2.16493e-05
-2.12165e-05
-2.0814e-05
-2.04515e-05
-2.01335e-05
-1.98455e-05
-1.95808e-05
-1.93477e-05
-1.91373e-05
-1.89533e-05
-1.87823e-05
-1.86276e-05
-1.84879e-05
-1.83499e-05
-1.82226e-05
-1.81037e-05
-1.80112e-05
-1.79184e-05
-1.78244e-05
-1.77382e-05
-1.76636e-05
-1.75868e-05
-1.75187e-05
-1.74515e-05
-1.73955e-05
-1.73396e-05
-1.72983e-05
-1.72537e-05
-1.72139e-05
-1.71793e-05
-1.71567e-05
-1.71311e-05
-1.71036e-05
-1.70843e-05
-1.70793e-05
-1.70656e-05
-1.70625e-05
-1.70502e-05
-1.70235e-05
-1.70162e-05
-1.70204e-05
-1.70178e-05
-1.70018e-05
-1.70062e-05
-1.70121e-05
-1.70317e-05
-1.70459e-05
-1.70786e-05
-1.71123e-05
-1.71622e-05
-1.72098e-05
-1.72746e-05
-1.73325e-05
-1.7414e-05
-1.75018e-05
-1.75972e-05
-1.77226e-05
-1.78229e-05
-1.80072e-05
-1.80813e-05
-1.84155e-05
-1.84056e-05
-1.90919e-05
-1.85753e-05
-2.21064e-05
-2.74312e-05
3.17461e-06
-2.81377e-05
-3.06847e-05
-5.72909e-05
-7.26269e-05
-5.91563e-05
-7.24606e-05
-6.65028e-05
-6.92958e-05
-6.61374e-05
-6.50478e-05
-6.23982e-05
-6.00286e-05
-5.73916e-05
-5.47802e-05
-5.21034e-05
-4.95734e-05
-4.70141e-05
-4.46813e-05
-4.23742e-05
-4.02113e-05
-3.82003e-05
-3.62864e-05
-3.45363e-05
-3.29049e-05
-3.14004e-05
-3.00266e-05
-2.87574e-05
-2.7609e-05
-2.65802e-05
-2.5634e-05
-2.47849e-05
-2.40223e-05
-2.33288e-05
-2.27189e-05
-2.2154e-05
-2.16518e-05
-2.12187e-05
-2.08159e-05
-2.04533e-05
-2.01352e-05
-1.98469e-05
-1.95824e-05
-1.93488e-05
-1.91387e-05
-1.89544e-05
-1.87833e-05
-1.86286e-05
-1.84887e-05
-1.83507e-05
-1.82233e-05
-1.81047e-05
-1.80122e-05
-1.7919e-05
-1.78252e-05
-1.77389e-05
-1.76641e-05
-1.75875e-05
-1.75194e-05
-1.74523e-05
-1.73961e-05
-1.73403e-05
-1.72988e-05
-1.72542e-05
-1.72144e-05
-1.71798e-05
-1.7157e-05
-1.71313e-05
-1.71038e-05
-1.70845e-05
-1.70791e-05
-1.70656e-05
-1.70623e-05
-1.70496e-05
-1.70232e-05
-1.70159e-05
-1.702e-05
-1.7017e-05
-1.70014e-05
-1.70056e-05
-1.70117e-05
-1.7031e-05
-1.70456e-05
-1.70779e-05
-1.71118e-05
-1.71614e-05
-1.72093e-05
-1.72737e-05
-1.7332e-05
-1.74131e-05
-1.75014e-05
-1.75963e-05
-1.7722e-05
-1.78221e-05
-1.80069e-05
-1.80812e-05
-1.84153e-05
-1.84051e-05
-1.90942e-05
-1.85769e-05
-2.20929e-05
-2.72928e-05
3.15058e-06
-2.8247e-05
-3.0777e-05
-5.71605e-05
-7.24621e-05
-5.91147e-05
-7.23833e-05
-6.64673e-05
-6.92568e-05
-6.61198e-05
-6.50339e-05
-6.23941e-05
-6.00286e-05
-5.73954e-05
-5.47867e-05
-5.21115e-05
-4.95825e-05
-4.70239e-05
-4.46909e-05
-4.2384e-05
-4.02208e-05
-3.82093e-05
-3.62952e-05
-3.4544e-05
-3.29125e-05
-3.14069e-05
-3.00329e-05
-2.87633e-05
-2.76144e-05
-2.65851e-05
-2.56385e-05
-2.4789e-05
-2.40259e-05
-2.33325e-05
-2.27215e-05
-2.21568e-05
-2.16544e-05
-2.12209e-05
-2.08181e-05
-2.04553e-05
-2.0137e-05
-1.98485e-05
-1.95841e-05
-1.93501e-05
-1.91401e-05
-1.89555e-05
-1.87844e-05
-1.86297e-05
-1.84897e-05
-1.83516e-05
-1.8224e-05
-1.81057e-05
-1.80132e-05
-1.79198e-05
-1.7826e-05
-1.77397e-05
-1.76648e-05
-1.75883e-05
-1.75202e-05
-1.74532e-05
-1.73968e-05
-1.73411e-05
-1.72994e-05
-1.72548e-05
-1.72149e-05
-1.71804e-05
-1.71574e-05
-1.71316e-05
-1.7104e-05
-1.70848e-05
-1.70789e-05
-1.70657e-05
-1.70621e-05
-1.70492e-05
-1.7023e-05
-1.70158e-05
-1.70197e-05
-1.70164e-05
-1.70011e-05
-1.70051e-05
-1.70114e-05
-1.70304e-05
-1.70453e-05
-1.70772e-05
-1.71113e-05
-1.71606e-05
-1.72089e-05
-1.72728e-05
-1.73317e-05
-1.74124e-05
-1.75011e-05
-1.75955e-05
-1.77214e-05
-1.78215e-05
-1.80067e-05
-1.80812e-05
-1.84151e-05
-1.84046e-05
-1.90967e-05
-1.85788e-05
-2.2078e-05
-2.71387e-05
3.12083e-06
-2.83565e-05
-3.08722e-05
-5.702e-05
-7.22848e-05
-5.90696e-05
-7.22993e-05
-6.64294e-05
-6.92146e-05
-6.61009e-05
-6.50188e-05
-6.23898e-05
-6.00285e-05
-5.73995e-05
-5.47936e-05
-5.21203e-05
-4.95922e-05
-4.70344e-05
-4.47013e-05
-4.23944e-05
-4.0231e-05
-3.82189e-05
-3.63047e-05
-3.45524e-05
-3.29206e-05
-3.14139e-05
-3.00398e-05
-2.87696e-05
-2.76202e-05
-2.65903e-05
-2.56432e-05
-2.47934e-05
-2.40298e-05
-2.33364e-05
-2.27243e-05
-2.21598e-05
-2.16573e-05
-2.12234e-05
-2.08204e-05
-2.04574e-05
-2.0139e-05
-1.98501e-05
-1.95859e-05
-1.93515e-05
-1.91417e-05
-1.89567e-05
-1.87856e-05
-1.86308e-05
-1.84907e-05
-1.83525e-05
-1.82248e-05
-1.81068e-05
-1.80143e-05
-1.79206e-05
-1.78268e-05
-1.77405e-05
-1.76655e-05
-1.75891e-05
-1.7521e-05
-1.7454e-05
-1.73975e-05
-1.73419e-05
-1.73e-05
-1.72554e-05
-1.72155e-05
-1.71809e-05
-1.71577e-05
-1.71318e-05
-1.71042e-05
-1.7085e-05
-1.70787e-05
-1.70657e-05
-1.70618e-05
-1.70485e-05
-1.70227e-05
-1.70154e-05
-1.70191e-05
-1.70155e-05
-1.70006e-05
-1.70044e-05
-1.70109e-05
-1.70295e-05
-1.70448e-05
-1.70764e-05
-1.71107e-05
-1.71596e-05
-1.72083e-05
-1.72717e-05
-1.73312e-05
-1.74114e-05
-1.75006e-05
-1.75944e-05
-1.77205e-05
-1.78205e-05
-1.80063e-05
-1.80809e-05
-1.84148e-05
-1.8404e-05
-1.90992e-05
-1.85808e-05
-2.20611e-05
-2.69625e-05
3.0843e-06
-2.84648e-05
-3.09696e-05
-5.68678e-05
-7.20935e-05
-5.90207e-05
-7.22078e-05
-6.63889e-05
-6.91687e-05
-6.60804e-05
-6.50023e-05
-6.23849e-05
-6.00282e-05
-5.74038e-05
-5.4801e-05
-5.21295e-05
-4.96026e-05
-4.70456e-05
-4.47123e-05
-4.24056e-05
-4.02418e-05
-3.82292e-05
-3.63148e-05
-3.45613e-05
-3.29293e-05
-3.14214e-05
-3.0047e-05
-2.87763e-05
-2.76263e-05
-2.65959e-05
-2.56484e-05
-2.47981e-05
-2.4034e-05
-2.33405e-05
-2.27273e-05
-2.21631e-05
-2.16603e-05
-2.1226e-05
-2.08228e-05
-2.04597e-05
-2.01412e-05
-1.98519e-05
-1.95878e-05
-1.9353e-05
-1.91433e-05
-1.89581e-05
-1.87869e-05
-1.8632e-05
-1.84918e-05
-1.83536e-05
-1.82257e-05
-1.8108e-05
-1.80154e-05
-1.79215e-05
-1.78278e-05
-1.77413e-05
-1.76662e-05
-1.75899e-05
-1.7522e-05
-1.7455e-05
-1.73983e-05
-1.73428e-05
-1.73007e-05
-1.72561e-05
-1.72161e-05
-1.71816e-05
-1.71581e-05
-1.71321e-05
-1.71046e-05
-1.70853e-05
-1.70785e-05
-1.70658e-05
-1.70616e-05
-1.7048e-05
-1.70224e-05
-1.70152e-05
-1.70187e-05
-1.70147e-05
-1.70002e-05
-1.70038e-05
-1.70105e-05
-1.70288e-05
-1.70444e-05
-1.70756e-05
-1.71102e-05
-1.71587e-05
-1.72077e-05
-1.72707e-05
-1.73307e-05
-1.74105e-05
-1.75002e-05
-1.75935e-05
-1.77198e-05
-1.78197e-05
-1.8006e-05
-1.80808e-05
-1.84147e-05
-1.84035e-05
-1.91019e-05
-1.85832e-05
-2.20426e-05
-2.67629e-05
3.03992e-06
-2.85703e-05
-3.10677e-05
-5.67015e-05
-7.18859e-05
-5.89675e-05
-7.21079e-05
-6.63455e-05
-6.91187e-05
-6.60583e-05
-6.49843e-05
-6.23795e-05
-6.00278e-05
-5.74083e-05
-5.48088e-05
-5.21394e-05
-4.96137e-05
-4.70577e-05
-4.47242e-05
-4.24175e-05
-4.02535e-05
-3.82403e-05
-3.63256e-05
-3.45709e-05
-3.29386e-05
-3.14294e-05
-3.00549e-05
-2.87835e-05
-2.7633e-05
-2.6602e-05
-2.56539e-05
-2.48031e-05
-2.40385e-05
-2.33449e-05
-2.27306e-05
-2.21665e-05
-2.16635e-05
-2.12289e-05
-2.08254e-05
-2.04621e-05
-2.01434e-05
-1.98538e-05
-1.95898e-05
-1.93546e-05
-1.91451e-05
-1.89595e-05
-1.87883e-05
-1.86333e-05
-1.84929e-05
-1.83546e-05
-1.82267e-05
-1.81092e-05
-1.80166e-05
-1.79224e-05
-1.78287e-05
-1.77422e-05
-1.7667e-05
-1.75908e-05
-1.75229e-05
-1.7456e-05
-1.73991e-05
-1.73437e-05
-1.73013e-05
-1.72568e-05
-1.72167e-05
-1.71821e-05
-1.71585e-05
-1.71323e-05
-1.71048e-05
-1.70854e-05
-1.70783e-05
-1.70657e-05
-1.70612e-05
-1.70473e-05
-1.7022e-05
-1.70148e-05
-1.7018e-05
-1.70137e-05
-1.69996e-05
-1.7003e-05
-1.70099e-05
-1.70279e-05
-1.70438e-05
-1.70746e-05
-1.71094e-05
-1.71575e-05
-1.7207e-05
-1.72695e-05
-1.733e-05
-1.74094e-05
-1.74995e-05
-1.75923e-05
-1.77188e-05
-1.78187e-05
-1.80055e-05
-1.80804e-05
-1.84143e-05
-1.84027e-05
-1.91046e-05
-1.85857e-05
-2.20218e-05
-2.65332e-05
2.98641e-06
-2.8671e-05
-3.11653e-05
-5.65187e-05
-7.16598e-05
-5.89096e-05
-7.19984e-05
-6.62988e-05
-6.90641e-05
-6.60343e-05
-6.49645e-05
-6.23735e-05
-6.0027e-05
-5.74129e-05
-5.48169e-05
-5.21499e-05
-4.96255e-05
-4.70704e-05
-4.47368e-05
-4.24302e-05
-4.02659e-05
-3.8252e-05
-3.63371e-05
-3.45812e-05
-3.29484e-05
-3.14381e-05
-3.00632e-05
-2.87912e-05
-2.764e-05
-2.66084e-05
-2.56597e-05
-2.48085e-05
-2.40433e-05
-2.33495e-05
-2.27342e-05
-2.21702e-05
-2.16669e-05
-2.12319e-05
-2.08282e-05
-2.04647e-05
-2.01459e-05
-1.98558e-05
-1.95919e-05
-1.93563e-05
-1.91469e-05
-1.8961e-05
-1.87898e-05
-1.86347e-05
-1.84941e-05
-1.83558e-05
-1.82277e-05
-1.81104e-05
-1.80178e-05
-1.79234e-05
-1.78297e-05
-1.77432e-05
-1.76679e-05
-1.75918e-05
-1.75239e-05
-1.7457e-05
-1.74e-05
-1.73447e-05
-1.73021e-05
-1.72575e-05
-1.72174e-05
-1.71828e-05
-1.71589e-05
-1.71326e-05
-1.71051e-05
-1.70857e-05
-1.70781e-05
-1.70656e-05
-1.70609e-05
-1.70467e-05
-1.70217e-05
-1.70144e-05
-1.70175e-05
-1.70129e-05
-1.69991e-05
-1.70023e-05
-1.70093e-05
-1.70271e-05
-1.70433e-05
-1.70738e-05
-1.71087e-05
-1.71565e-05
-1.72063e-05
-1.72683e-05
-1.73295e-05
-1.74084e-05
-1.7499e-05
-1.75913e-05
-1.77179e-05
-1.78177e-05
-1.80052e-05
-1.80801e-05
-1.84142e-05
-1.84021e-05
-1.91075e-05
-1.85886e-05
-2.19991e-05
-2.62706e-05
2.92254e-06
-2.87641e-05
-3.12604e-05
-5.63158e-05
-7.14122e-05
-5.88463e-05
-7.18781e-05
-6.62483e-05
-6.90043e-05
-6.60082e-05
-6.49427e-05
-6.23668e-05
-6.00259e-05
-5.74178e-05
-5.48256e-05
-5.2161e-05
-4.96381e-05
-4.70841e-05
-4.47502e-05
-4.24439e-05
-4.02791e-05
-3.82647e-05
-3.63493e-05
-3.45922e-05
-3.2959e-05
-3.14474e-05
-3.00721e-05
-2.87995e-05
-2.76475e-05
-2.66152e-05
-2.5666e-05
-2.48142e-05
-2.40485e-05
-2.33544e-05
-2.27381e-05
-2.21742e-05
-2.16706e-05
-2.12351e-05
-2.08312e-05
-2.04675e-05
-2.01484e-05
-1.9858e-05
-1.95942e-05
-1.93582e-05
-1.91489e-05
-1.89626e-05
-1.87913e-05
-1.86361e-05
-1.84954e-05
-1.8357e-05
-1.82288e-05
-1.81117e-05
-1.80191e-05
-1.79244e-05
-1.78308e-05
-1.77442e-05
-1.76687e-05
-1.75927e-05
-1.75249e-05
-1.74581e-05
-1.74008e-05
-1.73457e-05
-1.73028e-05
-1.72582e-05
-1.72181e-05
-1.71835e-05
-1.71593e-05
-1.71328e-05
-1.71054e-05
-1.70859e-05
-1.70778e-05
-1.70654e-05
-1.70604e-05
-1.70459e-05
-1.70213e-05
-1.70139e-05
-1.70167e-05
-1.70118e-05
-1.69984e-05
-1.70014e-05
-1.70086e-05
-1.7026e-05
-1.70426e-05
-1.70727e-05
-1.71078e-05
-1.71552e-05
-1.72053e-05
-1.7267e-05
-1.73286e-05
-1.74071e-05
-1.74981e-05
-1.75899e-05
-1.77168e-05
-1.78165e-05
-1.80045e-05
-1.80795e-05
-1.84138e-05
-1.84012e-05
-1.91104e-05
-1.85915e-05
-2.1974e-05
-2.59677e-05
2.84686e-06
-2.88468e-05
-3.1351e-05
-5.60894e-05
-7.11396e-05
-5.87769e-05
-7.17452e-05
-6.61935e-05
-6.89386e-05
-6.59796e-05
-6.49186e-05
-6.23591e-05
-6.00243e-05
-5.74227e-05
-5.48346e-05
-5.21727e-05
-4.96514e-05
-4.70985e-05
-4.47646e-05
-4.24584e-05
-4.02932e-05
-3.82781e-05
-3.63623e-05
-3.46039e-05
-3.29702e-05
-3.14573e-05
-3.00816e-05
-2.88082e-05
-2.76556e-05
-2.66225e-05
-2.56727e-05
-2.48203e-05
-2.4054e-05
-2.33596e-05
-2.27423e-05
-2.21784e-05
-2.16745e-05
-2.12385e-05
-2.08344e-05
-2.04705e-05
-2.01512e-05
-1.98603e-05
-1.95966e-05
-1.93603e-05
-1.9151e-05
-1.89644e-05
-1.8793e-05
-1.86376e-05
-1.84968e-05
-1.83583e-05
-1.823e-05
-1.81131e-05
-1.80204e-05
-1.79256e-05
-1.78319e-05
-1.77453e-05
-1.76697e-05
-1.75938e-05
-1.7526e-05
-1.74593e-05
-1.74019e-05
-1.73468e-05
-1.73037e-05
-1.72591e-05
-1.72189e-05
-1.71842e-05
-1.71598e-05
-1.71332e-05
-1.71058e-05
-1.70861e-05
-1.70776e-05
-1.70654e-05
-1.706e-05
-1.70452e-05
-1.70209e-05
-1.70135e-05
-1.7016e-05
-1.70109e-05
-1.69979e-05
-1.70006e-05
-1.70079e-05
-1.70251e-05
-1.70419e-05
-1.70717e-05
-1.7107e-05
-1.71541e-05
-1.72045e-05
-1.72657e-05
-1.73279e-05
-1.7406e-05
-1.74974e-05
-1.75888e-05
-1.77158e-05
-1.78153e-05
-1.8004e-05
-1.80791e-05
-1.84137e-05
-1.84005e-05
-1.91135e-05
-1.8595e-05
-2.19469e-05
-2.56196e-05
2.75808e-06
-2.89151e-05
-3.14342e-05
-5.58345e-05
-7.08378e-05
-5.87002e-05
-7.15979e-05
-6.61336e-05
-6.88662e-05
-6.59481e-05
-6.48919e-05
-6.23505e-05
-6.00221e-05
-5.74277e-05
-5.48441e-05
-5.21852e-05
-4.96656e-05
-4.71139e-05
-4.47798e-05
-4.24739e-05
-4.03083e-05
-3.82924e-05
-3.63762e-05
-3.46165e-05
-3.29821e-05
-3.1468e-05
-3.00918e-05
-2.88176e-05
-2.76641e-05
-2.66303e-05
-2.56798e-05
-2.48268e-05
-2.40598e-05
-2.33651e-05
-2.27467e-05
-2.21829e-05
-2.16786e-05
-2.12421e-05
-2.08377e-05
-2.04736e-05
-2.01541e-05
-1.98628e-05
-1.95991e-05
-1.93625e-05
-1.91532e-05
-1.89662e-05
-1.87948e-05
-1.86392e-05
-1.84983e-05
-1.83596e-05
-1.82312e-05
-1.81145e-05
-1.80217e-05
-1.79267e-05
-1.78331e-05
-1.77465e-05
-1.76707e-05
-1.75949e-05
-1.75271e-05
-1.74604e-05
-1.74029e-05
-1.73478e-05
-1.73045e-05
-1.72599e-05
-1.72196e-05
-1.71849e-05
-1.71602e-05
-1.71334e-05
-1.71061e-05
-1.70863e-05
-1.70772e-05
-1.70651e-05
-1.70594e-05
-1.70443e-05
-1.70204e-05
-1.70129e-05
-1.7015e-05
-1.70097e-05
-1.6997e-05
-1.69996e-05
-1.7007e-05
-1.70239e-05
-1.7041e-05
-1.70705e-05
-1.71059e-05
-1.71527e-05
-1.72033e-05
-1.72642e-05
-1.73269e-05
-1.74045e-05
-1.74964e-05
-1.75873e-05
-1.77145e-05
-1.78139e-05
-1.80032e-05
-1.80784e-05
-1.84133e-05
-1.83995e-05
-1.91165e-05
-1.85987e-05
-2.19171e-05
-2.52176e-05
2.65478e-06
-2.89649e-05
-3.1507e-05
-5.55462e-05
-7.05019e-05
-5.8615e-05
-7.14339e-05
-6.60679e-05
-6.87859e-05
-6.59133e-05
-6.4862e-05
-6.23405e-05
-6.00191e-05
-5.74326e-05
-5.48538e-05
-5.21982e-05
-4.96806e-05
-4.71302e-05
-4.47961e-05
-4.24903e-05
-4.03243e-05
-3.83077e-05
-3.63909e-05
-3.46299e-05
-3.29948e-05
-3.14794e-05
-3.01026e-05
-2.88276e-05
-2.76733e-05
-2.66386e-05
-2.56874e-05
-2.48337e-05
-2.40661e-05
-2.33709e-05
-2.27516e-05
-2.21877e-05
-2.1683e-05
-2.1246e-05
-2.08413e-05
-2.0477e-05
-2.01572e-05
-1.98654e-05
-1.96017e-05
-1.93648e-05
-1.91555e-05
-1.89682e-05
-1.87967e-05
-1.86409e-05
-1.84999e-05
-1.83611e-05
-1.82326e-05
-1.8116e-05
-1.80232e-05
-1.7928e-05
-1.78343e-05
-1.77477e-05
-1.76718e-05
-1.75961e-05
-1.75283e-05
-1.74617e-05
-1.7404e-05
-1.7349e-05
-1.73055e-05
-1.72608e-05
-1.72206e-05
-1.71857e-05
-1.71607e-05
-1.71338e-05
-1.71065e-05
-1.70866e-05
-1.7077e-05
-1.70649e-05
-1.70589e-05
-1.70436e-05
-1.702e-05
-1.70124e-05
-1.70142e-05
-1.70087e-05
-1.69964e-05
-1.69988e-05
-1.70063e-05
-1.70229e-05
-1.70403e-05
-1.70695e-05
-1.7105e-05
-1.71514e-05
-1.72023e-05
-1.72629e-05
-1.73261e-05
-1.74033e-05
-1.74955e-05
-1.7586e-05
-1.77133e-05
-1.78127e-05
-1.80026e-05
-1.80778e-05
-1.84131e-05
-1.83987e-05
-1.91199e-05
-1.86028e-05
-2.18852e-05
-2.47547e-05
2.53589e-06
-2.89905e-05
-3.15656e-05
-5.52179e-05
-7.0126e-05
-5.85194e-05
-7.12503e-05
-6.5995e-05
-6.86964e-05
-6.58744e-05
-6.48286e-05
-6.23289e-05
-6.00152e-05
-5.74375e-05
-5.4864e-05
-5.22119e-05
-4.96964e-05
-4.71476e-05
-4.48133e-05
-4.25079e-05
-4.03414e-05
-3.8324e-05
-3.64066e-05
-3.46442e-05
-3.30083e-05
-3.14916e-05
-3.01141e-05
-2.88382e-05
-2.7683e-05
-2.66474e-05
-2.56954e-05
-2.48411e-05
-2.40727e-05
-2.33771e-05
-2.27567e-05
-2.21929e-05
-2.16877e-05
-2.12501e-05
-2.0845e-05
-2.04805e-05
-2.01604e-05
-1.98682e-05
-1.96046e-05
-1.93673e-05
-1.9158e-05
-1.89702e-05
-1.87988e-05
-1.86427e-05
-1.85015e-05
-1.83626e-05
-1.8234e-05
-1.81175e-05
-1.80246e-05
-1.79293e-05
-1.78356e-05
-1.7749e-05
-1.76729e-05
-1.75972e-05
-1.75295e-05
-1.74629e-05
-1.74051e-05
-1.73502e-05
-1.73064e-05
-1.72616e-05
-1.72214e-05
-1.71865e-05
-1.71612e-05
-1.71341e-05
-1.71068e-05
-1.70867e-05
-1.70766e-05
-1.70646e-05
-1.70582e-05
-1.70426e-05
-1.70194e-05
-1.70116e-05
-1.70131e-05
-1.70074e-05
-1.69954e-05
-1.69977e-05
-1.70052e-05
-1.70216e-05
-1.70392e-05
-1.70681e-05
-1.71038e-05
-1.71498e-05
-1.7201e-05
-1.72612e-05
-1.73249e-05
-1.74017e-05
-1.74943e-05
-1.75843e-05
-1.77119e-05
-1.78111e-05
-1.80017e-05
-1.80769e-05
-1.84127e-05
-1.83976e-05
-1.9123e-05
-1.86071e-05
-2.18505e-05
-2.4221e-05
2.40033e-06
-2.8986e-05
-3.16058e-05
-5.48431e-05
-6.97036e-05
-5.84114e-05
-7.10438e-05
-6.59138e-05
-6.85964e-05
-6.58308e-05
-6.47908e-05
-6.23154e-05
-6.001e-05
-5.74421e-05
-5.48743e-05
-5.22262e-05
-4.97131e-05
-4.71659e-05
-4.48316e-05
-4.25265e-05
-4.03595e-05
-3.83413e-05
-3.64233e-05
-3.46594e-05
-3.30226e-05
-3.15046e-05
-3.01263e-05
-2.88495e-05
-2.76933e-05
-2.66567e-05
-2.5704e-05
-2.48489e-05
-2.40798e-05
-2.33836e-05
-2.27623e-05
-2.21983e-05
-2.16927e-05
-2.12545e-05
-2.0849e-05
-2.04843e-05
-2.01639e-05
-1.98713e-05
-1.96075e-05
-1.937e-05
-1.91606e-05
-1.89725e-05
-1.88009e-05
-1.86446e-05
-1.85033e-05
-1.83643e-05
-1.82355e-05
-1.81191e-05
-1.80261e-05
-1.79307e-05
-1.7837e-05
-1.77503e-05
-1.76741e-05
-1.75986e-05
-1.75308e-05
-1.74643e-05
-1.74064e-05
-1.73515e-05
-1.73074e-05
-1.72626e-05
-1.72224e-05
-1.71874e-05
-1.71617e-05
-1.71345e-05
-1.71073e-05
-1.7087e-05
-1.70764e-05
-1.70643e-05
-1.70576e-05
-1.70419e-05
-1.70189e-05
-1.7011e-05
-1.70121e-05
-1.70063e-05
-1.69946e-05
-1.69967e-05
-1.70043e-05
-1.70205e-05
-1.70383e-05
-1.7067e-05
-1.71027e-05
-1.71484e-05
-1.71998e-05
-1.72597e-05
-1.73239e-05
-1.74003e-05
-1.74932e-05
-1.75828e-05
-1.77106e-05
-1.78097e-05
-1.80009e-05
-1.80761e-05
-1.84126e-05
-1.83967e-05
-1.91265e-05
-1.8612e-05
-2.18134e-05
-2.36074e-05
2.2477e-06
-2.89439e-05
-3.16225e-05
-5.44135e-05
-6.92267e-05
-5.82878e-05
-7.08104e-05
-6.58223e-05
-6.84838e-05
-6.57814e-05
-6.47478e-05
-6.22994e-05
-6.00033e-05
-5.74462e-05
-5.48847e-05
-5.22411e-05
-4.97306e-05
-4.71852e-05
-4.4851e-05
-4.25463e-05
-4.03788e-05
-3.83598e-05
-3.6441e-05
-3.46757e-05
-3.30378e-05
-3.15184e-05
-3.01394e-05
-2.88615e-05
-2.77043e-05
-2.66667e-05
-2.57131e-05
-2.48572e-05
-2.40873e-05
-2.33905e-05
-2.27682e-05
-2.22041e-05
-2.1698e-05
-2.12591e-05
-2.08532e-05
-2.04883e-05
-2.01675e-05
-1.98744e-05
-1.96107e-05
-1.93728e-05
-1.91634e-05
-1.89748e-05
-1.88032e-05
-1.86466e-05
-1.85051e-05
-1.83659e-05
-1.8237e-05
-1.81207e-05
-1.80276e-05
-1.79321e-05
-1.78384e-05
-1.77517e-05
-1.76753e-05
-1.75998e-05
-1.75321e-05
-1.74656e-05
-1.74076e-05
-1.73527e-05
-1.73084e-05
-1.72635e-05
-1.72233e-05
-1.71881e-05
-1.71622e-05
-1.71348e-05
-1.71076e-05
-1.70871e-05
-1.7076e-05
-1.70639e-05
-1.70568e-05
-1.70408e-05
-1.70182e-05
-1.70102e-05
-1.70108e-05
-1.70049e-05
-1.69936e-05
-1.69955e-05
-1.70032e-05
-1.7019e-05
-1.70371e-05
-1.70655e-05
-1.71013e-05
-1.71467e-05
-1.71983e-05
-1.72579e-05
-1.73225e-05
-1.73985e-05
-1.74918e-05
-1.7581e-05
-1.77089e-05
-1.78079e-05
-1.79998e-05
-1.8075e-05
-1.84121e-05
-1.83955e-05
-1.91297e-05
-1.86172e-05
-2.17736e-05
-2.29031e-05
2.07781e-06
-2.88562e-05
-3.16102e-05
-5.39208e-05
-6.86865e-05
-5.81454e-05
-7.05452e-05
-6.57184e-05
-6.83565e-05
-6.5725e-05
-6.46988e-05
-6.22804e-05
-5.99945e-05
-5.74497e-05
-5.48951e-05
-5.22564e-05
-4.97489e-05
-4.72056e-05
-4.48715e-05
-4.25673e-05
-4.03992e-05
-3.83794e-05
-3.64598e-05
-3.46929e-05
-3.3054e-05
-3.15332e-05
-3.01532e-05
-2.88742e-05
-2.77159e-05
-2.66772e-05
-2.57228e-05
-2.4866e-05
-2.40953e-05
-2.33979e-05
-2.27746e-05
-2.22103e-05
-2.17036e-05
-2.1264e-05
-2.08577e-05
-2.04926e-05
-2.01714e-05
-1.98779e-05
-1.9614e-05
-1.93759e-05
-1.91663e-05
-1.89773e-05
-1.88056e-05
-1.86487e-05
-1.85071e-05
-1.83678e-05
-1.82387e-05
-1.81224e-05
-1.80292e-05
-1.79336e-05
-1.78399e-05
-1.77533e-05
-1.76767e-05
-1.76013e-05
-1.75336e-05
-1.74671e-05
-1.7409e-05
-1.73541e-05
-1.73095e-05
-1.72646e-05
-1.72243e-05
-1.71891e-05
-1.71628e-05
-1.71352e-05
-1.71081e-05
-1.70873e-05
-1.70757e-05
-1.70635e-05
-1.70561e-05
-1.704e-05
-1.70176e-05
-1.70095e-05
-1.70097e-05
-1.70037e-05
-1.69927e-05
-1.69945e-05
-1.70021e-05
-1.70178e-05
-1.7036e-05
-1.70642e-05
-1.71e-05
-1.71452e-05
-1.71969e-05
-1.72562e-05
-1.73213e-05
-1.73969e-05
-1.74905e-05
-1.75793e-05
-1.77074e-05
-1.78063e-05
-1.79989e-05
-1.80741e-05
-1.84119e-05
-1.83944e-05
-1.91331e-05
-1.86229e-05
-2.17313e-05
-2.20977e-05
1.89168e-06
-2.87131e-05
-3.15623e-05
-5.33549e-05
-6.80728e-05
-5.7979e-05
-7.02423e-05
-6.55992e-05
-6.82115e-05
-6.566e-05
-6.46424e-05
-6.22577e-05
-5.99832e-05
-5.74522e-05
-5.49053e-05
-5.22722e-05
-4.97681e-05
-4.72269e-05
-4.48932e-05
-4.25895e-05
-4.04209e-05
-3.84002e-05
-3.64797e-05
-3.47113e-05
-3.30712e-05
-3.1549e-05
-3.0168e-05
-2.88877e-05
-2.77283e-05
-2.66884e-05
-2.57331e-05
-2.48753e-05
-2.41037e-05
-2.34056e-05
-2.27814e-05
-2.22168e-05
-2.17095e-05
-2.12692e-05
-2.08624e-05
-2.04971e-05
-2.01754e-05
-1.98815e-05
-1.96175e-05
-1.93791e-05
-1.91693e-05
-1.898e-05
-1.88081e-05
-1.8651e-05
-1.85091e-05
-1.83696e-05
-1.82404e-05
-1.81242e-05
-1.80308e-05
-1.79351e-05
-1.78414e-05
-1.77548e-05
-1.76781e-05
-1.76027e-05
-1.75349e-05
-1.74685e-05
-1.74103e-05
-1.73554e-05
-1.73106e-05
-1.72656e-05
-1.72253e-05
-1.71899e-05
-1.71633e-05
-1.71355e-05
-1.71084e-05
-1.70874e-05
-1.70753e-05
-1.7063e-05
-1.70552e-05
-1.70388e-05
-1.70168e-05
-1.70086e-05
-1.70083e-05
-1.70022e-05
-1.69915e-05
-1.69931e-05
-1.70008e-05
-1.70162e-05
-1.70346e-05
-1.70626e-05
-1.70984e-05
-1.71433e-05
-1.71951e-05
-1.72542e-05
-1.73197e-05
-1.73949e-05
-1.74888e-05
-1.75773e-05
-1.77056e-05
-1.78043e-05
-1.79976e-05
-1.80727e-05
-1.84114e-05
-1.83931e-05
-1.91362e-05
-1.86288e-05
-2.1686e-05
-2.11802e-05
1.69077e-06
-2.85042e-05
-3.14717e-05
-5.27062e-05
-6.73748e-05
-5.77835e-05
-6.98948e-05
-6.54614e-05
-6.80457e-05
-6.55844e-05
-6.4577e-05
-6.22302e-05
-5.99687e-05
-5.74532e-05
-5.4915e-05
-5.22881e-05
-4.97879e-05