/*--------------------------------*- C++ -*----------------------------------*\
| =========                 |                                                 |
| \\      /  F ield         | OpenFOAM: The Open Source CFD Toolbox           |
|  \\    /   O peration     | Version:  5.x                                   |
|   \\  /    A nd           | Web:      www.OpenFOAM.org                      |
|    \\/     M anipulation  |                                                 |
\*---------------------------------------------------------------------------*/
FoamFile
{
    version     2.0;
    format      ascii;
    class       surfaceScalarField;
    location    "1000";
    object      phi;
}
// * * * * * * * * * * * * * * * * * * * * * * * * * * * * * * * * * * * * * //

dimensions      [0 3 -1 0 0 0 0];

internalField   nonuniform List<scalar> 
215247
(
2.23774e-11
3.05693e-13
-2.46532e-11
2.14823e-11
8.94993e-13
2.54328e-11
-3.9507e-12
2.93414e-11
-3.90832e-12
2.83731e-11
9.6929e-13
2.34928e-11
4.87935e-12
2.20881e-11
1.40467e-12
2.05463e-11
1.54179e-12
1.87802e-11
1.766e-12
1.72625e-11
1.51773e-12
1.58183e-11
1.44426e-12
1.46207e-11
1.19746e-12
1.34725e-11
1.14821e-12
1.25593e-11
9.13112e-13
1.16831e-11
8.7616e-13
1.09397e-11
7.4344e-13
1.0277e-11
6.62633e-13
9.65525e-12
6.21737e-13
9.13744e-12
5.17774e-13
8.65064e-12
4.86786e-13
8.20041e-12
4.5019e-13
7.81261e-12
3.87776e-13
7.44211e-12
3.70468e-13
7.10516e-12
3.36833e-13
6.80427e-12
3.00954e-13
6.51472e-12
2.89406e-13
6.25472e-12
2.60105e-13
6.01491e-12
2.39785e-13
5.78316e-12
2.3172e-13
5.57847e-12
2.04653e-13
5.38363e-12
1.94816e-13
5.197e-12
1.86591e-13
5.02903e-12
1.67946e-13
4.86738e-12
1.61619e-13
4.71551e-12
1.51705e-13
4.57588e-12
1.39726e-13
4.4405e-12
1.35202e-13
4.3154e-12
1.2518e-13
4.19692e-12
1.18439e-13
4.08291e-12
1.14002e-13
3.9777e-12
1.05134e-13
3.87605e-12
1.01595e-13
3.78016e-12
9.58382e-14
3.68936e-12
9.0565e-14
3.60196e-12
8.74665e-14
3.52018e-12
8.14084e-14
3.4411e-12
7.92568e-14
3.36623e-12
7.45043e-14
3.29435e-12
7.21122e-14
3.22545e-12
6.88244e-14
3.1595e-12
6.5945e-14
3.09606e-12
6.31148e-14
3.04351e-12
5.26565e-14
2.99621e-12
4.69601e-14
2.95665e-12
3.98214e-14
2.91706e-12
3.93527e-14
2.88338e-12
3.39212e-14
2.85647e-12
2.66633e-14
2.8313e-12
2.54177e-14
2.80854e-12
2.25818e-14
2.78738e-12
2.14311e-14
2.76796e-12
1.9165e-14
2.75042e-12
1.77788e-14
2.73368e-12
1.65097e-14
2.71876e-12
1.51932e-14
2.7049e-12
1.36173e-14
2.692e-12
1.313e-14
2.68049e-12
1.13114e-14
2.66929e-12
1.14396e-14
2.65939e-12
9.68736e-15
2.65033e-12
9.25146e-15
2.64186e-12
8.28978e-15
2.63461e-12
7.43932e-15
2.62754e-12
6.91976e-15
2.62167e-12
6.14762e-15
2.61635e-12
5.14203e-15
2.61181e-12
4.65822e-15
2.60837e-12
3.29043e-15
2.60554e-12
3.0233e-15
2.60417e-12
1.30994e-15
2.60357e-12
7.46888e-16
2.60484e-12
-1.36339e-15
2.60759e-12
-2.59594e-15
2.61285e-12
-5.31094e-15
2.62061e-12
-7.62807e-15
2.6324e-12
-1.1869e-14
2.64816e-12
-1.56229e-14
2.67122e-12
-2.31245e-14
2.70045e-12
-2.91011e-14
2.74403e-12
-4.36787e-14
2.7967e-12
-5.25551e-14
2.88084e-12
-8.42811e-14
2.97607e-12
-9.50745e-14
3.1454e-12
-1.69347e-13
3.3254e-12
-1.79977e-13
3.68704e-12
-3.61617e-13
4.07215e-12
-3.84154e-13
5.01947e-12
-9.4836e-13
6.05563e-12
-1.03607e-12
1.00929e-11
-4.03744e-12
1.49467e-11
-4.85421e-12
-3.81311e-09
3.82806e-09
7.41539e-11
6.86463e-12
-8.07127e-11
7.09415e-11
4.10738e-12
8.40727e-11
-1.70822e-11
9.65916e-11
-1.64269e-11
9.35042e-11
4.05803e-12
7.77965e-11
2.05857e-11
7.29703e-11
6.23088e-12
6.79827e-11
6.52926e-12
6.2107e-11
7.6417e-12
5.7135e-11
6.48967e-12
5.23479e-11
6.23156e-12
4.83997e-11
5.14538e-12
4.45988e-11
4.94906e-12
4.15801e-11
3.93181e-12
3.86792e-11
3.777e-12
3.62197e-11
3.20286e-12
3.40242e-11
2.85813e-12
3.19666e-11
2.67931e-12
3.0251e-11
2.23327e-12
2.86387e-11
2.09907e-12
2.71478e-11
1.94103e-12
2.58628e-11
1.67271e-12
2.46355e-11
1.59774e-12
2.35196e-11
1.45259e-12
2.25224e-11
1.29822e-12
2.15633e-11
1.24829e-12
2.0702e-11
1.12151e-12
1.99073e-11
1.03448e-12
1.91397e-11
9.99242e-13
1.84615e-11
8.82818e-13
1.78159e-11
8.40336e-13
1.71978e-11
8.04617e-13
1.66413e-11
7.24488e-13
1.61057e-11
6.97087e-13
1.56026e-11
6.54575e-13
1.514e-11
6.02478e-13
1.46916e-11
5.83399e-13
1.42772e-11
5.39664e-13
1.38847e-11
5.10914e-13
1.3507e-11
4.91627e-13
1.31585e-11
4.53592e-13
1.28218e-11
4.38185e-13
1.25042e-11
4.13353e-13
1.22034e-11
3.91038e-13
1.19139e-11
3.77035e-13
1.1643e-11
3.51789e-13
1.13811e-11
3.41375e-13
1.11331e-11
3.22033e-13
1.0895e-11
3.10444e-13
1.06669e-11
2.96895e-13
1.04485e-11
2.84338e-13
1.02383e-11
2.72777e-13
1.00644e-11
2.26719e-13
9.90778e-12
2.03133e-13
9.77672e-12
1.71208e-13
9.64564e-12
1.70126e-13
9.53412e-12
1.45765e-13
9.44486e-12
1.15604e-13
9.36147e-12
1.09117e-13
9.286e-12
9.78293e-14
9.2159e-12
9.18899e-14
9.15154e-12
8.31925e-14
9.09341e-12
7.62115e-14
9.03794e-12
7.1692e-14
8.98845e-12
6.50146e-14
8.94252e-12
5.92463e-14
8.89976e-12
5.61744e-14
8.86158e-12
4.92275e-14
8.82447e-12
4.88581e-14
8.79167e-12
4.22155e-14
8.76164e-12
3.95338e-14
8.73357e-12
3.61223e-14
8.70948e-12
3.177e-14
8.68607e-12
3.01521e-14
8.66658e-12
2.599e-14
8.64895e-12
2.25326e-14
8.63391e-12
1.98508e-14
8.62248e-12
1.45284e-14
8.61311e-12
1.26328e-14
8.60855e-12
5.8009e-15
8.60657e-12
2.92531e-15
8.61077e-12
-5.67965e-15
8.61986e-12
-1.14807e-14
8.6373e-12
-2.28077e-14
8.66295e-12
-3.30956e-14
8.70203e-12
-5.10458e-14
8.7541e-12
-6.75259e-14
8.83058e-12
-9.96684e-14
8.92711e-12
-1.25469e-13
9.07164e-12
-1.88338e-13
9.24541e-12
-2.26168e-13
9.52462e-12
-3.63677e-13
9.83815e-12
-4.08403e-13
1.04005e-11
-7.31759e-13
1.09915e-11
-7.70948e-13
1.21936e-11
-1.56369e-12
1.34542e-11
-1.64351e-12
1.66017e-11
-4.09723e-12
1.99811e-11
-4.41532e-12
3.33135e-11
-1.73701e-11
4.51713e-11
-1.67126e-11
-7.88997e-09
4.12203e-09
1.37673e-10
1.81362e-11
-1.48945e-10
1.31668e-10
1.01121e-11
1.55954e-10
-4.13683e-11
1.78731e-10
-3.92038e-11
1.73163e-10
9.62789e-12
1.44536e-10
4.92112e-11
1.35408e-10
1.53594e-11
1.26232e-10
1.5705e-11
1.1532e-10
1.85535e-11
1.06128e-10
1.56819e-11
9.72386e-11
1.51207e-11
8.99165e-11
1.24674e-11
8.28579e-11
1.20076e-11
7.72512e-11
9.53846e-12
7.18614e-11
9.16673e-12
6.72918e-11
7.77245e-12
6.321e-11
6.93988e-12
5.93863e-11
6.50296e-12
5.61965e-11
5.42311e-12
5.3199e-11
5.09649e-12
5.04275e-11
4.71249e-12
4.80379e-11
4.06228e-12
4.5756e-11
3.87964e-12
4.36814e-11
3.52708e-12
4.18268e-11
3.15284e-12
4.00437e-11
3.03127e-12
3.84423e-11
2.72296e-12
3.69644e-11
2.5124e-12
3.55374e-11
2.4262e-12
3.42762e-11
2.14391e-12
3.30759e-11
2.0407e-12
3.19267e-11
1.95372e-12
3.08918e-11
1.75933e-12
2.98961e-11
1.69277e-12
2.89609e-11
1.58961e-12
2.81007e-11
1.4628e-12
2.7267e-11
1.4169e-12
2.64966e-11
1.31011e-12
2.57668e-11
1.24064e-12
2.50648e-11
1.19361e-12
2.44168e-11
1.10148e-12
2.37909e-11
1.06406e-12
2.32006e-11
1.00363e-12
2.26414e-11
9.49939e-13
2.21033e-11
9.15186e-13
2.15998e-11
8.54813e-13
2.1113e-11
8.28417e-13
2.06521e-11
7.82551e-13
2.02096e-11
7.53122e-13
1.97855e-11
7.2087e-13
1.93797e-11
6.90203e-13
1.89892e-11
6.62878e-13
1.86661e-11
5.49861e-13
1.83752e-11
4.93749e-13
1.81314e-11
4.15203e-13
1.7888e-11
4.13335e-13
1.76807e-11
3.53352e-13
1.75146e-11
2.81393e-13
1.73595e-11
2.64481e-13
1.72191e-11
2.37997e-13
1.70888e-11
2.22571e-13
1.69691e-11
2.026e-13
1.68609e-11
1.84618e-13
1.67578e-11
1.74607e-13
1.66657e-11
1.57343e-13
1.65803e-11
1.44445e-13
1.65008e-11
1.35951e-13
1.64297e-11
1.20069e-13
1.63607e-11
1.18116e-13
1.62997e-11
1.03013e-13
1.62438e-11
9.55941e-14
1.61916e-11
8.8189e-14
1.61468e-11
7.67622e-14
1.61033e-11
7.35396e-14
1.6067e-11
6.25556e-14
1.60342e-11
5.51553e-14
1.60062e-11
4.79313e-14
1.59849e-11
3.56551e-14
1.59675e-11
3.0254e-14
1.5959e-11
1.42531e-14
1.59554e-11
6.75735e-15
1.59632e-11
-1.35788e-14
1.59801e-11
-2.82127e-14
1.60125e-11
-5.52965e-14
1.60602e-11
-8.0636e-14
1.61329e-11
-1.23817e-13
1.62297e-11
-1.6417e-13
1.63719e-11
-2.41963e-13
1.65512e-11
-3.04643e-13
1.682e-11
-4.57245e-13
1.71426e-11
-5.48604e-13
1.76618e-11
-8.83059e-13
1.82432e-11
-9.89621e-13
1.92891e-11
-1.77762e-12
2.03835e-11
-1.86532e-12
2.26189e-11
-3.79908e-12
2.4949e-11
-3.97259e-12
3.07975e-11
-9.94685e-12
3.70253e-11
-1.06431e-11
6.16921e-11
-4.20372e-11
8.23022e-11
-3.73232e-11
-1.22446e-08
4.43694e-09
2.14865e-10
3.48469e-11
-2.31576e-10
2.05757e-10
1.92203e-11
2.43348e-10
-7.89601e-11
2.78338e-10
-7.41929e-11
2.69881e-10
1.80858e-11
2.25896e-10
9.31951e-11
2.11486e-10
2.97695e-11
1.97199e-10
2.99913e-11
1.80197e-10
3.55563e-11
1.65866e-10
3.00127e-11
1.51992e-10
2.89941e-11
1.40555e-10
2.39043e-11
1.29529e-10
2.30342e-11
1.20762e-10
1.83048e-11
1.12336e-10
1.75927e-11
1.05189e-10
1.49193e-11
9.88039e-11
1.33253e-11
9.2823e-11
1.24839e-11
8.78315e-11
1.04145e-11
8.31414e-11
9.7865e-12
7.88052e-11
9.04864e-12
7.50652e-11
7.80223e-12
7.14944e-11
7.45034e-12
6.82482e-11
6.77318e-12
6.53454e-11
6.05566e-12
6.25551e-11
5.82136e-12
6.00492e-11
5.22896e-12
5.77361e-11
4.82548e-12
5.55032e-11
4.65907e-12
5.35294e-11
4.11758e-12
5.16509e-11
3.91922e-12
4.98529e-11
3.75157e-12
4.82334e-11
3.37885e-12
4.66753e-11
3.25081e-12
4.52119e-11
3.05272e-12
4.38659e-11
2.80897e-12
4.25615e-11
2.72106e-12
4.13562e-11
2.51549e-12
4.02143e-11
2.38246e-12
3.9116e-11
2.29187e-12
3.81022e-11
2.11512e-12
3.71229e-11
2.04321e-12
3.61995e-11
1.92698e-12
3.53248e-11
1.82431e-12
3.44831e-11
1.75698e-12
3.36955e-11
1.64185e-12
3.2934e-11
1.59005e-12
3.22131e-11
1.50302e-12
3.15212e-11
1.44527e-12
3.0858e-11
1.38398e-12
3.02233e-11
1.32481e-12
2.96127e-11
1.27308e-12
2.91078e-11
1.05477e-12
2.8653e-11
9.48206e-13
2.82716e-11
7.96796e-13
2.78911e-11
7.93613e-13
2.75667e-11
6.77981e-13
2.73067e-11
5.41123e-13
2.7064e-11
5.075e-13
2.68443e-11
4.57514e-13
2.66402e-11
4.26994e-13
2.64529e-11
3.89632e-13
2.62836e-11
3.54175e-13
2.61222e-11
3.35783e-13
2.5978e-11
3.01792e-13
2.58443e-11
2.77896e-13
2.57198e-11
2.60734e-13
2.56085e-11
2.3106e-13
2.55005e-11
2.26451e-13
2.5405e-11
1.98248e-13
2.53175e-11
1.83346e-13
2.52357e-11
1.69731e-13
2.51655e-11
1.47175e-13
2.50974e-11
1.41529e-13
2.50406e-11
1.19692e-13
2.49893e-11
1.06284e-13
2.49455e-11
9.18279e-14
2.49121e-11
6.88198e-14
2.48849e-11
5.76987e-14
2.48716e-11
2.75199e-14
2.48659e-11
1.26519e-14
2.48782e-11
-2.59428e-14
2.49047e-11
-5.45226e-14
2.49555e-11
-1.06189e-13
2.50302e-11
-1.55158e-13
2.51441e-11
-2.3778e-13
2.52957e-11
-3.15559e-13
2.55184e-11
-4.64749e-13
2.57991e-11
-5.85155e-13
2.62198e-11
-8.7806e-13
2.67245e-11
-1.05312e-12
2.75367e-11
-1.69549e-12
2.84457e-11
-1.8984e-12
3.0081e-11
-3.41294e-12
3.17904e-11
-3.57471e-12
3.52837e-11
-7.29239e-12
3.89181e-11
-7.60582e-12
4.80477e-11
-1.90777e-11
5.7732e-11
-2.03272e-11
9.60691e-11
-8.03747e-11
1.27183e-10
-6.84377e-11
-1.68913e-08
4.77387e-09
3.08081e-10
5.77744e-11
-3.31008e-10
2.95579e-10
3.17222e-11
3.48928e-10
-1.32309e-10
3.98352e-10
-1.23616e-10
3.86562e-10
2.98759e-11
3.2445e-10
1.55307e-10
3.03601e-10
5.06182e-11
2.83117e-10
5.0475e-11
2.58794e-10
5.98792e-11
2.38246e-10
5.0561e-11
2.18354e-10
4.88862e-11
2.01929e-10
4.0329e-11
1.86098e-10
3.8865e-11
1.73498e-10
3.09054e-11
1.6139e-10
2.97001e-11
1.51115e-10
2.51948e-11
1.41933e-10
2.25073e-11
1.33332e-10
2.10843e-11
1.26152e-10
1.75944e-11
1.19406e-10
1.65326e-11
1.13169e-10
1.52854e-11
1.07788e-10
1.31833e-11
1.02652e-10
1.25869e-11
9.79819e-11
1.14428e-11
9.38052e-11
1.02324e-11
8.97914e-11
9.83513e-12
8.61864e-11
8.83398e-12
8.28582e-11
8.15367e-12
7.96462e-11
7.87101e-12
7.68067e-11
6.95706e-12
7.41039e-11
6.62192e-12
7.15178e-11
6.33762e-12
6.91878e-11
5.70883e-12
6.69467e-11
5.4919e-12
6.48419e-11
5.15738e-12
6.29054e-11
4.74552e-12
6.10293e-11
4.59701e-12
5.92957e-11
4.24912e-12
5.76533e-11
4.02478e-12
5.6074e-11
3.87121e-12
5.46159e-11
3.57312e-12
5.32077e-11
3.45129e-12
5.18797e-11
3.25489e-12
5.0622e-11
3.08188e-12
4.94117e-11
2.96725e-12
4.82793e-11
2.77392e-12
4.71845e-11
2.68492e-12
4.61481e-11
2.53909e-12
4.51534e-11
2.44015e-12
4.42001e-11
2.3372e-12
4.32879e-11
2.237e-12
4.24103e-11
2.15031e-12
4.16852e-11
1.77996e-12
4.10315e-11
1.60158e-12
4.04833e-11
1.34521e-12
3.99365e-11
1.34021e-12
3.94701e-11
1.14454e-12
3.90959e-11
9.15194e-13
3.87467e-11
8.56915e-13
3.84305e-11
7.73587e-13
3.81368e-11
7.2085e-13
3.78673e-11
6.58958e-13
3.76237e-11
5.9798e-13
3.73914e-11
5.67892e-13
3.7184e-11
5.09492e-13
3.69914e-11
4.70224e-13
3.68123e-11
4.40074e-13
3.66521e-11
3.91113e-13
3.64967e-11
3.82058e-13
3.63591e-11
3.35632e-13
3.62332e-11
3.09408e-13
3.61156e-11
2.87262e-13
3.60145e-11
2.48408e-13
3.59165e-11
2.39461e-13
3.58347e-11
2.01713e-13
3.57608e-11
1.80055e-13
3.56978e-11
1.54873e-13
3.56498e-11
1.16679e-13
3.56107e-11
9.69835e-14
3.55916e-11
4.66434e-14
3.55835e-11
2.08698e-14
3.56012e-11
-4.37361e-14
3.56395e-11
-9.26599e-14
3.57129e-11
-1.79569e-13
3.58206e-11
-2.6274e-13
3.59847e-11
-4.0195e-13
3.62031e-11
-5.33838e-13
3.65238e-11
-7.8553e-13
3.69281e-11
-9.8928e-13
3.75336e-11
-1.48362e-12
3.826e-11
-1.77948e-12
3.94282e-11
-2.86376e-12
4.07358e-11
-3.20586e-12
4.30858e-11
-5.76298e-12
4.55427e-11
-6.03163e-12
5.05587e-11
-1.23083e-11
5.57749e-11
-1.28213e-11
6.88659e-11
-3.21696e-11
8.27198e-11
-3.4181e-11
1.37435e-10
-1.3509e-10
1.81077e-10
-1.1208e-10
-2.18443e-08
5.13404e-09
4.20038e-10
8.77402e-11
-4.50004e-10
4.03893e-10
4.78668e-11
4.75785e-10
-2.04201e-10
5.42159e-10
-1.8999e-10
5.26554e-10
4.54814e-11
4.43186e-10
2.38674e-10
4.14535e-10
7.92693e-11
3.86576e-10
7.84345e-11
3.53504e-10
9.29505e-11
3.25473e-10
7.85918e-11
2.98352e-10
7.60073e-11
2.75914e-10
6.27676e-11
2.54297e-10
6.04813e-11
2.37068e-10
4.81348e-11
2.20519e-10
4.62485e-11
2.06465e-10
3.92493e-11
1.93905e-10
3.5067e-11
1.8214e-10
3.28491e-11
1.72315e-10
2.74192e-11
1.63084e-10
2.57635e-11
1.5455e-10
2.3819e-11
1.47185e-10
2.05487e-11
1.40156e-10
1.96162e-11
1.33765e-10
1.78332e-11
1.28048e-10
1.59498e-11
1.22555e-10
1.53281e-11
1.17621e-10
1.37679e-11
1.13065e-10
1.27092e-11
1.0867e-10
1.22665e-11
1.04783e-10
1.08435e-11
1.01084e-10
1.03209e-11
9.75451e-11
9.87648e-12
9.43564e-11
8.8975e-12
9.12893e-11
8.55892e-12
8.84094e-11
8.03707e-12
8.57593e-11
7.39574e-12
8.31922e-11
7.16389e-12
8.08202e-11
6.62115e-12
7.8573e-11
6.27189e-12
7.64122e-11
6.03199e-12
7.44174e-11
5.56773e-12
7.24911e-11
5.37747e-12
7.06746e-11
5.0713e-12
6.8954e-11
4.80211e-12
6.72987e-11
4.62257e-12
6.57499e-11
4.32221e-12
6.42527e-11
4.18221e-12
6.28354e-11
3.95597e-12
6.14753e-11
3.80045e-12
6.01718e-11
3.64049e-12
5.89249e-11
3.48395e-12
5.77251e-11
3.34963e-12
5.67346e-11
2.77044e-12
5.58414e-11
2.49443e-12
5.50914e-11
2.09544e-12
5.43442e-11
2.0871e-12
5.37064e-11
1.7826e-12
5.31939e-11
1.42744e-12
5.27159e-11
1.33517e-12
5.22831e-11
1.20631e-12
5.18812e-11
1.12298e-12
5.15122e-11
1.0277e-12
5.11786e-11
9.3185e-13
5.08606e-11
8.85621e-13
5.05767e-11
7.93762e-13
5.0313e-11
7.33661e-13
5.00677e-11
6.85574e-13
4.98483e-11
6.10318e-13
4.96356e-11
5.95049e-13
4.94472e-11
5.23746e-13
4.92747e-11
4.8213e-13
4.91136e-11
4.48178e-13
4.89751e-11
3.87083e-13
4.88409e-11
3.73563e-13
4.87289e-11
3.14012e-13
4.86278e-11
2.81039e-13
4.85416e-11
2.4114e-13
4.84759e-11
1.8221e-13
4.84225e-11
1.50622e-13
4.83963e-11
7.27467e-14
4.83855e-11
3.19411e-14
4.84099e-11
-6.82787e-14
4.84626e-11
-1.45179e-13
4.85634e-11
-2.8032e-13
4.87113e-11
-4.10485e-13
4.89364e-11
-6.27151e-13
4.92361e-11
-8.33309e-13
4.96758e-11
-1.22527e-12
5.02301e-11
-1.5434e-12
5.10593e-11
-2.313e-12
5.20549e-11
-2.7749e-12
5.36534e-11
-4.46239e-12
5.5444e-11
-4.99632e-12
5.86567e-11
-8.97572e-12
6.20182e-11
-9.39311e-12
6.88681e-11
-1.91581e-11
7.59939e-11
-1.99461e-11
9.38427e-11
-5.00195e-11
1.127e-10
-5.30383e-11
1.86924e-10
-2.09314e-10
2.45457e-10
-1.70614e-10
-2.71176e-08
5.51876e-09
5.53873e-10
1.25597e-10
-5.91731e-10
5.33903e-10
6.78368e-11
6.27488e-10
-2.97785e-10
7.13649e-10
-2.76152e-10
6.93713e-10
6.54183e-11
5.85572e-10
3.46814e-10
5.47516e-10
1.17325e-10
5.1058e-10
1.1537e-10
4.67104e-10
1.36427e-10
4.3011e-10
1.15586e-10
3.94347e-10
1.11771e-10
3.64689e-10
9.24247e-11
3.36137e-10
8.90341e-11
3.13344e-10
7.09278e-11
2.91462e-10
6.81304e-11
2.72863e-10
5.78482e-11
2.56241e-10
5.16888e-11
2.4067e-10
4.84204e-11
2.27662e-10
4.04271e-11
2.1544e-10
3.7985e-11
2.04142e-10
3.51167e-11
1.94388e-10
3.03035e-11
1.8508e-10
2.89238e-11
1.76618e-10
2.6295e-11
1.69045e-10
2.35224e-11
1.61771e-10
2.26019e-11
1.55238e-10
2.03014e-11
1.49204e-10
1.87428e-11
1.43384e-10
1.80867e-11
1.38237e-10
1.59906e-11
1.33339e-10
1.52194e-11
1.28653e-10
1.45621e-11
1.2443e-10
1.31202e-11
1.20369e-10
1.26198e-11
1.16556e-10
1.18501e-11
1.13047e-10
1.09048e-11
1.09649e-10
1.05623e-11
1.06508e-10
9.7612e-12
1.03534e-10
9.24683e-12
1.00673e-10
8.892e-12
9.80328e-11
8.20826e-12
9.54832e-11
7.92708e-12
9.30792e-11
7.47523e-12
9.08021e-11
7.07903e-12
8.86116e-11
6.81293e-12
8.65623e-11
6.37126e-12
8.45812e-11
6.16332e-12
8.27062e-11
5.8307e-12
8.09069e-11
5.59986e-12
7.91828e-11
5.36447e-12
7.75336e-11
5.13319e-12
7.59469e-11
4.93599e-12
7.46381e-11
4.07927e-12
7.34573e-11
3.67504e-12
7.2465e-11
3.08788e-12
7.14772e-11
3.07471e-12
7.06333e-11
2.62663e-12
6.99543e-11
2.10633e-12
6.93212e-11
1.96837e-12
6.87479e-11
1.77955e-12
6.82157e-11
1.65542e-12
6.7727e-11
1.51628e-12
6.7285e-11
1.374e-12
6.68639e-11
1.30654e-12
6.64875e-11
1.17041e-12
6.61383e-11
1.08272e-12
6.58132e-11
1.01076e-12
6.55224e-11
9.01049e-13
6.52406e-11
8.76972e-13
6.49911e-11
7.73192e-13
6.47624e-11
7.10888e-13
6.4549e-11
6.61522e-13
6.43654e-11
5.70784e-13
6.41876e-11
5.51266e-13
6.40393e-11
4.62613e-13
6.39052e-11
4.15011e-13
6.37911e-11
3.55261e-13
6.37041e-11
2.69105e-13
6.36335e-11
2.21386e-13
6.3599e-11
1.07244e-13
6.3585e-11
4.61078e-14
6.36177e-11
-1.01008e-13
6.3688e-11
-2.15389e-13
6.3822e-11
-4.14335e-13
6.40187e-11
-6.07098e-13
6.43178e-11
-9.2627e-13
6.47159e-11
-1.23131e-12
6.52994e-11
-1.80879e-12
6.60353e-11
-2.27915e-12
6.71347e-11
-3.41246e-12
6.84556e-11
-4.09569e-12
7.05725e-11
-6.57938e-12
7.29463e-11
-7.37008e-12
7.7196e-11
-1.32254e-11
8.1648e-11
-1.38451e-11
9.06973e-11
-2.82074e-11
1.00119e-10
-2.93672e-11
1.23656e-10
-7.3557e-11
1.48491e-10
-7.78733e-11
2.4583e-10
-3.06654e-10
3.21991e-10
-2.46776e-10
-3.2725e-08
5.92937e-09
7.13204e-10
1.72214e-10
-7.5982e-10
6.89325e-10
9.17156e-11
8.08152e-10
-4.16613e-10
9.17288e-10
-3.85287e-10
8.92472e-10
9.02351e-11
7.55622e-10
4.83663e-10
7.06284e-10
1.66664e-10
6.58614e-10
1.6304e-10
6.02817e-10
1.92224e-10
5.5513e-10
1.63273e-10
5.09077e-10
1.57823e-10
4.7079e-10
1.30712e-10
4.33954e-10
1.2587e-10
4.04499e-10
1.00382e-10
3.76236e-10
9.63933e-11
3.52193e-10
8.18913e-11
3.30705e-10
7.31772e-11
3.10572e-10
6.85533e-11
2.93747e-10
5.72513e-11
2.7794e-10
5.37921e-11
2.63328e-10
4.97283e-11
2.50707e-10
4.29247e-11
2.38667e-10
4.09638e-11
2.27721e-10
3.72411e-11
2.17922e-10
3.3321e-11
2.08513e-10
3.20114e-11
2.0006e-10
2.87538e-11
1.92253e-10
2.65495e-11
1.84724e-10
2.56156e-11
1.78065e-10
2.26498e-11
1.71727e-10
2.15569e-11
1.65667e-10
2.06226e-11
1.60204e-10
1.85832e-11
1.54951e-10
1.78726e-11
1.50019e-10
1.67815e-11
1.4548e-10
1.54441e-11
1.41085e-10
1.49573e-11
1.37024e-10
1.38222e-11
1.33176e-10
1.30944e-11
1.29478e-10
1.25902e-11
1.26063e-10
1.16226e-11
1.22767e-10
1.12235e-11
1.19659e-10
1.05831e-11
1.16715e-10
1.00225e-11
1.13883e-10
9.64437e-12
1.11234e-10
9.01971e-12
1.08674e-10
8.72365e-12
1.06251e-10
8.25348e-12
1.03926e-10
7.92499e-12
1.01698e-10
7.59178e-12
9.9568e-11
7.26362e-12
9.75185e-11
6.98503e-12
9.58293e-11
5.76837e-12
9.43047e-11
5.19936e-12
9.30219e-11
4.37083e-12
9.17468e-11
4.34962e-12
9.06561e-11
3.71753e-12
8.9777e-11
2.98522e-12
8.8958e-11
2.78754e-12
8.82161e-11
2.52137e-12
8.75275e-11
2.34435e-12
8.6895e-11
2.14855e-12
8.6323e-11
1.94618e-12
8.57781e-11
1.85123e-12
8.52909e-11
1.65783e-12
8.48387e-11
1.53473e-12
8.44181e-11
1.43155e-12
8.40415e-11
1.27747e-12
8.36769e-11
1.24187e-12
8.33537e-11
1.09617e-12
8.30576e-11
1.00713e-12
8.27813e-11
9.37675e-13
8.25436e-11
8.08714e-13
8.23136e-11
7.81174e-13
8.21214e-11
6.55086e-13
8.19479e-11
5.88297e-13
8.18004e-11
5.02867e-13
8.16879e-11
3.81493e-13
8.15968e-11
3.12668e-13
8.15524e-11
1.5169e-13
8.15347e-11
6.39894e-14
8.15775e-11
-1.4392e-13
8.16693e-11
-3.07007e-13
8.18436e-11
-5.88639e-13
8.20995e-11
-8.6274e-13
8.24879e-11
-1.31474e-12
8.30049e-11
-1.74819e-12
8.37619e-11
-2.56575e-12
8.47168e-11
-3.23395e-12
8.61413e-11
-4.83704e-12
8.78543e-11
-5.80855e-12
9.05936e-11
-9.31884e-12
9.36695e-11
-1.04458e-11
9.91614e-11
-1.87174e-11
1.04924e-10
-1.96073e-11
1.16601e-10
-3.98846e-11
1.28773e-10
-4.15385e-11
1.59083e-10
-1.03867e-10
1.9103e-10
-1.09821e-10
3.15631e-10
-4.31254e-10
4.12572e-10
-3.43718e-10
-3.86796e-08
6.36722e-09
9.02193e-10
2.28449e-10
-9.58428e-10
8.74462e-10
1.19447e-10
1.02252e-09
-5.64668e-10
1.15819e-09
-5.20959e-10
1.12792e-09
1.20501e-10
9.57983e-10
6.53603e-10
8.9517e-10
2.29476e-10
8.34711e-10
2.235e-10
7.64379e-10
2.62556e-10
7.03983e-10
2.23669e-10
6.45724e-10
2.16082e-10
5.97155e-10
1.79281e-10
5.50461e-10
1.72564e-10
5.13058e-10
1.37786e-10
4.77186e-10
1.32265e-10
4.46642e-10
1.12435e-10
4.19342e-10
1.00477e-10
3.9376e-10
9.41351e-11
3.72374e-10
7.86367e-11
3.52282e-10
7.38848e-11
3.3371e-10
6.83005e-11
3.1766e-10
5.89739e-11
3.02354e-10
5.62704e-11
2.88437e-10
5.11573e-11
2.75976e-10
4.57821e-11
2.64013e-10
4.39747e-11
2.53266e-10
3.95007e-11
2.43338e-10
3.64772e-11
2.33767e-10
3.51876e-11
2.25299e-10
3.11177e-11
2.1724e-10
2.9615e-11
2.09536e-10
2.8327e-11
2.0259e-10
2.55292e-11
1.95912e-10
2.45504e-11
1.89643e-10
2.30504e-11
1.83872e-10
2.12149e-11
1.78286e-10
2.05438e-11
1.73124e-10
1.89836e-11
1.68234e-10
1.79844e-11
1.63534e-10
1.72899e-11
1.59195e-10
1.59616e-11
1.55006e-10
1.54124e-11
1.51058e-10
1.45317e-11
1.47318e-10
1.37621e-11
1.43721e-10
1.32413e-11
1.40356e-10
1.23842e-11
1.37104e-10
1.19756e-11
1.34027e-10
1.13304e-11
1.31075e-10
1.08773e-11
1.28246e-10
1.04199e-11
1.25542e-10
9.96796e-12
1.22941e-10
9.58604e-12
1.20799e-10
7.91028e-12
1.18865e-10
7.13341e-12
1.17235e-10
6.00024e-12
1.15618e-10
5.9671e-12
1.14232e-10
5.10288e-12
1.13114e-10
4.10343e-12
1.12073e-10
3.82912e-12
1.11129e-10
3.4649e-12
1.10253e-10
3.22015e-12
1.09449e-10
2.95282e-12
1.08721e-10
2.67415e-12
1.08028e-10
2.54396e-12
1.07409e-10
2.27787e-12
1.06833e-10
2.10978e-12
1.06298e-10
1.96698e-12
1.05819e-10
1.75665e-12
1.05355e-10
1.7057e-12
1.04944e-10
1.50741e-12
1.04567e-10
1.38408e-12
1.04216e-10
1.28904e-12
1.03913e-10
1.11154e-12
1.0362e-10
1.07364e-12
1.03376e-10
8.99775e-13
1.03155e-10
8.08881e-13
1.02968e-10
6.90427e-13
1.02825e-10
5.24462e-13
1.02709e-10
4.28295e-13
1.02653e-10
2.07882e-13
1.02631e-10
8.58446e-14
1.02686e-10
-1.99202e-13
1.02804e-10
-4.24811e-13
1.03027e-10
-8.11683e-13
1.03355e-10
-1.18988e-12
1.03851e-10
-1.81083e-12
1.04511e-10
-2.40857e-12
1.05477e-10
-3.53118e-12
1.06695e-10
-4.4526e-12
1.0851e-10
-6.65157e-12
1.10694e-10
-7.99292e-12
1.14179e-10
-1.28034e-11
1.18097e-10
-1.43643e-11
1.25073e-10
-2.56929e-11
1.32405e-10
-2.69393e-11
1.47212e-10
-5.46915e-11
1.62668e-10
-5.69949e-11
2.01013e-10
-1.42212e-10
2.41393e-10
-1.50201e-10
3.98006e-10
-5.87868e-10
5.19351e-10
-4.65063e-10
-4.49939e-08
6.8337e-09
1.12563e-09
2.9512e-10
-1.1923e-09
1.0943e-09
1.50782e-10
1.27603e-09
-7.46406e-10
1.44221e-09
-6.87133e-10
1.40591e-09
1.56804e-10
1.19802e-09
8.61487e-10
1.11919e-09
3.08313e-10
1.04354e-09
2.99147e-10
9.56122e-10
3.49971e-10
8.80669e-10
2.99122e-10
8.07978e-10
2.88773e-10
7.47197e-10
2.40061e-10
6.88809e-10
2.30952e-10
6.41948e-10
1.84647e-10
5.9703e-10
1.77183e-10
5.58745e-10
1.5072e-10
5.24525e-10
1.34698e-10
4.92452e-10
1.26207e-10
4.65631e-10
1.05458e-10
4.40431e-10
9.90851e-11
4.17138e-10
9.15929e-11
3.97001e-10
7.91112e-11
3.778e-10
7.54712e-11
3.60343e-10
6.86144e-11
3.44706e-10
6.14191e-11
3.29698e-10
5.89827e-11
3.16215e-10
5.29837e-11
3.03757e-10
4.89343e-11
2.9175e-10
4.71952e-11
2.81125e-10
4.17423e-11
2.71014e-10
3.97254e-11
2.61351e-10
3.79907e-11
2.52636e-10
3.42435e-11
2.44259e-10
3.29271e-11
2.36397e-10
3.0913e-11
2.29157e-10
2.84542e-11
2.22151e-10
2.75499e-11
2.15678e-10
2.54568e-11
2.09545e-10
2.41169e-11
2.03653e-10
2.31824e-11
1.98212e-10
2.14023e-11
1.9296e-10
2.06638e-11
1.8801e-10
1.94816e-11
1.83322e-10
1.845e-11
1.78814e-10
1.77491e-11
1.74597e-10
1.66009e-11
1.70522e-10
1.60501e-11
1.66667e-10
1.51857e-11
1.62968e-10
1.45759e-11
1.59426e-10
1.3962e-11
1.56039e-10
1.33548e-11
1.52782e-10
1.2843e-11
1.50102e-10
1.05893e-11
1.47681e-10
9.55404e-12
1.4564e-10
8.042e-12
1.43615e-10
7.99148e-12
1.41879e-10
6.83888e-12
1.40475e-10
5.50717e-12
1.39169e-10
5.13604e-12
1.37985e-10
4.6488e-12
1.36886e-10
4.31923e-12
1.35876e-10
3.96204e-12
1.34963e-10
3.58805e-12
1.34094e-10
3.41298e-12
1.33315e-10
3.0565e-12
1.32593e-10
2.83191e-12
1.31921e-10
2.63888e-12
1.31319e-10
2.35852e-12
1.30737e-10
2.28803e-12
1.30221e-10
2.02376e-12
1.29747e-10
1.85738e-12
1.29306e-10
1.7301e-12
1.28926e-10
1.49216e-12
1.28559e-10
1.44062e-12
1.28252e-10
1.20715e-12
1.27975e-10
1.08561e-12
1.2774e-10
9.25651e-13
1.2756e-10
7.03717e-13
1.27416e-10
5.72888e-13
1.27346e-10
2.77925e-13
1.27319e-10
1.12301e-13
1.2739e-10
-2.69649e-13
1.2754e-10
-5.74331e-13
1.27821e-10
-1.09351e-12
1.28235e-10
-1.60302e-12
1.2886e-10
-2.43638e-12
1.29693e-10
-3.24144e-12
1.30909e-10
-4.74679e-12
1.32444e-10
-5.98797e-12
1.34726e-10
-8.93303e-12
1.37476e-10
-1.07427e-11
1.4185e-10
-1.71778e-11
1.46778e-10
-1.92918e-11
1.5552e-10
-3.44352e-11
1.64728e-10
-3.6147e-11
1.83251e-10
-7.32143e-11
2.02619e-10
-7.6363e-11
2.50465e-10
-1.90059e-10
3.00811e-10
-2.00547e-10
4.94866e-10
-7.81924e-10
6.44772e-10
-6.1497e-10
-5.16794e-08
7.33023e-09
1.38902e-09
3.72962e-10
-1.46686e-09
1.35458e-09
1.85219e-10
1.57496e-09
-9.66785e-10
1.77604e-09
-8.88207e-10
1.73311e-09
1.99727e-10
1.48194e-09
1.11266e-09
1.38412e-09
4.06132e-10
1.29049e-09
3.92774e-10
1.18306e-09
4.57402e-10
1.08982e-09
3.92359e-10
1.00012e-09
3.78478e-10
9.24875e-10
3.15305e-10
8.52649e-10
3.03179e-10
7.94565e-10
2.4273e-10
7.38921e-10
2.32827e-10
6.91443e-10
1.98197e-10
6.49003e-10
1.77139e-10
6.09219e-10
1.65991e-10
5.75935e-10
1.38742e-10
5.44662e-10
1.30358e-10
5.15758e-10
1.20497e-10
4.90757e-10
1.04112e-10
4.66924e-10
9.93039e-11
4.45255e-10
9.02833e-11
4.25839e-10
8.08353e-11
4.07209e-10
7.76126e-11
3.90471e-10
6.97216e-11
3.75004e-10
6.44015e-11
3.60099e-10
6.20999e-11
3.46908e-10
5.49334e-11
3.34357e-10
5.22769e-11
3.22362e-10
4.99853e-11
3.11544e-10
4.50612e-11
3.01147e-10
4.33244e-11
2.91389e-10
4.06708e-11
2.82403e-10
3.74397e-11
2.73709e-10
3.62442e-11
2.65677e-10
3.34889e-11
2.58067e-10
3.17267e-11
2.50756e-10
3.04929e-11
2.44006e-10
2.81525e-11
2.37492e-10
2.71782e-11
2.31352e-10
2.5621e-11
2.25538e-10
2.42642e-11
2.19947e-10
2.33395e-11
2.14719e-10
2.18294e-11
2.09667e-10
2.1102e-11
2.04887e-10
1.99648e-11
2.00303e-10
1.916e-11
1.95913e-10
1.83518e-11
1.91717e-10
1.75508e-11
1.87682e-10
1.6878e-11
1.84366e-10
1.39047e-11
1.81369e-10
1.25513e-11
1.78838e-10
1.05735e-11
1.76331e-10
1.0498e-11
1.74179e-10
8.9909e-12
1.72435e-10
7.25086e-12
1.70813e-10
6.75833e-12
1.69343e-10
6.11927e-12
1.67979e-10
5.68359e-12
1.66725e-10
5.21533e-12
1.6559e-10
4.72312e-12
1.64511e-10
4.49234e-12
1.63544e-10
4.02369e-12
1.62647e-10
3.72898e-12
1.61812e-10
3.47353e-12
1.61064e-10
3.10682e-12
1.60341e-10
3.01093e-12
1.59699e-10
2.66565e-12
1.59111e-10
2.44561e-12
1.58563e-10
2.27819e-12
1.5809e-10
1.96514e-12
1.57634e-10
1.89635e-12
1.57252e-10
1.58896e-12
1.56908e-10
1.42943e-12
1.56617e-10
1.21747e-12
1.56394e-10
9.26315e-13
1.56215e-10
7.51608e-13
1.56129e-10
3.64266e-13
1.56098e-10
1.43587e-13
1.56187e-10
-3.5863e-13
1.56375e-10
-7.62381e-13
1.56728e-10
-1.44616e-12
1.57245e-10
-2.11992e-12
1.58026e-10
-3.21731e-12
1.59066e-10
-4.28145e-12
1.60581e-10
-6.26202e-12
1.62496e-10
-7.90311e-12
1.65335e-10
-1.17722e-11
1.68762e-10
-1.41694e-11
1.74197e-10
-2.26122e-11
1.8033e-10
-2.54249e-11
1.91171e-10
-4.52764e-11
2.02615e-10
-4.75912e-11
2.25539e-10
-9.61377e-11
2.49554e-10
-1.00378e-10
3.08602e-10
-2.49107e-10
3.7069e-10
-2.62634e-10
6.08373e-10
-1.01961e-09
7.91602e-10
-7.982e-10
-5.87461e-08
7.85827e-09
1.69868e-09
4.62575e-10
-1.78829e-09
1.66197e-09
2.21926e-10
1.92649e-09
-1.2313e-09
2.16731e-09
-1.12903e-09
2.1172e-09
2.49842e-10
1.81688e-09
1.41298e-09
1.69666e-09
5.26347e-10
1.58181e-09
5.07628e-10
1.451e-09
5.88214e-10
1.33681e-09
5.06541e-10
1.22711e-09
4.88188e-10
1.13478e-09
4.07636e-10
1.04622e-09
3.91736e-10
9.74849e-10
3.141e-10
9.06514e-10
3.01162e-10
8.48144e-10
2.56566e-10
7.95962e-10
2.29321e-10
7.47036e-10
2.14917e-10
7.06086e-10
1.79692e-10
6.67608e-10
1.68836e-10
6.32047e-10
1.56058e-10
6.01271e-10
1.34888e-10
5.71942e-10
1.28633e-10
5.45274e-10
1.16951e-10
5.21371e-10
1.04739e-10
4.98442e-10
1.00541e-10
4.7784e-10
9.03234e-11
4.58799e-10
8.34429e-11
4.40455e-10
8.04431e-11
4.24217e-10
7.11715e-11
4.08767e-10
6.77267e-11
3.94007e-10
6.47451e-11
3.80692e-10
5.83766e-11
3.67897e-10
5.61193e-11
3.5589e-10
5.26773e-11
3.44832e-10
4.84982e-11
3.34135e-10
4.69409e-11
3.24253e-10
4.33708e-11
3.1489e-10
4.10889e-11
3.05899e-10
3.94847e-11
2.97595e-10
3.64553e-11
2.89584e-10
3.51897e-11
2.82034e-10
3.31703e-11
2.74885e-10
3.14133e-11
2.68012e-10
3.02121e-11
2.61584e-10
2.82568e-11
2.55375e-10
2.73112e-11
2.49501e-10
2.58381e-11
2.43869e-10
2.47926e-11
2.38475e-10
2.37449e-11
2.33322e-10
2.27045e-11
2.28366e-10
2.18332e-11
2.24299e-10
1.79712e-11
2.20621e-10
1.62297e-11
2.17509e-10
1.36849e-11
2.14433e-10
1.35742e-11
2.11788e-10
1.16356e-11
2.0964e-10
9.3987e-12
2.07643e-10
8.75546e-12
2.05833e-10
7.92965e-12
2.04154e-10
7.36308e-12
2.0261e-10
6.75856e-12
2.01212e-10
6.12132e-12
1.99884e-10
5.82089e-12
1.98692e-10
5.21526e-12
1.97587e-10
4.83407e-12
1.96559e-10
4.50164e-12
1.95637e-10
4.02906e-12
1.94747e-10
3.90122e-12
1.93956e-10
3.45651e-12
1.93231e-10
3.17056e-12
1.92555e-10
2.95338e-12
1.91972e-10
2.54846e-12
1.91411e-10
2.45741e-12
1.90941e-10
2.05947e-12
1.90518e-10
1.8527e-12
1.90158e-10
1.57655e-12
1.89885e-10
1.20006e-12
1.89666e-10
9.70763e-13
1.8956e-10
4.6973e-13
1.89524e-10
1.80246e-13
1.89635e-10
-4.70188e-13
1.8987e-10
-9.96978e-13
1.90308e-10
-1.8839e-12
1.90949e-10
-2.76126e-12
1.91917e-10
-4.18442e-12