/*--------------------------------*- C++ -*----------------------------------*\
| =========                 |                                                 |
| \\      /  F ield         | OpenFOAM: The Open Source CFD Toolbox           |
|  \\    /   O peration     | Version:  5.x                                   |
|   \\  /    A nd           | Web:      www.OpenFOAM.org                      |
|    \\/     M anipulation  |                                                 |
\*---------------------------------------------------------------------------*/
FoamFile
{
    version     2.0;
    format      ascii;
    class       surfaceScalarField;
    location    "1000";
    object      phi;
}
// * * * * * * * * * * * * * * * * * * * * * * * * * * * * * * * * * * * * * //

dimensions      [0 3 -1 0 0 0 0];

internalField   nonuniform List<scalar> 
215247
(
1.6287e-09
5.36735e-08
-1.8877e-09
1.63797e-09
-8.76913e-12
1.97886e-09
-3.40699e-10
2.19349e-09
-2.13886e-10
1.89989e-09
2.94113e-10
1.40207e-09
4.98596e-10
1.2634e-09
1.3928e-10
1.10283e-09
1.61216e-10
9.29943e-10
1.73514e-10
7.95099e-10
1.355e-10
6.6849e-10
1.27364e-10
5.67817e-10
1.01603e-10
4.7427e-10
9.42824e-11
4.01156e-10
7.39914e-11
3.33637e-10
6.79372e-11
2.77339e-10
5.73527e-11
2.2888e-10
4.90911e-11
1.84881e-10
4.46906e-11
1.49444e-10
3.60854e-11
1.17541e-10
3.261e-11
8.96203e-11
2.8599e-11
6.67372e-11
2.35923e-11
4.63517e-11
2.09089e-11
2.93201e-11
1.75199e-11
1.52591e-11
1.53787e-11
3.1959e-12
1.22007e-11
-6.37951e-12
1.12731e-11
-1.40824e-11
8.37987e-12
-2.02825e-11
6.90062e-12
-2.47507e-11
5.21956e-12
-2.80732e-11
4.22038e-12
-3.0284e-11
3.09076e-12
-3.15095e-11
2.197e-12
-3.19809e-11
1.21312e-12
-3.17556e-11
5.19647e-14
-3.10274e-11
1.36151e-12
-2.98218e-11
-2.06267e-12
-2.83011e-11
1.09894e-12
-2.65177e-11
-8.90695e-13
-2.45211e-11
-9.07183e-13
-2.24073e-11
-1.25961e-12
-2.01723e-11
-1.257e-12
-1.78746e-11
-1.4906e-12
-1.55173e-11
-2.99971e-12
-1.3125e-11
1.85402e-13
-1.07697e-11
-3.94475e-12
-8.46512e-12
1.28047e-12
-6.30064e-12
-3.49423e-12
-4.3229e-12
2.35272e-12
-2.57714e-12
-5.26409e-13
-1.08688e-12
4.3191e-13
2.19347e-13
-2.37713e-12
1.20038e-12
3.33805e-12
2.16302e-12
-6.60161e-13
3.18204e-12
2.75066e-12
4.37191e-12
-2.43106e-13
5.77361e-12
2.59385e-12
7.43558e-12
-9.95599e-13
9.40786e-12
1.99409e-12
1.16849e-11
-6.41739e-13
1.42282e-11
1.7898e-12
1.69956e-11
-1.84026e-12
1.98959e-11
1.02318e-12
2.28368e-11
-1.59675e-12
2.57038e-11
9.58819e-13
2.84127e-11
-1.40834e-12
3.08462e-11
1.19291e-12
3.29366e-11
-5.58039e-13
3.46152e-11
1.94044e-12
3.58663e-11
2.91361e-13
3.66721e-11
2.97918e-12
3.70473e-11
1.34297e-12
3.70367e-11
4.0429e-12
3.66802e-11
3.03806e-12
3.60438e-11
4.08009e-12
3.52227e-11
2.80577e-12
3.4262e-11
4.30289e-12
3.32382e-11
3.341e-12
3.21982e-11
3.8958e-12
3.12216e-11
3.76221e-12
3.02944e-11
4.38619e-12
2.94824e-11
2.92835e-12
2.8744e-11
4.42584e-12
2.81263e-11
3.34893e-12
2.75752e-11
4.77488e-12
2.71337e-11
2.29759e-12
2.67585e-11
4.59062e-12
2.65157e-11
2.65676e-12
2.63797e-11
4.82415e-12
2.64694e-11
1.38301e-12
2.67685e-11
4.66259e-12
2.74707e-11
4.55135e-13
2.85383e-11
4.07777e-12
3.03712e-11
7.35924e-13
3.28e-11
5.85819e-14
3.67712e-11
-1.39205e-12
4.19448e-11
-2.6886e-12
5.11421e-11
-5.03512e-12
6.28225e-11
-8.89942e-12
9.46944e-11
-2.91442e-11
1.31121e-10
-3.41264e-11
-3.84607e-08
3.85948e-08
5.37897e-09
5.4442e-08
-6.16686e-09
5.37952e-09
-8.55938e-12
6.51026e-09
-1.4708e-09
7.18885e-09
-8.91583e-10
6.25158e-09
1.23235e-09
4.65379e-09
2.09741e-09
4.1697e-09
6.2409e-10
3.65458e-09
6.771e-10
3.07939e-09
7.49336e-10
2.6377e-09
5.77864e-10
2.21821e-09
5.47531e-10
1.88589e-09
4.34878e-10
1.57612e-09
4.04591e-10
1.33396e-09
3.17163e-10
1.11016e-09
2.91974e-10
9.23493e-10
2.45233e-10
7.62612e-10
2.10635e-10
6.16642e-10
1.91437e-10
4.98876e-10
1.54496e-10
3.92915e-10
1.39372e-10
3.00109e-10
1.22103e-10
2.24e-10
1.00537e-10
1.56193e-10
8.92908e-11
9.94907e-11
7.46368e-11
5.26689e-11
6.39022e-11
1.24579e-11
5.24248e-11
-1.94586e-11
4.54798e-11
-4.51896e-11
3.48638e-11
-6.59075e-11
2.85063e-11
-8.08815e-11
2.10608e-11
-9.20306e-11
1.6586e-11
-9.94944e-11
1.17612e-11
-1.03666e-10
7.80562e-12
-1.05336e-10
3.84885e-12
-1.04697e-10
-3.90126e-13
-1.02346e-10
1.82838e-12
-9.84455e-11
-6.96648e-12
-9.34734e-11
-8.68007e-13
-8.76219e-11
-5.33825e-12
-8.10489e-11
-5.64543e-12
-7.41028e-11
-7.10234e-12
-6.67324e-11
-7.09772e-12
-5.91539e-11
-7.83591e-12
-5.13858e-11
-1.14559e-11
-4.34836e-11
-4.77078e-12
-3.57146e-11
-1.31463e-11
-2.80959e-11
-2.31111e-12
-2.0948e-11
-1.13436e-11
-1.44091e-11
7.81154e-13
-8.63797e-12
-4.13778e-12
-3.70247e-12
-1.07177e-12
6.14199e-13
-6.4426e-12
3.85584e-12
4.9919e-12
7.04067e-12
-2.19291e-12
1.04155e-11
4.78979e-12
1.43412e-11
-1.77606e-12
1.89712e-11
3.41508e-12
2.44626e-11
-4.00037e-12
3.09791e-11
1.29865e-12
3.85008e-11
-4.4744e-12
4.69079e-11
-9.83208e-15
5.60486e-11
-8.14904e-12
6.56344e-11
-2.40763e-12
7.53551e-11
-7.73875e-12
8.48403e-11
-2.12356e-12
9.37909e-11
-7.02141e-12
1.01841e-10
-7.63067e-13
1.08756e-10
-3.61947e-12
1.14321e-10
2.78459e-12
1.18456e-10
-1.30508e-13
1.21127e-10
6.94336e-12
1.22376e-10
4.5719e-12
1.22347e-10
1.18643e-11
1.21177e-10
1.06305e-11
1.19097e-10
1.37126e-11
1.16364e-10
9.87803e-12
1.13189e-10
1.4332e-11
1.09806e-10
1.25245e-11
1.06374e-10
1.39194e-11
1.03132e-10
1.30313e-11
1.00063e-10
1.41221e-11
9.73651e-11
1.07786e-11
9.49239e-11
1.41629e-11
9.28633e-11
1.15067e-11
9.10403e-11
1.46215e-11
8.95585e-11
8.69719e-12
8.8317e-11
1.38098e-11
8.74922e-11
9.39316e-12
8.7042e-11
1.38537e-11
8.73094e-11
5.74093e-12
8.8291e-11
1.23749e-11
9.05859e-11
2.82507e-12
9.41e-11
9.7775e-12
1.00143e-10
5.80938e-13
1.08131e-10
-2.21269e-12
1.21266e-10
-8.84904e-12
1.38265e-10
-1.33167e-11
1.68726e-10
-2.70749e-11
2.07049e-10
-4.13211e-11
3.12233e-10
-1.28637e-10
3.91973e-10
-1.09291e-10
-7.95088e-08
4.14468e-08
9.97604e-09
5.58257e-08
-1.13493e-08
9.9439e-09
2.41902e-11
1.20254e-08
-3.55209e-09
1.32534e-08
-2.11868e-09
1.15632e-08
2.9231e-09
8.65906e-09
5.00252e-09
7.73543e-09
1.5485e-09
6.79231e-09
1.62104e-09
5.72528e-09
1.81722e-09
4.90839e-09
1.39564e-09
4.12986e-09
1.32712e-09
3.51302e-09
1.05294e-09
2.93757e-09
9.81134e-10
2.48728e-09
7.68542e-10
2.07106e-09
7.08908e-10
1.72374e-09
5.93825e-10
1.42419e-09
5.11045e-10
1.15246e-09
4.64072e-10
9.33025e-10
3.74832e-10
7.35619e-10
3.37704e-10
5.62647e-10
2.96001e-10
4.20719e-10
2.43374e-10
2.94263e-10
2.16495e-10
1.88451e-10
1.81246e-10
1.01046e-10
1.52844e-10
2.59363e-11
1.28e-10
-3.3702e-11
1.06988e-10
-8.18443e-11
8.39339e-11
-1.20632e-10
6.82031e-11
-1.48723e-10
5.01719e-11
-1.69672e-10
3.86709e-11
-1.83759e-10
2.69634e-11
-1.91694e-10
1.69208e-11
-1.94965e-10
8.12212e-12
-1.93939e-10
-7.65028e-13
-1.89685e-10
-9.64813e-14
-1.82567e-10
-1.47175e-11
-1.7343e-10
-7.05723e-12
-1.62646e-10
-1.50672e-11
-1.50504e-10
-1.65516e-11
-1.37675e-10
-1.88257e-11
-1.24035e-10
-1.95735e-11
-1.10005e-10
-2.08785e-11
-9.56259e-11
-2.62386e-11
-8.09815e-11
-1.64778e-11
-6.65897e-11
-2.90589e-11
-5.24612e-11
-1.23716e-11
-3.92094e-11
-2.58765e-11
-2.70788e-11
-6.39145e-12
-1.63713e-11
-1.34935e-11
-7.20545e-12
-8.12038e-12
8.04545e-13
-1.55303e-11
6.81928e-12
3.81669e-12
1.27303e-11
-7.70119e-12
1.8995e-11
2.68099e-12
2.62697e-11
-7.88035e-12
3.48522e-11
-5.75328e-13
4.50313e-11
-1.34705e-11
5.71098e-11
-6.35155e-12
7.10496e-11
-1.65497e-11
8.66351e-11
-1.07513e-11
1.03577e-10
-2.41146e-11
1.21349e-10
-1.58732e-11
1.39372e-10
-2.43893e-11
1.56968e-10
-1.55837e-11
1.73566e-10
-2.22583e-11
1.88504e-10
-1.1789e-11
2.01337e-10
-1.48938e-11
2.11679e-10
-3.71945e-12
2.19355e-10
-6.12866e-12
2.24326e-10
5.95111e-12
2.26659e-10
4.04577e-12
2.26621e-10
1.58482e-11
2.24466e-10
1.53769e-11
2.20633e-10
2.0779e-11
2.15557e-10
1.71794e-11
2.09673e-10
2.33474e-11
2.034e-10
2.08539e-11
1.97039e-10
2.29539e-11
1.91011e-10
2.18141e-11
1.85313e-10
2.34969e-11
1.80291e-10
1.78773e-11
1.75754e-10
2.24357e-11
1.71908e-10
1.81251e-11
1.68515e-10
2.24001e-11
1.65738e-10
1.32977e-11
1.63421e-10
2.04164e-11
1.6186e-10
1.33475e-11
1.61009e-10
1.95964e-11
1.61466e-10
6.65388e-12
1.63262e-10
1.57684e-11
1.67478e-10
-4.74338e-13
1.73963e-10
8.56568e-12
1.85135e-10
-8.2754e-12
1.99898e-10
-1.47385e-11
2.24237e-10
-3.05871e-11
2.5566e-10
-4.22863e-11
3.12152e-10
-7.95902e-11
3.82933e-10
-1.09382e-10
5.77563e-10
-3.2056e-10
7.12758e-10
-2.41986e-10
-1.2326e-07
4.44672e-08
1.55412e-08
5.78335e-08
-1.75656e-08
1.548e-08
8.62899e-11
1.86816e-08
-6.75277e-09
2.05641e-08
-4.00023e-09
1.79996e-08
5.4887e-09
1.35497e-08
9.45358e-09
1.20822e-08
3.01688e-09
1.06189e-08
3.08514e-09
8.95916e-09
3.47771e-09
7.68486e-09
2.67068e-09
6.47052e-09
2.54217e-09
5.50639e-09
2.01808e-09
4.60712e-09
1.88096e-09
3.90245e-09
1.47427e-09
3.25115e-09
1.36047e-09
2.7073e-09
1.13891e-09
2.23804e-09
9.81039e-10
1.81235e-09
8.90634e-10
1.46834e-09
7.19544e-10
1.15886e-09
6.48086e-10
8.87593e-10
5.68037e-10
6.64887e-10
4.67032e-10
4.6644e-10
4.1562e-10
3.00294e-10
3.47922e-10
1.62987e-10
2.91941e-10
4.49338e-11
2.46242e-10
-4.88598e-11
2.03161e-10
-1.24652e-10
1.60574e-10
-1.85771e-10
1.30351e-10
-2.30118e-10
9.55022e-11
-2.63255e-10
7.32298e-11
-2.85638e-10
5.0756e-11
-2.98352e-10
3.13353e-11
-3.03745e-10
1.46805e-11
-3.02398e-10
-1.69619e-12
-2.95955e-10
-3.60234e-12
-2.85031e-10
-2.63574e-11
-2.70917e-10
-1.8259e-11
-2.54206e-10
-3.00938e-11
-2.35352e-10
-3.31803e-11
-2.15416e-10
-3.74828e-11
-1.94193e-10
-3.89596e-11
-1.72347e-10
-4.12451e-11
-1.49956e-10
-4.89981e-11
-1.27132e-10
-3.64318e-11
-1.04702e-10
-5.24302e-11
-8.26679e-11
-3.04987e-11
-6.1999e-11
-4.65656e-11
-4.30703e-11
-2.03936e-11
-2.63572e-11
-2.75513e-11
-1.20413e-11
-1.82506e-11
4.66653e-13
-2.68463e-11
9.85877e-12
-7.7758e-13
1.90874e-11
-1.44401e-11
2.88656e-11
-1.23538e-12
4.02087e-11
-1.59997e-11
5.35898e-11
-8.03976e-12
6.94574e-11
-2.58755e-11
8.82833e-11
-1.87476e-11
1.10008e-10
-3.35206e-11
1.34301e-10
-2.76419e-11
1.60707e-10
-4.66905e-11
1.88413e-10
-3.66603e-11
2.16515e-10
-4.78198e-11
2.43958e-10
-3.5695e-11
2.69847e-10
-4.37913e-11
2.93156e-10
-2.81183e-11
3.13189e-10
-2.99612e-11
3.29348e-10
-1.24435e-11
3.41346e-10
-1.32991e-11
3.49131e-10
5.80274e-12
3.52803e-10
6.25372e-12
3.52775e-10
2.4924e-11
3.49442e-10
2.67064e-11
3.43497e-10
3.58153e-11
3.35587e-10
3.06231e-11
3.26422e-10
4.05343e-11
3.16641e-10
3.78174e-11
3.0672e-10
4.0905e-11
2.97302e-10
3.85711e-11
2.88398e-10
4.03974e-11
2.80538e-10
3.22562e-11
2.73439e-10
3.81911e-11
2.67404e-10
3.17298e-11
2.62081e-10
3.71921e-11
2.57705e-10
2.40356e-11
2.54056e-10
3.33949e-11
2.51571e-10
2.33065e-11
2.502e-10
3.09732e-11
2.50851e-10
1.21403e-11
2.53599e-10
2.30165e-11
2.60106e-10
-6.45598e-13
2.70158e-10
9.11216e-12
2.87516e-10
-1.82326e-11
3.10469e-10
-3.04953e-11
3.48372e-10
-6.12513e-11
3.9727e-10
-8.30794e-11
4.85307e-10
-1.57717e-10
5.95397e-10
-2.12135e-10
8.97988e-10
-6.1609e-10
1.10136e-09
-4.39591e-10
-1.69815e-07
4.76636e-08
2.22326e-08
6.06026e-08
-2.49899e-08
2.21519e-08
1.67693e-10
2.66621e-08
-1.12627e-08
2.93189e-08
-6.65628e-09
2.57485e-08
9.0597e-09
1.94837e-08
1.57193e-08
1.73477e-08
5.15373e-09
1.52563e-08
5.17745e-09
1.28868e-08
5.84818e-09
1.10585e-08
4.50009e-09
9.31851e-09
4.2833e-09
7.93312e-09
3.40476e-09
6.64169e-09
3.17365e-09
5.62803e-09
2.48903e-09
4.69135e-09
2.29813e-09
3.9086e-09
1.9229e-09
3.23294e-09
1.6577e-09
2.61995e-09
1.50467e-09
2.12426e-09
1.21629e-09
1.67828e-09
1.09513e-09
1.28725e-09
9.6015e-10
9.66023e-10
7.89294e-10
6.7976e-10
7.02777e-10
4.39952e-10
5.88711e-10
2.41661e-10
4.91647e-10
7.10919e-11
4.17641e-10
-6.45275e-11
3.40364e-10
-1.74228e-10
2.71365e-10
-2.6278e-10
2.19957e-10
-3.27156e-10
1.61068e-10
-3.75366e-10
1.22726e-10
-4.08077e-10
8.47246e-11
-4.26825e-10
5.13926e-11
-4.35007e-10
2.40433e-11
-4.33469e-10
-2.15948e-12
-4.24545e-10
-1.05599e-11
-4.09161e-10
-4.16843e-11
-3.8915e-10
-3.58523e-11
-3.65376e-10
-5.27207e-11
-3.38493e-10
-5.87268e-11
-3.10034e-10
-6.46866e-11
-2.79704e-10
-6.79957e-11
-2.48459e-10
-7.13647e-11
-2.16423e-10
-8.08105e-11
-1.83748e-10
-6.66425e-11
-1.51629e-10
-8.52837e-11
-1.20062e-10
-5.87416e-11
-9.04425e-11
-7.67428e-11
-6.33058e-11
-4.34225e-11
-3.93355e-11
-5.00542e-11
-1.87914e-11
-3.65492e-11
-8.42212e-13
-4.52898e-11
1.26368e-11
-1.03793e-11
2.58768e-11
-2.71618e-11
3.98984e-11
-1.1963e-11
5.61505e-11
-3.09477e-11
7.53166e-11
-2.32963e-11
9.80373e-11
-4.79075e-11
1.24989e-10
-4.21353e-11
1.56086e-10
-6.28782e-11
1.90863e-10
-5.84448e-11
2.28666e-10
-8.36688e-11
2.68336e-10
-7.29495e-11
3.08579e-10
-8.70226e-11
3.47891e-10
-7.18342e-11
3.84983e-10
-7.9816e-11
4.18396e-10
-5.85579e-11
4.47124e-10
-5.75571e-11
4.7032e-10
-3.28008e-11
4.87553e-10
-2.91398e-11
4.98765e-10
-2.51901e-12
5.04082e-10
2.28711e-12
5.04098e-10
2.73776e-11
4.99372e-10
3.29545e-11
4.90905e-10
4.6145e-11
4.79598e-10
4.37003e-11
4.66488e-10
5.5483e-11
4.52483e-10
5.28278e-11
4.38267e-10
5.65956e-11
4.24752e-10
5.39502e-11
4.1197e-10
5.58694e-11
4.00668e-10
4.48972e-11
3.90454e-10
5.08883e-11
3.8175e-10
4.24153e-11
3.74067e-10
4.79716e-11
3.67729e-10
3.1567e-11
3.62432e-10
4.15762e-11
3.58789e-10
2.86118e-11
3.56746e-10
3.65345e-11
3.57581e-10
1.21221e-11
3.61422e-10
2.28829e-11
3.70634e-10
-9.51201e-12
3.84929e-10
-1.54434e-12
4.09687e-10
-4.08715e-11
4.42464e-10
-6.12099e-11
4.96667e-10
-1.13501e-10
5.66587e-10
-1.51441e-10
6.92583e-10
-2.8129e-10
8.49947e-10
-3.66886e-10
1.28193e-09
-1.04544e-09
1.56848e-09
-7.23933e-10
-2.19284e-07
5.10402e-08
3.02341e-08
6.41655e-08
-3.38112e-08
3.01474e-08
2.55507e-10
3.61756e-08
-1.72898e-08
3.97427e-08
-1.02223e-08
3.50252e-08
1.37787e-08
2.66445e-08
2.41013e-08
2.36923e-08
8.10696e-09
2.08462e-08
8.02465e-09
1.76319e-08
9.06327e-09
1.5136e-08
6.9969e-09
1.27656e-08
6.65447e-09
1.08719e-08
5.29949e-09
9.10811e-09
4.9381e-09
7.72114e-09
3.87711e-09
6.43984e-09
3.57977e-09
5.36821e-09
2.99579e-09
4.44286e-09
2.58391e-09
3.6032e-09
2.34536e-09
2.9238e-09
1.89649e-09
2.31244e-09
1.70754e-09
1.77625e-09
1.49723e-09
1.33549e-09
1.23119e-09
9.42665e-10
1.09643e-09
6.13389e-10
9.18702e-10
3.40955e-10
7.65968e-10
1.06491e-10
6.5255e-10
-8.00871e-11
5.29405e-10
-2.31162e-10
4.23431e-10
-3.5325e-10
3.43282e-10
-4.42185e-10
2.51151e-10
-5.08946e-10
1.91186e-10
-5.54456e-10
1.31917e-10
-5.80787e-10
7.97744e-11
-5.92609e-10
3.7301e-11
-5.91095e-10
-2.92553e-12
-5.79403e-10
-1.92116e-11
-5.58842e-10
-6.25669e-11
-5.31897e-10
-5.99901e-11
-4.99762e-10
-8.28067e-11
-4.63339e-10
-9.24118e-11
-4.24728e-10
-1.0178e-10
-3.83527e-10
-1.06951e-10
-3.41049e-10
-1.1204e-10
-2.97476e-10
-1.24303e-10
-2.53006e-10
-1.08334e-10
-2.09279e-10
-1.29312e-10
-1.66284e-10
-9.79448e-11
-1.25928e-10
-1.1628e-10
-8.89398e-11
-7.54977e-11
-5.62508e-11
-7.94336e-11
-2.82175e-11
-5.94437e-11
-3.72267e-12
-6.74715e-11
1.46743e-11
-2.40541e-11
3.27385e-11
-4.17067e-11
5.18563e-11
-2.46973e-11
7.39972e-11
-4.88548e-11
1.00096e-10
-4.29203e-11
1.31022e-10
-7.42014e-11
1.67697e-10
-7.16555e-11
2.10008e-10
-9.9152e-11
2.57326e-10
-9.74352e-11
3.08765e-10
-1.30079e-10
3.62751e-10
-1.1912e-10
4.17527e-10
-1.35824e-10
4.71052e-10
-1.16946e-10
5.21567e-10
-1.24754e-10
5.67096e-10
-9.60741e-11
6.06263e-10
-9.04337e-11
6.37919e-10
-5.58364e-11
6.61465e-10
-4.65182e-11
6.76822e-10
-9.09105e-12
6.84156e-10
2.50318e-12
6.84267e-10
3.77042e-11
6.77914e-10
4.91028e-11
6.66458e-10
6.84294e-11
6.51109e-10
6.60051e-11
6.3329e-10
8.26142e-11
6.14231e-10
8.06384e-11
5.94867e-10
8.56007e-11
5.76434e-10
8.123e-11
5.58985e-10
8.28525e-11
5.43531e-10
6.84769e-11
5.29552e-10
7.507e-11
5.17609e-10
6.36399e-11
5.07055e-10
6.96228e-11
4.98315e-10
4.83704e-11
4.9099e-10
5.9744e-11
4.85901e-10
4.29858e-11
4.82986e-10
5.10513e-11
4.83973e-10
1.90453e-11
4.89049e-10
2.9269e-11
5.01424e-10
-1.36029e-11
5.20725e-10
-8.69931e-12
5.54274e-10
-6.51849e-11
5.98753e-10
-9.66873e-11
6.72421e-10
-1.77972e-10
7.67474e-10
-2.36374e-10
9.38878e-10
-4.41134e-10
1.15274e-09
-5.71693e-10
1.73884e-09
-1.62283e-09
2.12638e-09
-1.1042e-09
-2.71747e-07
5.46004e-08
3.97555e-08
6.866e-08
-4.4238e-08
3.96821e-08
3.29692e-10
4.74586e-08
-2.5066e-08
5.20897e-08
-1.48526e-08
4.6076e-08
1.9793e-08
3.52456e-08
3.49326e-08
3.13021e-08
1.20514e-08
2.75532e-08
1.17745e-08
2.33385e-08
1.32791e-08
2.00421e-08
1.02944e-08
1.69191e-08
9.77883e-09
1.44151e-08
7.80488e-09
1.20849e-08
7.26985e-09
1.02489e-08
5.71425e-09
8.55333e-09
5.27661e-09
7.13396e-09
4.41643e-09
5.90788e-09
3.81113e-09
4.79515e-09
3.45923e-09
3.89422e-09
2.79863e-09
3.08338e-09
2.51952e-09
2.37203e-09
2.20982e-09
1.78688e-09
1.81743e-09
1.2653e-09
1.6191e-09
8.27835e-10
1.35739e-09
4.65645e-10
1.12955e-09
1.53774e-10
9.65645e-10
-9.4627e-11
7.79242e-10
-2.95977e-10
6.26021e-10
-4.58894e-10
5.07341e-10
-5.7782e-10
3.71423e-10
-6.67326e-10
2.82049e-10
-7.28638e-10
1.94579e-10
-7.64461e-10
1.16933e-10
-7.81008e-10
5.52783e-11
-7.79845e-10
-2.54833e-12
-7.65115e-10
-3.21792e-11
-7.38601e-10
-8.83646e-11
-7.0356e-10
-9.29478e-11
-6.61594e-10
-1.23613e-10
-6.13904e-10
-1.38838e-10
-5.63264e-10
-1.5106e-10
-5.09161e-10
-1.59778e-10
-4.5333e-10
-1.6671e-10
-3.9603e-10
-1.80735e-10
-3.37513e-10
-1.64668e-10
-2.79953e-10
-1.86818e-10
-2.23329e-10
-1.51702e-10
-1.70162e-10
-1.69231e-10
-1.21409e-10
-1.20644e-10
-7.82977e-11
-1.21168e-10
-4.13032e-11
-9.43974e-11
-8.97237e-12
-9.96086e-11
1.5315e-11
-4.51222e-11
3.91533e-11
-6.4654e-11
6.4362e-11
-4.70621e-11
9.35316e-11
-7.63171e-11
1.27894e-10
-7.36542e-11
1.68591e-10
-1.13904e-10
2.1684e-10
-1.16727e-10
2.72492e-10
-1.52788e-10
3.3473e-10
-1.56054e-10
4.02391e-10
-1.96692e-10
4.73412e-10
-1.87169e-10
5.45487e-10
-2.06754e-10
6.15936e-10
-1.84633e-10
6.82449e-10
-1.90079e-10
7.42429e-10
-1.53485e-10
7.9406e-10
-1.40899e-10
8.35836e-10
-9.52034e-11
8.66952e-10
-7.60908e-11
8.87306e-10
-2.70641e-11
8.97101e-10
-5.88896e-12
8.97384e-10
3.90663e-11
8.89147e-10
5.8403e-11
8.74178e-10
8.45894e-11
8.54048e-10
8.78891e-11
8.30643e-10
1.07119e-10
8.05574e-10
1.06169e-10
7.80074e-10
1.11961e-10
7.55765e-10
1.07097e-10
7.3273e-10
1.08202e-10
7.12293e-10
9.00936e-11
6.9378e-10
9.54859e-11
6.77926e-10
8.12916e-11
6.6389e-10
8.6151e-11
6.52221e-10
6.11665e-11
6.42406e-10
7.17332e-11
6.35513e-10
5.14029e-11
6.31473e-10
5.79331e-11
6.32549e-10
1.87769e-11
6.38997e-10
2.57671e-11
6.55039e-10
-2.93066e-11
6.80204e-10
-3.11e-11
7.24127e-10
-1.07826e-10
7.82467e-10
-1.53786e-10
8.7925e-10
-2.72782e-10
1.00419e-09
-3.60004e-10
1.22962e-09
-6.64968e-10
1.51065e-09
-8.50708e-10
2.27932e-09
-2.3894e-09
2.78884e-09
-1.61133e-09
-3.27303e-07
5.83467e-08
5.10351e-08
7.41166e-08
-5.65041e-08
5.10023e-08
3.63937e-10
6.07788e-08
-3.48412e-08
6.66469e-08
-2.07194e-08
5.91823e-08
2.72594e-08
4.55342e-08
4.85822e-08
4.03931e-08
1.71938e-08
3.55688e-08
1.66001e-08
3.01748e-08
1.86741e-08
2.59227e-08
1.45475e-08
2.1905e-08
1.37974e-08
1.8671e-08
1.10402e-08
1.56642e-08
1.02774e-08
1.32903e-08
8.08933e-09
1.10986e-08
7.46875e-09
9.26225e-09
6.25413e-09
7.67537e-09
5.39903e-09
6.23489e-09
4.90097e-09
5.06785e-09
3.96663e-09
4.0173e-09
3.57133e-09
3.09536e-09
3.13283e-09
2.33646e-09
2.57772e-09
1.65989e-09
2.2967e-09
1.09206e-09
1.92622e-09
6.21612e-10
1.60205e-09
2.16298e-10
1.37173e-09
-1.06842e-10
1.10501e-09
-3.69072e-10
8.89432e-10
-5.81526e-10
7.21296e-10
-7.3696e-10
5.28217e-10
-8.54259e-10
4.01379e-10
-9.35021e-10
2.7735e-10
-9.82686e-10
1.67059e-10
-1.00534e-09
7.97012e-11
-1.00501e-09
-1.71316e-12
-9.87006e-10
-4.69316e-11
-9.53705e-10
-1.2159e-10
-9.09278e-10
-1.34506e-10
-8.55816e-10
-1.7461e-10
-7.94891e-10
-1.96438e-10
-7.30077e-10
-2.14066e-10
-6.60737e-10
-2.26393e-10
-5.8911e-10
-2.36141e-10
-5.15554e-10
-2.53718e-10
-4.40386e-10
-2.36985e-10
-3.66417e-10
-2.60441e-10
-2.93616e-10
-2.2056e-10
-2.2523e-10
-2.35939e-10
-1.62489e-10
-1.78156e-10
-1.06976e-10
-1.72604e-10
-5.93054e-11
-1.35842e-10
-1.76328e-11
-1.37787e-10
1.36803e-11
-7.14917e-11
4.44016e-11
-9.06401e-11
7.6859e-11
-7.22879e-11
1.14382e-10
-1.08417e-10
1.58551e-10
-1.1045e-10
2.1083e-10
-1.60177e-10
2.72786e-10
-1.70415e-10
3.44234e-10
-2.16642e-10
4.24133e-10
-2.263e-10
5.10998e-10
-2.77086e-10
6.02189e-10
-2.69247e-10
6.94752e-10
-2.91754e-10
7.85259e-10
-2.65232e-10
8.7074e-10
-2.68486e-10
9.47874e-10
-2.21172e-10
1.01432e-09
-1.99427e-10
1.06815e-09
-1.38811e-10
1.1083e-09
-1.08437e-10
1.13466e-09
-4.30733e-11
1.14745e-09
-9.09697e-12
1.14801e-09
5.07331e-11
1.13761e-09
8.08051e-11
1.11854e-09
1.1664e-10
1.09279e-09
1.22371e-10
1.06279e-09
1.48037e-10
1.03061e-09
1.48985e-10
9.97834e-10
1.56354e-10
9.6654e-10
1.49097e-10
9.36847e-10
1.49413e-10
9.10455e-10
1.26596e-10
8.86507e-10
1.31639e-10
8.65944e-10
1.13234e-10
8.47699e-10
1.17586e-10
8.3247e-10
8.65287e-11
8.19604e-10
9.74193e-11
8.10468e-10
7.20001e-11
8.0498e-10
7.7087e-11
8.06039e-10
2.77413e-11
8.13984e-10
3.12497e-11
8.34243e-10
-3.89946e-11
8.6623e-10
-4.88911e-11
9.2233e-10
-1.52707e-10
9.96997e-10
-2.17487e-10
1.1211e-09
-3.85256e-10
1.2814e-09
-5.07726e-10
1.57083e-09
-9.40775e-10
1.93132e-09
-1.20028e-09
2.91518e-09
-3.36277e-09
3.57135e-09
-2.25838e-09
-3.86e-07
6.22808e-08
6.43437e-08
8.06579e-08
-7.08723e-08
6.43888e-08
3.19754e-10
7.6438e-08
-4.68901e-08
8.3737e-08
-2.80177e-08
7.4664e-08
3.63331e-08
5.77965e-08
6.54506e-08
5.12158e-08
2.37755e-08
4.51149e-08
2.27022e-08
3.83366e-08
2.54537e-08
3.29477e-08
1.99377e-08
2.78704e-08
1.88762e-08
2.37663e-08
1.51457e-08
1.99543e-08
1.4091e-08
1.69382e-08
1.11067e-08
1.41544e-08
1.0254e-08
1.18197e-08
8.59026e-09
9.8013e-09
7.41875e-09
7.96873e-09
6.73487e-09
6.48303e-09
5.45375e-09
5.14536e-09
4.91029e-09
3.97106e-09
4.30857e-09
3.00369e-09
3.54636e-09
2.14114e-09
3.16049e-09
1.41673e-09
2.65194e-09
8.16093e-10
2.204e-09
2.9832e-10
1.89096e-09
-1.14907e-10
1.51952e-09
-4.50645e-10
1.22662e-09
-7.23036e-10
9.9501e-10
-9.22783e-10
7.29528e-10
-1.07396e-09
5.54091e-10
-1.1786e-09
3.83517e-10
-1.241e-09
2.30947e-10
-1.27149e-09
1.11814e-10
-1.27267e-09
1.30991e-12
-1.25124e-09
-6.67597e-11
-1.21027e-09
-1.61286e-10
-1.15503e-09
-1.87988e-10
-1.08821e-09
-2.40169e-10
-1.01181e-09
-2.71462e-10
-9.30377e-10
-2.93968e-10
-8.43123e-10
-3.12227e-10
-7.5289e-10
-3.25041e-10
-6.60167e-10
-3.45092e-10
-5.65344e-10
-3.29873e-10
-4.71991e-10
-3.53163e-10
-3.80066e-10
-3.10113e-10
-2.93674e-10
-3.21602e-10
-2.14371e-10
-2.5447e-10
-1.44155e-10
-2.41306e-10
-8.38143e-11
-1.94038e-10
-3.10462e-11
-1.89921e-10
8.61645e-12
-1.08683e-10
4.75129e-11
-1.28756e-10
8.85652e-11
-1.11161e-10
1.35976e-10
-1.54123e-10
1.91738e-10
-1.63089e-10
2.57686e-10
-2.25304e-10
3.3581e-10
-2.46065e-10
4.25878e-10
-3.04941e-10
5.26594e-10
-3.24094e-10
6.36092e-10
-3.85866e-10
7.51057e-10
-3.8202e-10
8.6778e-10
-4.07809e-10
9.81949e-10
-3.77471e-10
1.08983e-09
-3.75642e-10
1.18724e-09
-3.16836e-10
1.27122e-09
-2.82815e-10
1.33934e-09
-2.05416e-10
1.39025e-09
-1.58256e-10
1.42378e-09
-7.51941e-11
1.4402e-09
-2.47885e-11
1.4412e-09
5.00602e-11
1.42834e-09
9.35793e-11
1.4045e-09
1.40299e-10
1.37218e-09
1.55891e-10
1.33445e-09
1.85727e-10
1.29389e-09
1.88953e-10
1.25252e-09
1.97436e-10
1.21296e-09
1.89277e-10
1.17536e-09
1.88308e-10
1.14188e-09
1.60381e-10
1.11143e-09
1.62788e-10
1.08522e-09
1.40327e-10
1.0619e-09
1.42152e-10
1.04236e-09
1.06385e-10
1.02576e-09
1.14876e-10
1.01384e-09
8.4605e-11
1.0065e-09
8.60128e-11
1.00738e-09
2.69012e-11
1.01693e-09
2.32919e-11
1.042e-09
-6.44648e-11
1.08187e-09
-8.74462e-11
1.15219e-09
-2.22093e-10
1.246e-09
-3.10376e-10
1.40225e-09
-5.40232e-10
1.60423e-09
-7.09382e-10
1.96914e-09
-1.3055e-09
2.42322e-09
-1.65254e-09
3.65959e-09
-4.59718e-09
4.49127e-09
-3.08799e-09
-4.4791e-07
6.64031e-08
7.99875e-08
8.82956e-08
-8.76358e-08
8.01608e-08
1.48116e-10
9.47754e-08
-6.1503e-08
1.03722e-07
-3.69625e-08
9.28847e-08
4.71724e-08
7.23629e-08
8.59743e-08
6.40603e-08
3.20797e-08
5.64489e-08
3.03152e-08
4.80521e-08
3.38518e-08
4.13157e-08
2.66754e-08
3.49877e-08
2.52053e-08
2.98498e-08
2.02851e-08
2.50826e-08
1.88592e-08
2.13019e-08
1.48888e-08
1.78135e-08
1.3743e-08
1.48848e-08
1.15205e-08
1.23518e-08
9.95293e-09
1.00515e-08
9.03675e-09
8.1853e-09
7.32115e-09
6.50463e-09
6.59252e-09
5.02874e-09
5.78581e-09
3.81194e-09
4.76489e-09
2.72679e-09
4.24693e-09
1.81479e-09
3.5653e-09
1.05801e-09
2.96305e-09
4.0523e-10
2.54488e-09
-1.16312e-10
2.04392e-09
-5.40592e-10
1.65234e-09
-8.8533e-10
1.34161e-09
-1.13875e-09
9.84587e-10
-1.33112e-09
7.48931e-10
-1.465e-09
5.19823e-10
-1.5457e-09
3.1463e-10
-1.58623e-09
1.54508e-10
-1.58987e-09
6.59202e-12
-1.56494e-09
-8.81475e-11
-1.5154e-09
-2.10333e-10
-1.44779e-09
-2.52533e-10
-1.36551e-09
-3.1948e-10
-1.27113e-09
-3.61785e-10
-1.17027e-09
-3.92643e-10
-1.06205e-09
-4.17103e-10
-9.49988e-10
-4.34367e-10
-8.3475e-10
-4.59221e-10
-7.16816e-10
-4.44736e-10
-6.00649e-10
-4.6832e-10
-4.86202e-10
-4.20254e-10
-3.78583e-10
-4.26666e-10
-2.79738e-10
-3.47516e-10
-1.92154e-10
-3.23828e-10
-1.16827e-10
-2.6176e-10
-5.09234e-11
-2.51124e-10
-1.36944e-12
-1.52878e-10
4.7206e-11
-1.71274e-10
9.8416e-11
-1.54063e-10
1.57493e-10
-2.06464e-10
2.26906e-10
-2.23985e-10
3.08931e-10
-2.99823e-10
4.06049e-10
-3.33538e-10
5.17984e-10
-4.07552e-10
6.43137e-10
-4.38001e-10
7.79205e-10
-5.13869e-10
9.22083e-10
-5.14224e-10
1.06718e-09
-5.43587e-10
1.20916e-09
-5.07784e-10
1.34338e-09
-5.01121e-10
1.46466e-09
-4.2698e-10
1.56932e-09
-3.77744e-10
1.65433e-09
-2.78357e-10
1.71798e-09
-2.12283e-10
1.76008e-09
-1.05133e-10
1.78091e-09
-3.3813e-11
1.78253e-09
6.26848e-11
1.7669e-09
1.23621e-10
1.73756e-09
1.84971e-10
1.6976e-09
2.06569e-10
1.65082e-09
2.45185e-10
1.60044e-09
2.51955e-10
1.54896e-09
2.62682e-10
1.49964e-09
2.51349e-10
1.4527e-09
2.49004e-10
1.41079e-09
2.14585e-10
1.37261e-09
2.1543e-10
1.33964e-09
1.8698e-10
1.31023e-09
1.87102e-10
1.28546e-09
1.43555e-10
1.26432e-09
1.51071e-10
1.24895e-09
1.13797e-10
1.23923e-09
1.11719e-10
1.23971e-09
3.87267e-11
1.25094e-09
2.77525e-11
1.28145e-09
-8.19596e-11
1.3304e-09
-1.19864e-10
1.41725e-09
-2.95366e-10
1.53342e-09
-4.13218e-10
1.72733e-09
-7.19847e-10
1.97824e-09
-9.4501e-10
2.43183e-09
-1.74319e-09
2.99575e-09
-2.2034e-09
4.52716e-09
-6.11601e-09
5.5681e-09
-4.11777e-09
-5.1304e-07
7.07132e-08
9.83119e-08
9.71164e-08
-1.0712e-07
9.86802e-08
-2.1916e-10
1.16171e-07
-7.89935e-08
1.27005e-07
-4.77957e-08
1.14255e-07
5.99229e-08
8.9614e-08
1.10617e-07
7.92621e-08
4.24325e-08
6.98691e-08
3.97094e-08
5.95869e-08
4.41353e-08
5.12585e-08
3.50052e-08
4.34587e-08
3.30067e-08
3.70961e-08
2.66492e-08
3.11985e-08
2.47588e-08
2.651e-08
1.95787e-08
2.21853e-08
1.80695e-08
1.85503e-08
1.51569e-08
1.54053e-08
1.30995e-08
1.25483e-08
1.18952e-08
1.02288e-08
9.64228e-09
8.13932e-09
8.68329e-09
6.30379e-09
7.62292e-09
4.78923e-09
6.28074e-09
3.43827e-09
5.59937e-09
2.30202e-09
4.70304e-09
1.35835e-09
3.90809e-09
5.43853e-10
3.36114e-09
-1.07654e-10
2.69672e-09
-6.38368e-10
2.18459e-09
-1.07026e-09
1.77481e-09
-1.38856e-09
1.30454e-09
-1.63095e-09
9.92805e-10
-1.80059e-09
6.90984e-10
-1.90396e-09
4.19359e-10
-1.95729e-09
2.09738e-10
-1.96466e-09
1.61863e-11
-1.93633e-09
-1.14831e-10
-1.87731e-09
-2.67537e-10
-1.79564e-09
-3.32517e-10
-1.69558e-09
-4.18371e-10
-1.58036e-09
-4.75907e-10
-1.45693e-09
-5.14574e-10
-1.32424e-09
-5.48605e-10
-1.18667e-09
-5.70515e-10
-1.04508e-09
-5.98935e-10
-9.00065e-10
-5.87785e-10
-7.57142e-10
-6.10016e-10
-6.16252e-10
-5.58869e-10
-4.83695e-10
-5.5792e-10
-3.61867e-10
-4.66497e-10
-2.53832e-10
-4.30486e-10
-1.60833e-10
-3.52885e-10
-7.94244e-11
-3.31418e-10
-1.81861e-11
-2.12011e-10
4.18164e-11
-2.30324e-10
1.04996e-10
-2.1525e-10
1.77794e-10
-2.77262e-10
2.63236e-10
-3.06305e-10
3.64102e-10
-3.99691e-10
4.83462e-10
-4.50551e-10
6.20983e-10
-5.4312e-10
7.74722e-10
-5.88915e-10
9.41869e-10
-6.80208e-10
1.1174e-09
-6.87743e-10
1.29571e-09
-7.21229e-10
1.47024e-09
-6.806e-10
1.63534e-09
-6.65488e-10
1.78462e-09
-5.74748e-10
1.91358e-09
-5.06177e-10
2.01848e-09
-3.82016e-10
2.09721e-09
-2.89902e-10
2.14948e-09
-1.56342e-10
2.17563e-09
-5.93966e-11
2.17815e-09
5.97539e-11
2.15942e-09
1.41662e-10
2.12377e-09
2.19726e-10
2.07495e-09
2.56478e-10
2.01764e-09
3.018e-10
1.95578e-09
3.12601e-10
1.89246e-09
3.25078e-10
1.83168e-09
3.12391e-10
1.77372e-09
3.07906e-10
1.72185e-09
2.66467e-10
1.67448e-09
2.63012e-10
1.63344e-09
2.28594e-10
1.59671e-09
2.24544e-10
1.56563e-09
1.74701e-10
1.53896e-09
1.78015e-10
1.51934e-09
1.33843e-10
1.50661e-09
1.2549e-10
1.50637e-09
3.87839e-11
1.5193e-09
1.58195e-11
1.55593e-09
-1.19198e-10
1.61526e-09
-1.7854e-10
1.72125e-09
-4.01407e-10
1.86341e-09
-5.5541e-10
2.10133e-09
-9.56609e-10
2.40947e-09
-1.25317e-09
2.9669e-09
-2.30116e-09
3.65925e-09
-2.89457e-09
5.53406e-09
-7.9894e-09
6.8236e-09
-5.4051e-09
-5.81425e-07
7.52094e-08
1.19705e-07
1.07089e-07
-1.29686e-07
1.20355e-07
-8.67722e-10
1.41049e-07
-9.96857e-08
1.54037e-07
-6.07808e-08
1.3924e-07
7.47223e-08
1.09987e-07
1.39872e-07
9.72093e-08
5.52125e-08
8.57208e-08
5.12e-08
7.32499e-08
5.66078e-08
6.30461e-08
4.52107e-08
5.35195e-08
4.25348e-08
4.57098e-08
3.44608e-08
3.84779e-08
3.1992e-08
3.2714e-08
2.53442e-08
2.73988e-08
2.33856e-08
2.29261e-08
1.96312e-08
1.90545e-08
1.69727e-08
1.55363e-08
1.54153e-08
1.26778e-08
1.25023e-08
1.01021e-08
1.12609e-08
7.83861e-09
9.88809e-09
5.96925e-09
8.15226e-09
4.30146e-09
7.26881e-09
2.89764e-09
6.10871e-09
1.73071e-09
5.07762e-09
7.2282e-10
4.37067e-09
-8.43582e-11
3.50711e-09
-7.42806e-10
2.8448e-09
-1.27953e-09
2.31382e-09
-1.67614e-09
1.70313e-09
-1.97915e-09
1.2988e-09
-2.19246e-09
9.07192e-10
-2.32387e-09
5.54353e-10
-2.39348e-09
2.81996e-10
-2.40631e-09
3.12635e-11
-2.37487e-09
-1.42313e-10
-2.30549e-09
-3.35938e-10
-2.20793e-09
-4.26626e-10
-2.08754e-09
-5.35255e-10
-1.94829e-09
-6.10243e-10
-1.79871e-09
-6.6156e-10
-1.6376e-09
-7.05632e-10
-1.47032e-09
-7.3441e-10
-1.29799e-09
-7.69492e-10
-1.12134e-09
-7.60954e-10
-9.47128e-10
-7.82433e-10
-7.75294e-10
-7.25742e-10
-6.13523e-10
-7.16118e-10
-4.64744e-10
-6.08553e-10
-3.32694e-10
-5.5633e-10
-2.18916e-10
-4.57483e-10
-1.19254e-10
-4.25057e-10
-4.42487e-11
-2.81004e-10
2.92105e-11
-2.96109e-10
1.06458e-10
-2.82755e-10
1.95351e-10
-3.57792e-10
2.99556e-10
-4.0047e-10
4.2244e-10
-5.13224e-10
5.67761e-10
-5.84417e-10
7.35127e-10
-6.99017e-10
9.22198e-10
-7.62705e-10
1.12558e-09