/*--------------------------------*- C++ -*----------------------------------*\
| =========                 |                                                 |
| \\      /  F ield         | OpenFOAM: The Open Source CFD Toolbox           |
|  \\    /   O peration     | Version:  5.x                                   |
|   \\  /    A nd           | Web:      www.OpenFOAM.org                      |
|    \\/     M anipulation  |                                                 |
\*---------------------------------------------------------------------------*/
FoamFile
{
    version     2.0;
    format      ascii;
    class       surfaceScalarField;
    location    "1000";
    object      phi;
}
// * * * * * * * * * * * * * * * * * * * * * * * * * * * * * * * * * * * * * //

dimensions      [0 3 -1 0 0 0 0];

internalField   nonuniform List<scalar> 
215247
(
1.43998e-09
-7.31459e-08
-1.40873e-09
1.64095e-09
-2.007e-10
2.11764e-09
-4.76978e-10
2.51047e-09
-3.92373e-10
2.39212e-09
1.18237e-10
1.98062e-09
4.12197e-10
1.9147e-09
6.62969e-11
1.80554e-09
1.09595e-10
1.64715e-09
1.58791e-10
1.51299e-09
1.34591e-10
1.37608e-09
1.37662e-10
1.2588e-09
1.17525e-10
1.14355e-09
1.16057e-10
1.04826e-09
9.52616e-11
9.55678e-10
9.33002e-11
8.73879e-10
8.17936e-11
8.00235e-10
7.4011e-11
7.28844e-10
7.17336e-11
6.68233e-10
6.09167e-11
6.1023e-10
5.82839e-11
5.55219e-10
5.53386e-11
5.07024e-10
4.84699e-11
4.60215e-10
4.70856e-11
4.16824e-10
4.42141e-11
3.77557e-10
3.90917e-11
3.39293e-10
3.90377e-11
3.04534e-10
3.43145e-11
2.72232e-10
3.2524e-11
2.40893e-10
3.16243e-11
2.13067e-10
2.80669e-11
1.86674e-10
2.66278e-11
1.61629e-10
2.52688e-11
1.3928e-10
2.25661e-11
1.18188e-10
2.12379e-11
9.88681e-11
2.01082e-11
8.15781e-11
1.68194e-11
6.55316e-11
1.66324e-11
5.142e-11
1.40372e-11
3.88247e-11
1.27295e-11
2.75938e-11
1.14408e-11
1.80735e-11
9.67863e-12
9.79422e-12
8.58295e-12
2.90218e-12
7.09218e-12
-2.73377e-12
6.76315e-12
-7.27693e-12
4.00852e-12
-1.07027e-11
4.64328e-12
-1.32326e-11
2.09229e-12
-1.49068e-11
2.77307e-12
-1.58514e-11
1.05082e-13
-1.61577e-11
5.40079e-13
-1.58867e-11
-2.43055e-13
-1.51573e-11
9.14398e-13
-1.43754e-11
-1.74202e-12
-1.34631e-11
4.67333e-13
-1.24489e-11
-2.21889e-12
-1.13584e-11
-6.74715e-14
-1.01965e-11
-2.92731e-12
-9.02559e-12
-1.85326e-13
-7.8126e-12
-3.12661e-12
-6.57244e-12
-5.57556e-13
-5.32139e-12
-3.32737e-12
-4.07732e-12
-2.08452e-13
-2.86002e-12
-3.21558e-12
-1.69447e-12
-3.83053e-13
-6.02034e-13
-3.25326e-12
4.02126e-13
-4.35938e-14
1.32237e-12
-2.96832e-12
2.16211e-12
-1.95827e-13
2.9735e-12
-3.01021e-12
3.79205e-12
-6.85872e-14
4.69464e-12
-2.8209e-12
5.73368e-12
-9.72676e-13
6.97279e-12
-2.96482e-12
8.45403e-12
-1.51474e-12
1.01678e-11
-4.00345e-12
1.21125e-11
-1.70504e-12
1.41884e-11
-3.64041e-12
1.62948e-11
-1.98185e-12
1.83174e-11
-4.24859e-12
2.0119e-11
-2.09538e-12
2.16255e-11
-4.29726e-12
2.27368e-11
-1.61805e-12
2.34569e-11
-3.14538e-12
2.37814e-11
-1.06402e-12
2.37452e-11
-2.35423e-12
2.33998e-11
-6.70112e-13
2.27726e-11
-1.50026e-12
2.19288e-11
-1.95266e-13
2.0847e-11
-8.27958e-13
1.96202e-11
-1.06125e-13
1.81869e-11
-2.68613e-13
1.67332e-11
-1.68738e-13
1.52935e-11
1.54166e-13
1.42417e-11
-4.12375e-13
1.38714e-11
-8.62304e-13
1.51763e-11
-1.89816e-12
1.90636e-11
-7.7658e-12
2.83937e-11
-8.40876e-12
4.59967e-11
-1.88696e-11
8.82607e-11
-4.29726e-11
1.61596e-10
-7.37023e-11
-4.12267e-08
4.1387e-08
4.76729e-09
-7.33593e-08
-4.55477e-09
5.38918e-09
-8.22097e-10
6.95117e-09
-2.0389e-09
8.21472e-09
-1.65533e-09
7.84923e-09
4.84194e-10
6.54558e-09
1.71676e-09
6.30003e-09
3.12415e-10
5.9586e-09
4.51697e-10
5.43458e-09
6.83346e-10
4.99806e-09
5.71662e-10
4.54735e-09
5.89315e-10
4.1621e-09
5.03084e-10
3.78265e-09
4.96278e-10
3.46854e-09
4.0947e-10
3.16321e-09
3.99583e-10
2.89337e-09
3.5177e-10
2.65e-09
3.17776e-10
2.41434e-09
3.07731e-10
2.21393e-09
2.61655e-10
2.02218e-09
2.50272e-10
1.84035e-09
2.3749e-10
1.68085e-09
2.08216e-10
1.52602e-09
2.0225e-10
1.38248e-09
1.88514e-10
1.25245e-09
1.69066e-10
1.12582e-09
1.66314e-10
1.01074e-09
1.49134e-10
9.0373e-10
1.3971e-10
7.99966e-10
1.35604e-10
7.07762e-10
1.20521e-10
6.20301e-10
1.14285e-10
5.37318e-10
1.08468e-10
4.63215e-10
9.68584e-11
3.93283e-10
9.1352e-11
3.29213e-10
8.46242e-11
2.71843e-10
7.40123e-11
2.18598e-10
7.03415e-11
1.71749e-10
6.08103e-11
1.29919e-10
5.47931e-11
9.26132e-11
4.90019e-11
6.09627e-11
4.16767e-11
3.34297e-11
3.64287e-11
1.04915e-11
3.0266e-11
-8.28577e-12
2.62147e-11
-2.34346e-11
1.90269e-11
-3.48797e-11
1.71816e-11
-4.33496e-11
1.0038e-11
-4.89784e-11
9.57744e-12
-5.21844e-11
2.39446e-12
-5.32687e-11
1.94199e-12
-5.24333e-11
-1.02719e-12
-5.00743e-11
2.30975e-13
-4.75233e-11
-5.27335e-12
-4.45358e-11
-1.27831e-12
-4.12062e-11
-6.72442e-12
-3.76202e-11
-2.87384e-12
-3.3799e-11
-8.45682e-12
-2.99373e-11
-3.11011e-12
-2.59401e-11
-8.99407e-12
-2.18483e-11
-4.23828e-12
-1.77232e-11
-9.50982e-12
-1.3613e-11
-3.32676e-12
-9.59681e-12
-9.21317e-12
-5.744e-12
-3.51902e-12
-2.13686e-12
-8.95762e-12
1.18384e-12
-2.46734e-12
4.2218e-12
-8.03277e-12
7.0016e-12
-2.3875e-12
9.68237e-12
-7.79474e-12
1.239e-11
-2.12209e-12
1.53682e-11
-7.57255e-12
1.8806e-11
-4.35173e-12
2.28965e-11
-8.23477e-12
2.77938e-11
-6.14506e-12
3.34574e-11
-1.13511e-11
3.98814e-11
-7.91553e-12
4.67405e-11
-1.13246e-11
5.37087e-11
-8.42102e-12
6.04024e-11
-1.25717e-11
6.63598e-11
-8.30257e-12
7.13458e-11
-1.1368e-11
7.50279e-11
-5.68746e-12
7.74173e-11
-7.35145e-12
7.84929e-11
-2.74078e-12
7.83748e-11
-3.69168e-12
7.7233e-11
-2.72984e-13
7.5157e-11
-7.71592e-13
7.23585e-11
1.95305e-12
6.8775e-11
1.91638e-12
6.47044e-11
3.03009e-12
5.9952e-11
3.51678e-12
5.51287e-11
3.29581e-12
5.03522e-11
4.4312e-12
4.68608e-11
2.56003e-12
4.56231e-11
-6.95132e-14
4.99182e-11
-6.23721e-12
6.2735e-11
-2.45816e-11
9.35402e-11
-3.69653e-11
1.51569e-10
-7.66149e-11
2.90618e-10
-1.81413e-10
4.89144e-10
-2.72018e-10
-8.52799e-08
4.45417e-08
8.80491e-09
-7.38284e-08
-8.33524e-09
9.94921e-09
-1.9661e-09
1.28164e-08
-4.90642e-09
1.51195e-08
-3.95803e-09
1.44829e-08
1.12064e-09
1.21344e-08
4.066e-09
1.16537e-08
7.9351e-10
1.10377e-08
1.06812e-09
1.00714e-08
1.65011e-09
9.26879e-09
1.37475e-09
8.43675e-09
1.42223e-09
7.72498e-09
1.21524e-09
7.02337e-09
1.19884e-09
6.44175e-09
9.91112e-10
5.87628e-09
9.65816e-10
5.37628e-09
8.51814e-10
4.92489e-09
7.69638e-10
4.488e-09
7.45072e-10
4.11607e-09
6.33991e-10
3.76023e-09
6.06499e-10
3.42282e-09
5.75352e-10
3.1266e-09
5.04814e-10
2.83912e-09
4.90106e-10
2.57256e-09
4.56068e-10
2.33097e-09
4.10512e-10
2.09574e-09
4.02484e-10
1.88191e-09
3.6243e-10
1.683e-09
3.3895e-10
1.49016e-09
3.28863e-10
1.31873e-09
2.92287e-10
1.15609e-09
2.77259e-10
1.00178e-09
2.63091e-10
8.63925e-10
2.35021e-10
7.33817e-10
2.21651e-10
6.14592e-10
2.04857e-10
5.0779e-10
1.80229e-10
4.08658e-10
1.70216e-10
3.21401e-10
1.48038e-10
2.43463e-10
1.32869e-10
1.73939e-10
1.18787e-10
1.14918e-10
1.00854e-10
6.35553e-11
8.82139e-11
2.07368e-11
7.33601e-11
-1.43444e-11
6.27178e-11
-4.26704e-11
4.67262e-11
-6.41038e-11
4.00634e-11
-7.99956e-11
2.55634e-11
-9.05943e-11
2.13776e-11
-9.66786e-11
7.6071e-12
-9.88072e-11
4.35862e-12
-9.73558e-11
-2.45738e-12
-9.30615e-11
-2.2172e-12
-8.83818e-11
-1.0889e-11
-8.28834e-11
-5.22379e-12
-7.67417e-11
-1.41769e-11
-7.01175e-11
-8.4197e-12
-6.30551e-11
-1.75466e-11
-5.59067e-11
-9.30443e-12
-4.85081e-11
-1.86102e-11
-4.09288e-11
-1.11845e-11
-3.32885e-11
-1.96108e-11
-2.56687e-11
-9.92227e-12
-1.82264e-11
-1.89749e-11
-1.10803e-11
-9.96729e-12
-4.39242e-12
-1.82232e-11
1.76876e-12
-7.68694e-12
7.40141e-12
-1.60568e-11
1.25613e-11
-7.0177e-12
1.75331e-11
-1.54176e-11
2.25569e-11
-6.41247e-12
2.80763e-11
-1.53953e-11
3.44551e-11
-1.08669e-11
4.2038e-11
-1.80916e-11
5.11236e-11
-1.56406e-11
6.16305e-11
-2.48509e-11
7.35481e-11
-1.96859e-11
8.62756e-11
-2.61844e-11
9.92144e-11
-2.16095e-11
1.11648e-10
-2.78893e-11
1.22712e-10
-2.01028e-11
1.31977e-10
-2.42538e-11
1.38823e-10
-1.34698e-11
1.43269e-10
-1.50025e-11
1.4527e-10
-5.97766e-12
1.45051e-10
-6.74869e-12
1.42928e-10
3.05132e-13
1.39066e-10
1.41346e-13
1.33852e-10
5.56117e-12
1.27177e-10
5.80131e-12
1.19585e-10
8.71945e-12
1.10719e-10
9.91898e-12
1.01707e-10
1.01495e-11
9.27705e-11
1.13681e-11
8.62056e-11
6.62415e-12
8.38114e-11
2.13618e-13
9.16609e-11
-1.5185e-11
1.15295e-10
-5.2603e-11
1.72261e-10
-9.37927e-11
2.79575e-10
-1.86404e-10
5.36469e-10
-4.39872e-10
8.89098e-10
-6.25419e-10
-1.32285e-07
4.78922e-08
1.3671e-08
-7.46026e-08
-1.28973e-08
1.54565e-08
-3.75101e-09
1.98724e-08
-9.32208e-09
2.34139e-08
-7.49883e-09
2.24863e-08
2.04894e-09
1.89164e-08
7.63687e-09
1.81439e-08
1.56668e-09
1.71982e-08
2.01464e-09
1.57057e-08
3.14327e-09
1.44614e-08
2.61962e-09
1.31707e-08
2.7139e-09
1.20639e-08
2.32246e-09
1.09727e-08
2.29076e-09
1.00667e-08
1.89736e-09
9.1857e-09
1.84778e-09
8.40615e-09
1.63161e-09
7.70191e-09
1.47432e-09
7.02034e-09
1.42701e-09
6.43965e-09
1.21504e-09
5.88405e-09
1.16235e-09
5.35719e-09
1.10257e-09
4.89433e-09
9.67923e-10
4.44521e-09
9.39628e-10
4.02869e-09
8.73278e-10
3.65097e-09
7.88282e-10
3.28328e-09
7.7073e-10
2.94893e-09
6.96629e-10
2.63781e-09
6.50251e-10
2.33621e-09
6.30669e-10
2.06797e-09
5.60793e-10
1.81346e-09
5.31961e-10
1.57197e-09
5.04808e-10
1.35613e-09
4.51051e-10
1.1524e-09
4.25607e-10
9.65663e-10
3.91887e-10
7.9832e-10
3.47533e-10
6.42969e-10
3.25964e-10
5.06175e-10
2.848e-10
3.83941e-10
2.55382e-10
2.74869e-10
2.28143e-10
1.8222e-10
1.9394e-10
1.01555e-10
1.69214e-10
3.4264e-11
1.40914e-10
-2.09169e-11
1.18376e-10
-6.55149e-11
9.13937e-11
-9.93136e-11
7.4809e-11
-1.24426e-10
5.02437e-11
-1.41237e-10
3.92469e-11
-1.50966e-10
1.65393e-11
-1.54487e-10
8.241e-12
-1.52389e-10
-4.49592e-12
-1.45823e-10
-7.28263e-12
-1.38607e-10
-1.88737e-11
-1.30097e-10
-1.27106e-11
-1.20568e-10
-2.47059e-11
-1.10276e-10
-1.82095e-11
-9.92926e-11
-3.00537e-11
-8.81633e-11
-1.9731e-11
-7.66413e-11
-3.18122e-11
-6.48305e-11
-2.2883e-11
-5.29226e-11
-3.34365e-11
-4.10401e-11
-2.10463e-11
-2.94347e-11
-3.23738e-11
-1.82853e-11
-2.06423e-11
-7.85134e-12
-3.05809e-11
1.76425e-12
-1.66412e-11
1.05526e-11
-2.66848e-11
1.86071e-11
-1.47151e-11
2.63642e-11
-2.51024e-11
3.42032e-11
-1.37997e-11
4.28112e-11
-2.55858e-11
5.27651e-11
-2.08622e-11
6.45949e-11
-3.08735e-11
7.8776e-11
-2.96248e-11
9.51788e-11
-4.26341e-11
1.13788e-10
-3.81513e-11
1.33668e-10
-4.66094e-11
1.53888e-10
-4.13526e-11
1.73325e-10
-4.86366e-11
1.90623e-10
-3.78192e-11
2.05115e-10
-4.0491e-11
2.15828e-10
-2.46568e-11
2.22789e-10
-2.35168e-11
2.25919e-10
-9.76063e-12
2.25575e-10
-7.51863e-12
2.22246e-10
2.92236e-12
2.16188e-10
5.12404e-12
2.08002e-10
1.31821e-11
1.97517e-10
1.5782e-11
1.85575e-10
1.98406e-11
1.71614e-10
2.31336e-11
1.57391e-10
2.31511e-11
1.43246e-10
2.52033e-11
1.32757e-10
1.6863e-11
1.28745e-10
4.0036e-12
1.40668e-10
-2.7022e-11
1.77183e-10
-9.26712e-11
2.65626e-10
-1.80064e-10
4.32451e-10
-3.52439e-10
8.31472e-10
-8.37825e-10
1.37135e-09
-1.1649e-09
-1.82364e-07
5.14496e-08
1.94986e-08
-7.576e-08
-1.83405e-08
2.20618e-08
-6.31396e-09
2.83021e-08
-1.55627e-08
3.33079e-08
-1.25043e-08
3.20764e-08
3.28011e-09
2.70914e-08
1.26225e-08
2.59601e-08
2.69841e-09
2.46211e-08
3.35402e-09
2.25073e-08
5.25763e-09
2.0734e-08
4.39337e-09
1.88956e-08
4.55307e-09
1.73142e-08
3.90423e-09
1.57552e-08
3.85064e-09
1.44583e-08
3.19432e-09
1.31972e-08
3.10957e-09
1.20804e-08
2.74853e-09
1.10708e-08
2.48447e-09
1.00937e-08
2.40464e-09
9.26057e-09
2.04862e-09
8.46334e-09
1.96003e-09
7.70729e-09
1.85915e-09
7.04265e-09
1.63301e-09
6.39778e-09
1.58494e-09
5.79959e-09
1.47237e-09
5.25686e-09
1.33101e-09
4.72858e-09
1.29988e-09
4.24807e-09
1.17672e-09
3.80077e-09
1.09796e-09
3.36717e-09
1.06476e-09
2.98138e-09
9.46973e-10
2.61526e-09
8.98485e-10
2.26784e-09
8.52598e-10
1.95718e-09
7.62072e-10
1.66391e-09
7.19095e-10
1.39503e-09
6.61701e-10
1.15397e-09
5.88142e-10
9.30134e-10
5.50547e-10
7.32955e-10
4.82071e-10
5.56687e-10
4.318e-10
3.99342e-10
3.85776e-10
2.65603e-10
3.27856e-10
1.49103e-10
2.8621e-10
5.1846e-11
2.38498e-10
-2.79833e-11
1.99487e-10
-9.25724e-11
1.5563e-10
-1.41602e-10
1.2516e-10
-1.78115e-10
8.6669e-11
-2.02654e-10
6.47691e-11
-2.16979e-10
3.02533e-11
-2.22343e-10
1.39355e-11
-2.19597e-10
-7.21266e-12
-2.10393e-10
-1.49846e-11
-2.0018e-10
-2.9586e-11
-1.88085e-10
-2.35522e-11
-1.74508e-10
-3.92269e-11
-1.59816e-10
-3.22052e-11
-1.44123e-10
-4.74273e-11
-1.28204e-10
-3.51632e-11
-1.11717e-10
-5.02177e-11
-9.48056e-11
-3.95941e-11
-7.77508e-11
-5.27205e-11
-6.07247e-11
-3.74973e-11
-4.40935e-11
-5.10368e-11
-2.81092e-11
-3.64165e-11
-1.31499e-11
-4.79373e-11
6.39279e-13
-2.99274e-11
1.32399e-11
-4.14139e-11
2.47907e-11
-2.62187e-11
3.59109e-11
-3.87456e-11
4.71478e-11
-2.46712e-11
5.94837e-11
-4.00822e-11
7.37545e-11
-3.57559e-11
9.0715e-11
-5.02286e-11
1.11057e-10
-5.10357e-11
1.34594e-10
-6.93547e-11
1.61307e-10
-6.51179e-11
1.89854e-10
-7.74507e-11
2.18902e-10
-7.13373e-11
2.46837e-10
-7.95893e-11
2.71704e-10
-6.41538e-11
2.92544e-10
-6.51043e-11
3.07954e-10
-4.16089e-11
3.17968e-10
-3.70402e-11
3.22469e-10
-1.61552e-11
3.21966e-10
-1.06771e-11
3.17158e-10
5.62736e-12
3.08409e-10
1.04422e-11
2.96577e-10
2.27928e-11
2.81409e-10
2.7544e-11
2.64104e-10
3.47971e-11
2.43841e-10
4.03311e-11
2.23128e-10
4.13509e-11
2.02447e-10
4.31817e-11
1.86913e-10
2.92993e-11
1.80594e-10
7.7054e-12
1.97021e-10
-4.52178e-11
2.48645e-10
-1.48324e-10
3.74576e-10
-3.07335e-10
6.12674e-10
-5.9373e-10
1.18183e-09
-1.40905e-09
1.94776e-09
-1.93214e-09
-2.35639e-07
5.52205e-08
2.64341e-08
-7.7407e-08
-2.47873e-08
2.99364e-08
-9.81536e-09
3.83106e-08
-2.39365e-08
4.50371e-08
-1.92302e-08
4.34991e-08
4.81918e-09
3.68889e-08
1.92338e-08
3.53195e-08
4.26868e-09
3.35144e-08
5.16012e-09
3.06721e-08
8.10074e-09
2.82692e-08
6.79701e-09
2.57808e-08
7.04253e-09
2.36327e-08
6.0529e-09
2.15151e-08
5.96896e-09
1.97503e-08
4.95951e-09
1.80338e-08
4.82706e-09
1.65124e-08
4.27028e-09
1.51362e-08
3.86122e-09
1.38041e-08
3.73717e-09
1.26675e-08
3.18568e-09
1.15796e-08
3.04817e-09
1.05478e-08
2.89137e-09
9.64011e-09
2.54099e-09
8.75949e-09
2.46606e-09
7.94241e-09
2.29006e-09
7.20069e-09
2.07294e-09
6.47877e-09
2.02225e-09
5.82192e-09
1.83357e-09
5.21022e-09
1.70984e-09
4.61727e-09
1.6579e-09
4.08946e-09
1.47508e-09
3.58845e-09
1.3997e-09
3.11297e-09
1.32833e-09
2.6876e-09
1.18764e-09
2.28595e-09
1.12104e-09
1.91762e-09
1.03019e-09
1.58722e-09
9.18658e-10
1.28037e-09
8.57733e-10
1.00993e-09
7.52538e-10
7.6806e-10
6.74026e-10
5.52066e-10
6.02102e-10
3.68352e-10
5.12132e-10
2.08224e-10
4.46714e-10
7.44393e-11
3.72587e-10
-3.54853e-11
3.097e-10
-1.24529e-10
2.44968e-10
-1.92243e-10
1.93665e-10
-2.42795e-10
1.36916e-10
-2.76912e-10
9.98146e-11
-2.97008e-10
4.97215e-11
-3.04799e-10
2.21583e-11
-3.01449e-10
-1.04755e-11
-2.89213e-10
-2.59102e-11
-2.75487e-10
-4.38068e-11
-2.59153e-10
-3.9097e-11
-2.40766e-10
-5.83969e-11
-2.20831e-10
-5.1937e-11
-1.99513e-10
-7.00451e-11
-1.77866e-10
-5.63699e-11
-1.55433e-10
-7.40992e-11
-1.32409e-10
-6.284e-11
-1.09182e-10
-7.77009e-11
-8.59837e-11
-6.02036e-11
-6.33188e-11
-7.52662e-11
-4.15277e-11
-5.80161e-11
-2.11323e-11
-7.00548e-11
-2.32918e-12
-4.83392e-11
1.48508e-11
-6.02055e-11
3.05998e-11
-4.18834e-11
4.57564e-11
-5.56255e-11
6.10704e-11
-3.9765e-11
7.7879e-11
-5.82419e-11
9.73323e-11
-5.53595e-11
1.20458e-10
-7.40541e-11
1.4821e-10
-7.86815e-11
1.80336e-10
-1.02529e-10
2.16811e-10
-1.01519e-10
2.55809e-10
-1.16696e-10
2.95511e-10
-1.10639e-10
3.33707e-10
-1.18753e-10
3.67717e-10
-9.87696e-11
3.9623e-10
-9.49852e-11
4.17317e-10
-6.32706e-11
4.31022e-10
-5.20139e-11
4.37172e-10
-2.30074e-11
4.36463e-10
-1.07167e-11
4.29846e-10
1.1565e-11
4.17811e-10
2.1689e-11
4.01517e-10
3.86113e-11
3.80609e-10
4.82894e-11
3.56701e-10
5.79937e-11
3.28651e-10
6.78643e-11
2.99856e-10
6.90585e-11
2.70962e-10
7.19443e-11
2.48907e-10
5.14292e-11
2.3929e-10
1.73706e-11
2.60506e-10
-6.62066e-11
3.29605e-10
-2.20461e-10
4.9978e-10
-4.75521e-10
8.22625e-10
-9.15165e-10
1.59412e-09
-2.17893e-09
2.63152e-09
-2.96892e-09
-2.92218e-07
5.92108e-08
3.46427e-08
-7.96678e-08
-3.23813e-08
3.92735e-08
-1.44459e-08
5.01279e-08
-3.47912e-08
5.88646e-08
-2.79666e-08
5.70316e-08
6.65196e-09
4.85709e-08
2.7695e-08
4.64707e-08
6.36904e-09
4.41163e-08
7.51485e-09
4.04255e-08
1.1792e-08
3.72776e-08
9.94532e-09
3.40221e-08
1.02987e-08
3.1201e-08
8.87451e-09
2.84201e-08
8.75061e-09
2.60977e-08
7.28217e-09
2.38385e-08
7.08681e-09
2.18343e-08
6.27473e-09
2.002e-08
5.67611e-09
1.82636e-08
5.49408e-09
1.67638e-08
4.68602e-09
1.5328e-08
4.48444e-09
1.3966e-08
4.25395e-09
1.27669e-08
3.74052e-09
1.16037e-08
3.62984e-09
1.05241e-08
3.37049e-09
9.54351e-09
3.05369e-09
8.58916e-09
2.97744e-09
7.72051e-09
2.70191e-09
6.91123e-09
2.51961e-09
6.12675e-09
2.44298e-09
5.42811e-09
2.17418e-09
4.76477e-09
2.06351e-09
4.13516e-09
1.95838e-09
3.57159e-09
1.75162e-09
3.03934e-09
1.65355e-09
2.55108e-09
1.51934e-09
2.11288e-09
1.35653e-09
1.7058e-09
1.26559e-09
1.34686e-09
1.1117e-09
1.02566e-09
9.95356e-10
7.38686e-10
8.89359e-10
4.94425e-10
7.56572e-10
2.81383e-10
6.60347e-10
1.03238e-10
5.51122e-10
-4.32979e-11
4.57418e-10
-1.62151e-10
3.63728e-10
-2.52707e-10
2.85463e-10
-3.20488e-10
2.04854e-10
-3.6644e-10
1.466e-10
-3.93764e-10
7.6665e-11
-4.0473e-10
3.34701e-11
-4.00881e-10
-1.42927e-11
-3.852e-10
-4.03273e-11
-3.67385e-10
-6.17174e-11
-3.46072e-10
-5.93926e-11
-3.22005e-10
-8.31025e-11
-2.95855e-10
-7.77015e-11
-2.67854e-10
-9.94476e-11
-2.39391e-10
-8.47277e-11
-2.09875e-10
-1.05303e-10
-1.79563e-10
-9.33332e-11
-1.48969e-10
-1.10371e-10
-1.184e-10
-9.05652e-11
-8.85272e-11
-1.06954e-10
-5.9796e-11
-8.6956e-11
-3.29019e-11
-9.92367e-11
-8.10442e-12
-7.2994e-11
1.45488e-11
-8.47905e-11
3.53136e-11
-6.30176e-11
5.52896e-11
-7.80573e-11
7.547e-11
-5.98798e-11
9.7618e-11
-8.24377e-11
1.23262e-10
-8.20297e-11
1.53758e-10
-1.07044e-10
1.90382e-10
-1.16928e-10
2.32801e-10
-1.48308e-10
2.8099e-10
-1.50288e-10
3.32537e-10
-1.70666e-10
3.85042e-10
-1.6468e-10
4.35577e-10
-1.72444e-10
4.80588e-10
-1.45859e-10
5.18335e-10
-1.36631e-10
5.46254e-10
-9.32333e-11
5.64396e-10
-7.39242e-11
5.72522e-10
-3.3566e-11
5.71547e-10
-1.37108e-11
5.62719e-10
1.78369e-11
5.46679e-10
3.39096e-11
5.24938e-10
5.76264e-11
4.97004e-10
7.23157e-11
4.64984e-10
8.73012e-11
4.27318e-10
1.01974e-10
3.88464e-10
1.05094e-10
3.49241e-10
1.07885e-10
3.18749e-10
7.78335e-11
3.04445e-10
2.81863e-11
3.30509e-10
-9.45692e-11
4.1955e-10
-3.13277e-10
6.41512e-10
-7.00002e-10
1.06448e-09
-1.34254e-09
2.07519e-09
-3.19269e-09
3.43707e-09
-4.33247e-09
-3.5221e-07
6.34256e-08
4.43103e-08
-8.26959e-08
-4.1282e-08
5.02909e-08
-2.04254e-08
6.40106e-08
-4.85103e-08
7.50827e-08
-3.90378e-08
7.29859e-08
8.75011e-09
6.24368e-08
3.82454e-08
5.9698e-08
9.10891e-09
5.66993e-08
1.05149e-08
5.20263e-08
1.64659e-08
4.80014e-08
1.39712e-08
4.38457e-08
1.44556e-08
4.02291e-08
1.2492e-08
3.66642e-08
1.23162e-08
3.36805e-08
1.02663e-08
3.07775e-08
9.99086e-09
2.81995e-08
8.85331e-09
2.58641e-08
8.01221e-09
2.36027e-08
7.75596e-09
2.16701e-08
6.61919e-09
1.98195e-08
6.33534e-09
1.80638e-08
6.01018e-09
1.65169e-08
5.28777e-09
1.50162e-08
5.13115e-09
1.36231e-08
4.76426e-09
1.23569e-08
4.32024e-09
1.11246e-08
4.21009e-09
1.00026e-08
3.82408e-09
8.95677e-09
3.56565e-09
7.94295e-09
3.457e-09
7.03961e-09
3.07787e-09
6.18167e-09
2.92168e-09
5.36722e-09
2.77312e-09
4.63778e-09
2.48128e-09
3.94871e-09
2.343e-09
3.31638e-09
2.15176e-09
2.74855e-09
1.92461e-09
2.22089e-09
1.79355e-09
1.75537e-09
1.57732e-09
1.33855e-09
1.41262e-09
9.65978e-10
1.26233e-09
6.48603e-10
1.07466e-09
3.71593e-10
9.37791e-10
1.39744e-10
7.83332e-10
-5.11953e-11
6.48541e-10
-2.06276e-10
5.19278e-10
-3.24677e-10
4.0455e-10
-4.13548e-10
2.9354e-10
-4.74084e-10
2.07983e-10
-5.10436e-10
1.12553e-10
-5.25537e-10
4.90959e-11
-5.21386e-10
-1.83118e-11
-5.01834e-10
-5.86634e-11
-4.79294e-10
-8.45006e-11
-4.52167e-10
-8.58906e-11
-4.21427e-10
-1.14459e-10
-3.87947e-10
-1.11203e-10
-3.52045e-10
-1.36489e-10
-3.15509e-10
-1.21015e-10
-2.77593e-10
-1.44495e-10
-2.38627e-10
-1.328e-10
-1.99282e-10
-1.51377e-10
-1.5995e-10
-1.29605e-10
-1.21502e-10
-1.46798e-10
-8.4511e-11
-1.23985e-10
-4.98815e-11
-1.3545e-10
-1.79483e-11
-1.04743e-10
1.12183e-11
-1.15397e-10
3.79488e-11
-8.98894e-11
6.36532e-11
-1.05336e-10
8.96156e-11
-8.58002e-11
1.18109e-10
-1.12081e-10
1.51115e-10
-1.15223e-10
1.90389e-10
-1.46786e-10
2.37589e-10
-1.64042e-10
2.92299e-10
-2.03766e-10
3.54487e-10
-2.12388e-10
4.21048e-10
-2.37209e-10
4.88883e-10
-2.32125e-10
5.54202e-10
-2.38437e-10
6.12402e-10
-2.04765e-10
6.61221e-10
-1.86473e-10
6.97332e-10
-1.29953e-10
7.2079e-10
-9.83688e-11
7.3127e-10
-4.4714e-11
7.29949e-10
-1.27733e-11
7.18426e-10
2.87673e-11
6.97512e-10
5.43469e-11
6.69134e-10
8.56781e-11
6.32619e-10
1.09034e-10
5.90644e-10
1.28697e-10
5.41121e-10
1.51253e-10
4.89748e-10
1.55523e-10
4.37542e-10
1.60189e-10
3.96134e-10
1.196e-10
3.75242e-10
4.93588e-11
4.05886e-10
-1.24766e-10
5.17377e-10
-4.27339e-10
7.99501e-10
-9.80218e-10
1.34007e-09
-1.88111e-09
2.63211e-09
-4.48257e-09
4.38013e-09
-6.07954e-09
-4.15699e-07
6.7869e-08
5.56449e-08
-8.6675e-08
-5.16651e-08
6.32326e-08
-2.80128e-08
8.02437e-08
-6.55217e-08
9.40151e-08
-5.28091e-08
9.17116e-08
1.10532e-08
7.88269e-08
5.11305e-08
7.53252e-08
1.26107e-08
7.15746e-08
1.42658e-08
6.57715e-08
2.22694e-08
6.07195e-08
1.90235e-08
5.5512e-08
1.96637e-08
5.09594e-08
1.7045e-08
4.64721e-08
1.68041e-08
4.27074e-08
1.40312e-08
3.90437e-08
1.36551e-08
3.57865e-08
1.21108e-08
3.28335e-08
1.09659e-08
2.99735e-08
1.06166e-08
2.75271e-08
9.06621e-09
2.51839e-08
8.67908e-09
2.29604e-08
8.2344e-09
2.09996e-08
7.24904e-09
1.90975e-08
7.03386e-09
1.73312e-08
6.53138e-09
1.57247e-08
5.92702e-09
1.41613e-08
5.77423e-09
1.27372e-08
5.248e-09
1.14091e-08
4.8943e-09
1.01216e-08
4.74519e-09
8.97376e-09
4.22623e-09
7.88327e-09
4.01272e-09
6.84788e-09
3.80903e-09
5.92e-09
3.40964e-09
5.04322e-09
3.22007e-09
4.23832e-09
2.95749e-09
3.51508e-09
2.64766e-09
2.84279e-09
2.46667e-09
2.24934e-09
2.17111e-09
1.71762e-09
1.94447e-09
1.24209e-09
1.73816e-09
8.36674e-10
1.48032e-09
4.82542e-10
1.29262e-09
1.85851e-10
1.08049e-09
-5.8802e-11
8.94253e-10
-2.57803e-10
7.18515e-10
-4.10066e-10
5.58012e-10
-5.24693e-10
4.0854e-10
-6.03166e-10
2.87188e-10
-6.50769e-10
1.59945e-10
-6.71229e-10
6.9952e-11
-6.67095e-10
-2.23953e-11
-6.43247e-10
-8.14351e-11
-6.1529e-10
-1.12242e-10
-5.81415e-10
-1.18935e-10
-5.42876e-10
-1.53368e-10
-5.00791e-10
-1.53211e-10
-4.55587e-10
-1.82861e-10
-4.09529e-10
-1.67355e-10
-3.61693e-10
-1.9388e-10
-3.12496e-10
-1.82638e-10
-2.62793e-10
-2.03114e-10
-2.13082e-10
-1.79475e-10
-1.64472e-10
-1.97115e-10
-1.17689e-10
-1.71475e-10
-7.3886e-11
-1.81587e-10
-3.3491e-11
-1.45358e-10
3.39671e-12
-1.54145e-10
3.71947e-11
-1.2457e-10
6.96805e-11
-1.40394e-10
1.02485e-10
-1.18874e-10
1.38488e-10
-1.50183e-10
1.80217e-10
-1.58591e-10
2.29903e-10
-1.99289e-10
2.8967e-10
-2.26211e-10
3.59001e-10
-2.76912e-10
4.37867e-10
-2.92336e-10
5.22333e-10
-3.24403e-10
6.08465e-10
-3.20508e-10
6.91444e-10
-3.24982e-10
7.65406e-10
-2.81682e-10
8.27463e-10
-2.52857e-10
8.73364e-10
-1.78705e-10
9.03167e-10
-1.32542e-10
9.16441e-10
-6.13087e-11
9.14668e-10
-1.5607e-11
8.99863e-10
4.02291e-11
8.73032e-10
7.661e-11
8.3658e-10
1.18482e-10
7.89599e-10
1.51218e-10
7.35422e-10
1.79484e-10
6.71294e-10
2.10959e-10
6.04361e-10
2.18955e-10
5.35845e-10
2.24454e-10
4.80339e-10
1.70151e-10
4.50302e-10
7.51457e-11
4.84804e-10
-1.62515e-10
6.21221e-10
-5.67752e-10
9.72737e-10
-1.33571e-09
1.65071e-09
-2.56452e-09
3.27198e-09
-6.10768e-09
5.47774e-09
-8.28775e-09
-4.82769e-07
7.25442e-08
6.88783e-08
-9.18285e-08
-6.37241e-08
7.83713e-08
-3.75045e-08
9.9142e-08
-8.62915e-08
1.16018e-07
-6.96838e-08
1.13598e-07
1.34746e-08
9.81268e-08
6.66035e-08
9.37206e-08
1.70184e-08
8.90964e-08
1.88917e-08
8.20006e-08
2.93665e-08
7.57517e-08
2.52738e-08
6.93211e-08
2.60956e-08
6.36719e-08
2.26954e-08
5.81035e-08
2.23734e-08
5.342e-08
1.87153e-08
4.88607e-08
1.82155e-08
4.48026e-08
1.61697e-08
4.11202e-08
1.46491e-08
3.75528e-08
1.41847e-08
3.44985e-08
1.21212e-08
3.15721e-08
1.16059e-08
2.87946e-08
1.10126e-08
2.63432e-08
9.70091e-09
2.3965e-08
9.41284e-09
2.17558e-08
8.74127e-09
1.97451e-08
7.93822e-09
1.77884e-08
7.73133e-09
1.60051e-08
7.03152e-09
1.43413e-08
6.55839e-09
1.27282e-08
6.35854e-09
1.12892e-08
5.66565e-09
9.92161e-09
5.38056e-09
8.62286e-09
5.10814e-09
7.45822e-09
4.57454e-09
6.35736e-09
4.32142e-09
5.34635e-09
3.96856e-09
4.4373e-09
3.55708e-09
3.59199e-09
3.31229e-09
2.84533e-09
2.91796e-09
2.1759e-09
2.61448e-09
1.57685e-09
2.33769e-09
1.06566e-09
1.99242e-09
6.18767e-10
1.74002e-09
2.43962e-10
1.45574e-09
-6.55271e-11
1.20389e-09
-3.17663e-10
9.71267e-10
-5.11025e-10
7.52012e-10
-6.57052e-10
5.545e-10
-7.57541e-10
3.88492e-10
-8.19144e-10
2.21243e-10
-8.46525e-10
9.79939e-11
-8.42887e-10
-2.58363e-11
-8.14344e-10
-1.08771e-10
-7.80223e-10
-1.46367e-10
-7.38557e-10
-1.60077e-10
-6.90949e-10
-2.01466e-10
-6.38806e-10
-2.05534e-10
-5.82698e-10
-2.4e-10
-5.25454e-10
-2.24484e-10
-4.65944e-10
-2.54551e-10
-4.04695e-10
-2.44628e-10
-3.42777e-10
-2.66669e-10
-2.80816e-10
-2.41292e-10
-2.20206e-10
-2.5901e-10
-1.61853e-10
-2.30063e-10
-1.07209e-10
-2.37748e-10
-5.68141e-11
-1.95728e-10
-1.08053e-11
-2.01482e-10
3.13356e-11
-1.67052e-10
7.18203e-11
-1.82375e-10
1.12692e-10
-1.59843e-10
1.57552e-10
-1.9604e-10
2.09579e-10
-2.10814e-10
2.71576e-10
-2.61576e-10
3.46227e-10
-3.0078e-10
4.32902e-10
-3.64112e-10
5.31576e-10
-3.90872e-10
6.37333e-10
-4.29934e-10
7.45245e-10
-4.28049e-10
8.49259e-10
-4.29462e-10
9.42006e-10
-3.75201e-10
1.01984e-09
-3.31447e-10
1.07741e-09
-2.36906e-10
1.11477e-09
-1.70664e-10
1.13134e-09
-7.85023e-11
1.12898e-09
-1.33318e-11
1.11019e-09
5.85149e-11
1.07618e-09
1.10402e-10
1.02992e-09
1.64547e-10
9.70198e-10
2.11454e-10
9.01087e-10
2.48112e-10
8.18988e-10
2.93051e-10
7.32733e-10
3.04361e-10
6.43758e-10
3.13724e-10
5.70094e-10
2.44505e-10
5.2752e-10
1.18283e-10
5.64548e-10
-1.98884e-10
7.28224e-10
-7.33646e-10
1.15923e-09
-1.76487e-09
1.99695e-09
-3.39954e-09
4.00175e-09
-8.10966e-09
6.74812e-09
-1.10328e-08
-5.53474e-07
7.74527e-08
8.42672e-08
-9.84241e-08
-7.76713e-08
9.60102e-08
-4.92471e-08
1.21052e-07
-1.11334e-07
1.41481e-07
-9.01129e-08
1.39078e-07
1.5877e-08
1.20772e-07
8.49098e-08
1.15302e-07
2.24887e-08
1.09667e-07
2.45258e-08
1.01102e-07
3.79323e-08
9.34643e-08
3.29112e-08
8.56181e-08
3.39423e-08
7.8689e-08
2.96248e-08
7.18583e-08
2.92046e-08
6.60977e-08
2.4476e-08
6.04878e-08
2.3826e-08
5.54881e-08
2.11699e-08
5.09472e-08
1.91907e-08
4.65466e-08
1.85858e-08
4.27752e-08
1.58933e-08
3.91604e-08
1.52211e-08
3.57288e-08
1.4445e-08
3.26972e-08
1.27331e-08
2.9756e-08
1.23547e-08
2.70228e-08
1.14752e-08
2.45332e-08
1.04282e-08
2.21106e-08
1.01547e-08
1.99016e-08
9.24039e-09
1.78394e-08
8.62129e-09
1.58398e-08
8.35886e-09
1.40549e-08
7.45107e-09
1.2358e-08
7.07806e-09
1.07462e-08
6.72057e-09
9.29973e-09
6.02147e-09
7.93203e-09
5.68947e-09
6.6754e-09
5.22603e-09
5.5447e-09
4.68771e-09
4.49287e-09
4.36505e-09
3.56318e-09
3.84813e-09
2.72902e-09
3.44867e-09
1.9821e-09
3.08483e-09
1.34411e-09
2.63065e-09
7.85858e-10
2.29906e-09
3.17131e-10
1.92502e-09
-7.04751e-11
1.59253e-09
-3.8678e-10
1.28808e-09
-6.29945e-10
9.96406e-10
-8.14186e-10
7.39307e-10
-9.41665e-10
5.1668e-10
-1.02066e-09
3.00169e-10
-1.05694e-09
1.34697e-10
-1.05451e-09
-2.82229e-11
-1.02092e-09
-1.41326e-10
-9.79838e-10
-1.86948e-10
-9.29234e-10
-2.09957e-10
-8.71131e-10
-2.59756e-10
-8.07282e-10
-2.69509e-10
-7.3844e-10
-3.09861e-10
-6.68103e-10
-2.95383e-10
-5.94908e-10
-3.29235e-10
-5.19508e-10
-3.21042e-10
-4.43232e-10
-3.45025e-10
-3.6686e-10
-3.1809e-10
-2.92123e-10
-3.35429e-10
-2.20142e-10
-3.03156e-10
-1.52727e-10
-3.07622e-10
-9.05497e-11
-2.58392e-10
-3.37997e-11
-2.60097e-10
1.81583e-11
-2.20317e-10
6.80471e-11
-2.35018e-10
1.18399e-10
-2.10711e-10
1.7367e-10
-2.53493e-10
2.37817e-10
-2.77095e-10
3.14327e-10
-3.4123e-10
4.06554e-10
-3.96103e-10
5.13746e-10
-4.75595e-10
6.35887e-10
-5.14499e-10
7.66897e-10
-5.63995e-10
9.00667e-10
-5.64728e-10
1.02968e-09
-5.62514e-10
1.14476e-09
-4.93947e-10
1.24136e-09
-4.328e-10
1.3128e-09
-3.11863e-10
1.35912e-09
-2.21913e-10
1.37959e-09
-1.0302e-10
1.37647e-09
-1.54001e-11
1.35282e-09
7.81579e-11
1.31013e-09
1.47863e-10
1.25198e-09
2.18264e-10
1.17675e-09
2.81091e-10
1.08938e-09
3.31502e-10
9.85204e-10
3.92052e-10
8.7499e-10
4.10458e-10
7.60391e-10
4.23227e-10
6.6342e-10
3.35199e-10
6.03867e-10
1.72395e-10
6.41275e-10
-2.40339e-10
8.3427e-10
-9.30919e-10
1.35573e-09
-2.29149e-09
2.37828e-09
-4.42916e-09
4.82795e-09
-1.05644e-08
8.21062e-09
-1.44186e-08
-6.27863e-07
8.25948e-08
1.02095e-07
-1.06779e-07
-9.3738e-08
1.16484e-07
-6.36351e-08
1.46352e-07
-1.412e-07
1.70829e-07
-1.14588e-07
1.68629e-07
1.80792e-08
1.47253e-07
1.06288e-07
1.40541e-07
2.92024e-08
1.33744e-07
3.13254e-08
1.23517e-07
4.81613e-08
1.14277e-07
4.21529e-08
1.04799e-07
4.3422e-08
9.6382e-08
3.8043e-08
8.80828e-08
3.7505e-08
8.10637e-08
3.1496e-08
7.42251e-08
3.0666e-08
6.8122e-08
2.7274e-08
6.25734e-08
2.47404e-08
5.71942e-08
2.39658e-08
5.25792e-08
2.05091e-08
4.81541e-08
1.96468e-08
4.39523e-08
1.86477e-08
4.02362e-08
1.64497e-08
3.6631e-08
1.5961e-08
3.32793e-08
1.48277e-08
3.02239e-08
1.34842e-08
2.72507e-08
1.31285e-08
2.45381e-08
1.19533e-08
2.20043e-08
1.11555e-08
1.95472e-08
1.08162e-08
1.73524e-08
9.64636e-09
1.52649e-08
9.16584e-09
1.32816e-08
8.70438e-09
1.15005e-08
7.80292e-09
9.81567e-09
7.37489e-09
8.26697e-09
6.77481e-09
6.8724e-09
6.08275e-09
5.57455e-09
5.66324e-09
4.4266e-09
4.99639e-09
3.39578e-09
4.48021e-09
2.47216e-09
4.00903e-09
1.68242e-09
3.42154e-09
9.90727e-10
2.99136e-09
4.09255e-10
2.50703e-09
-7.23246e-11
2.07432e-09
-4.66012e-10
1.68251e-09
-7.69442e-10
1.30049e-09
-1.00014e-09
9.70063e-10
-1.16066e-09
6.78043e-10
-1.26123e-09
4.00602e-10
-1.30893e-09
1.83227e-10
-1.30869e-09
-2.81858e-11
-1.2698e-09
-1.78924e-10
-1.22093e-09
-2.35548e-10
-1.16014e-09
-2.70292e-10
-1.08994e-09
-3.30347e-10
-1.01253e-09
-3.47181e-10
-9.28875e-10
-3.9448e-10
-8.43265e-10
-3.8094e-10
-7.54077e-10
-4.1951e-10
-6.62115e-10
-4.13918e-10
-5.69017e-10
-4.39787e-10
-4.75741e-10
-4.11311e-10
-3.8442e-10