/*--------------------------------*- C++ -*----------------------------------*\
| =========                 |                                                 |
| \\      /  F ield         | OpenFOAM: The Open Source CFD Toolbox           |
|  \\    /   O peration     | Version:  5.x                                   |
|   \\  /    A nd           | Web:      www.OpenFOAM.org                      |
|    \\/     M anipulation  |                                                 |
\*---------------------------------------------------------------------------*/
FoamFile
{
    version     2.0;
    format      ascii;
    class       volVectorField;
    location    "1000";
    object      U;
}
// * * * * * * * * * * * * * * * * * * * * * * * * * * * * * * * * * * * * * //

dimensions      [0 1 -1 0 0 0 0];

internalField   nonuniform List<vector> 
107912
(
(3.76764e-08 1.27062e-06 -1.36749e-30)
(1.72385e-08 8.86288e-07 1.30564e-30)
(4.56787e-08 1.14638e-06 4.55686e-27)
(1.37021e-07 1.25584e-06 1.75374e-26)
(4.45213e-07 1.46344e-06 3.05459e-26)
(5.61524e-07 1.05601e-06 4.77748e-26)
(5.26382e-07 9.23508e-07 -7.6503e-27)
(5.93411e-07 8.77223e-07 2.32363e-30)
(5.80092e-07 7.42419e-07 -4.64931e-30)
(5.92364e-07 6.71657e-07 -5.83249e-30)
(5.69009e-07 5.78787e-07 -6.24871e-30)
(5.59893e-07 5.18272e-07 5.15419e-26)
(5.35546e-07 4.53938e-07 9.65172e-26)
(5.18515e-07 4.06068e-07 4.15782e-29)
(4.97039e-07 3.61718e-07 -9.56335e-26)
(4.77918e-07 3.24073e-07 9.63041e-26)
(4.58942e-07 2.91768e-07 1.13292e-29)
(4.40938e-07 2.62884e-07 0)
(4.23692e-07 2.37668e-07 -1.72609e-25)
(4.08269e-07 2.16219e-07 -7.9694e-26)
(3.92756e-07 1.96063e-07 0)
(3.78671e-07 1.78763e-07 0)
(3.65671e-07 1.63305e-07 -6.66486e-26)
(3.52906e-07 1.48866e-07 6.34055e-26)
(3.41241e-07 1.36343e-07 5.96739e-26)
(3.30392e-07 1.24802e-07 1.08749e-25)
(3.19753e-07 1.14053e-07 -5.19209e-26)
(3.10135e-07 1.04648e-07 4.7684e-26)
(3.00855e-07 9.56872e-08 -4.31656e-26)
(2.91995e-07 8.74948e-08 -4.11705e-26)
(2.83958e-07 8.0171e-08 3.69801e-26)
(2.76034e-07 7.30635e-08 0)
(2.68523e-07 6.66081e-08 -3.11092e-26)
(2.61595e-07 6.06627e-08 3.2374e-30)
(2.54732e-07 5.49331e-08 -3.16958e-30)
(2.48325e-07 4.9747e-08 -5.04319e-31)
(2.42267e-07 4.48087e-08 1.93846e-26)
(2.36308e-07 4.01079e-08 6.41777e-31)
(2.30759e-07 3.58055e-08 -1.68573e-30)
(2.25342e-07 3.1626e-08 -1.24291e-26)
(2.20129e-07 2.77276e-08 1.38904e-30)
(2.15203e-07 2.40533e-08 0)
(2.10349e-07 2.05051e-08 0)
(2.05734e-07 1.72005e-08 -2.30116e-27)
(2.01236e-07 1.40098e-08 0)
(1.96897e-07 1.09884e-08 -1.24947e-27)
(1.92704e-07 8.1166e-09 7.22096e-29)
(1.88619e-07 5.34845e-09 4.38919e-28)
(1.84649e-07 2.72704e-09 0)
(1.80784e-07 2.03692e-10 0)
(1.77004e-07 -2.21059e-09 7.04131e-28)
(1.73309e-07 -4.51518e-09 8.23639e-31)
(1.70116e-07 -6.65681e-09 2.39672e-27)
(1.66834e-07 -8.24365e-09 2.69961e-27)
(1.64314e-07 -9.5305e-09 6.01256e-27)
(1.61804e-07 -1.09148e-08 -6.57451e-27)
(1.5922e-07 -1.20015e-08 1.4268e-26)
(1.57214e-07 -1.2912e-08 9.72505e-31)
(1.55322e-07 -1.38856e-08 -8.209e-27)
(1.53517e-07 -1.47888e-08 8.72376e-27)
(1.51866e-07 -1.5693e-08 0)
(1.50219e-07 -1.65471e-08 1.94183e-26)
(1.48736e-07 -1.73612e-08 -1.2143e-30)
(1.47279e-07 -1.81818e-08 -2.12785e-26)
(1.4587e-07 -1.89386e-08 -1.32749e-30)
(1.44584e-07 -1.96871e-08 2.30349e-26)
(1.43287e-07 -2.04247e-08 7.16696e-31)
(1.42086e-07 -2.11155e-08 0)
(1.40925e-07 -2.1828e-08 2.55093e-26)
(1.39757e-07 -2.24905e-08 0)
(1.38708e-07 -2.31407e-08 2.70702e-26)
(1.37633e-07 -2.37989e-08 5.57609e-26)
(1.36632e-07 -2.44092e-08 0)
(1.3567e-07 -2.5049e-08 -9.03828e-31)
(1.34697e-07 -2.56483e-08 9.10857e-31)
(1.33831e-07 -2.62481e-08 9.45805e-31)
(1.32927e-07 -2.68549e-08 -6.30076e-26)
(1.32124e-07 -2.74275e-08 1.28692e-25)
(1.31326e-07 -2.80362e-08 0)
(1.30586e-07 -2.86064e-08 0)
(1.29913e-07 -2.92148e-08 -6.78129e-26)
(1.29264e-07 -2.98046e-08 7.009e-26)
(1.28748e-07 -3.04184e-08 -7.02342e-26)
(1.28256e-07 -3.105e-08 -1.10606e-30)
(1.27963e-07 -3.17047e-08 5.51013e-31)
(1.27711e-07 -3.24002e-08 -7.48507e-26)
(1.27797e-07 -3.31521e-08 -2.08934e-30)
(1.27902e-07 -3.39481e-08 -8.33828e-33)
(1.28692e-07 -3.49066e-08 5.85322e-31)
(1.29316e-07 -3.58566e-08 7.96346e-26)
(1.31523e-07 -3.72666e-08 0)
(1.32819e-07 -3.84401e-08 6.21735e-31)
(1.38104e-07 -4.0847e-08 -9.27454e-31)
(1.40126e-07 -4.23094e-08 3.07971e-31)
(1.52437e-07 -4.69961e-08 2.47007e-30)
(1.54929e-07 -4.87956e-08 7.749e-26)
(1.84656e-07 -5.93449e-08 -8.63772e-26)
(1.87243e-07 -6.14676e-08 1.33175e-25)
(2.70086e-07 -9.04616e-08 2.70872e-31)
(2.75945e-07 -9.44936e-08 -3.22917e-26)
(6.37614e-07 -2.22509e-07 1.25433e-29)
(6.93078e-07 -6.94175e-07 5.54108e-25)
(1.12406e-07 3.88099e-06 0)
(5.12448e-08 2.73345e-06 0)
(1.45421e-07 3.51819e-06 -3.59735e-29)
(4.24974e-07 3.84841e-06 -5.57852e-26)
(1.35922e-06 4.47293e-06 -2.41873e-26)
(1.71739e-06 3.24567e-06 0)
(1.6155e-06 2.84019e-06 -3.90678e-30)
(1.81978e-06 2.69402e-06 -7.247e-26)
(1.78052e-06 2.28359e-06 -4.76915e-26)
(1.81841e-06 2.06509e-06 -1.85429e-29)
(1.74779e-06 1.78101e-06 1.82234e-29)
(1.71994e-06 1.59447e-06 -8.21505e-26)
(1.64574e-06 1.39711e-06 -1.53475e-25)
(1.59353e-06 1.24967e-06 8.21832e-26)
(1.5278e-06 1.11336e-06 -1.86267e-29)
(1.46914e-06 9.97479e-07 0)
(1.41092e-06 8.98072e-07 1.46402e-25)
(1.35563e-06 8.09162e-07 -1.37005e-25)
(1.30267e-06 7.31549e-07 1.3756e-25)
(1.25526e-06 6.65505e-07 1.26959e-25)
(1.2076e-06 6.03469e-07 -1.19512e-25)
(1.1643e-06 5.50201e-07 -1.39532e-29)
(1.12432e-06 5.02607e-07 5.57465e-29)
(1.08507e-06 4.58165e-07 -1.25461e-29)
(1.04919e-06 4.19605e-07 -9.51449e-26)
(1.01581e-06 3.84072e-07 -1.73321e-25)
(9.83095e-07 3.50988e-07 -1.03321e-29)
(9.53501e-07 3.22033e-07 0)
(9.2495e-07 2.94451e-07 8.16501e-30)
(8.97692e-07 2.69236e-07 6.56381e-26)
(8.72958e-07 2.46691e-07 -3.3077e-30)
(8.48576e-07 2.24819e-07 5.3465e-26)
(8.25466e-07 2.04952e-07 9.91976e-26)
(8.04144e-07 1.86655e-07 0)
(7.83025e-07 1.69026e-07 0)
(7.63308e-07 1.53067e-07 3.5558e-26)
(7.44664e-07 1.37873e-07 -3.88059e-31)
(7.26327e-07 1.23412e-07 -2.75197e-26)
(7.09251e-07 1.10175e-07 2.68808e-30)
(6.9258e-07 9.73188e-08 -2.59846e-30)
(6.76538e-07 8.53277e-08 0)
(6.61379e-07 7.40264e-08 -6.62085e-27)
(6.46441e-07 6.31147e-08 3.32712e-31)
(6.3224e-07 5.29517e-08 1.06081e-30)
(6.18399e-07 4.31404e-08 0)
(6.05046e-07 3.38502e-08 9.96334e-28)
(5.92145e-07 2.50206e-08 -1.15149e-28)
(5.79575e-07 1.65105e-08 9.87013e-32)
(5.67361e-07 8.45186e-09 6.20934e-28)
(5.55469e-07 6.95372e-10 0)
(5.4384e-07 -6.72533e-09 -2.22603e-31)
(5.32474e-07 -1.38086e-08 -2.69601e-27)
(5.22652e-07 -2.03882e-08 -7.64358e-27)
(5.12566e-07 -2.52672e-08 -4.30562e-27)
(5.04809e-07 -2.92251e-08 -9.58849e-27)
(4.97088e-07 -3.34782e-08 2.09669e-26)
(4.89145e-07 -3.68203e-08 -1.13739e-26)
(4.82969e-07 -3.96209e-08 0)
(4.77148e-07 -4.26127e-08 -1.3085e-26)
(4.71595e-07 -4.53886e-08 1.39075e-26)
(4.66515e-07 -4.81669e-08 -1.84477e-30)
(4.6145e-07 -5.07912e-08 -3.09553e-26)
(4.56887e-07 -5.32928e-08 -1.93618e-30)
(4.52406e-07 -5.58138e-08 0)
(4.48071e-07 -5.81391e-08 -3.54024e-26)
(4.44114e-07 -6.04384e-08 -3.67296e-26)
(4.40126e-07 -6.27044e-08 0)
(4.36431e-07 -6.48265e-08 3.94864e-26)
(4.3286e-07 -6.70149e-08 4.06746e-26)
(4.2927e-07 -6.90502e-08 0)
(4.26043e-07 -7.10474e-08 4.31651e-26)
(4.22737e-07 -7.30691e-08 -2.63476e-30)
(4.19659e-07 -7.49439e-08 4.57506e-26)
(4.16702e-07 -7.69087e-08 -1.40653e-30)
(4.13711e-07 -7.87497e-08 0)
(4.11049e-07 -8.0592e-08 -9.77675e-26)
(4.0827e-07 -8.2456e-08 1.00467e-25)
(4.05801e-07 -8.42149e-08 -2.05206e-25)
(4.03349e-07 -8.60848e-08 0)
(4.01076e-07 -8.78364e-08 1.07378e-25)
(3.99008e-07 -8.97055e-08 6.53166e-31)
(3.97016e-07 -9.15178e-08 -2.37945e-30)
(3.95429e-07 -9.3404e-08 1.11997e-25)
(3.93921e-07 -9.53454e-08 -1.15577e-25)
(3.93023e-07 -9.7358e-08 1.16128e-25)
(3.92252e-07 -9.94965e-08 -9.17905e-31)
(3.92517e-07 -1.01809e-07 -2.39896e-25)
(3.92847e-07 -1.04258e-07 -1.23145e-25)
(3.95275e-07 -1.07206e-07 0)
(3.972e-07 -1.10133e-07 -9.77389e-31)
(4.03978e-07 -1.1447e-07 1.91546e-30)
(4.07981e-07 -1.18093e-07 1.28301e-25)
(4.24201e-07 -1.25491e-07 9.85939e-31)
(4.30459e-07 -1.30025e-07 -9.82116e-31)
(4.68213e-07 -1.44421e-07 1.35169e-25)
(4.75973e-07 -1.50046e-07 -1.2352e-25)
(5.67083e-07 -1.82433e-07 1.17672e-29)
(5.75246e-07 -1.89226e-07 -1.06163e-25)
(8.28983e-07 -2.78205e-07 -2.42217e-31)
(8.47014e-07 -2.91779e-07 5.1493e-26)
(1.94906e-06 -6.82448e-07 -8.34327e-30)
(1.79906e-06 -2.18594e-06 -1.34059e-24)
(1.86716e-07 6.66278e-06 -3.85823e-28)
(8.57646e-08 4.72912e-06 -1.88754e-26)
(2.59383e-07 6.06208e-06 -7.73344e-27)
(7.40544e-07 6.62483e-06 2.99246e-26)
(2.33155e-06 7.68312e-06 -2.63338e-26)
(2.94997e-06 5.60169e-06 6.12943e-30)
(2.78352e-06 4.90276e-06 -3.92154e-30)
(3.13297e-06 4.64534e-06 1.55543e-25)
(3.06807e-06 3.94258e-06 1.02296e-25)
(3.13337e-06 3.56416e-06 1.60897e-29)
(3.01341e-06 3.07579e-06 0)
(2.96551e-06 2.75315e-06 2.14539e-29)
(2.83847e-06 2.41309e-06 3.29934e-25)
(2.74854e-06 2.15822e-06 0)
(2.63553e-06 1.92299e-06 -2.01282e-29)
(2.53447e-06 1.72278e-06 1.99786e-29)
(2.43415e-06 1.55108e-06 -1.57504e-25)
(2.33883e-06 1.39748e-06 1.47398e-25)
(2.24749e-06 1.2634e-06 0)
(2.16569e-06 1.14927e-06 -1.36625e-25)
(2.08346e-06 1.04212e-06 1.28613e-25)
(2.00872e-06 9.50068e-07 1.24826e-25)
(1.93969e-06 8.67838e-07 2.28516e-25)
(1.87196e-06 7.91072e-07 2.64934e-29)
(1.81e-06 7.24446e-07 -2.50172e-29)
(1.75236e-06 6.63064e-07 9.32684e-26)
(1.69587e-06 6.05924e-07 0)
(1.64475e-06 5.55901e-07 9.74955e-30)
(1.59544e-06 5.08267e-07 -9.27049e-30)
(1.54836e-06 4.6472e-07 -8.37535e-30)
(1.50563e-06 4.25781e-07 2.3472e-30)
(1.46352e-06 3.88019e-07 -1.15066e-25)
(1.42361e-06 3.53714e-07 -5.33681e-26)
(1.38677e-06 3.22122e-07 -6.00182e-30)
(1.35029e-06 2.91691e-07 4.99381e-30)
(1.31624e-06 2.64139e-07 -4.8951e-30)
(1.28403e-06 2.37914e-07 0)
(1.25235e-06 2.12958e-07 3.4082e-30)
(1.22286e-06 1.90113e-07 -6.18532e-30)
(1.19406e-06 1.6793e-07 2.13348e-26)
(1.16635e-06 1.4724e-07 2.00334e-30)
(1.14017e-06 1.27742e-07 7.12183e-27)
(1.11437e-06 1.08919e-07 0)
(1.08984e-06 9.13881e-08 0)
(1.06594e-06 7.4466e-08 -2.46427e-27)
(1.04288e-06 5.84442e-08 4.2863e-31)
(1.0206e-06 4.3218e-08 -2.15851e-31)
(9.98895e-07 2.85445e-08 2.1223e-31)
(9.77805e-07 1.46504e-08 -6.69062e-28)
(9.57272e-07 1.27865e-09 7.78365e-31)
(9.37196e-07 -1.1513e-08 -1.20878e-27)
(9.17575e-07 -2.37221e-08 2.90309e-27)
(9.00617e-07 -3.50587e-08 4.11151e-27)
(8.83224e-07 -4.34705e-08 -4.63061e-27)
(8.69827e-07 -5.02957e-08 -1.03186e-26)
(8.56501e-07 -5.76231e-08 -1.12829e-26)
(8.428e-07 -6.33861e-08 0)
(8.32133e-07 -6.82155e-08 -1.32163e-26)
(8.22082e-07 -7.33702e-08 1.40844e-26)
(8.12495e-07 -7.81534e-08 -1.49714e-26)
(8.03726e-07 -8.29397e-08 1.58436e-26)
(7.94984e-07 -8.7461e-08 3.33216e-26)
(7.87106e-07 -9.17708e-08 -4.26564e-30)
(7.79372e-07 -9.61129e-08 -3.6515e-26)
(7.71892e-07 -1.00119e-07 7.6204e-26)
(7.65061e-07 -1.04079e-07 3.95301e-26)
(7.58181e-07 -1.07982e-07 0)
(7.51804e-07 -1.11637e-07 -4.24973e-26)
(7.45643e-07 -1.15406e-07 -8.75507e-26)
(7.39451e-07 -1.18912e-07 0)
(7.33882e-07 -1.22351e-07 -4.64566e-26)
(7.28181e-07 -1.25833e-07 -4.78484e-26)
(7.22871e-07 -1.29062e-07 1.72059e-30)
(7.17771e-07 -1.32446e-07 -1.55106e-30)
(7.12614e-07 -1.35617e-07 3.16304e-30)
(7.08022e-07 -1.3879e-07 1.05222e-25)
(7.03233e-07 -1.42e-07 -1.08131e-25)
(6.98975e-07 -1.4503e-07 1.10429e-25)
(6.94749e-07 -1.48251e-07 1.12353e-25)
(6.90834e-07 -1.51269e-07 -1.15567e-25)
(6.8727e-07 -1.54489e-07 1.16375e-25)
(6.83841e-07 -1.57612e-07 -1.20281e-25)
(6.81108e-07 -1.60862e-07 -1.82314e-30)
(6.78515e-07 -1.64209e-07 1.24391e-25)
(6.76973e-07 -1.67679e-07 -1.24982e-25)
(6.75654e-07 -1.71368e-07 -1.94566e-30)
(6.7612e-07 -1.75356e-07 1.29097e-25)
(6.76705e-07 -1.79585e-07 1.32534e-25)
(6.80902e-07 -1.84672e-07 1.00449e-30)
(6.84246e-07 -1.89733e-07 0)
(6.95942e-07 -1.97215e-07 1.3576e-25)
(7.02887e-07 -2.03496e-07 -1.10448e-29)
(7.30843e-07 -2.16253e-07 0)
(7.41719e-07 -2.2415e-07 0)
(8.06744e-07 -2.48952e-07 0)
(8.20299e-07 -2.58846e-07 1.32941e-25)
(9.77119e-07 -3.14603e-07 1.48232e-25)
(9.91525e-07 -3.26864e-07 0)
(1.42797e-06 -4.79966e-07 0)
(1.45902e-06 -5.05688e-07 -5.46197e-26)
(3.34809e-06 -1.17444e-06 -1.87943e-25)
(3.00385e-06 -3.706e-06 -1.39464e-24)
(2.61007e-07 9.62491e-06 4.30108e-28)
(1.20601e-07 6.88483e-06 2.02824e-26)
(3.89632e-07 8.78925e-06 -3.64046e-29)
(1.08654e-06 9.59633e-06 2.50286e-29)
(3.36497e-06 1.11046e-05 0)
(4.26293e-06 8.13579e-06 8.4008e-26)
(4.03524e-06 7.12167e-06 1.50352e-26)
(4.53819e-06 6.74025e-06 -8.34445e-26)
(4.44815e-06 5.72788e-06 -5.48704e-26)
(4.54282e-06 5.17628e-06 0)
(4.37142e-06 4.46983e-06 0)
(4.30207e-06 4.0002e-06 0)
(4.11906e-06 3.50712e-06 -1.77336e-25)
(3.98871e-06 3.13636e-06 0)
(3.82521e-06 2.79474e-06 -2.16315e-29)
(3.67867e-06 2.50364e-06 2.14708e-29)
(3.5332e-06 2.25406e-06 1.69147e-25)
(3.39487e-06 2.03074e-06 1.93476e-29)
(3.26232e-06 1.83581e-06 -1.58977e-25)
(3.14349e-06 1.66985e-06 0)
(3.02411e-06 1.51409e-06 -1.38276e-25)
(2.91552e-06 1.38024e-06 -1.3428e-25)
(2.81521e-06 1.26068e-06 -1.22931e-25)
(2.71681e-06 1.1491e-06 -1.16917e-25)
(2.62675e-06 1.05223e-06 1.31841e-29)
(2.54296e-06 9.63004e-07 -5.20687e-31)
(2.46087e-06 8.79962e-07 9.57709e-26)
(2.38655e-06 8.07246e-07 0)
(2.31486e-06 7.38028e-07 -7.96502e-26)
(2.24643e-06 6.74749e-07 -9.54702e-30)
(2.18429e-06 6.18165e-07 -1.36549e-25)
(2.12307e-06 5.63311e-07 1.2383e-25)
(2.06504e-06 5.13473e-07 -7.26839e-30)
(2.01147e-06 4.67583e-07 5.09118e-26)
(1.95845e-06 4.23392e-07 -1.12261e-29)
(1.90893e-06 3.83377e-07 5.26773e-30)
(1.86209e-06 3.45299e-07 0)
(1.81605e-06 3.09068e-07 3.66786e-30)
(1.77316e-06 2.75903e-07 -3.54319e-30)
(1.7313e-06 2.43707e-07 -1.36296e-30)
(1.69102e-06 2.13679e-07 2.56576e-30)
(1.65295e-06 1.85385e-07 0)
(1.61545e-06 1.58076e-07 0)
(1.5798e-06 1.32642e-07 8.56324e-31)
(1.54505e-06 1.08096e-07 2.65075e-27)
(1.51154e-06 8.48591e-08 0)
(1.47916e-06 6.27784e-08 0)
(1.44762e-06 4.15026e-08 5.56772e-31)
(1.41698e-06 2.13587e-08 3.1771e-31)
(1.38715e-06 1.975e-09 -8.37473e-31)
(1.35798e-06 -1.65655e-08 1.30047e-27)
(1.32948e-06 -3.42598e-08 -3.12184e-27)
(1.30484e-06 -5.06822e-08 4.42368e-27)
(1.27961e-06 -6.28756e-08 4.98715e-27)
(1.26014e-06 -7.27714e-08 2.22066e-26)
(1.24079e-06 -8.33842e-08 -1.21442e-26)
(1.22091e-06 -9.17388e-08 3.086e-30)
(1.2054e-06 -9.87401e-08 1.42238e-26)
(1.1908e-06 -1.06206e-07 1.90947e-30)
(1.17688e-06 -1.13135e-07 1.15688e-31)
(1.16414e-06 -1.20066e-07 -1.70514e-26)
(1.15145e-06 -1.26615e-07 0)
(1.14e-06 -1.32856e-07 3.76231e-26)
(1.12878e-06 -1.39143e-07 1.81261e-30)
(1.11792e-06 -1.44944e-07 -1.79242e-30)
(1.108e-06 -1.50677e-07 0)
(1.09801e-06 -1.56328e-07 -2.74246e-30)
(1.08875e-06 -1.6162e-07 5.58075e-30)
(1.07981e-06 -1.67076e-07 -1.29419e-30)
(1.07083e-06 -1.72152e-07 0)
(1.06275e-06 -1.77131e-07 0)
(1.05447e-06 -1.82171e-07 -5.14942e-26)
(1.04677e-06 -1.86846e-07 -1.05974e-25)
(1.03937e-06 -1.91744e-07 0)
(1.03189e-06 -1.96335e-07 5.57849e-26)
(1.02523e-06 -2.00929e-07 -6.91034e-30)
(1.01829e-06 -2.05577e-07 1.16372e-25)
(1.01212e-06 -2.09964e-07 -1.18841e-25)
(1.006e-06 -2.14628e-07 -1.20921e-25)
(1.00032e-06 -2.18998e-07 1.24373e-25)
(9.95164e-07 -2.23663e-07 1.25245e-25)
(9.90201e-07 -2.28187e-07 1.95763e-30)
(9.86249e-07 -2.32898e-07 0)
(9.82504e-07 -2.37749e-07 0)
(9.80284e-07 -2.4278e-07 0)
(9.78393e-07 -2.48131e-07 0)
(9.79093e-07 -2.53917e-07 2.13333e-30)
(9.79975e-07 -2.6006e-07 -2.16309e-30)
(9.86094e-07 -2.67445e-07 1.42838e-25)
(9.90997e-07 -2.74808e-07 0)
(1.008e-06 -2.8567e-07 -1.46114e-25)
(1.01816e-06 -2.94837e-07 -1.4861e-25)
(1.05873e-06 -3.13346e-07 1.14185e-30)
(1.07466e-06 -3.24933e-07 1.15116e-30)
(1.16893e-06 -3.6089e-07 -1.16598e-30)
(1.1889e-06 -3.7556e-07 5.7974e-31)
(1.41605e-06 -4.56327e-07 -1.59506e-25)
(1.43751e-06 -4.74992e-07 1.09891e-30)
(2.06918e-06 -6.96628e-07 -7.78981e-31)
(2.11424e-06 -7.37604e-07 5.8786e-26)
(4.83874e-06 -1.70079e-06 1.39836e-31)
(4.28535e-06 -5.33229e-06 1.99954e-24)
(3.34957e-07 1.27766e-05 5.50716e-30)
(1.55731e-07 9.21295e-06 1.09208e-26)
(5.38103e-07 1.17115e-05 8.77355e-27)
(1.46572e-06 1.27748e-05 -3.4116e-26)
(4.46231e-06 1.47482e-05 -3.69005e-30)
(5.66035e-06 1.08602e-05 -9.03348e-26)
(5.37588e-06 9.50797e-06 -1.61986e-26)
(6.04095e-06 8.98838e-06 8.65882e-30)
(5.92658e-06 7.64842e-06 -1.9732e-29)
(6.0527e-06 6.90938e-06 4.13108e-29)
(5.82783e-06 5.97027e-06 -2.24683e-29)
(5.73552e-06 5.34189e-06 1.01355e-25)
(5.49328e-06 4.68478e-06 -4.76461e-29)
(5.3196e-06 4.18901e-06 -1.01662e-25)
(5.10219e-06 3.733e-06 0)
(4.90688e-06 3.34395e-06 -4.60849e-29)
(4.71296e-06 3.01048e-06 -1.81964e-25)
(4.52844e-06 2.71204e-06 4.10847e-29)
(4.35159e-06 2.45156e-06 1.71047e-25)
(4.19291e-06 2.22972e-06 1.57847e-25)
(4.03356e-06 2.0216e-06 1.48746e-25)
(3.88853e-06 1.84269e-06 0)
(3.75451e-06 1.68293e-06 0)
(3.62308e-06 1.53385e-06 2.51597e-25)
(3.50275e-06 1.40439e-06 -1.18443e-25)
(3.39075e-06 1.28519e-06 0)
(3.28108e-06 1.17427e-06 -2.06112e-25)
(3.18173e-06 1.07711e-06 -9.46419e-26)
(3.08591e-06 9.84673e-07 1.71405e-25)
(2.99446e-06 9.00166e-07 8.17677e-26)
(2.91138e-06 8.24598e-07 7.34792e-26)
(2.82956e-06 7.51371e-07 -6.66328e-26)
(2.75199e-06 6.84835e-07 0)
(2.68036e-06 6.23579e-07 -1.55011e-29)
(2.6095e-06 5.64608e-07 4.9517e-26)
(2.5433e-06 5.11206e-07 6.17191e-30)
(2.48069e-06 4.60404e-07 -3.85176e-26)
(2.41915e-06 4.12075e-07 -3.42979e-26)
(2.36182e-06 3.67836e-07 -3.35074e-30)
(2.30587e-06 3.24903e-07 -2.47008e-26)
(2.25204e-06 2.84864e-07 -2.76138e-30)
(2.20116e-06 2.47144e-07 8.25324e-27)
(2.15105e-06 2.10744e-07 6.41266e-27)
(2.10341e-06 1.76848e-07 0)
(2.05699e-06 1.44141e-07 2.85529e-27)
(2.01222e-06 1.13183e-07 -1.24608e-27)
(1.96896e-06 8.37699e-08 -2.49483e-31)
(1.92683e-06 5.54347e-08 8.44232e-31)
(1.8859e-06 2.86105e-08 7.72635e-28)
(1.84606e-06 2.80315e-09 0)
(1.80712e-06 -2.18775e-08 -2.79891e-27)
(1.76907e-06 -4.54287e-08 6.71908e-27)
(1.73618e-06 -6.72758e-08 -4.76331e-27)
(1.70254e-06 -8.3508e-08 2.76777e-30)
(1.67653e-06 -9.6684e-08 -1.19518e-26)
(1.65071e-06 -1.10799e-07 1.30665e-26)
(1.62419e-06 -1.21921e-07 0)
(1.60349e-06 -1.31242e-07 0)
(1.58399e-06 -1.41172e-07 0)
(1.56541e-06 -1.50387e-07 -4.35358e-30)
(1.5484e-06 -1.59604e-07 8.95657e-30)
(1.53146e-06 -1.68312e-07 -4.59105e-30)
(1.51619e-06 -1.7661e-07 -4.04938e-26)
(1.50121e-06 -1.84968e-07 8.45863e-26)
(1.48672e-06 -1.92681e-07 -2.09697e-30)
(1.47349e-06 -2.00303e-07 0)
(1.46017e-06 -2.07814e-07 0)
(1.44782e-06 -2.14849e-07 0)
(1.4359e-06 -2.22099e-07 5.07028e-26)
(1.42392e-06 -2.28847e-07 0)
(1.41314e-06 -2.35465e-07 0)
(1.40212e-06 -2.42164e-07 1.10836e-25)
(1.39185e-06 -2.48378e-07 5.70249e-26)
(1.38199e-06 -2.54887e-07 0)
(1.37203e-06 -2.6099e-07 -1.20068e-25)
(1.36316e-06 -2.67096e-07 -3.76e-30)
(1.35392e-06 -2.73275e-07 -3.103e-30)
(1.3457e-06 -2.79108e-07 2.55812e-25)
(1.33755e-06 -2.85309e-07 1.30134e-25)
(1.33001e-06 -2.91121e-07 -1.33861e-25)
(1.32314e-06 -2.97324e-07 -1.34794e-25)
(1.31655e-06 -3.03344e-07 -1.39323e-25)
(1.31131e-06 -3.09613e-07 2.11172e-30)
(1.30635e-06 -3.16071e-07 0)
(1.30342e-06 -3.22771e-07 0)
(1.30094e-06 -3.29902e-07 0)
(1.30192e-06 -3.37615e-07 0)
(1.30316e-06 -3.45812e-07 0)
(1.31137e-06 -3.55664e-07 -1.53732e-25)
(1.318e-06 -3.65512e-07 0)
(1.34073e-06 -3.80005e-07 2.39742e-30)
(1.35442e-06 -3.92307e-07 -1.20653e-30)
(1.40856e-06 -4.16992e-07 -1.22886e-30)
(1.43007e-06 -4.32632e-07 0)
(1.55568e-06 -4.80545e-07 -1.68471e-25)
(1.5828e-06 -5.00562e-07 2.47532e-30)
(1.88521e-06 -6.08092e-07 1.71669e-25)
(1.9147e-06 -6.34242e-07 -6.01349e-31)
(2.75484e-06 -9.29095e-07 1.83851e-25)
(2.81509e-06 -9.88932e-07 0)
(6.42519e-06 -2.26338e-06 0)
(5.64741e-06 -7.07041e-06 -1.07013e-24)
(4.07955e-07 1.61273e-05 0)
(1.91097e-07 1.17267e-05 -1.17314e-26)
(7.07097e-07 1.48413e-05 -7.43201e-29)
(1.88126e-06 1.61724e-05 3.66482e-26)
(5.62639e-06 1.86251e-05 3.3628e-26)
(7.14626e-06 1.3788e-05 0)
(6.81082e-06 1.20735e-05 1.00234e-29)
(7.64696e-06 1.14e-05 -9.20453e-30)
(7.50946e-06 9.71386e-06 -2.11167e-29)
(7.66926e-06 8.77193e-06 6.87452e-29)
(7.38893e-06 7.58478e-06 -4.81598e-29)
(7.27206e-06 6.78499e-06 -2.17766e-25)
(6.96721e-06 5.95211e-06 2.0401e-25)
(6.7471e-06 5.32149e-06 1.09366e-25)
(6.47214e-06 4.74251e-06 -2.02771e-25)
(6.22452e-06 4.24791e-06 0)
(5.97864e-06 3.82408e-06 0)
(5.74448e-06 3.4447e-06 1.83004e-25)
(5.52003e-06 3.1136e-06 0)
(5.31844e-06 2.83153e-06 -1.69875e-25)
(5.1161e-06 2.56704e-06 -3.84295e-29)
(4.93181e-06 2.33957e-06 3.85284e-29)
(4.76145e-06 2.13648e-06 0)
(4.59445e-06 1.94704e-06 -2.70559e-25)
(4.44147e-06 1.78248e-06 1.27381e-25)
(4.29904e-06 1.63099e-06 2.77231e-29)
(4.15964e-06 1.49007e-06 2.21707e-25)
(4.03328e-06 1.36662e-06 1.01863e-25)
(3.91144e-06 1.2492e-06 -9.22471e-26)
(3.79515e-06 1.14187e-06 -8.79648e-26)
(3.68946e-06 1.04588e-06 1.87257e-29)
(3.58541e-06 9.52917e-07 7.16539e-26)
(3.48677e-06 8.68441e-07 0)
(3.39566e-06 7.90681e-07 -5.89608e-26)
(3.30554e-06 7.15848e-07 -5.32712e-26)
(3.22135e-06 6.48077e-07 0)
(3.14171e-06 5.83626e-07 8.29203e-26)
(3.06347e-06 5.22327e-07 3.68997e-26)
(2.99055e-06 4.66219e-07 0)
(2.91941e-06 4.11785e-07 -6.00424e-30)
(2.85097e-06 3.61026e-07 5.94382e-30)
(2.78627e-06 3.13216e-07 -8.88188e-27)
(2.72257e-06 2.67092e-07 -6.90114e-27)
(2.66201e-06 2.24144e-07 0)
(2.60301e-06 1.82715e-07 -3.07336e-27)
(2.54611e-06 1.43507e-07 -1.346e-30)
(2.49114e-06 1.06264e-07 0)
(2.43761e-06 7.03938e-08 0)
(2.38562e-06 3.64418e-08 -8.33135e-28)
(2.33501e-06 3.78403e-09 9.69415e-31)
(2.28555e-06 -2.74419e-08 3.01163e-27)
(2.23724e-06 -5.72337e-08 -3.61532e-27)
(2.19547e-06 -8.48545e-08 0)
(2.15282e-06 -1.05391e-07 5.77475e-27)
(2.11978e-06 -1.22063e-07 -1.28566e-26)
(2.08701e-06 -1.39903e-07 -6.8687e-30)
(2.05338e-06 -1.53974e-07 3.57376e-30)
(2.02707e-06 -1.65765e-07 -4.15922e-30)
(2.00232e-06 -1.78314e-07 4.14727e-30)
(1.97873e-06 -1.89961e-07 -1.86553e-26)
(1.95713e-06 -2.01607e-07 1.9744e-26)
(1.93564e-06 -2.12609e-07 0)
(1.91626e-06 -2.23093e-07 4.35729e-26)
(1.89725e-06 -2.33649e-07 -4.55147e-26)
(1.87887e-06 -2.43393e-07 -4.74851e-26)
(1.86208e-06 -2.5302e-07 -5.89976e-30)
(1.84519e-06 -2.62507e-07 -5.11417e-26)
(1.82953e-06 -2.71392e-07 0)
(1.81441e-06 -2.80547e-07 0)
(1.79923e-06 -2.89069e-07 -5.64872e-26)
(1.78556e-06 -2.97427e-07 3.48368e-30)
(1.7716e-06 -3.05886e-07 -5.96405e-26)
(1.75859e-06 -3.13734e-07 0)
(1.7461e-06 -3.21953e-07 3.86693e-30)
(1.73348e-06 -3.29662e-07 6.46069e-26)
(1.72224e-06 -3.37372e-07 -4.0466e-30)
(1.71055e-06 -3.45177e-07 -1.34785e-25)
(1.70015e-06 -3.52545e-07 -1.3766e-25)
(1.68984e-06 -3.60379e-07 6.98965e-31)
(1.6803e-06 -3.67724e-07 -4.43699e-30)
(1.67164e-06 -3.75564e-07 1.45074e-25)
(1.66332e-06 -3.83175e-07 1.49941e-25)
(1.65671e-06 -3.91103e-07 -7.86766e-32)
(1.65047e-06 -3.99275e-07 -1.55055e-25)
(1.64681e-06 -4.07757e-07 -2.39522e-30)
(1.64374e-06 -4.16791e-07 4.88836e-30)
(1.64505e-06 -4.26565e-07 -2.43586e-30)
(1.64672e-06 -4.36967e-07 0)
(1.65723e-06 -4.49465e-07 -1.65443e-25)
(1.66577e-06 -4.61992e-07 -1.70343e-25)
(1.6947e-06 -4.80386e-07 -1.69227e-25)
(1.7123e-06 -4.96096e-07 1.72099e-25)
(1.78103e-06 -5.27412e-07 0)
(1.80871e-06 -5.47508e-07 1.33315e-30)
(1.96795e-06 -6.08235e-07 3.6262e-25)
(2.00306e-06 -6.34252e-07 0)
(2.38599e-06 -7.70408e-07 -1.8472e-25)
(2.42466e-06 -8.05304e-07 -1.41793e-25)
(3.48728e-06 -1.17833e-06 -4.33611e-29)
(3.56406e-06 -1.26125e-06 0)
(8.11166e-06 -2.86418e-06 -1.5904e-31)
(7.09549e-06 -8.9216e-06 -5.66779e-25)
(4.79295e-07 1.96866e-05 0)
(2.2666e-07 1.44403e-05 0)
(8.99224e-07 1.81918e-05 -1.00512e-26)
(2.33664e-06 1.98022e-05 5.19078e-29)
(6.86e-06 2.27467e-05 -7.26287e-26)
(8.72463e-06 1.6933e-05 -6.03779e-30)
(8.34568e-06 1.48309e-05 -1.13248e-30)
(9.36216e-06 1.39861e-05 9.77406e-30)
(9.20317e-06 1.19345e-05 6.64606e-26)
(9.39901e-06 1.07731e-05 0)
(9.06137e-06 9.32161e-06 0)
(8.91828e-06 8.33677e-06 1.16965e-25)
(8.5473e-06 7.31561e-06 -2.19409e-25)
(8.27746e-06 6.53954e-06 -1.17385e-25)
(7.9411e-06 5.82838e-06 2.18195e-25)
(7.63739e-06 5.22005e-06 -2.19714e-25)
(7.33577e-06 4.69891e-06 2.10065e-25)
(7.04826e-06 4.23233e-06 -1.9689e-25)
(6.77266e-06 3.82514e-06 -4.88088e-29)
(6.52486e-06 3.47815e-06 0)
(6.27626e-06 3.15295e-06 4.13253e-29)
(6.04967e-06 2.87315e-06 -8.15978e-29)
(5.84012e-06 2.62339e-06 3.79445e-29)
(5.6348e-06 2.3905e-06 1.45548e-25)
(5.44661e-06 2.18813e-06 3.28219e-29)
(5.27134e-06 2.0019e-06 1.24803e-25)
(5.09988e-06 1.82872e-06 -1.19223e-25)
(4.94437e-06 1.67695e-06 -1.32931e-30)
(4.79443e-06 1.53268e-06 -9.92052e-26)
(4.65136e-06 1.4008e-06 -2.37805e-29)
(4.52125e-06 1.28287e-06 2.01478e-29)
(4.39321e-06 1.16871e-06 -7.71616e-26)
(4.27181e-06 1.06497e-06 7.15678e-26)
(4.15966e-06 9.69494e-07 -6.34402e-26)
(4.04878e-06 8.77647e-07 1.19101e-30)
(3.94515e-06 7.94463e-07 2.50915e-29)
(3.84713e-06 7.15385e-07 -4.46224e-26)
(3.75087e-06 6.40194e-07 -3.97299e-26)
(3.66113e-06 5.71373e-07 3.39385e-26)
(3.5736e-06 5.04631e-07 2.86107e-26)
(3.4894e-06 4.42405e-07 -5.37617e-30)
(3.4098e-06 3.83807e-07 9.81509e-31)
(3.33146e-06 3.27293e-07 7.4336e-27)
(3.25697e-06 2.74678e-07 0)
(3.18441e-06 2.23938e-07 1.1674e-30)
(3.11444e-06 1.7593e-07 -2.70451e-30)
(3.04686e-06 1.30337e-07 -1.61562e-28)
(2.98105e-06 8.64366e-08 -1.00653e-27)
(2.91715e-06 4.48925e-08 1.06925e-30)
(2.85496e-06 4.94196e-09 3.82929e-31)
(2.79419e-06 -3.3248e-08 -1.6218e-27)
(2.73485e-06 -6.96767e-08 0)
(2.68353e-06 -1.0343e-07 0)
(2.63124e-06 -1.28543e-07 -1.24224e-26)
(2.59064e-06 -1.48936e-07 1.68412e-30)
(2.55041e-06 -1.70728e-07 0)
(2.50915e-06 -1.87934e-07 1.64196e-26)
(2.47683e-06 -2.02351e-07 -4.16988e-30)
(2.44642e-06 -2.17679e-07 4.75938e-30)
(2.41745e-06 -2.31904e-07 4.01481e-26)
(2.39094e-06 -2.46124e-07 -4.25016e-26)
(2.36456e-06 -2.59558e-07 5.31693e-30)
(2.34076e-06 -2.72359e-07 -4.68943e-26)
(2.31743e-06 -2.85244e-07 -6.10627e-30)
(2.29488e-06 -2.9714e-07 6.11111e-30)
(2.27428e-06 -3.08889e-07 -6.59203e-30)
(2.25356e-06 -3.20467e-07 5.50538e-26)
(2.23435e-06 -3.31311e-07 -5.70189e-26)
(2.21581e-06 -3.42483e-07 7.05509e-30)
(2.19721e-06 -3.52883e-07 6.07899e-26)
(2.18045e-06 -3.63082e-07 0)
(2.16334e-06 -3.73404e-07 0)
(2.1474e-06 -3.82982e-07 0)
(2.1321e-06 -3.93011e-07 -4.16163e-30)
(2.11666e-06 -4.0242e-07 4.19401e-30)
(2.10289e-06 -4.1183e-07 0)
(2.08859e-06 -4.21357e-07 1.45054e-25)
(2.07586e-06 -4.30352e-07 -1.48139e-25)
(2.06326e-06 -4.39916e-07 -1.50733e-25)
(2.05161e-06 -4.48886e-07 -1.55038e-25)
(2.04103e-06 -4.58463e-07 -9.07232e-30)
(2.03088e-06 -4.67764e-07 -1.61366e-25)
(2.02284e-06 -4.77456e-07 0)
(2.01526e-06 -4.87452e-07 4.9554e-30)
(2.01086e-06 -4.97832e-07 0)
(2.0072e-06 -5.08897e-07 1.72331e-25)
(2.00891e-06 -5.20875e-07 0)
(2.0111e-06 -5.33641e-07 2.73474e-30)
(2.02413e-06 -5.48977e-07 1.78057e-25)
(2.03482e-06 -5.64394e-07 1.8333e-25)
(2.07048e-06 -5.86977e-07 1.82138e-25)
(2.09239e-06 -6.06393e-07 -1.85227e-25)
(2.17685e-06 -6.44825e-07 0)
(2.21136e-06 -6.69829e-07 0)
(2.40668e-06 -7.44289e-07 -3.90242e-25)
(2.45076e-06 -7.77047e-07 -1.78084e-25)
(2.91979e-06 -9.43811e-07 3.9759e-25)
(2.96901e-06 -9.88918e-07 1.71952e-28)
(4.26888e-06 -1.44534e-06 -4.25784e-25)
(4.36374e-06 -1.5563e-06 -3.08917e-31)
(9.90231e-06 -3.50526e-06 2.51618e-25)
(8.63411e-06 -1.08899e-05 2.4475e-24)
(5.48241e-07 2.34644e-05 0)
(2.6243e-07 1.73688e-05 1.35705e-26)
(1.11737e-06 2.17766e-05 -5.77791e-29)
(2.83565e-06 2.36774e-05 6.51616e-29)
(8.16592e-06 2.71247e-05 -2.90564e-28)
(1.03995e-05 2.03098e-05 1.04381e-25)
(9.98626e-06 1.77937e-05 -2.25727e-29)
(1.11927e-05 1.67583e-05 -2.27837e-29)
(1.10144e-05 1.43214e-05 -7.13855e-26)
(1.12488e-05 1.29225e-05 1.10426e-29)
(1.08522e-05 1.11897e-05 1.0857e-25)
(1.06811e-05 1.00051e-05 -1.2504e-25)
(1.02404e-05 8.78228e-06 0)
(9.91729e-06 7.84936e-06 1.2615e-25)
(9.51546e-06 6.99613e-06 2.33948e-25)
(9.15162e-06 6.26525e-06 2.36477e-25)
(8.79023e-06 5.6393e-06 -2.25933e-25)
(8.4454e-06 5.07877e-06 2.11349e-25)
(8.11481e-06 4.58963e-06 0)
(7.81724e-06 4.17266e-06 4.73884e-29)
(7.51887e-06 3.78209e-06 -4.56693e-29)
(7.2467e-06 3.4459e-06 0)
(6.99489e-06 3.14587e-06 0)
(6.74825e-06 2.86622e-06 0)
(6.52208e-06 2.62312e-06 0)
(6.31136e-06 2.3995e-06 -1.34351e-25)
(6.10533e-06 2.19161e-06 0)
(5.91833e-06 2.00938e-06 0)
(5.73805e-06 1.83624e-06 2.13495e-25)
(5.56606e-06 1.67799e-06 -2.5584e-29)
(5.40957e-06 1.53648e-06 2.16772e-29)
(5.25563e-06 1.39957e-06 8.2951e-26)
(5.10968e-06 1.27514e-06 -7.69915e-26)
(4.97478e-06 1.16066e-06 4.32941e-30)
(4.84149e-06 1.05058e-06 6.16953e-26)
(4.71689e-06 9.5087e-07 1.28734e-29)
(4.59901e-06 8.56124e-07 4.79826e-26)
(4.4833e-06 7.66063e-07 4.27549e-26)
(4.37541e-06 6.83639e-07 -3.64957e-26)
(4.27019e-06 6.03738e-07 -3.07981e-26)
(4.16899e-06 5.29256e-07 -6.88457e-30)
(4.07331e-06 4.59136e-07 4.50216e-30)
(3.97917e-06 3.91532e-07 -2.80683e-30)
(3.88967e-06 3.28604e-07 0)
(3.8025e-06 2.67938e-07 0)
(3.71845e-06 2.10553e-07 3.11571e-27)
(3.63729e-06 1.56069e-07 2.69008e-31)
(3.55826e-06 1.03625e-07 1.08322e-27)
(3.48154e-06 5.40064e-08 0)
(3.40689e-06 6.30524e-09 0)
(3.33397e-06 -3.92816e-08 0)
(3.26277e-06 -8.27557e-08 0)
(3.2012e-06 -1.23009e-07 -5.9342e-27)
(3.13858e-06 -1.52982e-07 1.33672e-26)
(3.08985e-06 -1.77324e-07 1.48892e-26)
(3.04161e-06 -2.03302e-07 1.62812e-26)
(2.9922e-06 -2.23833e-07 -1.76664e-26)
(2.9534e-06 -2.41036e-07 1.90731e-26)
(2.91693e-06 -2.59304e-07 -5.12164e-30)
(2.88218e-06 -2.76258e-07 -2.16005e-26)
(2.85038e-06 -2.932e-07 2.28725e-26)
(2.81877e-06 -3.09207e-07 -4.80959e-26)
(2.79022e-06 -3.24456e-07 -6.29913e-30)
(2.76227e-06 -3.39802e-07 -2.76269e-31)
(2.73526e-06 -3.53972e-07 6.57653e-30)
(2.71056e-06 -3.67963e-07 7.09415e-30)
(2.68575e-06 -3.8175e-07 2.55705e-31)
(2.66274e-06 -3.94663e-07 1.22691e-25)
(2.64054e-06 -4.07963e-07 6.31874e-26)
(2.61828e-06 -4.20348e-07 6.54265e-26)
(2.59822e-06 -4.32491e-07 -8.30015e-30)
(2.57775e-06 -4.4478e-07 -2.26185e-31)
(2.55868e-06 -4.56184e-07 8.56407e-30)
(2.54038e-06 -4.68124e-07 0)
(2.52193e-06 -4.79328e-07 -9.23972e-30)
(2.50548e-06 -4.90533e-07 9.16709e-30)
(2.48839e-06 -5.01879e-07 -7.50263e-32)
(2.4732e-06 -5.12593e-07 3.18868e-25)
(2.45817e-06 -5.23987e-07 0)
(2.44427e-06 -5.34677e-07 1.66859e-25)