/*--------------------------------*- C++ -*----------------------------------*\
| =========                 |                                                 |
| \\      /  F ield         | OpenFOAM: The Open Source CFD Toolbox           |
|  \\    /   O peration     | Version:  5.x                                   |
|   \\  /    A nd           | Web:      www.OpenFOAM.org                      |
|    \\/     M anipulation  |                                                 |
\*---------------------------------------------------------------------------*/
FoamFile
{
    version     2.0;
    format      ascii;
    class       volVectorField;
    location    "1000";
    object      U;
}
// * * * * * * * * * * * * * * * * * * * * * * * * * * * * * * * * * * * * * //

dimensions      [0 1 -1 0 0 0 0];

internalField   nonuniform List<vector> 
107912
(
(-1.90806e-05 9.29174e-05 7.00764e-29)
(1.2927e-06 6.55202e-05 -6.69071e-29)
(3.56937e-06 8.91931e-05 -9.19554e-25)
(1.06725e-05 9.78089e-05 -2.27576e-24)
(3.17487e-05 0.000104501 -2.83276e-23)
(3.4717e-05 6.53345e-05 3.94728e-23)
(3.0226e-05 5.30212e-05 2.9913e-23)
(3.35864e-05 4.96789e-05 2.14813e-28)
(2.93716e-05 3.75859e-05 -3.98445e-27)
(2.85272e-05 3.23477e-05 -3.62527e-27)
(2.49131e-05 2.53333e-05 -3.33354e-27)
(2.27265e-05 2.10298e-05 2.71861e-23)
(1.97382e-05 1.67204e-05 4.90585e-23)
(1.73721e-05 1.35948e-05 5.25551e-27)
(1.50011e-05 1.09066e-05 -4.27501e-23)
(1.2833e-05 8.69225e-06 4.04794e-23)
(1.09006e-05 6.92033e-06 4.6894e-27)
(9.09697e-06 5.4145e-06 0)
(7.48344e-06 4.18928e-06 -6.50625e-23)
(6.09388e-06 3.21962e-06 -2.9124e-23)
(4.77585e-06 2.37687e-06 0)
(3.662e-06 1.7222e-06 0)
(2.67722e-06 1.18965e-06 -2.27238e-23)
(1.79765e-06 7.52735e-07 2.12314e-23)
(1.06507e-06 4.21169e-07 1.98421e-23)
(4.29796e-07 1.57762e-07 3.58398e-23)
(-1.07731e-07 -4.16532e-08 -1.70769e-23)
(-5.37999e-07 -1.84997e-07 1.57776e-23)
(-8.98766e-07 -2.8889e-07 -1.43685e-23)
(-1.17551e-06 -3.54877e-07 -1.39322e-23)
(-1.38325e-06 -3.92796e-07 1.27963e-23)
(-1.53791e-06 -4.09077e-07 0)
(-1.63367e-06 -4.06986e-07 -1.14668e-23)
(-1.68785e-06 -3.92999e-07 1.27666e-27)
(-1.7031e-06 -3.69014e-07 -1.24991e-27)
(-1.6841e-06 -3.38014e-07 -3.60996e-28)
(-1.64027e-06 -3.04918e-07 8.98966e-24)
(-1.57297e-06 -2.67491e-07 3.11332e-28)
(-1.48902e-06 -2.31754e-07 -9.98207e-28)
(-1.3913e-06 -1.95886e-07 -7.82799e-24)
(-1.28259e-06 -1.62163e-07 9.37729e-28)
(-1.16781e-06 -1.30992e-07 0)
(-1.04543e-06 -1.02364e-07 0)
(-9.19634e-07 -7.7714e-08 -3.34863e-24)
(-7.90201e-07 -5.49726e-08 0)
(-6.5933e-07 -3.7552e-08 -6.25247e-24)
(-5.30694e-07 -2.21613e-08 -1.49296e-24)
(-4.06272e-07 -1.20228e-08 -1.45465e-24)
(-2.91092e-07 -3.98421e-09 0)
(-1.87594e-07 -2.37161e-10 0)
(-9.7758e-08 1.34992e-09 -6.58191e-25)
(-2.15863e-08 2.81434e-10 -6.21044e-28)
(3.95041e-08 -1.08053e-09 -1.53688e-24)
(9.28565e-08 -4.70352e-09 -1.52298e-24)
(1.45697e-07 -7.86942e-09 -3.03077e-24)
(2.05233e-07 -1.38281e-08 3.01371e-24)
(2.75598e-07 -2.01838e-08 -5.98299e-24)
(3.57548e-07 -2.92495e-08 -3.63249e-28)
(4.558e-07 -4.0139e-08 2.96099e-24)
(5.70207e-07 -5.47024e-08 -2.94539e-24)
(6.99957e-07 -7.16023e-08 0)
(8.4223e-07 -9.25928e-08 -5.84618e-24)
(9.93199e-07 -1.15267e-07 3.5623e-28)
(1.14798e-06 -1.41398e-07 5.80915e-24)
(1.30068e-06 -1.68149e-07 3.54403e-28)
(1.44579e-06 -1.96572e-07 -5.77404e-24)
(1.57778e-06 -2.24192e-07 -1.76222e-28)
(1.69199e-06 -2.51016e-07 0)
(1.78533e-06 -2.75727e-07 -5.74248e-24)
(1.85465e-06 -2.98062e-07 0)
(1.90063e-06 -3.16168e-07 -5.72533e-24)
(1.92254e-06 -3.31846e-07 -1.14743e-23)
(1.92292e-06 -3.42339e-07 0)
(1.90428e-06 -3.50648e-07 1.74382e-28)
(1.86946e-06 -3.54804e-07 -1.75738e-28)
(1.82298e-06 -3.57015e-07 -1.73978e-28)
(1.76773e-06 -3.56029e-07 1.14636e-23)
(1.70856e-06 -3.53746e-07 -2.29283e-23)
(1.64791e-06 -3.50752e-07 0)
(1.58884e-06 -3.47176e-07 0)
(1.5335e-06 -3.43872e-07 1.13926e-23)
(1.48236e-06 -3.41037e-07 -1.15666e-23)
(1.43696e-06 -3.38369e-07 1.14036e-23)
(1.39623e-06 -3.37153e-07 1.76804e-28)
(1.36105e-06 -3.35922e-07 -8.74183e-29)
(1.32956e-06 -3.36553e-07 1.16364e-23)
(1.30328e-06 -3.36766e-07 2.78661e-28)
(1.28064e-06 -3.39008e-07 2.91235e-31)
(1.26555e-06 -3.41856e-07 -8.84071e-29)
(1.25528e-06 -3.47344e-07 -1.18968e-23)
(1.2598e-06 -3.55555e-07 0)
(1.27054e-06 -3.66966e-07 -9.13624e-29)
(1.31196e-06 -3.86478e-07 1.3657e-28)
(1.35658e-06 -4.08563e-07 -4.55375e-29)
(1.46754e-06 -4.5146e-07 -1.40069e-28)
(1.56508e-06 -4.92007e-07 -1.22852e-23)
(1.8197e-06 -5.83955e-07 1.22176e-23)
(2.01294e-06 -6.5905e-07 -2.50216e-23)
(2.64254e-06 -8.841e-07 -4.8281e-29)
(3.02865e-06 -1.03559e-06 1.30718e-23)
(5.52397e-06 -1.92804e-06 -7.31319e-29)
(6.14557e-06 -6.90485e-06 3.07798e-23)
(-3.86608e-05 0.000282342 0)
(3.89552e-06 0.000201015 0)
(1.13125e-05 0.000272305 -6.35259e-27)
(3.27805e-05 0.000298302 7.26271e-24)
(9.64093e-05 0.00031842 2.26029e-23)
(0.000106052 0.000201128 0)
(9.27469e-05 0.000163229 -6.45576e-27)
(0.000102901 0.00015253 -5.36351e-23)
(9.0213e-05 0.000115897 -4.97363e-23)
(8.76159e-05 9.96315e-05 -1.15529e-26)
(7.66373e-05 7.82161e-05 1.13538e-26)
(6.993e-05 6.49228e-05 -4.33295e-23)
(6.07972e-05 5.16957e-05 -7.81829e-23)
(5.35336e-05 4.20514e-05 3.82973e-23)
(4.62595e-05 3.37707e-05 -8.51543e-27)
(3.95989e-05 2.69391e-05 0)
(3.36571e-05 2.14682e-05 5.97039e-23)
(2.81091e-05 1.68176e-05 -5.32132e-23)
(2.31432e-05 1.30307e-05 5.1859e-23)
(1.88629e-05 1.00304e-05 4.64378e-23)
(1.48037e-05 7.42362e-06 -4.24355e-23)
(1.13697e-05 5.39485e-06 -4.8074e-27)
(8.33306e-06 3.74405e-06 2.87672e-27)
(5.62005e-06 2.3886e-06 -4.24127e-27)
(3.35845e-06 1.35781e-06 -3.16365e-23)
(1.39663e-06 5.38575e-07 -5.7134e-23)
(-2.64166e-07 -8.31702e-08 -3.40253e-27)
(-1.59501e-06 -5.31168e-07 0)
(-2.71151e-06 -8.57044e-07 2.74044e-27)
(-3.56918e-06 -1.06556e-06 2.22121e-23)
(-4.21412e-06 -1.18685e-06 2.48545e-27)
(-4.69528e-06 -1.24094e-06 1.89855e-23)
(-4.99491e-06 -1.23792e-06 3.65665e-23)
(-5.16605e-06 -1.19776e-06 0)
(-5.21702e-06 -1.12632e-06 0)
(-5.16226e-06 -1.03315e-06 1.53601e-23)
(-5.03057e-06 -9.32741e-07 -4.25748e-29)
(-4.82655e-06 -8.19045e-07 -1.39038e-23)
(-4.57093e-06 -7.1019e-07 1.59169e-27)
(-4.27259e-06 -6.00636e-07 -1.53862e-27)
(-3.94022e-06 -4.97628e-07 0)
(-3.58892e-06 -4.02263e-07 -5.74241e-24)
(-3.21409e-06 -3.14605e-07 1.88472e-29)
(-2.82847e-06 -2.38987e-07 1.31254e-27)
(-2.43161e-06 -1.69417e-07 0)
(-2.03018e-06 -1.15823e-07 4.98365e-24)
(-1.63545e-06 -6.86474e-08 2.3823e-24)
(-1.25352e-06 -3.73369e-08 -5.68888e-28)
(-8.99871e-07 -1.25852e-08 -1.11745e-24)
(-5.81966e-07 -8.78982e-10 0)
(-3.05986e-07 4.17974e-09 -2.67924e-29)
(-7.18567e-08 1.0517e-09 2.02828e-24)
(1.15916e-07 -3.04375e-09 4.9019e-24)
(2.79788e-07 -1.40551e-08 2.42905e-24)
(4.42129e-07 -2.38587e-08 4.83328e-24)
(6.24968e-07 -4.21264e-08 -9.61167e-24)
(8.40968e-07 -6.18186e-08 4.76952e-24)
(1.09257e-06 -8.9708e-08 0)
(1.39421e-06 -1.23272e-07 4.72047e-24)
(1.74543e-06 -1.68052e-07 -4.69618e-24)
(2.14371e-06 -2.20068e-07 5.70794e-28)
(2.58054e-06 -2.84613e-07 9.32069e-24)
(3.04412e-06 -3.54264e-07 5.68044e-28)
(3.51944e-06 -4.34502e-07 0)
(3.98845e-06 -5.16573e-07 9.24723e-24)
(4.43424e-06 -6.03776e-07 9.20765e-24)
(4.83978e-06 -6.88465e-07 0)
(5.19079e-06 -7.707e-07 -9.19218e-24)
(5.47782e-06 -8.464e-07 -9.15697e-24)
(5.69112e-06 -9.14817e-07 0)
(5.83263e-06 -9.70272e-07 -9.1299e-24)
(5.9003e-06 -1.0183e-06 3.0546e-28)
(5.90187e-06 -1.0503e-06 -9.16136e-24)
(5.84491e-06 -1.07572e-06 2.78172e-28)
(5.73827e-06 -1.08842e-06 0)
(5.5957e-06 -1.09512e-06 1.81854e-23)
(5.42604e-06 -1.09206e-06 -1.82793e-23)
(5.24426e-06 -1.08501e-06 3.65609e-23)
(5.05808e-06 -1.07583e-06 0)
(4.87649e-06 -1.06475e-06 -1.83699e-23)
(4.70616e-06 -1.0547e-06 2.05846e-29)
(4.54879e-06 -1.04589e-06 1.50154e-28)
(4.40902e-06 -1.03775e-06 -1.81844e-23)
(4.28356e-06 -1.03386e-06 1.84708e-23)
(4.17496e-06 -1.03017e-06 -1.82892e-23)
(4.07782e-06 -1.03194e-06 1.41776e-28)
(3.99664e-06 -1.03262e-06 3.68121e-23)
(3.92664e-06 -1.03928e-06 1.8713e-23)
(3.87976e-06 -1.0481e-06 0)
(3.8477e-06 -1.06473e-06 1.45076e-28)
(3.86081e-06 -1.09001e-06 -2.83842e-28)
(3.89323e-06 -1.12486e-06 -1.90425e-23)
(4.01945e-06 -1.18491e-06 -1.45793e-28)
(4.15589e-06 -1.25279e-06 1.45227e-28)
(4.49552e-06 -1.3845e-06 -1.94584e-23)
(4.79478e-06 -1.50943e-06 1.95902e-23)
(5.57456e-06 -1.79173e-06 -9.09068e-29)
(6.1677e-06 -2.02413e-06 1.995e-23)
(8.09624e-06 -2.71526e-06 3.81507e-29)
(9.28128e-06 -3.18798e-06 -2.08446e-23)
(1.6886e-05 -5.90743e-06 -6.97646e-28)
(1.56376e-05 -2.10914e-05 -7.3711e-23)
(-3.12274e-05 0.000482336 3.26113e-24)
(6.65438e-06 0.000346868 -1.76878e-25)
(2.01657e-05 0.00046709 1.57812e-24)
(5.66641e-05 0.000511384 -3.90806e-24)
(0.00016449 0.000545523 2.42266e-23)
(0.000181952 0.000347636 1.49022e-26)
(0.000159774 0.000282017 -7.0137e-27)
(0.000176971 0.000262976 1.15364e-22)
(0.000155548 0.000200509 1.06973e-22)
(0.00015104 0.000172209 1.24612e-26)
(0.000132317 0.000135445 0)
(0.000120761 0.000112412 1.11485e-26)
(0.000105089 8.96069e-05 1.68219e-22)
(9.25704e-05 7.29106e-05 0)
(8.00416e-05 5.85949e-05 -8.74434e-27)
(6.85557e-05 4.67699e-05 8.67933e-27)
(5.8301e-05 3.72956e-05 -6.42312e-23)
(4.87226e-05 2.92403e-05 5.72495e-23)
(4.01457e-05 2.26775e-05 0)
(3.27464e-05 1.74741e-05 -4.99733e-23)
(2.57313e-05 1.29542e-05 4.56672e-23)
(1.97908e-05 9.43185e-06 4.34478e-23)
(1.45365e-05 6.56552e-06 7.79668e-23)
(9.84145e-06 4.21051e-06 8.90486e-27)
(5.92432e-06 2.4172e-06 -8.32168e-27)
(2.52555e-06 9.91356e-07 3.07503e-23)
(-3.53118e-07 -9.25112e-08 0)
(-2.66214e-06 -8.74883e-07 3.23678e-27)
(-4.60017e-06 -1.44531e-06 -3.07774e-27)
(-6.09091e-06 -1.81213e-06 -2.86548e-27)
(-7.21363e-06 -2.0272e-06 5.47675e-27)
(-8.05289e-06 -2.12547e-06 -4.08641e-23)
(-8.57826e-06 -2.12439e-06 -1.96739e-23)
(-8.88093e-06 -2.05839e-06 -2.25869e-27)
(-8.97541e-06 -1.93791e-06 2.08611e-27)
(-8.88696e-06 -1.77941e-06 -2.04488e-27)
(-8.6648e-06 -1.60772e-06 0)
(-8.31735e-06 -1.41312e-06 1.80855e-27)
(-7.88042e-06 -1.22622e-06 -3.46011e-27)
(-7.36918e-06 -1.03788e-06 1.34361e-23)
(-6.79881e-06 -8.60702e-07 1.58296e-27)
(-6.19531e-06 -6.96518e-07 6.17693e-24)
(-5.55104e-06 -5.45432e-07 0)
(-4.88765e-06 -4.15008e-07 0)
(-4.20475e-06 -2.95104e-07 -5.49585e-24)
(-3.51375e-06 -2.02406e-07 1.31709e-27)
(-2.83405e-06 -1.20933e-07 1.24544e-27)
(-2.1762e-06 -6.64857e-08 -1.22454e-27)
(-1.56689e-06 -2.35335e-08 1.2038e-24)
(-1.01899e-06 -2.85584e-09 -1.1413e-27)
(-5.43261e-07 6.33034e-09 1.1301e-24)
(-1.39467e-07 1.35907e-09 -2.18397e-24)
(1.84406e-07 -5.56895e-09 -2.63684e-24)
(4.66933e-07 -2.42365e-08 2.61309e-24)
(7.46797e-07 -4.1098e-08 5.2026e-24)
(1.06189e-06 -7.2471e-08 5.17257e-24)
(1.43401e-06 -1.06538e-07 0)
(1.86744e-06 -1.54613e-07 5.11814e-24)
(2.38698e-06 -2.126e-07 -5.08096e-24)
(2.99188e-06 -2.89789e-07 5.05544e-24)
(3.67775e-06 -3.79517e-07 -5.04126e-24)
(4.43016e-06 -4.90714e-07 -1.00331e-23)
(5.22871e-06 -6.1072e-07 1.22103e-27)
(6.04755e-06 -7.48801e-07 9.97048e-24)
(6.85565e-06 -8.90007e-07 -1.99054e-23)
(7.62387e-06 -1.03999e-06 -9.9097e-24)
(8.32289e-06 -1.18564e-06 0)
(8.9281e-06 -1.32696e-06 9.89308e-24)
(9.42324e-06 -1.457e-06 1.97105e-23)
(9.79145e-06 -1.57452e-06 0)
(1.0036e-05 -1.66981e-06 9.82609e-24)
(1.01534e-05 -1.75219e-06 9.84643e-24)
(1.01568e-05 -1.80711e-06 -6.77181e-28)
(1.00593e-05 -1.85063e-06 2.99267e-28)
(9.87616e-06 -1.87227e-06 -6.0285e-28)
(9.63096e-06 -1.88369e-06 -1.95719e-23)
(9.3389e-06 -1.87843e-06 1.96739e-23)
(9.02577e-06 -1.86615e-06 -1.96749e-23)
(8.70506e-06 -1.85022e-06 -1.96235e-23)
(8.39197e-06 -1.83109e-06 1.97709e-23)
(8.09807e-06 -1.8137e-06 -1.95513e-23)
(7.82645e-06 -1.79845e-06 1.98497e-23)
(7.58508e-06 -1.78431e-06 2.98445e-28)
(7.36826e-06 -1.77745e-06 -1.98795e-23)
(7.18036e-06 -1.77094e-06 1.96838e-23)
(7.01223e-06 -1.77379e-06 3.04432e-28)
(6.87158e-06 -1.77476e-06 -1.98101e-23)
(6.7501e-06 -1.78599e-06 -2.01397e-23)
(6.6684e-06 -1.80095e-06 -1.51722e-28)
(6.61217e-06 -1.8294e-06 0)
(6.63357e-06 -1.87272e-06 -2.00194e-23)
(6.68831e-06 -1.93263e-06 3.22998e-28)
(6.90432e-06 -2.03584e-06 0)
(7.13829e-06 -2.15291e-06 0)
(7.72175e-06 -2.37961e-06 0)
(8.23669e-06 -2.59565e-06 -2.10843e-23)
(9.57739e-06 -3.08184e-06 -2.09682e-23)
(1.05988e-05 -3.48508e-06 0)
(1.39154e-05 -4.67529e-06 0)
(1.59544e-05 -5.50416e-06 2.24393e-23)
(2.89953e-05 -1.01561e-05 2.16377e-23)
(2.60224e-05 -3.58011e-05 -7.90614e-23)
(-2.38474e-05 0.000694168 -3.5075e-24)
(9.56101e-06 0.000503855 1.9132e-25)
(3.02749e-05 0.000674089 4.25005e-27)
(8.24596e-05 0.000737609 -3.94893e-27)
(0.000236061 0.000786349 0)
(0.000262601 0.000505666 7.23587e-23)
(0.000231568 0.000410031 -5.50662e-23)
(0.00025606 0.000381526 -6.2011e-23)
(0.000225654 0.000291918 -5.75307e-23)
(0.000219069 0.00025048 0)
(0.000192214 0.000197375 0)
(0.000175461 0.00016379 0)
(0.000152837 0.000130704 -9.04936e-23)
(0.000134685 0.00010638 0)
(0.000116529 8.55536e-05 -9.40867e-27)
(9.98646e-05 6.83293e-05 9.33882e-27)
(8.49737e-05 5.45221e-05 6.91157e-23)
(7.10601e-05 4.27812e-05 7.7179e-27)
(5.85959e-05 3.321e-05 -6.00648e-23)
(4.78336e-05 2.56163e-05 0)
(3.76326e-05 1.90215e-05 -4.91594e-23)
(2.89857e-05 1.38752e-05 -4.67382e-23)
(2.13362e-05 9.68707e-06 -4.1953e-23)
(1.44993e-05 6.244e-06 -3.92089e-23)
(8.79057e-06 3.61837e-06 4.36943e-27)
(3.83564e-06 1.53015e-06 -1.94951e-28)
(-3.63003e-07 -6.01282e-08 3.15329e-23)
(-3.73443e-06 -1.20991e-06 0)
(-6.56551e-06 -2.05016e-06 -2.65367e-23)
(-8.74622e-06 -2.59322e-06 -3.20592e-27)
(-1.03913e-05 -2.9141e-06 -4.72744e-23)
(-1.16236e-05 -3.06418e-06 4.39852e-23)
(-1.23992e-05 -3.06877e-06 -2.62931e-27)
(-1.285e-05 -2.97788e-06 1.96009e-23)
(-1.29974e-05 -2.80696e-06 -4.55375e-27)
(-1.28783e-05 -2.58046e-06 2.20079e-27)
(-1.25639e-05 -2.33332e-06 0)
(-1.20667e-05 -2.05311e-06 1.94644e-27)
(-1.14389e-05 -1.78303e-06 -1.88028e-27)
(-1.07023e-05 -1.51059e-06 -7.12235e-28)
(-9.87927e-06 -1.25407e-06 1.73199e-27)
(-9.00738e-06 -1.01612e-06 0)
(-8.07604e-06 -7.96939e-07 0)
(-7.11624e-06 -6.0744e-07 1.5012e-27)
(-6.12787e-06 -4.33583e-07 5.91176e-24)
(-5.12743e-06 -2.9836e-07 0)
(-4.14299e-06 -1.79974e-07 0)
(-3.18993e-06 -1.00034e-07 -1.30658e-27)
(-2.30688e-06 -3.72431e-08 9.99259e-30)
(-1.51258e-06 -6.29337e-09 1.22834e-27)
(-8.22708e-07 7.87556e-09 -1.21632e-24)
(-2.36832e-07 1.50417e-09 2.34943e-24)
(2.33146e-07 -8.22898e-09 -2.83804e-24)
(6.43037e-07 -3.4634e-08 -2.81433e-24)
(1.04893e-06 -5.90943e-08 -1.11971e-23)
(1.50573e-06 -1.04227e-07 5.56853e-24)
(2.04503e-06 -1.53805e-07 -1.35225e-27)
(2.67303e-06 -2.23392e-07 -5.50829e-24)
(3.42557e-06 -3.07652e-07 -6.66253e-28)
(4.30171e-06 -4.19437e-07 2.57042e-30)
(5.29495e-06 -5.49614e-07 5.42559e-24)
(6.38475e-06 -7.10591e-07 0)
(7.54146e-06 -8.84441e-07 -1.07634e-23)
(8.72765e-06 -1.08415e-06 2.71313e-28)
(9.89844e-06 -1.28844e-06 -2.91565e-28)
(1.10117e-05 -1.50522e-06 0)
(1.20251e-05 -1.7158e-06 6.49929e-28)
(1.29027e-05 -1.91991e-06 -1.2997e-27)
(1.36212e-05 -2.10777e-06 7.84167e-28)
(1.4156e-05 -2.27738e-06 0)
(1.45116e-05 -2.41505e-06 0)
(1.46832e-05 -2.5338e-06 1.05971e-23)
(1.46896e-05 -2.6131e-06 2.12219e-23)
(1.45496e-05 -2.67568e-06 0)
(1.42853e-05 -2.70678e-06 -1.06331e-23)
(1.39309e-05 -2.723e-06 1.28603e-27)
(1.35084e-05 -2.71542e-06 -2.1174e-23)
(1.3055e-05 -2.69741e-06 2.11742e-23)
(1.25904e-05 -2.67421e-06 2.112e-23)
(1.21365e-05 -2.64633e-06 -2.12779e-23)
(1.17101e-05 -2.62101e-06 -2.10415e-23)
(1.13158e-05 -2.59869e-06 -3.25935e-28)
(1.09651e-05 -2.57808e-06 0)
(1.06499e-05 -2.56775e-06 0)
(1.03764e-05 -2.5581e-06 0)
(1.01315e-05 -2.56174e-06 0)
(9.92627e-06 -2.56287e-06 -3.25757e-28)
(9.74876e-06 -2.57854e-06 3.30302e-28)
(9.62868e-06 -2.59988e-06 -2.14438e-23)
(9.5455e-06 -2.64051e-06 0)
(9.57447e-06 -2.70296e-06 2.15461e-23)
(9.65188e-06 -2.78925e-06 2.20582e-23)
(9.96245e-06 -2.93852e-06 -1.67814e-28)
(1.02996e-05 -3.10805e-06 -1.69296e-28)
(1.11424e-05 -3.43614e-06 1.71476e-28)
(1.18872e-05 -3.75028e-06 -8.67408e-29)
(1.38262e-05 -4.45453e-06 2.25678e-23)
(1.53053e-05 -5.04341e-06 -1.7549e-28)
(2.01034e-05 -6.76748e-06 1.33382e-28)
(2.30527e-05 -7.99087e-06 -2.41509e-23)
(4.18676e-05 -1.4686e-05 2.43631e-29)
(3.71612e-05 -5.15267e-05 1.13444e-22)
(-1.90641e-05 0.000918368 -4.13244e-28)
(1.26319e-05 0.000672722 1.02084e-25)
(4.17715e-05 0.00089384 -1.84796e-24)
(0.000110302 0.000977521 4.55495e-24)
(0.000311188 0.00104141 -1.55839e-26)
(0.000348221 0.000676053 -7.77814e-23)
(0.000308418 0.000547961 5.91758e-23)
(0.000340446 0.00050872 1.47244e-26)
(0.00030084 0.000390649 -1.54092e-26)
(0.000291998 0.000334876 2.87782e-26)
(0.00025662 0.000264387 -1.41233e-26)
(0.000234302 0.000219372 5.39204e-23)
(0.000204293 0.000175255 -2.33049e-26)
(0.000180106 0.000142682 -4.76577e-23)
(0.000155927 0.000114832 0)
(0.000133707 9.17704e-05 -1.91519e-26)
(0.000113835 7.32745e-05 -7.43518e-23)
(9.52605e-05 5.75442e-05 1.5759e-26)
(7.86133e-05 4.47131e-05 6.46247e-23)
(6.42261e-05 3.45258e-05 5.78607e-23)
(5.05929e-05 2.56804e-05 5.28817e-23)
(3.90249e-05 1.87683e-05 0)
(2.87887e-05 1.31427e-05 0)
(1.96381e-05 8.515e-06 8.43965e-23)
(1.19906e-05 4.98063e-06 -3.94469e-23)
(5.35059e-06 2.16881e-06 0)
(-2.78689e-07 2.33157e-08 -6.78756e-23)
(-4.80413e-06 -1.53049e-06 -3.13562e-23)
(-8.60622e-06 -2.66871e-06 5.71151e-23)
(-1.15393e-05 -3.40814e-06 2.7697e-23)
(-1.37558e-05 -3.84853e-06 2.5442e-23)
(-1.54199e-05 -4.05927e-06 -2.36707e-23)
(-1.64732e-05 -4.07414e-06 0)
(-1.70912e-05 -3.95984e-06 -2.6223e-27)
(-1.73027e-05 -3.7374e-06 2.00552e-23)
(-1.71574e-05 -3.44038e-06 2.42858e-27)
(-1.67498e-05 -3.11356e-06 -1.78683e-23)
(-1.60969e-05 -2.74298e-06 -1.73323e-23)
(-1.52688e-05 -2.38431e-06 -1.98422e-27)
(-1.42945e-05 -2.02216e-06 -1.55563e-23)
(-1.32038e-05 -1.6808e-06 -1.86404e-27)
(-1.20468e-05 -1.36378e-06 7.15702e-24)
(-1.08102e-05 -1.0715e-06 6.93122e-24)
(-9.5346e-06 -8.18282e-07 0)
(-8.22051e-06 -5.86582e-07 6.3628e-24)
(-6.88988e-06 -4.05011e-07 -6.21319e-24)
(-5.57999e-06 -2.46875e-07 1.44261e-27)
(-4.31151e-06 -1.38707e-07 -2.82462e-27)
(-3.13574e-06 -5.42544e-08 -1.39173e-24)
(-2.07775e-06 -1.14219e-08 0)
(-1.15853e-06 8.81812e-09 2.6181e-24)
(-3.77397e-07 1.73782e-09 -5.0571e-24)
(2.49297e-07 -1.07177e-08 3.05583e-24)
(7.95868e-07 -4.47542e-08 -1.47448e-27)
(1.33685e-06 -7.73573e-08 6.02683e-24)
(1.94538e-06 -1.36795e-07 -5.99152e-24)
(2.66347e-06 -2.03068e-07 0)
(3.49939e-06 -2.95451e-07 0)
(4.50069e-06 -4.07937e-07 0)
(5.66631e-06 -5.56501e-07 1.42678e-27)
(6.9875e-06 -7.29984e-07 -2.85145e-27)
(8.43731e-06 -9.43876e-07 1.42089e-27)
(9.9762e-06 -1.17519e-06 1.15846e-23)
(1.15545e-05 -1.44034e-06 -2.3099e-23)
(1.31125e-05 -1.71178e-06 -3.31388e-28)
(1.45945e-05 -1.9994e-06 0)
(1.59439e-05 -2.27899e-06 0)
(1.71132e-05 -2.54962e-06 0)
(1.80709e-05 -2.79887e-06 -1.14156e-23)
(1.87847e-05 -3.02356e-06 0)
(1.92602e-05 -3.20624e-06 0)
(1.9491e-05 -3.36335e-06 -2.28095e-23)
(1.95019e-05 -3.46858e-06 -1.14197e-23)
(1.93178e-05 -3.55116e-06 0)
(1.89678e-05 -3.59226e-06 2.28863e-23)
(1.84977e-05 -3.6133e-06 6.91687e-28)
(1.79366e-05 -3.60327e-06 1.12707e-28)
(1.73337e-05 -3.57896e-06 -4.55789e-23)
(1.67155e-05 -3.54795e-06 -2.2729e-23)
(1.61111e-05 -3.51053e-06 2.29012e-23)
(1.55428e-05 -3.47663e-06 2.26457e-23)
(1.50171e-05 -3.4465e-06 2.29929e-23)
(1.45489e-05 -3.41888e-06 -3.4569e-28)
(1.41278e-05 -3.40445e-06 0)
(1.37618e-05 -3.39129e-06 0)
(1.34339e-05 -3.39524e-06 0)
(1.31585e-05 -3.39633e-06 0)
(1.29199e-05 -3.41614e-06 0)
(1.27573e-05 -3.44404e-06 2.30793e-23)
(1.26439e-05 -3.49699e-06 0)
(1.26793e-05 -3.57962e-06 -3.54717e-28)
(1.27793e-05 -3.69348e-06 1.79733e-28)
(1.3189e-05 -3.89175e-06 1.8061e-28)
(1.36347e-05 -4.11697e-06 0)
(1.47528e-05 -4.553e-06 2.42572e-23)
(1.57421e-05 -4.97258e-06 -3.72095e-28)
(1.83185e-05 -5.90974e-06 -2.42887e-23)
(2.02857e-05 -6.70009e-06 9.48556e-29)
(2.66632e-05 -8.99458e-06 -2.49301e-23)
(3.05809e-05 -1.06543e-05 0)
(5.55188e-05 -1.95057e-05 0)
(4.90788e-05 -6.83074e-05 -6.1023e-23)
(-1.50855e-05 0.00115531 0)
(1.58832e-05 0.000854269 -1.10165e-25)
(5.48134e-05 0.00112686 -7.43115e-27)
(0.000140345 0.00123164 -4.89197e-24)
(0.00038991 0.00131121 -2.99233e-23)
(0.000439017 0.000859686 0)
(0.000390618 0.000696552 1.72334e-26)
(0.000430412 0.000645137 -1.58257e-26)
(0.00038143 0.000497275 -1.65664e-26)
(0.000370138 0.000425862 4.63951e-26)
(0.000325845 0.000336896 -3.03745e-26)
(0.000297572 0.000279503 -1.15998e-22)
(0.000259728 0.000223553 1.04717e-22)
(0.000229078 0.000182059 5.12705e-23)
(0.000198459 0.000146635 -9.12959e-23)
(0.000170283 0.000117263 0)
(0.000145061 9.36927e-05 0)
(0.000121477 7.3644e-05 7.13459e-23)
(0.000100331 5.72803e-05 0)
(8.20373e-05 4.42785e-05 -6.22695e-23)
(6.47076e-05 3.29919e-05 -1.35378e-26)
(4.99872e-05 2.41594e-05 1.35727e-26)
(3.69582e-05 1.697e-05 0)
(2.53082e-05 1.10523e-05 -9.08059e-23)
(1.55631e-05 6.5254e-06 4.24236e-23)
(7.09826e-06 2.92271e-06 9.14333e-27)
(-8.17137e-08 1.68263e-07 7.30389e-23)
(-5.86093e-06 -1.83014e-06 3.37486e-23)
(-1.07192e-05 -3.29761e-06 -3.07431e-23)
(-1.44729e-05 -4.25606e-06 -2.97961e-23)
(-1.73151e-05 -4.8315e-06 6.56653e-27)
(-1.94539e-05 -5.11315e-06 2.54662e-23)
(-2.08159e-05 -5.1439e-06 0)
(-2.16227e-05 -5.0083e-06 -2.27035e-23)
(-2.19117e-05 -4.73361e-06 -2.15761e-23)
(-2.1746e-05 -4.36375e-06 0)
(-2.12456e-05 -3.95298e-06 3.84687e-23)
(-2.04318e-05 -3.4871e-06 1.86473e-23)
(-1.93943e-05 -3.03422e-06 0)
(-1.81699e-05 -2.57644e-06 -4.05312e-27)
(-1.67961e-05 -2.14439e-06 4.01233e-27)
(-1.53371e-05 -1.74264e-06 -7.70215e-24)
(-1.37762e-05 -1.37186e-06 -7.4592e-24)
(-1.21648e-05 -1.04992e-06 0)
(-1.0504e-05 -7.56078e-07 -6.84922e-24)
(-8.82149e-06 -5.24013e-07 -4.11718e-28)
(-7.16455e-06 -3.22893e-07 0)
(-5.55948e-06 -1.8348e-07 0)
(-4.07105e-06 -7.51758e-08 1.50072e-24)
(-2.73121e-06 -1.85855e-08 -1.42282e-27)
(-1.56655e-06 9.08209e-09 -2.81775e-24)
(-5.76197e-07 2.21026e-09 2.72132e-24)
(2.18479e-07 -1.26514e-08 0)
(9.11672e-07 -5.41175e-08 -3.26005e-24)
(1.59737e-06 -9.5304e-08 6.485e-24)
(2.36823e-06 -1.69568e-07 3.14904e-27)
(3.27736e-06 -2.53672e-07 -1.56635e-27)
(4.33516e-06 -3.70179e-07 1.55434e-27)
(5.60165e-06 -5.1285e-07 -1.54987e-27)
(7.07572e-06 -7.0045e-07 6.302e-24)
(8.7462e-06 -9.20142e-07 -6.28423e-24)
(1.05795e-05 -1.19016e-06 0)
(1.25254e-05 -1.48261e-06 -1.24679e-23)
(1.45215e-05 -1.81709e-06 1.24297e-23)
(1.64923e-05 -2.1598e-06 1.2406e-23)
(1.83674e-05 -2.52237e-06 1.50984e-27)
(2.00755e-05 -2.87508e-06 1.23427e-23)
(2.15565e-05 -3.21601e-06 0)
(2.27704e-05 -3.53023e-06 0)
(2.36764e-05 -3.81304e-06 1.23155e-23)
(2.42813e-05 -4.04335e-06 -7.481e-28)
(2.45769e-05 -4.24082e-06 1.22739e-23)
(2.45941e-05 -4.37355e-06 0)
(2.43646e-05 -4.47705e-06 -7.46129e-28)
(2.39246e-05 -4.52867e-06 -1.23148e-23)
(2.33324e-05 -4.55454e-06 7.44419e-28)
(2.26244e-05 -4.5419e-06 2.45247e-23)
(2.18627e-05 -4.51066e-06 2.45274e-23)
(2.1081e-05 -4.47123e-06 7.65134e-29)
(2.0316e-05 -4.42345e-06 7.52249e-28)
(1.95961e-05 -4.38019e-06 -2.43728e-23)
(1.89295e-05 -4.34146e-06 -2.47451e-23)
(1.83352e-05 -4.30616e-06 7.43804e-31)
(1.78001e-05 -4.28691e-06 2.47815e-23)
(1.73342e-05 -4.26969e-06 3.74778e-28)
(1.69165e-05 -4.27337e-06 -7.59929e-28)
(1.65647e-05 -4.27406e-06 3.76243e-28)
(1.62594e-05 -4.29759e-06 0)
(1.60498e-05 -4.33201e-06 2.48373e-23)
(1.59023e-05 -4.39735e-06 2.54529e-23)
(1.59424e-05 -4.50101e-06 2.49555e-23)
(1.60645e-05 -4.64359e-06 -2.555e-23)
(1.65777e-05 -4.89368e-06 0)
(1.71372e-05 -5.17795e-06 -1.96095e-28)
(1.85467e-05 -5.72867e-06 -5.22132e-23)
(1.97954e-05 -6.26131e-06 0)
(2.30497e-05 -7.44696e-06 2.61414e-23)
(2.55369e-05 -8.45568e-06 2.67691e-23)
(3.35962e-05 -1.13591e-05 3.75629e-28)
(3.85417e-05 -1.35011e-05 0)
(6.99625e-05 -2.46237e-05 -2.82105e-29)
(6.18094e-05 -8.61531e-05 -3.27954e-23)
(-1.13716e-05 0.00140536 0)
(1.93319e-05 0.00104934 0)
(6.95766e-05 0.00137366 2.14021e-24)
(0.000172753 0.00150045 -1.43607e-26)
(0.000472241 0.00159619 6.4276e-23)
(0.000535182 0.0010575 -1.64392e-28)
(0.000478469 0.000856604 1.53671e-28)
(0.000526246 0.000791398 1.70073e-26)
(0.000467764 0.000612415 7.14576e-23)
(0.000453814 0.000523947 0)
(0.000400222 0.000415356 0)
(0.000365583 0.00034456 6.23825e-23)
(0.000319436 0.000275922 -1.1262e-22)
(0.000281871 0.000224781 -5.52341e-23)
(0.000244367 0.000181188 9.82408e-23)
(0.000209808 0.000144994 -9.30573e-23)
(0.000178844 0.000115932 8.61347e-23)
(0.000149878 9.12089e-05 -7.67597e-23)
(0.000123894 7.10165e-05 -1.87583e-26)
(0.000101392 5.49597e-05 0)
(8.00825e-05 4.10248e-05 1.45685e-26)
(6.19607e-05 3.01031e-05 -2.84846e-26)
(4.59165e-05 2.1212e-05 1.3111e-26)
(3.15669e-05 1.38887e-05 4.88627e-23)
(1.95521e-05 8.27741e-06 1.08925e-26)
(9.11109e-06 3.80984e-06 4.12356e-23)
(2.50033e-07 3.87142e-07 -3.92842e-23)
(-6.8917e-06 -2.10088e-06 -3.89006e-28)
(-1.28991e-05 -3.93253e-06 -3.30849e-23)
(-1.75487e-05 -5.13542e-06 -7.9928e-27)
(-2.10763e-05 -5.8636e-06 7.06705e-27)
(-2.37375e-05 -6.22802e-06 -2.74236e-23)
(-2.54429e-05 -6.28139e-06 2.64081e-23)
(-2.64634e-05 -6.12739e-06 -2.44374e-23)
(-2.68458e-05 -5.80021e-06 1.5841e-28)
(-2.66674e-05 -5.35535e-06 1.08348e-26)
(-2.60755e-05 -4.85645e-06 -2.07021e-23)
(-2.50966e-05 -4.29022e-06 -2.00809e-23)
(-2.3841e-05 -3.73727e-06 1.90155e-23)
(-2.2354e-05 -3.17764e-06 1.80202e-23)
(-2.0682e-05 -2.6487e-06 -4.24752e-27)
(-1.89034e-05 -2.15615e-06 6.12934e-29)
(-1.69989e-05 -1.70108e-06 8.03232e-24)
(-1.50309e-05 -1.30498e-06 0)
(-1.30013e-05 -9.44303e-07 3.57991e-27)
(-1.09445e-05 -6.57211e-07 -4.01777e-27)
(-8.91795e-06 -4.09495e-07 3.43432e-24)
(-6.95417e-06 -2.3545e-07 3.35283e-24)
(-5.1322e-06 -1.00765e-07 -1.56996e-27)
(-3.49139e-06 -2.82151e-08 1.14651e-29)
(-2.06431e-06 8.53399e-09 1.51776e-24)
(-8.49944e-07 3.07972e-09 0)
(1.24679e-07 -1.36835e-08 0)
(9.75102e-07 -6.22155e-08 7.01373e-24)
(1.81578e-06 -1.12341e-07 2.59178e-28)
(2.76017e-06 -2.01886e-07 0)
(3.87324e-06 -3.04942e-07 -6.89005e-24)
(5.16754e-06 -4.4691e-07 1.68004e-27)
(6.7163e-06 -6.21772e-07 -1.6612e-27)
(8.51852e-06 -8.50703e-07 -1.35633e-23)
(1.05604e-05 -1.11958e-06 1.35284e-23)
(1.28014e-05 -1.44899e-06 -1.64588e-27)
(1.51802e-05 -1.8063e-06 1.34182e-23)
(1.76205e-05 -2.21405e-06 1.63093e-27)
(2.00305e-05 -2.63221e-06 -1.63222e-27)
(2.23243e-05 -3.07386e-06 1.62148e-27)
(2.44148e-05 -3.50385e-06 -1.32869e-23)
(2.62284e-05 -3.91886e-06 1.32773e-23)
(2.77162e-05 -4.30166e-06 -1.61535e-27)
(2.88285e-05 -4.64561e-06 -1.32536e-23)
(2.9573e-05 -4.92621e-06 0)
(2.99396e-05 -5.16599e-06 0)
(2.99657e-05 -5.32782e-06 0)
(2.96897e-05 -5.45312e-06 8.03006e-28)
(2.91558e-05 -5.51576e-06 -8.09255e-28)
(2.84351e-05 -5.54643e-06 0)
(2.75717e-05 -5.53101e-06 -2.63942e-23)
(2.66418e-05 -5.49213e-06 2.63951e-23)
(2.56863e-05 -5.44359e-06 2.63265e-23)
(2.47503e-05 -5.38458e-06 2.6525e-23)
(2.38685e-05 -5.33108e-06 1.60916e-27)
(2.30512e-05 -5.28284e-06 2.66311e-23)
(2.23216e-05 -5.23909e-06 0)
(2.1664e-05 -5.21419e-06 -4.13605e-28)
(2.10902e-05 -5.19221e-06 0)
(2.05753e-05 -5.19488e-06 -2.67929e-23)
(2.01403e-05 -5.19462e-06 0)
(1.9762e-05 -5.2213e-06 -4.13085e-28)
(1.95e-05 -5.26203e-06 -2.6731e-23)
(1.9314e-05 -5.33966e-06 -2.73935e-23)
(1.93566e-05 -5.46508e-06 -2.68595e-23)
(1.94997e-05 -5.63739e-06 2.74989e-23)
(2.01204e-05 -5.94208e-06 0)
(2.07988e-05 -6.28884e-06 0)
(2.25162e-05 -6.96117e-06 5.61936e-23)
(2.40395e-05 -7.61485e-06 2.82899e-23)
(2.80139e-05 -9.06524e-06 -5.62701e-23)
(3.10539e-05 -1.03105e-05 -2.71567e-28)
(4.09021e-05 -1.38633e-05 5.7754e-23)
(4.6936e-05 -1.65383e-05 5.66792e-29)
(8.52094e-05 -3.00483e-05 -2.90442e-23)
(7.53803e-05 -0.000105089 1.41205e-22)
(-8.08014e-06 0.00166887 0)
(2.29984e-05 0.00125879 1.2524e-25)
(8.62488e-05 0.00163471 9.46906e-27)
(0.000207699 0.00178441 -1.06787e-26)
(0.000558176 0.00189677 -5.6598e-26)
(0.000636894 0.00127048 9.59458e-23)
(0.000572281 0.00102898 -3.979e-26)
(0.000628243 0.000948162 -2.12414e-27)
(0.000560199 0.000736737 -7.67703e-23)
(0.000543374 0.000629683 -8.38812e-29)
(0.000480106 0.000500265 7.01996e-23)
(0.000438668 0.00041496 -6.70735e-23)
(0.000383733 0.000332718 0)
(0.000338775 0.000271147 5.93567e-23)
(0.000293916 0.000218743 1.05694e-22)
(0.000252522 0.000175173 1.00156e-22)
(0.000215395 0.000140167 -9.26416e-23)
(0.00018065 0.000110382 8.2587e-23)
(0.000149464 8.60392e-05 0)
(0.00012243 6.66656e-05 1.71566e-26)
(9.68354e-05 4.98565e-05 -1.65343e-26)
(7.50439e-05 3.66611e-05 0)
(5.57447e-05 2.59174e-05 0)
(3.84792e-05 1.70622e-05 0)
(2.40083e-05 1.02654e-05 0)
(1.14268e-05 4.85129e-06 -4.43901e-23)
(7.42883e-07 6.94827e-07 0)
(-7.88001e-06 -2.3329e-06 0)
(-1.51384e-05 -4.56769e-06 7.12146e-23)
(-2.07663e-05 -6.04369e-06 -8.602e-27)
(-2.50453e-05 -6.94473e-06 7.60567e-27)
(-2.8282e-05 -7.40569e-06 2.9497e-23)
(-3.037e-05 -7.48977e-06 -2.84095e-23)
(-3.16324e-05 -7.32118e-06 -3.84654e-27)
(-3.21267e-05 -6.94189e-06 2.50013e-23)
(-3.19453e-05 -6.42016e-06 5.7554e-27)
(-3.12651e-05 -5.82906e-06 2.22665e-23)
(-3.01177e-05 -5.15732e-06 2.16094e-23)
(-2.8636e-05 -4.49825e-06 -2.04481e-23)
(-2.68743e-05 -3.83024e-06 -1.9397e-23)
(-2.48885e-05 -3.19784e-06 -4.64744e-27)
(-2.27727e-05 -2.60804e-06 4.32529e-27)
(-2.05045e-05 -2.06245e-06 -3.60972e-27)
(-1.81586e-05 -1.58638e-06 0)
(-1.57377e-05 -1.15369e-06 0)
(-1.32831e-05 -8.06673e-07 1.54946e-23)
(-1.08634e-05 -5.08285e-07 3.81072e-27)
(-8.5178e-06 -2.95879e-07 -3.60827e-24)
(-6.34042e-06 -1.31845e-07 0)
(-4.37857e-06 -4.07918e-08 0)
(-2.67118e-06 7.03496e-09 0)
(-1.21712e-06 4.47057e-09 0)
(-4.98409e-08 -1.33863e-08 3.80976e-24)
(9.69123e-07 -6.85151e-08 -7.54855e-24)
(1.97569e-06 -1.27797e-07 -7.51129e-24)
(3.10546e-06 -2.33044e-07 -7.46956e-24)
(4.43604e-06 -3.56108e-07 7.41331e-24)
(5.98212e-06 -5.24934e-07 -7.39063e-24)
(7.83095e-06 -7.33989e-07 1.78787e-27)
(9.98177e-06 -1.00663e-06 7.29775e-24)
(1.2418e-05 -1.32768e-06 -7.28078e-24)
(1.50917e-05 -1.71984e-06 1.44899e-23)
(1.79299e-05 -2.14578e-06 1.76082e-27)
(2.0842e-05 -2.6308e-06 -4.37606e-30)
(2.37185e-05 -3.1286e-06 -1.75669e-27)
(2.64574e-05 -3.65353e-06 -1.74513e-27)
(2.89549e-05 -4.16491e-06 2.91326e-30)
(3.1123e-05 -4.65782e-06 -2.85704e-23)
(3.29035e-05 -5.11278e-06 -1.42295e-23)
(3.42371e-05 -5.52092e-06 -1.4266e-23)