/*--------------------------------*- C++ -*----------------------------------*\
| =========                 |                                                 |
| \\      /  F ield         | OpenFOAM: The Open Source CFD Toolbox           |
|  \\    /   O peration     | Version:  5.x                                   |
|   \\  /    A nd           | Web:      www.OpenFOAM.org                      |
|    \\/     M anipulation  |                                                 |
\*---------------------------------------------------------------------------*/
FoamFile
{
    version     2.0;
    format      ascii;
    class       volVectorField;
    location    "1000";
    object      U;
}
// * * * * * * * * * * * * * * * * * * * * * * * * * * * * * * * * * * * * * //

dimensions      [0 1 -1 0 0 0 0];

internalField   nonuniform List<vector> 
107912
(
(3.21362e-05 7.36935e-05 -3.29428e-28)
(1.29523e-06 6.46048e-05 3.14571e-28)
(3.64402e-06 9.05087e-05 8.77093e-25)
(1.18928e-05 0.000108826 1.1473e-24)
(3.75528e-05 0.000123539 -8.73397e-24)
(4.717e-05 8.87781e-05 2.45965e-23)
(4.47192e-05 7.84814e-05 1.86043e-23)
(5.23318e-05 7.74247e-05 7.41429e-28)
(5.07979e-05 6.50474e-05 -3.52223e-27)
(5.19725e-05 5.89642e-05 -3.99709e-27)
(4.9775e-05 5.0656e-05 -4.37896e-27)
(4.83869e-05 4.48098e-05 3.40426e-23)
(4.58733e-05 3.88989e-05 6.64581e-23)
(4.35805e-05 3.41406e-05 1.35818e-26)
(4.1131e-05 2.9942e-05 -6.59609e-23)
(3.85981e-05 2.6179e-05 6.63079e-23)
(3.62131e-05 2.30264e-05 7.89296e-27)
(3.38103e-05 2.01602e-05 0)
(3.14643e-05 1.7651e-05 -1.2505e-22)
(2.9341e-05 1.55394e-05 -5.86672e-23)
(2.71379e-05 1.35467e-05 0)
(2.50919e-05 1.18442e-05 0)
(2.3181e-05 1.03508e-05 -5.20413e-23)
(2.12449e-05 8.95965e-06 5.05001e-23)
(1.94682e-05 7.77587e-06 4.87848e-23)
(1.77704e-05 6.70992e-06 9.09576e-23)
(1.60908e-05 5.73619e-06 -4.45581e-23)
(1.45622e-05 4.91048e-06 4.21784e-23)
(1.30657e-05 4.15226e-06 -3.92604e-23)
(1.16377e-05 3.48376e-06 -3.87341e-23)
(1.03402e-05 2.91599e-06 3.60805e-23)
(9.06209e-06 2.39522e-06 0)
(7.87559e-06 1.95016e-06 -3.29332e-23)
(6.78849e-06 1.5709e-06 3.68619e-27)
(5.74281e-06 1.23522e-06 -3.60896e-27)
(4.79992e-06 9.58316e-07 -7.83508e-28)
(3.93261e-06 7.24397e-07 2.58452e-23)
(3.1304e-06 5.28287e-07 7.16822e-28)
(2.42659e-06 3.73735e-07 -2.81621e-27)
(1.78511e-06 2.47915e-07 -2.198e-23)
(1.2255e-06 1.51894e-07 2.6192e-27)
(7.45516e-07 8.10245e-08 0)
(3.28395e-07 2.98731e-08 0)
(-1.15564e-08 -2.85522e-09 -8.97252e-24)
(-2.93065e-07 -2.23064e-08 0)
(-5.11155e-07 -3.00363e-08 -1.63428e-23)
(-6.75225e-07 -3.01074e-08 -3.85586e-24)
(-7.90981e-07 -2.36375e-08 -3.71469e-24)
(-8.62079e-07 -1.41943e-08 0)
(-8.95815e-07 -2.12227e-09 0)
(-8.95809e-07 1.01727e-08 -1.63433e-24)
(-8.64624e-07 2.18553e-08 -1.53187e-27)
(-8.1878e-07 3.09758e-08 -3.7713e-24)
(-7.71855e-07 3.75669e-08 -3.72134e-24)
(-7.15328e-07 4.05808e-08 -7.38327e-24)
(-6.56992e-07 4.38413e-08 7.32582e-24)
(-5.92109e-07 4.37748e-08 -1.45181e-23)
(-5.26407e-07 4.29151e-08 -8.79587e-28)
(-4.60261e-07 4.03589e-08 7.1666e-24)
(-3.9125e-07 3.73542e-08 -7.12229e-24)
(-3.2273e-07 3.26252e-08 0)
(-2.53513e-07 2.77809e-08 -1.41229e-23)
(-1.86209e-07 2.10926e-08 8.60518e-28)
(-1.21193e-07 1.48321e-08 1.40225e-23)
(-5.99567e-08 7.19491e-09 8.55455e-28)
(-3.90734e-09 4.79334e-10 -1.39349e-23)
(4.72241e-08 -7.28278e-09 -4.25257e-28)
(9.32118e-08 -1.39137e-08 0)
(1.3561e-07 -2.15301e-08 -1.38406e-23)
(1.77325e-07 -2.85681e-08 0)
(2.20317e-07 -3.72597e-08 -1.37868e-23)
(2.69276e-07 -4.6655e-08 -2.75922e-23)
(3.26323e-07 -5.87393e-08 0)
(3.94728e-07 -7.29702e-08 4.18405e-28)
(4.75331e-07 -9.0889e-08 -4.21658e-28)
(5.67102e-07 -1.11261e-07 -4.17735e-28)
(6.67987e-07 -1.35218e-07 2.75263e-23)
(7.72103e-07 -1.60238e-07 -5.50535e-23)
(8.74256e-07 -1.86881e-07 0)
(9.67254e-07 -2.11903e-07 0)
(1.04614e-06 -2.35564e-07 2.74471e-23)
(1.10638e-06 -2.55057e-07 -2.78997e-23)
(1.14629e-06 -2.71017e-07 2.75143e-23)
(1.16574e-06 -2.82206e-07 4.26748e-28)
(1.16642e-06 -2.89103e-07 -2.11006e-28)
(1.15038e-06 -2.9177e-07 2.80686e-23)
(1.12069e-06 -2.90775e-07 4.60921e-28)
(1.07854e-06 -2.8621e-07 2.53227e-31)
(1.02731e-06 -2.78598e-07 -2.12291e-28)
(9.65262e-07 -2.67588e-07 -2.84655e-23)
(8.98459e-07 -2.54566e-07 0)
(8.21302e-07 -2.37711e-07 -2.16028e-28)
(7.51504e-07 -2.22234e-07 3.2213e-28)
(6.78078e-07 -2.04768e-07 -1.06885e-28)
(6.46351e-07 -1.995e-07 4.83669e-30)
(6.36335e-07 -2.00856e-07 -2.80089e-23)
(7.60059e-07 -2.45478e-07 2.75104e-23)
(9.82305e-07 -3.22823e-07 -5.47209e-23)
(1.60009e-06 -5.37331e-07 -1.03147e-28)
(2.55682e-06 -8.76448e-07 2.67887e-23)
(5.40663e-06 -1.8908e-06 -1.63708e-27)
(9.00352e-06 -8.45596e-06 5.57117e-23)
(7.07082e-05 0.000224793 0)
(4.1469e-06 0.000198752 0)
(1.16829e-05 0.000275969 -5.64928e-27)
(3.66771e-05 0.000331195 -3.64458e-24)
(0.000114096 0.000375667 6.98457e-24)
(0.000143955 0.000272082 0)
(0.000136948 0.000240597 -4.7467e-27)
(0.000160053 0.000236886 -4.47021e-23)
(0.00015563 0.000199613 -4.65277e-23)
(0.000159256 0.000180867 -1.27317e-26)
(0.000152679 0.000155605 1.25124e-26)
(0.000148471 0.000137666 -5.42582e-23)
(0.000140845 0.000119597 -1.05852e-22)
(0.000133851 0.000104999 5.54172e-23)
(0.000126374 9.21244e-05 -1.27069e-26)
(0.000118632 8.05777e-05 0)
(0.00011133 7.08938e-05 1.03316e-22)
(0.000103971 6.209e-05 -9.72213e-23)
(9.6782e-05 5.43798e-05 9.96665e-23)
(9.02673e-05 4.78852e-05 9.35125e-23)
(8.3511e-05 4.17605e-05 -8.95132e-23)
(7.72305e-05 3.65221e-05 -1.07818e-26)
(7.13618e-05 3.19264e-05 2.17294e-26)
(6.54179e-05 2.76471e-05 -9.89404e-27)
(5.99588e-05 2.40018e-05 -7.77831e-23)
(5.47412e-05 2.07196e-05 -1.44984e-22)
(4.95803e-05 1.77218e-05 -8.75337e-27)
(4.48798e-05 1.51771e-05 0)
(4.02786e-05 1.28411e-05 7.5522e-27)
(3.58873e-05 1.07807e-05 6.1754e-23)
(3.18951e-05 9.02943e-06 2.61107e-27)
(2.79631e-05 7.4237e-06 5.41284e-23)
(2.43116e-05 6.05019e-06 1.05018e-22)
(2.09646e-05 4.87913e-06 0)
(1.77455e-05 3.84254e-06 0)
(1.48412e-05 2.98652e-06 4.43e-23)
(1.21692e-05 2.26296e-06 -1.45099e-28)
(9.6973e-06 1.65598e-06 -3.97394e-23)
(7.52734e-06 1.17682e-06 4.49056e-27)
(5.54922e-06 7.86394e-07 -4.34085e-27)
(3.82265e-06 4.87792e-07 0)
(2.34089e-06 2.66801e-07 -1.57685e-23)
(1.05276e-06 1.06782e-07 9.61917e-29)
(1.83821e-09 3.61293e-09 3.53883e-27)
(-8.68987e-07 -5.83255e-08 0)
(-1.5446e-06 -8.40331e-08 1.30264e-23)
(-2.05372e-06 -8.58748e-08 6.15278e-24)
(-2.41393e-06 -6.73485e-08 -1.46111e-27)
(-2.63644e-06 -3.94516e-08 -2.82441e-24)
(-2.74365e-06 -3.26114e-09 0)
(-2.74676e-06 3.37775e-08 -8.32614e-29)
(-2.65369e-06 6.90973e-08 4.99997e-24)
(-2.51484e-06 9.68183e-08 1.20286e-23)
(-2.37217e-06 1.16829e-07 5.93528e-24)
(-2.19982e-06 1.25916e-07 1.17744e-23)
(-2.02161e-06 1.3578e-07 -2.33644e-23)
(-1.82319e-06 1.35502e-07 1.15736e-23)
(-1.62204e-06 1.32766e-07 0)
(-1.4194e-06 1.24902e-07 1.1425e-23)
(-1.20789e-06 1.156e-07 -1.13558e-23)
(-9.97791e-07 1.01094e-07 1.37929e-27)
(-7.85508e-07 8.61592e-08 2.25162e-23)
(-5.79003e-07 6.56741e-08 1.37217e-27)
(-3.79473e-07 4.64348e-08 0)
(-1.91485e-07 2.30585e-08 2.23197e-23)
(-1.93837e-08 2.43742e-09 2.22212e-23)
(1.37649e-07 -2.12986e-08 0)
(2.78927e-07 -4.1655e-08 -2.21646e-23)
(4.0921e-07 -6.49589e-08 -2.20702e-23)
(5.37376e-07 -8.66126e-08 0)
(6.69435e-07 -1.13234e-07 -2.19851e-23)
(8.19812e-07 -1.4222e-07 5.41129e-28)
(9.95025e-07 -1.79239e-07 -2.20138e-23)
(1.20502e-06 -2.23142e-07 6.68016e-28)
(1.45248e-06 -2.7824e-07 0)
(1.73427e-06 -3.41018e-07 4.36636e-23)
(2.04414e-06 -4.1453e-07 -4.3893e-23)
(2.36394e-06 -4.91513e-07 8.77878e-23)
(2.67791e-06 -5.73324e-07 0)
(2.9638e-06 -6.50177e-07 -4.4217e-23)
(3.20638e-06 -7.2273e-07 7.15241e-28)
(3.39178e-06 -7.82563e-07 -7.19875e-30)
(3.51474e-06 -8.31384e-07 -4.38747e-23)
(3.57477e-06 -8.6564e-07 4.4597e-23)
(3.57701e-06 -8.86609e-07 -4.4134e-23)
(3.52779e-06 -8.94718e-07 3.41698e-28)
(3.43659e-06 -8.91397e-07 8.86457e-23)
(3.30689e-06 -8.77207e-07 4.49972e-23)
(3.14918e-06 -8.53544e-07 0)
(2.95812e-06 -8.19512e-07 3.46419e-28)
(2.75239e-06 -7.79137e-07 -6.76265e-28)
(2.51477e-06 -7.27054e-07 -4.51649e-23)
(2.29968e-06 -6.79073e-07 -3.42207e-28)
(2.07353e-06 -6.25119e-07 3.40881e-28)
(1.97549e-06 -6.08603e-07 -4.50671e-23)
(1.94432e-06 -6.12805e-07 4.46649e-23)
(2.32338e-06 -7.50142e-07 1.0827e-27)
(3.0051e-06 -9.89142e-07 4.36299e-23)
(4.89896e-06 -1.64989e-06 8.28532e-29)
(7.82932e-06 -2.69921e-06 -4.27177e-23)
(1.65176e-05 -5.80055e-06 -6.12719e-27)
(2.40695e-05 -2.51556e-05 -1.33297e-22)
(7.21998e-05 0.000385753 -4.52518e-24)
(7.48933e-06 0.000342166 -2.95771e-24)
(2.10659e-05 0.000472776 -1.4919e-24)
(6.36741e-05 0.000566646 1.95137e-24)
(0.000194783 0.000642386 7.45143e-24)
(0.000246694 0.000468432 8.31524e-27)
(0.000235436 0.000414187 -4.35779e-27)
(0.000274776 0.00040719 9.61174e-23)
(0.000267657 0.000343972 1.0004e-22)
(0.000273914 0.000311575 1.23587e-26)
(0.000262866 0.00026837 0)
(0.000255696 0.000237461 1.44981e-26)
(0.000242707 0.000206421 2.27708e-22)
(0.000230731 0.000181269 0)
(0.000217917 0.000159095 -1.38914e-26)
(0.000204633 0.000139196 1.37881e-26)
(0.000192084 0.000122493 -1.11149e-22)
(0.000179433 0.000107309 1.04596e-22)
(0.000167066 9.40054e-05 0)
(0.000155847 8.27923e-05 -1.00632e-22)
(0.000144217 7.22231e-05 9.63296e-23)
(0.000133397 6.31754e-05 9.55544e-23)
(0.000123281 5.52375e-05 1.78506e-22)
(0.000113039 4.78476e-05 2.11357e-26)
(0.000103624 4.15474e-05 -2.04326e-26)
(9.46249e-05 3.58756e-05 7.80268e-23)
(8.57247e-05 3.06953e-05 0)
(7.76125e-05 2.62946e-05 8.74262e-27)
(6.96723e-05 2.2256e-05 -8.31303e-27)
(6.20934e-05 1.86926e-05 -8.01983e-27)
(5.51991e-05 1.56622e-05 1.03057e-26)
(4.84102e-05 1.28843e-05 -1.16501e-22)
(4.21032e-05 1.05065e-05 -5.65011e-23)
(3.63202e-05 8.47851e-06 -6.50062e-27)
(3.07582e-05 6.6832e-06 6.02231e-27)
(2.57379e-05 5.19942e-06 -5.90327e-27)
(2.11178e-05 3.94482e-06 0)
(1.68434e-05 2.89186e-06 5.14774e-27)
(1.30889e-05 2.0597e-06 -9.80564e-27)
(9.66576e-06 1.38127e-06 3.77263e-23)
(6.67651e-06 8.61626e-07 4.3728e-27)
(4.1097e-06 4.76437e-07 1.69617e-23)
(1.87757e-06 1.96924e-07 0)
(5.4808e-08 1.58863e-08 0)
(-1.45654e-06 -9.34115e-08 -1.4543e-23)
(-2.6306e-06 -1.39932e-07 3.46415e-27)
(-3.51672e-06 -1.44726e-07 3.19874e-27)
(-4.14521e-06 -1.14145e-07 -3.14508e-27)
(-4.53546e-06 -6.6947e-08 3.04264e-24)
(-4.72604e-06 -5.2568e-09 -2.87092e-27)
(-4.73637e-06 5.81406e-08 2.80612e-24)
(-4.58019e-06 1.18785e-07 -5.38375e-24)
(-4.34392e-06 1.66695e-07 -6.47043e-24)
(-4.10023e-06 2.01183e-07 6.38492e-24)
(-3.80502e-06 2.17023e-07 1.2674e-23)
(-3.49928e-06 2.34097e-07 1.25736e-23)
(-3.15849e-06 2.33846e-07 0)
(-2.81273e-06 2.29228e-07 1.23988e-23)
(-2.46419e-06 2.15924e-07 -1.22975e-23)
(-2.10024e-06 1.99966e-07 1.22245e-23)
(-1.73854e-06 1.75189e-07 -1.21852e-23)
(-1.37303e-06 1.49563e-07 -2.42373e-23)
(-1.01735e-06 1.14525e-07 2.9489e-27)
(-6.73604e-07 8.14878e-08 2.40668e-23)
(-3.4966e-07 4.14667e-08 -4.80446e-23)
(-5.3043e-08 6.06182e-09 -2.39155e-23)
(2.17649e-07 -3.45783e-08 0)
(4.61224e-07 -6.95595e-08 2.38547e-23)
(6.85877e-07 -1.09519e-07 4.75064e-23)
(9.06849e-07 -1.46799e-07 0)
(1.13449e-06 -1.92572e-07 2.36616e-23)
(1.39371e-06 -2.42587e-07 2.36778e-23)
(1.69572e-06 -3.0637e-07 -1.72745e-27)
(2.05764e-06 -3.82167e-07 7.18071e-28)
(2.4842e-06 -4.77169e-07 -1.44665e-27)
(2.97002e-06 -5.85492e-07 -4.69926e-23)
(3.50438e-06 -7.12177e-07 4.72417e-23)
(4.05597e-06 -8.44903e-07 -4.72425e-23)
(4.59773e-06 -9.85767e-07 -4.71506e-23)
(5.09117e-06 -1.11817e-06 4.75891e-23)
(5.51003e-06 -1.24298e-06 -4.71036e-23)
(5.83032e-06 -1.34593e-06 4.78795e-23)
(6.04292e-06 -1.42975e-06 7.19989e-28)
(6.14686e-06 -1.48856e-06 -4.79981e-23)
(6.15092e-06 -1.52436e-06 4.74992e-23)
(6.06605e-06 -1.53803e-06 7.3449e-28)
(5.90859e-06 -1.53189e-06 -4.77041e-23)
(5.68443e-06 -1.50704e-06 -4.8428e-23)
(5.41164e-06 -1.46571e-06 -3.64339e-28)
(5.08103e-06 -1.4065e-06 0)
(4.72472e-06 -1.33617e-06 -4.77048e-23)
(4.31303e-06 -1.24566e-06 4.13368e-28)
(3.93956e-06 -1.16204e-06 0)
(3.54674e-06 -1.0683e-06 0)
(3.374e-06 -1.03898e-06 0)
(3.31656e-06 -1.04613e-06 -4.80714e-23)
(3.9647e-06 -1.28288e-06 -4.72156e-23)
(5.13489e-06 -1.69726e-06 0)
(8.38941e-06 -2.83873e-06 0)
(1.34257e-05 -4.66081e-06 4.59869e-23)
(2.83218e-05 -9.98559e-06 4.47532e-23)
(4.0254e-05 -4.27842e-05 -1.43298e-22)
(7.3898e-05 0.000555676 4.86963e-24)
(1.14212e-05 0.000495253 3.17636e-24)
(3.19875e-05 0.000681288 -4.79345e-27)
(9.30774e-05 0.00081552 2.72764e-27)
(0.000279703 0.000924051 0)
(0.000355596 0.000678553 4.48769e-23)
(0.000340496 0.000599905 -3.41662e-23)
(0.000396832 0.000588879 -5.16497e-23)
(0.00038726 0.00049872 -5.37865e-23)
(0.000396346 0.000451619 0)
(0.00038076 0.000389461 0)
(0.000370492 0.000344658 0)
(0.00035189 0.000299795 -1.22471e-22)
(0.000334644 0.000263335 0)
(0.000316174 0.000231201 -1.49418e-26)
(0.000297003 0.000202347 1.48309e-26)
(0.000278864 0.000178106 1.19531e-22)
(0.000260567 0.000156071 1.37036e-26)
(0.000242674 0.000136757 -1.15349e-22)
(0.00022642 0.000120466 0)
(0.000209578 0.000105119 -1.0365e-22)
(0.000193894 9.19686e-05 -1.02791e-22)
(0.000179223 8.04308e-05 -9.60427e-23)
(0.000164375 6.96919e-05 -9.32028e-23)
(0.000150714 6.05288e-05 1.09037e-26)
(0.000137653 5.22806e-05 -1.84816e-28)
(0.000124738 4.47471e-05 8.2242e-23)
(0.000112957 3.83425e-05 0)
(0.000101427 3.24664e-05 -7.24818e-23)
(9.04195e-05 2.72794e-05 -8.8332e-27)
(8.04003e-05 2.28662e-05 -1.33267e-22)
(7.05359e-05 1.88215e-05 1.2539e-22)
(6.13682e-05 1.53567e-05 -7.5225e-27)
(5.29584e-05 1.24009e-05 5.65392e-23)
(4.48706e-05 9.78373e-06 -1.3146e-26)
(3.75666e-05 7.61886e-06 6.35313e-27)
(3.08431e-05 5.78779e-06 0)
(2.46216e-05 4.25023e-06 5.54011e-27)
(1.91536e-05 3.03366e-06 -5.3518e-27)
(1.41673e-05 2.04128e-06 -2.41701e-27)
(9.81069e-06 1.28003e-06 4.8376e-27)
(6.06755e-06 7.1486e-07 0)
(2.81126e-06 3.03861e-07 0)
(1.4955e-07 3.6499e-08 3.99792e-27)
(-2.05894e-06 -1.25826e-07 1.56435e-23)
(-3.77694e-06 -1.96538e-07 0)
(-5.07574e-06 -2.05783e-07 0)
(-5.9994e-06 -1.6337e-07 -3.31982e-27)
(-6.57604e-06 -9.6038e-08 5.73429e-29)
(-6.86159e-06 -7.45947e-09 3.08986e-27)
(-6.88438e-06 8.40083e-08 -3.02023e-24)
(-6.6645e-06 1.71773e-07 5.79171e-24)
(-6.32663e-06 2.41705e-07 -6.96403e-24)
(-5.9766e-06 2.91824e-07 -6.87664e-24)
(-5.55132e-06 3.15248e-07 -2.72772e-23)
(-5.11009e-06 3.40216e-07 1.3536e-23)
(-4.61768e-06 3.40361e-07 -3.2842e-27)
(-4.11766e-06 3.33855e-07 -1.3344e-23)
(-3.61328e-06 3.15103e-07 -1.61177e-27)
(-3.08637e-06 2.92133e-07 7.27492e-30)
(-2.56243e-06 2.56704e-07 1.31142e-23)
(-2.03292e-06 2.19734e-07 0)
(-1.51744e-06 1.69485e-07 -2.59973e-23)
(-1.01916e-06 1.21793e-07 3.15789e-28)
(-5.49442e-07 6.43154e-08 -2.7562e-28)
(-1.19304e-07 1.31993e-08 0)
(2.73317e-07 -4.51653e-08 1.56767e-27)
(6.26629e-07 -9.57118e-08 -3.13408e-27)
(9.5254e-07 -1.53193e-07 1.77934e-27)
(1.27303e-06 -2.07175e-07 0)
(1.60318e-06 -2.7322e-07 0)
(1.97911e-06 -3.4583e-07 2.54836e-23)
(2.41713e-06 -4.38143e-07 5.09944e-23)
(2.94203e-06 -5.4826e-07 0)
(3.56087e-06 -6.86003e-07 -2.55083e-23)
(4.26581e-06 -8.43312e-07 3.08722e-27)
(5.04146e-06 -1.02692e-06 -5.08453e-23)
(5.84233e-06 -1.21951e-06 5.08443e-23)
(6.62923e-06 -1.42354e-06 5.07463e-23)
(7.34617e-06 -1.61545e-06 -5.1218e-23)
(7.95503e-06 -1.79604e-06 -5.0696e-23)
(8.4208e-06 -1.94504e-06 -7.85744e-28)
(8.7302e-06 -2.06605e-06 0)
(8.88165e-06 -2.15088e-06 0)
(8.8878e-06 -2.20218e-06 0)
(8.7645e-06 -2.22144e-06 0)
(8.53545e-06 -2.21175e-06 -7.83897e-28)
(8.20906e-06 -2.17493e-06 7.94833e-28)
(7.81144e-06 -2.11398e-06 -5.14258e-23)
(7.32922e-06 -2.02695e-06 0)
(6.80868e-06 -1.92341e-06 5.13428e-23)
(6.20675e-06 -1.79045e-06 5.23178e-23)
(5.65862e-06 -1.66703e-06 -3.96819e-28)
(5.08141e-06 -1.52903e-06 -3.93893e-28)
(4.82115e-06 -1.4839e-06 3.98965e-28)
(4.72796e-06 -1.49273e-06 -1.96556e-28)
(5.65446e-06 -1.83417e-06 5.08205e-23)
(7.33918e-06 -2.4374e-06 -3.85288e-28)
(1.20375e-05 -4.0945e-06 2.86556e-28)
(1.93161e-05 -6.75677e-06 -4.94946e-23)
(4.07967e-05 -1.44484e-05 4.69756e-29)
(5.74962e-05 -6.15872e-05 2.05615e-22)
(7.92912e-05 0.000734621 1.4937e-27)
(1.6026e-05 0.000658509 1.70378e-24)
(4.46253e-05 0.000901832 1.69973e-24)
(0.00012507 0.00107811 -2.19994e-24)
(0.000368928 0.00122096 -7.67671e-27)
(0.000470882 0.000903174 -4.82421e-23)
(0.000452448 0.000798426 3.67121e-23)
(0.000526545 0.000782515 1.08036e-26)
(0.000514836 0.000664476 -1.52647e-26)
(0.000526969 0.000601556 3.00852e-26)
(0.000506807 0.000519416 -1.55407e-26)
(0.000493311 0.000459744 6.74023e-23)
(0.000468851 0.00040017 -3.25987e-26)
(0.000446044 0.000351604 -6.88605e-23)
(0.000421591 0.000308813 0)
(0.000396177 0.000270365 -3.21963e-26)
(0.000372088 0.000238035 -1.28587e-22)
(0.000347778 0.000208648 2.9511e-26)
(0.00032399 0.000182877 1.24107e-22)
(0.000302352 0.000161125 1.16428e-22)
(0.000279942 0.000140643 1.11497e-22)
(0.000259051 0.000123076 0)
(0.000239499 0.000107662 0)
(0.000219716 9.33188e-05 2.00597e-22)
(0.000201499 8.10687e-05 -9.69233e-23)
(0.000184078 7.00432e-05 0)
(0.000166854 5.99727e-05 -1.77015e-22)
(0.000151129 5.14042e-05 -8.37785e-23)
(0.00013574 4.35449e-05 1.55994e-22)
(0.000121045 3.66042e-05 7.69728e-23)
(0.000107661 3.06956e-05 7.17183e-23)
(9.44859e-05 2.52814e-05 -6.7476e-23)
(8.2236e-05 2.064e-05 0)
(7.09937e-05 1.66788e-05 -1.10372e-26)
(6.0182e-05 1.31711e-05 5.79435e-23)
(5.04127e-05 1.02669e-05 7.02705e-27)
(4.14169e-05 7.80962e-06 -5.13652e-23)
(3.30913e-05 5.7451e-06 -4.95339e-23)
(2.57694e-05 4.10957e-06 -5.59779e-27)
(1.90908e-05 2.77467e-06 -4.36788e-23)
(1.32525e-05 1.74904e-06 -5.20639e-27)
(8.23294e-06 9.86359e-07 1.96528e-23)
(3.86441e-06 4.305e-07 1.87995e-23)
(2.89766e-07 6.72893e-08 0)
(-2.67849e-06 -1.54443e-07 1.68373e-23)
(-4.99095e-06 -2.53268e-07 -1.62402e-23)
(-6.74233e-06 -2.68743e-07 3.70518e-27)
(-7.9914e-06 -2.14875e-07 -7.21603e-27)
(-8.77571e-06 -1.26557e-07 -3.51766e-24)
(-9.1698e-06 -9.61942e-09 0)
(-9.21164e-06 1.11792e-07 6.50099e-24)
(-8.92821e-06 2.28658e-07 -1.24666e-23)
(-8.48485e-06 3.22712e-07 7.49844e-24)
(-8.02321e-06 3.89756e-07 -3.59738e-27)
(-7.46047e-06 4.21789e-07 1.46819e-23)
(-6.87551e-06 4.55443e-07 -1.45642e-23)
(-6.2218e-06 4.56523e-07 0)
(-5.55736e-06 4.48157e-07 0)
(-4.88667e-06 4.24092e-07 0)
(-4.1857e-06 3.93771e-07 3.44927e-27)
(-3.48825e-06 3.47425e-07 -6.89174e-27)
(-2.78329e-06 2.98457e-07 3.43335e-27)
(-2.09671e-06 2.32436e-07 2.79809e-23)
(-1.43294e-06 1.69216e-07 -5.57554e-23)
(-8.06974e-07 9.35594e-08 -3.31768e-28)
(-2.33732e-07 2.57903e-08 0)
(2.8963e-07 -5.10309e-08 0)
(7.60574e-07 -1.181e-07 0)
(1.19506e-06 -1.93888e-07 -2.75138e-23)
(1.62217e-06 -2.65667e-07 0)
(2.06217e-06 -3.53066e-07 0)
(2.56312e-06 -4.49892e-07 -5.4852e-23)
(3.14697e-06 -5.72551e-07 -2.74407e-23)
(3.84667e-06 -7.19547e-07 0)
(4.67197e-06 -9.0299e-07 5.49037e-23)
(5.61233e-06 -1.11296e-06 1.66089e-27)
(6.64743e-06 -1.35749e-06 -7.10563e-28)
(7.7165e-06 -1.61434e-06 -1.09447e-22)
(8.7674e-06 -1.8859e-06 -5.46158e-23)
(9.72519e-06 -2.14157e-06 5.51254e-23)
(1.0539e-05 -2.38158e-06 5.45612e-23)
(1.11618e-05 -2.57977e-06 5.54633e-23)
(1.15757e-05 -2.74016e-06 -8.33993e-28)
(1.17785e-05 -2.85252e-06 0)
(1.1787e-05 -2.91988e-06 0)
(1.16222e-05 -2.94465e-06 0)
(1.13156e-05 -2.93045e-06 0)
(1.08783e-05 -2.88008e-06 0)
(1.03449e-05 -2.79713e-06 5.53478e-23)
(9.69728e-06 -2.67912e-06 0)
(8.99665e-06 -2.53843e-06 -8.43295e-28)
(8.18554e-06 -2.35811e-06 4.29598e-28)
(7.44299e-06 -2.18963e-06 4.27084e-28)
(6.6596e-06 -2.00157e-06 0)
(6.29425e-06 -1.93614e-06 5.6188e-23)
(6.15099e-06 -1.94392e-06 -8.49143e-28)
(7.36029e-06 -2.39386e-06 -5.46958e-23)
(9.58234e-06 -3.199e-06 2.06039e-28)
(1.58059e-05 -5.407e-06 -5.37748e-23)
(2.54672e-05 -8.98154e-06 0)
(5.39168e-05 -1.9188e-05 0)
(7.58086e-05 -8.16028e-05 -1.10611e-22)
(8.58383e-05 0.000922784 0)
(2.14083e-05 0.000832395 -1.83063e-24)
(5.9197e-05 0.00113469 -1.06526e-26)
(0.000159865 0.00135465 2.36176e-24)
(0.000462501 0.00153332 -9.1146e-24)
(0.000592741 0.00114304 0)
(0.000571606 0.00101045 1.26343e-26)
(0.000664226 0.000988676 -1.16023e-26)
(0.000650783 0.000841892 -1.64004e-26)
(0.000666199 0.000761976 4.93215e-26)
(0.000641466 0.000658809 -3.34035e-26)
(0.000624621 0.000583244 -1.44962e-22)
(0.000594071 0.000508031 1.41531e-22)
(0.000565406 0.000446516 7.40773e-23)
(0.000534639 0.000392331 -1.40591e-22)
(0.000502614 0.000343614 0)
(0.000472201 0.000302606 0)
(0.000441493 0.000265334 1.30195e-22)
(0.000411425 0.000232631 0)
(0.000384036 0.000205008 -1.25298e-22)
(0.000355681 0.00017901 -2.91326e-26)
(0.000329222 0.00015669 2.92077e-26)
(0.000304441 0.000137102 0)
(0.000279376 0.00011888 -2.15784e-22)
(0.000256273 0.000103301 1.04237e-22)
(0.000234172 8.9282e-05 2.35082e-26)
(0.000212326 7.64765e-05 1.90453e-22)
(0.000192363 6.55712e-05 9.01703e-23)
(0.000172825 5.55712e-05 -8.39608e-23)
(0.000154166 4.67357e-05 -8.28065e-23)
(0.000137159 3.92096e-05 1.86086e-26)
(0.00012042 3.23146e-05 7.2582e-23)
(0.000104849 2.63989e-05 0)
(9.05516e-05 2.13483e-05 -6.54849e-23)
(7.68022e-05 1.6875e-05 -6.23378e-23)
(6.43703e-05 1.31677e-05 0)
(5.29191e-05 1.00297e-05 1.10582e-22)
(4.23188e-05 7.3918e-06 5.3292e-23)
(3.29897e-05 5.29927e-06 0)
(2.44782e-05 3.59033e-06 -1.13205e-26)
(1.70329e-05 2.27513e-06 1.12066e-26)
(1.06273e-05 1.29546e-06 -2.11497e-23)
(5.04971e-06 5.79837e-07 -2.02316e-23)
(4.80529e-07 1.10098e-07 0)
(-3.31675e-06 -1.78277e-07 -1.81245e-23)
(-6.27983e-06 -3.09701e-07 -1.01471e-27)
(-8.52835e-06 -3.33499e-07 0)
(-1.01369e-05 -2.68715e-07 0)
(-1.11531e-05 -1.58543e-07 3.79314e-24)
(-1.16716e-05 -1.16714e-08 -3.5791e-27)
(-1.17406e-05 1.41741e-07 -6.99675e-24)
(-1.13947e-05 2.89926e-07 6.70851e-24)
(-1.08424e-05 4.1047e-07 0)
(-1.0264e-05 4.95955e-07 -7.96549e-24)
(-9.55626e-06 5.37784e-07 1.57979e-23)
(-8.81908e-06 5.81123e-07 7.65544e-27)
(-7.99397e-06 5.838e-07 -3.80411e-27)
(-7.15449e-06 5.7373e-07 3.7636e-27)
(-6.30645e-06 5.44579e-07 -3.75278e-27)
(-5.4197e-06 5.06673e-07 1.52379e-23)
(-4.53682e-06 4.49213e-07 -1.51887e-23)
(-3.64427e-06 3.87678e-07 0)
(-2.7746e-06 3.05366e-07 -3.01129e-23)
(-1.93367e-06 2.25819e-07 3.00021e-23)
(-1.14033e-06 1.31295e-07 2.99423e-23)
(-4.13776e-07 4.59961e-08 3.64384e-27)
(2.49697e-07 -4.99773e-08 2.97807e-23)
(8.46661e-07 -1.34464e-07 0)
(1.39746e-06 -2.29313e-07 0)
(1.9387e-06 -3.19942e-07 2.96754e-23)
(2.49632e-06 -4.29782e-07 -1.80204e-27)
(3.13111e-06 -5.52439e-07 2.95163e-23)
(3.87123e-06 -7.07364e-07 0)
(4.75838e-06 -8.93885e-07 -1.79041e-27)
(5.80536e-06 -1.12618e-06 -2.95434e-23)
(6.9987e-06 -1.39267e-06 1.78755e-27)
(8.31287e-06 -1.70241e-06 5.88923e-23)
(9.67067e-06 -2.02818e-06 5.88973e-23)
(1.1006e-05 -2.37192e-06 -2.18277e-27)
(1.22235e-05 -2.69583e-06 1.81164e-27)
(1.32585e-05 -2.99915e-06 -5.87258e-23)
(1.40508e-05 -3.24975e-06 -5.969e-23)
(1.45778e-05 -3.45181e-06 2.66829e-30)
(1.48361e-05 -3.59317e-06 5.98364e-23)
(1.48472e-05 -3.67707e-06 9.04269e-28)
(1.46373e-05 -3.70705e-06 -1.83261e-27)
(1.42465e-05 -3.68717e-06 9.06863e-28)
(1.36886e-05 -3.6213e-06 0)
(1.3007e-05 -3.51355e-06 5.95686e-23)
(1.21784e-05 -3.36081e-06 6.0904e-23)
(1.12794e-05 -3.17825e-06 5.94725e-23)
(1.02371e-05 -2.94467e-06 -6.06018e-23)
(9.27646e-06 -2.72465e-06 0)
(8.26052e-06 -2.47931e-06 -4.56273e-28)
(7.76711e-06 -2.3874e-06 -1.20946e-22)
(7.55408e-06 -2.38984e-06 0)
(9.04492e-06 -2.95057e-06 5.88722e-23)
(1.18233e-05 -3.97018e-06 5.85582e-23)
(1.96513e-05 -6.76477e-06 -4.85428e-27)
(3.18394e-05 -1.1329e-05 0)
(6.76482e-05 -2.42026e-05 -5.44104e-29)
(9.52039e-05 -0.000102853 -5.94746e-23)
(9.27593e-05 0.00112026 0)
(2.76937e-05 0.00101734 0)
(7.59483e-05 0.00138008 -1.95281e-24)
(0.000197698 0.00164528 6.06539e-29)
(0.000560439 0.00186126 1.95427e-23)
(0.000721336 0.00139887 -2.61892e-27)
(0.000698278 0.0012367 -2.02003e-27)
(0.000810178 0.00120794 1.24578e-26)
(0.0007955 0.00103164 6.66204e-23)
(0.00081446 0.000933495 0)
(0.000785208 0.000808246 0)
(0.000764907 0.000715711 7.79388e-23)
(0.000728049 0.000623895 -1.5221e-22)
(0.000693232 0.000548542 -7.97339e-23)
(0.000655812 0.000482187 1.51279e-22)
(0.0006168 0.000422483 -1.52097e-22)
(0.000579678 0.000372174 1.48807e-22)
(0.000542171 0.000326448 -1.4007e-22)
(0.000505422 0.000286307 -3.51048e-26)
(0.000471894 0.000252372 0)
(0.000437199 0.000220451 3.13421e-26)
(0.000404787 0.000193016 -6.2515e-26)
(0.00037441 0.000168937 2.93725e-26)
(0.000343695 0.00014654 1.161e-22)
(0.000315354 0.000127374 2.7167e-26)
(0.000288234 0.000110127 1.04542e-22)
(0.00026143 9.43732e-05 -1.02427e-22)
(0.000236913 8.09442e-05 -4.91762e-28)
(0.000212918 6.86331e-05 -9.03307e-23)
(0.000189997 5.77502e-05 -2.20144e-26)
(0.000169089 4.8474e-05 2.0025e-26)
(0.000148514 3.99773e-05 -7.81605e-23)
(0.000129364 3.26811e-05 7.58137e-23)
(0.000111771 2.64491e-05 -7.04768e-23)
(9.4852e-05 2.09285e-05 4.57688e-28)
(7.95441e-05 1.63484e-05 3.12352e-26)
(6.54385e-05 1.247e-05 -5.95094e-23)
(5.2378e-05 9.20765e-06 -5.73853e-23)
(4.08748e-05 6.61621e-06 5.3886e-23)
(3.03767e-05 4.49846e-06 5.05948e-23)
(2.11875e-05 2.86578e-06 -1.17331e-26)
(1.32753e-05 1.64747e-06 3.01999e-28)
(6.38237e-06 7.55426e-07 2.17862e-23)
(7.28653e-07 1.67138e-07 0)
(-3.97429e-06 -1.96058e-07 9.41582e-27)
(-7.65041e-06 -3.65246e-07 -1.04692e-26)
(-1.04459e-05 -3.99866e-07 8.87016e-24)
(-1.24523e-05 -3.24892e-07 8.56234e-24)
(-1.37281e-05 -1.92032e-07 -3.94921e-27)
(-1.43893e-05 -1.35491e-08 6.26852e-29)
(-1.44955e-05 1.74109e-07 3.76877e-24)
(-1.40893e-05 3.56075e-07 0)
(-1.34251e-05 5.0577e-07 0)
(-1.27249e-05 6.1144e-07 1.7137e-23)
(-1.18646e-05 6.6445e-07 5.57319e-28)
(-1.09665e-05 7.18673e-07 0)
(-9.95952e-06 7.23779e-07 -1.67184e-23)
(-8.93388e-06 7.12278e-07 4.07322e-27)
(-7.8969e-06 6.78398e-07 -4.01851e-27)
(-6.81201e-06 6.32768e-07 -3.27949e-23)
(-5.73113e-06 5.64099e-07 3.26971e-23)
(-4.63813e-06 4.89507e-07 -3.97686e-27)
(-3.57265e-06 3.9046e-07 3.24083e-23)
(-2.54216e-06 2.93852e-07 3.93639e-27)
(-1.56961e-06 1.79841e-07 -3.93951e-27)
(-6.78906e-07 7.6196e-08 3.91264e-27)
(1.34639e-07 -3.95557e-08 -3.20588e-23)
(8.66525e-07 -1.423e-07 3.20139e-23)
(1.54184e-06 -2.56902e-07 -3.89408e-27)
(2.20516e-06 -3.67399e-07 -3.19359e-23)
(2.88859e-06 -5.00751e-07 0)
(3.66658e-06 -6.50873e-07 0)
(4.57408e-06 -8.40059e-07 0)
(5.66219e-06 -1.06887e-06 1.92694e-27)
(6.94718e-06 -1.35335e-06 -1.94194e-27)
(8.4124e-06 -1.68045e-06 0)
(1.00268e-05 -2.05998e-06 -6.33845e-23)
(1.16956e-05 -2.45963e-06 6.33855e-23)
(1.33376e-05 -2.88048e-06 6.32628e-23)
(1.48353e-05 -3.27737e-06 6.38521e-23)
(1.61091e-05 -3.64804e-06 1.6481e-27)
(1.70845e-05 -3.95443e-06 6.42418e-23)
(1.77337e-05 -4.20048e-06 0)
(1.80521e-05 -4.37228e-06 1.60963e-28)
(1.80658e-05 -4.47309e-06 0)
(1.7807e-05 -4.50781e-06 -6.46339e-23)
(1.73247e-05 -4.48076e-06 0)
(1.66354e-05 -4.39709e-06 -9.92061e-28)
(1.57915e-05 -4.26121e-06 -6.41103e-23)
(1.47644e-05 -4.06931e-06 -6.55475e-23)
(1.3646e-05 -3.83931e-06 -6.401e-23)
(1.23469e-05 -3.54549e-06 6.52245e-23)
(1.11402e-05 -3.26601e-06 0)
(9.86025e-06 -2.95458e-06 0)
(9.20981e-06 -2.82817e-06 1.30172e-22)
(8.90121e-06 -2.81923e-06 6.45091e-23)
(1.0666e-05 -3.49132e-06 -1.26727e-22)
(1.40151e-05 -4.7374e-06 3.92402e-27)
(2.35233e-05 -8.15476e-06 1.24595e-22)
(3.83855e-05 -1.37921e-05 1.16718e-28)
(8.19479e-05 -2.94897e-05 -6.01082e-23)
(0.000115686 -0.000125363 2.56049e-22)
(0.000100244 0.00132706 0)
(3.50271e-05 0.00121374 2.10517e-24)
(9.51475e-05 0.00163817 -6.26997e-27)
(0.000238817 0.00195006 7.07055e-27)
(0.000662736 0.00220481 -4.77679e-26)
(0.000856803 0.0016714 5.90863e-23)
(0.000832762 0.0014779 -2.9119e-26)
(0.000964689 0.0014409 -7.27438e-27)
(0.000949387 0.00123442 -7.15718e-23)
(0.00097218 0.00111675 3.83812e-27)
(0.000938519 0.000968364 8.09512e-23)
(0.000914673 0.000857734 -8.3704e-23)
(0.000871309 0.000748313 0)
(0.000830048 0.000658188 8.56833e-23)
(0.000785636 0.00057884 1.62612e-22)
(0.000739254 0.000507393 1.63697e-22)
(0.000695023 0.000447119 -1.60042e-22)
(0.000650301 0.000392336 1.50596e-22)
(0.00060645 0.000344215 0)
(0.000566377 0.000303499 3.52852e-26)
(0.000524927 0.000265219 -3.40055e-26)
(0.000486158 0.000232282 0)
(0.000449794 0.000203368 0)
(0.000413039 0.000176481 0)
(0.000379086 0.000153447 0)
(0.000346585 0.000132722 -1.12538e-22)
(0.000314465 0.000113789 0)
(0.000285056 9.76341e-05 0)
(0.000256273 8.28277e-05 1.9442e-22)
(0.000228772 6.97318e-05 -2.36889e-26)
(0.000203664 5.85616e-05 2.15488e-26)
(0.000178958 4.83321e-05 8.40533e-23)
(0.000155952 3.95396e-05 -8.15594e-23)
(0.000134803 3.2026e-05 -5.63235e-27)
(0.000114465 2.53688e-05 7.22188e-23)
(9.60498e-05 1.98395e-05 1.65706e-26)
(7.90736e-05 1.51553e-05 6.4001e-23)
(6.33513e-05 1.12124e-05 6.17532e-23)
(4.94921e-05 8.07587e-06 -5.79455e-23)
(3.68397e-05 5.51087e-06 -5.44605e-23)
(2.57567e-05 3.52975e-06 -1.29801e-26)
(1.62061e-05 2.04866e-06 1.18051e-26)
(7.88072e-06 9.61573e-07 -9.82953e-27)
(1.04315e-06 2.41211e-07 0)
(-4.65026e-06 -2.06154e-07 0)
(-9.1088e-06 -4.19029e-07 4.04999e-23)
(-1.25069e-05 -4.67475e-07 9.83422e-27)
(-1.49543e-05 -3.83288e-07 -9.21467e-24)
(-1.65212e-05 -2.26986e-07 0)
(-1.73464e-05 -1.51314e-08 0)
(-1.75019e-05 2.09187e-07 0)
(-1.70391e-05 4.27663e-07 0)
(-1.62607e-05 6.09455e-07 9.34792e-24)
(-1.5434e-05 7.37334e-07 -1.84435e-23)
(-1.44137e-05 8.03084e-07 -1.8298e-23)
(-1.33457e-05 8.69647e-07 -1.81563e-23)
(-1.2146e-05 8.78147e-07 1.79881e-23)
(-1.09226e-05 8.65668e-07 -1.79034e-23)
(-9.68457e-06 8.27521e-07 4.32486e-27)
(-8.38857e-06 7.74177e-07 1.76452e-23)
(-7.09641e-06 6.94278e-07 -1.75969e-23)
(-5.78937e-06 6.06268e-07 3.50005e-23)
(-4.5146e-06 4.90097e-07 4.25132e-27)
(-3.28142e-06 3.75807e-07 -1.207e-29)
(-2.11711e-06 2.41734e-07 -4.23986e-27)
(-1.05072e-06 1.19037e-07 -4.21095e-27)
(-7.65277e-08 -1.70715e-08 8.78557e-30)
(7.99721e-07 -1.38811e-07 -6.8888e-23)
(1.60821e-06 -2.73821e-07 -3.42957e-23)
(2.40201e-06 -4.05123e-07 -3.43754e-23)
(3.21992e-06 -5.63067e-07 4.16758e-27)
(4.15101e-06 -7.42272e-07 -6.67275e-30)
(5.23767e-06 -9.67822e-07 -4.17958e-27)
(6.54118e-06 -1.2418e-06 0)
(8.08167e-06 -1.58201e-06 4.17616e-27)
(9.83912e-06 -1.97403e-06 -4.14333e-27)
(1.17767e-05 -2.42825e-06 -3.1874e-27)
(1.37805e-05 -2.90702e-06 -1.3644e-22)
(1.57532e-05 -3.41027e-06 0)