/*--------------------------------*- C++ -*----------------------------------*\
| =========                 |                                                 |
| \\      /  F ield         | OpenFOAM: The Open Source CFD Toolbox           |
|  \\    /   O peration     | Version:  5.x                                   |
|   \\  /    A nd           | Web:      www.OpenFOAM.org                      |
|    \\/     M anipulation  |                                                 |
\*---------------------------------------------------------------------------*/
FoamFile
{
    version     2.0;
    format      ascii;
    class       volVectorField;
    location    "1000";
    object      wallShearStress;
}
// * * * * * * * * * * * * * * * * * * * * * * * * * * * * * * * * * * * * * //

dimensions      [0 2 -2 0 0 0 0];

internalField   uniform (0 0 0);

boundaryField
{
    inlet
    {
        type            calculated;
        value           uniform (0 0 0);
    }
    outlet
    {
        type            calculated;
        value           uniform (0 0 0);
    }
    walls
    {
        type            calculated;
        value           nonuniform List<vector> 
204
(
(-1.21879e-05 -2.12106e-05 1.06337e-28)
(-3.88658e-07 -1.85828e-05 -1.01167e-28)
(-1.07885e-06 -2.58149e-05 -2.51417e-25)
(-3.3968e-06 -3.07645e-05 -3.27107e-25)
(-1.0586e-05 -3.48683e-05 2.47385e-24)
(-1.35956e-05 -2.56654e-05 -7.11862e-24)
(-1.28516e-05 -2.25709e-05 -5.35216e-24)
(-1.51709e-05 -2.24678e-05 -1.82777e-28)
(-1.4861e-05 -1.90526e-05 1.04815e-27)
(-1.53374e-05 -1.74195e-05 1.17138e-27)
(-1.48118e-05 -1.50905e-05 1.27863e-27)
(-1.45026e-05 -1.34441e-05 -1.02152e-23)
(-1.38452e-05 -1.17519e-05 -2.00732e-23)
(-1.32318e-05 -1.03753e-05 -1.75625e-27)
(-1.25549e-05 -9.14781e-06 2.01456e-23)
(-1.18437e-05 -8.03987e-06 -2.03566e-23)
(-1.11599e-05 -7.10198e-06 -2.43954e-27)
(-1.04667e-05 -6.24611e-06 -7.46163e-40)
(-9.7801e-06 -5.4908e-06 3.88856e-23)
(-9.1525e-06 -4.85103e-06 1.83064e-23)
(-8.49872e-06 -4.24565e-06 4.64917e-40)
(-7.88466e-06 -3.72459e-06 -5.73972e-42)
(-7.30857e-06 -3.26587e-06 1.64129e-23)
(-6.72205e-06 -2.83704e-06 -1.59823e-23)
(-6.17865e-06 -2.46963e-06 -1.54869e-23)
(-5.65806e-06 -2.13805e-06 -2.89671e-23)
(-5.14001e-06 -1.83373e-06 1.42361e-23)
(-4.66489e-06 -1.57423e-06 -1.35138e-23)
(-4.19855e-06 -1.33535e-06 1.2618e-23)
(-3.75061e-06 -1.12365e-06 1.24854e-23)
(-3.34127e-06 -9.4303e-07 -1.16607e-23)
(-2.9368e-06 -7.76904e-07 8.0643e-40)
(-2.55893e-06 -6.34204e-07 1.07021e-23)
(-2.21118e-06 -5.12158e-07 -1.20051e-27)
(-1.87537e-06 -4.03773e-07 1.17895e-27)
(-1.57092e-06 -3.13944e-07 3.53935e-28)
(-1.28993e-06 -2.37873e-07 -8.47828e-24)
(-1.02901e-06 -1.73839e-07 -2.91626e-28)
(-7.9912e-07 -1.23217e-07 9.27407e-28)
(-5.88974e-07 -8.18924e-08 7.25255e-24)
(-4.04997e-07 -5.02485e-08 -8.65682e-28)
(-2.46734e-07 -2.68327e-08 2.10762e-40)
(-1.08838e-07 -9.88657e-09 -1.34525e-43)
(3.8319e-09 9.7859e-10 2.97707e-24)
(9.73286e-08 7.48015e-09 1.79366e-43)
(1.69898e-07 1.00472e-08 5.43235e-24)
(2.24566e-07 1.0124e-08 1.28244e-24)
(2.63189e-07 7.95088e-09 1.23607e-24)
(2.86909e-07 4.85974e-09 1.56945e-43)
(2.98156e-07 8.21309e-10 3.52952e-44)
(2.98113e-07 -3.26561e-09 5.43893e-25)
(2.87632e-07 -7.17744e-09 5.0961e-28)
(2.72334e-07 -1.01601e-08 1.25437e-24)
(2.56496e-07 -1.23916e-08 1.23665e-24)
(2.37326e-07 -1.33308e-08 2.44951e-24)
(2.1768e-07 -1.44386e-08 -2.42723e-24)
(1.95794e-07 -1.43442e-08 4.80055e-24)
(1.73629e-07 -1.40831e-08 2.90119e-28)
(1.51462e-07 -1.31571e-08 -2.35823e-24)
(1.28426e-07 -1.21863e-08 2.33777e-24)
(1.05674e-07 -1.05654e-08 -4.48416e-44)
(8.27874e-08 -9.01854e-09 4.61174e-24)
(6.06485e-08 -6.76347e-09 -2.80217e-28)
(3.93623e-08 -4.76836e-09 -4.55376e-24)
(1.9426e-08 -2.23522e-09 -2.76996e-28)
(1.26611e-09 -1.20137e-10 4.49875e-24)
(-1.51881e-08 2.42832e-09 1.3688e-28)
(-2.99037e-08 4.4946e-09 -1.57125e-40)
(-4.33656e-08 6.96407e-09 4.42724e-24)
(-5.65343e-08 9.13462e-09 8.05747e-45)
(-7.00018e-08 1.19172e-08 4.38136e-24)
(-8.52873e-08 1.48157e-08 8.74001e-24)
(-1.02996e-07 1.86203e-08 -2.547e-41)
(-1.24175e-07 2.30052e-08 -1.31633e-28)
(-1.49007e-07 2.85784e-08 1.32199e-28)
(-1.77158e-07 3.48131e-08 1.30505e-28)
(-2.07943e-07 4.21761e-08 -8.56963e-24)
(-2.3949e-07 4.97538e-08 1.70774e-23)
(-2.7021e-07 5.78374e-08 0)
(-2.97861e-07 6.53022e-08 -4.1326e-40)
(-3.20982e-07 7.23457e-08 -8.42189e-24)
(-3.38222e-07 7.79937e-08 8.5292e-24)
(-3.49118e-07 8.25766e-08 -8.3801e-24)
(-3.53736e-07 8.56372e-08 -1.29496e-28)
(-3.52608e-07 8.74016e-08 6.37896e-29)
(-3.46475e-07 8.78555e-08 -8.45379e-24)
(-3.36249e-07 8.72291e-08 -1.31654e-28)
(-3.22401e-07 8.55237e-08 -7.27189e-32)
(-3.0592e-07 8.2927e-08 6.32181e-29)
(-2.86364e-07 7.93448e-08 8.44468e-24)
(-2.65543e-07 7.51981e-08 0)
(-2.4182e-07 6.99528e-08 6.36034e-29)
(-2.20451e-07 6.51491e-08 -9.44929e-29)
(-1.98153e-07 5.98153e-08 3.12347e-29)
(-1.88168e-07 5.80898e-08 2.46842e-30)
(-1.84549e-07 5.83297e-08 8.12424e-24)
(-2.19577e-07 7.11261e-08 -7.94982e-24)
(-2.82735e-07 9.31956e-08 1.5755e-23)
(-4.58844e-07 1.54642e-07 2.9589e-29)
(-7.30417e-07 2.5163e-07 -7.65636e-24)
(-1.53726e-06 5.40209e-07 -2.70233e-28)
(-2.2912e-06 3.76748e-06 -1.40128e-23)
(5.2352e-06 -1.83343e-05 4.08582e-24)
(3.1319e-06 -9.17251e-06 -1.07153e-23)
(3.30938e-06 -6.44215e-06 8.90155e-28)
(6.68505e-07 -1.0489e-06 -1.36781e-23)
(-1.16978e-06 1.36918e-06 1.41649e-23)
(-3.7302e-06 3.70435e-06 -1.26325e-23)
(-5.55134e-06 4.68248e-06 1.51116e-27)
(-7.23279e-06 5.25364e-06 -2.27078e-40)
(-8.34269e-06 5.2784e-06 -2.86986e-42)
(-9.2034e-06 5.11621e-06 -8.70025e-24)
(-9.69375e-06 4.76954e-06 -1.53578e-27)
(-1.00302e-05 4.39136e-06 6.92246e-24)
(-1.01392e-05 3.96857e-06 1.16525e-23)
(-1.0171e-05 3.57117e-06 -5.33059e-24)
(-1.01018e-05 3.18902e-06 2.23085e-27)
(-9.95494e-06 2.82933e-06 -3.92705e-24)
(-9.8021e-06 2.50831e-06 7.03212e-24)
(-9.58511e-06 2.20947e-06 2.86986e-42)
(-9.3715e-06 1.94489e-06 -1.29557e-24)
(-9.15322e-06 1.7062e-06 1.82954e-41)
(-8.89806e-06 1.48663e-06 2.05217e-28)
(-8.68178e-06 1.29575e-06 1.60583e-24)
(-8.44384e-06 1.12153e-06 -4.92218e-29)
(-8.20679e-06 9.65746e-07 -4.39694e-29)
(-7.99564e-06 8.26103e-07 -4.37997e-25)
(-7.76375e-06 6.993e-07 -3.36131e-25)
(-7.55717e-06 5.8811e-07 2.60742e-25)
(-7.35596e-06 4.85733e-07 3.92364e-44)
(-7.14518e-06 3.94553e-07 4.59427e-29)
(-6.96527e-06 3.1362e-07 -4.47357e-29)
(-6.77736e-06 2.39401e-07 6.93605e-27)
(-6.59709e-06 1.74935e-07 -1.05097e-45)
(-6.43627e-06 1.15073e-07 -1.74126e-26)
(-6.26403e-06 6.22277e-08 1.27578e-26)
(-6.11503e-06 1.64334e-08 4.14372e-27)
(-5.96749e-06 -2.70053e-08 -9.90885e-27)
(-5.81969e-06 -6.31796e-08 -8.15973e-29)
(-5.69412e-06 -9.67542e-08 5.08082e-26)
(-5.55933e-06 -1.26293e-07 1.01172e-28)
(-5.44223e-06 -1.5059e-07 -1.16515e-25)
(-5.33023e-06 -1.74495e-07 1.23809e-25)
(-5.2173e-06 -1.92685e-07 -6.40445e-29)
(-5.12506e-06 -2.10068e-07 2.68649e-25)
(-5.02469e-06 -2.24321e-07 -2.73467e-25)
(-4.94398e-06 -2.35356e-07 -5.63299e-25)
(-4.86379e-06 -2.46362e-07 6.86417e-29)
(-4.79163e-06 -2.5287e-07 5.82914e-25)
(-4.73211e-06 -2.60257e-07 -5.97767e-25)
(-4.67223e-06 -2.63668e-07 6.0894e-29)
(-4.63234e-06 -2.67411e-07 -7.36932e-29)
(-4.58871e-06 -2.68444e-07 -7.67865e-29)
(-4.57176e-06 -2.66109e-07 7.57713e-29)
(-4.57716e-06 -2.68952e-07 -7.89237e-25)
(-4.56238e-06 -2.75425e-07 -8.16335e-25)
(-4.55165e-06 -2.80158e-07 1.95255e-29)
(-4.54603e-06 -2.88624e-07 -1.06582e-28)
(-4.5219e-06 -2.99099e-07 2.17315e-28)
(-4.49218e-06 -3.07131e-07 -1.0972e-28)
(-4.46561e-06 -3.13057e-07 -9.31531e-25)
(-4.4409e-06 -3.19247e-07 1.00893e-43)
(-4.412e-06 -3.24285e-07 -1.94764e-24)
(-4.38922e-06 -3.28121e-07 9.93343e-25)
(-4.36712e-06 -3.32567e-07 -1.24924e-28)
(-4.34355e-06 -3.35512e-07 2.51777e-28)
(-4.3275e-06 -3.38309e-07 1.0484e-24)
(-4.30931e-06 -3.4117e-07 1.31507e-28)
(-4.29493e-06 -3.42855e-07 -1.98131e-28)
(-4.28473e-06 -3.45087e-07 6.65201e-29)
(-4.27313e-06 -3.46627e-07 -4.15905e-41)
(-4.26811e-06 -3.47838e-07 -1.1355e-24)
(-4.26341e-06 -3.49398e-07 -7.10336e-29)
(-4.26133e-06 -3.50253e-07 1.17524e-24)
(-4.26374e-06 -3.51406e-07 -1.1848e-24)
(-4.26609e-06 -3.52348e-07 -7.45234e-29)
(-4.27396e-06 -3.53094e-07 7.40267e-29)
(-4.28283e-06 -3.54112e-07 0)
(-4.29541e-06 -3.54884e-07 1.26792e-24)
(-4.31087e-06 -3.55857e-07 -1.27635e-24)
(-4.32881e-06 -3.56845e-07 8.96831e-44)
(-4.3508e-06 -3.5788e-07 1.31607e-24)
(-4.37502e-06 -3.59119e-07 2.69511e-24)
(-4.40355e-06 -3.60447e-07 2.72823e-24)
(-4.43469e-06 -3.61977e-07 1.38771e-24)
(-4.47024e-06 -3.63766e-07 -1.41467e-24)
(-4.50903e-06 -3.65741e-07 -1.43103e-24)
(-4.55217e-06 -3.68085e-07 -2.93335e-24)
(-4.5998e-06 -3.70692e-07 -1.28426e-40)
(-4.65141e-06 -3.73711e-07 4.68653e-29)
(-4.70968e-06 -3.77175e-07 -4.63316e-29)
(-4.77093e-06 -3.81065e-07 1.57174e-24)
(-4.84223e-06 -3.85709e-07 1.60072e-24)
(-4.91441e-06 -3.90668e-07 -1.11318e-30)
(-5.00295e-06 -3.96939e-07 5.08375e-29)
(-5.08671e-06 -4.03059e-07 1.67593e-24)
(-5.2057e-06 -4.12151e-07 -1.72765e-24)
(-5.29132e-06 -4.18887e-07 -1.78979e-24)
(-5.47751e-06 -4.33718e-07 -3.58678e-24)
(-5.52664e-06 -4.38406e-07 -2.24208e-44)
(-5.90269e-06 -4.68769e-07 -1.86236e-24)
(-5.77726e-06 -4.6126e-07 7.29088e-30)
(-6.94687e-06 -5.55235e-07 -1.87855e-24)
(-6.26632e-06 -3.32324e-06 -4.41218e-24)
)
;
    }
    frontAndBack
    {
        type            empty;
    }
}


// ************************************************************************* //
