/*--------------------------------*- C++ -*----------------------------------*\
| =========                 |                                                 |
| \\      /  F ield         | OpenFOAM: The Open Source CFD Toolbox           |
|  \\    /   O peration     | Version:  5.x                                   |
|   \\  /    A nd           | Web:      www.OpenFOAM.org                      |
|    \\/     M anipulation  |                                                 |
\*---------------------------------------------------------------------------*/
FoamFile
{
    version     2.0;
    format      ascii;
    class       volScalarField;
    location    "1000";
    object      yPlus;
}
// * * * * * * * * * * * * * * * * * * * * * * * * * * * * * * * * * * * * * //

dimensions      [0 0 0 0 0 0 0];

internalField   uniform 0;

boundaryField
{
    inlet
    {
        type            calculated;
        value           uniform 0;
    }
    outlet
    {
        type            calculated;
        value           uniform 0;
    }
    walls
    {
        type            calculated;
        value           nonuniform List<scalar> 
204
(
0.0166674
0.0150014
0.0178168
0.0196664
0.0213767
0.0186446
0.0177202
0.0179439
0.0167861
0.0163121
0.0154416
0.0148279
0.0141119
0.0134994
0.0129069
0.0123258
0.0117982
0.0112744
0.0107717
0.0103154
0.00984008
0.00939574
0.00897238
0.00853558
0.00812662
0.0077232
0.00731224
0.00692576
0.0065313
0.00613912
0.00576575
0.00537772
0.0049968
0.00462491
0.00424103
0.00386707
0.00349142
0.00310758
0.00273037
0.0023371
0.00193299
0.00150524
0.00099746
0.000189412
0.000940703
0.00124114
0.00142554
0.00154213
0.00160952
0.00164055
0.00164072
0.0016124
0.00156953
0.00152493
0.00146955
0.00140973
0.00133999
0.00126542
0.00118494
0.00109426
0.000995361
0.000883743
0.000758604
0.000613169
0.000431849
0.000110425
0.000385291
0.000541958
0.000655177
0.000750545
0.000838518
0.000928853
0.00102487
0.00112956
0.00124241
0.00136008
0.00147957
0.0015944
0.00170068
0.00179314
0.00186942
0.00192717
0.00196656
0.00198812
0.00199379
0.00198506
0.00196439
0.0019321
0.00189063
0.00183751
0.00177754
0.00170411
0.0016345
0.00155689
0.0015243
0.00151674
0.0016625
0.00189507
0.00242566
0.00307509
0.00448456
0.00659726
0.0146127
0.0104894
0.00883637
0.00358193
0.00419931
0.00698299
0.00799631
0.00865888
0.00890861
0.0090333
0.0090126
0.0089616
0.00885058
0.00874175
0.00861853
0.00848589
0.00836821
0.00823945
0.0081241
0.0080141
0.00789524
0.00779826
0.00769566
0.00759664
0.00750927
0.0074144
0.00733283
0.00725202
0.00716795
0.00709862
0.00702411
0.00695466
0.00689281
0.00682518
0.00677048
0.00671395
0.00665865
0.00661441
0.00656432
0.0065257
0.00648775
0.00645082
0.00642552
0.00639513
0.00637831
0.00636038
0.0063497
0.00634619
0.00634415
0.00635551
0.00636543
0.00639649
0.00643717
0.00645698
0.0064803
0.00650497
0.00651444
0.00652057
0.00652976
0.00653986
0.00654695
0.00655901
0.00657104
0.00658234
0.00659941
0.00661458
0.00663312
0.0066547
0.00667532
0.00670135
0.00672749
0.00675603
0.00678819
0.00682042
0.00685736
0.00689514
0.0069362
0.00697974
0.00702551
0.00707482
0.00712613
0.00718122
0.00723866
0.00729995
0.00736416
0.00743215
0.00750408
0.00757948
0.00766058
0.0077443
0.00783643
0.00792943
0.00803582
0.0081385
0.00826937
0.00837378
0.00855727
0.00863335
0.0089614
0.00890469
0.00980878
0.00936011
)
;
    }
    frontAndBack
    {
        type            empty;
    }
}


// ************************************************************************* //
