/*--------------------------------*- C++ -*----------------------------------*\
| =========                 |                                                 |
| \\      /  F ield         | OpenFOAM: The Open Source CFD Toolbox           |
|  \\    /   O peration     | Version:  5.x                                   |
|   \\  /    A nd           | Web:      www.OpenFOAM.org                      |
|    \\/     M anipulation  |                                                 |
\*---------------------------------------------------------------------------*/
FoamFile
{
    version     2.0;
    format      ascii;
    class       volVectorField;
    location    "1300";
    object      U;
}
// * * * * * * * * * * * * * * * * * * * * * * * * * * * * * * * * * * * * * //

dimensions      [0 1 -1 0 0 0 0];

internalField   nonuniform List<vector> 
11040
(
(-4.50706 25.0888 0)
(-0.631924 30.5776 -1.53155e-19)
(5.6983 33.7789 1.58425e-17)
(11.5762 32.7425 1.83038e-17)
(16.0357 29.4381 3.79914e-17)
(19.1038 25.279 -1.81778e-17)
(21.0031 20.9323 -1.77027e-17)
(21.9292 16.791 1.7658e-17)
(22.0562 13.0683 3.85957e-17)
(21.4741 9.79742 1.24204e-18)
(19.8738 6.69364 1.67342e-17)
(17.6943 4.20193 -7.10128e-19)
(15.8089 2.69513 1.02753e-17)
(14.4963 1.91551 6.85696e-18)
(13.2026 1.32216 2.82813e-18)
(11.5917 0.756415 -6.12023e-19)
(9.67366 0.287703 3.14717e-18)
(7.5515 -0.0363829 8.32743e-19)
(5.24789 -0.223164 -9.81646e-19)
(2.77291 -0.276394 -1.46325e-17)
(0.474998 -0.155848 -2.23043e-17)
(-1.12144 0.0324171 -3.17497e-17)
(-2.00281 0.14964 -6.0273e-17)
(-2.53692 0.235775 -3.82938e-18)
(-2.83354 0.305355 -1.63661e-20)
(-2.97517 0.360474 2.00849e-18)
(-3.03635 0.408842 -1.30782e-16)
(-3.06992 0.458255 2.0533e-18)
(-3.10656 0.509008 -1.33856e-16)
(-3.16467 0.560782 1.29061e-16)
(-3.25557 0.617309 2.00132e-18)
(-3.38863 0.681166 9.58836e-19)
(-3.56714 0.751773 -9.04581e-19)
(-3.77707 0.823138 0)
(-3.97079 0.881178 2.02194e-16)
(-4.05406 0.903886 0)
(-3.91901 0.867775 0)
(-3.53956 0.759085 -3.69671e-19)
(-2.75404 0.492004 4.42013e-19)
(-1.62336 -0.141801 -2.16338e-16)
(-1.56401 -0.999022 -1.95365e-16)
(-0.273927 24.3953 0)
(4.02906 28.5192 0)
(11.7127 30.0624 -8.95864e-18)
(18.2452 28.7812 9.33191e-18)
(22.9265 26.687 -2.24981e-17)
(26.1933 24.3335 2.28362e-17)
(28.3046 21.6614 1.08302e-17)
(29.3781 18.7255 1.38848e-18)
(29.5628 15.6789 -9.0077e-19)
(29.0208 12.6894 1.05307e-17)
(27.636 9.65967 -1.17142e-18)
(25.3314 7.05286 0)
(22.7289 5.18352 0)
(20.4154 3.88536 -3.15044e-18)
(18.363 2.82109 -1.49481e-18)
(16.2761 1.96065 5.84795e-19)
(14.0227 1.2998 0)
(11.5488 0.805965 -3.55504e-19)
(8.81129 0.462074 1.33172e-18)
(5.85588 0.260453 1.29591e-18)
(2.84738 0.18266 7.69939e-18)
(0.497417 0.197272 1.11379e-17)
(-0.91735 0.232553 1.6851e-18)
(-1.82096 0.273613 -2.9521e-17)
(-2.37553 0.31936 2.79698e-17)
(-2.69992 0.366186 2.00369e-18)
(-2.90341 0.416604 6.7405e-17)
(-3.05439 0.470337 -1.09201e-18)
(-3.18829 0.527288 7.25543e-17)
(-3.3279 0.588959 -7.21576e-17)
(-3.48091 0.656152 -7.25845e-17)
(-3.64832 0.729059 7.14565e-17)
(-3.82191 0.804616 -1.40508e-21)
(-3.98158 0.875174 -1.45412e-18)
(-4.08997 0.927425 -5.76996e-17)
(-4.09175 0.939991 0)
(-3.93905 0.893459 -3.98709e-19)
(-3.52493 0.777091 9.46385e-17)
(-2.56003 0.554548 9.64565e-17)
(-0.745633 -0.033686 9.0047e-17)
(-0.277406 -1.14699 1.27757e-16)
(1.51383 23.4648 0)
(5.47005 26.6002 0)
(10.8828 28.2014 2.34369e-18)
(15.9452 28.0851 -6.7667e-18)
(20.0428 26.7065 6.97732e-18)
(23.4049 24.6128 -8.31456e-18)
(26.0915 22.1198 -6.31478e-18)
(28.0387 19.4049 0)
(29.2175 16.5973 -9.66931e-18)
(29.6706 13.8088 -5.38958e-18)
(29.3386 10.9691 0)
(28.0526 8.44121 0)
(26.134 6.47778 -3.5466e-18)
(24.055 4.98814 -2.23601e-18)
(21.9279 3.72782 -4.95639e-20)
(19.6756 2.70107 5.19822e-20)
(17.2598 1.91217 0)
(14.6572 1.32849 0)
(11.8066 0.91939 -2.91772e-19)
(8.67614 0.648569 8.21215e-19)
(5.35288 0.478726 -9.2637e-19)
(2.54676 0.378919 4.39663e-18)
(0.636845 0.320039 -3.5299e-20)
(-0.682003 0.299875 -1.40423e-17)
(-1.53759 0.311953 -1.14266e-18)
(-2.08421 0.344337 -1.24263e-18)
(-2.451 0.392006 -1.58016e-21)
(-2.71164 0.44808 1.38995e-18)
(-2.91641 0.509481 0)
(-3.09723 0.575184 0)
(-3.26978 0.644186 9.52612e-17)
(-3.44149 0.71573 -9.28965e-17)
(-3.61302 0.786371 4.42778e-17)
(-3.77633 0.849154 0)
(-3.90643 0.892692 3.95395e-17)
(-3.94987 0.893614 3.72064e-17)
(-3.83911 0.816899 0)
(-3.47986 0.641837 1.32093e-19)
(-2.58611 0.335646 -2.19845e-19)
(-0.792352 -0.366179 0)
(-0.210302 -1.7019 -5.49691e-17)
(3.33155 22.4026 1.03314e-19)
(7.0312 24.8593 -1.06669e-19)
(11.2588 26.2142 2.95663e-19)
(15.6865 26.3223 0)
(19.5511 25.2839 -7.23371e-18)
(22.6769 23.5576 0)
(25.1469 21.418 1.40581e-17)
(26.987 19.0289 1.19279e-20)
(28.2187 16.5289 1.35787e-18)
(28.8934 14.0335 8.25937e-18)
(29.0153 11.5061 1.18786e-18)
(28.4414 9.18774 2.75888e-18)
(27.2846 7.31359 6.29111e-18)
(25.8348 5.84789 1.74471e-18)
(24.1786 4.57404 0)
(22.2503 3.48217 1.7668e-19)
(20.0298 2.60181 2.52655e-19)
(17.5332 1.92975 7.03623e-19)
(14.7392 1.44742 4.71984e-19)
(11.6088 1.11364 -5.01833e-19)
(8.15235 0.871251 -2.75206e-18)
(5.00938 0.671889 -3.94011e-18)
(2.59969 0.506174 0)
(0.787599 0.397935 2.51684e-17)
(-0.449658 0.349708 -1.52363e-17)
(-1.26903 0.346786 1.42641e-17)
(-1.82284 0.376668 -2.98378e-17)
(-2.20864 0.424979 0)
(-2.49702 0.483567 0)
(-2.72797 0.548028 0)
(-2.92795 0.616199 -3.397e-17)
(-3.11489 0.687184 3.47316e-17)
(-3.29962 0.757334 -1.00542e-18)
(-3.48241 0.818388 -3.18254e-17)
(-3.64337 0.856438 -2.78662e-17)
(-3.73062 0.844207 -2.74256e-17)
(-3.6782 0.739203 -4.80599e-17)
(-3.40694 0.513464 -4.20504e-17)
(-2.65968 0.140834 -1.51269e-19)
(-1.0772 -0.602786 -3.49379e-17)
(-0.504235 -2.03243 2.12288e-17)
(5.15184 21.237 0)
(8.39452 23.1644 1.53938e-19)
(11.7665 24.2809 -5.16301e-20)
(15.407 24.6024 2.86686e-19)
(18.8016 24.0296 5.43244e-18)
(21.71 22.7727 -5.0533e-18)
(24.1173 21.0224 -1.85306e-18)
(25.9842 18.9271 -6.50693e-18)
(27.2855 16.6436 0)
(28.0563 14.3107 -7.61025e-18)
(28.3348 11.9476 0)
(28.0643 9.74609 -1.68316e-18)
(27.3181 7.92393 -3.3943e-18)
(26.3104 6.48842 0)
(25.1352 5.26064 5.44167e-19)
(23.715 4.19589 0)
(21.9784 3.31379 0)
(19.9016 2.61745 -3.74308e-19)
(17.4516 2.09669 -5.54326e-19)
(14.5801 1.71768 0)
(11.2386 1.4169 2.0619e-18)
(7.96967 1.13218 0)
(5.16373 0.851966 0)
(2.80819 0.618264 -8.38072e-18)
(1.05099 0.468089 0)
(-0.158395 0.399172 1.15154e-17)
(-0.974486 0.390255 2.41209e-17)
(-1.53565 0.416473 0)
(-1.94022 0.463103 0)
(-2.2446 0.520785 0)
(-2.48923 0.585185 2.76307e-17)
(-2.70294 0.654608 2.34458e-17)
(-2.90682 0.724708 -2.43574e-17)
(-3.11049 0.785015 -7.58401e-19)
(-3.30181 0.817871 6.99282e-19)
(-3.43582 0.791897 0)
(-3.45391 0.658912 3.76698e-17)
(-3.29221 0.383346 -3.28266e-17)
(-2.73147 -0.0523573 2.96105e-17)
(-1.4539 -0.814068 2.67264e-17)
(-0.961381 -2.22491 3.60014e-20)
(6.82475 20.0093 -2.30161e-19)
(9.58878 21.516 -2.76401e-20)
(12.3242 22.424 7.08281e-19)
(15.281 22.8464 -1.40323e-19)
(18.196 22.6034 -6.49361e-19)
(20.8287 21.7586 4.95766e-18)
(23.1116 20.4272 -6.10548e-18)
(24.977 18.71 5.31833e-18)
(26.3595 16.7332 2.40586e-18)
(27.2518 14.6261 -1.22262e-18)
(27.6736 12.4367 0)
(27.5959 10.3287 0)
(27.0744 8.51209 6.17923e-19)
(26.2877 7.04797 -6.55123e-19)
(25.3687 5.82383 -8.18852e-19)
(24.2986 4.78502 -2.34171e-19)
(23.0103 3.93297 7.85543e-19)
(21.453 3.26487 1.50062e-19)
(19.5601 2.76469 1.13486e-18)
(17.2393 2.39603 -2.5571e-18)
(14.3574 2.0872 3.81839e-18)
(11.302 1.76361 -2.05987e-18)
(8.36664 1.39741 1.21842e-18)
(5.57395 1.02751 1.50833e-18)
(3.22584 0.731856 -9.12752e-18)
(1.46672 0.546232 1.19851e-20)
(0.239452 0.460263 -2.28502e-17)
(-0.600359 0.441388 -1.8835e-17)
(-1.19002 0.461601 0)
(-1.61582 0.503275 0)
(-1.93825 0.558337 -1.99526e-17)
(-2.19892 0.623103 -4.34027e-17)
(-2.43021 0.691793 -1.27507e-18)
(-2.65397 0.751255 1.94013e-17)
(-2.8717 0.779756 1.92842e-17)
(-3.05218 0.741695 -1.75617e-17)
(-3.14772 0.583655 4.83895e-19)
(-3.11022 0.262813 5.37872e-17)
(-2.7614 -0.230378 -4.79873e-17)
(-1.84281 -1.00664 8.24318e-20)
(-1.48586 -2.32346 1.55968e-17)
(8.33048 18.7576 0)
(10.6514 19.9298 -5.96948e-19)
(12.8886 20.6656 -1.31643e-18)
(15.2807 21.1084 -2.76338e-19)
(17.7219 21.0818 -2.2689e-19)
(20.031 20.5663 7.73025e-19)
(22.1269 19.6143 -2.80105e-18)
(23.931 18.2823 1.20403e-18)
(25.3592 16.6574 0)
(26.3718 14.8426 1.51319e-18)
(26.9622 12.8908 -2.90224e-18)
(27.0935 10.9327 2.6011e-18)
(26.786 9.15489 -2.81226e-19)
(26.1718 7.6568 0)
(25.3924 6.39771 2.79562e-19)
(24.4933 5.34138 2.28983e-19)
(23.4586 4.48547 -2.08373e-19)
(22.2679 3.83028 -5.81257e-19)
(20.8778 3.36191 3.99871e-19)
(19.1992 3.04337 9.71808e-19)
(17.0446 2.79097 -1.08356e-18)
(14.5896 2.50896 -1.49045e-18)
(11.9549 2.13877 0)
(9.08635 1.68269 2.13312e-18)
(6.29477 1.23103 5.15217e-18)
(3.90871 0.873735 -7.7871e-18)
(2.08979 0.648945 5.62469e-18)
(0.797826 0.538203 1.74475e-17)
(-0.103604 0.502798 -2.39793e-18)
(-0.741586 0.510717 -2.3935e-21)
(-1.20601 0.545167 -1.41558e-17)
(-1.5574 0.598174 -4.60067e-18)
(-1.84206 0.661672 -1.54153e-17)
(-2.09651 0.719386 0)
(-2.34055 0.74493 -1.53707e-17)
(-2.56321 0.698399 1.52263e-17)
(-2.73487 0.521913 -1.36951e-17)
(-2.82716 0.166059 -4.57584e-17)
(-2.70315 -0.373187 2.00029e-17)
(-2.16915 -1.16401 6.97658e-20)
(-2.00076 -2.36612 -2.82162e-17)
(9.6604 17.5134 1.4026e-18)
(11.5949 18.4223 -4.01396e-19)
(13.433 19.017 -2.80874e-19)
(15.3706 19.4337 1.12628e-18)
(17.38 19.531 -3.98713e-19)
(19.347 19.2588 -8.4626e-19)
(21.2049 18.6252 1.79219e-18)
(22.882 17.649 1.75827e-18)
(24.2926 16.3797 -1.42958e-18)
(25.3814 14.8888 0)
(26.1236 13.222 -8.52185e-19)
(26.4694 11.4776 1.35502e-19)
(26.4007 9.80681 -9.79537e-21)
(25.994 8.32155 3.57055e-19)
(25.3672 7.03638 -2.33621e-20)
(24.5939 5.9456 2.43065e-20)
(23.6985 5.05339 0)
(22.6989 4.36836 0)
(21.6035 3.88908 -1.78609e-18)
(20.3905 3.59559 1.57216e-18)
(18.9296 3.41356 -1.0566e-18)
(17.2514 3.23398 1.10017e-18)
(15.3078 2.96537 1.3115e-18)
(12.9053 2.54937 0)
(10.1672 2.02834 1.77568e-18)
(7.3969 1.50301 -2.11691e-18)
(4.93898 1.07491 -5.14945e-18)
(3.00012 0.792629 0)
(1.58378 0.641492 0)
(0.576671 0.578096 2.06346e-18)
(-0.14345 0.567805 1.76036e-17)
(-0.669093 0.592666 1.50903e-17)
(-1.06576 0.640478 3.05247e-17)
(-1.38695 0.691822 1.8925e-18)
(-1.67417 0.715484 0)
(-1.94182 0.666249 -7.92266e-19)
(-2.18532 0.481924 1.25274e-17)
(-2.40074 0.107964 6.79461e-20)
(-2.49678 -0.45844 1.79315e-17)
(-2.34326 -1.25635 1.5288e-17)
(-2.41684 -2.34807 1.29914e-17)
(10.82 16.3039 -8.44657e-19)
(12.4283 17.0076 -1.03726e-20)
(13.943 17.4865 1.11828e-18)
(15.5165 17.8556 -2.11138e-18)
(17.154 18.0106 0)
(18.7925 17.8998 -5.22e-19)
(20.3891 17.5095 1.40227e-18)
(21.8894 16.8347 -1.11553e-18)
(23.2188 15.8943 3.87759e-19)
(24.3202 14.729 8.34434e-19)
(25.161 13.3699 3.91124e-20)
(25.6852 11.8849 -1.487e-18)
(25.8477 10.3868 0)
(25.6749 8.97955 -6.55682e-20)
(25.2458 7.71116 -2.37017e-19)
(24.6322 6.60594 2.65412e-19)
(23.8744 5.67792 6.13608e-19)
(23.0068 4.9433 -6.3306e-19)
(22.0668 4.41123 5.2527e-19)
(21.0892 4.08157 0)
(20.0528 3.91257 -2.00419e-18)
(18.9847 3.8134 3.6117e-18)
(17.7848 3.68613 -3.06553e-18)
(16.1952 3.43083 -2.18217e-20)
(14.1184 3.01262 2.50098e-18)
(11.6203 2.46739 -2.84943e-18)
(8.94531 1.88666 0)
(6.42288 1.37644 1.01925e-17)
(4.31315 1.00711 4.90201e-18)
(2.7023 0.786493 2.87606e-18)
(1.52724 0.678045 -1.32102e-17)
(0.676898 0.640958 -3.66128e-18)
(0.0565529 0.648962 3.89235e-18)
(-0.409542 0.679116 -1.8543e-18)
(-0.788205 0.695714 -1.00237e-17)
(-1.12446 0.647949 -1.50288e-18)
(-1.44502 0.469605 0)
(-1.77351 0.100578 1.97342e-17)
(-2.06762 -0.466285 -1.67334e-17)
(-2.25759 -1.2519 -1.42062e-17)
(-2.61021 -2.24866 0)
(11.8213 15.151 0)
(13.1585 15.6959 0)
(14.4099 16.0798 0)
(15.6918 16.3942 5.8351e-18)
(17.0202 16.5647 -3.3307e-18)
(18.3642 16.55 1.49178e-18)
(19.702 16.3305 1.33522e-18)
(20.9989 15.8905 -3.47324e-19)
(22.1983 15.2292 -3.44991e-19)
(23.251 14.363 1.12371e-19)
(24.1247 13.3072 -1.10595e-19)
(24.7655 12.1023 5.15548e-19)
(25.1154 10.8242 -1.24889e-19)
(25.1651 9.55668 1.26603e-19)
(24.955 8.36002 6.87542e-19)
(24.5379 7.28025 -5.83241e-19)
(23.9539 6.34331 -1.07101e-18)
(23.2388 5.57094 1.10386e-18)
(22.434 4.97896 -8.65243e-19)
(21.5888 4.57641 0)
(20.7453 4.35104 -2.91221e-18)
(19.9862 4.24965 2.07624e-18)
(19.2622 4.19775 8.32384e-19)
(18.3754 4.10186 -1.67923e-18)
(17.1637 3.88957 3.64088e-18)
(15.5016 3.52118 0)
(13.3796 3.00743 0)
(10.9424 2.4122 -2.60321e-18)
(8.45147 1.83068 -1.53872e-17)
(6.18274 1.35053 -7.32694e-18)
(4.31657 1.01754 8.60923e-18)
(2.89019 0.82621 2.48919e-18)
(1.83932 0.739656 -1.3928e-17)
(1.0699 0.714196 -2.98816e-18)
(0.489744 0.703891 1.83811e-17)
(0.0195241 0.653297 -2.99177e-18)
(-0.407017 0.49215 -1.09802e-17)
(-0.850671 0.152704 1.21838e-18)
(-1.31728 -0.382921 1.5036e-17)
(-1.78794 -1.12731 0)
(-2.42133 -2.03813 0)
(12.6795 14.0706 0)
(13.7929 14.4933 0)
(14.8295 14.7995 -2.15186e-19)
(15.8772 15.0601 -4.08638e-18)
(16.9538 15.2229 0)
(18.0459 15.2584 -3.34907e-18)
(19.1465 15.1493 -9.87207e-19)
(20.2367 14.8779 0)
(21.2787 14.4345 1.21355e-18)
(22.2355 13.8204 -1.05626e-18)
(23.0811 13.0387 -2.45945e-19)
(23.77 12.1078 -1.34756e-19)
(24.2434 11.0719 2.05668e-21)
(24.4723 9.98946 0)
(24.4668 8.91673 1.26225e-18)
(24.2554 7.9084 -1.02902e-18)
(23.8684 7.00049 0)
(23.3359 6.22039 0)
(22.6942 5.58888 -8.45858e-19)
(21.9862 5.11843 3.45929e-18)
(21.2625 4.81111 -1.84673e-18)
(20.6332 4.64546 0)
(20.1053 4.57301 2.61165e-18)
(19.5761 4.52973 9.7961e-20)
(18.9535 4.46162 -2.83257e-18)
(18.1061 4.31178 1.50564e-18)
(16.9027 4.03332 0)
(15.273 3.6093 0)
(13.2541 3.06589 -1.99081e-18)
(10.9963 2.46791 9.0308e-18)
(8.71948 1.89755 -5.24024e-18)
(6.63981 1.42638 6.13573e-18)
(4.90228 1.09301 3.53481e-18)
(3.5492 0.894187 0)
(2.53325 0.788486 6.52741e-18)
(1.76346 0.706147 6.56154e-21)
(1.13453 0.561305 2.08472e-17)
(0.537787 0.272704 0)
(-0.0885202 -0.198247 -1.76216e-17)
(-0.775639 -0.868929 1.43326e-17)
(-1.66424 -1.69071 0)
(13.4107 13.0735 0)
(14.3394 13.4022 -2.34408e-18)
(15.2003 13.6452 2.1355e-18)
(16.0594 13.857 0)
(16.9329 14.0009 3.37117e-18)
(17.8167 14.0575 -9.63357e-19)
(18.7114 14.0139 -1.15018e-17)
(19.6094 13.8553 1.28547e-17)
(20.4878 13.5699 -6.95183e-18)
(21.3218 13.152 -4.49166e-18)
(22.094 12.5979 3.01799e-18)
(22.7703 11.9113 7.29944e-19)
(23.2998 11.1127 -1.11042e-18)
(23.6474 10.2364 6.67838e-19)
(23.8043 9.32559 -1.72787e-18)
(23.7777 8.4309 1.2974e-18)
(23.5837 7.59185 9.22657e-19)
(23.2432 6.8399 5.4191e-19)
(22.7842 6.20016 2.34835e-18)
(22.2405 5.68868 -5.4098e-18)
(21.6523 5.31396 3.08154e-18)
(21.1216 5.07545 1.19453e-19)
(20.6771 4.93908 5.1923e-19)
(20.2717 4.85758 0)
(19.8852 4.8061 -3.47068e-18)
(19.4654 4.75386 1.15771e-18)
(18.9235 4.66079 3.74844e-18)
(18.1509 4.48279 -2.59905e-18)
(17.0532 4.18598 5.57266e-18)
(15.5897 3.76211 -2.99786e-18)
(13.7987 3.23588 0)
(11.7957 2.6595 -5.54429e-18)
(9.74448 2.09736 -2.09688e-18)
(7.81272 1.60732 2.37714e-18)
(6.12613 1.22386 -1.61254e-17)
(4.74752 0.94424 -3.00357e-18)
(3.65536 0.717382 -6.40337e-18)
(2.74374 0.454039 6.82919e-18)
(1.89109 0.0736881 7.26102e-18)
(1.0225 -0.479439 -1.42372e-17)
(-0.0888588 -1.18852 -4.08297e-19)
(14.0302 12.1651 0)
(14.8065 12.4216 1.28236e-19)
(15.5232 12.6136 1.93959e-18)
(16.2299 12.7832 7.09805e-18)
(16.9406 12.9047 -4.16664e-18)
(17.6552 12.9655 2.38035e-18)
(18.3783 12.9576 2.09224e-18)
(19.1082 12.8699 -1.10689e-17)
(19.8324 12.6919 2.1145e-18)
(20.5365 12.4162 4.12227e-18)
(21.2101 12.037 -5.55176e-18)
(21.8306 11.5504 3.42808e-18)
(22.3591 10.9616 1.73094e-18)
(22.7633 10.2869 -5.73518e-19)
(23.0263 9.55382 0)
(23.1419 8.80153 0)
(23.1126 8.06536 -4.38603e-18)
(22.9489 7.37647 -8.62333e-19)
(22.6691 6.76179 4.15475e-18)
(22.298 6.24092 -3.05292e-19)
(21.8651 5.82715 3.21999e-18)
(21.4517 5.53594 -6.36556e-18)
(21.089 5.34256 3.27089e-18)
(20.751 5.20304 0)
(20.4427 5.10384 -4.6505e-19)
(20.1594 5.03336 3.90477e-18)
(19.8793 4.97737 -4.95843e-18)
(19.556 4.9138 4.13977e-18)
(19.1197 4.81157 -3.16537e-18)
(18.4894 4.63639 0)
(17.5961 4.36179 2.32145e-18)
(16.407 3.97945 4.92066e-18)
(14.9407 3.50361 -2.6524e-18)
(13.2665 2.96695 2.89053e-18)
(11.4845 2.41062 1.56501e-18)
(9.71559 1.87574 -3.58857e-18)
(8.0677 1.38857 5.90917e-18)
(6.58789 0.943271 -4.26781e-18)
(5.26007 0.506063 -3.5004e-18)
(4.05042 0.013779 -6.40751e-19)
(2.68434 -0.556149 1.04334e-17)
(14.5527 11.3472 -2.03285e-18)
(15.2027 11.548 -7.57688e-18)
(15.8007 11.6992 7.44879e-18)
(16.3841 11.8334 0)
(16.9642 11.9326 -2.0891e-19)
(17.543 11.9891 0)
(18.1263 11.9982 -1.72347e-17)
(18.7155 11.9524 1.38996e-17)
(19.3044 11.8436 9.93426e-18)
(19.8853 11.6654 -1.1811e-17)
(20.4535 11.412 4.09147e-18)
(20.9951 11.0772 -2.08046e-18)
(21.4832 10.6585 -1.50663e-18)
(21.8925 10.1606 -3.33451e-18)
(22.2061 9.59846 2.93625e-20)
(22.4118 8.99785 3.34218e-18)
(22.5037 8.3853 -2.63721e-18)
(22.483 7.78697 3.62415e-18)
(22.3586 7.22775 0)
(22.1464 6.72818 4.53158e-18)
(21.8664 6.30466 3.1979e-20)
(21.5784 5.98537 -4.95554e-18)
(21.3112 5.75552 4.38372e-20)
(21.0512 5.57388 0)
(20.8051 5.42909 3.83159e-19)
(20.5778 5.3127 3.97843e-19)
(20.3712 5.21908 0)
(20.1808 5.14321 0)
(19.9904 5.07663 2.405e-21)
(19.7673 5.00401 0)
(19.4629 4.90287 -2.68674e-18)
(19.0207 4.74758 0)
(18.3895 4.5162 3.81863e-18)
(17.5369 4.19654 -3.98178e-18)
(16.4547 3.78801 0)
(15.1696 3.30411 2.20395e-18)
(13.7366 2.76738 -2.36647e-18)
(12.2122 2.19744 1.33234e-18)
(10.6389 1.61514 4.302e-18)
(9.10143 1.02251 -3.94727e-19)
(7.36541 0.422552 -9.92939e-18)
(14.9918 10.618 5.39766e-18)
(15.5368 10.7757 2.09289e-19)
(16.0369 10.8943 -3.29728e-18)
(16.5199 10.9996 -6.30449e-18)
(16.9952 11.0787 -1.48224e-17)
(17.4654 11.1271 1.76193e-17)
(17.9364 11.1424 -4.25744e-19)
(18.4109 11.1199 -1.02681e-17)
(18.8862 11.0539 2.02906e-17)
(19.3587 10.9393 -5.52275e-19)
(19.8269 10.772 -1.1021e-17)
(20.2834 10.5456 3.9853e-18)
(20.7105 10.2549 -7.46108e-18)
(21.0908 9.89889 1.13465e-17)
(21.4107 9.48418 -1.89997e-18)
(21.6579 9.02558 0)
(21.8232 8.54016 -7.91294e-18)
(21.9024 8.04671 7.16173e-18)
(21.8969 7.56492 7.69172e-18)
(21.8147 7.113 -1.48519e-17)
(21.6674 6.70719 8.14117e-18)
(21.4943 6.38311 -4.26433e-19)
(21.3206 6.13574 -3.63822e-20)
(21.1428 5.92984 -5.02007e-18)
(20.9672 5.75694 1.0198e-17)
(20.798 5.60923 -5.54229e-18)
(20.6387 5.48059 5.12485e-18)
(20.492 5.3671 -6.20799e-18)
(20.3598 5.26662 -6.39875e-18)
(20.2401 5.17706 5.73088e-18)
(20.1238 5.09381 1.46384e-18)
(19.9919 5.00762 2.22673e-18)
(19.8149 4.90408 -6.75707e-18)
(19.5567 4.76545 6.10197e-18)
(19.1783 4.573 -3.12525e-18)
(18.6481 4.31258 -1.63233e-18)
(17.948 3.97792 0)
(17.0729 3.56736 -1.71899e-18)
(16.0126 3.08953 -1.81403e-18)
(14.847 2.56148 -2.01699e-18)
(13.3498 1.97511 2.07971e-18)
(15.359 9.97355 1.45432e-20)
(15.8165 10.0976 7.56414e-19)
(16.2354 10.1903 2.8844e-18)
(16.6366 10.2721 -5.48018e-18)
(17.0275 10.3339 2.18479e-17)
(17.4112 10.3732 -2.03445e-17)
(17.7927 10.3889 2.57017e-17)
(18.1752 10.3783 1.42891e-17)
(18.5578 10.3375 -5.76352e-18)
(18.9393 10.263 -7.90853e-19)
(19.3198 10.1521 -1.78415e-17)
(19.6957 9.99956 2.43793e-19)
(20.056 9.79997 0)
(20.3897 9.5502 -3.41034e-18)
(20.6873 9.2523 3.54872e-18)
(20.939 8.91379 -3.72193e-18)
(21.1361 8.54421 0)
(21.2723 8.15527 7.05896e-18)
(21.3452 7.76047 -1.52365e-17)
(21.3567 7.37363 5.42378e-18)
(21.312 7.00811 -7.63296e-18)
(21.2326 6.70076 8.57684e-18)
(21.1386 6.45366 2.60245e-19)
(21.0336 6.23877 -1.01492e-19)
(20.9233 6.05151 8.75117e-18)
(20.812 5.88669 -8.81816e-18)
(20.7025 5.7391 2.82628e-19)
(20.5968 5.60408 5.77756e-19)
(20.4966 5.47807 -4.77418e-18)
(20.404 5.35891 5.40822e-18)
(20.3204 5.24554 -6.06077e-19)
(20.2459 5.13712 6.13103e-19)
(20.1766 5.03165 -2.49974e-18)
(20.1036 4.92472 1.23327e-18)
(20.011 4.80836 5.12191e-18)
(19.8775 4.6723 -1.3082e-18)
(19.678 4.50552 1.32712e-18)
(19.3895 4.29683 -2.71371e-18)
(18.9748 4.03659 1.41082e-18)
(18.4608 3.73093 1.40867e-18)
(17.6854 3.3461 0)
(15.6642 9.40721 -8.27099e-18)
(16.0485 9.50473 1.52188e-17)
(16.3997 9.57689 1.50723e-17)
(16.7337 9.64009 -3.99529e-17)
(17.0563 9.68775 1.49694e-17)
(17.3706 9.7184 -3.2935e-17)
(17.681 9.73199 2.76336e-17)
(17.9904 9.72693 -4.1106e-17)
(18.2988 9.70062 3.97612e-17)
(18.6062 9.65069 -5.52659e-19)
(18.9134 9.57539 -1.70416e-17)
(19.219 9.47116 -1.87235e-18)
(19.5163 9.33331 -1.49011e-17)
(19.7985 9.15854 1.4747e-17)
(20.0597 8.94689 -1.37658e-17)
(20.2932 8.70172 1.53206e-17)
(20.4921 8.42773 0)
(20.6506 8.13131 -1.17151e-17)
(20.7649 7.82063 1.42993e-17)
(20.834 7.50481 -1.28987e-17)
(20.8585 7.19328 -1.99895e-19)
(20.8472 6.91936 2.08029e-17)
(20.8142 6.68888 -1.06762e-19)
(20.7663 6.4803 -7.41107e-18)
(20.7084 6.29191 -1.40361e-23)
(20.6445 6.12131 0)
(20.5774 5.96553 -7.84348e-18)
(20.5092 5.82138 7.75295e-18)
(20.4409 5.68562 0)
(20.3732 5.55534 -5.04566e-19)
(20.3068 5.42827 0)
(20.2425 5.30292 4.21476e-18)
(20.1812 5.17858 -4.74901e-18)
(20.1232 5.055 -4.31036e-18)
(20.0671 4.93157 8.67159e-18)
(20.0095 4.80744 -4.91922e-18)
(19.9429 4.68068 -5.62655e-19)
(19.8583 4.54789 1.10239e-18)
(19.7363 4.40286 -1.11933e-18)
(19.5765 4.24788 0)
(19.3172 4.05818 -1.19912e-18)
(15.9057 8.93389 0)
(16.231 9.0113 -2.06851e-17)
(16.528 9.0682 5.44884e-19)
(16.8088 9.11757 2.8601e-17)
(17.0781 9.15439 1.83127e-17)
(17.3389 9.17803 -1.87112e-17)
(17.5949 9.18891 1.79267e-17)
(17.8486 9.1861 1.76662e-17)
(18.1005 9.16788 3.45728e-17)
(18.351 9.13263 -4.38274e-17)
(18.6011 9.0792 4.3558e-18)
(18.8504 9.005 4.15892e-18)
(19.0947 8.90643 -1.5383e-17)
(19.33 8.78069 1.13153e-17)
(19.5527 8.62719 1.64587e-17)
(19.7584 8.4473 -1.26461e-17)
(19.9423 8.24315 -1.5705e-17)
(20.0999 8.01799 1.57862e-17)
(20.2275 7.7764 0)
(20.3231 7.52393 1.76821e-18)
(20.3856 7.2666 1.76048e-18)
(20.4156 7.0322 1.39914e-17)
(20.4224 6.82772 -2.7995e-17)
(20.4135 6.6367 1.4313e-17)
(20.3926 6.45895 7.21231e-18)
(20.3626 6.29368 -1.54769e-19)
(20.3261 6.13965 -7.32685e-18)
(20.2852 5.99524 1.1465e-19)
(20.2411 5.85861 7.48969e-21)
(20.1944 5.72783 7.61879e-18)
(20.1454 5.601 -7.69409e-18)
(20.094 5.47643 -3.92626e-18)
(20.0401 5.35277 4.18288e-18)
(19.9836 5.22914 -4.01195e-18)
(19.9245 5.10497 3.50449e-18)
(19.8629 4.98076 3.06823e-18)
(19.7983 4.85759 -1.54459e-18)
(19.7297 4.73629 5.27931e-19)
(19.6541 4.61724 0)
(19.5692 4.504 0)
(19.4675 4.3907 -2.55603e-20)
(16.0904 8.55518 -9.27655e-18)
(16.3699 8.61779 1.04142e-17)
(16.6249 8.66336 -4.51954e-18)
(16.8649 8.70226 -8.88661e-18)
(17.0939 8.73062 0)
(17.3144 8.74837 1.75862e-17)
(17.5297 8.75613 -4.32658e-17)
(17.742 8.7534 2.65454e-17)
(17.9519 8.73903 -8.74461e-18)
(18.1599 8.7119 8.4006e-18)
(18.3672 8.67134 -4.17222e-18)
(18.5736 8.61546 -3.68338e-17)
(18.7766 8.5415 6.36163e-17)
(18.9735 8.44718 -2.72988e-17)
(19.1623 8.33177 -3.61239e-18)
(19.34 8.19572 -1.44999e-17)
(19.5034 8.03988 4.4635e-17)
(19.649 7.86582 -1.95211e-17)
(19.7741 7.67603 -2.97896e-17)
(19.8765 7.47377 1.2255e-17)
(19.9544 7.26272 -3.43945e-18)
(20.0048 7.06532 0)
(20.0333 6.88839 0)
(20.0473 6.71916 -1.40298e-17)
(20.0489 6.55814 1.40406e-17)
(20.0404 6.40535 2.17462e-19)
(20.0238 6.26048 0)
(20.0007 6.12287 7.25493e-18)
(19.9724 5.99167 -7.26695e-18)
(19.9397 5.86591 5.65606e-20)
(19.9029 5.74458 -5.87679e-20)
(19.8623 5.62669 0)
(19.8176 5.51134 3.59007e-18)
(19.7685 5.39773 -3.79365e-18)
(19.7145 5.28505 4.73801e-19)
(19.6552 5.17327 -4.78427e-19)
(19.5905 5.0629 0)
(19.5202 4.95431 -4.88212e-19)
(19.4443 4.84859 -1.00548e-18)
(19.3628 4.74823 4.96834e-19)
(19.2781 4.65354 1.5008e-18)
(16.2346 8.24811 0)
(16.4777 8.29942 0)
(16.6995 8.33629 -1.6821e-17)
(16.9075 8.36714 -3.3357e-17)
(17.105 8.38893 5.09617e-17)
(17.2943 8.40191 -4.17825e-17)
(17.4784 8.40684 -1.64202e-17)
(17.659 8.40343 3.39468e-17)
(17.8369 8.39088 -3.35754e-17)
(18.0126 8.36842 3.38777e-17)
(18.1871 8.33564 0)
(18.3605 8.29118 0)
(18.5312 8.23293 3.17146e-17)
(18.6974 8.15913 -6.1877e-17)
(18.8578 8.06909 6.01849e-17)
(19.0105 7.9629 -2.95827e-17)
(19.1532 7.84078 -3.67781e-18)
(19.2835 7.70342 3.37047e-17)
(19.3992 7.55212 -2.29303e-17)
(19.4984 7.38874 0)
(19.5794 7.21543 1.68214e-18)
(19.6374 7.05013 0)
(19.6762 6.8989 -1.46715e-17)
(19.702 6.75172 2.84916e-17)
(19.7163 6.60934 -1.38224e-17)
(19.7205 6.4722 0)
(19.7161 6.34044 0)
(19.7044 6.21395 6.60866e-18)
(19.6865 6.09246 -7.05102e-18)
(19.663 5.97557 -7.14384e-18)
(19.6346 5.86286 7.19385e-18)
(19.6015 5.7539 7.23886e-18)
(19.564 5.64831 -7.2602e-18)
(19.5219 5.54572 0)
(19.4751 5.44568 -5.81163e-20)
(19.4233 5.34816 0)
(19.3664 5.25342 -1.47312e-20)
(19.304 5.16134 -5.93191e-20)
(19.2362 5.0723 2.02476e-18)
(19.1629 4.98735 -2.86316e-18)
(19.0857 4.90658 9.44496e-19)
(16.3494 7.99427 0)
(16.5629 8.03674 -1.96737e-18)
(16.7576 8.06677 0)
(16.9398 8.09131 1.57709e-17)
(17.1121 8.10791 -1.58459e-17)
(17.2766 8.11704 0)
(17.436 8.11948 1.59838e-17)
(17.5917 8.1151 1.585e-17)
(17.7445 8.10333 -4.10563e-17)
(17.8948 8.08364 0)
(18.0436 8.05576 3.25044e-17)
(18.1911 8.01869 -6.54398e-17)
(18.3361 7.97086 3.18967e-17)
(18.4775 7.9109 0)
(18.6144 7.83823 -2.9752e-17)
(18.7455 7.75278 3.31104e-17)
(18.8692 7.65456 3.21315e-17)
(18.9839 7.54382 -3.54813e-17)
(19.0877 7.42119 -3.42402e-18)
(19.1794 7.28775 0)
(19.257 7.14469 0)
(19.3158 7.00636 -1.7398e-18)
(19.3581 6.8779 8.32739e-19)
(19.3891 6.75133 1.3631e-17)
(19.4097 6.6274 9.02098e-19)
(19.421 6.50671 -1.35982e-17)
(19.424 6.38964 1.36885e-17)
(19.4197 6.27635 -1.32478e-17)
(19.4088 6.16689 -7.76541e-18)
(19.392 6.06121 6.88443e-18)
(19.3699 5.95919 -6.95503e-18)
(19.3428 5.86071 6.94291e-18)
(19.3111 5.76568 0)
(19.2749 5.67399 -7.5009e-18)
(19.2344 5.58542 7.09501e-18)
(19.1897 5.50011 0)
(19.1408 5.41831 1.38021e-20)
(19.0876 5.33988 1.85663e-18)
(19.0302 5.26498 -1.9083e-18)
(18.9688 5.19411 8.53472e-19)
(18.9039 5.12708 -8.9223e-19)
(16.4424 7.78116 0)
(16.6313 7.81654 1.81251e-18)
(16.8036 7.84109 -1.4733e-17)
(16.9644 7.8606 2.94438e-17)
(17.1159 7.87305 -6.0002e-17)
(17.2603 7.87906 3.0532e-17)
(17.3996 7.87939 0)
(17.5352 7.87402 1.53515e-17)
(17.6678 7.86253 9.31612e-17)
(17.7979 7.84456 -6.31309e-17)
(17.9261 7.81991 0)
(18.0527 7.78787 -7.99863e-18)
(18.177 7.74723 2.31469e-17)
(18.2982 7.69693 -2.89217e-19)
(18.4155 7.63653 -2.95753e-17)
(18.5283 7.56592 3.24484e-17)
(18.6353 7.48501 -2.84236e-17)
(18.7352 7.39386 2.77334e-17)
(18.8269 7.29278 -2.76787e-17)
(18.9091 7.1824 -2.73201e-17)
(18.9804 7.06337 2.36266e-17)
(19.0362 6.94724 -1.18072e-17)
(19.0781 6.83828 1.50341e-17)
(19.1103 6.73002 -1.41429e-17)
(19.1335 6.62317 -2.52776e-18)
(19.1483 6.51833 1.32869e-17)
(19.1554 6.41594 0)
(19.1557 6.31631 0)
(19.1497 6.21964 -1.25626e-17)
(19.1379 6.12603 1.33559e-17)
(19.1209 6.03556 0)
(19.0991 5.94827 8.49528e-19)
(19.0727 5.86419 8.5165e-19)
(19.0421 5.78335 7.20793e-18)
(19.0076 5.70563 -7.1969e-18)
(18.9693 5.63119 -3.41676e-18)
(18.9274 5.56029 3.4067e-18)
(18.8822 5.49283 -1.28804e-18)
(18.8339 5.42889 3.43917e-18)
(18.7826 5.3688 -1.66574e-18)
(18.7288 5.31254 -2.13295e-19)
(16.5187 7.59992 1.31991e-17)
(16.6868 7.62954 1.64916e-17)
(16.8401 7.64965 -1.76402e-19)
(16.9829 7.66508 0)
(17.1173 7.6742 0)
(17.2448 7.67767 0)
(17.3675 7.67624 0)
(17.4866 7.66995 -5.85663e-17)
(17.6026 7.6585 1.04303e-16)
(17.716 7.64164 -6.04108e-17)
(17.8275 7.61923 6.04024e-17)
(17.9371 7.59075 -3.83862e-17)
(18.0445 7.55527 6.81234e-17)
(18.1489 7.51199 -8.12189e-17)
(18.25 7.46057 2.88729e-17)
(18.3472 7.40089 2.1124e-17)
(18.4396 7.33286 -2.77833e-17)
(18.5263 7.25646 3.36695e-18)
(18.6064 7.17185 -3.41418e-18)
(18.6789 7.07941 3.35174e-17)
(18.7427 6.97949 2.96225e-17)
(18.7937 6.88147 -4.93323e-17)
(18.833 6.78888 -1.60537e-18)
(18.8641 6.69643 0)
(18.8874 6.60472 1.59786e-18)
(18.9034 6.51431 -1.63591e-18)
(18.9126 6.42565 -1.13223e-17)
(18.9155 6.33906 1.29218e-17)
(18.9128 6.25482 -1.29686e-17)
(18.9048 6.17311 1.29322e-17)
(18.8919 6.09406 1.2997e-17)
(18.8745 6.0178 -1.37605e-17)
(18.8529 5.94443 -8.04329e-19)
(18.8276 5.87401 6.52884e-18)
(18.7987 5.80648 -5.28006e-18)
(18.7665 5.74201 0)
(18.7312 5.6808 0)
(18.6932 5.62273 -4.06398e-19)
(18.6527 5.56788 8.25356e-19)
(18.6099 5.51645 8.26139e-19)
(18.5651 5.46856 2.00095e-19)
(16.5819 7.44413 0)
(16.7322 7.469 -3.0895e-18)
(16.8693 7.48545 2.52113e-17)
(16.9969 7.49756 -2.59364e-17)
(17.1165 7.50396 -5.24797e-17)
(17.2299 7.50537 5.40954e-17)
(17.3387 7.5025 2.70878e-17)
(17.4439 7.49541 -5.60306e-17)
(17.5461 7.48392 -5.63753e-17)
(17.6456 7.46783 5.75617e-17)
(17.7431 7.44706 0)
(17.8387 7.42123 -2.92001e-17)
(17.932 7.38962 5.85049e-17)
(18.0225 7.35162 -6.45821e-17)
(18.11 7.30698 0)
(18.194 7.25561 -6.89612e-18)
(18.2738 7.19743 6.78605e-18)
(18.3489 7.13241 0)
(18.4184 7.06063 3.24599e-18)
(18.4817 6.98234 -6.43608e-18)
(18.5379 6.89773 2.89712e-17)
(18.5833 6.81452 -2.87492e-17)
(18.619 6.73559 3.19631e-18)
(18.6477 6.65656 2.36455e-17)
(18.6698 6.57797 -2.35631e-17)
(18.6855 6.50029 1.55071e-18)
(18.6953 6.42394 -1.40962e-17)
(18.6996 6.34923 1.25079e-17)
(18.6989 6.27644 1.5779e-18)
(18.6935 6.20577 0)
(18.6838 6.13738 0)
(18.67 6.07142 0)
(18.6526 6.008 -6.26785e-18)
(18.6318 5.94719 6.24519e-18)
(18.608 5.88899 -7.75731e-19)
(18.5813 5.8335 -6.27446e-18)
(18.552 5.78091 7.03699e-18)
(18.5205 5.73109 0)
(18.4868 5.68409 9.33046e-21)
(18.4514 5.64003 -1.56299e-18)
(18.4142 5.59911 7.63068e-19)
(16.6347 7.30896 1.12048e-17)
(16.7696 7.32989 0)
(16.8927 7.3433 -5.83844e-17)
(17.0071 7.35269 4.82598e-17)
(17.1142 7.35687 0)
(17.2154 7.3566 5.03175e-17)
(17.3123 7.35255 -2.25319e-19)
(17.4057 7.34482 5.25122e-17)
(17.4962 7.33326 -8.07725e-17)
(17.5841 7.31776 -5.42704e-17)
(17.6698 7.29827 5.53908e-17)
(17.7536 7.27449 1.38433e-17)
(17.835 7.2459 0)
(17.9138 7.21203 0)
(17.9898 7.17268 -1.35759e-17)
(18.0626 7.12782 5.93128e-17)
(18.1317 7.07738 -1.17092e-16)
(18.1966 7.02134 5.14822e-17)
(18.2567 6.95976 6.4062e-18)
(18.3116 6.89282 6.35625e-18)
(18.3605 6.82063 -3.08407e-18)
(18.4004 6.74959 4.63456e-17)
(18.4321 6.68204 -7.96318e-17)
(18.458 6.61437 1.50575e-18)
(18.478 6.54701 2.28071e-17)
(18.4927 6.48037 0)
(18.5023 6.41481 1.21095e-17)