/*--------------------------------*- C++ -*----------------------------------*\
| =========                 |                                                 |
| \\      /  F ield         | OpenFOAM: The Open Source CFD Toolbox           |
|  \\    /   O peration     | Version:  5.x                                   |
|   \\  /    A nd           | Web:      www.OpenFOAM.org                      |
|    \\/     M anipulation  |                                                 |
\*---------------------------------------------------------------------------*/
FoamFile
{
    version     2.0;
    format      ascii;
    class       volScalarField;
    location    "2000";
    object      p;
}
// * * * * * * * * * * * * * * * * * * * * * * * * * * * * * * * * * * * * * //

dimensions      [0 2 -2 0 0 0 0];

internalField   nonuniform List<scalar> 
107912
(
-1.03997e-05
1.65203e-05
-1.28726e-05
-1.4873e-05
-4.11472e-05
-5.55208e-05
-4.22935e-05
-5.49367e-05
-4.92225e-05
-5.19761e-05
-4.90296e-05
-4.81716e-05
-4.58136e-05
-4.37929e-05
-4.15277e-05
-3.93147e-05
-3.70561e-05
-3.4946e-05
-3.28244e-05
-3.09148e-05
-2.90357e-05
-2.72973e-05
-2.57004e-05
-2.41852e-05
-2.28097e-05
-2.15378e-05
-2.03781e-05
-1.93375e-05
-1.83768e-05
-1.75172e-05
-1.67494e-05
-1.60497e-05
-1.54292e-05
-1.488e-05
-1.43723e-05
-1.39393e-05
-1.35461e-05
-1.3203e-05
-1.29021e-05
-1.26281e-05
-1.23861e-05
-1.21729e-05
-1.19756e-05
-1.18077e-05
-1.16659e-05
-1.15312e-05
-1.14262e-05
-1.13182e-05
-1.12356e-05
-1.11566e-05
-1.10883e-05
-1.10232e-05
-1.09794e-05
-1.09388e-05
-1.09105e-05
-1.087e-05
-1.08475e-05
-1.08236e-05
-1.08077e-05
-1.07867e-05
-1.07725e-05
-1.07552e-05
-1.0746e-05
-1.07313e-05
-1.07216e-05
-1.07048e-05
-1.06952e-05
-1.06814e-05
-1.06693e-05
-1.06511e-05
-1.06381e-05
-1.06229e-05
-1.06079e-05
-1.05919e-05
-1.05727e-05
-1.0542e-05
-1.05173e-05
-1.04928e-05
-1.04637e-05
-1.04252e-05
-1.03882e-05
-1.03533e-05
-1.03127e-05
-1.02681e-05
-1.02208e-05
-1.01725e-05
-1.01199e-05
-1.00636e-05
-1.00029e-05
-9.94924e-06
-9.88173e-06
-9.82617e-06
-9.75043e-06
-9.705e-06
-9.61386e-06
-9.59461e-06
-9.47793e-06
-9.54483e-06
-9.33577e-06
-9.66929e-06
-9.10922e-06
-1.1897e-05
-1.45264e-05
1.65182e-05
-1.29519e-05
-1.49278e-05
-4.10608e-05
-5.54239e-05
-4.22704e-05
-5.48914e-05
-4.92012e-05
-5.19539e-05
-4.90198e-05
-4.81644e-05
-4.58119e-05
-4.37938e-05
-4.15307e-05
-3.93192e-05
-3.70615e-05
-3.49518e-05
-3.28305e-05
-3.09207e-05
-2.90416e-05
-2.73029e-05
-2.57057e-05
-2.41901e-05
-2.28143e-05
-2.15421e-05
-2.03819e-05
-1.9341e-05
-1.838e-05
-1.75201e-05
-1.6752e-05
-1.60521e-05
-1.54313e-05
-1.48818e-05
-1.4374e-05
-1.39407e-05
-1.35474e-05
-1.32042e-05
-1.29031e-05
-1.2629e-05
-1.2387e-05
-1.21737e-05
-1.19763e-05
-1.18084e-05
-1.16664e-05
-1.15318e-05
-1.14265e-05
-1.13186e-05
-1.12359e-05
-1.11569e-05
-1.10886e-05
-1.10235e-05
-1.09797e-05
-1.09391e-05
-1.09107e-05
-1.08702e-05
-1.08477e-05
-1.08238e-05
-1.08078e-05
-1.07868e-05
-1.07726e-05
-1.07553e-05
-1.07461e-05
-1.07314e-05
-1.07217e-05
-1.07049e-05
-1.06952e-05
-1.06815e-05
-1.06693e-05
-1.06512e-05
-1.06382e-05
-1.0623e-05
-1.06079e-05
-1.0592e-05
-1.05727e-05
-1.05421e-05
-1.05174e-05
-1.04929e-05
-1.04637e-05
-1.04253e-05
-1.03883e-05
-1.03533e-05
-1.03128e-05
-1.02682e-05
-1.02209e-05
-1.01726e-05
-1.012e-05
-1.00638e-05
-1.0003e-05
-9.9494e-06
-9.88191e-06
-9.82636e-06
-9.75064e-06
-9.70525e-06
-9.61409e-06
-9.59496e-06
-9.47818e-06
-9.54542e-06
-9.33609e-06
-9.67101e-06
-9.10964e-06
-1.18001e-05
-1.49608e-05
1.65176e-05
-1.30427e-05
-1.49901e-05
-4.0964e-05
-5.53081e-05
-4.22406e-05
-5.48397e-05
-4.91736e-05
-5.19269e-05
-4.90058e-05
-4.81539e-05
-4.58077e-05
-4.37926e-05
-4.1532e-05
-3.93224e-05
-3.70658e-05
-3.49568e-05
-3.2836e-05
-3.09262e-05
-2.90472e-05
-2.73083e-05
-2.57107e-05
-2.4195e-05
-2.28189e-05
-2.15464e-05
-2.03857e-05
-1.93445e-05
-1.83833e-05
-1.7523e-05
-1.67546e-05
-1.60545e-05
-1.54334e-05
-1.48838e-05
-1.4376e-05
-1.39422e-05
-1.35488e-05
-1.32054e-05
-1.29043e-05
-1.263e-05
-1.23879e-05
-1.21745e-05
-1.1977e-05
-1.18091e-05
-1.1667e-05
-1.15324e-05
-1.14269e-05
-1.13191e-05
-1.12363e-05
-1.11573e-05
-1.1089e-05
-1.10239e-05
-1.098e-05
-1.09395e-05
-1.09108e-05
-1.08705e-05
-1.08479e-05
-1.08241e-05
-1.08079e-05
-1.0787e-05
-1.07728e-05
-1.07555e-05
-1.07462e-05
-1.07316e-05
-1.07217e-05
-1.07051e-05
-1.06953e-05
-1.06816e-05
-1.06694e-05
-1.06513e-05
-1.06382e-05
-1.06231e-05
-1.0608e-05
-1.0592e-05
-1.05727e-05
-1.05422e-05
-1.05174e-05
-1.04929e-05
-1.04636e-05
-1.04254e-05
-1.03884e-05
-1.03534e-05
-1.03129e-05
-1.02683e-05
-1.0221e-05
-1.01727e-05
-1.01201e-05
-1.00639e-05
-1.00032e-05
-9.94959e-06
-9.88213e-06
-9.82657e-06
-9.75089e-06
-9.70554e-06
-9.61437e-06
-9.59538e-06
-9.47846e-06
-9.54613e-06
-9.33652e-06
-9.67303e-06
-9.1107e-06
-1.17815e-05
-1.45914e-05
1.65145e-05
-1.31334e-05
-1.50544e-05
-4.0866e-05
-5.51888e-05
-4.22094e-05
-5.47859e-05
-4.91451e-05
-5.18986e-05
-4.89911e-05
-4.81428e-05
-4.5803e-05
-4.37912e-05
-4.1533e-05
-3.93255e-05
-3.70701e-05
-3.49618e-05
-3.28416e-05
-3.09318e-05
-2.90528e-05
-2.73138e-05
-2.57158e-05
-2.42e-05
-2.28235e-05
-2.15508e-05
-2.03896e-05
-1.93481e-05
-1.83866e-05
-1.75261e-05
-1.67574e-05
-1.6057e-05
-1.54357e-05
-1.48858e-05
-1.4378e-05
-1.39438e-05
-1.35503e-05
-1.32067e-05
-1.29055e-05
-1.26311e-05
-1.23888e-05
-1.21754e-05
-1.19778e-05
-1.18099e-05
-1.16675e-05
-1.15332e-05
-1.14274e-05
-1.13197e-05
-1.12368e-05
-1.11577e-05
-1.10894e-05
-1.10243e-05
-1.09804e-05
-1.094e-05
-1.0911e-05
-1.08709e-05
-1.08481e-05
-1.08244e-05
-1.08081e-05
-1.07873e-05
-1.07729e-05
-1.07558e-05
-1.07463e-05
-1.07318e-05
-1.07218e-05
-1.07052e-05
-1.06954e-05
-1.06817e-05
-1.06695e-05
-1.06515e-05
-1.06383e-05
-1.06232e-05
-1.0608e-05
-1.05921e-05
-1.05726e-05
-1.05423e-05
-1.05175e-05
-1.0493e-05
-1.04636e-05
-1.04255e-05
-1.03886e-05
-1.03536e-05
-1.03129e-05
-1.02684e-05
-1.02212e-05
-1.01729e-05
-1.01202e-05
-1.00641e-05
-1.00034e-05
-9.94979e-06
-9.88235e-06
-9.82679e-06
-9.75114e-06
-9.70584e-06
-9.61466e-06
-9.59583e-06
-9.47876e-06
-9.54689e-06
-9.33697e-06
-9.67512e-06
-9.11187e-06
-1.1774e-05
-1.43852e-05
1.65089e-05
-1.32261e-05
-1.51222e-05
-4.07639e-05
-5.50636e-05
-4.21762e-05
-5.47286e-05
-4.91152e-05
-5.18685e-05
-4.89756e-05
-4.8131e-05
-4.57981e-05
-4.37898e-05
-4.15342e-05
-3.93288e-05
-3.70747e-05
-3.49672e-05
-3.28475e-05
-3.09377e-05
-2.90588e-05
-2.73196e-05
-2.57213e-05
-2.42054e-05
-2.28286e-05
-2.15555e-05
-2.03938e-05
-1.9352e-05
-1.83902e-05
-1.75293e-05
-1.67604e-05
-1.60597e-05
-1.54382e-05
-1.4888e-05
-1.43802e-05
-1.39454e-05
-1.3552e-05
-1.32082e-05
-1.29068e-05
-1.26322e-05
-1.23899e-05
-1.21763e-05
-1.19787e-05
-1.18109e-05
-1.16682e-05
-1.1534e-05
-1.14278e-05
-1.13204e-05
-1.12372e-05
-1.11583e-05
-1.10898e-05
-1.10248e-05
-1.09808e-05
-1.09405e-05
-1.09113e-05
-1.08714e-05
-1.08484e-05
-1.08247e-05
-1.08083e-05
-1.07876e-05
-1.07731e-05
-1.07561e-05
-1.07464e-05
-1.0732e-05
-1.07219e-05
-1.07055e-05
-1.06955e-05
-1.06819e-05
-1.06696e-05
-1.06517e-05
-1.06385e-05
-1.06234e-05
-1.06081e-05
-1.05922e-05
-1.05726e-05
-1.05424e-05
-1.05176e-05
-1.04931e-05
-1.04635e-05
-1.04256e-05
-1.03888e-05
-1.03537e-05
-1.0313e-05
-1.02686e-05
-1.02213e-05
-1.0173e-05
-1.01204e-05
-1.00643e-05
-1.00037e-05
-9.95e-06
-9.8826e-06
-9.82702e-06
-9.75142e-06
-9.70617e-06
-9.61497e-06
-9.59632e-06
-9.47906e-06
-9.5477e-06
-9.33745e-06
-9.67732e-06
-9.1131e-06
-1.17617e-05
-1.42668e-05
1.65007e-05
-1.33217e-05
-1.51942e-05
-4.0656e-05
-5.49303e-05
-4.21404e-05
-5.46669e-05
-4.90835e-05
-5.18362e-05
-4.89592e-05
-4.81183e-05
-4.57929e-05
-4.37882e-05
-4.15355e-05
-3.93323e-05
-3.70797e-05
-3.4973e-05
-3.2854e-05
-3.09441e-05
-2.90653e-05
-2.7326e-05
-2.57273e-05
-2.42112e-05
-2.2834e-05
-2.15607e-05
-2.03983e-05
-1.93563e-05
-1.83941e-05
-1.75329e-05
-1.67636e-05
-1.60627e-05
-1.54409e-05
-1.48904e-05
-1.43827e-05
-1.39473e-05
-1.35537e-05
-1.32097e-05
-1.29082e-05
-1.26335e-05
-1.23911e-05
-1.21774e-05
-1.19797e-05
-1.18119e-05
-1.16689e-05
-1.1535e-05
-1.14284e-05
-1.13212e-05
-1.12378e-05
-1.11588e-05
-1.10904e-05
-1.10254e-05
-1.09813e-05
-1.09412e-05
-1.09115e-05
-1.08719e-05
-1.08487e-05
-1.08252e-05
-1.08085e-05
-1.0788e-05
-1.07734e-05
-1.07564e-05
-1.07465e-05
-1.07323e-05
-1.0722e-05
-1.07057e-05
-1.06956e-05
-1.06821e-05
-1.06697e-05
-1.06519e-05
-1.06386e-05
-1.06236e-05
-1.06082e-05
-1.05923e-05
-1.05725e-05
-1.05425e-05
-1.05177e-05
-1.04931e-05
-1.04634e-05
-1.04257e-05
-1.0389e-05
-1.03538e-05
-1.03131e-05
-1.02687e-05
-1.02215e-05
-1.01732e-05
-1.01205e-05
-1.00645e-05
-1.00039e-05
-9.95022e-06
-9.88285e-06
-9.82725e-06
-9.75172e-06
-9.70651e-06
-9.6153e-06
-9.59684e-06
-9.47938e-06
-9.54856e-06
-9.33797e-06
-9.67966e-06
-9.11445e-06
-1.17468e-05
-1.4139e-05
1.64892e-05
-1.34199e-05
-1.52703e-05
-4.05415e-05
-5.4788e-05
-4.21015e-05
-5.46002e-05
-4.90497e-05
-5.18012e-05
-4.89415e-05
-4.81046e-05
-4.57873e-05
-4.37864e-05
-4.15368e-05
-3.93361e-05
-3.7085e-05
-3.49793e-05
-3.28608e-05
-3.0951e-05
-2.90723e-05
-2.73327e-05
-2.57336e-05
-2.42174e-05
-2.28399e-05
-2.15662e-05
-2.04032e-05
-1.93608e-05
-1.83983e-05
-1.75367e-05
-1.67671e-05
-1.60659e-05
-1.54438e-05
-1.48929e-05
-1.43853e-05
-1.39493e-05
-1.35557e-05
-1.32114e-05
-1.29097e-05
-1.26349e-05
-1.23924e-05
-1.21786e-05
-1.19807e-05
-1.1813e-05
-1.16697e-05
-1.1536e-05
-1.1429e-05
-1.1322e-05
-1.12384e-05
-1.11595e-05
-1.10909e-05
-1.10261e-05
-1.09818e-05
-1.09419e-05
-1.09118e-05
-1.08724e-05
-1.0849e-05
-1.08256e-05
-1.08087e-05
-1.07884e-05
-1.07736e-05
-1.07568e-05
-1.07467e-05
-1.07326e-05
-1.07222e-05
-1.0706e-05
-1.06957e-05
-1.06823e-05
-1.06698e-05
-1.06521e-05
-1.06387e-05
-1.06238e-05
-1.06082e-05
-1.05923e-05
-1.05725e-05
-1.05427e-05
-1.05178e-05
-1.04932e-05
-1.04632e-05
-1.04258e-05
-1.03892e-05
-1.0354e-05
-1.03132e-05
-1.02689e-05
-1.02217e-05
-1.01734e-05
-1.01206e-05
-1.00647e-05
-1.00042e-05
-9.95046e-06
-9.88313e-06
-9.82751e-06
-9.75203e-06
-9.70688e-06
-9.61566e-06
-9.5974e-06
-9.47972e-06
-9.54948e-06
-9.33853e-06
-9.68215e-06
-9.11592e-06
-1.17309e-05
-1.39908e-05
1.64739e-05
-1.35198e-05
-1.53501e-05
-4.04198e-05
-5.4636e-05
-4.20595e-05
-5.45281e-05
-4.90137e-05
-5.17634e-05
-4.89225e-05
-4.80897e-05
-4.57812e-05
-4.37844e-05
-4.15382e-05
-3.93401e-05
-3.70906e-05
-3.49859e-05
-3.28682e-05
-3.09584e-05
-2.90797e-05
-2.734e-05
-2.57404e-05
-2.4224e-05
-2.28461e-05
-2.15721e-05
-2.04084e-05
-1.93657e-05
-1.84027e-05
-1.75408e-05
-1.67709e-05
-1.60693e-05
-1.54469e-05
-1.48957e-05
-1.43881e-05
-1.39514e-05
-1.35578e-05
-1.32132e-05
-1.29114e-05
-1.26364e-05
-1.23938e-05
-1.21798e-05
-1.19819e-05
-1.18142e-05
-1.16705e-05
-1.15371e-05
-1.14296e-05
-1.1323e-05
-1.12391e-05
-1.11602e-05
-1.10916e-05
-1.10268e-05
-1.09823e-05
-1.09426e-05
-1.09122e-05
-1.0873e-05
-1.08494e-05
-1.08261e-05
-1.08089e-05
-1.07888e-05
-1.07739e-05
-1.07572e-05
-1.07469e-05
-1.07329e-05
-1.07223e-05
-1.07063e-05
-1.06958e-05
-1.06825e-05
-1.06699e-05
-1.06524e-05
-1.06389e-05
-1.0624e-05
-1.06083e-05
-1.05924e-05
-1.05724e-05
-1.05428e-05
-1.05178e-05
-1.04932e-05
-1.04631e-05
-1.04259e-05
-1.03894e-05
-1.03541e-05
-1.03133e-05
-1.02691e-05
-1.02219e-05
-1.01736e-05
-1.01207e-05
-1.00649e-05
-1.00045e-05
-9.9507e-06
-9.88342e-06
-9.82777e-06
-9.75236e-06
-9.70727e-06
-9.61603e-06
-9.59801e-06
-9.4801e-06
-9.55046e-06
-9.33913e-06
-9.6848e-06
-9.11754e-06
-1.17143e-05
-1.38262e-05
1.64538e-05
-1.36206e-05
-1.54332e-05
-4.02897e-05
-5.44733e-05
-4.20141e-05
-5.44502e-05
-4.89754e-05
-5.17226e-05
-4.89022e-05
-4.80735e-05
-4.57746e-05
-4.37822e-05
-4.15396e-05
-3.93443e-05
-3.70965e-05
-3.49929e-05
-3.2876e-05
-3.09663e-05
-2.90877e-05
-2.73478e-05
-2.57477e-05
-2.42311e-05
-2.28528e-05
-2.15785e-05
-2.0414e-05
-1.93709e-05
-1.84076e-05
-1.75452e-05
-1.6775e-05
-1.6073e-05
-1.54502e-05
-1.48986e-05
-1.43911e-05
-1.39538e-05
-1.356e-05
-1.32151e-05
-1.29132e-05
-1.2638e-05
-1.23953e-05
-1.21812e-05
-1.19831e-05
-1.18155e-05
-1.16714e-05
-1.15383e-05
-1.14304e-05
-1.13239e-05
-1.12398e-05
-1.1161e-05
-1.10922e-05
-1.10275e-05
-1.09829e-05
-1.09434e-05
-1.09126e-05
-1.08736e-05
-1.08498e-05
-1.08267e-05
-1.08092e-05
-1.07893e-05
-1.07742e-05
-1.07576e-05
-1.07471e-05
-1.07332e-05
-1.07224e-05
-1.07067e-05
-1.0696e-05
-1.06828e-05
-1.067e-05
-1.06527e-05
-1.0639e-05
-1.06242e-05
-1.06083e-05
-1.05925e-05
-1.05723e-05
-1.05429e-05
-1.05179e-05
-1.04932e-05
-1.04629e-05
-1.0426e-05
-1.03896e-05
-1.03543e-05
-1.03134e-05
-1.02693e-05
-1.02221e-05
-1.01738e-05
-1.01209e-05
-1.00651e-05
-1.00048e-05
-9.95096e-06
-9.88373e-06
-9.82806e-06
-9.75272e-06
-9.70769e-06
-9.61643e-06
-9.59865e-06
-9.4805e-06
-9.5515e-06
-9.33977e-06
-9.68759e-06
-9.1193e-06
-1.16965e-05
-1.3645e-05
1.6428e-05
-1.37213e-05
-1.55189e-05
-4.015e-05
-5.42986e-05
-4.19651e-05
-5.43657e-05
-4.89346e-05
-5.16785e-05
-4.88803e-05
-4.8056e-05
-4.57674e-05
-4.37796e-05
-4.1541e-05
-3.93487e-05
-3.71029e-05
-3.50004e-05
-3.28843e-05
-3.09746e-05
-2.90962e-05
-2.73561e-05
-2.57554e-05
-2.42386e-05
-2.286e-05
-2.15852e-05
-2.04201e-05
-1.93765e-05
-1.84127e-05
-1.75499e-05
-1.67793e-05
-1.60769e-05
-1.54538e-05
-1.49018e-05
-1.43943e-05
-1.39563e-05
-1.35624e-05
-1.32172e-05
-1.29151e-05
-1.26398e-05
-1.23969e-05
-1.21826e-05
-1.19845e-05
-1.18169e-05
-1.16724e-05
-1.15396e-05
-1.14311e-05
-1.1325e-05
-1.12406e-05
-1.11618e-05
-1.1093e-05
-1.10284e-05
-1.09836e-05
-1.09442e-05
-1.0913e-05
-1.08743e-05
-1.08502e-05
-1.08272e-05
-1.08095e-05
-1.07898e-05
-1.07745e-05
-1.0758e-05
-1.07472e-05
-1.07335e-05
-1.07226e-05
-1.0707e-05
-1.06961e-05
-1.0683e-05
-1.06701e-05
-1.06529e-05
-1.06392e-05
-1.06244e-05
-1.06083e-05
-1.05925e-05
-1.05721e-05
-1.05431e-05
-1.05179e-05
-1.04932e-05
-1.04627e-05
-1.04261e-05
-1.03898e-05
-1.03544e-05
-1.03135e-05
-1.02695e-05
-1.02223e-05
-1.01741e-05
-1.0121e-05
-1.00653e-05
-1.00051e-05
-9.95122e-06
-9.88405e-06
-9.82836e-06
-9.75309e-06
-9.70812e-06
-9.61685e-06
-9.59935e-06
-9.48094e-06
-9.5526e-06
-9.34046e-06
-9.69055e-06
-9.12123e-06
-1.16777e-05
-1.34438e-05
1.63955e-05
-1.38207e-05
-1.56066e-05
-3.99991e-05
-5.41103e-05
-4.19121e-05
-5.4274e-05
-4.8891e-05
-5.16307e-05
-4.88568e-05
-4.80369e-05
-4.57596e-05
-4.37766e-05
-4.15425e-05
-3.93533e-05
-3.71095e-05
-3.50084e-05
-3.28932e-05
-3.09836e-05
-2.91052e-05
-2.73649e-05
-2.57637e-05
-2.42467e-05
-2.28676e-05
-2.15924e-05
-2.04265e-05
-1.93825e-05
-1.84183e-05
-1.7555e-05
-1.67839e-05
-1.60811e-05
-1.54577e-05
-1.49052e-05
-1.43977e-05
-1.3959e-05
-1.3565e-05
-1.32194e-05
-1.29172e-05
-1.26416e-05
-1.23986e-05
-1.21842e-05
-1.19859e-05
-1.18184e-05
-1.16735e-05
-1.15409e-05
-1.1432e-05
-1.13261e-05
-1.12414e-05
-1.11627e-05
-1.10938e-05
-1.10292e-05
-1.09843e-05
-1.09451e-05
-1.09134e-05
-1.0875e-05
-1.08507e-05
-1.08278e-05
-1.08098e-05
-1.07903e-05
-1.07748e-05
-1.07585e-05
-1.07475e-05
-1.07338e-05
-1.07227e-05
-1.07073e-05
-1.06963e-05
-1.06833e-05
-1.06703e-05
-1.06532e-05
-1.06394e-05
-1.06246e-05
-1.06084e-05
-1.05925e-05
-1.0572e-05
-1.05432e-05
-1.0518e-05
-1.04932e-05
-1.04626e-05
-1.04262e-05
-1.039e-05
-1.03546e-05
-1.03136e-05
-1.02697e-05
-1.02225e-05
-1.01743e-05
-1.01212e-05
-1.00656e-05
-1.00054e-05
-9.95152e-06
-9.8844e-06
-9.8287e-06
-9.7535e-06
-9.70859e-06
-9.61731e-06
-9.60009e-06
-9.48141e-06
-9.55377e-06
-9.34119e-06
-9.69367e-06
-9.12332e-06
-1.16577e-05
-1.32189e-05
1.63551e-05
-1.3917e-05
-1.56952e-05
-3.98348e-05
-5.39067e-05
-4.18547e-05
-5.41742e-05
-4.88444e-05
-5.15788e-05
-4.88314e-05
-4.8016e-05
-4.5751e-05
-4.37732e-05
-4.15439e-05
-3.93581e-05
-3.71166e-05
-3.50168e-05
-3.29026e-05
-3.09931e-05
-2.91149e-05
-2.73743e-05
-2.57726e-05
-2.42553e-05
-2.28757e-05
-2.16001e-05
-2.04334e-05
-1.93889e-05
-1.84241e-05
-1.75603e-05
-1.67889e-05
-1.60856e-05
-1.54618e-05
-1.49088e-05
-1.44014e-05
-1.39619e-05
-1.35678e-05
-1.32217e-05
-1.29193e-05
-1.26436e-05
-1.24004e-05
-1.21858e-05
-1.19875e-05
-1.18199e-05
-1.16747e-05
-1.15423e-05
-1.14329e-05
-1.13273e-05
-1.12423e-05
-1.11636e-05
-1.10946e-05
-1.10301e-05
-1.0985e-05
-1.09459e-05
-1.09139e-05
-1.08758e-05
-1.08512e-05
-1.08284e-05
-1.08101e-05
-1.07908e-05
-1.07752e-05
-1.0759e-05
-1.07477e-05
-1.07342e-05
-1.07229e-05
-1.07077e-05
-1.06964e-05
-1.06835e-05
-1.06704e-05
-1.06535e-05
-1.06395e-05
-1.06248e-05
-1.06084e-05
-1.05925e-05
-1.05719e-05
-1.05433e-05
-1.0518e-05
-1.04931e-05
-1.04624e-05
-1.04263e-05
-1.03902e-05
-1.03547e-05
-1.03137e-05
-1.02699e-05
-1.02227e-05
-1.01745e-05
-1.01214e-05
-1.00659e-05
-1.00058e-05
-9.95182e-06
-9.88476e-06
-9.82905e-06
-9.75392e-06
-9.70908e-06
-9.61779e-06
-9.60088e-06
-9.48192e-06
-9.55501e-06
-9.34197e-06
-9.69698e-06
-9.12562e-06
-1.16364e-05
-1.29663e-05
1.63054e-05
-1.40084e-05
-1.57832e-05
-3.96549e-05
-5.36856e-05
-4.17925e-05
-5.40651e-05
-4.87944e-05
-5.15223e-05
-4.8804e-05
-4.79933e-05
-4.57416e-05
-4.37693e-05
-4.15452e-05
-3.93631e-05
-3.7124e-05
-3.50258e-05
-3.29125e-05
-3.10032e-05
-2.91251e-05
-2.73844e-05
-2.5782e-05
-2.42645e-05
-2.28843e-05
-2.16083e-05
-2.04408e-05
-1.93958e-05
-1.84304e-05
-1.75661e-05
-1.67941e-05
-1.60904e-05
-1.54661e-05
-1.49127e-05
-1.44052e-05
-1.3965e-05
-1.35707e-05
-1.32243e-05
-1.29217e-05
-1.26457e-05
-1.24023e-05
-1.21876e-05
-1.19891e-05
-1.18216e-05
-1.1676e-05
-1.15438e-05
-1.1434e-05
-1.13285e-05
-1.12432e-05
-1.11646e-05
-1.10955e-05
-1.10311e-05
-1.09857e-05
-1.09468e-05
-1.09144e-05
-1.08765e-05
-1.08517e-05
-1.0829e-05
-1.08105e-05
-1.07913e-05
-1.07756e-05
-1.07595e-05
-1.0748e-05
-1.07346e-05
-1.07231e-05
-1.0708e-05
-1.06966e-05
-1.06838e-05
-1.06706e-05
-1.06538e-05
-1.06397e-05
-1.0625e-05
-1.06084e-05
-1.05925e-05
-1.05718e-05
-1.05435e-05
-1.0518e-05
-1.04931e-05
-1.04622e-05
-1.04265e-05
-1.03904e-05
-1.03549e-05
-1.03139e-05
-1.02701e-05
-1.0223e-05
-1.01748e-05
-1.01216e-05
-1.00662e-05
-1.00061e-05
-9.95215e-06
-9.88515e-06
-9.82944e-06
-9.75438e-06
-9.70961e-06
-9.61832e-06
-9.60172e-06
-9.48248e-06
-9.55633e-06
-9.3428e-06
-9.70044e-06
-9.12811e-06
-1.16139e-05
-1.26811e-05
1.62452e-05
-1.40924e-05
-1.58692e-05
-3.94563e-05
-5.34443e-05
-4.1725e-05
-5.39458e-05
-4.87406e-05
-5.14607e-05
-4.87744e-05
-4.79684e-05
-4.57313e-05
-4.37647e-05
-4.15465e-05
-3.93683e-05
-3.71317e-05
-3.50352e-05
-3.29231e-05
-3.10139e-05
-2.9136e-05
-2.7395e-05
-2.5792e-05
-2.42743e-05
-2.28935e-05
-2.1617e-05
-2.04487e-05
-1.9403e-05
-1.84371e-05
-1.75722e-05
-1.67998e-05
-1.60956e-05
-1.54708e-05
-1.49168e-05
-1.44093e-05
-1.39684e-05
-1.35738e-05
-1.3227e-05
-1.29242e-05
-1.2648e-05
-1.24044e-05
-1.21895e-05
-1.19909e-05
-1.18233e-05
-1.16774e-05
-1.15453e-05
-1.14351e-05
-1.13298e-05
-1.12443e-05
-1.11656e-05
-1.10964e-05
-1.10321e-05
-1.09865e-05
-1.09477e-05
-1.0915e-05
-1.08773e-05
-1.08523e-05
-1.08296e-05
-1.08109e-05
-1.07919e-05
-1.07759e-05
-1.07599e-05
-1.07482e-05
-1.07349e-05
-1.07233e-05
-1.07084e-05
-1.06968e-05
-1.0684e-05
-1.06707e-05
-1.06541e-05
-1.06398e-05
-1.06251e-05
-1.06084e-05
-1.05925e-05
-1.05716e-05
-1.05436e-05
-1.0518e-05
-1.0493e-05
-1.0462e-05
-1.04266e-05
-1.03906e-05
-1.03551e-05
-1.0314e-05
-1.02703e-05
-1.02232e-05
-1.0175e-05
-1.01218e-05
-1.00665e-05
-1.00065e-05
-9.95248e-06
-9.88556e-06
-9.82984e-06
-9.75486e-06
-9.71016e-06
-9.61887e-06
-9.60262e-06
-9.48309e-06
-9.55773e-06
-9.34368e-06
-9.70409e-06
-9.13084e-06
-1.159e-05
-1.23579e-05
1.61731e-05
-1.4166e-05
-1.59511e-05
-3.92355e-05
-5.31796e-05
-4.16514e-05
-5.38146e-05
-4.86826e-05
-5.13933e-05
-4.87421e-05
-4.7941e-05
-4.57199e-05
-4.37595e-05
-4.15476e-05
-3.93735e-05
-3.71398e-05
-3.50451e-05
-3.29342e-05
-3.10252e-05
-2.91476e-05
-2.74063e-05
-2.58027e-05
-2.42847e-05
-2.29033e-05
-2.16263e-05
-2.04571e-05
-1.94108e-05
-1.84443e-05
-1.75787e-05
-1.68058e-05
-1.6101e-05
-1.54758e-05
-1.49212e-05
-1.44136e-05
-1.3972e-05
-1.35772e-05
-1.32299e-05
-1.29268e-05
-1.26504e-05
-1.24066e-05
-1.21915e-05
-1.19927e-05
-1.18251e-05
-1.16789e-05
-1.1547e-05
-1.14362e-05
-1.13312e-05
-1.12453e-05
-1.11667e-05
-1.10974e-05
-1.10331e-05
-1.09874e-05
-1.09487e-05
-1.09156e-05
-1.08781e-05
-1.08529e-05
-1.08303e-05
-1.08113e-05
-1.07925e-05
-1.07764e-05
-1.07605e-05
-1.07485e-05
-1.07353e-05
-1.07235e-05
-1.07088e-05
-1.0697e-05
-1.06843e-05
-1.06709e-05
-1.06544e-05
-1.064e-05
-1.06253e-05
-1.06085e-05
-1.05925e-05
-1.05715e-05
-1.05437e-05
-1.0518e-05
-1.0493e-05
-1.04619e-05
-1.04268e-05
-1.03908e-05
-1.03552e-05
-1.03141e-05
-1.02706e-05
-1.02234e-05
-1.01753e-05
-1.0122e-05
-1.00668e-05
-1.00069e-05
-9.95285e-06
-9.886e-06
-9.8303e-06
-9.75538e-06
-9.71077e-06
-9.61947e-06
-9.60358e-06
-9.48374e-06
-9.55921e-06
-9.34462e-06
-9.7079e-06
-9.13379e-06
-1.15647e-05
-1.19904e-05
1.60874e-05
-1.42257e-05
-1.60264e-05
-3.89885e-05
-5.28879e-05
-4.15708e-05
-5.36699e-05
-4.86197e-05
-5.13194e-05
-4.8707e-05
-4.79108e-05
-4.57072e-05
-4.37533e-05
-4.15484e-05
-3.93789e-05
-3.71482e-05
-3.50555e-05
-3.29459e-05
-3.10372e-05
-2.91599e-05
-2.74183e-05
-2.5814e-05
-2.42957e-05
-2.29137e-05
-2.16361e-05
-2.0466e-05
-1.9419e-05
-1.84519e-05
-1.75857e-05
-1.68121e-05
-1.61068e-05
-1.5481e-05
-1.49258e-05
-1.44181e-05
-1.39759e-05
-1.35807e-05
-1.3233e-05
-1.29296e-05
-1.26529e-05
-1.24089e-05
-1.21936e-05
-1.19947e-05
-1.18271e-05
-1.16805e-05
-1.15487e-05
-1.14375e-05
-1.13326e-05
-1.12465e-05
-1.11679e-05
-1.10984e-05
-1.10342e-05
-1.09882e-05
-1.09496e-05
-1.09162e-05
-1.0879e-05
-1.08536e-05
-1.0831e-05
-1.08118e-05
-1.0793e-05
-1.07768e-05
-1.0761e-05
-1.07488e-05
-1.07356e-05
-1.07237e-05
-1.07091e-05
-1.06972e-05
-1.06846e-05
-1.0671e-05
-1.06547e-05
-1.06402e-05
-1.06254e-05
-1.06084e-05
-1.05924e-05
-1.05713e-05
-1.05438e-05
-1.0518e-05
-1.04929e-05
-1.04617e-05
-1.04269e-05
-1.0391e-05
-1.03554e-05
-1.03143e-05
-1.02708e-05
-1.02237e-05
-1.01755e-05
-1.01222e-05
-1.00672e-05
-1.00074e-05
-9.95323e-06
-9.88646e-06
-9.83077e-06
-9.75592e-06
-9.71139e-06
-9.62011e-06
-9.6046e-06
-9.48445e-06
-9.56078e-06
-9.34563e-06
-9.71189e-06
-9.13702e-06
-1.1538e-05
-1.15716e-05
1.59869e-05
-1.42674e-05
-1.60923e-05
-3.87101e-05
-5.25646e-05
-4.14821e-05
-5.35095e-05
-4.85512e-05
-5.1238e-05
-4.86685e-05
-4.78775e-05
-4.5693e-05
-4.37461e-05
-4.1549e-05
-3.93843e-05
-3.71569e-05
-3.50664e-05
-3.29583e-05
-3.10498e-05
-2.91729e-05
-2.74311e-05
-2.58261e-05
-2.43074e-05
-2.29247e-05
-2.16466e-05
-2.04756e-05
-1.94278e-05
-1.846e-05
-1.7593e-05
-1.68189e-05
-1.61129e-05
-1.54866e-05
-1.49308e-05
-1.44229e-05
-1.398e-05
-1.35845e-05
-1.32363e-05
-1.29325e-05
-1.26556e-05
-1.24114e-05
-1.21958e-05
-1.19969e-05
-1.18291e-05
-1.16822e-05
-1.15505e-05
-1.14388e-05
-1.13341e-05
-1.12477e-05
-1.11691e-05
-1.10995e-05
-1.10353e-05
-1.09891e-05
-1.09505e-05
-1.09169e-05
-1.08798e-05
-1.08542e-05
-1.08317e-05
-1.08122e-05
-1.07936e-05
-1.07772e-05
-1.07615e-05
-1.07491e-05
-1.0736e-05
-1.07239e-05
-1.07095e-05
-1.06974e-05
-1.06848e-05
-1.06712e-05
-1.0655e-05
-1.06404e-05
-1.06256e-05
-1.06085e-05
-1.05924e-05
-1.05712e-05
-1.05439e-05
-1.0518e-05
-1.04928e-05
-1.04616e-05
-1.04271e-05
-1.03913e-05
-1.03556e-05
-1.03144e-05
-1.02711e-05
-1.02239e-05
-1.01758e-05
-1.01225e-05
-1.00676e-05
-1.00078e-05
-9.95366e-06
-9.88696e-06
-9.8313e-06
-9.75651e-06
-9.71208e-06
-9.6208e-06
-9.60569e-06
-9.48521e-06
-9.56245e-06
-9.3467e-06
-9.71605e-06
-9.1405e-06
-1.15098e-05
-1.10936e-05
1.58702e-05
-1.42859e-05
-1.61454e-05
-3.8395e-05
-5.22045e-05
-4.13838e-05
-5.33312e-05
-4.8476e-05
-5.11481e-05
-4.86261e-05
-4.78405e-05
-4.56771e-05
-4.37377e-05
-4.15491e-05
-3.93896e-05
-3.71659e-05
-3.50778e-05
-3.29713e-05
-3.10632e-05
-2.91866e-05
-2.74445e-05
-2.58389e-05
-2.43198e-05
-2.29364e-05
-2.16577e-05
-2.04857e-05
-1.94371e-05
-1.84685e-05
-1.76009e-05
-1.68261e-05
-1.61195e-05
-1.54925e-05
-1.49361e-05
-1.4428e-05
-1.39844e-05
-1.35885e-05
-1.32397e-05
-1.29357e-05
-1.26584e-05
-1.2414e-05
-1.21982e-05
-1.19991e-05
-1.18313e-05
-1.1684e-05
-1.15523e-05
-1.14403e-05
-1.13357e-05
-1.1249e-05
-1.11703e-05
-1.11006e-05
-1.10365e-05
-1.09901e-05
-1.09515e-05
-1.09176e-05
-1.08807e-05
-1.08549e-05
-1.08324e-05
-1.08127e-05
-1.07942e-05
-1.07777e-05
-1.0762e-05
-1.07494e-05
-1.07364e-05
-1.07242e-05
-1.07099e-05
-1.06976e-05
-1.06851e-05
-1.06713e-05
-1.06553e-05
-1.06405e-05
-1.06257e-05
-1.06084e-05
-1.05923e-05
-1.05711e-05
-1.0544e-05
-1.05179e-05
-1.04927e-05
-1.04614e-05
-1.04273e-05
-1.03915e-05
-1.03557e-05
-1.03146e-05
-1.02713e-05
-1.02242e-05
-1.01761e-05
-1.01228e-05
-1.0068e-05
-1.00083e-05
-9.95409e-06
-9.88747e-06
-9.83185e-06
-9.75713e-06
-9.71279e-06
-9.62153e-06
-9.60684e-06
-9.48604e-06
-9.56421e-06
-9.34784e-06
-9.72038e-06
-9.14431e-06
-1.14802e-05
-1.05479e-05
1.57363e-05
-1.42754e-05
-1.61817e-05
-3.80365e-05
-5.18015e-05
-4.12739e-05
-5.31317e-05
-4.83931e-05
-5.10482e-05
-4.85791e-05
-4.77993e-05
-4.56591e-05
-4.37278e-05
-4.15487e-05
-3.93949e-05
-3.71752e-05
-3.50897e-05
-3.29849e-05
-3.10772e-05
-2.92011e-05
-2.74587e-05
-2.58524e-05
-2.4333e-05
-2.29487e-05
-2.16694e-05
-2.04965e-05
-1.9447e-05
-1.84777e-05
-1.76092e-05
-1.68337e-05
-1.61264e-05
-1.54988e-05
-1.49417e-05
-1.44334e-05
-1.3989e-05
-1.35928e-05
-1.32435e-05
-1.2939e-05
-1.26615e-05
-1.24168e-05
-1.22007e-05
-1.20015e-05
-1.18335e-05
-1.16859e-05
-1.15543e-05
-1.14418e-05
-1.13374e-05
-1.12503e-05
-1.11717e-05
-1.11018e-05
-1.10377e-05
-1.0991e-05
-1.09525e-05
-1.09184e-05
-1.08817e-05
-1.08557e-05
-1.08331e-05
-1.08133e-05
-1.07948e-05
-1.07782e-05
-1.07626e-05
-1.07498e-05
-1.07368e-05
-1.07244e-05
-1.07103e-05
-1.06978e-05
-1.06853e-05
-1.06715e-05
-1.06556e-05
-1.06407e-05
-1.06258e-05
-1.06084e-05
-1.05922e-05
-1.05709e-05
-1.05441e-05
-1.05179e-05
-1.04926e-05
-1.04613e-05
-1.04275e-05
-1.03917e-05
-1.03559e-05
-1.03148e-05
-1.02716e-05
-1.02245e-05
-1.01764e-05
-1.01231e-05
-1.00684e-05
-1.00088e-05
-9.95457e-06
-9.88804e-06
-9.83246e-06
-9.75781e-06
-9.71357e-06
-9.62232e-06
-9.60807e-06
-9.48693e-06
-9.56607e-06
-9.34905e-06
-9.72485e-06
-9.14841e-06
-1.14489e-05
-9.92538e-06
1.55845e-05
-1.42291e-05
-1.61967e-05
-3.76275e-05
-5.13484e-05
-4.11499e-05
-5.29075e-05
-4.83009e-05
-5.09368e-05
-4.85267e-05
-4.77531e-05
-4.56386e-05
-4.37161e-05
-4.15475e-05
-3.93998e-05
-3.71845e-05
-3.5102e-05
-3.29991e-05
-3.1092e-05
-2.92164e-05
-2.74737e-05
-2.58667e-05
-2.43469e-05
-2.29618e-05
-2.16818e-05
-2.05079e-05
-1.94575e-05
-1.84873e-05
-1.7618e-05
-1.68418e-05
-1.61337e-05
-1.55055e-05
-1.49476e-05
-1.44391e-05
-1.3994e-05
-1.35973e-05
-1.32474e-05
-1.29425e-05
-1.26647e-05
-1.24197e-05
-1.22033e-05
-1.20041e-05
-1.18359e-05
-1.16879e-05
-1.15564e-05
-1.14435e-05
-1.13391e-05
-1.12517e-05
-1.1173e-05
-1.1103e-05
-1.10389e-05
-1.0992e-05
-1.09535e-05
-1.09192e-05
-1.08826e-05
-1.08564e-05
-1.08339e-05
-1.08138e-05
-1.07954e-05
-1.07787e-05
-1.07631e-05
-1.07501e-05
-1.07371e-05
-1.07247e-05
-1.07106e-05
-1.0698e-05
-1.06856e-05
-1.06717e-05
-1.06558e-05
-1.06408e-05
-1.06259e-05
-1.06084e-05
-1.0592e-05
-1.05707e-05
-1.05441e-05
-1.05178e-05
-1.04925e-05
-1.04612e-05
-1.04277e-05
-1.03919e-05
-1.03561e-05
-1.03149e-05
-1.02719e-05
-1.02248e-05
-1.01767e-05
-1.01234e-05
-1.00689e-05
-1.00094e-05
-9.95506e-06
-9.88863e-06
-9.8331e-06
-9.75852e-06
-9.71439e-06
-9.62316e-06
-9.60937e-06
-9.48789e-06
-9.56804e-06
-9.35035e-06
-9.72948e-06
-9.15288e-06
-1.14161e-05
-9.21633e-06
1.54147e-05
-1.41391e-05
-1.61851e-05
-3.71598e-05
-5.08372e-05
-4.10086e-05
-5.26542e-05
-4.81974e-05
-5.08118e-05
-4.84678e-05
-4.77011e-05
-4.56151e-05
-4.37023e-05
-4.15454e-05
-3.94044e-05
-3.7194e-05
-3.51147e-05
-3.30139e-05
-3.11075e-05
-2.92325e-05
-2.74895e-05
-2.58818e-05
-2.43616e-05
-2.29756e-05
-2.1695e-05
-2.052e-05
-1.94686e-05
-1.84975e-05
-1.76273e-05
-1.68503e-05
-1.61415e-05
-1.55125e-05
-1.49539e-05
-1.44451e-05
-1.39993e-05
-1.36021e-05
-1.32516e-05
-1.29462e-05
-1.26681e-05
-1.24228e-05
-1.22061e-05
-1.20068e-05
-1.18385e-05
-1.16901e-05
-1.15585e-05
-1.14452e-05
-1.13409e-05
-1.12532e-05
-1.11745e-05
-1.11043e-05
-1.10402e-05
-1.09931e-05
-1.09545e-05
-1.092e-05
-1.08836e-05
-1.08572e-05
-1.08346e-05
-1.08144e-05
-1.07961e-05
-1.07792e-05
-1.07637e-05
-1.07505e-05
-1.07375e-05
-1.07249e-05
-1.0711e-05
-1.06983e-05
-1.06858e-05
-1.06719e-05
-1.06561e-05
-1.0641e-05
-1.0626e-05
-1.06084e-05
-1.0592e-05
-1.05706e-05
-1.05442e-05
-1.05178e-05
-1.04925e-05
-1.04611e-05
-1.04279e-05
-1.03921e-05
-1.03563e-05
-1.03151e-05
-1.02722e-05
-1.02251e-05
-1.01771e-05
-1.01238e-05
-1.00694e-05
-1.001e-05
-9.95561e-06
-9.88927e-06
-9.83381e-06
-9.75929e-06
-9.71528e-06
-9.62407e-06
-9.61076e-06
-9.48893e-06
-9.57013e-06
-9.35172e-06
-9.73422e-06
-9.15768e-06
-1.13816e-05
-8.411e-06
1.52274e-05
-1.39966e-05
-1.61412e-05
-3.66248e-05
-5.02588e-05
-4.08459e-05
-5.23667e-05
-4.80803e-05
-5.06708e-05
-4.84011e-05
-4.76423e-05
-4.5588e-05
-4.36859e-05
-4.1542e-05
-3.94084e-05
-3.72034e-05
-3.51277e-05
-3.30292e-05
-3.11236e-05
-2.92493e-05
-2.75061e-05
-2.58977e-05
-2.4377e-05
-2.29902e-05
-2.17088e-05
-2.05328e-05
-1.94803e-05
-1.85083e-05
-1.76372e-05
-1.68594e-05
-1.61497e-05
-1.552e-05
-1.49606e-05
-1.44514e-05
-1.40049e-05
-1.36072e-05
-1.32561e-05
-1.29502e-05
-1.26716e-05
-1.2426e-05
-1.22091e-05
-1.20096e-05
-1.18412e-05
-1.16924e-05
-1.15608e-05
-1.1447e-05
-1.13428e-05
-1.12548e-05
-1.1176e-05
-1.11056e-05
-1.10415e-05
-1.09941e-05
-1.09555e-05
-1.09208e-05
-1.08846e-05
-1.08581e-05
-1.08354e-05
-1.0815e-05
-1.07967e-05
-1.07797e-05
-1.07642e-05
-1.07508e-05
-1.07379e-05
-1.07252e-05
-1.07114e-05
-1.06985e-05
-1.06861e-05
-1.0672e-05
-1.06564e-05
-1.06411e-05
-1.0626e-05
-1.06083e-05
-1.05918e-05
-1.05704e-05
-1.05442e-05
-1.05178e-05
-1.04923e-05
-1.0461e-05
-1.0428e-05
-1.03923e-05
-1.03565e-05
-1.03153e-05
-1.02725e-05
-1.02254e-05
-1.01774e-05
-1.01241e-05
-1.00699e-05
-1.00106e-05
-9.95618e-06
-9.88995e-06
-9.83456e-06
-9.76011e-06
-9.71621e-06
-9.62505e-06
-9.61223e-06
-9.49005e-06
-9.57232e-06
-9.35319e-06
-9.73909e-06
-9.16288e-06
-1.13456e-05
-7.49942e-06
1.50243e-05
-1.37916e-05
-1.60581e-05
-3.60128e-05
-4.96029e-05
-4.06568e-05
-5.20386e-05
-4.79464e-05
-5.05109e-05
-4.8325e-05
-4.75752e-05
-4.55565e-05
-4.36662e-05
-4.15371e-05
-3.94116e-05
-3.72127e-05
-3.5141e-05
-3.30451e-05
-3.11404e-05
-2.9267e-05