/*--------------------------------*- C++ -*----------------------------------*\
| =========                 |                                                 |
| \\      /  F ield         | OpenFOAM: The Open Source CFD Toolbox           |
|  \\    /   O peration     | Version:  5.x                                   |
|   \\  /    A nd           | Web:      www.OpenFOAM.org                      |
|    \\/     M anipulation  |                                                 |
\*---------------------------------------------------------------------------*/
FoamFile
{
    version     2.0;
    format      ascii;
    class       volScalarField;
    location    "2000";
    object      p;
}
// * * * * * * * * * * * * * * * * * * * * * * * * * * * * * * * * * * * * * //

dimensions      [0 2 -2 0 0 0 0];

internalField   nonuniform List<scalar> 
107912
(
2.2866e-05
5.00698e-05
2.18566e-05
1.1654e-05
-2.14404e-05
-4.83798e-05
-3.8755e-05
-6.18042e-05
-6.25862e-05
-7.23755e-05
-7.53446e-05
-7.96061e-05
-8.19461e-05
-8.3716e-05
-8.48095e-05
-8.54682e-05
-8.54582e-05
-8.54021e-05
-8.47438e-05
-8.40156e-05
-8.30504e-05
-8.18086e-05
-8.05154e-05
-7.90604e-05
-7.74626e-05
-7.58408e-05
-7.41097e-05
-7.23124e-05
-7.05144e-05
-6.8643e-05
-6.6815e-05
-6.49671e-05
-6.31242e-05
-6.13318e-05
-5.9573e-05
-5.78663e-05
-5.622e-05
-5.46476e-05
-5.31478e-05
-5.17374e-05
-5.04045e-05
-4.9184e-05
-4.80375e-05
-4.69866e-05
-4.6029e-05
-4.51427e-05
-4.4364e-05
-4.36323e-05
-4.30039e-05
-4.24146e-05
-4.19048e-05
-4.14339e-05
-4.10814e-05
-4.07685e-05
-4.05134e-05
-4.02669e-05
-4.00595e-05
-3.98586e-05
-3.969e-05
-3.95254e-05
-3.93839e-05
-3.92444e-05
-3.91299e-05
-3.90092e-05
-3.89107e-05
-3.88109e-05
-3.87277e-05
-3.86406e-05
-3.85694e-05
-3.85013e-05
-3.84426e-05
-3.83816e-05
-3.8328e-05
-3.82756e-05
-3.82341e-05
-3.82084e-05
-3.81723e-05
-3.81351e-05
-3.81044e-05
-3.80829e-05
-3.8056e-05
-3.80346e-05
-3.80067e-05
-3.79854e-05
-3.79547e-05
-3.7931e-05
-3.78948e-05
-3.78647e-05
-3.78201e-05
-3.77886e-05
-3.77325e-05
-3.76889e-05
-3.76156e-05
-3.75691e-05
-3.74722e-05
-3.74455e-05
-3.7312e-05
-3.73497e-05
-3.71214e-05
-3.74192e-05
-3.69286e-05
-3.943e-05
3.22037e-05
5.00251e-05
2.17415e-05
1.15511e-05
-2.13682e-05
-4.82599e-05
-3.8717e-05
-6.17293e-05
-6.25342e-05
-7.23199e-05
-7.53035e-05
-7.95692e-05
-8.19178e-05
-8.36933e-05
-8.47916e-05
-8.54547e-05
-8.54481e-05
-8.53947e-05
-8.47391e-05
-8.40124e-05
-8.30489e-05
-8.18085e-05
-8.05162e-05
-7.90622e-05
-7.74649e-05
-7.58436e-05
-7.41129e-05
-7.2316e-05
-7.05181e-05
-6.86469e-05
-6.68189e-05
-6.4971e-05
-6.31281e-05
-6.13356e-05
-5.95767e-05
-5.78698e-05
-5.62234e-05
-5.46507e-05
-5.31508e-05
-5.17402e-05
-5.04071e-05
-4.91864e-05
-4.80398e-05
-4.69887e-05
-4.60307e-05
-4.51444e-05
-4.43654e-05
-4.36337e-05
-4.3005e-05
-4.24157e-05
-4.19058e-05
-4.14349e-05
-4.10821e-05
-4.07693e-05
-4.0514e-05
-4.02675e-05
-4.006e-05
-3.98591e-05
-3.96903e-05
-3.95258e-05
-3.93842e-05
-3.92448e-05
-3.91301e-05
-3.90096e-05
-3.89109e-05
-3.88112e-05
-3.87278e-05
-3.86409e-05
-3.85696e-05
-3.85015e-05
-3.84428e-05
-3.83818e-05
-3.83281e-05
-3.82758e-05
-3.82342e-05
-3.82084e-05
-3.81724e-05
-3.81352e-05
-3.81045e-05
-3.80829e-05
-3.80561e-05
-3.80347e-05
-3.80067e-05
-3.79854e-05
-3.79548e-05
-3.7931e-05
-3.78948e-05
-3.78647e-05
-3.78202e-05
-3.77886e-05
-3.77327e-05
-3.7689e-05
-3.76158e-05
-3.75694e-05
-3.74724e-05
-3.74459e-05
-3.73123e-05
-3.73504e-05
-3.7122e-05
-3.7421e-05
-3.69291e-05
-3.93418e-05
3.34458e-05
4.99714e-05
2.16093e-05
1.14332e-05
-2.12906e-05
-4.81224e-05
-3.86739e-05
-6.16482e-05
-6.24751e-05
-7.22584e-05
-7.52568e-05
-7.95274e-05
-8.18852e-05
-8.36668e-05
-8.47706e-05
-8.54384e-05
-8.54356e-05
-8.53852e-05
-8.47327e-05
-8.40077e-05
-8.30461e-05
-8.18073e-05
-8.05159e-05
-7.90631e-05
-7.74664e-05
-7.58458e-05
-7.41155e-05
-7.2319e-05
-7.05214e-05
-6.86504e-05
-6.68224e-05
-6.49746e-05
-6.31317e-05
-6.13391e-05
-5.95801e-05
-5.78731e-05
-5.62267e-05
-5.46537e-05
-5.31537e-05
-5.17429e-05
-5.04097e-05
-4.91888e-05
-4.8042e-05
-4.69907e-05
-4.60325e-05
-4.51462e-05
-4.43667e-05
-4.36352e-05
-4.30061e-05
-4.24168e-05
-4.19068e-05
-4.14358e-05
-4.10827e-05
-4.07701e-05
-4.05145e-05
-4.02682e-05
-4.00605e-05
-3.98597e-05
-3.96907e-05
-3.95263e-05
-3.93846e-05
-3.92453e-05
-3.91304e-05
-3.90099e-05
-3.89112e-05
-3.88115e-05
-3.8728e-05
-3.86412e-05
-3.85698e-05
-3.85018e-05
-3.84429e-05
-3.8382e-05
-3.83283e-05
-3.8276e-05
-3.82345e-05
-3.82085e-05
-3.81725e-05
-3.81353e-05
-3.81046e-05
-3.8083e-05
-3.80562e-05
-3.80347e-05
-3.80068e-05
-3.79854e-05
-3.79549e-05
-3.7931e-05
-3.78949e-05
-3.78647e-05
-3.78204e-05
-3.77886e-05
-3.77328e-05
-3.76891e-05
-3.7616e-05
-3.75696e-05
-3.74727e-05
-3.74463e-05
-3.73125e-05
-3.73513e-05
-3.71226e-05
-3.7423e-05
-3.69303e-05
-3.93263e-05
3.29191e-05
4.9915e-05
2.14758e-05
1.13123e-05
-2.12128e-05
-4.79809e-05
-3.86295e-05
-6.15647e-05
-6.24146e-05
-7.21949e-05
-7.52088e-05
-7.94842e-05
-8.18515e-05
-8.36394e-05
-8.47488e-05
-8.54213e-05
-8.54226e-05
-8.53753e-05
-8.47259e-05
-8.40027e-05
-8.30431e-05
-8.1806e-05
-8.05156e-05
-7.90639e-05
-7.74678e-05
-7.58479e-05
-7.41179e-05
-7.2322e-05
-7.05246e-05
-6.86538e-05
-6.68259e-05
-6.49782e-05
-6.31353e-05
-6.13427e-05
-5.95836e-05
-5.78764e-05
-5.62301e-05
-5.46566e-05
-5.31567e-05
-5.17457e-05
-5.04123e-05
-4.91911e-05
-4.80442e-05
-4.69928e-05
-4.60343e-05
-4.51481e-05
-4.4368e-05
-4.36368e-05
-4.30071e-05
-4.2418e-05
-4.19079e-05
-4.14369e-05
-4.10832e-05
-4.07709e-05
-4.0515e-05
-4.02689e-05
-4.00609e-05
-3.98604e-05
-3.9691e-05
-3.95267e-05
-3.93849e-05
-3.92457e-05
-3.91306e-05
-3.90103e-05
-3.89114e-05
-3.88119e-05
-3.87282e-05
-3.86415e-05
-3.85699e-05
-3.8502e-05
-3.8443e-05
-3.83822e-05
-3.83284e-05
-3.82762e-05
-3.82347e-05
-3.82086e-05
-3.81726e-05
-3.81354e-05
-3.81048e-05
-3.80831e-05
-3.80563e-05
-3.80347e-05
-3.80069e-05
-3.79854e-05
-3.7955e-05
-3.7931e-05
-3.7895e-05
-3.78647e-05
-3.78205e-05
-3.77886e-05
-3.77329e-05
-3.76891e-05
-3.76162e-05
-3.75699e-05
-3.7473e-05
-3.74467e-05
-3.73128e-05
-3.73523e-05
-3.71233e-05
-3.74252e-05
-3.69315e-05
-3.93209e-05
3.2761e-05
4.98544e-05
2.13381e-05
1.11857e-05
-2.11317e-05
-4.78316e-05
-3.85824e-05
-6.14754e-05
-6.23509e-05
-7.21274e-05
-7.5158e-05
-7.94382e-05
-8.18157e-05
-8.36102e-05
-8.47257e-05
-8.54032e-05
-8.54088e-05
-8.53647e-05
-8.47187e-05
-8.39973e-05
-8.30399e-05
-8.18045e-05
-8.05152e-05
-7.90647e-05
-7.74692e-05
-7.58501e-05
-7.41205e-05
-7.23252e-05
-7.0528e-05
-6.86575e-05
-6.68296e-05
-6.4982e-05
-6.31392e-05
-6.13465e-05
-5.95873e-05
-5.78799e-05
-5.62337e-05
-5.46597e-05
-5.31598e-05
-5.17487e-05
-5.04151e-05
-4.91936e-05
-4.80466e-05
-4.6995e-05
-4.60361e-05
-4.51501e-05
-4.43693e-05
-4.36385e-05
-4.30081e-05
-4.24192e-05
-4.1909e-05
-4.1438e-05
-4.10838e-05
-4.07718e-05
-4.05155e-05
-4.02696e-05
-4.00613e-05
-3.9861e-05
-3.96913e-05
-3.95272e-05
-3.93852e-05
-3.92462e-05
-3.91308e-05
-3.90108e-05
-3.89116e-05
-3.88122e-05
-3.87283e-05
-3.86418e-05
-3.85701e-05
-3.85023e-05
-3.84431e-05
-3.83824e-05
-3.83286e-05
-3.82764e-05
-3.8235e-05
-3.82086e-05
-3.81728e-05
-3.81356e-05
-3.8105e-05
-3.80831e-05
-3.80565e-05
-3.80347e-05
-3.8007e-05
-3.79853e-05
-3.79552e-05
-3.7931e-05
-3.78952e-05
-3.78646e-05
-3.78207e-05
-3.77886e-05
-3.77331e-05
-3.76892e-05
-3.76165e-05
-3.75702e-05
-3.74734e-05
-3.74472e-05
-3.7313e-05
-3.73533e-05
-3.7124e-05
-3.74274e-05
-3.69327e-05
-3.93111e-05
3.28226e-05
4.97881e-05
2.11946e-05
1.10521e-05
-2.10455e-05
-4.76716e-05
-3.85318e-05
-6.1379e-05
-6.22828e-05
-7.20547e-05
-7.51034e-05
-7.93887e-05
-8.17773e-05
-8.35787e-05
-8.47008e-05
-8.53837e-05
-8.53939e-05
-8.53534e-05
-8.4711e-05
-8.39915e-05
-8.30364e-05
-8.18029e-05
-8.05149e-05
-7.90657e-05
-7.74707e-05
-7.58526e-05
-7.41233e-05
-7.23286e-05
-7.05317e-05
-6.86615e-05
-6.68337e-05
-6.49861e-05
-6.31434e-05
-6.13506e-05
-5.95914e-05
-5.78837e-05
-5.62376e-05
-5.46631e-05
-5.31632e-05
-5.17519e-05
-5.0418e-05
-4.91963e-05
-4.80491e-05
-4.69974e-05
-4.60381e-05
-4.51522e-05
-4.43708e-05
-4.36403e-05
-4.30092e-05
-4.24205e-05
-4.19101e-05
-4.14392e-05
-4.10843e-05
-4.07728e-05
-4.05161e-05
-4.02704e-05
-4.00618e-05
-3.98618e-05
-3.96916e-05
-3.95278e-05
-3.93855e-05
-3.92468e-05
-3.9131e-05
-3.90112e-05
-3.89118e-05
-3.88126e-05
-3.87285e-05
-3.86421e-05
-3.85703e-05
-3.85025e-05
-3.84433e-05
-3.83826e-05
-3.83289e-05
-3.82766e-05
-3.82353e-05
-3.82087e-05
-3.81729e-05
-3.81357e-05
-3.81052e-05
-3.80832e-05
-3.80567e-05
-3.80348e-05
-3.80072e-05
-3.79853e-05
-3.79554e-05
-3.7931e-05
-3.78954e-05
-3.78646e-05
-3.7821e-05
-3.77886e-05
-3.77333e-05
-3.76892e-05
-3.76168e-05
-3.75706e-05
-3.74737e-05
-3.74476e-05
-3.73133e-05
-3.73545e-05
-3.71248e-05
-3.74298e-05
-3.69341e-05
-3.92988e-05
3.28955e-05
4.97153e-05
2.10456e-05
1.09115e-05
-2.09535e-05
-4.74999e-05
-3.84773e-05
-6.12747e-05
-6.221e-05
-7.19764e-05
-7.50449e-05
-7.93355e-05
-8.1736e-05
-8.35449e-05
-8.46741e-05
-8.53627e-05
-8.53779e-05
-8.53411e-05
-8.47026e-05
-8.39853e-05
-8.30327e-05
-8.18012e-05
-8.05144e-05
-7.90667e-05
-7.74723e-05
-7.58552e-05
-7.41263e-05
-7.23323e-05
-7.05356e-05
-6.86658e-05
-6.68379e-05
-6.49905e-05
-6.31478e-05
-6.1355e-05
-5.95956e-05
-5.78878e-05
-5.62417e-05
-5.46667e-05
-5.31669e-05
-5.17553e-05
-5.04212e-05
-4.91992e-05
-4.80519e-05
-4.69999e-05
-4.60402e-05
-4.51544e-05
-4.43723e-05
-4.36422e-05
-4.30104e-05
-4.24218e-05
-4.19114e-05
-4.14404e-05
-4.1085e-05
-4.07738e-05
-4.05167e-05
-4.02712e-05
-4.00623e-05
-3.98626e-05
-3.9692e-05
-3.95283e-05
-3.93859e-05
-3.92473e-05
-3.91312e-05
-3.90117e-05
-3.89121e-05
-3.8813e-05
-3.87287e-05
-3.86425e-05
-3.85706e-05
-3.85028e-05
-3.84434e-05
-3.83828e-05
-3.83291e-05
-3.82769e-05
-3.82357e-05
-3.82087e-05
-3.81731e-05
-3.81358e-05
-3.81055e-05
-3.80833e-05
-3.80569e-05
-3.80348e-05
-3.80074e-05
-3.79853e-05
-3.79556e-05
-3.7931e-05
-3.78956e-05
-3.78646e-05
-3.78213e-05
-3.77886e-05
-3.77335e-05
-3.76893e-05
-3.76172e-05
-3.75709e-05
-3.74742e-05
-3.74482e-05
-3.73135e-05
-3.73557e-05
-3.71257e-05
-3.74323e-05
-3.69355e-05
-3.92858e-05
3.2958e-05
4.96353e-05
2.08917e-05
1.07647e-05
-2.08545e-05
-4.7315e-05
-3.84188e-05
-6.11619e-05
-6.21322e-05
-7.18921e-05
-7.49821e-05
-7.92782e-05
-8.16916e-05
-8.35084e-05
-8.46453e-05
-8.53401e-05
-8.53607e-05
-8.5328e-05
-8.46937e-05
-8.39786e-05
-8.30286e-05
-8.17994e-05
-8.0514e-05
-7.90677e-05
-7.74741e-05
-7.58579e-05
-7.41296e-05
-7.23362e-05
-7.05398e-05
-6.86704e-05
-6.68426e-05
-6.49952e-05
-6.31526e-05
-6.13598e-05
-5.96002e-05
-5.78921e-05
-5.62461e-05
-5.46705e-05
-5.31707e-05
-5.17589e-05
-5.04246e-05
-4.92023e-05
-4.80548e-05
-4.70026e-05
-4.60425e-05
-4.51569e-05
-4.4374e-05
-4.36443e-05
-4.30116e-05
-4.24233e-05
-4.19127e-05
-4.14418e-05
-4.10857e-05
-4.07749e-05
-4.05174e-05
-4.02721e-05
-4.00629e-05
-3.98634e-05
-3.96925e-05
-3.9529e-05
-3.93864e-05
-3.92479e-05
-3.91315e-05
-3.90122e-05
-3.89124e-05
-3.88135e-05
-3.87289e-05
-3.86429e-05
-3.85708e-05
-3.85031e-05
-3.84436e-05
-3.8383e-05
-3.83294e-05
-3.82772e-05
-3.82361e-05
-3.82088e-05
-3.81733e-05
-3.8136e-05
-3.81058e-05
-3.80835e-05
-3.80571e-05
-3.80348e-05
-3.80076e-05
-3.79853e-05
-3.79559e-05
-3.7931e-05
-3.78959e-05
-3.78646e-05
-3.78216e-05
-3.77886e-05
-3.77338e-05
-3.76894e-05
-3.76176e-05
-3.75713e-05
-3.74746e-05
-3.74487e-05
-3.73138e-05
-3.73571e-05
-3.71266e-05
-3.74351e-05
-3.69372e-05
-3.9272e-05
3.30238e-05
4.95475e-05
2.07337e-05
1.06121e-05
-2.0747e-05
-4.71154e-05
-3.83559e-05
-6.10395e-05
-6.20489e-05
-7.18011e-05
-7.49145e-05
-7.92166e-05
-8.16438e-05
-8.34692e-05
-8.46142e-05
-8.53158e-05
-8.53421e-05
-8.53138e-05
-8.46839e-05
-8.39714e-05
-8.30243e-05
-8.17974e-05
-8.05135e-05
-7.90688e-05
-7.7476e-05
-7.58609e-05
-7.41331e-05
-7.23404e-05
-7.05444e-05
-6.86753e-05
-6.68475e-05
-6.50003e-05
-6.31577e-05
-6.13648e-05
-5.96051e-05
-5.78968e-05
-5.62508e-05
-5.46747e-05
-5.31749e-05
-5.17628e-05
-5.04282e-05
-4.92056e-05
-4.80579e-05
-4.70054e-05
-4.60449e-05
-4.51594e-05
-4.43758e-05
-4.36464e-05
-4.30131e-05
-4.24248e-05
-4.19141e-05
-4.14432e-05
-4.10864e-05
-4.0776e-05
-4.05181e-05
-4.02731e-05
-4.00635e-05
-3.98643e-05
-3.96929e-05
-3.95296e-05
-3.93868e-05
-3.92486e-05
-3.91318e-05
-3.90128e-05
-3.89128e-05
-3.8814e-05
-3.87292e-05
-3.86433e-05
-3.85711e-05
-3.85034e-05
-3.84438e-05
-3.83833e-05
-3.83298e-05
-3.82775e-05
-3.82365e-05
-3.82088e-05
-3.81735e-05
-3.81362e-05
-3.81061e-05
-3.80836e-05
-3.80573e-05
-3.80349e-05
-3.80078e-05
-3.79853e-05
-3.79562e-05
-3.7931e-05
-3.78961e-05
-3.78646e-05
-3.78219e-05
-3.77886e-05
-3.77341e-05
-3.76895e-05
-3.7618e-05
-3.75718e-05
-3.74751e-05
-3.74493e-05
-3.73142e-05
-3.73585e-05
-3.71276e-05
-3.7438e-05
-3.69389e-05
-3.92573e-05
3.30997e-05
4.94509e-05
2.05725e-05
1.04548e-05
-2.06292e-05
-4.68987e-05
-3.82883e-05
-6.09064e-05
-6.19596e-05
-7.17028e-05
-7.48419e-05
-7.91502e-05
-8.15923e-05
-8.34269e-05
-8.45808e-05
-8.52896e-05
-8.53221e-05
-8.52985e-05
-8.46735e-05
-8.39636e-05
-8.30196e-05
-8.17952e-05
-8.05129e-05
-7.907e-05
-7.74781e-05
-7.58641e-05
-7.41368e-05
-7.23449e-05
-7.05492e-05
-6.86806e-05
-6.68528e-05
-6.50057e-05
-6.31633e-05
-6.13703e-05
-5.96104e-05
-5.79018e-05
-5.62559e-05
-5.46792e-05
-5.31794e-05
-5.17671e-05
-5.04321e-05
-4.92092e-05
-4.80612e-05
-4.70085e-05
-4.60475e-05
-4.51621e-05
-4.43777e-05
-4.36487e-05
-4.30146e-05
-4.24265e-05
-4.19157e-05
-4.14447e-05
-4.10873e-05
-4.07773e-05
-4.0519e-05
-4.02741e-05
-4.00641e-05
-3.98652e-05
-3.96935e-05
-3.95303e-05
-3.93874e-05
-3.92492e-05
-3.91322e-05
-3.90133e-05
-3.89132e-05
-3.88145e-05
-3.87295e-05
-3.86438e-05
-3.85715e-05
-3.85038e-05
-3.8444e-05
-3.83836e-05
-3.83301e-05
-3.82779e-05
-3.8237e-05
-3.82089e-05
-3.81737e-05
-3.81364e-05
-3.81064e-05
-3.80838e-05
-3.80576e-05
-3.8035e-05
-3.8008e-05
-3.79854e-05
-3.79564e-05
-3.7931e-05
-3.78964e-05
-3.78647e-05
-3.78223e-05
-3.77886e-05
-3.77344e-05
-3.76896e-05
-3.76185e-05
-3.75722e-05
-3.74756e-05
-3.745e-05
-3.73146e-05
-3.736e-05
-3.71286e-05
-3.7441e-05
-3.69408e-05
-3.92416e-05
3.31864e-05
4.93446e-05
2.04091e-05
1.02938e-05
-2.04987e-05
-4.66624e-05
-3.82155e-05
-6.07611e-05
-6.18635e-05
-7.15964e-05
-7.47635e-05
-7.90785e-05
-8.15368e-05
-8.33813e-05
-8.45447e-05
-8.52613e-05
-8.53005e-05
-8.52819e-05
-8.46621e-05
-8.39551e-05
-8.30145e-05
-8.17928e-05
-8.05123e-05
-7.90713e-05
-7.74803e-05
-7.58674e-05
-7.41409e-05
-7.23498e-05
-7.05544e-05
-6.86862e-05
-6.68585e-05
-6.50116e-05
-6.31692e-05
-6.13761e-05
-5.96161e-05
-5.79072e-05
-5.62613e-05
-5.4684e-05
-5.31842e-05
-5.17716e-05
-5.04363e-05
-4.9213e-05
-4.80648e-05
-4.70118e-05
-4.60504e-05
-4.5165e-05
-4.43799e-05
-4.36511e-05
-4.30163e-05
-4.24283e-05
-4.19173e-05
-4.14463e-05
-4.10883e-05
-4.07786e-05
-4.05199e-05
-4.02752e-05
-4.00649e-05
-3.98662e-05
-3.96941e-05
-3.95311e-05
-3.93879e-05
-3.92499e-05
-3.91326e-05
-3.9014e-05
-3.89136e-05
-3.8815e-05
-3.87298e-05
-3.86443e-05
-3.85718e-05
-3.85041e-05
-3.84443e-05
-3.83839e-05
-3.83305e-05
-3.82783e-05
-3.82375e-05
-3.8209e-05
-3.8174e-05
-3.81366e-05
-3.81068e-05
-3.8084e-05
-3.80579e-05
-3.80351e-05
-3.80083e-05
-3.79854e-05
-3.79568e-05
-3.7931e-05
-3.78967e-05
-3.78648e-05
-3.78227e-05
-3.77887e-05
-3.77347e-05
-3.76898e-05
-3.76189e-05
-3.75727e-05
-3.74762e-05
-3.74507e-05
-3.7315e-05
-3.73616e-05
-3.71297e-05
-3.74442e-05
-3.69429e-05
-3.92248e-05
3.32865e-05
4.92276e-05
2.02451e-05
1.01306e-05
-2.03528e-05
-4.64035e-05
-3.81368e-05
-6.06021e-05
-6.17599e-05
-7.1481e-05
-7.46789e-05
-7.9001e-05
-8.14768e-05
-8.33319e-05
-8.45056e-05
-8.52307e-05
-8.52772e-05
-8.52641e-05
-8.46499e-05
-8.3946e-05
-8.3009e-05
-8.17901e-05
-8.05116e-05
-7.90726e-05
-7.74827e-05
-7.58711e-05
-7.41452e-05
-7.2355e-05
-7.05601e-05
-6.86923e-05
-6.68646e-05
-6.50179e-05
-6.31755e-05
-6.13824e-05
-5.96222e-05
-5.79131e-05
-5.62671e-05
-5.46893e-05
-5.31894e-05
-5.17764e-05
-5.04409e-05
-4.92171e-05
-4.80687e-05
-4.70154e-05
-4.60534e-05
-4.51681e-05
-4.43822e-05
-4.36537e-05
-4.30182e-05
-4.24303e-05
-4.19191e-05
-4.1448e-05
-4.10893e-05
-4.078e-05
-4.05209e-05
-4.02764e-05
-4.00657e-05
-3.98673e-05
-3.96948e-05
-3.95319e-05
-3.93886e-05
-3.92507e-05
-3.91331e-05
-3.90146e-05
-3.89141e-05
-3.88156e-05
-3.87301e-05
-3.86448e-05
-3.85723e-05
-3.85045e-05
-3.84446e-05
-3.83842e-05
-3.83309e-05
-3.82787e-05
-3.82381e-05
-3.82091e-05
-3.81742e-05
-3.81369e-05
-3.81072e-05
-3.80842e-05
-3.80582e-05
-3.80352e-05
-3.80086e-05
-3.79855e-05
-3.79571e-05
-3.79311e-05
-3.7897e-05
-3.78649e-05
-3.78231e-05
-3.77887e-05
-3.7735e-05
-3.769e-05
-3.76194e-05
-3.75733e-05
-3.74768e-05
-3.74515e-05
-3.73156e-05
-3.73633e-05
-3.7131e-05
-3.74477e-05
-3.69452e-05
-3.92069e-05
3.34022e-05
4.90989e-05
2.00823e-05
9.96721e-06
-2.0188e-05
-4.61181e-05
-3.80516e-05
-6.04274e-05
-6.16477e-05
-7.13553e-05
-7.45873e-05
-7.8917e-05
-8.14118e-05
-8.32785e-05
-8.44633e-05
-8.51976e-05
-8.52519e-05
-8.52448e-05
-8.46366e-05
-8.39361e-05
-8.30031e-05
-8.17873e-05
-8.05108e-05
-7.90739e-05
-7.74853e-05
-7.58749e-05
-7.41499e-05
-7.23605e-05
-7.05661e-05
-6.86989e-05
-6.68712e-05
-6.50246e-05
-6.31823e-05
-6.13891e-05
-5.96287e-05
-5.79193e-05
-5.62732e-05
-5.46949e-05
-5.31949e-05
-5.17816e-05
-5.04457e-05
-4.92215e-05
-4.80728e-05
-4.70192e-05
-4.60567e-05
-4.51714e-05
-4.43848e-05
-4.36565e-05
-4.30203e-05
-4.24324e-05
-4.1921e-05
-4.14498e-05
-4.10905e-05
-4.07815e-05
-4.0522e-05
-4.02776e-05
-4.00666e-05
-3.98684e-05
-3.96955e-05
-3.95327e-05
-3.93893e-05
-3.92515e-05
-3.91336e-05
-3.90153e-05
-3.89146e-05
-3.88161e-05
-3.87306e-05
-3.86454e-05
-3.85727e-05
-3.85049e-05
-3.84449e-05
-3.83846e-05
-3.83314e-05
-3.82792e-05
-3.82387e-05
-3.82093e-05
-3.81745e-05
-3.81372e-05
-3.81076e-05
-3.80844e-05
-3.80585e-05
-3.80353e-05
-3.80089e-05
-3.79856e-05
-3.79574e-05
-3.79312e-05
-3.78974e-05
-3.7865e-05
-3.78235e-05
-3.77888e-05
-3.77354e-05
-3.76902e-05
-3.762e-05
-3.75739e-05
-3.74775e-05
-3.74524e-05
-3.73162e-05
-3.7365e-05
-3.71322e-05
-3.74513e-05
-3.69477e-05
-3.91878e-05
3.35371e-05
4.89573e-05
1.99227e-05
9.80581e-06
-2.00003e-05
-4.58019e-05
-3.79588e-05
-6.02346e-05
-6.15259e-05
-7.12182e-05
-7.44877e-05
-7.88257e-05
-8.13414e-05
-8.32204e-05
-8.44175e-05
-8.51617e-05
-8.52245e-05
-8.52238e-05
-8.46221e-05
-8.39254e-05
-8.29966e-05
-8.17841e-05
-8.05099e-05
-7.90754e-05
-7.7488e-05
-7.5879e-05
-7.4155e-05
-7.23665e-05
-7.05726e-05
-6.87059e-05
-6.68783e-05
-6.50319e-05
-6.31897e-05
-6.13963e-05
-5.96357e-05
-5.7926e-05
-5.62799e-05
-5.4701e-05
-5.32009e-05
-5.17873e-05
-5.04509e-05
-4.92262e-05
-4.80773e-05
-4.70233e-05
-4.60603e-05
-4.51749e-05
-4.43876e-05
-4.36594e-05
-4.30225e-05
-4.24346e-05
-4.1923e-05
-4.14518e-05
-4.10919e-05
-4.07831e-05
-4.05232e-05
-4.02789e-05
-4.00676e-05
-3.98696e-05
-3.96963e-05
-3.95337e-05
-3.939e-05
-3.92524e-05
-3.91342e-05
-3.90161e-05
-3.89152e-05
-3.88168e-05
-3.8731e-05
-3.8646e-05
-3.85732e-05
-3.85054e-05
-3.84453e-05
-3.83851e-05
-3.83319e-05
-3.82797e-05
-3.82393e-05
-3.82094e-05
-3.81748e-05
-3.81376e-05
-3.8108e-05
-3.80847e-05
-3.80588e-05
-3.80355e-05
-3.80092e-05
-3.79858e-05
-3.79577e-05
-3.79313e-05
-3.78977e-05
-3.78651e-05
-3.78239e-05
-3.77889e-05
-3.77358e-05
-3.76904e-05
-3.76205e-05
-3.75745e-05
-3.74782e-05
-3.74533e-05
-3.73168e-05
-3.73669e-05
-3.71336e-05
-3.74551e-05
-3.69504e-05
-3.91675e-05
3.36941e-05
4.88018e-05
1.97691e-05
9.64916e-06
-1.9785e-05
-4.54497e-05
-3.78572e-05
-6.0021e-05
-6.13929e-05
-7.10679e-05
-7.43792e-05
-7.87262e-05
-8.12647e-05
-8.31573e-05
-8.43676e-05
-8.51227e-05
-8.51946e-05
-8.5201e-05
-8.46064e-05
-8.39137e-05
-8.29895e-05
-8.17806e-05
-8.05089e-05
-7.90768e-05
-7.7491e-05
-7.58833e-05
-7.41604e-05
-7.23729e-05
-7.05795e-05
-6.87134e-05
-6.68858e-05
-6.50397e-05
-6.31975e-05
-6.1404e-05
-5.96432e-05
-5.79332e-05
-5.6287e-05
-5.47076e-05
-5.32073e-05
-5.17933e-05
-5.04565e-05
-4.92313e-05
-4.8082e-05
-4.70276e-05
-4.60641e-05
-4.51786e-05
-4.43906e-05
-4.36626e-05
-4.3025e-05
-4.24371e-05
-4.19252e-05
-4.14538e-05
-4.10933e-05
-4.07848e-05
-4.05245e-05
-4.02803e-05
-4.00687e-05
-3.98709e-05
-3.96973e-05
-3.95347e-05
-3.93909e-05
-3.92533e-05
-3.91348e-05
-3.90169e-05
-3.89158e-05
-3.88175e-05
-3.87315e-05
-3.86467e-05
-3.85737e-05
-3.85058e-05
-3.84457e-05
-3.83855e-05
-3.83324e-05
-3.82803e-05
-3.82399e-05
-3.82096e-05
-3.81751e-05
-3.81379e-05
-3.81084e-05
-3.80849e-05
-3.80591e-05
-3.80357e-05
-3.80095e-05
-3.79859e-05
-3.79581e-05
-3.79314e-05
-3.7898e-05
-3.78653e-05
-3.78243e-05
-3.77891e-05
-3.77362e-05
-3.76907e-05
-3.76211e-05
-3.75752e-05
-3.7479e-05
-3.74543e-05
-3.73176e-05
-3.73688e-05
-3.7135e-05
-3.7459e-05
-3.69534e-05
-3.91459e-05
3.38775e-05
4.86312e-05
1.96244e-05
9.50045e-06
-1.95365e-05
-4.50554e-05
-3.77452e-05
-5.97833e-05
-6.1247e-05
-7.09026e-05
-7.42605e-05
-7.86173e-05
-8.11809e-05
-8.30883e-05
-8.43132e-05
-8.50801e-05
-8.51621e-05
-8.51761e-05
-8.45891e-05
-8.39009e-05
-8.29817e-05
-8.17766e-05
-8.05076e-05
-7.90783e-05
-7.74941e-05
-7.5888e-05
-7.41662e-05
-7.23797e-05
-7.05869e-05
-6.87215e-05
-6.6894e-05
-6.5048e-05
-6.3206e-05
-6.14124e-05
-5.96513e-05
-5.7941e-05
-5.62946e-05
-5.47146e-05
-5.32141e-05
-5.17997e-05
-5.04626e-05
-4.92368e-05
-4.80871e-05
-4.70323e-05
-4.60682e-05
-4.51827e-05
-4.43939e-05
-4.36659e-05
-4.30276e-05
-4.24397e-05
-4.19276e-05
-4.14561e-05
-4.1095e-05
-4.07867e-05
-4.05259e-05
-4.02819e-05
-4.00699e-05
-3.98723e-05
-3.96983e-05
-3.95358e-05
-3.93918e-05
-3.92543e-05
-3.91356e-05
-3.90178e-05
-3.89165e-05
-3.88182e-05
-3.87321e-05
-3.86474e-05
-3.85743e-05
-3.85064e-05
-3.84461e-05
-3.83861e-05
-3.8333e-05
-3.82809e-05
-3.82406e-05
-3.82099e-05
-3.81755e-05
-3.81384e-05
-3.81089e-05
-3.80852e-05
-3.80595e-05
-3.80359e-05
-3.80098e-05
-3.79861e-05
-3.79584e-05
-3.79316e-05
-3.78984e-05
-3.78655e-05
-3.78248e-05
-3.77892e-05
-3.77366e-05
-3.76911e-05
-3.76218e-05
-3.75759e-05
-3.74798e-05
-3.74553e-05
-3.73184e-05
-3.73709e-05
-3.71366e-05
-3.74632e-05
-3.69566e-05
-3.9123e-05
3.40912e-05
4.84445e-05
1.94924e-05
9.36339e-06
-1.92488e-05
-4.46119e-05
-3.76207e-05
-5.95176e-05
-6.10862e-05
-7.072e-05
-7.413e-05
-7.84978e-05
-8.10891e-05
-8.30127e-05
-8.42536e-05
-8.50335e-05
-8.51264e-05
-8.51488e-05
-8.45702e-05
-8.38869e-05
-8.29731e-05
-8.17722e-05
-8.05062e-05
-7.90797e-05
-7.74974e-05
-7.58929e-05
-7.41724e-05
-7.2387e-05
-7.05949e-05
-6.87301e-05
-6.69027e-05
-6.5057e-05
-6.32151e-05
-6.14213e-05
-5.966e-05
-5.79493e-05
-5.63028e-05
-5.47222e-05
-5.32215e-05
-5.18067e-05
-5.0469e-05
-4.92427e-05
-4.80926e-05
-4.70374e-05
-4.60726e-05
-4.51869e-05
-4.43974e-05
-4.36695e-05
-4.30305e-05
-4.24425e-05
-4.19302e-05
-4.14584e-05
-4.10967e-05
-4.07887e-05
-4.05275e-05
-4.02835e-05
-4.00712e-05
-3.98737e-05
-3.96994e-05
-3.95369e-05
-3.93928e-05
-3.92553e-05
-3.91363e-05
-3.90187e-05
-3.89173e-05
-3.8819e-05
-3.87327e-05
-3.86481e-05
-3.8575e-05
-3.85069e-05
-3.84466e-05
-3.83867e-05
-3.83336e-05
-3.82815e-05
-3.82413e-05
-3.82101e-05
-3.81758e-05
-3.81388e-05
-3.81094e-05
-3.80856e-05
-3.80599e-05
-3.80361e-05
-3.80102e-05
-3.79863e-05
-3.79588e-05
-3.79317e-05
-3.78988e-05
-3.78658e-05
-3.78253e-05
-3.77894e-05
-3.77371e-05
-3.76915e-05
-3.76224e-05
-3.75767e-05
-3.74807e-05
-3.74565e-05
-3.73193e-05
-3.7373e-05
-3.71382e-05
-3.74675e-05
-3.69601e-05
-3.90987e-05
3.434e-05
4.82408e-05
1.93773e-05
9.24214e-06
-1.89147e-05
-4.41112e-05
-3.7481e-05
-5.92191e-05
-6.09078e-05
-7.05174e-05
-7.39858e-05
-7.83659e-05
-8.09881e-05
-8.29295e-05
-8.41881e-05
-8.49822e-05
-8.50873e-05
-8.51189e-05
-8.45493e-05
-8.38714e-05
-8.29635e-05
-8.17672e-05
-8.05044e-05
-7.90812e-05
-7.75009e-05
-7.58981e-05
-7.41791e-05
-7.23948e-05
-7.06034e-05
-6.87394e-05
-6.69121e-05
-6.50667e-05
-6.32248e-05
-6.14309e-05
-5.96694e-05
-5.79583e-05
-5.63115e-05
-5.47304e-05
-5.32294e-05
-5.18141e-05
-5.0476e-05
-4.9249e-05
-4.80985e-05
-4.70428e-05
-4.60774e-05
-4.51916e-05
-4.44013e-05
-4.36733e-05
-4.30337e-05
-4.24455e-05
-4.19329e-05
-4.1461e-05
-4.10987e-05
-4.07909e-05
-4.05292e-05
-4.02853e-05
-4.00726e-05
-3.98753e-05
-3.97006e-05
-3.95382e-05
-3.93939e-05
-3.92564e-05
-3.91372e-05
-3.90198e-05
-3.89181e-05
-3.88199e-05
-3.87334e-05
-3.86489e-05
-3.85757e-05
-3.85076e-05
-3.84472e-05
-3.83873e-05
-3.83343e-05
-3.82822e-05
-3.8242e-05
-3.82105e-05
-3.81762e-05
-3.81393e-05
-3.81099e-05
-3.80859e-05
-3.80603e-05
-3.80364e-05
-3.80106e-05
-3.79865e-05
-3.79592e-05
-3.79319e-05
-3.78992e-05
-3.7866e-05
-3.78258e-05
-3.77897e-05
-3.77375e-05
-3.76919e-05
-3.76231e-05
-3.75775e-05
-3.74816e-05
-3.74577e-05
-3.73203e-05
-3.73753e-05
-3.714e-05
-3.7472e-05
-3.69639e-05
-3.90729e-05
3.46285e-05
4.80192e-05
1.92839e-05
9.14138e-06
-1.85266e-05
-4.35443e-05
-3.73228e-05
-5.88823e-05
-6.07087e-05
-7.02914e-05
-7.38258e-05
-7.82198e-05
-8.08763e-05
-8.28375e-05
-8.41158e-05
-8.49256e-05
-8.5044e-05
-8.50858e-05
-8.45261e-05
-8.38542e-05
-8.29528e-05
-8.17615e-05
-8.05023e-05
-7.90825e-05
-7.75044e-05
-7.59035e-05
-7.41861e-05
-7.24032e-05
-7.06125e-05
-6.87494e-05
-6.69221e-05
-6.5077e-05
-6.32352e-05
-6.14411e-05
-5.96793e-05
-5.79678e-05
-5.63208e-05
-5.47391e-05
-5.32378e-05
-5.18221e-05
-5.04834e-05
-4.92557e-05
-4.81048e-05
-4.70486e-05
-4.60825e-05
-4.51965e-05
-4.44054e-05
-4.36774e-05
-4.30371e-05
-4.24488e-05
-4.19359e-05
-4.14638e-05
-4.11009e-05
-4.07932e-05
-4.05311e-05
-4.02872e-05
-4.00742e-05
-3.98769e-05
-3.97019e-05
-3.95396e-05
-3.9395e-05
-3.92576e-05
-3.91381e-05
-3.90208e-05
-3.8919e-05
-3.88208e-05
-3.87342e-05
-3.86498e-05
-3.85764e-05
-3.85082e-05
-3.84478e-05
-3.8388e-05
-3.83349e-05
-3.8283e-05
-3.82428e-05
-3.82108e-05
-3.81766e-05
-3.81398e-05
-3.81104e-05
-3.80863e-05
-3.80607e-05
-3.80366e-05
-3.8011e-05
-3.79867e-05
-3.79596e-05
-3.79321e-05
-3.78996e-05
-3.78663e-05
-3.78262e-05
-3.77899e-05
-3.7738e-05
-3.76924e-05
-3.76238e-05
-3.75784e-05
-3.74826e-05
-3.7459e-05
-3.73214e-05
-3.73776e-05
-3.71418e-05
-3.74766e-05
-3.6968e-05
-3.90457e-05
3.49618e-05
4.77793e-05
1.92177e-05
9.06623e-06
-1.80764e-05
-4.29012e-05
-3.71418e-05
-5.85007e-05
-6.04851e-05
-7.00381e-05
-7.3647e-05
-7.80571e-05
-8.0752e-05
-8.27354e-05
-8.40356e-05
-8.48629e-05
-8.49961e-05
-8.50491e-05
-8.45003e-05
-8.38351e-05
-8.29408e-05
-8.17549e-05
-8.04996e-05
-7.90836e-05
-7.75081e-05
-7.59092e-05
-7.41936e-05
-7.2412e-05
-7.06223e-05
-6.876e-05
-6.69329e-05
-6.50881e-05
-6.32464e-05
-6.14521e-05
-5.96901e-05
-5.79781e-05
-5.63309e-05
-5.47486e-05
-5.32469e-05
-5.18306e-05
-5.04914e-05
-4.9263e-05
-4.81115e-05
-4.70548e-05
-4.60881e-05
-4.52017e-05
-4.44099e-05
-4.36818e-05
-4.30408e-05
-4.24523e-05
-4.19391e-05
-4.14667e-05
-4.11032e-05
-4.07957e-05
-4.05331e-05
-4.02892e-05
-4.00758e-05
-3.98787e-05
-3.97033e-05
-3.9541e-05
-3.93963e-05
-3.9259e-05
-3.91392e-05
-3.9022e-05
-3.892e-05
-3.88218e-05
-3.8735e-05
-3.86507e-05
-3.85773e-05
-3.8509e-05
-3.84484e-05
-3.83887e-05
-3.83357e-05
-3.82838e-05
-3.82436e-05
-3.82112e-05
-3.8177e-05
-3.81404e-05
-3.8111e-05
-3.80867e-05
-3.80611e-05
-3.8037e-05
-3.80114e-05
-3.7987e-05
-3.796e-05
-3.79324e-05
-3.79e-05
-3.78667e-05
-3.78268e-05
-3.77902e-05
-3.77386e-05
-3.76929e-05
-3.76246e-05
-3.75794e-05
-3.74837e-05
-3.74604e-05
-3.73226e-05
-3.73801e-05
-3.71438e-05
-3.74815e-05
-3.69725e-05
-3.9017e-05
3.53446e-05
4.75207e-05
1.91848e-05
9.02222e-06
-1.75553e-05
-4.21708e-05
-3.69327e-05
-5.80666e-05
-6.02325e-05
-6.97528e-05
-7.34462e-05
-7.78749e-05
-8.06131e-05
-8.26213e-05
-8.39462e-05
-8.47928e-05
-8.49426e-05
-8.50081e-05
-8.44713e-05
-8.38136e-05
-8.29272e-05
-8.17472e-05
-8.04964e-05
-7.90845e-05
-7.75118e-05
-7.59151e-05
-7.42015e-05
-7.24214e-05
-7.06326e-05
-6.87713e-05
-6.69443e-05
-6.50999e-05
-6.32583e-05
-6.14639e-05
-5.97016e-05
-5.79891e-05
-5.63416e-05
-5.47587e-05
-5.32566e-05
-5.18398e-05
-5.04999e-05
-4.92708e-05
-4.81188e-05
-4.70614e-05
-4.6094e-05
-4.52073e-05
-4.44148e-05
-4.36865e-05
-4.30448e-05
-4.2456e-05
-4.19425e-05
-4.14699e-05
-4.11058e-05
-4.07983e-05
-4.05353e-05
-4.02914e-05
-4.00777e-05
-3.98806e-05
-3.97049e-05
-3.95426e-05
-3.93977e-05
-3.92603e-05
-3.91403e-05
-3.90232e-05
-3.89211e-05
-3.88228e-05
-3.87359e-05
-3.86517e-05
-3.85781e-05
-3.85097e-05
-3.84491e-05
-3.83895e-05
-3.83365e-05
-3.82847e-05
-3.82445e-05
-3.82117e-05
-3.81775e-05
-3.8141e-05
-3.81116e-05
-3.80871e-05
-3.80616e-05
-3.80373e-05
-3.80118e-05
-3.79873e-05
-3.79604e-05
-3.79327e-05
-3.79005e-05
-3.7867e-05
-3.78273e-05
-3.77906e-05
-3.77391e-05
-3.76935e-05
-3.76255e-05
-3.75804e-05
-3.74848e-05
-3.74619e-05
-3.73239e-05
-3.73827e-05
-3.71458e-05
-3.74864e-05
-3.69773e-05
-3.89867e-05
3.57817e-05
4.72437e-05
1.91918e-05
9.01523e-06
-1.69545e-05
-4.13415e-05
-3.66891e-05
-5.75712e-05
-5.99453e-05
-6.94299e-05
-7.32192e-05
-7.76698e-05
-8.04568e-05
-8.24932e-05
-8.3846e-05
-8.47143e-05
-8.48826e-05
-8.49621e-05
-8.44387e-05
-8.37893e-05
-8.29116e-05
-8.17382e-05
-8.04923e-05
-7.9085e-05
-7.75154e-05
-7.59212e-05
-7.42098e-05
-7.24313e-05
-7.06437e-05
-6.87834e-05
-6.69566e-05
-6.51126e-05
-6.32711e-05
-6.14765e-05
-5.97139e-05
-5.80009e-05
-5.6353e-05
-5.47695e-05
-5.3267e-05
-5.18495e-05
-5.05091e-05
-4.92792e-05
-4.81265e-05
-4.70686e-05
-4.61004e-05
-4.52134e-05
-4.442e-05
-4.36915e-05
-4.30491e-05
-4.24601e-05
-4.19462e-05
-4.14733e-05
-4.11086e-05
-4.08012e-05
-4.05378e-05
-4.02938e-05
-4.00797e-05
-3.98827e-05
-3.97066e-05
-3.95443e-05
-3.93992e-05
-3.92618e-05
-3.91415e-05
-3.90246e-05
-3.89222e-05
-3.8824e-05
-3.87368e-05
-3.86528e-05
-3.85791e-05
-3.85106e-05
-3.84499e-05
-3.83904e-05
-3.83373e-05
-3.82856e-05
-3.82454e-05
-3.82122e-05
-3.8178e-05
-3.81417e-05
-3.81122e-05
-3.80876e-05
-3.80621e-05
-3.80377e-05
-3.80122e-05
-3.79877e-05
-3.79608e-05
-3.7933e-05
-3.79009e-05
-3.78674e-05
-3.78279e-05
-3.77909e-05
-3.77398e-05
-3.76941e-05
-3.76263e-05
-3.75815e-05
-3.7486e-05
-3.74635e-05
-3.73253e-05
-3.73855e-05
-3.7148e-05
-3.74915e-05
-3.69825e-05
-3.89548e-05
3.62769e-05
4.69489e-05
1.92457e-05
9.05137e-06
-1.62654e-05
-4.0401e-05
-3.64033e-05
-5.70043e-05
-5.96168e-05
-6.90629e-05
-7.29611e-05
-7.74375e-05
-8.02799e-05
-8.23484e-05
-8.37328e-05
-8.46255e-05
-8.48148e-05
-8.491e-05
-8.44015e-05
-8.37617e-05
-8.28937e-05
-8.17276e-05
-8.04872e-05