/*--------------------------------*- C++ -*----------------------------------*\
| =========                 |                                                 |
| \\      /  F ield         | OpenFOAM: The Open Source CFD Toolbox           |
|  \\    /   O peration     | Version:  5.x                                   |
|   \\  /    A nd           | Web:      www.OpenFOAM.org                      |
|    \\/     M anipulation  |                                                 |
\*---------------------------------------------------------------------------*/
FoamFile
{
    version     2.0;
    format      ascii;
    class       volScalarField;
    location    "2000";
    object      p;
}
// * * * * * * * * * * * * * * * * * * * * * * * * * * * * * * * * * * * * * //

dimensions      [0 2 -2 0 0 0 0];

internalField   nonuniform List<scalar> 
107912
(
3.91563e-10
2.78197e-07
1.09399e-07
1.87113e-07
4.50124e-08
-8.42343e-08
4.25881e-10
-9.73626e-08
-7.0335e-08
-1.1379e-07
-1.08012e-07
-1.25679e-07
-1.26615e-07
-1.33277e-07
-1.3424e-07
-1.37146e-07
-1.36403e-07
-1.37429e-07
-1.36005e-07
-1.35009e-07
-1.33611e-07
-1.31465e-07
-1.29381e-07
-1.2716e-07
-1.24327e-07
-1.2179e-07
-1.18947e-07
-1.15842e-07
-1.1297e-07
-1.09749e-07
-1.06556e-07
-1.0343e-07
-1.00068e-07
-9.68009e-08
-9.35213e-08
-9.01049e-08
-8.6814e-08
-8.34533e-08
-8.00822e-08
-7.67905e-08
-7.34186e-08
-7.01391e-08
-6.68527e-08
-6.35781e-08
-6.03685e-08
-5.71476e-08
-5.40117e-08
-5.08798e-08
-4.78209e-08
-4.47858e-08
-4.18233e-08
-3.889e-08
-3.63441e-08
-3.40413e-08
-3.18524e-08
-2.97541e-08
-2.76939e-08
-2.57197e-08
-2.38215e-08
-2.19717e-08
-2.02006e-08
-1.84769e-08
-1.68154e-08
-1.52048e-08
-1.36429e-08
-1.21294e-08
-1.06555e-08
-9.22437e-09
-7.82708e-09
-6.46215e-09
-5.12948e-09
-3.81503e-09
-2.53082e-09
-1.25744e-09
-1.50594e-12
1.24113e-09
2.48618e-09
3.71136e-09
4.95197e-09
6.17282e-09
7.41393e-09
8.63762e-09
9.88084e-09
1.10974e-08
1.2343e-08
1.35095e-08
1.47578e-08
1.57809e-08
1.70499e-08
1.77206e-08
1.91106e-08
1.89412e-08
2.08156e-08
1.85846e-08
2.21126e-08
1.47928e-08
2.34354e-08
2.5511e-09
2.60533e-08
-3.51582e-08
3.68468e-08
-3.50474e-07
1.32812e-09
2.78366e-07
1.08756e-07
1.86377e-07
4.53247e-08
-8.33793e-08
6.4651e-10
-9.69935e-08
-7.00633e-08
-1.13488e-07
-1.0779e-07
-1.25464e-07
-1.26447e-07
-1.33128e-07
-1.34115e-07
-1.3704e-07
-1.36314e-07
-1.37351e-07
-1.35941e-07
-1.34952e-07
-1.33563e-07
-1.31425e-07
-1.29345e-07
-1.2713e-07
-1.24302e-07
-1.21767e-07
-1.18928e-07
-1.15825e-07
-1.12956e-07
-1.09738e-07
-1.06546e-07
-1.03421e-07
-1.0006e-07
-9.67947e-08
-9.35163e-08
-9.01009e-08
-8.68106e-08
-8.34508e-08
-8.00802e-08
-7.6789e-08
-7.34177e-08
-7.01386e-08
-6.68526e-08
-6.35783e-08
-6.03691e-08
-5.71485e-08
-5.40128e-08
-5.0881e-08
-4.78224e-08
-4.47874e-08
-4.1825e-08
-3.88919e-08
-3.6346e-08
-3.40434e-08
-3.18544e-08
-2.97561e-08
-2.7696e-08
-2.57219e-08
-2.38236e-08
-2.19737e-08
-2.02026e-08
-1.84789e-08
-1.68174e-08
-1.52068e-08
-1.36448e-08
-1.21313e-08
-1.06574e-08
-9.22624e-09
-7.82894e-09
-6.464e-09
-5.13132e-09
-3.81689e-09
-2.5327e-09
-1.25936e-09
-3.47878e-12
1.23908e-09
2.48403e-09
3.70909e-09
4.94953e-09
6.17018e-09
7.41106e-09
8.63446e-09
9.87736e-09
1.10934e-08
1.23386e-08
1.35046e-08
1.47523e-08
1.57744e-08
1.70428e-08
1.7712e-08
1.91015e-08
1.89292e-08
2.0804e-08
1.85667e-08
2.20978e-08
1.47626e-08
2.34162e-08
2.48829e-09
2.60259e-08
-3.53745e-08
3.68532e-08
-3.38169e-07
2.22115e-09
2.7856e-07
1.07995e-07
1.85515e-07
4.56679e-08
-8.23624e-08
9.22931e-10
-9.65697e-08
-6.97322e-08
-1.13135e-07
-1.0752e-07
-1.25209e-07
-1.26242e-07
-1.32949e-07
-1.33963e-07
-1.3691e-07
-1.36204e-07
-1.37256e-07
-1.35861e-07
-1.34881e-07
-1.33503e-07
-1.31373e-07
-1.293e-07
-1.27091e-07
-1.24268e-07
-1.21737e-07
-1.18902e-07
-1.15803e-07
-1.12936e-07
-1.09721e-07
-1.06531e-07
-1.03408e-07
-1.0005e-07
-9.67852e-08
-9.35082e-08
-9.00941e-08
-8.68048e-08
-8.3446e-08
-8.00762e-08
-7.67857e-08
-7.34152e-08
-7.01366e-08
-6.68512e-08
-6.35773e-08
-6.03685e-08
-5.71482e-08
-5.40129e-08
-5.08814e-08
-4.7823e-08
-4.47883e-08
-4.18261e-08
-3.88931e-08
-3.63473e-08
-3.40449e-08
-3.18561e-08
-2.97578e-08
-2.76978e-08
-2.57237e-08
-2.38254e-08
-2.19756e-08
-2.02045e-08
-1.84807e-08
-1.68192e-08
-1.52086e-08
-1.36466e-08
-1.21331e-08
-1.06591e-08
-9.22799e-09
-7.83069e-09
-6.46575e-09
-5.13309e-09
-3.81868e-09
-2.53452e-09
-1.26125e-09
-5.43386e-12
1.23702e-09
2.48185e-09
3.70675e-09
4.94701e-09
6.16742e-09
7.40802e-09
8.63108e-09
9.87359e-09
1.10892e-08
1.23338e-08
1.3499e-08
1.47461e-08
1.57671e-08
1.70348e-08
1.7702e-08
1.90909e-08
1.89151e-08
2.07901e-08
1.85454e-08
2.20795e-08
1.47268e-08
2.33913e-08
2.41369e-09
2.59875e-08
-3.56303e-08
3.67912e-08
-3.36041e-07
3.1172e-09
2.78732e-07
1.07224e-07
1.84623e-07
4.60145e-08
-8.13089e-08
1.20812e-09
-9.61287e-08
-6.93894e-08
-1.12768e-07
-1.0724e-07
-1.24944e-07
-1.26029e-07
-1.32762e-07
-1.33805e-07
-1.36775e-07
-1.36089e-07
-1.37156e-07
-1.35777e-07
-1.34807e-07
-1.33439e-07
-1.31319e-07
-1.29252e-07
-1.2705e-07
-1.24233e-07
-1.21705e-07
-1.18875e-07
-1.1578e-07
-1.12916e-07
-1.09704e-07
-1.06515e-07
-1.03395e-07
-1.00038e-07
-9.67751e-08
-9.34996e-08
-9.00869e-08
-8.67985e-08
-8.34407e-08
-8.00718e-08
-7.67821e-08
-7.34123e-08
-7.01343e-08
-6.68494e-08
-6.35761e-08
-6.03677e-08
-5.71479e-08
-5.40128e-08
-5.08817e-08
-4.78235e-08
-4.47891e-08
-4.18271e-08
-3.88943e-08
-3.63486e-08
-3.40464e-08
-3.18576e-08
-2.97594e-08
-2.76996e-08
-2.57255e-08
-2.38272e-08
-2.19774e-08
-2.02063e-08
-1.84826e-08
-1.68211e-08
-1.52104e-08
-1.36484e-08
-1.21349e-08
-1.06609e-08
-9.22975e-09
-7.83246e-09
-6.46753e-09
-5.13488e-09
-3.8205e-09
-2.53638e-09
-1.26316e-09
-7.42e-12
1.23493e-09
2.47963e-09
3.70437e-09
4.94443e-09
6.1646e-09
7.4049e-09
8.6276e-09
9.8697e-09
1.10847e-08
1.23289e-08
1.34933e-08
1.47397e-08
1.57595e-08
1.70264e-08
1.76917e-08
1.90799e-08
1.89004e-08
2.07757e-08
1.85233e-08
2.20605e-08
1.46895e-08
2.33653e-08
2.33639e-09
2.5947e-08
-3.58935e-08
3.67211e-08
-3.35352e-07
4.07554e-09
2.78884e-07
1.06427e-07
1.83682e-07
4.63751e-08
-8.01974e-08
1.50719e-09
-9.56582e-08
-6.90282e-08
-1.12379e-07
-1.06944e-07
-1.24662e-07
-1.25803e-07
-1.32563e-07
-1.33637e-07
-1.36631e-07
-1.35967e-07
-1.37049e-07
-1.35688e-07
-1.34729e-07
-1.33372e-07
-1.31262e-07
-1.29201e-07
-1.27006e-07
-1.24195e-07
-1.21672e-07
-1.18847e-07
-1.15755e-07
-1.12894e-07
-1.09685e-07
-1.06499e-07
-1.0338e-07
-1.00026e-07
-9.67644e-08
-9.34905e-08
-9.00792e-08
-8.67918e-08
-8.34353e-08
-8.00672e-08
-7.67783e-08
-7.34093e-08
-7.01319e-08
-6.68476e-08
-6.35748e-08
-6.03669e-08
-5.71475e-08
-5.40128e-08
-5.0882e-08
-4.78242e-08
-4.479e-08
-4.18282e-08
-3.88955e-08
-3.635e-08
-3.4048e-08
-3.18593e-08
-2.97612e-08
-2.77015e-08
-2.57274e-08
-2.38292e-08
-2.19794e-08
-2.02082e-08
-1.84845e-08
-1.6823e-08
-1.52123e-08
-1.36503e-08
-1.21368e-08
-1.06628e-08
-9.23165e-09
-7.83436e-09
-6.46943e-09
-5.1368e-09
-3.82245e-09
-2.53836e-09
-1.26522e-09
-9.54928e-12
1.23269e-09
2.47726e-09
3.70183e-09
4.94167e-09
6.16158e-09
7.40158e-09
8.62389e-09
9.86556e-09
1.108e-08
1.23236e-08
1.34872e-08
1.47329e-08
1.57514e-08
1.70175e-08
1.76807e-08
1.90683e-08
1.88849e-08
2.07603e-08
1.84999e-08
2.20403e-08
1.46501e-08
2.33379e-08
2.25461e-09
2.59046e-08
-3.61697e-08
3.66497e-08
-3.34037e-07
5.11439e-09
2.79016e-07
1.05593e-07
1.82677e-07
4.67542e-08
-7.90104e-08
1.82565e-09
-9.51504e-08
-6.86424e-08
-1.1196e-07
-1.06626e-07
-1.24359e-07
-1.2556e-07
-1.32349e-07
-1.33457e-07
-1.36477e-07
-1.35835e-07
-1.36935e-07
-1.35592e-07
-1.34644e-07
-1.333e-07
-1.312e-07
-1.29146e-07
-1.26959e-07
-1.24155e-07
-1.21636e-07
-1.18816e-07
-1.15728e-07
-1.1287e-07
-1.09665e-07
-1.06481e-07
-1.03365e-07
-1.00013e-07
-9.67529e-08
-9.34807e-08
-9.0071e-08
-8.67847e-08
-8.34294e-08
-8.00623e-08
-7.67742e-08
-7.34061e-08
-7.01293e-08
-6.68457e-08
-6.35734e-08
-6.03661e-08
-5.71471e-08
-5.40128e-08
-5.08824e-08
-4.78249e-08
-4.47909e-08
-4.18294e-08
-3.88969e-08
-3.63516e-08
-3.40498e-08
-3.18612e-08
-2.97631e-08
-2.77035e-08
-2.57295e-08
-2.38313e-08
-2.19815e-08
-2.02104e-08
-1.84866e-08
-1.68251e-08
-1.52144e-08
-1.36524e-08
-1.21389e-08
-1.06649e-08
-9.2337e-09
-7.83641e-09
-6.47149e-09
-5.13887e-09
-3.82455e-09
-2.54051e-09
-1.26743e-09
-1.18487e-11
1.23027e-09
2.47469e-09
3.69908e-09
4.93869e-09
6.15832e-09
7.39798e-09
8.61988e-09
9.86109e-09
1.1075e-08
1.23179e-08
1.34806e-08
1.47255e-08
1.57427e-08
1.70079e-08
1.76689e-08
1.90557e-08
1.88682e-08
2.07438e-08
1.84747e-08
2.20186e-08
1.46078e-08
2.33084e-08
2.16699e-09
2.58594e-08
-3.64633e-08
3.65727e-08
-3.32382e-07
6.23758e-09
2.79122e-07
1.04721e-07
1.81606e-07
4.71519e-08
-7.7743e-08
2.1649e-09
-9.46025e-08
-6.82301e-08
-1.1151e-07
-1.06285e-07
-1.24032e-07
-1.25299e-07
-1.32118e-07
-1.33262e-07
-1.3631e-07
-1.35694e-07
-1.36812e-07
-1.35489e-07
-1.34553e-07
-1.33221e-07
-1.31133e-07
-1.29087e-07
-1.26908e-07
-1.24112e-07
-1.21597e-07
-1.18783e-07
-1.15699e-07
-1.12845e-07
-1.09643e-07
-1.06462e-07
-1.03348e-07
-9.99989e-08
-9.67405e-08
-9.34702e-08
-9.00621e-08
-8.67769e-08
-8.3423e-08
-8.0057e-08
-7.67698e-08
-7.34026e-08
-7.01265e-08
-6.68437e-08
-6.3572e-08
-6.03651e-08
-5.71467e-08
-5.40128e-08
-5.08828e-08
-4.78256e-08
-4.47919e-08
-4.18307e-08
-3.88984e-08
-3.63532e-08
-3.40517e-08
-3.18632e-08
-2.97652e-08
-2.77057e-08
-2.57317e-08
-2.38336e-08
-2.19838e-08
-2.02126e-08
-1.84889e-08
-1.68274e-08
-1.52167e-08
-1.36546e-08
-1.21411e-08
-1.06671e-08
-9.23591e-09
-7.83862e-09
-6.4737e-09
-5.1411e-09
-3.82682e-09
-2.54282e-09
-1.26982e-09
-1.43253e-11
1.22767e-09
2.47193e-09
3.69612e-09
4.93548e-09
6.15481e-09
7.39411e-09
8.61557e-09
9.85628e-09
1.10695e-08
1.23118e-08
1.34735e-08
1.47176e-08
1.57333e-08
1.69976e-08
1.76562e-08
1.90422e-08
1.88503e-08
2.07261e-08
1.84477e-08
2.19953e-08
1.45624e-08
2.32767e-08
2.0731e-09
2.58111e-08
-3.67752e-08
3.64885e-08
-3.3061e-07
7.44924e-09
2.79196e-07
1.03814e-07
1.80464e-07
4.75676e-08
-7.63921e-08
2.52556e-09
-9.40117e-08
-6.77903e-08
-1.11026e-07
-1.05919e-07
-1.23681e-07
-1.25019e-07
-1.3187e-07
-1.33053e-07
-1.3613e-07
-1.35542e-07
-1.36679e-07
-1.35378e-07
-1.34455e-07
-1.33137e-07
-1.31062e-07
-1.29024e-07
-1.26853e-07
-1.24065e-07
-1.21556e-07
-1.18747e-07
-1.15668e-07
-1.12817e-07
-1.0962e-07
-1.06442e-07
-1.0333e-07
-9.99838e-08
-9.67271e-08
-9.34588e-08
-9.00525e-08
-8.67686e-08
-8.34161e-08
-8.00512e-08
-7.6765e-08
-7.33989e-08
-7.01235e-08
-6.68415e-08
-6.35704e-08
-6.03641e-08
-5.71462e-08
-5.40128e-08
-5.08832e-08
-4.78263e-08
-4.4793e-08
-4.18321e-08
-3.89e-08
-3.6355e-08
-3.40537e-08
-3.18653e-08
-2.97674e-08
-2.77081e-08
-2.57341e-08
-2.3836e-08
-2.19862e-08
-2.02151e-08
-1.84914e-08
-1.68298e-08
-1.52191e-08
-1.36571e-08
-1.21435e-08
-1.06695e-08
-9.23828e-09
-7.841e-09
-6.47609e-09
-5.1435e-09
-3.82926e-09
-2.54531e-09
-1.27239e-09
-1.69897e-11
1.22486e-09
2.46896e-09
3.69293e-09
4.93203e-09
6.15104e-09
7.38995e-09
8.61093e-09
9.85111e-09
1.10636e-08
1.23052e-08
1.34659e-08
1.47091e-08
1.57233e-08
1.69865e-08
1.76426e-08
1.90277e-08
1.8831e-08
2.07071e-08
1.84187e-08
2.19702e-08
1.45138e-08
2.32427e-08
1.97265e-09
2.57596e-08
-3.71058e-08
3.63965e-08
-3.28726e-07
8.75566e-09
2.7923e-07
1.02872e-07
1.7925e-07
4.80013e-08
-7.49537e-08
2.90847e-09
-9.33749e-08
-6.73215e-08
-1.10507e-07
-1.05528e-07
-1.23303e-07
-1.24718e-07
-1.31603e-07
-1.32829e-07
-1.35937e-07
-1.35378e-07
-1.36536e-07
-1.35258e-07
-1.34349e-07
-1.33047e-07
-1.30984e-07
-1.28956e-07
-1.26795e-07
-1.24014e-07
-1.21511e-07
-1.18709e-07
-1.15635e-07
-1.12788e-07
-1.09595e-07
-1.0642e-07
-1.03311e-07
-9.99674e-08
-9.67127e-08
-9.34465e-08
-9.00422e-08
-8.67596e-08
-8.34087e-08
-8.0045e-08
-7.67599e-08
-7.33948e-08
-7.01202e-08
-6.6839e-08
-6.35687e-08
-6.0363e-08
-5.71457e-08
-5.40128e-08
-5.08836e-08
-4.78272e-08
-4.47942e-08
-4.18336e-08
-3.89017e-08
-3.63568e-08
-3.40559e-08
-3.18676e-08
-2.97698e-08
-2.77106e-08
-2.57367e-08
-2.38386e-08
-2.19889e-08
-2.02177e-08
-1.8494e-08
-1.68324e-08
-1.52217e-08
-1.36596e-08
-1.21461e-08
-1.0672e-08
-9.24083e-09
-7.84355e-09
-6.47865e-09
-5.14608e-09
-3.83189e-09
-2.54798e-09
-1.27516e-09
-1.98567e-11
1.22185e-09
2.46576e-09
3.6895e-09
4.92832e-09
6.14698e-09
7.38547e-09
8.60593e-09
9.84554e-09
1.10573e-08
1.22981e-08
1.34577e-08
1.47e-08
1.57125e-08
1.69746e-08
1.76279e-08
1.90121e-08
1.88103e-08
2.06866e-08
1.83876e-08
2.19433e-08
1.44616e-08
2.32063e-08
1.86525e-09
2.57048e-08
-3.74555e-08
3.6296e-08
-3.26704e-07
1.01642e-08
2.79215e-07
1.01897e-07
1.77959e-07
4.84527e-08
-7.34238e-08
3.31452e-09
-9.26886e-08
-6.68221e-08
-1.09949e-07
-1.05108e-07
-1.22898e-07
-1.24395e-07
-1.31315e-07
-1.32587e-07
-1.35729e-07
-1.35201e-07
-1.36382e-07
-1.35129e-07
-1.34235e-07
-1.32949e-07
-1.30901e-07
-1.28882e-07
-1.26731e-07
-1.2396e-07
-1.21462e-07
-1.18668e-07
-1.15599e-07
-1.12756e-07
-1.09568e-07
-1.06396e-07
-1.0329e-07
-9.99498e-08
-9.66971e-08
-9.34332e-08
-9.0031e-08
-8.67499e-08
-8.34007e-08
-8.00382e-08
-7.67543e-08
-7.33904e-08
-7.01167e-08
-6.68364e-08
-6.35668e-08
-6.03618e-08
-5.71451e-08
-5.40127e-08
-5.08841e-08
-4.7828e-08
-4.47954e-08
-4.18352e-08
-3.89035e-08
-3.63589e-08
-3.40583e-08
-3.18701e-08
-2.97723e-08
-2.77134e-08
-2.57395e-08
-2.38414e-08
-2.19917e-08
-2.02205e-08
-1.84969e-08
-1.68352e-08
-1.52245e-08
-1.36624e-08
-1.21488e-08
-1.06748e-08
-9.24357e-09
-7.8463e-09
-6.4814e-09
-5.14886e-09
-3.83471e-09
-2.55086e-09
-1.27813e-09
-2.29414e-11
1.2186e-09
2.46232e-09
3.68581e-09
4.92432e-09
6.14261e-09
7.38065e-09
8.60056e-09
9.83955e-09
1.10505e-08
1.22905e-08
1.34489e-08
1.46901e-08
1.57008e-08
1.69617e-08
1.76122e-08
1.89953e-08
1.87881e-08
2.06646e-08
1.83542e-08
2.19144e-08
1.44058e-08
2.31672e-08
1.75049e-09
2.56463e-08
-3.78251e-08
3.61862e-08
-3.24528e-07
1.16825e-08
2.79141e-07
1.00893e-07
1.76588e-07
4.89213e-08
-7.17984e-08
3.74456e-09
-9.19489e-08
-6.62907e-08
-1.0935e-07
-1.04659e-07
-1.22462e-07
-1.24048e-07
-1.31006e-07
-1.32328e-07
-1.35505e-07
-1.35012e-07
-1.36216e-07
-1.3499e-07
-1.34113e-07
-1.32844e-07
-1.30811e-07
-1.28803e-07
-1.26663e-07
-1.23901e-07
-1.2141e-07
-1.18623e-07
-1.1556e-07
-1.12721e-07
-1.09539e-07
-1.0637e-07
-1.03268e-07
-9.99307e-08
-9.66803e-08
-9.34189e-08
-9.0019e-08
-8.67394e-08
-8.3392e-08
-8.0031e-08
-7.67483e-08
-7.33857e-08
-7.01128e-08
-6.68336e-08
-6.35647e-08
-6.03605e-08
-5.71445e-08
-5.40126e-08
-5.08845e-08
-4.78289e-08
-4.47968e-08
-4.18369e-08
-3.89055e-08
-3.6361e-08
-3.40608e-08
-3.18727e-08
-2.97751e-08
-2.77163e-08
-2.57425e-08
-2.38445e-08
-2.19948e-08
-2.02236e-08
-1.84999e-08
-1.68383e-08
-1.52275e-08
-1.36654e-08
-1.21518e-08
-1.06777e-08
-9.24652e-09
-7.84926e-09
-6.48436e-09
-5.15185e-09
-3.83774e-09
-2.55395e-09
-1.28133e-09
-2.62609e-11
1.21511e-09
2.45861e-09
3.68184e-09
4.92002e-09
6.1379e-09
7.37547e-09
8.59478e-09
9.83311e-09
1.10432e-08
1.22823e-08
1.34395e-08
1.46795e-08
1.56883e-08
1.6948e-08
1.75953e-08
1.89773e-08
1.87642e-08
2.0641e-08
1.83184e-08
2.18834e-08
1.4346e-08
2.31254e-08
1.62796e-09
2.55842e-08
-3.8215e-08
3.60662e-08
-3.2219e-07
1.33187e-08
2.78998e-07
9.9862e-08
1.75135e-07
4.94066e-08
-7.00736e-08
4.19936e-09
-9.11517e-08
-6.57256e-08
-1.08708e-07
-1.04179e-07
-1.21993e-07
-1.23676e-07
-1.30673e-07
-1.32049e-07
-1.35264e-07
-1.34807e-07
-1.36038e-07
-1.3484e-07
-1.33981e-07
-1.3273e-07
-1.30715e-07
-1.28717e-07
-1.26589e-07
-1.23838e-07
-1.21354e-07
-1.18575e-07
-1.15518e-07
-1.12684e-07
-1.09507e-07
-1.06342e-07
-1.03243e-07
-9.99102e-08
-9.66622e-08
-9.34034e-08
-9.0006e-08
-8.67281e-08
-8.33826e-08
-8.00231e-08
-7.67417e-08
-7.33805e-08
-7.01087e-08
-6.68305e-08
-6.35625e-08
-6.03591e-08
-5.71438e-08
-5.40125e-08
-5.0885e-08
-4.78299e-08
-4.47982e-08
-4.18387e-08
-3.89076e-08
-3.63633e-08
-3.40634e-08
-3.18755e-08
-2.9778e-08
-2.77194e-08
-2.57457e-08
-2.38477e-08
-2.1998e-08
-2.02268e-08
-1.85032e-08
-1.68415e-08
-1.52307e-08
-1.36686e-08
-1.2155e-08
-1.06809e-08
-9.24969e-09
-7.85243e-09
-6.48755e-09
-5.15506e-09
-3.84101e-09
-2.55728e-09
-1.28478e-09
-2.98323e-11
1.21135e-09
2.45463e-09
3.67757e-09
4.91539e-09
6.13284e-09
7.36989e-09
8.58856e-09
9.82617e-09
1.10353e-08
1.22735e-08
1.34293e-08
1.46681e-08
1.56749e-08
1.69331e-08
1.75771e-08
1.89579e-08
1.87386e-08
2.06156e-08
1.82801e-08
2.18501e-08
1.42821e-08
2.30805e-08
1.49722e-09
2.55181e-08
-3.86255e-08
3.59348e-08
-3.19679e-07
1.5081e-08
2.78773e-07
9.88087e-08
1.73596e-07
4.99077e-08
-6.82458e-08
4.67961e-09
-9.02929e-08
-6.51252e-08
-1.08018e-07
-1.03665e-07
-1.2149e-07
-1.23277e-07
-1.30315e-07
-1.3175e-07
-1.35004e-07
-1.34588e-07
-1.35846e-07
-1.34679e-07
-1.33838e-07
-1.32608e-07
-1.3061e-07
-1.28625e-07
-1.26509e-07
-1.2377e-07
-1.21293e-07
-1.18523e-07
-1.15473e-07
-1.12644e-07
-1.09473e-07
-1.06312e-07
-1.03217e-07
-9.9888e-08
-9.66427e-08
-9.33867e-08
-8.99919e-08
-8.67159e-08
-8.33725e-08
-8.00146e-08
-7.67347e-08
-7.33749e-08
-7.01042e-08
-6.68271e-08
-6.35601e-08
-6.03575e-08
-5.7143e-08
-5.40124e-08
-5.08855e-08
-4.78309e-08
-4.47997e-08
-4.18406e-08
-3.89098e-08
-3.63658e-08
-3.40663e-08
-3.18786e-08
-2.97812e-08
-2.77228e-08
-2.57491e-08
-2.38512e-08
-2.20015e-08
-2.02303e-08
-1.85067e-08
-1.6845e-08
-1.52342e-08
-1.36721e-08
-1.21584e-08
-1.06843e-08
-9.2531e-09
-7.85585e-09
-6.49098e-09
-5.15851e-09
-3.84452e-09
-2.56086e-09
-1.28848e-09
-3.36753e-11
1.20731e-09
2.45034e-09
3.67297e-09
4.9104e-09
6.12739e-09
7.36388e-09
8.58187e-09
9.81871e-09
1.10269e-08
1.2264e-08
1.34184e-08
1.46559e-08
1.56605e-08
1.69172e-08
1.75576e-08
1.89371e-08
1.87112e-08
2.05884e-08
1.8239e-08
2.18144e-08
1.42137e-08
2.30324e-08
1.35784e-09
2.54478e-08
-3.90569e-08
3.57909e-08
-3.16986e-07
1.69781e-08
2.78453e-07
9.77381e-08
1.71969e-07
5.04236e-08
-6.63117e-08
5.18589e-09
-8.93678e-08
-6.4488e-08
-1.07278e-07
-1.03116e-07
-1.20949e-07
-1.22849e-07
-1.2993e-07
-1.31428e-07
-1.34724e-07
-1.34351e-07
-1.35639e-07
-1.34505e-07
-1.33685e-07
-1.32477e-07
-1.30498e-07
-1.28526e-07
-1.26424e-07
-1.23696e-07
-1.21228e-07
-1.18467e-07
-1.15424e-07
-1.12601e-07
-1.09437e-07
-1.0628e-07
-1.03189e-07
-9.9864e-08
-9.66216e-08
-9.33687e-08
-8.99767e-08
-8.67027e-08
-8.33616e-08
-8.00054e-08
-7.67271e-08
-7.33689e-08
-7.00993e-08
-6.68235e-08
-6.35574e-08
-6.03558e-08
-5.71421e-08
-5.40122e-08
-5.0886e-08
-4.7832e-08
-4.48013e-08
-4.18427e-08
-3.89122e-08
-3.63684e-08
-3.40694e-08
-3.18818e-08
-2.97845e-08
-2.77264e-08
-2.57528e-08
-2.38549e-08
-2.20053e-08
-2.02341e-08
-1.85104e-08
-1.68487e-08
-1.52379e-08
-1.36758e-08
-1.21621e-08
-1.0688e-08
-9.25676e-09
-7.85952e-09
-6.49466e-09
-5.16223e-09
-3.8483e-09
-2.56472e-09
-1.29247e-09
-3.78095e-11
1.20295e-09
2.44572e-09
3.66802e-09
4.90504e-09
6.12153e-09
7.35742e-09
8.57467e-09
9.81069e-09
1.10178e-08
1.22538e-08
1.34066e-08
1.46428e-08
1.5645e-08
1.69001e-08
1.75366e-08
1.89147e-08
1.86818e-08
2.05592e-08
1.81951e-08
2.1776e-08
1.41406e-08
2.2981e-08
1.20938e-09
2.53732e-08
-3.95092e-08
3.56332e-08
-3.141e-07
1.9019e-08
2.78022e-07
9.66561e-08
1.70251e-07
5.09531e-08
-6.42683e-08
5.71865e-09
-8.83716e-08
-6.38123e-08
-1.06484e-07
-1.02529e-07
-1.20368e-07
-1.2239e-07
-1.29515e-07
-1.31082e-07
-1.34423e-07
-1.34097e-07
-1.35417e-07
-1.34318e-07
-1.33521e-07
-1.32335e-07
-1.30377e-07
-1.28419e-07
-1.26331e-07
-1.23617e-07
-1.21157e-07
-1.18406e-07
-1.15371e-07
-1.12555e-07
-1.09397e-07
-1.06245e-07
-1.03159e-07
-9.98382e-08
-9.65989e-08
-9.33493e-08
-8.99603e-08
-8.66884e-08
-8.33498e-08
-7.99955e-08
-7.67188e-08
-7.33624e-08
-7.0094e-08
-6.68195e-08
-6.35546e-08
-6.03539e-08
-5.71412e-08
-5.4012e-08
-5.08865e-08
-4.78332e-08
-4.4803e-08
-4.18449e-08
-3.89148e-08
-3.63713e-08
-3.40727e-08
-3.18853e-08
-2.97882e-08
-2.77303e-08
-2.57567e-08
-2.38589e-08
-2.20093e-08
-2.02381e-08
-1.85145e-08
-1.68527e-08
-1.52419e-08
-1.36798e-08
-1.21661e-08
-1.0692e-08
-9.26069e-09
-7.86346e-09
-6.49862e-09
-5.16622e-09
-3.85236e-09
-2.56886e-09
-1.29675e-09
-4.22575e-11
1.19827e-09
2.44075e-09
3.6627e-09
4.89927e-09
6.11522e-09
7.35046e-09
8.56693e-09
9.80206e-09
1.1008e-08
1.22428e-08
1.3394e-08
1.46286e-08
1.56283e-08
1.68817e-08
1.75141e-08
1.88907e-08
1.86502e-08
2.05278e-08
1.8148e-08
2.17349e-08
1.40625e-08
2.29259e-08
1.0514e-09
2.5294e-08
-3.99823e-08
3.54602e-08
-3.1101e-07
2.12129e-08
2.77463e-07
9.557e-08
1.6844e-07
5.14948e-08
-6.21131e-08
6.27815e-09
-8.72992e-08
-6.30967e-08
-1.05633e-07
-1.01903e-07
-1.19744e-07
-1.21898e-07
-1.29069e-07
-1.30711e-07
-1.34099e-07
-1.33823e-07
-1.35177e-07
-1.34116e-07
-1.33343e-07
-1.32182e-07
-1.30246e-07
-1.28304e-07
-1.26232e-07
-1.23532e-07
-1.21082e-07
-1.18341e-07
-1.15315e-07
-1.12505e-07
-1.09355e-07
-1.06208e-07
-1.03126e-07
-9.98102e-08
-9.65743e-08
-9.33283e-08
-8.99426e-08
-8.6673e-08
-8.3337e-08
-7.99847e-08
-7.67099e-08
-7.33553e-08
-7.00883e-08
-6.68152e-08
-6.35514e-08
-6.03518e-08
-5.71401e-08
-5.40118e-08
-5.08871e-08
-4.78344e-08
-4.48048e-08
-4.18472e-08
-3.89175e-08
-3.63743e-08
-3.40762e-08
-3.1889e-08
-2.9792e-08
-2.77344e-08
-2.5761e-08
-2.38632e-08
-2.20137e-08
-2.02424e-08
-1.85188e-08
-1.68571e-08
-1.52463e-08
-1.36841e-08
-1.21703e-08
-1.06962e-08
-9.26492e-09
-7.8677e-09
-6.50287e-09
-5.17051e-09
-3.85673e-09
-2.57331e-09
-1.30136e-09
-4.7042e-11
1.19324e-09
2.43541e-09
3.65697e-09
4.89306e-09
6.10844e-09
7.34298e-09
8.55859e-09
9.79277e-09
1.09975e-08
1.2231e-08
1.33804e-08
1.46134e-08
1.56104e-08
1.6862e-08
1.749e-08
1.8865e-08
1.86164e-08
2.04942e-08
1.80976e-08
2.16909e-08
1.39792e-08
2.2867e-08
8.83464e-10
2.52101e-08
-4.04759e-08
3.52704e-08
-3.07705e-07
2.35692e-08
2.76759e-07
9.44879e-08
1.66535e-07
5.20471e-08
-5.98442e-08
6.86449e-09
-8.61452e-08
-6.23396e-08
-1.04722e-07
-1.01234e-07
-1.19075e-07
-1.2137e-07
-1.2859e-07
-1.30313e-07
-1.3375e-07
-1.33529e-07
-1.3492e-07
-1.33899e-07
-1.33152e-07
-1.32018e-07
-1.30105e-07
-1.2818e-07
-1.26124e-07
-1.2344e-07
-1.21e-07
-1.18271e-07
-1.15253e-07
-1.12451e-07
-1.09308e-07
-1.06167e-07
-1.0309e-07
-9.97801e-08
-9.65477e-08
-9.33055e-08
-8.99234e-08
-8.66563e-08
-8.33231e-08
-7.99731e-08
-7.67002e-08
-7.33476e-08
-7.0082e-08
-6.68105e-08
-6.3548e-08
-6.03496e-08
-5.71389e-08
-5.40115e-08
-5.08876e-08
-4.78356e-08
-4.48067e-08
-4.18497e-08
-3.89204e-08
-3.63776e-08
-3.408e-08
-3.1893e-08
-2.97962e-08
-2.77389e-08
-2.57655e-08
-2.38678e-08
-2.20183e-08
-2.02471e-08
-1.85235e-08
-1.68617e-08
-1.52509e-08
-1.36887e-08
-1.21749e-08
-1.07008e-08
-9.26946e-09
-7.87226e-09
-6.50745e-09
-5.17513e-09
-3.86142e-09
-2.5781e-09
-1.30632e-09
-5.21886e-11
1.18782e-09
2.42966e-09
3.65081e-09
4.88638e-09
6.10114e-09
7.33493e-09
8.54963e-09
9.78278e-09
1.09862e-08
1.22184e-08
1.33658e-08
1.45971e-08
1.55912e-08
1.68408e-08
1.74641e-08
1.88373e-08
1.85801e-08
2.04581e-08
1.80438e-08
2.16436e-08
1.38903e-08
2.28039e-08
7.05165e-10
2.5121e-08
-4.09893e-08
3.5062e-08
-3.04177e-07
2.60975e-08
2.75889e-07
9.34193e-08
1.64535e-07
5.26084e-08
-5.74602e-08
7.47754e-09
-8.4904e-08
-6.15396e-08
-1.03744e-07
-1.00521e-07
-1.18356e-07
-1.20806e-07
-1.28074e-07
-1.29885e-07
-1.33374e-07
-1.33212e-07
-1.34642e-07
-1.33665e-07
-1.32946e-07
-1.31841e-07
-1.29953e-07
-1.28046e-07
-1.26008e-07
-1.2334e-07
-1.20911e-07
-1.18195e-07
-1.15187e-07
-1.12392e-07
-1.09259e-07
-1.06123e-07
-1.03052e-07
-9.97475e-08
-9.65191e-08
-9.3281e-08
-8.99027e-08
-8.66383e-08
-8.33081e-08
-7.99605e-08
-7.66897e-08
-7.33392e-08
-7.00753e-08
-6.68054e-08
-6.35443e-08
-6.03471e-08
-5.71376e-08
-5.40111e-08
-5.08881e-08
-4.78369e-08
-4.48087e-08
-4.18523e-08
-3.89235e-08
-3.6381e-08
-3.4084e-08
-3.18972e-08
-2.98006e-08
-2.77436e-08
-2.57704e-08
-2.38727e-08
-2.20233e-08
-2.02521e-08
-1.85285e-08
-1.68667e-08
-1.52558e-08
-1.36936e-08
-1.21798e-08
-1.07057e-08
-9.27434e-09
-7.87715e-09
-6.51236e-09
-5.18008e-09
-3.86647e-09
-2.58325e-09
-1.31165e-09
-5.77236e-11
1.18199e-09
2.42347e-09
3.64418e-09
4.87919e-09
6.09328e-09
7.32628e-09
8.53999e-09
9.77204e-09
1.0974e-08
1.22047e-08
1.33501e-08
1.45796e-08
1.55706e-08
1.6818e-08
1.74364e-08
1.88076e-08
1.85413e-08
2.04194e-08
1.79862e-08
2.1593e-08
1.37956e-08
2.27365e-08
5.16096e-10
2.50267e-08
-4.15215e-08
3.4833e-08
-3.00413e-07
2.88071e-08
2.74832e-07
9.23751e-08
1.62439e-07
5.31766e-08
-5.49606e-08
8.11691e-09
-8.35697e-08
-6.06953e-08
-1.02698e-07
-9.97612e-08
-1.17585e-07
-1.20201e-07
-1.27519e-07
-1.29425e-07
-1.3297e-07
-1.32871e-07
-1.34343e-07
-1.33412e-07
-1.32724e-07
-1.3165e-07
-1.29789e-07
-1.27902e-07
-1.25883e-07
-1.23233e-07
-1.20816e-07
-1.18113e-07
-1.15116e-07
-1.12329e-07
-1.09205e-07
-1.06076e-07
-1.03011e-07
-9.97122e-08
-9.64881e-08
-9.32544e-08
-8.98802e-08
-8.66188e-08
-8.32919e-08
-7.99468e-08
-7.66783e-08
-7.33301e-08
-7.00679e-08
-6.67998e-08
-6.35402e-08
-6.03443e-08
-5.71361e-08
-5.40106e-08
-5.08886e-08
-4.78383e-08
-4.48108e-08
-4.18551e-08
-3.89268e-08
-3.63847e-08
-3.40883e-08
-3.19018e-08
-2.98054e-08
-2.77487e-08
-2.57756e-08
-2.3878e-08
-2.20286e-08
-2.02574e-08
-1.85338e-08
-1.6872e-08
-1.52611e-08
-1.36989e-08
-1.21851e-08
-1.07109e-08
-9.27958e-09
-7.88241e-09
-6.51764e-09
-5.18541e-09
-3.87189e-09
-2.58879e-09
-1.31738e-09
-6.36761e-11
1.17573e-09
2.41682e-09
3.63705e-09
4.87146e-09
6.08483e-09
7.31696e-09
8.52962e-09
9.76048e-09
1.09609e-08
1.21901e-08
1.33332e-08
1.45607e-08
1.55484e-08
1.67936e-08
1.74066e-08
1.87758e-08
1.84998e-08
2.03779e-08
1.79247e-08
2.15388e-08
1.36947e-08
2.26645e-08
3.15897e-10
2.49268e-08
-4.20714e-08
3.45813e-08
-2.96405e-07
3.17073e-08
2.73567e-07
9.13671e-08
1.60247e-07
5.37499e-08
-5.23456e-08
8.78191e-09
-8.21363e-08
-5.98054e-08
-1.01578e-07
-9.89517e-08
-1.16758e-07
-1.19553e-07
-1.26923e-07
-1.28932e-07
-1.32535e-07
-1.32505e-07
-1.34022e-07
-1.3314e-07
-1.32486e-07
-1.31444e-07
-1.29613e-07
-1.27747e-07
-1.25749e-07
-1.23117e-07
-1.20714e-07
-1.18024e-07
-1.15039e-07
-1.12261e-07
-1.09147e-07
-1.06025e-07
-1.02966e-07
-9.96742e-08
-9.64546e-08
-9.32257e-08
-8.98559e-08
-8.65977e-08
-8.32743e-08
-7.9932e-08
-7.6666e-08
-7.33203e-08
-7.00599e-08
-6.67937e-08
-6.35357e-08
-6.03413e-08
-5.71344e-08
-5.40101e-08
-5.08891e-08
-4.78397e-08
-4.4813e-08
-4.18581e-08
-3.89303e-08
-3.63886e-08
-3.40929e-08
-3.19066e-08
-2.98105e-08
-2.77542e-08
-2.57812e-08
-2.38837e-08
-2.20343e-08
-2.02631e-08
-1.85396e-08
-1.68777e-08
-1.52668e-08
-1.37046e-08
-1.21907e-08
-1.07166e-08
-9.2852e-09
-7.88805e-09
-6.5233e-09
-5.19113e-09
-3.87772e-09
-2.59474e-09
-1.32354e-09
-7.00762e-11
1.16899e-09
2.40966e-09
3.62938e-09
4.86314e-09
6.07574e-09
7.30694e-09
8.51847e-09
9.74806e-09
1.09468e-08
1.21743e-08
1.33151e-08
1.45405e-08
1.55246e-08
1.67673e-08
1.73747e-08
1.87416e-08
1.84553e-08
2.03334e-08
1.78591e-08
2.14807e-08
1.35874e-08
2.25876e-08
1.0424e-10
2.4821e-08
-4.2637e-08
3.43046e-08
-2.92144e-07
3.48068e-08
2.7207e-07
9.04087e-08
1.5796e-07
5.43262e-08
-4.96166e-08
9.47156e-09
-8.05976e-08
-5.88687e-08
-1.00379e-07
-9.80902e-08
-1.15872e-07
-1.18861e-07
-1.26282e-07
-1.28403e-07
-1.32066e-07
-1.3211e-07
-1.33676e-07
-1.32847e-07
-1.32229e-07
-1.31222e-07
-1.29422e-07
-1.2758e-07
-1.25603e-07
-1.22992e-07
-1.20603e-07
-1.17929e-07
-1.14956e-07
-1.12188e-07
-1.09084e-07
-1.0597e-07
-1.02917e-07
-9.9633e-08
-9.64184e-08
-9.31947e-08
-8.98296e-08
-8.65749e-08
-8.32552e-08
-7.9916e-08
-7.66526e-08
-7.33096e-08
-7.00512e-08
-6.67871e-08
-6.35308e-08
-6.0338e-08
-5.71325e-08
-5.40094e-08
-5.08896e-08
-4.78412e-08
-4.48154e-08
-4.18612e-08
-3.89341e-08
-3.63928e-08
-3.40978e-08
-3.19118e-08
-2.98159e-08
-2.776e-08
-2.57871e-08
-2.38897e-08
-2.20405e-08
-2.02692e-08
-1.85457e-08
-1.68838e-08
-1.5273e-08
-1.37106e-08
-1.21968e-08
-1.07226e-08
-9.29123e-09
-7.89411e-09
-6.52939e-09
-5.19728e-09
-3.88398e-09
-2.60113e-09
-1.33017e-09
-7.69571e-11
1.16174e-09
2.40196e-09
3.62113e-09
4.8542e-09
6.06597e-09
7.29617e-09
8.50648e-09
9.7347e-09
1.09317e-08
1.21574e-08
1.32956e-08
1.45187e-08
1.54991e-08
1.67391e-08
1.73405e-08
1.8705e-08
1.84078e-08
2.02857e-08
1.7789e-08
2.14186e-08
1.34734e-08
2.25054e-08
-1.19138e-10
2.47089e-08
-4.32162e-08
3.40003e-08
-2.87619e-07
3.8114e-08
2.70316e-07
8.95144e-08
1.55581e-07
5.49036e-08
-4.67757e-08
1.01845e-08
-7.89472e-08
-5.78839e-08
-9.90975e-08
-9.71738e-08
-1.14922e-07
-1.18119e-07
-1.25593e-07
-1.27835e-07
-1.31562e-07
-1.31686e-07
-1.33303e-07
-1.32531e-07
-1.31952e-07
-1.30982e-07
-1.29216e-07
-1.27399e-07
-1.25446e-07
-1.22857e-07
-1.20483e-07
-1.17826e-07
-1.14866e-07
-1.12109e-07
-1.09016e-07
-1.0591e-07
-1.02865e-07
-9.95884e-08
-9.63793e-08
-9.3161e-08
-8.98012e-08
-8.65501e-08
-8.32345e-08
-7.98985e-08
-7.6638e-08
-7.32979e-08
-7.00417e-08
-6.67798e-08
-6.35254e-08
-6.03343e-08
-5.71304e-08
-5.40086e-08
-5.08901e-08
-4.78427e-08
-4.48178e-08
-4.18645e-08
-3.89381e-08
-3.63973e-08
-3.4103e-08
-3.19173e-08
-2.98217e-08
-2.77662e-08
-2.57935e-08
-2.38962e-08
-2.2047e-08
-2.02758e-08
-1.85523e-08
-1.68904e-08
-1.52795e-08
-1.37172e-08
-1.22033e-08
-1.07291e-08
-9.29771e-09
-7.90061e-09
-6.53593e-09
-5.20388e-09
-3.89071e-09
-2.608e-09
-1.33728e-09
-8.43532e-11
1.15396e-09
2.39368e-09
3.61226e-09
4.84458e-09
6.05546e-09
7.28458e-09
8.49359e-09
9.72035e-09
1.09155e-08
1.21392e-08
1.32747e-08
1.44954e-08
1.54718e-08
1.67089e-08
1.73038e-08
1.86657e-08
1.83569e-08
2.02346e-08
1.77144e-08
2.1352e-08
1.33524e-08
2.24177e-08
-3.54433e-10
2.45903e-08
-4.38061e-08
3.36656e-08
-2.82824e-07
4.16361e-08
2.68282e-07
8.86997e-08
1.53112e-07
5.54802e-08
-4.38264e-08
1.09191e-08
-7.71788e-08
-5.68502e-08
-9.77278e-08
-9.61998e-08
-1.13904e-07
-1.17327e-07
-1.24853e-07
-1.27226e-07
-1.3102e-07
-1.3123e-07
-1.32902e-07
-1.3219e-07
-1.31653e-07
-1.30724e-07
-1.28994e-07
-1.27205e-07
-1.25277e-07
-1.22712e-07
-1.20354e-07
-1.17714e-07
-1.14769e-07
-1.12023e-07
-1.08943e-07
-1.05846e-07
-1.02809e-07
-9.95402e-08
-9.6337e-08
-9.31246e-08
-8.97703e-08
-8.65233e-08
-8.32121e-08
-7.98796e-08
-7.66222e-08
-7.32852e-08
-7.00313e-08
-6.67719e-08
-6.35195e-08
-6.03302e-08
-5.7128e-08
-5.40077e-08
-5.08904e-08
-4.78442e-08
-4.48204e-08
-4.1868e-08
-3.89423e-08
-3.6402e-08
-3.41086e-08
-3.19232e-08
-2.98279e-08
-2.77728e-08
-2.58003e-08
-2.39031e-08
-2.2054e-08
-2.02828e-08
-1.85594e-08
-1.68974e-08
-1.52865e-08
-1.37242e-08
-1.22102e-08
-1.07361e-08
-9.30465e-09
-7.90759e-09
-6.54294e-09