/*--------------------------------*- C++ -*----------------------------------*\
| =========                 |                                                 |
| \\      /  F ield         | OpenFOAM: The Open Source CFD Toolbox           |
|  \\    /   O peration     | Version:  5.x                                   |
|   \\  /    A nd           | Web:      www.OpenFOAM.org                      |
|    \\/     M anipulation  |                                                 |
\*---------------------------------------------------------------------------*/
FoamFile
{
    version     2.0;
    format      ascii;
    class       surfaceScalarField;
    location    "2000";
    object      phi;
}
// * * * * * * * * * * * * * * * * * * * * * * * * * * * * * * * * * * * * * //

dimensions      [0 3 -1 0 0 0 0];

internalField   nonuniform List<scalar> 
215247
(
1.59854e-09
2.83494e-08
-1.8723e-09
1.59357e-09
5.0782e-12
1.91312e-09
-3.20043e-10
2.10525e-09
-1.91623e-10
1.8059e-09
2.99053e-10
1.31376e-09
4.92781e-10
1.16709e-09
1.46836e-10
1.00127e-09
1.6599e-10
8.27474e-10
1.73974e-10
6.92322e-10
1.35406e-10
5.67318e-10
1.24888e-10
4.69139e-10
9.89392e-11
3.79296e-10
8.99642e-11
3.10306e-10
6.99743e-11
2.47757e-10
6.22462e-11
1.96793e-10
5.1747e-11
1.53888e-10
4.32364e-11
1.15991e-10
3.8362e-11
8.62797e-11
3.01537e-11
6.03118e-11
2.65148e-11
3.8336e-11
2.24123e-11
2.09479e-11
1.79212e-11
6.00004e-12
1.52292e-11
-5.95521e-12
1.24868e-11
-1.53867e-11
1.01849e-11
-2.30838e-11
8.38984e-12
-2.88055e-11
6.6191e-12
-3.31126e-11
4.83719e-12
-3.62435e-11
3.57397e-12
-3.82214e-11
2.587e-12
-3.9402e-11
1.852e-12
-3.98531e-11
1.17294e-12
-3.97344e-11
6.64563e-13
-3.91774e-11
1.75576e-13
-3.82466e-11
1.9025e-13
-3.70768e-11
-1.66758e-13
-3.56853e-11
-1.79589e-12
-3.41829e-11
2.69054e-13
-3.25943e-11
-7.23048e-13
-3.09307e-11
-8.10453e-13
-2.92882e-11
-6.8977e-13
-2.763e-11
-9.18054e-13
-2.6012e-11
-9.75546e-13
-2.44525e-11
-1.18343e-12
-2.29494e-11
-6.65889e-14
-2.15431e-11
-7.4438e-13
-2.02022e-11
-1.97435e-13
-1.89398e-11
-7.57764e-13
-1.77401e-11
5.92056e-13
-1.65958e-11
-1.11864e-13
-1.55053e-11
7.96962e-14
-1.44467e-11
-1.12009e-12
-1.36062e-11
1.64772e-12
-1.28134e-11
3.62726e-13
-1.2093e-11
4.72558e-13
-1.13867e-11
7.37059e-14
-1.07395e-11
1.23938e-12
-1.01508e-11
1.5796e-13
-9.60083e-12
1.37181e-12
-9.0874e-12
3.08611e-13
-8.61837e-12
1.70143e-12
-8.18505e-12
1.0266e-13
-7.80076e-12
1.84951e-12
-7.44968e-12
3.80389e-13
-7.1481e-12
1.8827e-12
-6.88167e-12
3.21262e-13
-6.66035e-12
2.0339e-12
-6.47686e-12
6.49982e-13
-6.33223e-12
2.04545e-12
-6.22271e-12
5.25735e-13
-6.15265e-12
2.38618e-12
-6.10801e-12
7.88672e-13
-6.10067e-12
2.53902e-12
-6.11396e-12
1.1756e-12
-6.15686e-12
2.47363e-12
-6.21113e-12
6.33192e-13
-6.28548e-12
2.66298e-12
-6.36715e-12
1.32375e-12
-6.45403e-12
2.0747e-12
-6.53838e-12
1.47345e-12
-6.61187e-12
2.78711e-12
-6.67084e-12
1.44065e-12
-6.70398e-12
2.57674e-12
-6.70039e-12
1.53327e-12
-6.6512e-12
2.58378e-12
-6.5385e-12
1.33344e-12
-6.35331e-12
2.32217e-12
-6.06819e-12
1.28518e-12
-5.66867e-12
1.92369e-12
-5.12316e-12
1.02446e-12
-4.40574e-12
1.61684e-12
-3.4378e-12
7.47629e-13
-2.25481e-12
9.9964e-13
-5.887e-13
-4.65903e-14
1.33533e-12
-4.57864e-13
4.25273e-12
-1.75719e-12
7.61757e-12
-1.91502e-12
1.37072e-11
-3.48478e-12
2.067e-11
-5.35048e-12
4.26376e-11
-2.0597e-11
7.17701e-11
-2.81171e-11
-2.54499e-08
2.55235e-08
5.28637e-09
2.91663e-08
-6.10829e-09
5.23612e-09
5.55828e-11
6.29548e-09
-1.37986e-09
6.90122e-09
-7.96719e-10
5.9437e-09
1.25635e-09
4.36189e-09
2.07527e-09
3.85291e-09
6.56009e-10
3.31936e-09
6.99765e-10
2.7412e-09
7.52302e-10
2.29807e-09
5.78831e-10
1.88372e-09
5.39281e-10
1.55944e-09
4.23886e-10
1.26177e-09
3.87981e-10
1.03311e-09
2.99658e-10
8.25659e-10
2.69679e-10
6.56552e-10
2.21663e-10
5.14002e-10
1.8626e-10
3.8816e-10
1.64926e-10
2.89334e-10
1.29656e-10
2.02986e-10
1.13678e-10
1.29855e-10
9.62347e-11
7.19332e-11
7.67267e-11
2.21441e-11
6.55967e-11
-1.77181e-11
5.35317e-11
-4.92057e-11
4.25954e-11
-7.49143e-11
3.54242e-11
-9.40688e-11
2.68217e-11
-1.08504e-10
2.01734e-11
-1.19033e-10
1.5003e-11
-1.25713e-10
1.03577e-11
-1.29746e-10
7.00723e-12
-1.31344e-10
4.03447e-12
-1.31043e-10
1.77632e-12
-1.29268e-10
-2.80154e-13
-1.26257e-10
-8.15971e-13
-1.22444e-10
-2.85974e-12
-1.17886e-10
-6.06501e-12
-1.12953e-10
-2.43345e-12
-1.07724e-10
-4.47767e-12
-1.02248e-10
-4.75596e-12
-9.68307e-11
-4.53632e-12
-9.13608e-11
-5.0655e-12
-8.60252e-11
-5.12915e-12
-8.0878e-11
-5.08925e-12
-7.59125e-11
-3.31771e-12
-7.12691e-11
-3.99834e-12
-6.68357e-11
-3.06654e-12
-6.26661e-11
-3.81316e-12
-5.87002e-11
-1.12455e-12
-5.49159e-11
-2.18303e-12
-5.13088e-11
-1.65335e-12
-4.78128e-11
-3.99967e-12
-4.50292e-11
2.07052e-12
-4.24093e-11
-2.98902e-13
-4.00214e-11
-1.51457e-14
-3.76909e-11
-9.26804e-13
-3.55482e-11
1.46442e-12
-3.36032e-11
-5.34593e-13
-3.17798e-11
2.06906e-12
-3.00846e-11
-2.73915e-14
-2.85299e-11
2.93124e-12
-2.71003e-11
-2.68143e-13
-2.58242e-11
3.54112e-12
-2.46662e-11
5.24056e-13
-2.36643e-11
3.7568e-12
-2.27864e-11
6.10264e-13
-2.20503e-11
4.30086e-12
-2.14453e-11
1.53556e-12
-2.09641e-11
4.43065e-12
-2.06041e-11
1.50602e-12
-2.0368e-11
5.51476e-12
-2.02241e-11
2.13848e-12
-2.01948e-11
6.31332e-12
-2.02405e-11
3.41288e-12
-2.03771e-11
5.95973e-12
-2.05608e-11
2.18497e-12
-2.08012e-11
6.7879e-12
-2.1073e-11
3.83016e-12
-2.1358e-11
5.03267e-12
-2.16365e-11
3.96079e-12
-2.18807e-11
6.08575e-12
-2.20731e-11
3.74936e-12
-2.21812e-11
5.80828e-12
-2.21682e-11
3.8341e-12
-2.20041e-11
5.56708e-12
-2.16307e-11
3.00804e-12
-2.10154e-11
4.78083e-12
-2.00715e-11
2.53645e-12
-1.87538e-11
3.3046e-12
-1.69436e-11
1.49119e-12
-1.45744e-11
2.16826e-12
-1.13675e-11
-2.97516e-14
-7.46479e-12
-1.46193e-13
-1.94099e-12
-3.24886e-12
4.3975e-12
-4.88885e-12
1.40673e-11
-9.78102e-12
2.51355e-11
-1.10625e-11
4.53312e-11
-2.03463e-11
6.81444e-11
-2.61154e-11
1.40619e-10
-9.1545e-11
2.0936e-10
-9.56643e-11
-5.2559e-08
2.73202e-08
9.80322e-09
3.06e-08
-1.12343e-08
9.68159e-09
1.77315e-10
1.16309e-08
-3.32977e-09
1.27258e-08
-1.89102e-09
1.09963e-08
2.98549e-09
8.11868e-09
4.95365e-09
7.15039e-09
1.6245e-09
6.17216e-09
1.67824e-09
5.09931e-09
1.82539e-09
4.27924e-09
1.39925e-09
3.50989e-09
1.30851e-09
2.90762e-09
1.0271e-09
2.35431e-09
9.41506e-10
1.92883e-09
7.26357e-10
1.54276e-09
6.55385e-10
1.22784e-09
5.37537e-10
9.62191e-10
4.52288e-10
7.27697e-10
3.99948e-10
5.4336e-10
3.14495e-10
3.82303e-10
2.75373e-10
2.45827e-10
2.33189e-10
1.37653e-10
1.85482e-10
4.4661e-11
1.58887e-10
-2.98484e-11
1.28564e-10
-8.87576e-11
1.02468e-10
-1.3688e-10
8.4295e-11
-1.72791e-10
6.39155e-11
-1.99887e-10
4.78726e-11
-2.19698e-10
3.52738e-11
-2.32318e-10
2.36464e-11
-2.39998e-10
1.54657e-11
-2.43129e-10
7.97603e-12
-2.42707e-10
2.22924e-12
-2.39522e-10
-2.6149e-12
-2.34033e-10
-5.09272e-12
-2.27035e-10
-8.49703e-12
-2.18641e-10
-1.49525e-11
-2.09538e-10
-9.52179e-12
-1.99872e-10
-1.3153e-11
-1.89743e-10
-1.39213e-11
-1.79713e-10
-1.34737e-11
-1.6958e-10
-1.43737e-11
-1.59696e-10
-1.43033e-11
-1.50155e-10
-1.4255e-11
-1.40947e-10
-1.07748e-11
-1.32337e-10
-1.18941e-11
-1.2411e-10
-9.88869e-12
-1.16376e-10
-1.0911e-11
-1.09016e-10
-6.31735e-12
-1.01992e-10
-8.00875e-12
-9.52955e-11
-6.96437e-12
-8.88101e-11
-1.04095e-11
-8.36405e-11
-3.11673e-13
-7.87785e-11
-3.85481e-12
-7.43405e-11
-3.03465e-12
-7.00191e-11
-4.23714e-12
-6.60393e-11
-2.14676e-13
-6.243e-11
-3.15094e-12
-5.90413e-11
9.87825e-13
-5.58969e-11
-2.06203e-12
-5.30081e-11
2.65478e-12
-5.03573e-11
-2.16082e-12
-4.79844e-11
3.79578e-12
-4.58372e-11
-6.42818e-13
-4.39741e-11
4.5016e-12
-4.23474e-11
-2.11759e-13
-4.09778e-11
5.58788e-12
-3.9856e-11
1.48836e-12
-3.89607e-11
6.1727e-12
-3.82946e-11
1.69048e-12
-3.78529e-11
7.92956e-12
-3.75887e-11
3.02191e-12
-3.75307e-11
9.1072e-12
-3.76165e-11
4.91054e-12
-3.78653e-11
9.0683e-12
-3.82099e-11
3.33144e-12
-3.86523e-11
1.00667e-11
-3.91576e-11
5.77068e-12
-3.96841e-11
7.98283e-12
-4.02004e-11
6.25651e-12
-4.06547e-11
9.95936e-12
-4.10096e-11
5.86946e-12
-4.12088e-11
9.16157e-12
-4.11838e-11
5.77314e-12
-4.0878e-11
8.5395e-12
-4.01844e-11
4.19664e-12
-3.90402e-11
6.74382e-12
-3.72876e-11
2.79644e-12
-3.48446e-11
3.81813e-12
-3.14806e-11
9.12433e-14
-2.70865e-11
6.88278e-13
-2.11311e-11
-3.84628e-12
-1.38962e-11
-4.63706e-12
-3.6365e-12
-1.14613e-11
8.10679e-12
-1.46955e-11
2.60627e-11
-2.62037e-11
4.65522e-11
-2.95997e-11
8.40491e-11
-5.46888e-11
1.2618e-10
-6.61019e-11
2.60243e-10
-2.2369e-10
3.78571e-10
-2.12557e-10
-8.1405e-08
2.92273e-08
1.52717e-08
3.27147e-08
-1.73908e-08
1.50752e-08
3.74102e-10
1.80723e-08
-6.32724e-09
1.97499e-08
-3.56802e-09
1.71219e-08
5.61337e-09
1.27097e-08
9.36649e-09
1.1174e-08
3.16041e-09
9.65531e-09
3.19721e-09
7.9856e-09
3.49527e-09
6.70566e-09
2.67952e-09
5.50492e-09
2.50938e-09
4.56291e-09
1.9697e-09
3.69762e-09
1.80732e-09
3.03118e-09
1.39383e-09
2.42651e-09
1.2602e-09
1.93286e-09
1.03198e-09
1.51624e-09
8.6946e-10
1.14842e-09
7.68641e-10
8.59042e-10
6.04658e-10
6.06171e-10
5.29211e-10
3.91802e-10
4.48376e-10
2.21759e-10
3.56595e-10
7.55574e-11
3.0581e-10
-4.16755e-11
2.47211e-10
-1.34442e-10
1.96283e-10
-2.10271e-10
1.61687e-10
-2.66937e-10
1.21774e-10
-3.09756e-10
9.17841e-11
-3.41138e-10
6.77951e-11
-3.6121e-10
4.50486e-11
-3.73519e-10
2.91434e-11
-3.78679e-10
1.46718e-11
-3.78241e-10
3.52507e-12
-3.7345e-10
-5.76954e-12
-3.65033e-10
-1.12014e-11
-3.54231e-10
-1.80186e-11
-3.41225e-10
-2.7251e-11
-3.27093e-10
-2.13383e-11
-3.12061e-10
-2.63966e-11
-2.96297e-10
-2.78049e-11
-2.80672e-10
-2.72068e-11
-2.64879e-10
-2.85459e-11
-2.4947e-10
-2.82532e-11
-2.34589e-10
-2.75077e-11
-2.20221e-10
-2.32958e-11
-2.06784e-10
-2.36224e-11
-1.9394e-10
-2.09601e-11
-1.81866e-10
-2.15186e-11
-1.70373e-10
-1.5392e-11
-1.59403e-10
-1.69023e-11
-1.48942e-10
-1.51676e-11
-1.38814e-10
-1.94077e-11
-1.30739e-10
-5.06306e-12
-1.23145e-10
-9.15026e-12
-1.16208e-10
-7.74371e-12
-1.09461e-10
-9.32816e-12
-1.03243e-10
-3.87513e-12
-9.76055e-11
-7.20609e-12
-9.23099e-11
-1.56664e-12
-8.73998e-11
-5.25527e-12
-8.28859e-11
1.14335e-12
-7.87478e-11
-4.86685e-12
-7.50395e-11
3.2863e-12
-7.16882e-11
-2.3211e-12
-6.87761e-11
4.70834e-12
-6.6238e-11
-1.1943e-12
-6.40976e-11
6.69327e-12
-6.23471e-11
1.61662e-12
-6.09474e-11
7.8965e-12
-5.99092e-11
2.44482e-12
-5.92175e-11
1.08953e-11
-5.88075e-11
4.57672e-12
-5.87149e-11
1.32012e-11
-5.88499e-11
7.76035e-12
-5.92353e-11
1.31405e-11
-5.97761e-11
5.76009e-12
-6.04651e-11
1.49953e-11
-6.12548e-11
9.22465e-12
-6.20753e-11
1.17796e-11
-6.28812e-11
9.70046e-12
-6.35914e-11
1.38957e-11
-6.41444e-11
8.93898e-12
-6.44547e-11
1.28458e-11
-6.44151e-11
8.46027e-12
-6.39369e-11
1.14368e-11
-6.28536e-11
5.51553e-12
-6.10656e-11
8.26186e-12
-5.83285e-11
2.58588e-12
-5.45156e-11
2.90495e-12
-4.92607e-11
-2.5348e-12
-4.24018e-11
-2.98152e-12
-3.31023e-11
-1.03711e-11
-2.18118e-11
-1.28871e-11
-5.79141e-12
-2.47674e-11
1.25298e-11
-3.08212e-11
4.05601e-11
-5.22494e-11
7.25113e-11
-5.92964e-11
1.31021e-10
-1.09614e-10
1.96598e-10
-1.29346e-10
4.0498e-10
-4.30378e-10
5.83159e-10
-3.89337e-10
-1.12069e-07
3.12488e-08
2.1848e-08
3.56146e-08
-2.47448e-08
2.15771e-08
6.45081e-10
2.57977e-08
-1.05484e-08
2.81652e-08
-5.93509e-09
2.45008e-08
9.27754e-09
1.82855e-08
1.55824e-08
1.60538e-08
5.39233e-09
1.38824e-08
5.36895e-09
1.14973e-08
5.88065e-09
9.6598e-09
4.51738e-09
7.93813e-09
4.231e-09
6.58343e-09
3.32522e-09
5.33969e-09
3.05145e-09
4.38001e-09
2.35465e-09
3.50942e-09
2.13051e-09
2.798e-09
1.74425e-09
2.1973e-09
1.47056e-09
1.66682e-09
1.2997e-09
1.24917e-09
1.02282e-09
8.84116e-10
8.94955e-10
5.7451e-10
7.5847e-10
3.28732e-10
6.02989e-10
1.1737e-10
5.1737e-10
-5.22464e-11
4.17167e-10
-1.86581e-10
3.31554e-10
-2.96466e-10
2.72206e-10
-3.78699e-10
2.05252e-10
-4.40932e-10
1.5466e-10
-4.86657e-10
1.14018e-10
-5.16027e-10
7.51139e-11
-5.34179e-10
4.8149e-11
-5.41998e-10
2.33439e-11
-5.41707e-10
4.16695e-12
-5.35112e-10
-1.15467e-11
-5.2327e-10
-2.19701e-11
-5.07954e-10
-3.19325e-11
-4.89444e-10
-4.61208e-11
-4.69285e-10
-3.98821e-11
-4.47808e-10
-4.68212e-11
-4.25264e-10
-4.93111e-11
-4.02897e-10
-4.84159e-11
-3.80278e-10
-5.02863e-11
-3.58197e-10
-4.9565e-11
-3.36866e-10
-4.8441e-11
-3.16262e-10
-4.23458e-11
-2.96987e-10
-4.22647e-11
-2.78558e-10
-3.80639e-11
-2.61233e-10
-3.81281e-11
-2.44738e-10
-2.98855e-11
-2.2899e-10
-3.13459e-11
-2.13972e-10
-2.86673e-11
-1.99435e-10
-3.35918e-11
-1.8784e-10
-1.43742e-11
-1.76939e-10
-1.89106e-11
-1.66976e-10
-1.63956e-11
-1.57292e-10
-1.78799e-11
-1.48363e-10
-1.063e-11
-1.40269e-10
-1.41744e-11
-1.32665e-10
-7.01921e-12
-1.25618e-10
-1.1009e-11
-1.19138e-10
-2.88144e-12
-1.13201e-10
-9.87674e-12
-1.07877e-10
3.41726e-13
-1.03069e-10
-5.99751e-12
-9.88891e-11
2.96287e-12
-9.52493e-11
-3.88322e-12
-9.21777e-11
6.0306e-12
-8.96675e-11
2.92421e-13
-8.76589e-11
8.37514e-12
-8.61715e-11
1.93663e-12
-8.51785e-11
1.24423e-11
-8.45936e-11
5.31928e-12
-8.44603e-11
1.55154e-11
-8.46561e-11
9.40528e-12
-8.52074e-11
1.63146e-11
-8.59867e-11
7.48481e-12
-8.69752e-11
1.83161e-11
-8.81096e-11
1.17499e-11
-8.92867e-11
1.53011e-11
-9.04435e-11
1.28447e-11
-9.14642e-11
1.83052e-11
-9.22578e-11
1.16501e-11
-9.27032e-11
1.64155e-11
-9.2647e-11
1.05495e-11
-9.19607e-11
1.39881e-11
-9.04069e-11
6.03279e-12
-8.78409e-11
8.79213e-12
-8.39138e-11
8.54638e-13
-7.84445e-11
4.80445e-13
-7.0904e-11
-8.02455e-12
-6.10647e-11
-9.87444e-12
-4.77229e-11
-2.14884e-11
-3.1528e-11
-2.62686e-11
-8.54593e-12
-4.5491e-11
1.77298e-11
-5.49041e-11
5.79301e-11
-9.06499e-11
1.03737e-10
-1.02877e-10
1.87604e-10
-1.90392e-10
2.81461e-10
-2.20781e-10
5.78933e-10
-7.25625e-10
8.28943e-10
-6.37545e-10
-1.44626e-07
3.33889e-08
2.97123e-08
3.93783e-08
-3.348e-08
2.9371e-08
9.86653e-10
3.50101e-08
-1.61877e-08
3.81891e-08
-9.11351e-09
3.33403e-08
1.41263e-08
2.50217e-08
2.39017e-08
2.19416e-08
8.47257e-09
1.8986e-08
8.32495e-09
1.57483e-08
9.11853e-09
1.32386e-08
7.02751e-09
1.08912e-08
6.57861e-09
9.03781e-09
5.17912e-09
7.33734e-09
4.75266e-09
6.02261e-09
3.67044e-09
4.83013e-09
3.32335e-09
3.85466e-09
2.72051e-09
3.03062e-09
2.29526e-09
2.30267e-09
2.02874e-09
1.72911e-09
1.59731e-09
1.22765e-09
1.39759e-09
8.02161e-10
1.18494e-09
4.64113e-10
9.42368e-10
1.7333e-10
8.09042e-10
-6.02142e-11
6.52382e-10
-2.45345e-10
5.17898e-10
-3.96898e-10
4.25582e-10
-5.1048e-10
3.20224e-10
-5.96579e-10
2.42098e-10
-6.60004e-10
1.78897e-10
-7.00922e-10
1.17665e-10
-7.26413e-10
7.53277e-11
-7.37692e-10
3.65003e-11
-7.37791e-10
6.40052e-12
-7.29201e-10
-1.81059e-11
-7.13382e-10
-3.51442e-11
-6.92749e-10
-5.10659e-11
-6.6771e-10
-6.99518e-11
-6.40373e-10
-6.47981e-11
-6.11197e-10
-7.38188e-11
-5.80539e-10
-7.76508e-11
-5.50093e-10
-7.65662e-11
-5.19284e-10
-7.9094e-11
-4.89194e-10
-7.78406e-11
-4.60112e-10
-7.5445e-11
-4.32011e-10
-6.84208e-11
-4.05716e-10
-6.64702e-11
-3.80567e-10
-6.11734e-11
-3.56921e-10
-5.98802e-11
-3.34403e-10
-4.97702e-11
-3.12903e-10
-5.03055e-11
-2.92394e-10
-4.64315e-11
-2.72546e-10
-5.16837e-11
-2.56715e-10
-2.67522e-11
-2.41828e-10
-3.10977e-11
-2.28218e-10
-2.73922e-11
-2.14998e-10
-2.90482e-11
-2.02804e-10
-2.00353e-11
-1.91753e-10
-2.3235e-11
-1.8137e-10
-1.44035e-11
-1.7175e-10
-1.84708e-11
-1.62903e-10
-8.47345e-12
-1.54802e-10
-1.60851e-11
-1.47535e-10
-3.46649e-12
-1.40976e-10
-1.04289e-11
-1.35272e-10
6.55214e-13
-1.30308e-10
-6.81553e-12
-1.26118e-10
5.35962e-12
-1.22696e-10
-7.84052e-13
-1.19957e-10
9.05984e-12
-1.17931e-10
2.25203e-12
-1.16577e-10
1.50711e-11
-1.15784e-10
7.07142e-12
-1.15604e-10
1.99182e-11
-1.15875e-10
1.29885e-11
-1.16628e-10
2.11297e-11
-1.17696e-10
1.10607e-11
-1.19047e-10
2.4264e-11
-1.20598e-10
1.64396e-11
-1.22205e-10
2.02292e-11
-1.23786e-10
1.75532e-11
-1.25182e-10
2.31447e-11
-1.26266e-10
1.57193e-11
-1.26876e-10
2.069e-11
-1.26801e-10
1.36786e-11
-1.25866e-10
1.66955e-11
-1.23748e-10
6.7362e-12
-1.20247e-10
8.85955e-12
-1.1489e-10
-1.58915e-12
-1.0743e-10
-3.83539e-12
-9.7142e-11
-1.52789e-11
-8.37192e-11
-1.97998e-11
-6.55184e-11
-3.65171e-11
-4.34257e-11
-4.49873e-11
-1.20767e-11
-7.36663e-11
2.37653e-11
-8.82064e-11
7.85866e-11
-1.43057e-10
1.41051e-10
-1.62686e-10
2.55351e-10
-3.00837e-10
3.83131e-10
-3.45894e-10
7.86783e-10
-1.12738e-09
1.12273e-09
-9.71829e-10
-1.79153e-07
3.56517e-08
3.90701e-08
4.41126e-08
-4.3801e-08
3.86677e-08
1.38914e-09
4.59395e-08
-2.34598e-08
5.0068e-08
-1.32419e-08
4.38777e-08
2.03166e-08
3.31224e-08
3.46576e-08
2.90142e-08
1.2581e-08
2.51209e-08
1.22187e-08
2.08723e-08
1.33673e-08
1.75558e-08
1.03445e-08
1.44604e-08
9.67404e-09
1.2007e-08
7.63317e-09
9.75781e-09
7.00247e-09
8.01502e-09
5.41437e-09
6.43455e-09
4.90365e-09
5.14028e-09
4.01559e-09
4.04636e-09
3.38951e-09
3.07966e-09
2.996e-09
2.31738e-09
2.36001e-09
1.65072e-09
2.06493e-09
1.08478e-09
1.75127e-09
6.34761e-10
1.39295e-09
2.47556e-10
1.1964e-09
-6.37031e-11
9.63906e-10
-3.10672e-10
7.65842e-10
-5.13011e-10
6.28541e-10
-6.64888e-10
4.73493e-10
-7.80219e-10
3.58046e-10
-8.65405e-10
2.64517e-10
-9.20614e-10
1.73516e-10
-9.55288e-10
1.10842e-10
-9.71046e-10
5.30714e-11
-9.71879e-10
8.11645e-12
-9.61128e-10
-2.79659e-11
-9.40726e-10
-5.4484e-11
-9.13872e-10
-7.63873e-11
-8.81131e-10
-1.0283e-10
-8.45291e-10
-9.92579e-11
-8.06966e-10
-1.11115e-10
-7.66646e-10
-1.16957e-10
-7.26565e-10
-1.15563e-10
-6.85977e-10
-1.18862e-10
-6.46316e-10
-1.16779e-10
-6.07964e-10
-1.13253e-10
-5.70893e-10
-1.03998e-10
-5.36193e-10
-1.00483e-10
-5.02993e-10
-9.29932e-11
-4.71775e-10
-9.01881e-11
-4.42039e-10
-7.75136e-11
-4.13641e-10
-7.74168e-11
-3.86549e-10
-7.19997e-11
-3.60332e-10
-7.7175e-11
-3.39423e-10
-4.56943e-11
-3.19757e-10
-4.96372e-11
-3.01774e-10
-4.40333e-11
-2.84314e-10
-4.51488e-11
-2.68206e-10
-3.39534e-11
-2.53609e-10
-3.64642e-11
-2.39895e-10
-2.59697e-11
-2.27194e-10
-2.95856e-11
-2.15512e-10
-1.7701e-11
-2.04819e-10
-2.55754e-11
-1.95227e-10
-1.0757e-11
-1.86574e-10
-1.76879e-11
-1.79045e-10
-4.44905e-12
-1.725e-10
-1.21524e-11
-1.66973e-10
2.16706e-12
-1.62462e-10
-3.87711e-12
-1.58851e-10
7.95086e-12
-1.56185e-10
8.1893e-13
-1.54401e-10
1.5707e-11
-1.53363e-10
7.66527e-12
-1.5313e-10
2.19257e-11
-1.53494e-10
1.49706e-11
-1.5449e-10
2.46902e-11
-1.55907e-10
1.36785e-11
-1.57695e-10
2.80728e-11
-1.59747e-10
1.99537e-11
-1.61873e-10
2.47496e-11
-1.63963e-10
2.19396e-11
-1.6581e-10
2.84858e-11
-1.67246e-10
1.93368e-11
-1.68055e-10
2.47314e-11
-1.67961e-10
1.60185e-11
-1.6673e-10
1.87941e-11
-1.63938e-10
6.29994e-12
-1.59321e-10
7.44886e-12
-1.52255e-10
-6.18201e-12
-1.42412e-10
-1.04385e-11
-1.28838e-10
-2.66093e-11
-1.11127e-10
-3.44153e-11
-8.71136e-11
-5.81076e-11
-5.79622e-11
-7.11386e-11
-1.66056e-11
-1.12551e-10
3.06868e-11
-1.33008e-10
1.0299e-10
-2.132e-10
1.85389e-10
-2.42506e-10
3.36038e-10
-4.48336e-10
5.04315e-10
-5.11413e-10
1.03386e-09
-1.6543e-09
1.47224e-09
-1.408e-09
-2.15718e-07
3.80411e-08
5.01549e-08
4.98913e-08
-5.59372e-08
4.97077e-08
1.83672e-09
5.88462e-08
-3.25985e-08
6.40802e-08
-1.84753e-08
5.63845e-08
2.80124e-08
4.2825e-08
4.82177e-08
3.74772e-08
1.7929e-08
3.24673e-08
1.72291e-08
2.70258e-08
1.88089e-08
2.2745e-08
1.46258e-08
1.8759e-08
1.36604e-08
1.55868e-08
1.08059e-08
1.26807e-08
9.90951e-09
1.04237e-08
7.67251e-09
8.37731e-09
6.95064e-09
6.69947e-09
5.69431e-09
5.28061e-09
4.80915e-09
4.02622e-09
4.25175e-09
3.0363e-09
3.35102e-09
2.17023e-09
2.93244e-09
1.43464e-09
2.48802e-09
8.49181e-10
1.98005e-09
3.4529e-10
1.7014e-09
-6.01406e-11
1.37133e-09
-3.82151e-10
1.0893e-09
-6.462e-10
8.94731e-10
-8.44716e-10
6.73682e-10
-9.95743e-10
5.10688e-10
-1.1076e-09
3.78197e-10
-1.18045e-09
2.48331e-10
-1.22658e-09
1.59028e-10
-1.24811e-09
7.68552e-11
-1.25016e-09
1.27515e-11
-1.23712e-09
-3.85029e-11
-1.21148e-09
-7.70671e-11
-1.17739e-09
-1.08646e-10
-1.13562e-09
-1.42852e-10
-1.08975e-09
-1.42447e-10
-1.0406e-09
-1.57652e-10
-9.88825e-10
-1.65919e-10
-9.37303e-10
-1.64342e-10
-8.8509e-10
-1.68645e-10
-8.34037e-10
-1.65604e-10
-7.84647e-10
-1.6006e-10
-7.36883e-10
-1.49407e-10
-6.9216e-10
-1.42651e-10
-6.49359e-10
-1.33358e-10
-6.09102e-10
-1.28046e-10
-5.70749e-10
-1.12868e-10
-5.34117e-10
-1.10972e-10
-4.99162e-10
-1.03646e-10
-4.65339e-10
-1.08535e-10
-4.38365e-10
-6.89327e-11
-4.1299e-10
-7.17999e-11
-3.89782e-10
-6.4129e-11
-3.6726e-10
-6.5146e-11
-3.46478e-10
-5.1582e-11
-3.27647e-10
-5.28098e-11
-3.09957e-10
-4.02701e-11
-2.9358e-10
-4.32794e-11
-2.78516e-10
-2.91229e-11
-2.64733e-10
-3.69187e-11
-2.5237e-10
-1.92628e-11
-2.41221e-10
-2.61693e-11
-2.31522e-10
-1.03399e-11
-2.23093e-10
-1.79878e-11
-2.15977e-10
-1.01521e-12
-2.10172e-10
-6.78201e-12
-2.05526e-10
7.16907e-12
-2.02099e-10
3.77516e-13
-1.99808e-10
1.78765e-11
-1.98482e-10
9.57347e-12
-1.9819e-10
2.67318e-11
-1.98669e-10
1.94412e-11
-1.9996e-10
3.05519e-11
-2.01798e-10
1.87332e-11
-2.0411e-10
3.5455e-11
-2.06763e-10
2.6277e-11
-2.09511e-10
3.12687e-11
-2.12213e-10
2.83188e-11
-2.14602e-10
3.46863e-11
-2.16461e-10
2.47279e-11
-2.17511e-10
2.98623e-11
-2.17396e-10
1.96587e-11
-2.15815e-10
2.12516e-11
-2.12225e-10
6.02725e-12
-2.06279e-10
5.439e-12
-1.97177e-10
-1.19135e-11
-1.84497e-10
-1.96208e-11
-1.67009e-10
-4.05812e-11
-1.44188e-10
-5.33282e-11
-1.13251e-10
-8.53925e-11
-7.56861e-11
-1.04893e-10
-2.24093e-11
-1.62139e-10
3.85321e-11
-1.91006e-10
1.3165e-10
-3.034e-10
2.37804e-10
-3.4553e-10
4.31684e-10
-6.37994e-10
6.48108e-10
-7.24785e-10
1.32624e-09
-2.33028e-09
1.88622e-09
-1.96602e-09
-2.5439e-07
4.05608e-08
6.32315e-08
5.68085e-08
-7.01451e-08
6.27654e-08
2.30289e-09
7.40241e-08
-4.38575e-08
8.05388e-08
-2.499e-08
7.11699e-08
3.73814e-08
5.44046e-08
6.49834e-08
4.757e-08
2.47639e-08
4.12354e-08
2.35641e-08
3.4392e-08
2.56525e-08
2.89632e-08
2.00553e-08
2.39206e-08
1.8703e-08
1.98898e-08
1.48372e-08
1.62002e-08
1.35999e-08
1.33276e-08
1.05462e-08
1.07234e-08
9.55481e-09
8.58546e-09
7.83294e-09
6.77651e-09
6.61842e-09
5.17652e-09
5.85238e-09
3.91276e-09
4.61517e-09
2.80668e-09
4.03927e-09
1.86675e-09
3.42832e-09
1.11791e-09
2.72949e-09
4.73197e-10
2.34606e-09
-4.60456e-11
1.89063e-09
-4.58884e-10
1.503e-09
-7.97725e-10
1.23406e-09
-1.0529e-09
9.30308e-10
-1.24741e-09
7.05856e-10
-1.3919e-09
5.23176e-10
-1.48646e-09
3.43556e-10
-1.54685e-09
2.20355e-10
-1.57578e-09
1.06641e-10
-1.57972e-09
1.76462e-11
-1.56432e-09
-5.30561e-11
-1.53276e-09
-1.07648e-10
-1.4903e-09
-1.49522e-10
-1.43798e-09
-1.95254e-10
-1.38035e-09
-1.99042e-10
-1.31845e-09
-2.18449e-10
-1.25315e-09
-2.301e-10
-1.18809e-09
-2.28275e-10
-1.12211e-09
-2.33752e-10
-1.05755e-09
-2.29357e-10
-9.95063e-10
-2.21958e-10
-9.34603e-10
-2.08541e-10
-8.7797e-10
-1.9866e-10
-8.23752e-10
-1.86228e-10
-7.72748e-10
-1.78075e-10
-7.24144e-10
-1.59575e-10
-6.77712e-10
-1.55993e-10
-6.33399e-10
-1.46279e-10
-5.90524e-10
-1.5046e-10
-5.56332e-10
-1.01561e-10
-5.24163e-10
-1.02991e-10
-4.94733e-10
-9.22859e-11
-4.6619e-10
-9.21959e-11
-4.39844e-10
-7.57865e-11
-4.15975e-10
-7.51759e-11
-3.93557e-10
-6.06039e-11
-3.72809e-10
-6.22202e-11
-3.53727e-10
-4.57882e-11
-3.36273e-10
-5.30191e-11
-3.20618e-10
-3.2755e-11
-3.06509e-10
-3.87013e-11
-2.94233e-10
-2.02392e-11
-2.83572e-10
-2.73091e-11
-2.74573e-10
-7.82243e-12
-2.67236e-10
-1.25442e-11
-2.61366e-10
3.76674e-12
-2.57043e-10
-2.60165e-12
-2.54154e-10
1.71986e-11
-2.52493e-10
9.71768e-12
-2.52137e-10
2.83713e-11
-2.52758e-10
2.17804e-11
-2.54404e-10
3.46509e-11
-2.56747e-10
2.23927e-11
-2.59689e-10
4.00868e-11
-2.6306e-10
3.11698e-11
-2.66552e-10
3.71981e-11
-2.69985e-10
3.43626e-11
-2.73024e-10
4.12923e-11
-2.75389e-10
2.9526e-11
-2.7673e-10
3.45434e-11
-2.76596e-10
2.22472e-11
-2.74605e-10
2.26696e-11
-2.70069e-10
4.12857e-12
-2.62549e-10
1.2648e-12
-2.51034e-10
-2.06162e-11
-2.34986e-10
-3.21919e-11
-2.12854e-10
-6.02736e-11
-1.83966e-10
-7.89498e-11
-1.44811e-10
-1.2189e-10
-9.72554e-11
-1.49234e-10
-2.98329e-11
-2.2679e-10
4.73191e-11
-2.65297e-10
1.65129e-10
-4.18631e-10
2.99488e-10
-4.76932e-10
5.44592e-10
-8.79811e-10
8.18036e-10
-9.95078e-10
1.67078e-09
-3.17994e-09
2.37465e-09
-2.66719e-09
-2.95226e-07
4.3214e-08
7.8599e-08
6.49169e-08
-8.67105e-08
7.81524e-08
2.74983e-09
9.18031e-08
-5.75084e-08
9.97949e-08
-3.29813e-08
8.85853e-08
4.85912e-08
6.81796e-08
8.53898e-08
5.95702e-08
3.33735e-08
5.16695e-08
3.14655e-08
4.31852e-08
3.4137e-08
3.63941e-08
2.6847e-08
3.01024e-08
2.49951e-08
2.50495e-08
1.98906e-08
2.04279e-08
1.82227e-08
1.68203e-08
1.41553e-08
1.355e-08
1.28259e-08
1.08618e-08
1.05222e-08
8.58573e-09
8.8954e-09
6.57158e-09
7.86825e-09
4.97924e-09
6.20879e-09
3.58499e-09
5.43531e-09
2.39948e-09
4.61525e-09
1.45403e-09
3.677e-09
6.39736e-10
3.16169e-09
-1.67543e-11
2.54948e-09
-5.39295e-10
2.02727e-09
-9.68598e-10
1.66586e-09
-1.29247e-09
1.25621e-09
-1.53985e-09
9.55188e-10
-1.72418e-09
7.09781e-10
-1.84543e-09
4.67173e-10
-1.92353e-09
3.00975e-10
-1.96192e-09
1.47735e-10
-1.96866e-09
2.75122e-11
-1.95093e-09
-6.77682e-11
-1.91274e-09
-1.42342e-10
-1.86067e-09
-1.99339e-10
-1.7961e-09
-2.57512e-10
-1.72471e-09
-2.67384e-10
-1.64785e-09
-2.92184e-10
-1.56664e-09
-3.07901e-10
-1.48564e-09
-3.05998e-10
-1.4034e-09
-3.13031e-10
-1.32288e-09
-3.07116e-10
-1.2449e-09
-2.96815e-10
-1.16941e-09
-2.81233e-10
-1.09867e-09
-2.66319e-10
-1.03093e-09
-2.51039e-10
-9.6718e-10
-2.38859e-10
-9.06419e-10
-2.16854e-10
-8.48363e-10
-2.10303e-10
-7.92944e-10
-1.97681e-10
-7.39326e-10
-2.00865e-10
-6.96573e-10
-1.40189e-10
-6.56339e-10
-1.39437e-10
-6.19526e-10
-1.25409e-10
-5.83838e-10
-1.24829e-10
-5.50893e-10
-1.05106e-10
-5.21048e-10
-1.01975e-10
-4.93023e-10
-8.47459e-11
-4.67096e-10
-8.48722e-11
-4.43252e-10
-6.54965e-11
-4.21453e-10
-7.1773e-11
-4.01901e-10
-4.7942e-11
-3.8429e-10
-5.30426e-11
-3.68968e-10
-3.1235e-11
-3.5567e-10
-3.73931e-11
-3.44449e-10
-1.45888e-11
-3.35305e-10
-1.81693e-11
-3.27993e-10
8.68993e-13
-3.22616e-10
-4.28989e-12
-3.19027e-10
1.86593e-11
-3.16978e-10
1.16596e-11
-3.16553e-10
3.36417e-11
-3.17351e-10
2.72954e-11
-3.19423e-10
4.18988e-11
-3.22373e-10
2.93153e-11
-3.26068e-10
4.93906e-11
-3.30296e-10
3.96356e-11
-3.34675e-10
4.58801e-11
-3.38982e-10
4.29434e-11
-3.42795e-10
4.94075e-11
-3.45768e-10
3.66412e-11
-3.4746e-10
4.0837e-11
-3.47309e-10
2.64612e-11
-3.44836e-10
2.47361e-11
-3.39187e-10
2.35651e-12
-3.29808e-10
-3.71688e-12
-3.15439e-10
-3.10915e-11
-2.95409e-10
-4.82708e-11
-2.67783e-10
-8.38393e-11
-2.31716e-10
-1.10609e-10
-1.8284e-10
-1.66563e-10
-1.23459e-10
-2.04278e-10
-3.9304e-11
-3.06671e-10
5.70386e-11
-3.58223e-10
2.04043e-10
-5.6215e-10
3.71783e-10
-6.41002e-10
6.77371e-10
-1.18072e-09
1.01812e-09
-1.33233e-09
2.07525e-09
-4.23463e-09
2.94882e-09
-3.53845e-09
-3.38278e-07
4.60035e-08
9.65942e-08
7.42763e-08
-1.0595e-07
9.62215e-08
3.12254e-09
1.12553e-07
-7.38404e-08
1.22241e-07
-4.2669e-08
1.09029e-07
6.18034e-08
8.45171e-08
1.09902e-07
7.38001e-08
4.40907e-08
6.40537e-08
4.12125e-08
5.36557e-08
4.45352e-08
4.52537e-08
3.52496e-08
3.74895e-08
3.27593e-08
3.12232e-08
2.61573e-08
2.54961e-08
2.39508e-08
2.1013e-08
1.86396e-08
1.69494e-08
1.68894e-08
1.36043e-08
1.38681e-08
1.07702e-08
1.17297e-08
8.26079e-09
1.03782e-08
6.275e-09
8.19478e-09
4.53541e-09
7.17559e-09
3.05537e-09
6.09542e-09
1.87375e-09
4.85913e-09
8.55631e-10
4.17963e-09
3.39269e-11
3.37116e-09
-6.20884e-10
2.68292e-09
-1.15942e-09
2.20487e-09
-1.56645e-09
1.66486e-09
-1.87802e-09
1.26728e-09
-2.11091e-09
9.43008e-10
-2.26492e-09
6.21682e-10
-2.365e-09
4.01906e-10
-2.41546e-09
1.9889e-10
-2.42622e-09
3.90819e-11
-2.40633e-09
-8.67603e-11
-2.36079e-09
-1.86875e-10
-2.29775e-09
-2.60599e-10
-2.21902e-09
-3.36189e-10
-2.13162e-09
-3.53846e-10
-2.03729e-09
-3.85553e-10
-1.93742e-09
-4.06733e-10
-1.83768e-09
-4.04902e-10
-1.73632e-09
-4.13718e-10
-1.637e-09
-4.05633e-10
-1.54074e-09
-3.9232e-10
-1.44752e-09
-3.73091e-10
-1.36012e-09
-3.53008e-10
-1.27639e-09
-3.33271e-10
-1.19758e-09
-3.16501e-10
-1.12244e-09
-2.89978e-10
-1.05063e-09
-2.80729e-10
-9.82073e-10
-2.64549e-10
-9.15744e-10
-2.65944e-10
-8.62859e-10
-1.91689e-10
-8.13083e-10
-1.88234e-10
-7.67529e-10
-1.69611e-10
-7.23389e-10
-1.67225e-10
-6.82636e-10
-1.4358e-10
-6.45721e-10
-1.37128e-10
-6.11068e-10
-1.17187e-10
-5.79018e-10
-1.14779e-10
-5.4955e-10
-9.23928e-11
-5.2262e-10
-9.70851e-11
-4.98471e-10
-6.986e-11
-4.76728e-10
-7.29084e-11
-4.57816e-10
-4.7626e-11
-4.41412e-10
-5.22093e-11
-4.27575e-10
-2.61707e-11
-4.16307e-10
-2.75839e-11
-4.07302e-10
-5.50762e-12
-4.00692e-10
-9.32397e-12
-3.96286e-10
1.64766e-11
-3.93788e-10
1.1255e-11
-3.93293e-10
3.50814e-11
-3.94308e-10
3.02292e-11
-3.96892e-10
4.70117e-11
-4.00569e-10
3.45116e-11
-4.05163e-10
5.55247e-11
-4.10412e-10
4.65596e-11
-4.15847e-10
5.39369e-11
-4.21192e-10
5.12927e-11
-4.25929e-10
5.7964e-11
-4.29627e-10
4.31238e-11
-4.31742e-10
4.65603e-11
-4.31578e-10
2.9402e-11
-4.28544e-10
2.53524e-11
-4.21588e-10
-1.59041e-12
-4.10021e-10
-1.1659e-11
-3.9229e-10
-4.55823e-11
-3.67563e-10
-6.91558e-11
-3.33459e-10
-1.15206e-10
-2.88921e-10
-1.5158e-10
-2.28578e-10
-2.23905e-10
-1.5524e-10
-2.74064e-10
-5.13521e-11
-4.07453e-10
6.76431e-11
-4.7391e-10
2.49061e-10
-7.40505e-10
4.56192e-10
-8.44716e-10
8.3298e-10
-1.55395e-09
1.25292e-09
-1.74864e-09
2.54841e-09
-5.52646e-09
3.62154e-09
-4.60836e-09
-3.83583e-07
4.89318e-08
1.17594e-07
8.48918e-08
-1.28213e-07
1.17371e-07
3.34662e-09
1.36687e-07
-9.31568e-08
1.48314e-07
-5.42949e-08
1.3295e-07
7.71673e-08
1.0384e-07
1.39013e-07
9.06331e-08
5.72979e-08
7.87182e-08
5.31282e-08
6.60962e-08
5.71573e-08
5.57949e-08
4.55518e-08
4.62999e-08
4.22547e-08
3.85968e-08
3.38612e-08
3.15612e-08
3.09879e-08
2.60378e-08
2.41646e-08
2.10313e-08
2.18969e-08
1.69037e-08
1.7997e-08
1.34041e-08
1.52304e-08
1.03036e-08
1.34809e-08
7.84747e-09
1.06524e-08
5.69478e-09
9.33047e-09
3.86207e-09
7.92985e-09
2.39719e-09
6.32656e-09
1.13446e-09
5.44399e-09
1.14169e-10
4.39427e-09
-6.99905e-10
3.49909e-09
-1.37016e-09
2.87807e-09
-1.87774e-09
2.17493e-09
-2.26716e-09
1.659e-09
-2.55919e-09
1.23785e-09
-2.75337e-09
8.18652e-10
-2.88069e-09
5.32272e-10
-2.9465e-09
2.67883e-10
-2.9629e-09
5.92249e-11
-2.94125e-09
-1.04819e-10
-2.88766e-09
-2.36432e-10
-2.81218e-09
-3.33275e-10
-2.71717e-09
-4.28238e-10
-2.61121e-09
-4.56202e-10
-2.49652e-09
-4.96591e-10
-2.37486e-09
-5.24309e-10
-2.25317e-09
-5.22721e-10
-2.12937e-09
-5.33968e-10