/*--------------------------------*- C++ -*----------------------------------*\
| =========                 |                                                 |
| \\      /  F ield         | OpenFOAM: The Open Source CFD Toolbox           |
|  \\    /   O peration     | Version:  5.x                                   |
|   \\  /    A nd           | Web:      www.OpenFOAM.org                      |
|    \\/     M anipulation  |                                                 |
\*---------------------------------------------------------------------------*/
FoamFile
{
    version     2.0;
    format      ascii;
    class       surfaceScalarField;
    location    "2000";
    object      phi;
}
// * * * * * * * * * * * * * * * * * * * * * * * * * * * * * * * * * * * * * //

dimensions      [0 3 -1 0 0 0 0];

internalField   nonuniform List<scalar> 
215247
(
1.81938e-11
4.81181e-13
-2.00228e-11
1.74644e-11
7.29311e-13
2.06807e-11
-3.21639e-12
2.38696e-11
-3.18876e-12
2.30333e-11
8.36428e-13
1.89679e-11
4.06525e-12
1.77431e-11
1.22481e-12
1.63841e-11
1.35901e-12
1.48478e-11
1.53624e-12
1.35115e-11
1.33632e-12
1.22381e-11
1.27335e-12
1.11704e-11
1.06778e-12
1.01431e-11
1.02728e-12
9.31539e-12
8.277e-13
8.51821e-12
7.97153e-13
7.8344e-12
6.83823e-13
7.2198e-12
6.14593e-13
6.6397e-12
5.80099e-13
6.15058e-12
4.89117e-13
5.68823e-12
4.6235e-13
5.25851e-12
4.29712e-13
4.8836e-12
3.74913e-13
4.52457e-12
3.59026e-13
4.19657e-12
3.27976e-13
3.90041e-12
2.96171e-13
3.6156e-12
2.84783e-13
3.35862e-12
2.57003e-13
3.11996e-12
2.38659e-13
2.89005e-12
2.29909e-13
2.68545e-12
2.04594e-13
2.49053e-12
1.94912e-13
2.30496e-12
1.85567e-13
2.13693e-12
1.68029e-13
1.97587e-12
1.61059e-13
1.82528e-12
1.50565e-13
1.68624e-12
1.39056e-13
1.55264e-12
1.33573e-13
1.42969e-12
1.2296e-13
1.31361e-12
1.16082e-13
1.20315e-12
1.10456e-13
1.10149e-12
1.01649e-13
1.00435e-12
9.71395e-14
9.13714e-13
9.0632e-14
8.28606e-13
8.5086e-14
7.47855e-13
8.07583e-14
6.73101e-13
7.47202e-14
6.02011e-13
7.11086e-14
5.35819e-13
6.61581e-14
4.73469e-13
6.23719e-14
4.14942e-13
5.85201e-14
3.60252e-13
5.46885e-14
3.08612e-13
5.16156e-14
2.68953e-13
3.96663e-14
2.32753e-13
3.61762e-14
1.99877e-13
3.28932e-14
1.69069e-13
3.07899e-14
1.40997e-13
2.80853e-14
1.15346e-13
2.56323e-14
9.13596e-14
2.39996e-14
6.90773e-14
2.22676e-14
4.82643e-14
2.08259e-14
2.87753e-14
1.94716e-14
1.05251e-14
1.82623e-14
-6.66165e-15
1.71704e-14
-2.28025e-14
1.61533e-14
-3.80653e-14
1.52469e-14
-5.2458e-14
1.44033e-14
-6.60495e-14
1.35774e-14
-7.89062e-14
1.28672e-14
-9.09801e-14
1.20607e-14
-1.0237e-13
1.13976e-14
-1.12957e-13
1.05741e-14
-1.22725e-13
9.77421e-15
-1.31598e-13
8.86039e-15
-1.39391e-13
7.8044e-15
-1.46017e-13
6.61449e-15
-1.51155e-13
5.14119e-15
-1.54574e-13
3.40585e-15
-1.55861e-13
1.29694e-15
-1.54601e-13
-1.26846e-15
-1.50161e-13
-4.4342e-15
-1.41978e-13
-8.19446e-15
-1.29036e-13
-1.29351e-14
-1.1053e-13
-1.85142e-14
-8.50831e-14
-2.54419e-14
-5.12971e-14
-3.37975e-14
-7.47429e-15
-4.38157e-14
4.89279e-14
-5.64142e-14
1.19868e-13
-7.0932e-14
2.10168e-13
-9.03174e-14
3.21828e-13
-1.11647e-13
4.67566e-13
-1.45771e-13
6.39691e-13
-1.72096e-13
8.81171e-13
-2.41484e-13
1.15341e-12
-2.7224e-13
1.57343e-12
-4.20006e-13
2.04883e-12
-4.74973e-13
2.93309e-12
-8.84697e-13
3.93864e-12
-1.00551e-12
6.97178e-12
-3.03322e-12
1.06611e-11
-3.68943e-12
-2.47518e-09
2.48584e-09
6.02916e-11
5.73952e-12
-6.555e-11
5.76732e-11
3.3477e-12
6.83654e-11
-1.39088e-11
7.85777e-11
-1.34009e-11
7.59048e-11
3.50955e-12
6.28188e-11
1.71511e-11
5.86181e-11
5.42551e-12
5.42185e-11
5.75857e-12
4.91083e-11
6.64647e-12
4.47292e-11
5.71543e-12
4.05086e-11
5.4939e-12
3.6988e-11
4.58832e-12
3.35876e-11
4.42766e-12
3.08514e-11
3.56398e-12
2.82123e-11
3.43618e-12
2.59502e-11
2.94595e-12
2.39142e-11
2.65056e-12
2.19945e-11
2.49981e-12
2.03742e-11
2.10939e-12
1.88431e-11
1.99349e-12
1.74202e-11
1.85261e-12
1.61781e-11
1.61696e-12
1.4989e-11
1.54819e-12
1.39027e-11
1.41416e-12
1.29215e-11
1.27745e-12
1.19782e-11
1.22805e-12
1.1127e-11
1.10821e-12
1.03363e-11
1.02941e-12
9.5748e-12
9.91354e-13
8.89699e-12
8.82401e-13
8.25127e-12
8.40623e-13
7.63667e-12
8.00163e-13
7.07997e-12
7.24724e-13
6.54643e-12
6.94587e-13
6.04762e-12
6.49346e-13
5.58697e-12
5.9972e-13
5.14445e-12
5.76066e-13
4.73718e-12
5.30245e-13
4.35259e-12
5.00665e-13
3.98671e-12
4.76333e-13
3.64992e-12
4.38422e-13
3.32813e-12
4.18924e-13
3.02788e-12
3.90868e-13
2.74593e-12
3.67009e-13
2.47843e-12
3.48261e-13
2.23078e-12
3.22328e-13
1.99528e-12
3.06627e-13
1.77599e-12
2.85403e-13
1.56944e-12
2.68949e-13
1.37554e-12
2.52403e-13
1.19436e-12
2.35865e-13
1.02328e-12
2.22665e-13
8.91916e-13
1.71037e-13
7.71966e-13
1.56093e-13
6.63033e-13
1.41846e-13
5.60967e-13
1.32832e-13
4.67947e-13
1.21122e-13
3.82946e-13
1.10609e-13
3.03472e-13
1.0349e-13
2.29635e-13
9.60858e-14
1.60675e-13
8.98033e-14
9.60966e-14
8.40258e-14
3.56256e-14
7.87482e-14
-2.13204e-14
7.40948e-14
-7.48019e-14
6.96505e-14
-1.25371e-13
6.57943e-14
-1.73058e-13
6.21029e-14
-2.18088e-13
5.85889e-14
-2.60683e-13
5.54757e-14
-3.00684e-13
5.20435e-14
-3.38418e-13
4.91402e-14
-3.73491e-13
4.56304e-14
-4.05849e-13
4.21393e-14
-4.35242e-13
3.82379e-14
-4.6106e-13
3.36374e-14
-4.83013e-13
2.85494e-14
-5.0004e-13
2.21721e-14
-5.11371e-13
1.47191e-14
-5.15655e-13
5.59232e-15
-5.115e-13
-5.43446e-15
-4.9683e-13
-1.9096e-14
-4.69764e-13
-3.52752e-14
-4.26965e-13
-5.57253e-14
-3.65746e-13
-7.9745e-14
-2.81586e-13
-1.09594e-13
-1.69803e-13
-1.45596e-13
-2.48914e-14
-1.88718e-13
1.61744e-13
-2.43066e-13
3.96258e-13
-3.05435e-13
6.95125e-13
-3.89209e-13
1.06406e-12
-4.80563e-13
1.54659e-12
-6.28344e-13
2.11477e-12
-7.4024e-13
2.9148e-12
-1.04152e-12
3.81207e-12
-1.16951e-12
5.20483e-12
-1.81275e-12
6.76791e-12
-2.0375e-12
9.70128e-12
-3.81863e-12
1.29943e-11
-4.29843e-12
2.30113e-11
-1.30504e-11
3.24865e-11
-1.31648e-11
-5.12029e-09
2.6776e-09
1.1194e-10
1.47622e-11
-1.20963e-10
1.07047e-10
8.24083e-12
1.26825e-10
-3.36869e-11
1.45405e-10
-3.19808e-11
1.40577e-10
8.33799e-12
1.16726e-10
4.10019e-11
1.08789e-10
1.33626e-11
1.00694e-10
1.38536e-11
9.12039e-11
1.61362e-11
8.3107e-11
1.38123e-11
7.52705e-11
1.33304e-11
6.87414e-11
1.11174e-11
6.2427e-11
1.07421e-11
5.73454e-11
8.6456e-12
5.24425e-11
8.33903e-12
4.824e-11
7.14853e-12
4.44554e-11
6.43507e-12
4.08884e-11
6.06682e-12
3.78763e-11
5.12154e-12
3.50302e-11
4.83955e-12
3.23855e-11
4.4973e-12
3.00763e-11
3.92619e-12
2.78657e-11
3.75877e-12
2.58466e-11
3.4332e-12
2.40222e-11
3.10195e-12
2.22687e-11
2.98151e-12
2.06864e-11
2.69054e-12
1.92161e-11
2.49961e-12
1.78007e-11
2.40677e-12
1.65406e-11
2.14253e-12
1.53401e-11
2.04108e-12
1.41976e-11
1.94266e-12
1.31627e-11
1.75968e-12
1.21708e-11
1.68646e-12
1.12436e-11
1.57654e-12
1.03872e-11
1.45616e-12
9.56452e-12
1.39868e-12
8.80741e-12
1.28737e-12
8.09243e-12
1.21564e-12
7.41229e-12
1.15647e-12
6.7862e-12
1.06451e-12
6.18796e-12
1.01715e-12
5.62981e-12
9.49013e-13
5.10565e-12
8.91153e-13
4.60837e-12
8.4554e-13
4.14798e-12
7.82684e-13
3.71018e-12
7.44447e-13
3.30251e-12
6.93034e-13
2.91852e-12
6.52961e-13
2.55806e-12
6.12856e-13
2.22124e-12
5.72686e-13
1.90318e-12
5.40696e-13
1.65899e-12
4.15228e-13
1.43598e-12
3.79084e-13
1.23343e-12
3.44409e-13
1.04368e-12
3.2256e-13
8.70723e-13
2.94097e-13
7.1267e-13
2.68641e-13
5.64905e-13
2.51269e-13
4.27615e-13
2.33361e-13
2.99398e-13
2.18033e-13
1.79326e-13
2.04079e-13
6.68927e-14
1.91194e-13
-3.8985e-14
1.79955e-13
-1.38422e-13
1.691e-13
-2.32441e-13
1.59797e-13
-3.21101e-13
1.50773e-13
-4.04819e-13
1.42293e-13
-4.8401e-13
1.34677e-13
-5.58377e-13
1.26397e-13
-6.28526e-13
1.19296e-13
-6.93727e-13
1.10818e-13
-7.53881e-13
1.02299e-13
-8.08525e-13
9.28683e-14
-8.56522e-13
8.16465e-14
-8.97333e-13
6.93474e-14
-9.28998e-13
5.38403e-14
-9.50073e-13
3.578e-14
-9.58064e-13
1.35929e-14
-9.50374e-13
-1.31338e-14
-9.23161e-13
-4.63034e-14
-8.72919e-13
-8.55289e-14
-7.93469e-13
-1.35168e-13
-6.79806e-13
-1.93418e-13
-5.23564e-13
-2.65831e-13
-3.16008e-13
-3.53165e-13
-4.69975e-14
-4.57721e-13
2.99547e-13
-5.89624e-13
7.34829e-13
-7.40708e-13
1.28978e-12
-9.44179e-13
1.97438e-12
-1.16515e-12
2.87042e-12
-1.52442e-12
3.92428e-12
-1.79407e-12
5.41006e-12
-2.52731e-12
7.07312e-12
-2.83256e-12
9.6601e-12
-4.39972e-12
1.25536e-11
-4.93059e-12
1.80009e-11
-9.26632e-12
2.40809e-11
-1.03784e-11
4.26183e-11
-3.15879e-11
5.92942e-11
-2.98407e-11
-7.94465e-09
2.88365e-09
1.74713e-10
2.8123e-11
-1.88074e-10
1.67296e-10
1.56582e-11
1.97916e-10
-6.43074e-11
2.26461e-10
-6.05253e-11
2.19121e-10
1.56779e-11
1.82469e-10
7.76541e-11
1.69949e-10
2.58821e-11
1.57348e-10
2.64543e-11
1.42561e-10
3.09237e-11
1.29938e-10
2.64347e-11
1.17708e-10
2.55607e-11
1.07511e-10
2.13149e-11
9.76468e-11
2.06058e-11
8.97026e-11
1.65899e-11
8.20386e-11
1.6003e-11
7.54669e-11
1.37203e-11
6.95476e-11
1.23544e-11
6.3969e-11
1.16453e-11
5.92568e-11
9.83378e-12
5.48046e-11
9.29171e-12
5.06677e-11
8.63422e-12
4.70546e-11
7.5393e-12
4.35963e-11
7.21701e-12
4.04377e-11
6.59175e-12
3.7583e-11
5.95671e-12
3.48398e-11
5.72467e-12
3.23643e-11
5.16604e-12
3.0064e-11
4.79993e-12
2.78497e-11
4.62104e-12
2.58781e-11
4.11412e-12
2.39999e-11
3.91926e-12
2.22127e-11
3.72991e-12
2.05934e-11
3.37896e-12
1.90416e-11
3.23822e-12
1.7591e-11
3.0271e-12
1.62511e-11
2.79608e-12
1.49641e-11
2.68561e-12
1.37797e-11
2.47186e-12
1.2661e-11
2.33424e-12
1.1597e-11
2.22051e-12
1.06175e-11
2.04403e-12
9.68154e-12
1.95306e-12
8.80836e-12
1.82219e-12
7.9883e-12
1.71118e-12
7.21033e-12
1.62351e-12
6.49004e-12
1.50293e-12
5.80512e-12
1.42938e-12
5.16732e-12
1.33078e-12
4.56658e-12
1.25372e-12
4.00263e-12
1.17679e-12
3.47568e-12
1.09964e-12
2.97808e-12
1.03826e-12
2.59609e-12
7.97222e-13
2.24715e-12
7.27992e-13
1.93022e-12
6.61354e-13
1.63335e-12
6.19404e-13
1.36271e-12
5.64757e-13
1.11538e-12
5.1594e-13
8.84173e-13
4.82493e-13
6.69345e-13
4.48171e-13
4.68723e-13
4.18672e-13
2.80843e-13
3.91935e-13
1.04916e-13
3.67134e-13
-6.07499e-14
3.456e-13
-2.16339e-13
3.24703e-13
-3.63448e-13
3.06884e-13
-5.02168e-13
2.89505e-13
-6.33157e-13
2.73263e-13
-7.57057e-13
2.58588e-13
-8.73412e-13
2.42733e-13
-9.83159e-13
2.29051e-13
-1.08517e-12
2.12812e-13
-1.17928e-12
1.96413e-13
-1.26477e-12
1.78343e-13
-1.33986e-12
1.56753e-13
-1.40371e-12
1.33182e-13
-1.45327e-12
1.03394e-13
-1.48626e-12
6.87524e-14
-1.4988e-12
2.61425e-14
-1.48682e-12
-2.51226e-14
-1.44433e-12
-8.87847e-14
-1.36585e-12
-1.64026e-13
-1.24172e-12
-2.59286e-13
-1.06413e-12
-3.7102e-13
-8.20014e-13
-5.09941e-13
-4.95719e-13
-6.77475e-13
-7.54313e-14
-8.78001e-13
4.66003e-13
-1.13107e-12
1.146e-12
-1.42069e-12
2.01297e-12
-1.81118e-12
3.08228e-12
-2.23444e-12
4.48196e-12
-2.92414e-12
6.12763e-12
-3.4397e-12
8.44825e-12
-4.84793e-12
1.10442e-11
-5.42846e-12
1.50839e-11
-8.43943e-12
1.9597e-11
-9.44315e-12
2.80979e-11
-1.77678e-11
3.75604e-11
-1.98408e-11
6.63827e-11
-6.04105e-11
9.1727e-11
-5.51851e-11
-1.09578e-08
3.10484e-09
2.5053e-10
4.64323e-11
-2.68839e-10
2.40359e-10
2.58291e-11
2.83827e-10
-1.07776e-10
3.24156e-10
-1.00854e-10
3.13915e-10
2.59188e-11
2.62149e-10
1.2942e-10
2.44049e-10
4.39824e-11
2.25989e-10
4.45141e-11
2.04834e-10
5.20786e-11
1.86737e-10
4.45318e-11
1.69201e-10
4.30966e-11
1.54558e-10
3.59579e-11
1.40398e-10
3.47658e-11
1.28981e-10
2.80068e-11
1.1797e-10
2.7014e-11
1.08523e-10
2.3167e-11
1.00013e-10
2.08642e-11
9.19935e-11
1.96652e-11
8.52173e-11
1.661e-11
7.88152e-11
1.56938e-11
7.28668e-11
1.45827e-11
6.76702e-11
1.27359e-11
6.2697e-11
1.21901e-11
5.81549e-11
1.11339e-11
5.40489e-11
1.00627e-11
5.0104e-11
9.66953e-12
4.6544e-11
8.72606e-12
4.32355e-11
8.10845e-12
4.00513e-11
7.80526e-12
3.72157e-11
6.94963e-12
3.45145e-11
6.6205e-12
3.19444e-11
6.30005e-12
2.96155e-11
5.70784e-12
2.73839e-11
5.4698e-12
2.52978e-11
5.11314e-12
2.33707e-11
4.7232e-12
2.152e-11
4.53635e-12
1.98166e-11
4.17528e-12
1.82078e-11
3.94297e-12
1.66777e-11
3.75065e-12
1.5269e-11
3.45275e-12
1.3923e-11
3.29898e-12
1.26673e-11
3.07794e-12
1.14879e-11
2.8905e-12
1.03692e-11
2.74229e-12
9.33326e-12
2.53879e-12
8.34828e-12
2.41438e-12
7.43106e-12
2.24798e-12
6.56711e-12
2.11769e-12
5.7561e-12
1.9878e-12
4.99826e-12
1.85747e-12
4.28267e-12
1.75383e-12
3.73336e-12
1.34653e-12
3.23149e-12
1.22984e-12
2.77565e-12
1.11721e-12
2.34871e-12
1.04633e-12
1.95942e-12
9.54057e-13
1.60366e-12
8.71681e-13
1.2711e-12
8.1506e-13
9.62097e-13
7.57165e-13
6.73534e-13
7.07244e-13
4.03297e-13
6.62158e-13
1.50252e-13
6.20188e-13
-8.80298e-14
5.83868e-13
-3.11819e-13
5.48501e-13
-5.23405e-13
5.18457e-13
-7.22927e-13
4.89034e-13
-9.11322e-13
4.61647e-13
-1.08952e-12
4.36796e-13
-1.25686e-12
4.10062e-13
-1.4147e-12
3.86895e-13
-1.56141e-12
3.5951e-13
-1.69675e-12
3.31756e-13
-1.8197e-12
3.01281e-13
-1.92769e-12
2.64757e-13
-2.01953e-12
2.25007e-13
-2.09081e-12
1.74676e-13
-2.13828e-12
1.16212e-13
-2.15636e-12
4.42351e-14
-2.13922e-12
-4.2279e-14
-2.07823e-12
-1.49762e-13
-1.96554e-12
-2.7673e-13
-1.78728e-12
-4.37542e-13
-1.53223e-12
-6.26077e-13
-1.18163e-12
-8.60539e-13
-7.15892e-13
-1.14322e-12
-1.12304e-13
-1.48158e-12
6.65216e-13
-1.9086e-12
1.64168e-12
-2.39715e-12
2.88654e-12
-3.05605e-12
4.42183e-12
-3.76972e-12
6.43122e-12
-4.93356e-12
8.79356e-12
-5.80202e-12
1.21242e-11
-8.17861e-12
1.58495e-11
-9.15377e-12
2.16455e-11
-1.42353e-11
2.81178e-11
-1.59151e-11
4.03046e-11
-2.99549e-11
5.38463e-11
-3.33824e-11
9.50012e-11
-1.01566e-10
1.30714e-10
-9.0898e-11
-1.41692e-08
3.34216e-09
3.41609e-10
7.033e-11
-3.65507e-10
3.28493e-10
3.89452e-11
3.87092e-10
-1.66376e-10
4.41269e-10
-1.5503e-10
4.27705e-10
3.94826e-11
3.58211e-10
1.98914e-10
3.33355e-10
6.88383e-11
3.08716e-10
6.91527e-11
2.79951e-10
8.0844e-11
2.55267e-10
6.92158e-11
2.31359e-10
6.70046e-11
2.11358e-10
5.59594e-11
1.92024e-10
5.40989e-11
1.76417e-10
4.36144e-11
1.61369e-10
4.20614e-11
1.48452e-10
3.60845e-11
1.36815e-10
3.25013e-11
1.25847e-10
3.06327e-11
1.16578e-10
2.58792e-11
1.07821e-10
2.44511e-11
9.96843e-11
2.2719e-11
9.25744e-11
1.98458e-11
8.57714e-11
1.89931e-11
7.95579e-11
1.73474e-11
7.394e-11
1.56806e-11
6.85435e-11
1.5066e-11
6.36732e-11
1.35964e-11
5.91466e-11
1.26351e-11
5.47906e-11
1.21612e-11
5.09113e-11
1.0829e-11
4.72157e-11
1.0316e-11
4.36998e-11
9.81599e-12
4.05137e-11
8.89395e-12
3.74607e-11
8.52278e-12
3.4607e-11
7.96678e-12
3.19705e-11
7.35973e-12
2.94386e-11
7.06821e-12
2.71083e-11
6.50561e-12
2.49074e-11
6.14381e-12
2.28142e-11
5.84391e-12
2.08869e-11
5.37994e-12
1.90457e-11
5.14022e-12
1.73278e-11
4.79583e-12
1.57144e-11
4.50388e-12
1.41839e-11
4.27281e-12
1.27667e-11
3.95588e-12
1.14192e-11
3.76188e-12
1.01644e-11
3.50273e-12
8.98254e-12
3.29961e-12
7.87304e-12
3.09729e-12
6.8363e-12
2.8942e-12
5.85736e-12
2.73273e-12
5.10596e-12
2.09793e-12
4.41933e-12
1.91644e-12
3.79561e-12
1.74094e-12
3.21152e-12
1.63041e-12
2.67886e-12
1.48673e-12
2.19206e-12
1.35846e-12
1.73703e-12
1.2701e-12
1.31422e-12
1.17996e-12
9.19389e-13
1.10209e-12
5.49629e-13
1.0319e-12
2.03392e-13
9.66435e-13
-1.22637e-13
9.09877e-13
-4.28839e-13
8.54715e-13
-7.18339e-13
8.07936e-13
-9.91329e-13
7.62033e-13
-1.24909e-12
7.19393e-13
-1.4929e-12
6.80615e-13
-1.72185e-12
6.38993e-13
-1.93779e-12
6.02841e-13
-2.13851e-12
5.60208e-13
-2.32366e-12
5.16913e-13
-2.49186e-12
4.69471e-13
-2.63961e-12
4.12517e-13
-2.76526e-12
3.50633e-13
-2.86279e-12
2.72212e-13
-2.92777e-12
1.81175e-13
-2.95258e-12
6.90544e-14
-2.92923e-12
-6.56427e-14
-2.84597e-12
-2.33016e-13
-2.69204e-12
-4.30671e-13
-2.44852e-12
-6.81059e-13
-2.10009e-12
-9.74518e-13
-1.62111e-12
-1.33951e-12
-9.84879e-13
-1.77947e-12
-1.60329e-13
-2.30613e-12
9.01708e-13
-2.97065e-12
2.2355e-12
-3.73093e-12
3.93561e-12
-4.75619e-12
6.03243e-12
-5.86652e-12
8.77603e-12
-7.67719e-12
1.20018e-11
-9.02775e-12
1.6548e-11
-1.27249e-11
2.16335e-11
-1.42393e-11
2.95412e-11
-2.21429e-11
3.83712e-11
-2.47447e-11
5.49827e-11
-4.65669e-11
7.34169e-11
-5.18166e-11
1.29274e-10
-1.57423e-10
1.77338e-10
-1.38963e-10
-1.75886e-08
3.59671e-09
4.50515e-10
1.00474e-10
-4.80659e-10
4.34321e-10
5.51386e-11
5.1064e-10
-2.42695e-10
5.80997e-10
-2.25386e-10
5.63659e-10
5.68206e-11
4.73496e-10
2.89077e-10
4.40506e-10
1.01829e-10
4.07976e-10
1.01682e-10
3.70159e-10
1.18661e-10
3.37587e-10
1.01787e-10
3.06062e-10
9.85297e-11
2.79631e-10
8.23907e-11
2.54096e-10
7.9633e-11
2.33454e-10
6.42567e-11
2.13561e-10
6.19548e-11
1.96472e-10
5.31737e-11
1.81075e-10
4.78974e-11
1.66564e-10
4.5144e-11
1.54297e-10
3.81464e-11
1.42707e-10
3.60408e-11
1.3194e-10
3.34864e-11
1.22529e-10
2.92572e-11
1.13525e-10
2.7997e-11
1.05301e-10
2.55712e-11
9.78641e-11
2.31173e-11
9.07215e-11
2.22086e-11
8.42752e-11
2.00427e-11
7.82832e-11
1.86271e-11
7.25179e-11
1.79264e-11
6.73829e-11
1.5964e-11
6.24912e-11
1.52077e-11
5.78377e-11
1.44695e-11
5.36202e-11
1.31114e-11
4.95794e-11
1.25637e-11
4.58022e-11
1.17439e-11
4.23124e-11
1.08496e-11
3.89612e-11
1.04193e-11
3.58768e-11
9.58998e-12
3.29637e-11
9.05693e-12
3.01932e-11
8.61443e-12
2.76422e-11
7.93086e-12
2.52052e-11
7.5773e-12
2.29314e-11
7.06958e-12
2.07959e-11
6.6394e-12
1.87701e-11
6.29855e-12
1.68944e-11
5.83158e-12
1.51109e-11
5.54543e-12
1.345e-11
5.16353e-12
1.18857e-11
4.86399e-12
1.04171e-11
4.56581e-12
9.0449e-12
4.26643e-12
7.74922e-12
4.0284e-12
6.75477e-12
3.09238e-12
5.84588e-12
2.82532e-12
5.02021e-12
2.56662e-12
4.24707e-12
2.40353e-12
3.54191e-12
2.1919e-12
2.89743e-12
2.00292e-12
2.29505e-12
1.87248e-12
1.7353e-12
1.7397e-12
1.21261e-12
1.62478e-12
7.23108e-13
1.52139e-12
2.64743e-13
1.4248e-12
-1.66861e-13
1.34147e-12
-5.72222e-13
1.26008e-12
-9.55467e-13
1.19117e-12
-1.31685e-12
1.12342e-12
-1.65807e-12
1.06061e-12
-1.98082e-12
1.00336e-12
-2.28389e-12
9.42054e-13
-2.56973e-12
8.88683e-13
-2.83541e-12
8.25881e-13
-3.08049e-12
7.61992e-13
-3.30313e-12
6.92107e-13
-3.4987e-12
6.0809e-13
-3.66501e-12
5.16939e-13
-3.79415e-12
4.01344e-13
-3.8802e-12
2.67224e-13
-3.91314e-12
1.01991e-13
-3.88237e-12
-9.64171e-14
-3.77239e-12
-3.42993e-13
-3.56898e-12
-6.3409e-13
-3.24712e-12
-1.00291e-12
-2.78661e-12
-1.43503e-12
-2.15354e-12
-1.97259e-12
-1.3127e-12
-2.62032e-12
-2.2296e-13
-3.39587e-12
1.18044e-12
-4.37406e-12
2.94299e-12
-5.49348e-12
5.18913e-12
-7.00234e-12
7.95958e-12
-8.63697e-12
1.15834e-11
-1.1301e-11
1.58446e-11
-1.3289e-11
2.18471e-11
-1.87274e-11
2.85634e-11
-2.09555e-11
3.89984e-11
-3.25779e-11
5.06524e-11
-3.63985e-11
7.25503e-11
-6.8465e-11
9.68245e-11
-7.60908e-11
1.70117e-10
-2.30715e-10
2.32831e-10
-2.01676e-10
-2.12254e-08
3.86963e-09
5.80205e-10
1.37524e-10
-6.17255e-10
5.6089e-10
7.4453e-11
6.57851e-10
-3.39656e-10
7.47014e-10
-3.14549e-10
7.25425e-10
7.84099e-11
6.113e-10
4.03201e-10
5.68563e-10
1.44566e-10
5.26607e-10
1.43638e-10
4.7807e-10
1.67198e-10
4.36092e-10
1.43766e-10
3.95499e-10
1.39123e-10
3.61383e-10
1.16506e-10
3.28446e-10
1.1257e-10
3.01778e-10
9.09242e-11
2.76089e-10
8.76437e-11
2.54005e-10
7.52579e-11
2.34108e-10
6.77944e-11
2.15353e-10
6.38993e-11
1.99494e-10
5.40051e-11
1.84511e-10
5.10239e-11
1.70591e-10
4.74057e-11
1.58421e-10
4.14272e-11
1.4678e-10
3.9638e-11
1.36148e-10
3.62037e-11
1.26531e-10
3.27342e-11
1.17296e-10
3.14434e-11
1.08961e-10
2.83776e-11
1.01213e-10
2.63755e-11
9.37587e-11
2.53805e-11
8.71187e-11
2.2604e-11
8.07935e-11
2.1533e-11
7.4777e-11
2.04859e-11
6.93235e-11
1.85649e-11
6.40986e-11
1.77885e-11
5.9215e-11
1.66274e-11
5.47024e-11
1.53623e-11
5.03695e-11
1.47521e-11
4.63815e-11
1.35781e-11
4.26147e-11
1.28237e-11
3.90325e-11
1.21966e-11
3.57342e-11
1.12292e-11
3.25831e-11
1.07284e-11
2.96432e-11
1.00095e-11
2.6882e-11
9.40059e-12
2.42628e-11
8.91777e-12
2.18375e-11
8.25681e-12
1.95314e-11
7.85148e-12
1.7384e-11
7.3109e-12
1.53613e-11
6.88669e-12
1.34626e-11
6.46454e-12
1.16883e-11
6.04068e-12
1.00131e-11
5.70358e-12
8.72746e-12
4.37803e-12
7.55218e-12
4.00057e-12
6.48441e-12
3.63441e-12
5.48475e-12
3.40316e-12
4.5728e-12
3.10386e-12
3.73928e-12
2.83642e-12
2.96028e-12
2.65149e-12
2.23638e-12
2.46359e-12
1.56042e-12
2.30075e-12
9.27372e-13
2.15442e-12
3.34594e-13
2.01759e-12
-2.23565e-13
1.89961e-12
-7.47793e-13
1.78432e-12
-1.24341e-12
1.68676e-12
-1.71075e-12
1.59077e-12
-2.15201e-12
1.50185e-12
-2.56937e-12
1.42073e-12
-2.96128e-12
1.33394e-12
-3.3309e-12
1.25831e-12
-3.67445e-12
1.16941e-12
-3.99135e-12
1.07889e-12
-4.27924e-12
9.79987e-13
-4.53211e-12
8.60977e-13
-4.74718e-12
7.31986e-13
-4.91418e-12
5.68345e-13
-5.02552e-12
3.78545e-13
-5.06822e-12
1.447e-13
-5.02863e-12
-1.36022e-13
-4.88672e-12
-4.84893e-13
-4.62416e-12
-8.96665e-13
-4.20863e-12
-1.41844e-12
-3.61412e-12
-2.02956e-12
-2.79679e-12
-2.78991e-12
-1.71134e-12
-3.70578e-12
-3.04556e-13
-4.80265e-12
1.50683e-12
-6.18546e-12
3.78188e-12
-7.76853e-12
6.68037e-12
-9.90084e-12
1.02558e-11
-1.22124e-11
1.49306e-11
-1.59758e-11
2.04289e-11
-1.87873e-11
2.81691e-11
-2.64676e-11
3.68327e-11
-2.96191e-11
5.02803e-11
-4.60255e-11
6.53035e-11
-5.14212e-11
9.34906e-11
-9.66525e-11
1.24707e-10
-1.07307e-10
2.18581e-10
-3.24589e-10
2.98592e-10
-2.81688e-10
-2.50889e-08
4.16213e-09
7.34089e-10
1.82122e-10
-7.78686e-10
7.11733e-10
9.68089e-11
8.32626e-10
-4.60549e-10
9.43538e-10
-4.2546e-10
9.17201e-10
1.04747e-10
7.75445e-10
5.44958e-10
7.2108e-10
1.98931e-10
6.67908e-10
1.9681e-10
6.06725e-10
2.2838e-10
5.53571e-10
1.96921e-10
5.02221e-10
1.90472e-10
4.58953e-10
1.59774e-10
4.17208e-10
1.54316e-10
3.83354e-10
1.24778e-10
3.50757e-10
1.2024e-10
3.22712e-10
1.03303e-10
2.97444e-10
9.30626e-11
2.73623e-10
8.77206e-11
2.53475e-10
7.41528e-11
2.3444e-10
7.00594e-11
2.16757e-10
6.50887e-11
2.01291e-10
5.68925e-11
1.86501e-10
5.44287e-11
1.72991e-10
4.97133e-11
1.6077e-10
4.49556e-11
1.49036e-10
4.31773e-11
1.38445e-10
3.89686e-11
1.28598e-10
3.62222e-11
1.19127e-10
3.48516e-11
1.10689e-10
3.10419e-11
1.02651e-10
2.95707e-11
9.50066e-11
2.81306e-11
8.80766e-11
2.54949e-11
8.14375e-11
2.44276e-11
7.52322e-11
2.28328e-11
6.94977e-11
2.10968e-11
6.39921e-11
2.02576e-11
5.89247e-11
1.86455e-11
5.41383e-11
1.76101e-11
4.95867e-11
1.67482e-11
4.53955e-11
1.54203e-11
4.13915e-11
1.47324e-11
3.76559e-11
1.3745e-11
3.41473e-11
1.29092e-11
3.08192e-11
1.22459e-11
2.77375e-11
1.13385e-11
2.48073e-11
1.07817e-11
2.20787e-11
1.00395e-11
1.95085e-11
9.45684e-12
1.70959e-11
8.8772e-12
1.48414e-11
8.29513e-12
1.27129e-11
7.83209e-12
1.10794e-11
6.01147e-12
9.58594e-12
5.49405e-12
8.22892e-12
4.99143e-12
6.95867e-12
4.67341e-12
5.79964e-12
4.26288e-12
4.74024e-12
3.89582e-12
3.75018e-12
3.64155e-12
2.83013e-12
3.38364e-12
1.97104e-12
3.15985e-12
1.16648e-12
2.95897e-12
4.13085e-13
2.77098e-12
-2.96288e-13
2.60898e-12
-9.62549e-13
2.45058e-12
-1.59243e-12
2.31664e-12
-2.18637e-12
2.18471e-12
-2.74717e-12
2.06264e-12
-3.27757e-12
1.95114e-12
-3.77563e-12
1.83199e-12
-4.24534e-12
1.72802e-12
-4.68192e-12
1.60599e-12
-5.08461e-12
1.48159e-12
-5.45045e-12
1.34582e-12
-5.77179e-12
1.18232e-12
-6.0451e-12
1.00528e-12
-6.25736e-12
7.80605e-13
-6.39892e-12
5.20098e-13
-6.45333e-12
1.9912e-13
-6.40327e-12
-1.86086e-13
-6.22335e-12
-6.64817e-13
-5.89031e-12
-1.22971e-12
-5.36315e-12
-1.9456e-12
-4.60894e-12
-2.78377e-12
-3.57202e-12
-3.82683e-12
-2.19513e-12
-5.08267e-12
-4.10579e-13
-6.5872e-12
1.88677e-12
-8.48281e-12
4.77234e-12
-1.06541e-11
8.44753e-12
-1.3576e-11
1.29816e-11
-1.67465e-11
1.8907e-11
-2.19012e-11
2.58781e-11
-2.57584e-11
3.56845e-11
-3.6274e-11
4.66655e-11
-4.06001e-11
6.36913e-11
-6.30514e-11
8.27196e-11
-7.04493e-11
1.18361e-10
-1.32294e-10
1.57798e-10
-1.46743e-10
2.75864e-10
-4.42656e-10
3.76222e-10
-3.82046e-10
-2.91882e-08
4.47548e-09
9.16091e-10
2.34859e-10
-9.68828e-10
8.90941e-10
1.21958e-10
1.03945e-09
-6.09063e-10
1.1754e-09
-5.61408e-10
1.14381e-09
1.36338e-10
9.70356e-10
7.18413e-10
9.02179e-10
2.67109e-10
8.35702e-10
2.63287e-10
7.59656e-10
3.04426e-10
6.93266e-10
2.63311e-10
6.292e-10
2.54538e-10
5.75067e-10
2.13907e-10
5.22874e-10
2.06509e-10
4.80475e-10
1.67177e-10
4.39669e-10
1.61046e-10
4.04531e-10
1.38441e-10
3.72871e-10
1.24723e-10
3.4302e-10
1.17572e-10
3.17766e-10
9.94073e-11
2.93905e-10
9.39203e-11
2.7174e-10
8.72531e-11
2.52349e-10
7.62835e-11
2.33808e-10
7.29704e-11
2.16872e-10
6.66493e-11
2.01547e-10
6.02799e-11
1.86837e-10
5.78877e-11
1.73559e-10
5.22469e-11
1.61212e-10
4.85686e-11
1.49339e-10
4.67253e-11
1.38759e-10
4.16214e-11
1.28681e-10
3.96486e-11
1.19097e-10
3.77142e-11
1.10409e-10
3.41839e-11
1.02085e-10
3.27514e-11
9.43052e-11
3.06123e-11
8.71151e-11
2.82868e-11
8.02129e-11
2.71599e-11
7.38595e-11
2.49988e-11
6.78586e-11
2.36111e-11
6.21522e-11
2.24545e-11
5.68975e-11
2.0675e-11
5.18777e-11
1.97522e-11
4.71943e-11
1.84283e-11
4.27954e-11
1.7308e-11
3.8623e-11
1.64183e-11
3.47593e-11
1.52021e-11
3.10857e-11
1.44553e-11
2.76648e-11
1.34603e-11
2.44426e-11
1.26791e-11
2.14178e-11
1.19019e-11
1.85914e-11
1.11216e-11
1.59229e-11
1.05005e-11
1.38753e-11
8.05906e-12
1.20027e-11
7.36661e-12
1.03011e-11
6.69307e-12
8.70849e-12
6.26599e-12
7.25507e-12
5.71631e-12
5.92648e-12
5.22438e-12
4.68496e-12
4.88308e-12
3.53119e-12
4.5374e-12
2.45389e-12
4.23716e-12
1.44495e-12
3.96789e-12
5.0018e-13
3.71576e-12
-3.89371e-13
3.49851e-12
-1.22487e-12
3.28609e-12
-2.01474e-12
3.10649e-12
-2.75953e-12
2.92951e-12
-3.46274e-12
2.76584e-12
-4.12784e-12
2.61624e-12
-4.75235e-12
2.45648e-12
-5.34132e-12
2.31698e-12
-5.88873e-12
2.15338e-12
-6.39363e-12
1.98649e-12
-6.85233e-12
1.80451e-12
-7.25523e-12
1.58523e-12
-7.59792e-12
1.34795e-12
-7.86411e-12
1.04679e-12
-8.0417e-12
6.97677e-13
-8.11013e-12
2.67555e-13
-8.0477e-12
-2.48528e-13
-7.82263e-12
-8.89876e-13
-7.40587e-12
-1.64649e-12
-6.74606e-12
-2.6054e-12
-5.80212e-12
-3.72772e-12
-4.50428e-12
-5.12466e-12
-2.78118e-12
-6.80579e-12
-5.47838e-13
-8.82054e-12
2.32661e-12
-1.13573e-11
5.93729e-12
-1.42648e-11
1.05345e-11
-1.81732e-11
1.62068e-11
-2.24188e-11
2.36158e-11
-2.93102e-11
3.23349e-11
-3.44775e-11
4.45904e-11
-4.85295e-11
5.83208e-11
-5.43305e-11
7.95828e-11
-8.43134e-11
1.03357e-10
-9.42235e-11
1.47805e-10
-1.76742e-10
1.96943e-10
-1.95881e-10
3.43334e-10
-5.89047e-10
4.67538e-10
-5.06251e-10
-3.35317e-08
4.81105e-09
1.13072e-09
2.96243e-10
-1.19211e-09
1.10325e-09
1.49432e-10
1.2835e-09
-7.89316e-10
1.44814e-09
-7.26044e-10
1.41079e-09
1.73688e-10
1.20115e-09
9.28049e-10
1.11663e-09
3.51629e-10
1.03442e-09
3.45494e-10
9.40965e-10
3.97886e-10
8.58948e-10
3.45328e-10
7.79893e-10
3.33593e-10
7.12896e-10
2.80905e-10
6.48346e-10
2.71059e-10
5.95812e-10
2.19711e-10
5.45277e-10
2.11581e-10
5.01721e-10
1.81996e-10
4.62475e-10
1.63969e-10
4.25465e-10
1.54581e-10
3.94145e-10
1.30727e-10
3.64553e-10
1.23513e-10
3.37066e-10
1.1474e-10
3.1301e-10
1.00339e-10
2.90012e-10
9.59685e-11
2.69005e-10
8.76562e-11
2.49993e-10
7.92919e-11
2.31746e-10
7.61344e-11
2.15275e-10
6.87181e-11
1.99958e-10
6.38859e-11
1.8523e-10
6.14533e-11
1.72105e-10
5.4746e-11
1.59603e-10
5.21506e-11
1.47715e-10
4.96019e-11
1.36936e-10
4.4963e-11
1.26611e-10
4.3077e-11
1.16961e-10
4.02623e-11
1.08041e-10
3.72065e-11
9.9479e-11
3.57218e-11
9.1598e-11
3.28798e-11
8.41537e-11
3.10554e-11
7.70754e-11
2.95328e-11
7.05569e-11
2.71935e-11
6.433e-11
2.59792e-11
5.85206e-11
2.42377e-11
5.30639e-11
2.27648e-11
4.78881e-11
2.15941e-11
4.30954e-11
1.99948e-11
3.85384e-11
1.90123e-11
3.4295e-11
1.77037e-11
3.02979e-11
1.66761e-11
2.65459e-11
1.5654e-11
2.30398e-11
1.46276e-11
1.97299e-11
1.38104e-11
1.71903e-11
1.05987e-11
1.48672e-11
9.68967e-12
1.2756e-11
8.80432e-12
1.07804e-11
8.24159e-12
8.97701e-12
7.51965e-12
7.32845e-12
6.87294e-12
5.78803e-12
6.42349e-12
4.35643e-12
5.969e-12
3.01975e-12
5.57384e-12
1.76789e-12
5.21974e-12
5.95634e-13
4.88802e-12
-5.08079e-13
4.60222e-12
-1.54475e-12
4.32276e-12
-2.52478e-12
4.08651e-12
-3.44887e-12
3.8536e-12
-4.32136e-12
3.63833e-12
-5.14655e-12
3.44142e-12
-5.92137e-12
3.2313e-12
-6.65206e-12
3.04767e-12
-7.33118e-12
2.8325e-12
-7.95755e-12
2.61286e-12
-8.5266e-12
2.37355e-12
-9.02642e-12
2.08506e-12
-9.45157e-12
1.77309e-12
-9.78186e-12
1.37707e-12
-1.00023e-11
9.18119e-13
-1.00875e-11
3.52714e-13
-1.00104e-11
-3.25545e-13
-9.73194e-12
-1.16839e-12
-9.21598e-12
-2.16246e-12
-8.39897e-12
-3.42242e-12
-7.23019e-12
-4.89651e-12
-5.62315e-12
-6.73171e-12
-3.48985e-12
-8.93909e-12
-7.24771e-13
-1.15856e-11
2.8332e-12
-1.49153e-11
7.30278e-12
-1.87344e-11
1.29914e-11
-2.38618e-11
2.00116e-11
-2.9439e-11
2.91758e-11
-3.84745e-11
3.9964e-11
-4.52657e-11
5.51144e-11
-6.36798e-11
7.20975e-11
-7.13137e-11
9.83604e-11
-1.10576e-10
1.27743e-10
-1.23606e-10
1.82562e-10
-2.3156e-10
2.43113e-10
-2.56432e-10
4.22545e-10
-7.6848e-10
5.74606e-10
-6.58313e-10
-3.81273e-08
5.17026e-09
1.38317e-09
3.6665e-10
-1.45357e-09
1.35413e-09
1.7847e-10
1.5707e-09
-1.00589e-09
1.76807e-09
-9.23414e-10
1.72448e-09
2.17285e-10
1.47375e-09
1.17878e-09
1.36996e-09
4.55412e-10
1.26921e-09
4.46246e-10
1.15541e-09
5.11686e-10
1.055e-09
4.45742e-10
9.58322e-10
4.30268e-10
8.76135e-10
3.63092e-10
7.97005e-10
3.50189e-10
7.3248e-10
2.84236e-10
6.7044e-10
2.73621e-10
6.16918e-10
2.35519e-10
5.68687e-10
2.12199e-10
5.23198e-10
2.00071e-10
4.8469e-10
1.69235e-10
4.48304e-10
1.59899e-10
4.14509e-10
1.48535e-10
3.84922e-10
1.29926e-10
3.56641e-10
1.24249e-10
3.30809e-10
1.13489e-10
3.07424e-10
1.02677e-10
2.84985e-10
9.85735e-11
2.64728e-10
8.8975e-11
2.45888e-10
8.27258e-11
2.27776e-10
7.95653e-11
2.11633e-10
7.08887e-11
1.96257e-10
6.75271e-11
1.81638e-10
6.42208e-11
1.6838e-10
5.82209e-11
1.55681e-10
5.57758e-11
1.43813e-10
5.213e-11
1.32843e-10
4.81773e-11
1.22313e-10
4.62513e-11
1.12621e-10
4.25722e-11
1.03465e-10
4.0211e-11
9.476e-11
3.82377e-11
8.67431e-11
3.52103e-11
7.9085e-11
3.36373e-11
7.19405e-11
3.13822e-11
6.52295e-11
2.94757e-11
5.88643e-11
2.79594e-11
5.297e-11
2.58891e-11
4.73657e-11
2.46165e-11
4.2147e-11
2.29224e-11
3.72314e-11
2.15918e-11
3.2617e-11
2.02683e-11
2.83052e-11
1.89394e-11
2.42348e-11
1.78808e-11
2.1112e-11
1.37215e-11
1.82547e-11
1.25469e-11
1.56577e-11
1.14013e-11
1.3228e-11
1.06713e-11
1.10096e-11
9.73801e-12
8.98144e-12
8.90108e-12
7.08651e-12
8.31842e-12
5.32537e-12
7.73012e-12
3.68106e-12
7.21816e-12
2.14106e-12
6.75972e-12
6.98975e-13
6.3301e-12
-6.58755e-13
5.95994e-12
-1.93404e-12
5.59805e-12
-3.13961e-12
5.29207e-12
-4.27637e-12
4.99036e-12
-5.34964e-12
4.71158e-12
-6.36469e-12
4.45647e-12
-7.31776e-12
4.18435e-12
-8.21653e-12
3.94643e-12
-9.05184e-12
3.6678e-12
-9.82225e-12