/*--------------------------------*- C++ -*----------------------------------*\
| =========                 |                                                 |
| \\      /  F ield         | OpenFOAM: The Open Source CFD Toolbox           |
|  \\    /   O peration     | Version:  5.x                                   |
|   \\  /    A nd           | Web:      www.OpenFOAM.org                      |
|    \\/     M anipulation  |                                                 |
\*---------------------------------------------------------------------------*/
FoamFile
{
    version     2.0;
    format      ascii;
    class       surfaceScalarField;
    location    "2000";
    object      phi;
}
// * * * * * * * * * * * * * * * * * * * * * * * * * * * * * * * * * * * * * //

dimensions      [0 3 -1 0 0 0 0];

internalField   nonuniform List<scalar> 
215247
(
1.45693e-09
-6.2042e-08
-1.4679e-09
1.63467e-09
-1.77828e-10
2.09947e-09
-4.64354e-10
2.4719e-09
-3.72873e-10
2.32153e-09
1.50661e-10
1.88433e-09
4.36654e-10
1.80267e-09
8.15657e-11
1.68047e-09
1.22081e-10
1.51491e-09
1.6547e-10
1.37741e-09
1.37365e-10
1.23951e-09
1.38174e-10
1.1234e-09
1.1556e-10
1.01065e-09
1.12828e-10
9.18633e-10
9.14162e-11
8.30134e-10
8.87539e-11
7.52735e-10
7.69341e-11
6.83626e-10
6.89949e-11
6.1717e-10
6.62929e-11
5.61127e-10
5.58998e-11
5.07781e-10
5.31523e-11
4.57497e-10
5.01295e-11
4.13624e-10
4.36886e-11
3.712e-10
4.2364e-11
3.32073e-10
3.95192e-11
2.96764e-10
3.45428e-11
2.62532e-10
3.44962e-11
2.31588e-10
3.0046e-11
2.02943e-10
2.84578e-11
1.75347e-10
2.75095e-11
1.50997e-10
2.42039e-11
1.28049e-10
2.27607e-11
1.06504e-10
2.13234e-11
8.74473e-11
1.88226e-11
6.96638e-11
1.75353e-11
5.35944e-11
1.64192e-11
3.93995e-11
1.30255e-11
2.64424e-11
1.35337e-11
1.52496e-11
1.03007e-11
5.44822e-12
9.50911e-12
-3.09213e-12
8.32443e-12
-1.01611e-11
6.7399e-12
-1.6146e-11
5.85406e-12
-2.09626e-11
4.6541e-12
-2.47611e-11
4.57273e-12
-2.76775e-11
1.75883e-12
-2.97375e-11
3.15835e-12
-3.11221e-11
7.48913e-14
-3.18806e-11
1.65766e-12
-3.21224e-11
-1.47119e-12
-3.19166e-11
-5.01914e-13
-3.13196e-11
-1.06233e-12
-3.04375e-11
-2.05381e-13
-2.95993e-11
-2.1231e-12
-2.86902e-11
-2.77229e-13
-2.77729e-11
-2.25054e-12
-2.68104e-11
-7.58665e-13
-2.58431e-11
-2.48142e-12
-2.49308e-11
-5.23345e-13
-2.40282e-11
-2.44015e-12
-2.31581e-11
-7.77575e-13
-2.232e-11
-2.46892e-12
-2.15252e-11
-4.89331e-13
-2.07663e-11
-2.14137e-12
-2.00321e-11
-4.68076e-13
-1.93132e-11
-2.15361e-12
-1.86039e-11
-3.60165e-13
-1.788e-11
-2.0707e-12
-1.71506e-11
-4.88514e-13
-1.63883e-11
-2.09967e-12
-1.56255e-11
-5.01515e-13
-1.48435e-11
-2.10983e-12
-1.40754e-11
-5.53918e-13
-1.33249e-11
-2.26923e-12
-1.26139e-11
-8.58366e-13
-1.19576e-11
-1.86354e-12
-1.13955e-11
-6.11038e-13
-1.09182e-11
-1.64418e-12
-1.05602e-11
-4.44758e-13
-1.03121e-11
-1.28269e-12
-1.02046e-11
-4.61225e-13
-1.02147e-11
-1.24451e-12
-1.0365e-11
-9.54616e-14
-1.06303e-11
-9.22563e-13
-1.1015e-11
-1.08826e-13
-1.14922e-11
-7.01911e-13
-1.20527e-11
2.30472e-13
-1.26602e-11
-5.21743e-13
-1.32771e-11
1.09297e-13
-1.38632e-11
-4.31204e-13
-1.43401e-11
1.46116e-13
-1.46569e-11
-7.57654e-13
-1.46632e-11
-4.10101e-13
-1.43245e-11
-1.31106e-12
-1.33188e-11
-1.61624e-12
-1.17725e-11
-2.08742e-12
-8.89452e-12
-3.37993e-12
-5.10616e-12
-4.1771e-12
1.71162e-12
-7.95518e-12
1.01997e-11
-9.08707e-12
3.26282e-11
-2.30186e-11
6.19451e-11
-2.97917e-11
-2.22827e-08
2.23435e-08
4.8245e-09
-6.21006e-08
-4.75193e-09
5.36938e-09
-7.22688e-10
6.8939e-09
-1.9885e-09
8.09027e-09
-1.56964e-09
7.62031e-09
6.20691e-10
6.23147e-09
1.82483e-09
5.93351e-09
3.79235e-10
5.54873e-09
5.06509e-10
5.00041e-09
7.13457e-10
4.55244e-09
5.84914e-10
4.09795e-09
5.92545e-10
3.71623e-09
4.96421e-10
3.34471e-09
4.83923e-10
3.04114e-09
3.9398e-10
2.74906e-09
3.8071e-10
2.49357e-09
3.31688e-10
2.26502e-09
2.97093e-10
2.04553e-09
2.85247e-10
1.86009e-09
2.40831e-10
1.68364e-09
2.29014e-10
1.51733e-09
2.159e-10
1.37206e-09
1.88386e-10
1.23165e-09
1.82407e-10
1.10213e-09
1.6892e-10
9.85149e-10
1.50282e-10
8.71793e-10
1.47489e-10
7.69289e-10
1.31256e-10
6.74345e-10
1.22783e-10
5.8292e-10
1.18378e-10
5.02182e-10
1.04298e-10
4.26099e-10
9.81083e-11
3.54666e-10
9.19877e-11
2.91445e-10
8.12191e-11
2.32444e-10
7.5835e-11
1.79122e-10
6.91806e-11
1.31992e-10
5.86106e-11
8.89736e-11
5.64106e-11
5.17969e-11
4.61075e-11
1.92208e-11
4.13052e-11
-9.16862e-12
3.58732e-11
-3.26861e-11
2.94888e-11
-5.26016e-11
2.50126e-11
-6.86474e-11
1.99581e-11
-8.13139e-11
1.69424e-11
-9.10501e-11
9.97758e-12
-9.7947e-11
1.04499e-11
-1.02596e-10
2.58977e-12
-1.05169e-10
4.55234e-12
-1.06021e-10
-3.20054e-12
-1.05386e-10
-2.09347e-12
-1.03453e-10
-4.21697e-12
-1.00569e-10
-3.19434e-12
-9.78112e-11
-6.71655e-12
-9.48287e-11
-3.39399e-12
-9.181e-11
-7.47444e-12
-8.8639e-11
-4.48023e-12
-8.54513e-11
-7.79288e-12
-8.24401e-11
-3.68756e-12
-7.94636e-11
-7.64251e-12
-7.65889e-11
-4.27826e-12
-7.38273e-11
-7.60126e-12
-7.11972e-11
-3.36485e-12
-6.86924e-11
-6.72381e-12
-6.62638e-11
-3.17322e-12
-6.38941e-11
-6.66278e-12
-6.1544e-11
-2.89349e-12
-5.91553e-11
-6.53085e-12
-5.67412e-11
-3.22455e-12
-5.42285e-11
-6.67046e-12
-5.17002e-11
-3.33097e-12
-4.91207e-11
-6.8879e-12
-4.65743e-11
-3.32552e-12
-4.41e-11
-7.27667e-12
-4.17456e-11
-4.0553e-12
-3.95913e-11
-6.09689e-12
-3.77169e-11
-3.04629e-12
-3.61451e-11
-5.25936e-12
-3.49564e-11
-2.28582e-12
-3.41445e-11
-3.98655e-12
-3.37822e-11
-1.84344e-12
-3.38222e-11
-3.03485e-12
-3.43104e-11
-4.01649e-13
-3.51949e-11
-1.97039e-12
-3.64581e-11
2.01232e-14
-3.80446e-11
-9.44139e-13
-3.98849e-11
1.28748e-12
-4.19012e-11
-3.98256e-13
-4.39298e-11
1.06077e-12
-4.58764e-11
-1.91985e-13
-4.74377e-11
8.5645e-13
-4.84926e-11
-1.61695e-12
-4.84991e-11
-1.43989e-12
-4.73903e-11
-4.23026e-12
-4.40495e-11
-6.10764e-12
-3.89575e-11
-8.24144e-12
-2.94197e-11
-1.39619e-11
-1.69481e-11
-1.75815e-11
5.63597e-12
-3.25646e-11
3.34916e-11
-3.81633e-11
1.07498e-10
-9.81206e-11
1.80339e-10
-1.03469e-10
-4.60545e-08
2.39505e-08
8.91814e-09
-6.2323e-08
-8.70346e-09
9.91664e-09
-1.72134e-09
1.27156e-08
-4.78696e-09
1.48952e-08
-3.74975e-09
1.40665e-08
1.44973e-09
1.15598e-08
4.33093e-09
1.09811e-08
9.57928e-10
1.02841e-08
1.20337e-09
9.27176e-09
1.72583e-09
8.44706e-09
1.40954e-09
7.60713e-09
1.43286e-09
6.90121e-09
1.20184e-09
6.21361e-09
1.17169e-09
5.65103e-09
9.55956e-10
5.10964e-09
9.22449e-10
4.63587e-09
8.04997e-10
4.21165e-09
7.21296e-10
3.80443e-09
6.92408e-10
3.46002e-09
5.85199e-10
3.13237e-09
5.56571e-10
2.82354e-09
5.24688e-10
2.55358e-09
4.58266e-10
2.29271e-09
4.43299e-10
2.05205e-09
4.10117e-10
1.83457e-09
3.67025e-10
1.62389e-09
3.58582e-10
1.43332e-09
3.20852e-10
1.25675e-09
2.99267e-10
1.08676e-09
2.88425e-10
9.36566e-10
2.54485e-10
7.95028e-10
2.39592e-10
6.62135e-10
2.24785e-10
5.44472e-10
1.98774e-10
4.34652e-10
1.85452e-10
3.35392e-10
1.68997e-10
2.47619e-10
1.45094e-10
1.675e-10
1.37327e-10
9.82378e-11
1.14486e-10
3.75207e-11
1.01794e-10
-1.54046e-11
8.87174e-11
-5.9273e-11
7.30866e-11
-9.64341e-11
6.2239e-11
-1.26398e-10
4.99155e-11
-1.50071e-10
4.17215e-11
-1.68286e-10
2.69772e-11
-1.81217e-10
2.47476e-11
-1.89955e-10
1.00994e-11
-1.9483e-10
1.04658e-11
-1.96493e-10
-3.26011e-12
-1.95385e-10
-3.36364e-12
-1.91856e-10
-8.11868e-12
-1.86555e-10
-7.64747e-12
-1.81463e-10
-1.30765e-11
-1.75959e-10
-8.07775e-12
-1.70376e-10
-1.43553e-11
-1.64509e-10
-1.00711e-11
-1.58607e-10
-1.5358e-11
-1.53028e-10
-8.85144e-12
-1.47514e-10
-1.48079e-11
-1.42184e-10
-9.50771e-12
-1.37068e-10
-1.45097e-11
-1.32187e-10
-7.88745e-12
-1.27543e-10
-1.28521e-11
-1.23036e-10
-7.38961e-12
-1.18644e-10
-1.26096e-11
-1.14279e-10
-6.84976e-12
-1.0985e-10
-1.23835e-11
-1.05368e-10
-7.42485e-12
-1.00711e-10
-1.27615e-11
-9.60153e-11
-7.72551e-12
-9.1234e-11
-1.30194e-11
-8.65036e-11
-7.91968e-12
-8.19191e-11
-1.33741e-11
-7.75483e-11
-8.59067e-12
-7.35643e-11
-1.13357e-11
-7.00749e-11
-6.63016e-12
-6.71643e-11
-9.32259e-12
-6.49561e-11
-4.58469e-12
-6.34567e-11
-6.52952e-12
-6.27795e-11
-2.92145e-12
-6.28595e-11
-4.38909e-12
-6.37583e-11
1.9483e-13
-6.5405e-11
-1.61208e-12
-6.77412e-11
1.78318e-12
-7.06907e-11
6.69905e-13
-7.40936e-11
4.26108e-12
-7.78386e-11
2.13442e-12
-8.15913e-11
4.22423e-12
-8.52066e-11
2.29644e-12
-8.80885e-11
3.34751e-12
-9.00474e-11
-7.84532e-13
-9.00452e-11
-1.89502e-12
-8.79933e-11
-7.30069e-12
-8.17826e-11
-1.2992e-11
-7.2351e-11
-1.82545e-11
-5.46448e-11
-3.22233e-11
-3.15549e-11
-4.11832e-11
1.03507e-11
-7.56257e-11
6.18199e-11
-9.02481e-11
1.98746e-10
-2.35698e-10
3.25981e-10
-2.31267e-10
-7.13898e-08
2.56597e-08
1.38588e-08
-6.26978e-08
-1.34716e-08
1.54157e-08
-3.27815e-09
1.97261e-08
-9.09713e-09
2.30771e-08
-7.10107e-09
2.18523e-08
2.67444e-09
1.80353e-08
8.14727e-09
1.71084e-08
1.88449e-09
1.60353e-08
2.27602e-09
1.4469e-08
3.29167e-09
1.31886e-08
2.68942e-09
1.1884e-08
2.73715e-09
1.0785e-08
2.30003e-09
9.71436e-09
2.24164e-09
8.83699e-09
1.83224e-09
7.9926e-09
1.76651e-09
7.25318e-09
1.54362e-09
6.59065e-09
1.38325e-09
5.95475e-09
1.32761e-09
5.41654e-09
1.12277e-09
4.90448e-09
1.06788e-09
4.42185e-09
1.00664e-09
3.99967e-09
8.79703e-10
3.59181e-09
8.50679e-10
3.21547e-09
7.86074e-10
2.87522e-09
7.05942e-10
2.54567e-09
6.87468e-10
2.24752e-09
6.17613e-10
1.97118e-09
5.74797e-10
1.70516e-09
5.53677e-10
1.47004e-09
4.88747e-10
1.24845e-09
4.60208e-10
1.04038e-09
4.31839e-10
8.56088e-10
3.81975e-10
6.84063e-10
3.56554e-10
5.28552e-10
3.23533e-10
3.90991e-10
2.81041e-10
2.65407e-10
2.62392e-10
1.56808e-10
2.2165e-10
6.15694e-11
1.9602e-10
-2.1469e-11
1.70631e-10
-9.03351e-11
1.40978e-10
-1.48695e-10
1.1957e-10
-1.95787e-10
9.60051e-11
-2.33023e-10
7.81715e-11
-2.61707e-10
5.40989e-11
-2.82111e-10
4.50627e-11
-2.95938e-10
2.17062e-11
-3.03708e-10
1.80712e-11
-3.06439e-10
-3.18195e-12
-3.0482e-10
-6.24335e-12
-2.99407e-10
-1.51105e-11
-2.91205e-10
-1.64291e-11
-2.83302e-10
-2.28348e-11
-2.74751e-10
-1.72257e-11
-2.66065e-10
-2.53995e-11
-2.56931e-10
-2.01779e-11
-2.47738e-10
-2.67977e-11
-2.39041e-10
-1.81052e-11
-2.30445e-10
-2.57419e-11
-2.22129e-10
-1.88831e-11
-2.1415e-10
-2.50254e-11
-2.06532e-10
-1.61219e-11
-1.99285e-10
-2.23184e-11
-1.92248e-10
-1.50793e-11
-1.85393e-10
-2.17524e-11
-1.78576e-10
-1.42194e-11
-1.71662e-10
-2.15126e-11
-1.64662e-10
-1.51165e-11
-1.57396e-10
-2.22508e-11
-1.50062e-10
-1.57546e-11
-1.42601e-10
-2.28606e-11
-1.35214e-10
-1.59457e-11
-1.28063e-10
-2.3247e-11
-1.2124e-10
-1.66538e-11
-1.15032e-10
-1.98665e-11
-1.0958e-10
-1.29861e-11
-1.05044e-10
-1.6107e-11
-1.01597e-10
-9.02435e-12
-9.92638e-11
-1.0994e-11
-9.8205e-11
-5.33316e-12
-9.83351e-11
-6.28248e-12
-9.97341e-11
4.73054e-13
-1.02308e-10
-1.18627e-12
-1.05948e-10
3.96943e-12
-1.10554e-10
3.21961e-12
-1.15855e-10
8.48477e-12
-1.21699e-10
5.86501e-12
-1.27544e-10
8.70569e-12
-1.33183e-10
5.99025e-12
-1.37664e-10
6.67351e-12
-1.40714e-10
1.02449e-13
-1.40693e-10
-3.26192e-12
-1.37486e-10
-1.25963e-11
-1.27782e-10
-2.41282e-11
-1.1307e-10
-3.4298e-11
-8.54396e-11
-6.11878e-11
-4.94454e-11
-7.84518e-11
1.59127e-11
-1.43252e-10
9.60196e-11
-1.71877e-10
3.08917e-10
-4.49943e-10
5.01977e-10
-4.25374e-10
-9.83651e-08
2.74755e-08
1.97855e-08
-6.33252e-08
-1.91669e-08
2.20216e-08
-5.51449e-09
2.81115e-08
-1.51866e-08
3.28483e-08
-1.18382e-08
3.11943e-08
4.32874e-09
2.58548e-08
1.34864e-08
2.44996e-08
3.23968e-09
2.29761e-08
3.79941e-09
2.07536e-08
5.51421e-09
1.89256e-08
4.51739e-09
1.70646e-08
4.59857e-09
1.54919e-08
3.87248e-09
1.39601e-08
3.77366e-09
1.27026e-08
3.08945e-09
1.14922e-08
2.97722e-09
1.04315e-08
2.60404e-09
9.48056e-09
2.3343e-09
8.56783e-09
2.24035e-09
7.79474e-09
1.89591e-09
7.05919e-09
1.8034e-09
6.36588e-09
1.70001e-09
5.75903e-09
1.48652e-09
5.17284e-09
1.43708e-09
4.63188e-09
1.32763e-09
4.14258e-09
1.19483e-09
3.66873e-09
1.1618e-09
3.23992e-09
1.0457e-09
2.84237e-09
9.72333e-10
2.45969e-09
9.36475e-10
2.12135e-09
8.27178e-10
1.80243e-09
7.79152e-10
1.50296e-09
7.31291e-10
1.23761e-09
6.4729e-10
9.89901e-10
6.04225e-10
7.65928e-10
5.48118e-10
5.67731e-10
4.7831e-10
3.86767e-10
4.44213e-10
2.30226e-10
3.77709e-10
9.28914e-11
3.33174e-10
-2.68864e-11
2.90401e-10
-1.26276e-10
2.40151e-10
-2.10543e-10
2.04012e-10
-2.78587e-10
1.64112e-10
-3.3244e-10
1.33164e-10
-3.73974e-10
9.49352e-11
-4.03578e-10
7.59973e-11
-4.23701e-10
4.11965e-11
-4.35092e-10
3.04038e-11
-4.39215e-10
-1.90782e-13
-4.37063e-10
-8.48964e-12
-4.29438e-10
-2.3062e-11
-4.17786e-10
-2.72627e-11
-4.06517e-10
-3.48507e-11
-3.9431e-10
-2.85802e-11
-3.81894e-10
-3.85521e-11
-3.68826e-10
-3.29955e-11
-3.55666e-10
-4.12224e-11
-3.43207e-10
-3.02526e-11
-3.30891e-10
-3.92854e-11
-3.1897e-10
-3.07652e-11
-3.07531e-10
-3.78734e-11
-2.96605e-10
-2.67192e-11
-2.8621e-10
-3.38168e-11
-2.76111e-10
-2.49494e-11
-2.66276e-10
-3.27861e-11
-2.56491e-10
-2.36251e-11
-2.46571e-10
-3.24576e-11
-2.36523e-10
-2.49109e-11
-2.261e-10
-3.37545e-11
-2.15575e-10
-2.59874e-11
-2.04877e-10
-3.44718e-11
-1.94279e-10
-2.65546e-11
-1.84027e-10
-3.44986e-11
-1.74243e-10
-2.65476e-11
-1.6535e-10
-2.96662e-11
-1.5753e-10
-2.09075e-11
-1.51033e-10
-2.33536e-11
-1.46094e-10
-1.40155e-11
-1.42756e-10
-1.50269e-11
-1.41239e-10
-7.23581e-12
-1.41433e-10
-7.28045e-12
-1.43438e-10
2.18136e-12
-1.47133e-10
1.49759e-12
-1.52348e-10
8.64781e-12
-1.58953e-10
8.72488e-12
-1.66544e-10
1.56413e-11
-1.74919e-10
1.33002e-11
-1.83283e-10
1.65328e-11
-1.91358e-10
1.3145e-11
-1.97761e-10
1.27401e-11
-2.02117e-10
3.61697e-12
-2.02064e-10
-3.67274e-12
-1.97449e-10
-1.79724e-11
-1.83519e-10
-3.87687e-11
-1.62421e-10
-5.60053e-11
-1.22812e-10
-1.01287e-10
-7.12404e-11
-1.30532e-10
2.23953e-11
-2.37715e-10
1.37004e-10
-2.87105e-10
4.41017e-10
-7.54641e-10
7.13242e-10
-6.98167e-10
-1.27055e-07
2.9402e-08
2.6853e-08
-6.4244e-08
-2.5923e-08
2.99117e-08
-8.57311e-09
3.8082e-08
-2.33567e-08
4.44479e-08
-1.82044e-08
4.23388e-08
6.43755e-09
3.5245e-08
2.05796e-08
3.33668e-08
5.11746e-09
3.13073e-08
5.85826e-09
2.83124e-08
8.50863e-09
2.58303e-08
6.99879e-09
2.33069e-08
7.1215e-09
2.11668e-08
6.01173e-09
1.90829e-08
5.85669e-09
1.73686e-08
4.80251e-09
1.57187e-08
4.6266e-09
1.42715e-08
4.05033e-09
1.29733e-08
3.63186e-09
1.17271e-08
3.48559e-09
1.06709e-08
2.95132e-09
9.6659e-09
2.8075e-09
8.71852e-09
2.64655e-09
7.88877e-09
2.31533e-09
7.08737e-09
2.23786e-09
6.34768e-09
2.06666e-09
5.67833e-09
1.86277e-09
5.0302e-09
1.80893e-09
4.44353e-09
1.63087e-09
3.89946e-09
1.51536e-09
3.37579e-09
1.45912e-09
2.91261e-09
1.28923e-09
2.47596e-09
1.21452e-09
2.06592e-09
1.14002e-09
1.70247e-09
1.00933e-09
1.36312e-09
9.42374e-10
1.05624e-09
8.53563e-10
7.84575e-10
7.48285e-10
5.36488e-10
6.91351e-10
3.21809e-10
5.90884e-10
1.33394e-10
5.20296e-10
-3.09857e-11
4.53313e-10
-1.67464e-10
3.75399e-10
-2.83232e-10
3.18411e-10
-3.76785e-10
2.56343e-10
-4.50896e-10
2.05942e-10
-5.08127e-10
1.50541e-10
-5.49003e-10
1.16222e-10
-5.76879e-10
6.67667e-11
-5.92777e-10
4.55685e-11
-5.98701e-10
3.02433e-12
-5.96015e-10
-1.28106e-11
-5.85817e-10
-3.52652e-11
-5.70081e-10
-4.41217e-11
-5.54811e-10
-5.19927e-11
-5.38243e-10
-4.6274e-11
-5.21363e-10
-5.79439e-11
-5.03586e-10
-5.2219e-11
-4.85672e-10
-6.15099e-11
-4.68701e-10
-4.82451e-11
-4.51918e-10
-5.85125e-11
-4.35667e-10
-4.8569e-11
-4.20071e-10
-5.61727e-11
-4.05166e-10
-4.26688e-11
-3.90983e-10
-5.03599e-11
-3.772e-10
-3.98175e-11
-3.63778e-10
-4.86446e-11
-3.50418e-10
-3.7966e-11
-3.36879e-10
-4.83543e-11
-3.23162e-10
-3.97453e-11
-3.08942e-10
-5.03674e-11
-2.94578e-10
-4.15068e-11
-2.79987e-10
-5.16258e-11
-2.6553e-10
-4.21412e-11
-2.51554e-10
-5.13747e-11
-2.38214e-10
-4.15799e-11
-2.261e-10
-4.43515e-11
-2.15441e-10
-3.28791e-11
-2.06594e-10
-3.46551e-11
-1.99867e-10
-2.21313e-11
-1.95328e-10
-2.19415e-11
-1.93266e-10
-1.10237e-11
-1.9354e-10
-9.23767e-12
-1.96275e-10
3.4162e-12
-2.01319e-10
4.16971e-12
-2.08426e-10
1.39394e-11
-2.17432e-10
1.54331e-11
-2.27769e-10
2.4553e-11
-2.39176e-10
2.23688e-11
-2.50558e-10
2.62263e-11
-2.61546e-10
2.19388e-11
-2.70243e-10
1.99248e-11
-2.76152e-10
7.10327e-12
-2.76042e-10
-5.48421e-12
-2.6972e-10
-2.66781e-11
-2.50703e-10
-5.95482e-11
-2.21926e-10
-8.64332e-11
-1.67943e-10
-1.56966e-10
-9.76728e-11
-2.02469e-10
2.9863e-11
-3.67768e-10
1.85802e-10
-4.44925e-10
5.98455e-10
-1.16895e-09
9.655e-10
-1.06653e-09
-1.57535e-07
3.14436e-08
3.52364e-08
-6.55935e-08
-3.38957e-08
3.92869e-08
-1.2624e-08
4.98739e-08
-3.39434e-08
5.8144e-08
-2.64748e-08
5.55654e-08
9.01637e-09
4.64668e-08
2.96778e-08
4.39543e-08
7.63006e-09
4.12602e-08
8.55239e-09
3.73616e-08
1.24073e-08
3.41025e-08
1.0258e-08
3.07947e-08
1.04297e-08
2.79783e-08
8.82814e-09
2.52364e-08
8.59879e-09
2.29762e-08
7.06248e-09
2.08007e-08
6.80249e-09
1.88908e-08
5.9601e-09
1.71763e-08
5.34664e-09
1.55305e-08
5.13154e-09
1.41345e-08
4.34757e-09
1.28059e-08
4.13614e-09
1.15535e-08
3.89921e-09
1.04559e-08
3.41308e-09
9.39593e-09
3.29816e-09
8.41739e-09
3.04579e-09
7.53148e-09
2.7485e-09
6.67378e-09
2.66712e-09
5.89721e-09
2.40686e-09
5.1768e-09
2.23592e-09
4.48344e-09
2.15279e-09
3.86994e-09
1.90302e-09
3.2915e-09
1.79318e-09
2.74828e-09
1.68343e-09
2.26657e-09
1.49122e-09
1.81677e-09
1.39221e-09
1.40991e-09
1.26101e-09
1.04959e-09
1.1079e-09
7.20492e-10
1.02128e-09
4.35605e-10
8.75553e-10
1.85469e-10
7.70393e-10
-3.28342e-11
6.71807e-10
-2.1419e-10
5.56733e-10
-3.68108e-10
4.72798e-10
-4.92589e-10
3.81142e-10
-5.91298e-10
3.05713e-10
-6.67628e-10
2.26526e-10
-7.22265e-10
1.72069e-10
-7.59649e-10
1.03911e-10
-7.81135e-10
6.78259e-11
-7.89376e-10
1.05242e-11
-7.86185e-10
-1.5859e-11
-7.73017e-10
-4.85168e-11
-7.52479e-10
-6.39482e-11
-7.32474e-10
-7.23622e-11
-7.10728e-10
-6.72233e-11
-6.88541e-10
-8.04949e-11
-6.65152e-10
-7.54769e-11
-6.41569e-10
-8.612e-11
-6.19207e-10
-7.04747e-11
-5.97089e-10
-8.16049e-11
-5.75661e-10
-7.01197e-11
-5.55092e-10
-7.79406e-11
-5.35425e-10
-6.21246e-11
-5.16707e-10
-6.9962e-11
-4.98511e-10
-5.79338e-11
-4.80788e-10
-6.73724e-11
-4.63145e-10
-5.53455e-11
-4.45267e-10
-6.70225e-11
-4.27154e-10
-5.7725e-11
-4.08385e-10
-7.00279e-11
-3.89425e-10
-6.02785e-11
-3.70178e-10
-7.15276e-11
-3.51104e-10
-6.14463e-11
-3.32676e-10
-7.04828e-11
-3.1509e-10
-5.93298e-11
-2.99131e-10
-6.10379e-11
-2.85083e-10
-4.71266e-11
-2.73435e-10
-4.68082e-11
-2.64579e-10
-3.10785e-11
-2.58612e-10
-2.8409e-11
-2.55906e-10
-1.42024e-11
-2.56282e-10
-9.94543e-12
-2.59895e-10
6.63772e-12
-2.66554e-10
9.94685e-12
-2.75922e-10
2.26992e-11
-2.87794e-10
2.63046e-11
-3.01408e-10
3.76313e-11
-3.16432e-10
3.65837e-11
-3.31408e-10
4.06143e-11
-3.45861e-10
3.55538e-11
-3.57281e-10
3.09575e-11
-3.65022e-10
1.41379e-11
-3.64823e-10
-6.05677e-12
-3.56437e-10
-3.5711e-11
-3.31329e-10
-8.52987e-11
-2.93361e-10
-1.24934e-10
-2.22209e-10
-2.28671e-10
-1.29609e-10
-2.95669e-10
3.83652e-11
-5.36399e-10
2.43565e-10
-6.50638e-10
7.85079e-10
-1.71109e-09
1.2652e-09
-1.5473e-09
-1.89876e-07
3.36044e-08
4.5134e-08
-6.74583e-08
-4.3259e-08
5.03747e-08
-1.78645e-08
6.37522e-08
-4.73207e-08
7.4236e-08
-3.69589e-08
7.11896e-08
1.20624e-08
5.98193e-08
4.10474e-08
5.65425e-08
1.09064e-08
5.31005e-08
1.19936e-08
4.81509e-08
1.73564e-08
4.39731e-08
1.4435e-08
3.9741e-08
1.46612e-08
3.6122e-08
1.24463e-08
3.25997e-08
1.21198e-08
2.96897e-08
9.97119e-09
2.68883e-08
9.60302e-09
2.44266e-08
8.42088e-09
2.22151e-08
7.55723e-09
2.00921e-08
7.2535e-09
1.82899e-08
6.14883e-09
1.65745e-08
5.85036e-09
1.49574e-08
5.51536e-09
1.35391e-08
4.83025e-09
1.21696e-08
4.66687e-09
1.0905e-08
4.30935e-09
9.75964e-09
3.89236e-09
8.65089e-09
3.77454e-09
7.64671e-09
3.40935e-09
6.71484e-09
3.1665e-09
5.81802e-09
3.04832e-09
5.02419e-09
2.69546e-09
4.2756e-09
2.54019e-09
3.57255e-09
2.38487e-09
2.94884e-09
2.11318e-09
2.36636e-09
1.97315e-09
1.83937e-09
1.78609e-09
1.37246e-09
1.57292e-09
9.45938e-10
1.4464e-09
5.76568e-10
1.24324e-09
2.52113e-10
1.09327e-09
-3.11537e-11
9.53249e-10
-2.66626e-10
7.90714e-10
-4.66586e-10
6.71039e-10
-6.28439e-10
5.41324e-10
-7.56919e-10
4.32305e-10
-8.56409e-10
3.24171e-10
-9.27786e-10
2.42202e-10
-9.76799e-10
1.50398e-10
-1.00519e-09
9.48841e-11
-1.0164e-09
1.88386e-11
-1.01278e-09
-2.15228e-11
-9.96211e-10
-6.7551e-11
-9.70056e-10
-9.18016e-11
-9.44477e-10
-9.99445e-11
-9.16613e-10
-9.67751e-11
-8.88138e-10
-1.11767e-10
-8.58097e-10
-1.07467e-10
-8.27779e-10
-1.19063e-10
-7.99007e-10
-1.00761e-10
-7.70542e-10
-1.12743e-10
-7.4295e-10
-9.97956e-11
-7.16457e-10
-1.07426e-10
-6.91113e-10
-8.89808e-11
-6.66986e-10
-9.67031e-11
-6.43522e-10
-8.29551e-11
-6.20668e-10
-9.29218e-11
-5.97908e-10
-7.95555e-11
-5.74852e-10
-9.26893e-11
-5.51491e-10
-8.26735e-11
-5.27295e-10
-9.68953e-11
-5.02855e-10
-8.63895e-11
-4.78059e-10
-9.91808e-11
-4.53488e-10
-8.7687e-11
-4.29762e-10
-9.7395e-11
-4.07126e-10
-8.41814e-11
-3.86598e-10
-8.44783e-11
-3.68526e-10
-6.69937e-11
-3.53554e-10
-6.45319e-11
-3.42175e-10
-4.43011e-11
-3.34519e-10
-3.87743e-11
-3.31055e-10
-1.98131e-11
-3.31563e-10
-1.19763e-11
-3.36226e-10
9.35997e-12
-3.4481e-10
1.5845e-11
-3.56871e-10
3.25241e-11
-3.72152e-10
3.89546e-11
-3.89659e-10
5.32988e-11
-4.08974e-10
5.32505e-11
-4.28211e-10
5.77773e-11
-4.46767e-10
5.15901e-11
-4.61401e-10
4.36521e-11
-4.71293e-10
2.12624e-11
-4.70959e-10
-8.51463e-12
-4.60088e-10
-4.93414e-11
-4.27711e-10
-1.198e-10
-3.78792e-10
-1.75855e-10
-2.87225e-10
-3.22378e-10
-1.68071e-10
-4.16955e-10
4.79272e-11
-7.55245e-10
3.11584e-10
-9.16568e-10
1.00523e-09
-2.40672e-09
1.61961e-09
-2.16333e-09
-2.24147e-07
3.58881e-08
5.67689e-08
-7.00309e-08
-5.42056e-08
6.34314e-08
-2.45275e-08
8.00124e-08
-6.39015e-08
9.30568e-08
-5.00034e-08
8.95666e-08
1.55527e-08
7.56442e-08
5.49696e-08
7.14527e-08
1.5098e-08
6.71334e-08
1.63129e-08
6.09679e-08
2.35221e-08
5.57092e-08
1.96938e-08
5.03928e-08
1.99781e-08
4.58254e-08
1.70139e-08
4.13811e-08
1.65645e-08
3.77004e-08
1.36519e-08
3.41567e-08
1.31471e-08
3.10392e-08
1.15384e-08
2.82367e-08
1.03601e-08
2.55457e-08
9.94466e-09
2.32596e-08
8.43534e-09
2.10833e-08
8.02687e-09
1.90314e-08
7.56772e-09
1.72304e-08
6.63141e-09
1.54917e-08
6.40619e-09
1.38859e-08
5.91587e-09
1.24305e-08
5.34782e-09
1.1022e-08
5.18374e-09
9.74591e-09
4.68508e-09
8.56131e-09
4.35136e-09
7.42132e-09
4.18873e-09
6.41181e-09
3.70538e-09
5.4597e-09
3.49264e-09
4.56542e-09
3.27947e-09
3.77171e-09
2.90718e-09
3.03036e-09
2.71475e-09
2.35947e-09
2.45767e-09
1.76482e-09
2.16722e-09
1.22148e-09
1.99073e-09
7.50759e-10
1.71411e-09
3.37085e-10
1.50698e-09
-2.42166e-11
1.31484e-09
-3.24755e-10
1.09136e-09
-5.80123e-10
9.27061e-10
-7.87007e-10
7.48651e-10
-9.51417e-10
5.97888e-10
-1.07892e-09
4.51859e-10
-1.17061e-09
3.35232e-10
-1.23381e-09
2.13842e-10
-1.27072e-09
1.32666e-10
-1.28571e-09
3.3558e-11
-1.2818e-09
-2.51871e-11
-1.26136e-09
-8.79623e-11
-1.22868e-09
-1.23674e-10
-1.19657e-09
-1.31961e-10
-1.16151e-09
-1.30867e-10
-1.12562e-09
-1.47516e-10
-1.08771e-09
-1.45179e-10
-1.04943e-09
-1.58038e-10
-1.01307e-09
-1.36983e-10
-9.77076e-10
-1.49378e-10
-9.42172e-10
-1.34843e-10
-9.08647e-10
-1.41876e-10
-8.76561e-10
-1.20775e-10
-8.46004e-10
-1.27847e-10
-8.16276e-10
-1.12599e-10
-7.87316e-10
-1.22643e-10
-7.5847e-10
-1.08049e-10
-7.29252e-10
-1.22384e-10
-6.99651e-10
-1.12103e-10
-6.69004e-10
-1.28183e-10
-6.38053e-10
-1.17043e-10
-6.06669e-10
-1.30872e-10
-5.75576e-10
-1.1905e-10
-5.45569e-10
-1.27696e-10
-5.16949e-10
-1.12862e-10
-4.91014e-10
-1.1087e-10
-4.68182e-10
-8.9958e-11
-4.49283e-10
-8.36024e-11
-4.34926e-10
-5.86592e-11
-4.25282e-10
-4.86448e-11
-4.20933e-10
-2.46044e-11
-4.21608e-10
-1.22001e-11
-4.27525e-10
1.49252e-11
-4.38397e-10
2.60239e-11
-4.5365e-10
4.72176e-11
-4.72971e-10
5.74562e-11
-4.95084e-10
7.49156e-11
-5.19472e-10
7.702e-11
-5.4374e-10
8.15056e-11
-5.67131e-10
7.42809e-11
-5.85545e-10
6.17826e-11
-5.97947e-10
3.31638e-11
-5.97417e-10
-9.30596e-12
-5.83562e-10
-6.36598e-11
-5.42546e-10
-1.61488e-10
-4.80623e-10
-2.38337e-10
-3.64873e-10
-4.38626e-10
-2.14267e-10
-5.68135e-10
5.85395e-11
-1.02845e-09
3.91289e-10
-1.24982e-09
1.26376e-09
-3.27986e-09
2.03696e-09
-2.93719e-09
-2.6041e-07
3.82982e-08
7.03903e-08
-7.34632e-08
-6.69487e-08
7.87447e-08
-3.28816e-08
9.89827e-08
-8.41394e-08
1.14974e-07
-6.59953e-08
1.11094e-07
1.94321e-08
9.43309e-08
7.17324e-08
8.90522e-08
2.03762e-08
8.37081e-08
2.16561e-08
7.61438e-08
3.10858e-08
6.96189e-08
2.62177e-08
6.30358e-08
2.65605e-08
5.73521e-08
2.26968e-08
5.18225e-08
2.20927e-08
4.72311e-08
1.82418e-08
4.28098e-08
1.75674e-08
3.89156e-08
1.54314e-08
3.54123e-08
1.38625e-08
3.20477e-08
1.33079e-08
2.91869e-08
1.12951e-08
2.64628e-08
1.07495e-08
2.38943e-08
1.01351e-08
2.16381e-08
8.8862e-09
1.94601e-08
8.58323e-09
1.74482e-08
7.92655e-09
1.56238e-08
7.17052e-09
1.38583e-08
6.9476e-09
1.22583e-08
6.28316e-09
1.07724e-08
5.83565e-09
9.34261e-09
5.61693e-09
8.07591e-09
4.97038e-09
6.88097e-09
4.68563e-09
5.75855e-09
4.39994e-09
4.76188e-09
3.90173e-09
3.83081e-09
3.64393e-09
2.98801e-09
3.2981e-09
2.24063e-09
2.91244e-09
1.5576e-09
2.6719e-09
9.65602e-10
2.30419e-09
4.45091e-10
2.02558e-09
-9.70973e-12
1.76741e-09
-3.88288e-10
1.46814e-09
-7.10175e-10
1.24681e-09
-9.7119e-10
1.00754e-09
-1.17886e-09
8.03133e-10
-1.34017e-09
6.11005e-10
-1.45646e-09
4.497e-10
-1.53693e-09
2.91472e-10
-1.58432e-09
1.78133e-10
-1.60413e-09
5.02029e-11
-1.60014e-09
-3.17233e-11
-1.57536e-09
-1.15776e-10
-1.53511e-09
-1.66188e-10
-1.49538e-09
-1.73882e-10
-1.45189e-09
-1.7659e-10
-1.40729e-09
-1.9528e-10
-1.36013e-09
-1.94787e-10
-1.31246e-09
-2.0867e-10
-1.26713e-09
-1.84321e-10
-1.22225e-09
-1.97241e-10
-1.17871e-09
-1.81014e-10
-1.13686e-09
-1.87081e-10
-1.09679e-09
-1.62832e-10
-1.05862e-09
-1.68965e-10
-1.02146e-09
-1.51789e-10
-9.85264e-10
-1.61874e-10
-9.49196e-10
-1.46043e-10
-9.12673e-10
-1.61845e-10
-8.7567e-10
-1.51177e-10
-8.37378e-10
-1.69498e-10
-7.98716e-10
-1.57907e-10
-7.59538e-10
-1.73273e-10
-7.20731e-10
-1.60082e-10
-6.83304e-10
-1.68676e-10
-6.47621e-10
-1.51311e-10
-6.15307e-10
-1.46502e-10
-5.86865e-10
-1.2071e-10
-5.63344e-10
-1.10228e-10
-5.45486e-10
-7.88201e-11
-5.33511e-10
-6.37226e-11
-5.28133e-10
-3.2574e-11
-5.2902e-10
-1.4225e-11
-5.36428e-10
1.99223e-11
-5.50011e-10
3.65452e-11
-5.69039e-10
6.35583e-11
-5.93129e-10
7.85191e-11
-6.20673e-10
1.00172e-10
-6.51037e-10
1.04369e-10
-6.81222e-10
1.09198e-10
-7.10291e-10
1.00457e-10
-7.3313e-10
8.2217e-11
-7.4845e-10
4.53178e-11
-7.47643e-10
-1.2696e-11
-7.30216e-10
-8.42729e-11
-6.78963e-10
-2.15302e-10
-6.01652e-10
-3.18074e-10
-4.57355e-10
-5.85552e-10
-2.69626e-10
-7.58496e-10
7.01418e-11
-1.37146e-09
4.84266e-10
-1.66669e-09
1.56613e-09
-4.36411e-09
2.52653e-09
-3.8996e-09
-2.98724e-07
4.08379e-08
8.62761e-08
-7.80254e-08
-8.1723e-08
9.66359e-08
-4.32419e-08
1.21025e-07
-1.08529e-07
1.40393e-07
-8.53633e-08
1.36217e-07
2.36089e-08
1.16321e-07
9.16274e-08
1.0976e-07
2.69379e-08
1.03224e-07
2.81923e-08
9.40588e-08
4.02511e-08
8.60573e-08
3.42196e-08
7.80006e-08
3.46177e-08
7.10076e-08
2.96901e-08
6.42049e-08
2.88958e-08
5.85409e-08
2.3906e-08
5.30853e-08
2.30234e-08
4.82742e-08
2.02427e-08
4.39421e-08
1.81952e-08
3.97808e-08
1.74696e-08
3.62392e-08
1.48374e-08
3.28661e-08
1.41229e-08
2.96853e-08
1.33167e-08
2.68889e-08
1.1683e-08
2.41898e-08
1.12831e-08
2.16958e-08
1.04213e-08
1.9433e-08
9.43376e-09
1.72435e-08
9.13786e-09
1.52586e-08
8.26785e-09
1.34145e-08
7.6802e-09
1.16401e-08
7.39203e-09
1.00674e-08
6.54383e-09
8.58352e-09
6.17015e-09
7.18952e-09
5.79458e-09
5.9511e-09
5.14074e-09
4.79397e-09
4.80143e-09
3.74627e-09
4.34656e-09
2.81671e-09
3.84181e-09
1.96701e-09
3.5227e-09
1.2302e-09
3.04135e-09
5.82033e-10
2.67403e-09
1.54382e-11
2.33455e-09
-4.56547e-10
1.94065e-09
-8.5813e-10
1.64951e-09
-1.18409e-09
1.33425e-09
-1.44376e-09
1.06401e-09
-1.64578e-09
8.13519e-10
-1.79182e-09
5.97119e-10
-1.89327e-09
3.93435e-10
-1.95354e-09
2.393e-10
-1.97947e-09
7.60935e-11
-1.97575e-09
-3.48767e-11
-1.94612e-09
-1.45089e-10
-1.89717e-09
-2.14258e-10
-1.84859e-09
-2.22049e-10
-1.79526e-09
-2.28858e-10
-1.74046e-09
-2.49632e-10
-1.68245e-09
-2.52633e-10
-1.62374e-09
-2.67929e-10
-1.56786e-09
-2.40123e-10
-1.51252e-09
-2.53102e-10
-1.45878e-09
-2.35008e-10
-1.40712e-09
-2.39586e-10
-1.35763e-09
-2.12049e-10
-1.31046e-09
-2.16615e-10
-1.26453e-09
-1.97722e-10
-1.21976e-09
-2.0734e-10
-1.17515e-09
-1.90306e-10
-1.12999e-09
-2.07361e-10
-1.08423e-09
-1.96818e-10
-1.03691e-09
-2.17394e-10
-9.89141e-10
-2.05374e-10
-9.40766e-10
-2.21802e-10
-8.92864e-10
-2.08374e-10
-8.46696e-10
-2.14933e-10
-8.027e-10
-1.95361e-10
-7.62886e-10
-1.86668e-10
-7.27854e-10
-1.55905e-10
-6.9891e-10
-1.39168e-10
-6.76951e-10
-1.00762e-10
-6.62253e-10
-7.85127e-11
-6.55684e-10
-3.96537e-11
-6.56839e-10
-1.39388e-11
-6.66018e-10
2.8685e-11
-6.82803e-10
5.26696e-11
-7.0628e-10
8.64147e-11
-7.35984e-10
1.07432e-10
-7.69912e-10
1.33537e-10
-8.07291e-10
1.4117e-10
-8.44415e-10
1.45726e-10
-8.80128e-10
1.35478e-10
-9.08129e-10
1.09923e-10
-9.26828e-10
6.35709e-11
-9.25636e-10
-1.41528e-11
-9.03943e-10
-1.06387e-10
-8.40598e-10
-2.79257e-10
-7.45133e-10
-4.14029e-10
-5.67246e-10
-7.63995e-10
-3.35838e-10
-9.90561e-10
8.26047e-11
-1.79021e-09
5.92257e-10
-2.17673e-09
1.91839e-09
-5.69086e-09
3.09876e-09
-5.08071e-09
-3.39137e-07
4.35099e-08
1.04734e-07
-8.39653e-08
-9.87853e-08
1.17462e-07
-5.59701e-08
1.46539e-07
-1.37605e-07
1.69756e-07
-1.08581e-07
1.65425e-07
2.79395e-08
1.42115e-07
1.14936e-07
1.34052e-07
3.50005e-08
1.26135e-07
3.61079e-08
1.15149e-07
5.12374e-08
1.05433e-07
4.39343e-08
9.56685e-08
4.43811e-08
8.71457e-08
3.82119e-08
7.88546e-08
3.71852e-08
7.19309e-08
3.08279e-08
6.52599e-08
2.96931e-08
5.9369e-08
2.61321e-08
5.40598e-08
2.35033e-08
4.89584e-08
2.25694e-08
4.46125e-08
1.9182e-08
4.04723e-08
1.82615e-08
3.65675e-08
1.72202e-08
3.31316e-08
1.51172e-08
2.98156e-08
1.45981e-08
2.67508e-08
1.34845e-08
2.39683e-08
1.22144e-08
2.12763e-08
1.18278e-08
1.88349e-08
1.07069e-08
1.65659e-08
9.94739e-09
1.43827e-08
9.57333e-09
1.24466e-08
8.47788e-09
1.06195e-08
7.99494e-09
8.90298e-09
7.50886e-09
7.37715e-09
6.66405e-09
5.95124e-09
6.22506e-09
4.65978e-09
5.63519e-09
3.51333e-09
4.98569e-09
2.46513e-09
4.56854e-09
1.55573e-09
3.94847e-09
7.55304e-10
3.47223e-09
5.52776e-11
3.03192e-09
-5.28315e-10
2.52215e-09
-1.02522e-09
2.14386e-09
-1.42897e-09
1.73536e-09
-1.75104e-09
1.38305e-09
-2.00205e-09
1.0619e-09