/*--------------------------------*- C++ -*----------------------------------*\
| =========                 |                                                 |
| \\      /  F ield         | OpenFOAM: The Open Source CFD Toolbox           |
|  \\    /   O peration     | Version:  5.x                                   |
|   \\  /    A nd           | Web:      www.OpenFOAM.org                      |
|    \\/     M anipulation  |                                                 |
\*---------------------------------------------------------------------------*/
FoamFile
{
    version     2.0;
    format      ascii;
    class       volVectorField;
    location    "2000";
    object      U;
}
// * * * * * * * * * * * * * * * * * * * * * * * * * * * * * * * * * * * * * //

dimensions      [0 1 -1 0 0 0 0];

internalField   nonuniform List<vector> 
107912
(
(3.05616e-08 1.03352e-06 -1.11404e-30)
(1.40109e-08 7.20227e-07 1.06365e-30)
(3.71464e-08 9.32202e-07 3.65134e-27)
(1.11427e-07 1.02121e-06 1.40826e-26)
(3.62327e-07 1.19102e-06 2.20663e-26)
(4.54448e-07 8.54693e-07 4.52243e-26)
(4.23824e-07 7.43604e-07 -2.11657e-28)
(4.75331e-07 7.02715e-07 2.06494e-30)
(4.60306e-07 5.89144e-07 -4.77686e-30)
(4.66297e-07 5.28754e-07 -5.92422e-30)
(4.42522e-07 4.50156e-07 -6.44361e-30)
(4.30628e-07 3.98646e-07 5.24278e-26)
(4.05987e-07 3.44147e-07 9.95172e-26)
(3.87508e-07 3.03496e-07 4.17349e-29)
(3.65415e-07 2.6595e-07 -1.00034e-25)
(3.45303e-07 2.34167e-07 1.01412e-25)
(3.25459e-07 2.06925e-07 1.20093e-29)
(3.06436e-07 1.8271e-07 0)
(2.88177e-07 1.61665e-07 -1.88406e-25)
(2.71587e-07 1.43845e-07 -8.81061e-26)
(2.54956e-07 1.27284e-07 0)
(2.39685e-07 1.1316e-07 0)
(2.25381e-07 1.00662e-07 -7.70462e-26)
(2.11404e-07 8.91843e-08 7.45009e-26)
(1.985e-07 7.93176e-08 7.15044e-26)
(1.86313e-07 7.03834e-08 1.32808e-25)
(1.74483e-07 6.22413e-08 -6.47615e-26)
(1.63634e-07 5.5219e-08 6.09394e-26)
(1.53127e-07 4.87061e-08 -5.65069e-26)
(1.43154e-07 4.28985e-08 -5.54338e-26)
(1.33969e-07 3.78267e-08 5.13438e-26)
(1.24983e-07 3.3084e-08 0)
(1.16519e-07 2.89046e-08 -4.63334e-26)
(1.08615e-07 2.51887e-08 5.13566e-30)
(1.00924e-07 2.17654e-08 -5.02806e-30)
(9.3747e-08 1.8781e-08 8.25117e-31)
(8.69331e-08 1.60791e-08 3.52507e-26)
(8.03817e-08 1.3643e-08 -4.92502e-31)
(7.42805e-08 1.15254e-08 -3.72794e-30)
(6.84016e-08 9.59947e-09 -2.8893e-26)
(6.28472e-08 7.91559e-09 3.41493e-30)
(5.76237e-08 6.43976e-09 0)
(5.2609e-08 5.12737e-09 0)
(4.79136e-08 4.00465e-09 -1.08768e-26)
(4.34301e-08 3.02222e-09 0)
(3.92096e-08 2.18675e-09 -1.86766e-26)
(3.52273e-08 1.48221e-09 -4.25556e-27)
(3.14571e-08 8.90343e-10 -3.94148e-27)
(2.79142e-08 4.10525e-10 0)
(2.45705e-08 2.58809e-11 0)
(2.14266e-08 -2.69461e-10 -1.50048e-27)
(1.84805e-08 -4.83363e-10 -1.32715e-30)
(1.59657e-08 -6.26694e-10 -3.08611e-27)
(1.38064e-08 -6.84211e-10 -2.87913e-27)
(1.1917e-08 -6.9318e-10 -5.38867e-27)
(1.01284e-08 -6.85216e-10 5.03176e-27)
(8.4748e-09 -6.408e-10 -9.34267e-27)
(6.99812e-09 -5.76722e-10 -5.10637e-31)
(5.61919e-09 -5.0429e-10 4.01145e-27)
(4.3446e-09 -4.20451e-10 -3.69476e-27)
(3.16596e-09 -3.29041e-10 0)
(2.063e-09 -2.29113e-10 -6.21059e-27)
(1.04395e-09 -1.23687e-10 3.62026e-31)
(8.76624e-11 -1.26337e-11 5.1069e-27)
(-8.02529e-10 1.02414e-10 2.95952e-31)
(-1.63524e-09 2.20902e-10 -4.0691e-27)
(-2.41622e-09 3.42685e-10 -1.16765e-31)
(-3.14532e-09 4.6571e-10 0)
(-3.82988e-09 5.91516e-10 -2.62389e-27)
(-4.46668e-09 7.17112e-10 0)
(-5.06188e-09 8.42796e-10 -1.71912e-27)
(-5.61182e-09 9.68689e-10 -2.56326e-27)
(-6.11479e-09 1.09072e-09 0)
(-6.57129e-09 1.21156e-09 6.42101e-33)
(-6.96844e-09 1.32517e-09 -6.47094e-33)
(-7.31078e-09 1.43208e-09 1.90569e-32)
(-7.57609e-09 1.52877e-09 -1.67486e-27)
(-7.76351e-09 1.60975e-09 4.99857e-27)
(-7.84855e-09 1.67362e-09 0)
(-7.8184e-09 1.71067e-09 0)
(-7.64498e-09 1.71706e-09 -4.96515e-27)
(-7.30438e-09 1.6819e-09 5.87135e-27)
(-6.75279e-09 1.59303e-09 -6.61379e-27)
(-5.96877e-09 1.4424e-09 -1.1513e-31)
(-4.86009e-09 1.20139e-09 6.00172e-32)
(-3.44697e-09 8.71451e-10 -9.18566e-27)
(-1.51536e-09 3.89886e-10 -1.929e-30)
(7.80979e-10 -2.10904e-10 -5.91781e-33)
(3.95274e-09 -1.07589e-09 8.41277e-32)
(7.46531e-09 -2.07437e-09 1.21624e-26)
(1.25925e-08 -3.57238e-09 0)
(1.77775e-08 -5.15058e-09 1.03453e-31)
(2.62508e-08 -7.76904e-09 -1.53879e-31)
(3.35517e-08 -1.01375e-08 5.08026e-32)
(4.84009e-08 -1.49272e-08 4.93392e-30)
(5.81851e-08 -1.83346e-08 1.0092e-26)
(8.69109e-08 -2.79372e-08 -1.58291e-26)
(1.00114e-07 -3.2876e-08 3.44569e-27)
(1.672e-07 -5.6008e-08 1.26217e-32)
(1.87908e-07 -6.43503e-08 2.41584e-26)
(4.43077e-07 -1.54623e-07 2.07534e-30)
(5.0606e-07 -4.70961e-07 4.73939e-25)
(9.12729e-08 3.15672e-06 0)
(4.16431e-08 2.22135e-06 0)
(1.18261e-07 2.86092e-06 -2.95016e-29)
(3.45605e-07 3.12947e-06 -4.47938e-26)
(1.1061e-06 3.64021e-06 -1.74519e-26)
(1.38985e-06 2.62707e-06 0)
(1.30075e-06 2.28711e-06 -4.57734e-30)
(1.45768e-06 2.15827e-06 -7.13182e-26)
(1.41293e-06 1.81245e-06 -5.21535e-26)
(1.43151e-06 1.626e-06 -1.88387e-29)
(1.35943e-06 1.38556e-06 1.85141e-29)
(1.32304e-06 1.22679e-06 -8.35625e-26)
(1.24785e-06 1.05959e-06 -1.58267e-25)
(1.19118e-06 9.34381e-07 8.49874e-26)
(1.12352e-06 8.18972e-07 -1.93703e-29)
(1.0618e-06 7.21131e-07 0)
(1.0009e-06 6.37295e-07 1.56248e-25)
(9.42484e-07 5.6275e-07 -1.47507e-25)
(8.86404e-07 4.97966e-07 1.50149e-25)
(8.35416e-07 4.43084e-07 1.40357e-25)
(7.84318e-07 3.92106e-07 -1.33864e-25)
(7.37373e-07 3.48605e-07 -1.59992e-29)
(6.93392e-07 3.10113e-07 6.83903e-29)
(6.50427e-07 2.74774e-07 -1.46196e-29)
(6.10743e-07 2.44382e-07 -1.14008e-25)
(5.7326e-07 2.16866e-07 -2.11658e-25)
(5.36883e-07 1.91793e-07 -1.27496e-29)
(5.03511e-07 1.7016e-07 0)
(4.71194e-07 1.50102e-07 1.08378e-29)
(4.40517e-07 1.32215e-07 8.83785e-26)
(4.1226e-07 1.1659e-07 -9.50871e-30)
(3.84618e-07 1.01983e-07 7.66514e-26)
(3.5858e-07 8.91089e-08 1.47738e-25)
(3.34261e-07 7.76612e-08 0)
(3.10602e-07 6.71168e-08 0)
(2.88519e-07 5.79219e-08 6.09531e-26)
(2.67554e-07 4.95981e-08 -2.65118e-31)
(2.47398e-07 4.20933e-08 -5.36219e-26)
(2.28625e-07 3.55682e-08 5.94386e-30)
(2.10536e-07 2.96342e-08 -5.7457e-30)
(1.93445e-07 2.44452e-08 0)
(1.77372e-07 1.98969e-08 -2.00105e-26)
(1.61942e-07 1.58524e-08 2.23873e-31)
(1.47493e-07 1.23915e-08 4.34435e-30)
(1.33696e-07 9.36294e-09 0)
(1.20709e-07 6.78689e-09 1.48866e-26)
(1.08454e-07 4.61405e-09 6.79059e-27)
(9.68518e-08 2.78833e-09 -1.58193e-30)
(8.59488e-08 1.30761e-09 -2.86938e-27)
(7.56585e-08 1.20078e-10 0)
(6.59834e-08 -7.92427e-10 -8.19458e-32)
(5.69162e-08 -1.45401e-09 4.32951e-27)
(4.9177e-08 -1.89766e-09 9.84337e-27)
(4.25326e-08 -2.07753e-09 4.59204e-27)
(3.67159e-08 -2.10784e-09 8.59346e-27)
(3.12112e-08 -2.0853e-09 -1.60483e-26)
(2.61217e-08 -1.95086e-09 7.44786e-27)
(2.15757e-08 -1.75564e-09 0)
(1.73312e-08 -1.53431e-09 6.39571e-27)
(1.34076e-08 -1.27783e-09 -5.89155e-27)
(9.77935e-09 -9.97858e-10 6.33753e-31)
(6.38421e-09 -6.91587e-10 9.90295e-27)
(3.24718e-09 -3.68294e-10 5.7734e-31)
(3.03529e-10 -2.75737e-11 0)
(-2.43676e-09 3.25502e-10 7.31444e-27)
(-5.00007e-09 6.89249e-10 6.49014e-27)
(-7.40409e-09 1.0632e-09 0)
(-9.64838e-09 1.44102e-09 -4.94403e-27)
(-1.17555e-08 1.82743e-09 -4.18544e-27)
(-1.37157e-08 2.21325e-09 0)
(-1.55477e-08 2.59935e-09 -2.74279e-27)
(-1.72404e-08 2.98609e-09 -9.27271e-31)
(-1.87885e-08 3.36096e-09 -1.36016e-27)
(-2.01935e-08 3.73212e-09 3.09506e-32)
(-2.1416e-08 4.08104e-09 0)
(-2.24697e-08 4.40927e-09 -1.32255e-27)
(-2.32865e-08 4.70596e-09 2.66723e-27)
(-2.38636e-08 4.95425e-09 -7.96699e-27)
(-2.41259e-08 5.14975e-09 0)
(-2.40339e-08 5.26263e-09 6.66498e-27)
(-2.35014e-08 5.28098e-09 3.04068e-30)
(-2.24549e-08 5.17129e-09 -3.54306e-30)
(-2.07598e-08 4.89618e-09 1.05465e-26)
(-1.835e-08 4.43067e-09 -1.2018e-26)
(-1.49427e-08 3.68701e-09 1.32091e-26)
(-1.05988e-08 2.66904e-09 -1.16834e-31)
(-4.6629e-09 1.1848e-09 -3.16381e-26)
(2.39619e-09 -6.6775e-10 -1.71473e-26)
(1.21416e-08 -3.33192e-09 0)
(2.29402e-08 -6.41033e-09 -1.53614e-31)
(3.86896e-08 -1.10215e-08 3.04842e-31)
(5.4632e-08 -1.58887e-08 2.05871e-26)
(8.06495e-08 -2.39438e-08 1.6253e-31)
(1.03106e-07 -3.1255e-08 -1.619e-31)
(1.48676e-07 -4.5979e-08 2.4131e-26)
(1.78796e-07 -5.65209e-08 -1.60413e-26)
(2.66892e-07 -8.6021e-08 2.37077e-29)
(3.07577e-07 -1.01384e-07 -2.73086e-27)
(5.13136e-07 -1.72408e-07 -2.95361e-32)
(5.76728e-07 -1.98828e-07 -3.85235e-26)
(1.3546e-06 -4.74484e-07 -2.87668e-29)
(1.34027e-06 -1.48016e-06 -1.14346e-24)
(1.51799e-07 5.41938e-06 -2.98622e-28)
(6.96917e-08 3.84334e-06 -1.53809e-26)
(2.10957e-07 4.92981e-06 -6.1958e-27)
(6.02293e-07 5.38752e-06 2.40276e-26)
(1.89732e-06 6.25296e-06 -1.9047e-26)
(2.38736e-06 4.53461e-06 7.31872e-30)
(2.2413e-06 3.94865e-06 -4.4362e-30)
(2.50969e-06 3.72216e-06 1.53105e-25)
(2.43493e-06 3.12997e-06 1.11921e-25)
(2.467e-06 2.8071e-06 1.66663e-29)
(2.34428e-06 2.39373e-06 0)
(2.28167e-06 2.11911e-06 2.19731e-29)
(2.15281e-06 1.831e-06 3.40256e-25)
(2.05522e-06 1.61456e-06 0)
(1.93884e-06 1.41538e-06 -2.11275e-29)
(1.83253e-06 1.24632e-06 2.09704e-29)
(1.7276e-06 1.10149e-06 -1.68096e-25)
(1.62689e-06 9.72685e-07 1.58696e-25)
(1.5302e-06 8.60747e-07 0)
(1.44224e-06 7.6589e-07 -1.51043e-25)
(1.35411e-06 6.77809e-07 1.44058e-25)
(1.27311e-06 6.02618e-07 1.42044e-25)
(1.1972e-06 5.3609e-07 2.64154e-25)
(1.12307e-06 4.75023e-07 3.11444e-29)
(1.05457e-06 4.22487e-07 -2.99577e-29)
(9.89867e-07 3.74928e-07 1.13896e-25)
(9.27086e-07 3.31599e-07 0)
(8.6947e-07 2.94202e-07 1.26032e-29)
(8.13681e-07 2.59535e-07 -1.19839e-29)
(7.60725e-07 2.28618e-07 -1.1443e-29)
(7.11933e-07 2.01608e-07 -1.52692e-30)
(6.64212e-07 1.76364e-07 -1.64963e-25)
(6.19257e-07 1.5411e-07 -7.94798e-26)
(5.77265e-07 1.34321e-07 -9.11509e-30)
(5.36416e-07 1.16096e-07 8.32262e-30)
(4.98286e-07 1.002e-07 -8.15812e-30)
(4.62083e-07 8.58114e-08 0)
(4.27282e-07 7.28385e-08 6.90262e-30)
(3.94862e-07 6.15573e-08 -1.30643e-29)
(3.63627e-07 5.12991e-08 4.95805e-26)
(3.34115e-07 4.23275e-08 5.60206e-30)
(3.06357e-07 3.44634e-08 2.15246e-26)
(2.79712e-07 2.74702e-08 0)
(2.5476e-07 2.14851e-08 0)
(2.30935e-07 1.62475e-08 -1.71509e-26)
(2.08506e-07 1.17918e-08 4.02301e-30)
(1.87342e-07 8.03294e-09 3.46312e-30)
(1.67306e-07 4.87404e-09 -3.40502e-30)
(1.48476e-07 2.3113e-09 3.09102e-27)
(1.30704e-07 2.55353e-10 -2.84914e-30)
(1.13995e-07 -1.32533e-09 2.57627e-27)
(9.83352e-08 -2.47212e-09 -4.66177e-27)
(8.49695e-08 -3.24159e-09 -5.29492e-27)
(7.34955e-08 -3.55614e-09 4.94014e-27)
(6.3447e-08 -3.61187e-09 9.25071e-27)
(5.39398e-08 -3.57537e-09 8.63663e-27)
(4.51493e-08 -3.34612e-09 0)
(3.7296e-08 -3.01137e-09 7.45459e-27)
(2.99643e-08 -2.63103e-09 -6.8841e-27)
(2.31867e-08 -2.18989e-09 6.34226e-27)
(1.69193e-08 -1.70792e-09 -5.83759e-27)
(1.10548e-08 -1.18043e-09 -1.06599e-26)
(5.63574e-09 -6.23393e-10 1.18525e-30)
(5.51025e-10 -3.61296e-11 8.7673e-27)
(-4.18254e-09 5.7255e-10 -1.57458e-26)
(-8.61032e-09 1.19977e-09 -6.98499e-27)
(-1.27629e-08 1.84466e-09 0)
(-1.66396e-08 2.49631e-09 5.32101e-27)
(-2.02792e-08 3.16281e-09 9.01018e-27)
(-2.36651e-08 3.82832e-09 0)
(-2.68293e-08 4.49433e-09 2.95194e-27)
(-2.97531e-08 5.1614e-09 2.20089e-27)
(-3.24269e-08 5.80797e-09 -1.17462e-30)
(-3.48536e-08 6.44801e-09 1.10875e-32)
(-3.69652e-08 7.0496e-09 -3.47732e-34)
(-3.8785e-08 7.6153e-09 1.4234e-27)
(-4.01961e-08 8.12642e-09 -2.87074e-27)
(-4.11932e-08 8.55375e-09 4.28603e-27)
(-4.1647e-08 8.88971e-09 5.70249e-27)
(-4.14892e-08 9.08271e-09 -7.17324e-27)
(-4.05712e-08 9.11221e-09 8.51757e-27)
(-3.87662e-08 8.9202e-09 -1.00722e-26)
(-3.58421e-08 8.44228e-09 -1.62106e-31)
(-3.16846e-08 7.63486e-09 1.29345e-26)
(-2.58069e-08 6.34713e-09 -1.42163e-26)
(-1.83124e-08 4.58434e-09 -2.30036e-31)
(-8.07355e-09 2.0172e-09 1.70225e-26)
(4.10586e-09 -1.18896e-09 1.84547e-26)
(2.0913e-08 -5.79349e-09 1.44256e-31)
(3.95451e-08 -1.11208e-08 0)
(6.67007e-08 -1.90851e-08 2.19386e-26)
(9.42109e-08 -2.75111e-08 -1.69773e-29)
(1.39055e-07 -4.14131e-08 0)
(1.77818e-07 -5.40844e-08 0)
(2.56327e-07 -7.94747e-08 0)
(3.08346e-07 -9.77932e-08 1.72648e-26)
(4.60034e-07 -1.48621e-07 2.71411e-26)
(5.30348e-07 -1.75485e-07 0)
(8.84025e-07 -2.97763e-07 0)
(9.93532e-07 -3.44845e-07 4.20436e-26)
(2.32733e-06 -8.17007e-07 -4.29081e-26)
(2.24726e-06 -2.51095e-06 -1.19911e-24)
(2.12379e-07 7.82892e-06 3.33515e-28)
(9.80011e-08 5.59576e-06 1.65274e-26)
(3.16933e-07 7.14826e-06 -2.93277e-29)
(8.83821e-07 7.8049e-06 2.00783e-29)
(2.73835e-06 9.03835e-06 0)
(3.45014e-06 6.58726e-06 7.99332e-26)
(3.24959e-06 5.7371e-06 1.24534e-27)
(3.63583e-06 5.40215e-06 -8.2153e-26)
(3.53093e-06 4.54894e-06 -6.00612e-26)
(3.57754e-06 4.07838e-06 0)
(3.40181e-06 3.48037e-06 0)
(3.31118e-06 3.08063e-06 0)
(3.12539e-06 2.66283e-06 -1.82895e-25)
(2.98398e-06 2.34794e-06 0)
(2.81559e-06 2.05864e-06 -2.27066e-29)
(2.66147e-06 1.81279e-06 2.2538e-29)
(2.50934e-06 1.60224e-06 1.80532e-25)
(2.36324e-06 1.41493e-06 2.07379e-29)
(2.22297e-06 1.25215e-06 -1.73523e-25)
(2.09526e-06 1.11417e-06 0)
(1.96736e-06 9.86091e-07 -1.54877e-25)
(1.84974e-06 8.76708e-07 -1.52802e-25)
(1.7395e-06 7.79939e-07 -1.42101e-25)
(1.63186e-06 6.91126e-07 -1.3736e-25)
(1.53237e-06 6.14697e-07 1.59414e-29)
(1.43837e-06 5.45517e-07 -3.33213e-31)
(1.34719e-06 4.82498e-07 1.19438e-25)
(1.26348e-06 4.2809e-07 0)
(1.18243e-06 3.77667e-07 -1.0425e-25)
(1.1055e-06 3.32693e-07 -1.26709e-29)
(1.0346e-06 2.93399e-07 -1.89561e-25)
(9.6527e-07 2.56682e-07 1.77518e-25)
(8.99954e-07 2.24306e-07 -1.06149e-29)
(8.38932e-07 1.95518e-07 7.89946e-26)
(7.79582e-07 1.69008e-07 -1.82372e-29)
(7.24174e-07 1.4588e-07 8.77856e-30)
(6.71564e-07 1.24948e-07 0)
(6.20996e-07 1.06076e-07 7.42788e-30)
(5.73881e-07 8.96611e-08 -7.1754e-30)
(5.28491e-07 7.47369e-08 -8.95633e-30)
(4.85604e-07 6.16827e-08 6.30559e-30)
(4.45264e-07 5.02394e-08 0)
(4.06544e-07 4.00635e-08 0)
(3.7028e-07 3.13529e-08 4.7818e-30)
(3.35656e-07 2.37301e-08 1.84488e-26)
(3.0306e-07 1.72442e-08 0)
(2.72302e-07 1.1772e-08 0)
(2.43182e-07 7.1724e-09 -3.449e-30)
(2.15816e-07 3.43978e-09 2.06949e-31)
(1.89987e-07 4.44423e-10 3.06635e-30)
(1.65702e-07 -1.85974e-09 -2.77279e-27)
(1.42941e-07 -3.53249e-09 5.01508e-27)
(1.23516e-07 -4.65537e-09 -5.6991e-27)
(1.06842e-07 -5.11817e-09 -5.32064e-27)
(9.22332e-08 -5.20407e-09 -1.99097e-26)
(7.84153e-08 -5.15442e-09 9.29821e-27)
(6.56383e-08 -4.8255e-09 -2.1852e-30)
(5.42211e-08 -4.34244e-09 -8.02286e-27)
(4.35636e-08 -3.79231e-09 -8.69449e-31)
(3.37112e-08 -3.1537e-09 6.8681e-32)
(2.46003e-08 -2.45535e-09 6.28262e-27)
(1.60754e-08 -1.69072e-09 0)
(8.19764e-09 -8.82891e-10 -1.04431e-26)
(8.06268e-10 -3.09376e-11 1.15951e-30)
(-6.07483e-09 8.52242e-10 -1.15317e-30)
(-1.25113e-08 1.76254e-09 0)
(-1.85477e-08 2.69859e-09 3.76554e-31)
(-2.4183e-08 3.64457e-09 -7.00001e-31)
(-2.94735e-08 4.61217e-09 1.45663e-30)
(-3.43952e-08 5.57838e-09 0)
(-3.89946e-08 6.54529e-09 0)
(-4.32444e-08 7.51372e-09 2.371e-27)
(-4.71308e-08 8.4523e-09 3.15417e-27)
(-5.06579e-08 9.38122e-09 0)
(-5.37271e-08 1.02542e-08 -5.24312e-30)
(-5.63721e-08 1.10747e-08 -9.32008e-32)
(-5.84235e-08 1.18158e-08 3.08404e-27)
(-5.9873e-08 1.24347e-08 -4.60674e-27)
(-6.05335e-08 1.29205e-08 -6.13733e-27)
(-6.03055e-08 1.3198e-08 7.71302e-27)
(-5.89735e-08 1.32376e-08 9.15934e-27)
(-5.63532e-08 1.29545e-08 1.53666e-31)
(-5.21081e-08 1.22556e-08 0)
(-4.60716e-08 1.10766e-08 0)
(-3.75387e-08 9.1997e-09 0)
(-2.66568e-08 6.63019e-09 0)
(-1.17943e-08 2.89302e-09 2.89078e-31)
(5.88989e-09 -1.77752e-09 -2.93111e-31)
(3.02825e-08 -8.47535e-09 2.11282e-26)
(5.73365e-08 -1.6235e-08 0)
(9.67377e-08 -2.78117e-08 -2.36117e-26)
(1.36687e-07 -4.009e-08 -2.38295e-26)
(2.01728e-07 -6.0281e-08 1.89646e-31)
(2.58033e-07 -7.87677e-08 1.93352e-31)
(3.71845e-07 -1.1561e-07 -1.95842e-31)
(4.47451e-07 -1.4241e-07 9.13303e-32)
(6.67214e-07 -2.16097e-07 -2.91464e-26)
(7.69472e-07 -2.55657e-07 1.2915e-31)
(1.28147e-06 -4.32781e-07 -5.58546e-32)
(1.44011e-06 -5.03477e-07 -4.52504e-26)
(3.36437e-06 -1.18395e-06 1.80629e-31)
(3.21351e-06 -3.61374e-06 1.71949e-24)
(2.7276e-07 1.0393e-05 4.48496e-30)
(1.26561e-07 7.48891e-06 8.8989e-27)
(4.37781e-07 9.52621e-06 7.02626e-27)
(1.19249e-06 1.03917e-05 -2.73859e-26)
(3.63166e-06 1.20058e-05 -5.10197e-30)
(4.58173e-06 8.79546e-06 -8.59497e-26)
(4.33006e-06 7.66191e-06 -1.37168e-27)
(4.84084e-06 7.20649e-06 1.02167e-29)
(4.70594e-06 6.07704e-06 -2.04614e-29)
(4.76823e-06 5.44664e-06 4.23788e-29)
(4.53715e-06 4.65158e-06 -2.28476e-29)
(4.41661e-06 4.11672e-06 1.03171e-25)
(4.17051e-06 3.55984e-06 -4.92211e-29)
(3.98219e-06 3.13873e-06 -1.05167e-25)
(3.75826e-06 2.75249e-06 0)
(3.55293e-06 2.42385e-06 -4.88566e-29)
(3.35022e-06 2.14246e-06 -1.94211e-25)
(3.15542e-06 1.89207e-06 4.45424e-29)
(2.96838e-06 1.67448e-06 1.86699e-25)
(2.79796e-06 1.48997e-06 1.74502e-25)
(2.62734e-06 1.31877e-06 1.66604e-25)
(2.47037e-06 1.17249e-06 0)
(2.32321e-06 1.0431e-06 0)
(2.17954e-06 9.24363e-07 2.95586e-25)
(2.04671e-06 8.22149e-07 -1.41903e-25)
(1.92119e-06 7.29646e-07 0)
(1.79947e-06 6.45388e-07 -2.57041e-25)
(1.68767e-06 5.72622e-07 -1.20924e-25)
(1.57944e-06 5.05202e-07 2.24338e-25)
(1.47671e-06 4.45064e-07 1.10072e-25)
(1.38201e-06 3.92512e-07 1.02003e-25)
(1.28942e-06 3.43419e-07 -9.55193e-26)
(1.20219e-06 3.00123e-07 0)
(1.12068e-06 2.61623e-07 -3.01257e-29)
(1.04141e-06 2.26175e-07 8.03953e-26)
(9.67399e-07 1.95243e-07 9.78873e-30)
(8.97122e-07 1.6725e-07 -7.00185e-26)
(8.29581e-07 1.42011e-07 -6.68059e-26)
(7.66643e-07 1.20056e-07 -7.40698e-30)
(7.06012e-07 1.00097e-07 -5.73972e-26)
(6.48723e-07 8.2636e-08 -6.78557e-30)
(5.94833e-07 6.73292e-08 2.49328e-26)
(5.4311e-07 5.37176e-08 2.33491e-26)
(4.94665e-07 4.2064e-08 0)
(4.48411e-07 3.18657e-08 1.98542e-26)
(4.04866e-07 2.3187e-08 -1.85553e-26)
(3.63775e-07 1.58637e-08 4.01108e-30)
(3.24873e-07 9.70732e-09 -7.65569e-30)
(2.88313e-07 4.70988e-09 -3.57329e-27)
(2.53806e-07 6.98377e-10 0)
(2.21362e-07 -2.38905e-09 5.96836e-27)
(1.90954e-07 -4.6318e-09 -1.07949e-26)
(1.65003e-07 -6.13788e-09 6.13635e-27)
(1.42729e-07 -6.76377e-09 -2.70492e-30)
(1.23207e-07 -6.88515e-09 1.07166e-26)
(1.04747e-07 -6.8233e-09 -1.00046e-26)
(8.76755e-08 -6.38961e-09 0)
(7.24181e-08 -5.74891e-09 0)
(5.81776e-08 -5.01747e-09 0)
(4.50124e-08 -4.16766e-09 1.72141e-30)
(3.28379e-08 -3.23745e-09 -3.30367e-30)
(2.14468e-08 -2.2185e-09 1.57793e-30)
(1.09199e-08 -1.14153e-09 1.12398e-26)
(1.04343e-09 -5.31929e-12 -2.03148e-26)
(-8.15145e-09 1.17274e-09 -1.33794e-30)
(-1.67521e-08 2.38728e-09 0)
(-2.48179e-08 3.63634e-09 0)
(-3.23479e-08 4.89878e-09 0)
(-3.9417e-08 6.19016e-09 -5.22008e-27)
(-4.59932e-08 7.47975e-09 0)
(-5.21385e-08 8.77026e-09 0)
(-5.78166e-08 1.00627e-08 -5.10479e-27)
(-6.30092e-08 1.13153e-08 -1.69791e-27)
(-6.77214e-08 1.25546e-08 0)
(-7.18222e-08 1.37192e-08 1.28198e-29)
(-7.53557e-08 1.48133e-08 -7.5414e-32)
(-7.80967e-08 1.58008e-08 -3.35392e-30)
(-8.00336e-08 1.66248e-08 9.91282e-27)
(-8.0917e-08 1.72704e-08 6.59787e-27)
(-8.06139e-08 1.76372e-08 -8.30147e-27)
(-7.8837e-08 1.76854e-08 -9.8577e-27)
(-7.53401e-08 1.73017e-08 -1.16529e-26)
(-6.9675e-08 1.63618e-08 1.87619e-31)
(-6.1618e-08 1.4779e-08 0)
(-5.02312e-08 1.22638e-08 0)
(-3.57071e-08 8.82034e-09 0)
(-1.58766e-08 3.8188e-09 0)
(7.7259e-09 -2.43633e-09 0)
(4.02656e-08 -1.13926e-08 -2.27395e-26)
(7.6374e-08 -2.17839e-08 0)
(1.2892e-07 -3.72522e-08 3.85534e-31)
(1.82243e-07 -5.37014e-08 -1.87654e-31)
(2.68947e-07 -8.06561e-08 -2.03951e-31)
(3.44122e-07 -1.05454e-07 0)
(4.95758e-07 -1.54589e-07 -2.99816e-26)
(5.96766e-07 -1.90643e-07 3.86208e-31)
(8.89365e-07 -2.88821e-07 3.1369e-26)
(1.02607e-06 -3.42403e-07 -7.25226e-32)
(1.70718e-06 -5.78182e-07 3.5057e-26)
(1.91839e-06 -6.75819e-07 0)
(4.46901e-06 -1.57682e-06 0)
(4.2422e-06 -4.79253e-06 -9.21226e-25)
(3.32475e-07 1.31195e-05 0)
(1.55335e-07 9.53379e-06 -9.55943e-27)
(5.75397e-07 1.20741e-05 -6.06641e-29)
(1.53094e-06 1.31583e-05 2.94186e-26)
(4.57968e-06 1.51648e-05 2.44467e-26)
(5.78564e-06 1.11704e-05 0)
(5.48735e-06 9.73322e-06 1.18594e-29)
(6.12965e-06 9.14406e-06 -1.08905e-29)
(5.9652e-06 7.72254e-06 -2.19106e-29)
(6.04442e-06 6.91918e-06 7.03323e-29)
(5.75571e-06 5.91397e-06 -4.899e-29)
(5.60329e-06 5.23317e-06 -2.21691e-25)
(5.29336e-06 4.52721e-06 2.10495e-25)
(5.05489e-06 3.99149e-06 1.13137e-25)
(4.7717e-06 3.50098e-06 -2.12175e-25)
(4.51153e-06 3.08307e-06 0)
(4.25465e-06 2.72534e-06 0)
(4.0076e-06 2.40692e-06 1.97044e-25)
(3.77038e-06 2.13023e-06 0)
(3.55408e-06 1.89552e-06 -1.87798e-25)
(3.33758e-06 1.67782e-06 -4.3382e-29)
(3.13831e-06 1.49173e-06 4.34937e-29)
(2.95145e-06 1.32714e-06 0)
(2.76905e-06 1.17613e-06 -3.17853e-25)
(2.60036e-06 1.04608e-06 1.52612e-25)
(2.44093e-06 9.28415e-07 3.42043e-29)
(2.28635e-06 8.21249e-07 2.76477e-25)
(2.14433e-06 7.28666e-07 1.3015e-25)
(2.00685e-06 6.4291e-07 -1.20732e-25)
(1.87636e-06 5.66409e-07 -1.18415e-25)
(1.75604e-06 4.99548e-07 2.63979e-29)
(1.63841e-06 4.37104e-07 1.02705e-25)
(1.52759e-06 3.82022e-07 0)
(1.42402e-06 3.33042e-07 -9.14776e-26)
(1.32332e-06 2.87951e-07 -8.64922e-26)
(1.22927e-06 2.48593e-07 0)
(1.13997e-06 2.12981e-07 1.50729e-25)
(1.05416e-06 1.80873e-07 7.18743e-26)
(9.74181e-07 1.52937e-07 0)
(8.9714e-07 1.27543e-07 -1.47525e-29)
(8.24344e-07 1.05325e-07 1.4604e-29)
(7.55861e-07 8.5847e-08 -2.68319e-26)
(6.90138e-07 6.85264e-08 -2.51277e-26)
(6.28574e-07 5.36947e-08 0)
(5.69796e-07 4.07151e-08 -2.13719e-26)
(5.14458e-07 2.96677e-08 1.39786e-31)
(4.6224e-07 2.03444e-08 0)
(4.12803e-07 1.25057e-08 0)
(3.6634e-07 6.14063e-09 3.85312e-27)
(3.22488e-07 1.02996e-09 -3.55168e-30)
(2.81256e-07 -2.9055e-09 -6.42344e-27)
(2.42611e-07 -5.76593e-09 5.80895e-27)
(2.09632e-07 -7.68741e-09 0)
(1.81329e-07 -8.49265e-09 -6.16328e-27)
(1.56513e-07 -8.65554e-09 1.15319e-26)
(1.33051e-07 -8.5826e-09 5.25969e-30)
(1.11355e-07 -8.03889e-09 -2.53134e-30)
(9.19592e-08 -7.2307e-09 2.18559e-30)
(7.38586e-08 -6.3056e-09 -2.17931e-30)
(5.71239e-08 -5.22988e-09 7.90797e-27)
(4.16484e-08 -4.05116e-09 -7.27824e-27)
(2.71695e-08 -2.75946e-09 0)
(1.3788e-08 -1.39358e-09 -1.2099e-26)
(1.23419e-09 4.79911e-11 1.09321e-26)
(-1.04537e-08 1.5429e-09 9.81628e-27)
(-2.13861e-08 3.08451e-09 1.12996e-30)
(-3.16384e-08 4.67013e-09 7.66321e-27)
(-4.12096e-08 6.27294e-09 0)
(-5.01947e-08 7.91259e-09 0)
(-5.85535e-08 9.55004e-09 4.66058e-27)
(-6.63641e-08 1.11886e-08 -2.54165e-31)
(-7.35808e-08 1.28296e-08 2.74766e-27)
(-8.01803e-08 1.44197e-08 0)
(-8.61688e-08 1.59928e-08 -2.79199e-32)
(-9.13807e-08 1.74707e-08 -7.66906e-30)
(-9.58709e-08 1.88584e-08 -8.10553e-32)
(-9.93548e-08 2.01104e-08 -3.56858e-27)
(-1.01816e-07 2.11538e-08 -5.33256e-27)
(-1.0294e-07 2.19698e-08 -4.25076e-30)
(-1.02557e-07 2.24307e-08 -2.99651e-31)
(-1.00301e-07 2.24858e-08 1.05997e-26)
(-9.58618e-08 2.19907e-08 1.25408e-26)
(-8.86698e-08 2.0788e-08 -5.40669e-32)
(-7.84402e-08 1.87661e-08 -1.6097e-26)
(-6.39857e-08 1.55593e-08 -2.82835e-31)
(-4.55457e-08 1.11685e-08 5.99363e-31)
(-2.03771e-08 4.80029e-09 -3.09522e-31)
(9.58795e-09 -3.17004e-09 0)
(5.0877e-08 -1.45635e-08 -2.44462e-26)
(9.6719e-08 -2.78025e-08 -2.59379e-26)
(1.63371e-07 -4.74635e-08 -2.72984e-26)
(2.31075e-07 -6.843e-08 2.7532e-26)
(3.41004e-07 -1.02659e-07 0)
(4.36479e-07 -1.34307e-07 2.23471e-31)
(6.28621e-07 -1.96636e-07 6.45029e-26)
(7.56987e-07 -2.42791e-07 0)
(1.12748e-06 -3.67199e-07 -3.36765e-26)
(1.30132e-06 -4.36277e-07 -3.0843e-27)
(2.16294e-06 -7.34751e-07 -6.79604e-29)
(2.43038e-06 -8.63107e-07 0)
(5.64455e-06 -1.99719e-06 -2.07259e-31)
(5.33759e-06 -6.04849e-06 -4.89564e-25)
(3.90985e-07 1.60164e-05 0)
(1.84305e-07 1.17422e-05 0)
(7.31935e-07 1.48031e-05 -8.04841e-27)
(1.90209e-06 1.61158e-05 4.09267e-29)
(5.58485e-06 1.85255e-05 -5.28416e-26)
(7.06534e-06 1.37238e-05 -5.7696e-30)
(6.72628e-06 1.19619e-05 -1.60307e-30)
(7.50738e-06 1.12243e-05 1.15994e-29)
(7.31424e-06 9.49436e-06 7.30767e-26)
(7.41179e-06 8.5039e-06 0)
(7.06325e-06 7.27468e-06 0)
(6.87689e-06 6.4363e-06 1.19086e-25)
(6.49951e-06 5.57055e-06 -2.26384e-25)
(6.20743e-06 4.91116e-06 -1.21461e-25)
(5.86108e-06 4.3085e-06 2.28313e-25)
(5.54221e-06 3.79434e-06 -2.31431e-25)
(5.22731e-06 3.35432e-06 2.24226e-25)
(4.92424e-06 2.96255e-06 -2.11995e-25)
(4.63322e-06 2.62213e-06 -5.29177e-29)
(4.36762e-06 2.33323e-06 0)
(4.10188e-06 2.06539e-06 4.66501e-29)
(3.85714e-06 1.83633e-06 -9.28202e-29)
(3.62758e-06 1.63376e-06 4.35029e-29)
(3.40357e-06 1.44794e-06 1.70987e-25)
(3.1963e-06 1.28785e-06 3.96815e-29)
(3.00039e-06 1.14303e-06 1.52375e-25)
(2.81048e-06 1.01114e-06 -1.48671e-25)
(2.63593e-06 8.97169e-07 -8.7426e-31)
(2.46697e-06 7.91629e-07 -1.29823e-25)
(2.30662e-06 6.97469e-07 -3.15566e-29)
(2.15871e-06 6.15161e-07 2.84008e-29)
(2.01414e-06 5.38314e-07 -1.106e-25)
(1.87792e-06 4.7051e-07 1.06549e-25)
(1.7506e-06 4.10218e-07 -9.84129e-26)
(1.62682e-06 3.5472e-07 8.11827e-31)
(1.51121e-06 3.06267e-07 4.29529e-29)
(1.40143e-06 2.62431e-07 -8.11079e-26)
(1.29594e-06 2.22908e-07 -7.73717e-26)
(1.19761e-06 1.88514e-07 7.17461e-26)
(1.1029e-06 1.57255e-07 6.64601e-26)
(1.01341e-06 1.29901e-07 -1.50253e-29)
(9.29209e-07 1.05919e-07 6.6301e-31)
(8.4841e-07 8.45941e-08 2.70534e-26)
(7.72717e-07 6.63296e-08 0)
(7.00451e-07 5.03461e-08 1.0932e-29)
(6.32414e-07 3.67396e-08 -1.06258e-29)
(5.68211e-07 2.52552e-08 9.78704e-27)
(5.07427e-07 1.5598e-08 9.08313e-27)
(4.503e-07 7.7541e-09 -3.91884e-30)
(3.96382e-07 1.45426e-09 2.47504e-31)
(3.45685e-07 -3.39943e-09 3.46003e-27)
(2.98168e-07 -6.92932e-09 0)
(2.57621e-07 -9.30108e-09 0)
(2.22826e-07 -1.03036e-08 1.326e-26)
(1.92303e-07 -1.05148e-08 8.02081e-31)
(1.63456e-07 -1.04322e-08 0)
(1.36778e-07 -9.77312e-09 -1.07619e-26)
(1.12922e-07 -8.78706e-09 2.53597e-30)
(9.06626e-08 -7.65515e-09 -2.16821e-30)
(7.0082e-08 -6.33778e-09 -1.70202e-26)
(5.10495e-08 -4.89272e-09 1.56687e-26)
(3.32438e-08 -3.30844e-09 -1.82807e-30)
(1.67864e-08 -1.63241e-09 1.30212e-26)
(1.34781e-09 1.3724e-10 1.36285e-30)
(-1.30262e-08 1.97266e-09 -1.36393e-30)
(-2.6471e-08 3.86595e-09 1.07535e-30)
(-3.90791e-08 5.81354e-09 -8.24942e-27)
(-5.08497e-08 7.78247e-09 7.14836e-27)
(-6.18991e-08 9.79681e-09 -8.04567e-31)
(-7.21782e-08 1.18085e-08 -5.01561e-27)
(-8.17827e-08 1.38216e-08 0)
(-9.06569e-08 1.58375e-08 0)
(-9.87718e-08 1.77908e-08 0)
(-1.06135e-07 1.97226e-08 3.01631e-32)
(-1.12543e-07 2.15371e-08 -3.03978e-32)
(-1.18064e-07 2.32401e-08 0)
(-1.22348e-07 2.47757e-08 3.83205e-27)
(-1.25374e-07 2.60539e-08 -5.72963e-27)
(-1.26757e-07 2.70516e-08 -7.63765e-27)
(-1.26287e-07 2.76115e-08 -9.5996e-27)
(-1.23518e-07 2.76712e-08 -6.56208e-30)
(-1.18064e-07 2.70527e-08 -1.34837e-26)
(-1.09231e-07 2.55632e-08 0)
(-9.66645e-08 2.30634e-08 8.85631e-30)
(-7.89127e-08 1.91068e-08 0)
(-5.62622e-08 1.36889e-08 2.10902e-26)
(-2.53585e-08 5.84296e-09 0)
(1.14464e-08 -3.98466e-09 3.91948e-31)
(6.21304e-08 -1.80085e-08 2.63101e-26)
(1.18436e-07 -3.43304e-08 2.79155e-26)
(2.00224e-07 -5.85089e-08 2.93811e-26)
(2.83387e-07 -8.43696e-08 -2.96321e-26)
(4.18211e-07 -1.2642e-07 0)
(5.35522e-07 -1.6551e-07 0)
(7.71023e-07 -2.41995e-07 -6.93489e-26)
(9.28854e-07 -2.99184e-07 -2.28415e-26)
(1.38259e-06 -4.51671e-07 7.24389e-26)
(1.59648e-06 -5.37891e-07 1.51832e-28)
(2.65062e-06 -9.03331e-07 -8.09922e-26)
(2.97816e-06 -1.06671e-06 1.11184e-33)
(6.89434e-06 -2.44677e-06 5.69814e-26)
(6.50337e-06 -7.38464e-06 2.1127e-24)
(4.47726e-07 1.90921e-05 0)
(2.13501e-07 1.41266e-05 1.10577e-26)
(9.09783e-07 1.77248e-05 -4.63301e-29)
(2.30908e-06 1.92755e-05 5.22497e-29)
(6.64965e-06 2.2098e-05 -2.49941e-28)
(8.42437e-06 1.64684e-05 1.00172e-25)
(8.05186e-06 1.43595e-05 -2.68777e-29)
(8.97941e-06 1.34574e-05 -2.02463e-29)
(8.75885e-06 1.14021e-05 -7.84977e-26)
(8.87631e-06 1.02093e-05 1.02944e-29)
(8.46585e-06 8.74141e-06 1.12253e-25)
(8.24344e-06 7.73289e-06 -1.27371e-25)
(7.7949e-06 6.69593e-06 0)
(7.44556e-06 5.90311e-06 1.30531e-25)
(7.03193e-06 5.17983e-06 2.44842e-25)
(6.65028e-06 4.56188e-06 2.49089e-25)
(6.27328e-06 4.03316e-06 -2.41163e-25)
(5.91016e-06 3.56228e-06 2.27575e-25)
(5.56143e-06 3.15312e-06 0)
(5.24289e-06 2.80575e-06 5.27234e-29)
(4.92429e-06 2.48383e-06 -5.08108e-29)
(4.6307e-06 2.20839e-06 0)
(4.35525e-06 1.96482e-06 0)
(4.08651e-06 1.74144e-06 0)
(3.83776e-06 1.54893e-06 0)
(3.60259e-06 1.37479e-06 -1.64032e-25)
(3.3747e-06 1.21624e-06 0)
(3.16514e-06 1.07916e-06 0)
(2.96231e-06 9.52273e-07 2.7938e-25)
(2.76981e-06 8.39053e-07 -3.39478e-29)
(2.5922e-06 7.40067e-07 3.05547e-29)
(2.41864e-06 6.47677e-07 1.18882e-25)
(2.25509e-06 5.66139e-07 -1.14624e-25)
(2.10219e-06 4.93634e-07 1.5191e-29)
(1.95358e-06 4.26906e-07 1.00145e-25)
(1.81475e-06 3.68631e-07 2.26816e-29)
(1.68291e-06 3.15917e-07 8.71996e-26)
(1.55624e-06 2.68391e-07 8.32614e-26)
(1.43815e-06 2.27023e-07 -7.71513e-26)
(1.32441e-06 1.89432e-07 -7.15384e-26)
(1.21693e-06 1.56531e-07 -1.69108e-29)
(1.11581e-06 1.27685e-07 1.48184e-29)
(1.01877e-06 1.02036e-07 -1.55717e-29)
(9.27863e-07 8.00628e-08 0)
(8.41072e-07 6.08342e-08 0)
(7.59357e-07 4.44625e-08 4.62654e-26)
(6.82245e-07 3.06423e-08 9.99375e-30)
(6.09241e-07 1.90192e-08 -9.77515e-27)
(5.40627e-07 9.57573e-09 0)
(4.75867e-07 1.98909e-09 0)
(4.14976e-07 -3.85911e-09 0)
(3.57903e-07 -8.1147e-09 0)
(3.09204e-07 -1.09747e-08 7.65015e-27)
(2.67419e-07 -1.21943e-08 -1.42713e-26)
(2.30747e-07 -1.24617e-08 -1.33571e-26)
(1.96099e-07 -1.23711e-08 -1.24741e-26)
(1.64053e-07 -1.15913e-08 1.15793e-26)
(1.35391e-07 -1.04165e-08 -1.07674e-26)
(1.08651e-07 -9.06375e-09 2.3337e-30)
(8.39259e-08 -7.48798e-09 9.158e-27)
(6.10606e-08 -5.75748e-09 -8.43295e-27)
(3.96703e-08 -3.85938e-09 1.5403e-26)
(1.98982e-08 -1.85037e-09 1.62925e-30)
(1.35132e-09 2.71783e-10 -1.61224e-31)
(-1.59171e-08 2.47317e-09 -1.46814e-30)
(-3.20692e-08 4.74463e-09 -1.15756e-30)
(-4.72156e-08 7.08156e-09 1.47537e-31)
(-6.13561e-08 9.44437e-09 -1.53838e-26)
(-7.46295e-08 1.18619e-08 -6.51391e-27)
(-8.69776e-08 1.42764e-08 -5.40267e-27)
(-9.85148e-08 1.66924e-08 4.5487e-31)
(-1.09174e-07 1.91117e-08 -1.31992e-31)
(-1.18922e-07 2.14555e-08 -3.2462e-31)
(-1.27765e-07 2.37731e-08 0)
(-1.35463e-07 2.59493e-08 -6.13198e-32)
(-1.42093e-07 2.79908e-08 6.08377e-32)
(-1.47238e-07 2.98305e-08 -4.98784e-30)
(-1.50873e-07 3.13598e-08 1.23276e-26)
(-1.52534e-07 3.25511e-08 0)
(-1.51972e-07 3.32149e-08 1.03315e-26)