/*--------------------------------*- C++ -*----------------------------------*\
| =========                 |                                                 |
| \\      /  F ield         | OpenFOAM: The Open Source CFD Toolbox           |
|  \\    /   O peration     | Version:  5.x                                   |
|   \\  /    A nd           | Web:      www.OpenFOAM.org                      |
|    \\/     M anipulation  |                                                 |
\*---------------------------------------------------------------------------*/
FoamFile
{
    version     2.0;
    format      ascii;
    class       volVectorField;
    location    "2000";
    object      U;
}
// * * * * * * * * * * * * * * * * * * * * * * * * * * * * * * * * * * * * * //

dimensions      [0 1 -1 0 0 0 0];

internalField   nonuniform List<vector> 
107912
(
(-8.86201e-06 9.13602e-05 -2.20511e-29)
(1.25807e-06 6.3775e-05 2.10538e-29)
(3.4677e-06 8.66906e-05 -4.3201e-25)
(1.02717e-05 9.4154e-05 -1.12342e-24)
(3.03687e-05 9.99616e-05 -2.00838e-23)
(3.27262e-05 6.1592e-05 2.98083e-23)
(2.8094e-05 4.92845e-05 2.13093e-23)
(3.08063e-05 4.55706e-05 2.03116e-28)
(2.63306e-05 3.36969e-05 -2.9731e-27)
(2.51496e-05 2.85208e-05 -2.69779e-27)
(2.1361e-05 2.1723e-05 -2.45221e-27)
(1.90461e-05 1.76258e-05 2.01107e-23)
(1.60115e-05 1.35642e-05 3.60087e-23)
(1.36629e-05 1.06925e-05 3.99544e-27)
(1.13551e-05 8.25565e-06 -3.0946e-23)
(9.30827e-06 6.30412e-06 2.90714e-23)
(7.52419e-06 4.77581e-06 3.35341e-27)
(5.90559e-06 3.51375e-06 0)
(4.50137e-06 2.5183e-06 -4.54785e-23)
(3.32608e-06 1.75539e-06 -2.01749e-23)
(2.24445e-06 1.11475e-06 0)
(1.36701e-06 6.40265e-07 0)
(6.1172e-07 2.68601e-07 -1.53081e-23)
(-3.37412e-08 -1.83104e-08 1.41697e-23)
(-5.48859e-07 -2.23072e-07 1.31211e-23)
(-9.78818e-07 -3.72922e-07 2.34885e-23)
(-1.32177e-06 -4.74351e-07 -1.10951e-23)
(-1.58171e-06 -5.36263e-07 1.01726e-23)
(-1.78583e-06 -5.70265e-07 -9.19197e-24)
(-1.92655e-06 -5.79226e-07 -8.84901e-24)
(-2.02114e-06 -5.72358e-07 8.07163e-24)
(-2.07794e-06 -5.51455e-07 0)
(-2.0968e-06 -5.21328e-07 -7.14476e-24)
(-2.09197e-06 -4.86178e-07 7.89346e-28)
(-2.06301e-06 -4.45751e-07 -7.72809e-28)
(-2.0163e-06 -4.04735e-07 -2.88744e-28)
(-1.95791e-06 -3.6299e-07 5.50036e-24)
(-1.88761e-06 -3.20739e-07 2.22835e-28)
(-1.8114e-06 -2.81509e-07 -6.06617e-28)
(-1.72978e-06 -2.43153e-07 -4.75142e-24)
(-1.64459e-06 -2.07468e-07 5.68672e-28)
(-1.55944e-06 -1.74633e-07 0)
(-1.4732e-06 -1.43895e-07 0)
(-1.3891e-06 -1.16379e-07 -2.02004e-24)
(-1.30735e-06 -9.10889e-08 0)
(-1.22887e-06 -6.87179e-08 -3.76859e-24)
(-1.15459e-06 -4.87001e-08 -9.00269e-25)
(-1.08356e-06 -3.08477e-08 -8.7678e-25)
(-1.01606e-06 -1.49466e-08 0)
(-9.51374e-07 -1.06642e-09 0)
(-8.89118e-07 1.11293e-08 -3.97803e-25)
(-8.29349e-07 2.14671e-08 -3.75913e-28)
(-7.77156e-07 3.07582e-08 -9.32298e-25)
(-7.29226e-07 3.61316e-08 -9.25161e-25)
(-6.8711e-07 4.00018e-08 -1.84575e-24)
(-6.46559e-07 4.36309e-08 1.8382e-24)
(-6.06732e-07 4.5968e-08 -3.65941e-24)
(-5.71893e-07 4.70069e-08 -2.22943e-28)
(-5.38936e-07 4.84671e-08 1.81997e-24)
(-5.08263e-07 4.90104e-08 -1.81389e-24)
(-4.80106e-07 4.99406e-08 0)
(-4.53918e-07 5.00272e-08 -3.61512e-24)
(-4.30421e-07 5.06233e-08 2.20547e-28)
(-4.0912e-07 5.05859e-08 3.60437e-24)
(-3.90035e-07 5.09977e-08 2.20079e-28)
(-3.73626e-07 5.09267e-08 -3.59117e-24)
(-3.5906e-07 5.15698e-08 -1.09663e-28)
(-3.47034e-07 5.16969e-08 0)
(-3.37039e-07 5.2546e-08 -3.57669e-24)
(-3.28932e-07 5.30133e-08 0)
(-3.22949e-07 5.43184e-08 -3.56529e-24)
(-3.18568e-07 5.5171e-08 -7.13654e-24)
(-3.15874e-07 5.70095e-08 0)
(-3.14754e-07 5.83652e-08 1.08185e-28)
(-3.14627e-07 6.03594e-08 -1.09027e-28)
(-3.16031e-07 6.20468e-08 -1.0763e-28)
(-3.17595e-07 6.47402e-08 7.08518e-24)
(-3.20266e-07 6.67588e-08 -1.41341e-23)
(-3.23007e-07 6.929e-08 0)
(-3.25893e-07 7.15858e-08 0)
(-3.28318e-07 7.41178e-08 6.95838e-24)
(-3.30074e-07 7.62858e-08 -7.03881e-24)
(-3.30834e-07 7.84923e-08 6.90405e-24)
(-3.3004e-07 8.00825e-08 1.06457e-28)
(-3.27104e-07 8.13518e-08 -5.24831e-29)
(-3.21901e-07 8.17909e-08 6.91666e-24)
(-3.12786e-07 8.14455e-08 7.01704e-29)
(-3.00784e-07 7.99717e-08 -3.02216e-31)
(-2.81929e-07 7.66729e-08 -5.14395e-29)
(-2.60191e-07 7.22988e-08 -6.82857e-24)
(-2.26191e-07 6.43215e-08 0)
(-1.9078e-07 5.53697e-08 -5.09534e-29)
(-1.31988e-07 3.92239e-08 7.58487e-29)
(-7.90869e-08 2.39805e-08 -2.50806e-29)
(2.44984e-08 -7.51371e-09 5.2279e-29)
(9.84225e-08 -3.10348e-08 -6.54567e-24)
(2.95204e-07 -9.48267e-08 6.40436e-24)
(3.99168e-07 -1.3085e-07 -1.2969e-23)
(8.51203e-07 -2.85053e-07 -2.46159e-29)
(1.01118e-06 -3.46491e-07 6.62504e-24)
(2.85225e-06 -9.95942e-07 -1.39432e-28)
(3.54072e-06 -4.34141e-06 1.64095e-23)
(-1.68079e-05 0.000277918 0)
(3.77596e-06 0.000195981 0)
(1.09787e-05 0.000264719 -5.2454e-27)
(3.15369e-05 0.000287229 3.58831e-24)
(9.22149e-05 0.000304658 1.60353e-23)
(9.99664e-05 0.000189668 0)
(8.62098e-05 0.00015178 -4.74186e-27)
(9.43917e-05 0.000139964 -4.04254e-23)
(8.08894e-05 0.000103963 -3.66976e-23)
(7.726e-05 8.78896e-05 -8.59633e-27)
(6.57368e-05 6.7123e-05 8.44823e-27)
(5.86317e-05 5.44588e-05 -3.20526e-23)
(4.93501e-05 4.19857e-05 -5.73822e-23)
(4.2136e-05 3.31177e-05 2.79406e-23)
(3.50516e-05 2.56062e-05 -6.18953e-27)
(2.87595e-05 1.95796e-05 0)
(2.32705e-05 1.48565e-05 4.24999e-23)
(1.82882e-05 1.09541e-05 -3.75514e-23)
(1.39634e-05 7.87334e-06 3.62495e-23)
(1.03401e-05 5.50903e-06 3.21699e-23)
(7.00616e-06 3.52393e-06 -2.91159e-23)
(4.29817e-06 2.05002e-06 -3.25393e-27)
(1.96675e-06 8.95056e-07 1.06627e-27)
(-2.66463e-08 2.11121e-09 -2.84433e-27)
(-1.6192e-06 -6.37118e-07 -2.09205e-23)
(-2.94915e-06 -1.10594e-06 -3.74453e-23)
(-4.011e-06 -1.42503e-06 -2.22056e-27)
(-4.81699e-06 -1.62127e-06 0)
(-5.45067e-06 -1.73085e-06 1.74698e-27)
(-5.88887e-06 -1.7627e-06 1.4108e-23)
(-6.18453e-06 -1.74508e-06 2.0115e-27)
(-6.36352e-06 -1.6838e-06 1.18987e-23)
(-6.42536e-06 -1.59364e-06 2.27842e-23)
(-6.41371e-06 -1.4875e-06 0)
(-6.32765e-06 -1.36478e-06 0)
(-6.18656e-06 -1.24019e-06 9.43018e-24)
(-6.00909e-06 -1.11278e-06 -2.9385e-29)
(-5.79483e-06 -9.83826e-07 -8.48393e-24)
(-5.56205e-06 -8.63804e-07 9.67291e-28)
(-5.31237e-06 -7.46369e-07 -9.35042e-28)
(-5.05161e-06 -6.3707e-07 0)
(-4.79069e-06 -5.36389e-07 -3.47331e-24)
(-4.5263e-06 -4.42112e-07 1.24745e-29)
(-4.26849e-06 -3.57669e-07 7.92055e-28)
(-4.01766e-06 -2.80153e-07 0)
(-3.77685e-06 -2.11328e-07 3.00383e-24)
(-3.54882e-06 -1.49959e-07 1.43655e-24)
(-3.33071e-06 -9.49952e-08 -3.42971e-28)
(-3.12345e-06 -4.62203e-08 -6.74173e-25)
(-2.92475e-06 -3.50491e-09 0)
(-2.73351e-06 3.39908e-08 -1.79572e-29)
(-2.54988e-06 6.5798e-08 1.22716e-24)
(-2.38953e-06 9.42937e-08 2.97357e-24)
(-2.24233e-06 1.10926e-07 1.47556e-24)
(-2.11284e-06 1.22753e-07 2.94348e-24)
(-1.98819e-06 1.34e-07 -5.86262e-24)
(-1.86588e-06 1.41106e-07 2.9172e-24)
(-1.75879e-06 1.44395e-07 0)
(-1.65749e-06 1.48826e-07 2.90137e-24)
(-1.56319e-06 1.506e-07 -2.89206e-24)
(-1.47664e-06 1.53417e-07 3.52685e-28)
(-1.39615e-06 1.5376e-07 5.76362e-24)
(-1.32394e-06 1.55545e-07 3.5168e-28)
(-1.25844e-06 1.55517e-07 0)
(-1.19974e-06 1.56759e-07 5.74711e-24)
(-1.14928e-06 1.56625e-07 5.72665e-24)
(-1.10452e-06 1.58561e-07 0)
(-1.06752e-06 1.59028e-07 -5.72335e-24)
(-1.03675e-06 1.61624e-07 -5.70336e-24)
(-1.01179e-06 1.63137e-07 0)
(-9.93432e-07 1.67115e-07 -5.68538e-24)
(-9.79924e-07 1.69799e-07 1.26473e-28)
(-9.7163e-07 1.75415e-07 -5.69492e-24)
(-9.68145e-07 1.79638e-07 1.72799e-28)
(-9.67635e-07 1.85739e-07 0)
(-9.71859e-07 1.91003e-07 1.12612e-23)
(-9.76724e-07 1.99248e-07 -1.12979e-23)
(-9.84904e-07 2.05475e-07 2.25381e-23)
(-9.93189e-07 2.13202e-07 0)
(-1.00196e-06 2.20323e-07 -1.12638e-23)
(-1.00943e-06 2.28086e-07 2.86516e-28)
(-1.01478e-06 2.34752e-07 -1.01807e-28)
(-1.01704e-06 2.41497e-07 -1.10093e-23)
(-1.01453e-06 2.46401e-07 1.11261e-23)
(-1.00548e-06 2.50261e-07 -1.09441e-23)
(-9.89428e-07 2.51596e-07 8.3933e-29)
(-9.61352e-07 2.50474e-07 2.17036e-23)
(-9.24392e-07 2.45923e-07 1.09422e-23)
(-8.6645e-07 2.35738e-07 0)
(-7.99574e-07 2.22223e-07 8.27994e-29)
(-6.95108e-07 1.97655e-07 -1.61093e-28)
(-5.86211e-07 1.70017e-07 -1.0691e-23)
(-4.05681e-07 1.20347e-07 -8.0301e-29)
(-2.42993e-07 7.32966e-08 7.99897e-29)
(7.49409e-08 -2.3534e-08 -1.04949e-23)
(3.02337e-07 -9.62527e-08 1.04385e-23)
(9.05844e-07 -2.92292e-07 2.46492e-28)
(1.22592e-06 -4.04136e-07 1.03404e-23)
(2.61103e-06 -8.77633e-07 1.95628e-29)
(3.10228e-06 -1.07223e-06 -1.05644e-23)
(8.70969e-06 -3.05295e-06 -7.8869e-28)
(8.67313e-06 -1.33695e-05 -3.93265e-23)
(-1.0588e-05 0.000475329 1.70688e-24)
(6.41711e-06 0.000338362 -9.10706e-25)
(1.95469e-05 0.00045415 7.44207e-25)
(5.44898e-05 0.000492514 -1.93257e-24)
(0.000157328 0.000522058 1.71652e-23)
(0.000171513 0.000327946 1.09678e-26)
(0.00014853 0.000262345 -5.16343e-27)
(0.000162361 0.000241414 8.69405e-23)
(0.000139515 0.000179981 7.89219e-23)
(0.000133232 0.00015201 9.25518e-27)
(0.000113557 0.000116341 0)
(0.000101309 9.43835e-05 8.21547e-27)
(8.537e-05 7.28663e-05 1.23461e-22)
(7.29292e-05 5.75007e-05 0)
(6.07197e-05 4.45048e-05 -6.3053e-27)
(4.98615e-05 3.40626e-05 6.25842e-27)
(4.03819e-05 2.58745e-05 -4.57227e-23)
(3.17734e-05 1.91069e-05 4.03997e-23)
(2.42973e-05 1.37604e-05 0)
(1.8028e-05 9.65356e-06 -3.46191e-23)
(1.22605e-05 6.20565e-06 3.13333e-23)
(7.57045e-06 3.64106e-06 2.95352e-23)
(3.53189e-06 1.63106e-06 5.25258e-23)
(7.73986e-08 7.51585e-08 5.94526e-27)
(-2.68517e-06 -1.04087e-06 -5.5053e-27)
(-4.99315e-06 -1.86072e-06 2.0154e-23)
(-6.83753e-06 -2.42066e-06 0)
(-8.23925e-06 -2.76697e-06 2.07929e-27)
(-9.34254e-06 -2.96249e-06 -1.97712e-27)
(-1.01076e-05 -3.02282e-06 -1.81408e-27)
(-1.06255e-05 -2.99668e-06 3.97929e-27)
(-1.09412e-05 -2.89455e-06 -2.5611e-23)
(-1.1054e-05 -2.74187e-06 -1.22588e-23)
(-1.1039e-05 -2.56092e-06 -1.40398e-27)
(-1.08952e-05 -2.35104e-06 1.28362e-27)
(-1.06557e-05 -2.13748e-06 -1.25825e-27)
(-1.03526e-05 -1.91872e-06 0)
(-9.98584e-06 -1.6971e-06 1.10201e-27)
(-9.58657e-06 -1.49054e-06 -2.1056e-27)
(-9.15771e-06 -1.28835e-06 8.15569e-24)
(-8.70954e-06 -1.10007e-06 9.58304e-28)
(-8.26073e-06 -9.26525e-07 3.73613e-24)
(-7.80569e-06 -7.6399e-07 0)
(-7.36188e-06 -6.18382e-07 0)
(-6.92988e-06 -4.84643e-07 -3.31473e-24)
(-6.51508e-06 -3.65869e-07 7.94128e-28)
(-6.12214e-06 -2.59903e-07 7.5085e-28)
(-5.7462e-06 -1.65022e-07 -7.38254e-28)
(-5.38897e-06 -8.08048e-08 7.26267e-25)
(-5.04638e-06 -7.02664e-09 -6.88714e-28)
(-4.71663e-06 5.77509e-08 6.83022e-25)
(-4.39996e-06 1.1268e-07 -1.32135e-24)
(-4.12344e-06 1.6184e-07 -1.59955e-24)
(-3.8697e-06 1.90643e-07 1.58738e-24)
(-3.64627e-06 2.11161e-07 3.16835e-24)
(-3.43126e-06 2.30585e-07 3.155e-24)
(-3.22038e-06 2.42894e-07 0)
(-3.03564e-06 2.48643e-07 3.1367e-24)
(-2.86092e-06 2.56339e-07 -3.12294e-24)
(-2.69823e-06 2.59471e-07 3.11331e-24)
(-2.54894e-06 2.64363e-07 -3.1124e-24)
(-2.41012e-06 2.65016e-07 -6.20418e-24)
(-2.28558e-06 2.68134e-07 7.56577e-28)
(-2.1726e-06 2.68159e-07 6.1862e-24)
(-2.07133e-06 2.70346e-07 -1.2371e-23)
(-1.98426e-06 2.70173e-07 -6.16329e-24)
(-1.90709e-06 2.7354e-07 0)
(-1.84325e-06 2.74415e-07 6.15975e-24)
(-1.79012e-06 2.78927e-07 1.22765e-23)
(-1.74705e-06 2.81593e-07 0)
(-1.71542e-06 2.88466e-07 6.11891e-24)
(-1.69209e-06 2.93171e-07 6.12414e-24)
(-1.67777e-06 3.02847e-07 -4.07521e-28)
(-1.67172e-06 3.10206e-07 1.85667e-28)
(-1.67074e-06 3.20743e-07 -3.73783e-28)
(-1.67794e-06 3.29858e-07 -1.21198e-23)
(-1.68638e-06 3.44034e-07 1.21599e-23)
(-1.70047e-06 3.54831e-07 -1.21288e-23)
(-1.71461e-06 3.68151e-07 -1.20646e-23)
(-1.72967e-06 3.80439e-07 1.21228e-23)
(-1.74255e-06 3.93785e-07 -1.19418e-23)
(-1.75173e-06 4.05287e-07 1.20796e-23)
(-1.75556e-06 4.1688e-07 1.81162e-28)
(-1.75116e-06 4.25331e-07 -1.19746e-23)
(-1.73553e-06 4.31925e-07 1.17786e-23)
(-1.70778e-06 4.34194e-07 1.81564e-28)
(-1.65931e-06 4.32176e-07 -1.16798e-23)
(-1.59549e-06 4.24269e-07 -1.17765e-23)
(-1.49558e-06 4.06596e-07 -8.82849e-29)
(-1.38017e-06 3.83182e-07 0)
(-1.20007e-06 3.40707e-07 -1.13595e-23)
(-1.01219e-06 2.92851e-07 -1.656e-28)
(-7.0108e-07 2.07097e-07 0)
(-4.20381e-07 1.25582e-07 0)
(1.27334e-07 -4.14018e-08 0)
(5.19793e-07 -1.67677e-07 -1.12346e-23)
(1.55892e-06 -5.05457e-07 -1.09917e-23)
(2.1116e-06 -7.00732e-07 0)
(4.49479e-06 -1.51592e-06 0)
(5.34082e-06 -1.86271e-06 1.13748e-23)
(1.4952e-05 -5.25302e-06 1.06155e-23)
(1.4284e-05 -2.26263e-05 -4.20659e-23)
(-4.5513e-06 0.000684453 -1.83518e-24)
(9.173e-06 0.000491667 9.79235e-25)
(2.93091e-05 0.000655516 1.61215e-27)
(7.92574e-05 0.000710564 -1.91897e-27)
(0.000225773 0.000752704 0)
(0.000247554 0.000477235 5.4551e-23)
(0.000215319 0.000381635 -3.91954e-23)
(0.000234984 0.00035044 -4.67272e-23)
(0.000202489 0.000262251 -4.24411e-23)
(0.000193338 0.000221287 0)
(0.000165083 0.000169732 0)
(0.000147318 0.000137689 0)
(0.00012429 0.000106449 -6.64143e-23)
(0.000106237 8.40391e-05 0)
(8.85304e-05 6.51138e-05 -6.78423e-27)
(7.2762e-05 4.98845e-05 6.73387e-27)
(5.89843e-05 3.79358e-05 4.92003e-23)
(4.64666e-05 2.80568e-05 5.47143e-27)
(3.559e-05 2.02462e-05 -4.19884e-23)
(2.64602e-05 1.42414e-05 0)
(1.80631e-05 9.20023e-06 -3.37316e-23)
(1.12263e-05 5.44378e-06 -3.17719e-23)
(5.3382e-06 2.49906e-06 -2.8264e-23)
(2.99412e-07 2.16768e-07 -2.61711e-23)
(-3.73421e-06 -1.42355e-06 2.87744e-27)
(-7.10547e-06 -2.6305e-06 -1.51516e-28)
(-9.80202e-06 -3.45769e-06 2.04904e-23)
(-1.18541e-05 -3.97222e-06 0)
(-1.34711e-05 -4.26582e-06 -1.69787e-23)
(-1.45955e-05 -4.36153e-06 -2.04388e-27)
(-1.53593e-05 -4.32999e-06 -2.98223e-23)
(-1.58281e-05 -4.18712e-06 2.75682e-23)
(-1.60012e-05 -3.96975e-06 -1.64325e-27)
(-1.59872e-05 -3.71032e-06 1.21524e-23)
(-1.57853e-05 -3.40834e-06 -2.80904e-27)
(-1.54434e-05 -3.10033e-06 1.35423e-27)
(-1.50082e-05 -2.78423e-06 0)
(-1.448e-05 -2.46381e-06 1.18605e-27)
(-1.39038e-05 -2.16466e-06 -1.14573e-27)
(-1.32841e-05 -1.87171e-06 -2.82375e-28)
(-1.2636e-05 -1.59876e-06 1.05038e-27)
(-1.19864e-05 -1.34704e-06 0)
(-1.13275e-05 -1.11123e-06 0)
(-1.06846e-05 -8.9987e-07 9.05522e-28)
(-1.00585e-05 -7.05738e-07 3.56558e-24)
(-9.45728e-06 -5.33168e-07 0)
(-8.88752e-06 -3.79242e-07 0)
(-8.34227e-06 -2.41339e-07 -7.8791e-28)
(-7.82411e-06 -1.19004e-07 5.50361e-30)
(-7.32708e-06 -1.17384e-08 7.4124e-28)
(-6.84866e-06 8.24335e-08 -7.3514e-25)
(-6.3891e-06 1.62328e-07 1.4215e-24)
(-5.98783e-06 2.33612e-07 -1.72158e-24)
(-5.61975e-06 2.75662e-07 -1.70963e-24)
(-5.29539e-06 3.05547e-07 -6.81894e-24)
(-4.98332e-06 3.33847e-07 3.39657e-24)
(-4.67735e-06 3.51747e-07 -8.25939e-28)
(-4.40918e-06 3.60272e-07 -3.37581e-24)
(-4.15562e-06 3.71451e-07 -4.09894e-28)
(-3.91949e-06 3.76176e-07 6.66973e-31)
(-3.70285e-06 3.8327e-07 3.34968e-24)
(-3.5014e-06 3.84397e-07 0)
(-3.32069e-06 3.88902e-07 -6.6713e-24)
(-3.15674e-06 3.89128e-07 1.30071e-28)
(-3.00979e-06 3.92308e-07 -6.00699e-29)
(-2.88344e-06 3.92235e-07 0)
(-2.77151e-06 3.97099e-07 4.04664e-28)
(-2.67887e-06 3.98541e-07 -8.09297e-28)
(-2.60176e-06 4.051e-07 4.57362e-28)
(-2.53924e-06 4.09134e-07 0)
(-2.4934e-06 4.19071e-07 0)
(-2.45952e-06 4.26087e-07 6.59127e-24)
(-2.43876e-06 4.40035e-07 1.3192e-23)
(-2.42996e-06 4.50891e-07 0)
(-2.42848e-06 4.66155e-07 -6.59314e-24)
(-2.43884e-06 4.79538e-07 7.96263e-28)
(-2.45115e-06 4.99983e-07 -1.30873e-23)
(-2.47157e-06 5.15779e-07 1.30534e-23)
(-2.49199e-06 5.35074e-07 1.29846e-23)
(-2.51376e-06 5.52967e-07 -1.30473e-23)
(-2.53246e-06 5.72298e-07 -1.28529e-23)
(-2.54574e-06 5.89009e-07 -1.9872e-28)
(-2.55124e-06 6.05757e-07 0)
(-2.5448e-06 6.18043e-07 0)
(-2.5221e-06 6.2752e-07 0)
(-2.48177e-06 6.30794e-07 0)
(-2.41141e-06 6.2772e-07 -1.91277e-28)
(-2.31875e-06 6.1619e-07 1.93945e-28)
(-2.1738e-06 5.90407e-07 -1.24166e-23)
(-2.00626e-06 5.56271e-07 0)
(-1.74507e-06 4.9449e-07 1.22257e-23)
(-1.47235e-06 4.24754e-07 1.23844e-23)
(-1.02129e-06 3.00206e-07 -9.36018e-29)
(-6.13821e-07 1.81361e-07 -9.20094e-29)
(1.8002e-07 -6.09078e-08 9.31942e-29)
(7.49946e-07 -2.45463e-07 -4.58492e-29)
(2.25528e-06 -7.35163e-07 1.18309e-23)
(3.05827e-06 -1.02225e-06 -9.07368e-29)
(6.50831e-06 -2.20302e-06 6.81455e-29)
(7.73417e-06 -2.72377e-06 -1.22425e-23)
(2.15959e-05 -7.60699e-06 1.25046e-29)
(2.02665e-05 -3.25013e-05 6.03511e-23)
(-7.19136e-08 0.000905748 2.04347e-29)
(1.20536e-05 0.000656645 5.26113e-25)
(4.03884e-05 0.000869342 -8.80541e-25)
(0.000105966 0.000941923 2.26579e-24)
(0.000297618 0.000997122 -1.14525e-26)
(0.000328313 0.000638374 -5.86399e-23)
(0.000286866 0.000510346 4.21196e-23)
(0.000312545 0.000467596 1.0807e-26)
(0.000270127 0.000351306 -1.14407e-26)
(0.000257877 0.000296153 2.13858e-26)
(0.000220609 0.000227673 -1.05048e-26)
(0.000196929 0.000184685 3.98741e-23)
(0.000166356 0.000142992 -1.70515e-26)
(0.000142279 0.000112945 -3.47652e-23)
(0.000118676 8.76069e-05 0)
(9.76277e-05 6.71855e-05 -1.36958e-26)
(7.92204e-05 5.11535e-05 -5.29276e-23)
(6.24879e-05 3.78936e-05 1.10692e-26)
(4.79413e-05 2.74016e-05 4.51759e-23)
(3.57182e-05 1.93277e-05 4.00866e-23)
(2.44785e-05 1.25499e-05 3.62857e-23)
(1.53158e-05 7.48978e-06 0)
(7.4229e-06 3.52221e-06 0)
(6.65392e-07 4.43107e-07 5.6334e-23)
(-4.74985e-06 -1.77445e-06 -2.60905e-23)
(-9.27782e-06 -3.40889e-06 0)
(-1.2903e-05 -4.53309e-06 -4.41074e-23)
(-1.56658e-05 -5.23648e-06 -2.02206e-23)
(-1.78452e-05 -5.64221e-06 3.65441e-23)
(-1.93651e-05 -5.78154e-06 1.75945e-23)
(-2.04012e-05 -5.74861e-06 1.605e-23)
(-2.10417e-05 -5.56566e-06 -1.48362e-23)
(-2.12858e-05 -5.28171e-06 0)
(-2.12781e-05 -4.94021e-06 -1.14027e-27)
(-2.10184e-05 -4.54111e-06 1.23676e-23)
(-2.05706e-05 -4.133e-06 1.49992e-27)
(-1.99967e-05 -3.71329e-06 -1.0934e-23)
(-1.92977e-05 -3.28767e-06 -1.05766e-23)
(-1.85338e-05 -2.88949e-06 -1.2059e-27)
(-1.7711e-05 -2.49946e-06 -9.44279e-24)
(-1.68497e-05 -2.1358e-06 -1.13049e-27)
(-1.59858e-05 -1.80023e-06 4.32911e-24)
(-1.51089e-05 -1.48579e-06 4.18424e-24)
(-1.4253e-05 -1.20376e-06 0)
(-1.34192e-05 -9.44786e-07 3.83769e-24)
(-1.26181e-05 -7.14283e-07 -3.74518e-24)
(-1.18589e-05 -5.08786e-07 8.69735e-28)
(-1.1132e-05 -3.2452e-07 -1.70315e-27)
(-1.04413e-05 -1.61209e-07 -8.39653e-25)
(-9.7785e-06 -1.78374e-08 0)
(-9.1405e-06 1.08002e-07 1.58238e-24)
(-8.52753e-06 2.14868e-07 -3.05979e-24)
(-7.99232e-06 3.09787e-07 1.8537e-24)
(-7.50156e-06 3.66268e-07 -8.96831e-28)
(-7.06879e-06 4.0626e-07 3.67027e-24)
(-6.6525e-06 4.44198e-07 -3.65457e-24)
(-6.24448e-06 4.68104e-07 0)
(-5.8867e-06 4.79774e-07 0)
(-5.54853e-06 4.94658e-07 0)
(-5.23358e-06 5.01256e-07 8.79747e-28)
(-4.94466e-06 5.10676e-07 -1.76e-27)
(-4.67602e-06 5.12491e-07 8.77917e-28)
(-4.43508e-06 5.18429e-07 7.18033e-24)
(-4.21647e-06 5.19048e-07 -1.43317e-23)
(-4.02057e-06 5.23265e-07 -6.91124e-29)
(-3.85209e-06 5.23477e-07 0)
(-3.70292e-06 5.29903e-07 0)
(-3.5794e-06 5.32116e-07 0)
(-3.47663e-06 5.4086e-07 -7.11007e-24)
(-3.39328e-06 5.46525e-07 0)
(-3.33223e-06 5.59694e-07 0)
(-3.28706e-06 5.69381e-07 -1.41874e-23)
(-3.25943e-06 5.87806e-07 -7.09875e-24)
(-3.24769e-06 6.0258e-07 0)
(-3.24575e-06 6.22878e-07 1.41909e-23)
(-3.25947e-06 6.4101e-07 4.27933e-28)
(-3.27598e-06 6.68062e-07 -1.12488e-28)
(-3.30319e-06 6.89353e-07 -2.80986e-23)
(-3.33037e-06 7.1504e-07 -1.39743e-23)
(-3.35935e-06 7.39025e-07 1.40426e-23)
(-3.38428e-06 7.64763e-07 1.38328e-23)
(-3.40195e-06 7.87109e-07 1.39934e-23)
(-3.40927e-06 8.09339e-07 -2.09851e-28)
(-3.40064e-06 8.25784e-07 0)
(-3.37038e-06 8.38301e-07 0)
(-3.31653e-06 8.42672e-07 0)
(-3.22271e-06 8.38373e-07 0)
(-3.09909e-06 8.22943e-07 0)
(-2.90588e-06 7.88392e-07 1.33636e-23)
(-2.68239e-06 7.42652e-07 0)
(-2.33432e-06 6.60078e-07 -2.00216e-28)
(-1.97055e-06 5.66676e-07 1.02655e-28)
(-1.36959e-06 4.00459e-07 1.00743e-28)
(-8.26005e-07 2.41191e-07 0)
(2.3129e-07 -8.18231e-08 1.30858e-23)
(9.91946e-07 -3.29786e-07 -1.98092e-28)
(2.99592e-06 -9.82231e-07 -1.27331e-23)
(4.06819e-06 -1.37036e-06 4.86494e-29)
(8.65782e-06 -2.94206e-06 -1.26475e-23)
(1.02903e-05 -3.6613e-06 0)
(2.86591e-05 -1.01235e-05 0)
(2.66424e-05 -4.30259e-05 -3.24367e-23)
(3.77372e-06 0.00113957 0)
(1.5068e-05 0.000834092 -5.65555e-25)
(5.29327e-05 0.00109614 -6.89153e-27)
(0.000134759 0.00118712 -2.43349e-24)
(0.000372899 0.00125581 -2.11392e-23)
(0.000414 0.000812258 0)
(0.000363472 0.000649235 1.26447e-26)
(0.000395334 0.000593478 -1.16118e-26)
(0.000342759 0.000447728 -1.22976e-26)
(0.000327168 0.000377082 3.44821e-26)
(0.000280449 0.000290583 -2.25889e-26)
(0.000250429 0.000235713 -8.57759e-23)
(0.000211836 0.000182784 7.6839e-23)
(0.000181292 0.000144452 3.74008e-23)
(0.000151369 0.000112177 -6.60802e-23)
(0.000124643 8.61218e-05 0)
(0.000101249 6.56534e-05 0)
(7.99717e-05 4.87175e-05 5.03505e-23)
(6.14631e-05 3.53057e-05 0)
(4.58939e-05 2.49743e-05 -4.31412e-23)
(3.15806e-05 1.6302e-05 -9.24753e-27)
(1.98966e-05 9.81469e-06 9.27134e-27)
(9.82948e-06 4.72666e-06 0)
(1.2064e-06 7.72552e-07 -6.06148e-23)
(-5.71162e-06 -2.08131e-06 2.80593e-23)
(-1.14988e-05 -4.18848e-06 5.96825e-27)
(-1.61368e-05 -5.64314e-06 4.74652e-23)
(-1.96768e-05 -6.55891e-06 2.17634e-23)
(-2.24726e-05 -7.09293e-06 -1.96709e-23)
(-2.44284e-05 -7.28564e-06 -1.89279e-23)
(-2.57664e-05 -7.25634e-06 4.1298e-27)
(-2.65996e-05 -7.03465e-06 1.59629e-23)
(-2.69272e-05 -6.68258e-06 0)
(-2.69325e-05 -6.25553e-06 -1.40765e-23)
(-2.66161e-05 -5.75429e-06 -1.33055e-23)
(-2.60589e-05 -5.24018e-06 0)
(-2.53397e-05 -4.71036e-06 2.35403e-23)
(-2.44606e-05 -4.17276e-06 1.1379e-23)
(-2.34978e-05 -3.66878e-06 0)
(-2.24591e-05 -3.17492e-06 -2.45814e-27)
(-2.13707e-05 -2.71413e-06 2.43341e-27)
(-2.0278e-05 -2.28866e-06 -4.65885e-24)
(-1.91682e-05 -1.88987e-06 -4.50297e-24)
(-1.80845e-05 -1.53191e-06 0)
(-1.70283e-05 -1.20329e-06 -4.13107e-24)
(-1.60134e-05 -9.1046e-07 -3.47191e-28)
(-1.5051e-05 -6.49457e-07 0)
(-1.41296e-05 -4.15278e-07 0)
(-1.32537e-05 -2.0787e-07 9.05407e-25)
(-1.24131e-05 -2.55916e-08 -8.58613e-28)
(-1.16039e-05 1.34365e-07 -1.70306e-24)
(-1.08262e-05 2.7035e-07 1.64654e-24)
(-1.01473e-05 3.90573e-07 0)
(-9.52489e-06 4.62726e-07 -1.98048e-24)
(-8.9757e-06 5.13664e-07 3.94922e-24)
(-8.44755e-06 5.62035e-07 1.92132e-27)
(-7.93005e-06 5.9244e-07 -9.56712e-28)
(-7.47606e-06 6.07633e-07 9.53951e-28)
(-7.04711e-06 6.26501e-07 -9.51209e-28)
(-6.6476e-06 6.35259e-07 3.88092e-24)
(-6.28118e-06 6.47179e-07 -3.87958e-24)
(-5.94049e-06 6.49902e-07 0)
(-5.635e-06 6.57364e-07 -7.72741e-24)
(-5.35781e-06 6.58572e-07 7.71198e-24)
(-5.10949e-06 6.63914e-07 7.70982e-24)
(-4.89588e-06 6.64601e-07 9.38667e-28)
(-4.70687e-06 6.72699e-07 7.68457e-24)
(-4.55032e-06 6.75899e-07 0)
(-4.4201e-06 6.8701e-07 0)
(-4.31447e-06 6.94588e-07 7.67004e-24)
(-4.23719e-06 7.11205e-07 -4.65884e-28)
(-4.17994e-06 7.23947e-07 7.63436e-24)
(-4.14503e-06 7.47094e-07 0)
(-4.13017e-06 7.66241e-07 -4.6292e-28)
(-4.1278e-06 7.91934e-07 -7.63596e-24)
(-4.14514e-06 8.15326e-07 4.60566e-28)
(-4.16621e-06 8.49364e-07 1.51585e-23)
(-4.20072e-06 8.76679e-07 1.51208e-23)
(-4.23519e-06 9.09239e-07 -2.71424e-28)
(-4.27191e-06 9.3982e-07 4.60413e-28)
(-4.30357e-06 9.72447e-07 -1.48891e-23)
(-4.32596e-06 1.00088e-06 -1.50598e-23)
(-4.33526e-06 1.02895e-06 -1.87327e-30)
(-4.32429e-06 1.0499e-06 1.49288e-23)
(-4.28594e-06 1.06564e-06 2.23545e-28)
(-4.21761e-06 1.07121e-06 -4.51612e-28)
(-4.09868e-06 1.06551e-06 2.22772e-28)
(-3.94187e-06 1.04588e-06 0)
(-3.69696e-06 1.00186e-06 1.43834e-23)
(-3.41347e-06 9.43578e-07 1.46121e-23)
(-2.97236e-06 8.38618e-07 1.41628e-23)
(-2.51094e-06 7.19633e-07 -1.43464e-23)
(-1.74953e-06 5.08673e-07 0)
(-1.05987e-06 3.05632e-07 -1.06587e-28)
(2.79247e-07 -1.03938e-07 -2.81678e-23)
(1.24481e-06 -4.20903e-07 0)
(3.78173e-06 -1.24757e-06 1.37052e-23)
(5.14365e-06 -1.74699e-06 1.38805e-23)
(1.09497e-05 -3.73648e-06 -8.37714e-28)
(1.30173e-05 -4.68207e-06 0)
(3.61591e-05 -1.28116e-05 -1.44676e-29)
(3.34426e-05 -5.42091e-05 -1.73986e-23)
(7.23002e-06 0.00138627 0)
(1.8226e-05 0.00102483 0)
(6.71062e-05 0.0013364 1.02281e-24)
(0.00016579 0.00144664 -8.96188e-27)
(0.000451632 0.00152925 4.53869e-23)
(0.000504813 0.00099983 -1.39043e-28)
(0.00044544 0.000799113 1.37422e-28)
(0.000483652 0.000728723 1.24748e-26)
(0.000420735 0.000552148 5.26723e-23)
(0.000401544 0.000464592 0)
(0.00034494 0.000358921 0)
(0.000308133 0.000291153 4.61274e-23)
(0.00026102 0.000226144 -8.26387e-23)
(0.00022354 0.000178823 -4.02887e-23)
(0.000186842 0.00013904 7.11074e-23)
(0.000154012 0.000106869 -6.68294e-23)
(0.000125246 8.15772e-05 6.13165e-23)
(9.90675e-05 6.0642e-05 -5.41714e-23)
(7.6281e-05 4.40481e-05 -1.31764e-26)
(5.7091e-05 3.1252e-05 0)
(3.94529e-05 2.05111e-05 9.95201e-27)
(2.50346e-05 1.24596e-05 -1.93733e-26)
(1.26084e-05 6.14295e-06 8.87599e-27)
(1.95913e-06 1.22686e-06 3.26175e-23)
(-6.59456e-06 -2.32932e-06 7.17434e-27)
(-1.37536e-05 -4.95993e-06 2.70329e-23)
(-1.9497e-05 -6.78286e-06 -2.553e-23)
(-2.38879e-05 -7.93774e-06 -2.95163e-28)
(-2.73599e-05 -8.61871e-06 -2.11715e-23)
(-2.97965e-05 -8.87635e-06 -5.09638e-27)
(-3.14697e-05 -8.85692e-06 4.4448e-27)
(-3.25196e-05 -8.5986e-06 -1.71899e-23)
(-3.29455e-05 -8.17734e-06 1.64581e-23)
(-3.29718e-05 -7.66146e-06 -1.51527e-23)
(-3.26007e-05 -7.05302e-06 1.14786e-28)
(-3.19312e-05 -6.42686e-06 6.65521e-27)
(-3.10604e-05 -5.78013e-06 -1.26686e-23)
(-2.99915e-05 -5.12347e-06 -1.22543e-23)
(-2.88182e-05 -4.50653e-06 1.15707e-23)
(-2.75501e-05 -3.9017e-06 1.09391e-23)
(-2.622e-05 -3.33696e-06 -2.57157e-27)
(-2.48834e-05 -2.81514e-06 4.16282e-29)
(-2.3525e-05 -2.32586e-06 4.84918e-24)
(-2.21978e-05 -1.88637e-06 0)
(-2.09038e-05 -1.48292e-06 2.15861e-27)
(-1.96599e-05 -1.12305e-06 -2.53485e-27)
(-1.848e-05 -8.02306e-07 2.07092e-24)
(-1.735e-05 -5.14395e-07 2.02112e-24)
(-1.62755e-05 -2.59528e-07 -9.4741e-28)
(-1.52443e-05 -3.53219e-08 6.09146e-30)
(-1.42514e-05 1.61392e-07 9.17348e-25)
(-1.3297e-05 3.28812e-07 0)
(-1.24638e-05 4.76134e-07 0)
(-1.17002e-05 5.65306e-07 4.26086e-24)
(-1.1026e-05 6.2811e-07 1.23532e-28)
(-1.03779e-05 6.87773e-07 0)
(-9.74294e-06 7.25223e-07 -4.21405e-24)
(-9.18569e-06 7.44363e-07 1.0286e-27)
(-8.65939e-06 7.67529e-07 -1.02198e-27)
(-8.16921e-06 7.78768e-07 -8.35259e-24)
(-7.71973e-06 7.93387e-07 8.35169e-24)
(-7.30184e-06 7.9727e-07 -1.01691e-27)
(-6.92721e-06 8.06376e-07 8.31644e-24)
(-6.5873e-06 8.08398e-07 1.01271e-27)
(-6.28289e-06 8.1498e-07 -1.01351e-27)
(-6.02098e-06 8.16362e-07 1.00899e-27)
(-5.78938e-06 8.26272e-07 -8.27241e-24)
(-5.5975e-06 8.30703e-07 8.26691e-24)
(-5.43799e-06 8.44398e-07 -1.00593e-27)
(-5.30855e-06 8.54205e-07 -8.25428e-24)
(-5.21398e-06 8.74519e-07 0)
(-5.14385e-06 8.90744e-07 0)
(-5.10124e-06 9.18893e-07 0)
(-5.08309e-06 9.42912e-07 4.98216e-28)
(-5.08035e-06 9.74408e-07 -5.02092e-28)
(-5.1016e-06 1.00361e-06 0)
(-5.12763e-06 1.04505e-06 -1.63145e-23)
(-5.16999e-06 1.07897e-06 1.62729e-23)
(-5.21233e-06 1.11894e-06 1.61865e-23)
(-5.2574e-06 1.15666e-06 1.62658e-23)
(-5.29629e-06 1.19669e-06 1.83393e-28)
(-5.32378e-06 1.23171e-06 1.62086e-23)
(-5.33525e-06 1.26603e-06 0)
(-5.32179e-06 1.29185e-06 2.70861e-28)
(-5.27483e-06 1.311e-06 0)
(-5.19097e-06 1.31788e-06 -1.5929e-23)
(-5.0452e-06 1.3106e-06 0)
(-4.85282e-06 1.28644e-06 -2.40413e-28)
(-4.55258e-06 1.23222e-06 -1.54801e-23)
(-4.20478e-06 1.16037e-06 -1.57262e-23)
(-3.66413e-06 1.03133e-06 -1.52433e-23)
(-3.09801e-06 8.84682e-07 1.54407e-23)
(-2.16498e-06 6.25711e-07 0)
(-1.31862e-06 3.75251e-07 0)
(3.21772e-07 -1.27056e-07 3.03172e-23)
(1.50737e-06 -5.19134e-07 1.50785e-23)
(4.61355e-06 -1.5322e-06 -2.95016e-23)
(6.28692e-06 -2.15428e-06 1.48439e-27)
(1.33904e-05 -4.58996e-06 2.9303e-23)
(1.59236e-05 -5.79362e-06 2.82891e-29)
(4.41128e-05 -1.56811e-05 -1.42543e-23)
(4.06933e-05 -6.60733e-05 7.4944e-23)
(1.01733e-05 0.00164614 0)
(2.15407e-05 0.00122971 6.51896e-25)
(8.30841e-05 0.00159059 4.65243e-27)
(0.000199217 0.00172094 -5.24676e-27)
(0.000533811 0.00181787 -6.15648e-26)
(0.000600938 0.00120207 7.21551e-23)
(0.000533085 0.000960855 -2.91759e-26)
(0.000577806 0.000874015 -2.01038e-27)
(0.000504425 0.000665251 -5.6588e-23)
(0.000481364 0.000559248 -1.15041e-29)
(0.000414446 0.000433189 5.19241e-23)
(0.000370379 0.000351421 -4.95849e-23)
(0.000314226 0.000273426 0)
(0.000269307 0.000216348 4.32959e-23)
(0.000225352 0.000168438 7.64976e-23)
(0.00018596 0.000129622 7.19277e-23)
(0.000151408 9.90849e-05 -6.59489e-23)
(0.000119942 7.37954e-05 5.82858e-23)
(9.25357e-05 5.37311e-05 0)
(6.94263e-05 3.82413e-05 1.18329e-26)
(4.81904e-05 2.52396e-05 -1.14037e-26)
(3.08052e-05 1.54724e-05 0)
(1.58179e-05 7.80682e-06 0)
(2.96678e-06 1.83186e-06 0)
(-7.36845e-06 -2.5005e-06 0)
(-1.60232e-05 -5.71153e-06 -2.91009e-23)
(-2.29743e-05 -7.94544e-06 0)
(-2.82975e-05 -9.36997e-06 0)
(-3.25122e-05 -1.02194e-05 4.55723e-23)
(-3.54798e-05 -1.05556e-05 -5.4851e-27)
(-3.75258e-05 -1.05537e-05 4.78381e-27)
(-3.88195e-05 -1.02619e-05 1.84914e-23)
(-3.93607e-05 -9.77095e-06 -1.77055e-23)
(-3.94178e-05 -9.16325e-06 -3.11383e-27)
(-3.89951e-05 -8.44265e-06 1.542e-23)
(-3.82113e-05 -7.69824e-06 3.52844e-27)
(-3.71828e-05 -6.92762e-06 1.36268e-23)
(-3.59145e-05 -6.14442e-06 1.31871e-23)
(-3.45186e-05 -5.40701e-06 -1.24423e-23)
(-3.30073e-05 -4.68367e-06 -1.17749e-23)
(-3.14201e-05 -4.0077e-06 -2.81871e-27)
(-2.98235e-05 -3.38266e-06 2.61385e-27)
(-2.82e-05 -2.79637e-06 -2.04719e-27)
(-2.66127e-05 -2.26933e-06 0)
(-2.50643e-05 -1.78549e-06 0)
(-2.35755e-05 -1.35353e-06 9.34042e-24)
(-2.21626e-05 -9.68472e-07 2.30302e-27)
(-2.08092e-05 -6.22736e-07 -2.17511e-24)
(-1.9522e-05 -3.16772e-07 0)
(-1.82864e-05 -4.73924e-08 0)
(-1.70965e-05 1.88927e-07 0)
(-1.59525e-05 3.90266e-07 0)
(-1.49537e-05 5.66658e-07 2.31101e-24)
(-1.40388e-05 6.74277e-07 -4.58583e-24)
(-1.32305e-05 7.49963e-07 -4.57418e-24)
(-1.24535e-05 8.21837e-07 -4.55632e-24)
(-1.16927e-05 8.6696e-07 4.53408e-24)
(-1.10247e-05 8.90493e-07 -4.52964e-24)
(-1.0394e-05 9.18331e-07 1.0999e-27)
(-9.80665e-06 9.32389e-07 4.49412e-24)
(-9.26818e-06 9.49963e-07 -4.49471e-24)
(-8.76762e-06 9.55269e-07 8.96007e-24)
(-8.31897e-06 9.6619e-07 1.09188e-27)
(-7.91195e-06 9.69264e-07 -1.2493e-30)
(-7.54756e-06 9.77249e-07 -1.09079e-27)
(-7.23402e-06 9.79559e-07 -1.08593e-27)
(-6.95692e-06 9.91475e-07 1.20746e-30)
(-6.72731e-06 9.97399e-07 -1.77889e-23)
(-6.53655e-06 1.01395e-06 -8.86259e-24)