/*--------------------------------*- C++ -*----------------------------------*\
| =========                 |                                                 |
| \\      /  F ield         | OpenFOAM: The Open Source CFD Toolbox           |
|  \\    /   O peration     | Version:  5.x                                   |
|   \\  /    A nd           | Web:      www.OpenFOAM.org                      |
|    \\/     M anipulation  |                                                 |
\*---------------------------------------------------------------------------*/
FoamFile
{
    version     2.0;
    format      ascii;
    class       volVectorField;
    location    "2000";
    object      U;
}
// * * * * * * * * * * * * * * * * * * * * * * * * * * * * * * * * * * * * * //

dimensions      [0 1 -1 0 0 0 0];

internalField   nonuniform List<vector> 
107912
(
(2.75726e-05 7.59382e-05 -2.96927e-28)
(1.28572e-06 6.42068e-05 2.8353e-28)
(3.63248e-06 9.02712e-05 7.29264e-25)
(1.17409e-05 0.000107446 8.74767e-25)
(3.68584e-05 0.000121267 -1.04586e-23)
(4.51754e-05 8.50301e-05 2.59744e-23)
(4.22256e-05 7.4104e-05 1.95267e-23)
(4.90947e-05 7.26386e-05 6.92497e-28)
(4.68768e-05 6.00262e-05 -3.55479e-27)
(4.76075e-05 5.40131e-05 -3.94617e-27)
(4.50087e-05 4.58048e-05 -4.25626e-27)
(4.33944e-05 4.01863e-05 3.32283e-23)
(4.07092e-05 3.45189e-05 6.44078e-23)
(3.8348e-05 3.00404e-05 1.26176e-26)
(3.58749e-05 2.61144e-05 -6.31988e-23)
(3.33778e-05 2.2637e-05 6.31995e-23)
(3.10599e-05 1.97481e-05 7.50385e-27)
(2.87518e-05 1.71423e-05 0)
(2.65266e-05 1.48793e-05 -1.17406e-22)
(2.45272e-05 1.29883e-05 -5.48282e-23)
(2.24673e-05 1.12135e-05 0)
(2.0572e-05 9.70883e-06 0)
(1.88046e-05 8.39492e-06 -4.79533e-23)
(1.70286e-05 7.17993e-06 4.63201e-23)
(1.54067e-05 6.15194e-06 4.45562e-23)
(1.38597e-05 5.23167e-06 8.27065e-23)
(1.23425e-05 4.39838e-06 -4.03496e-23)
(1.09663e-05 3.69641e-06 3.80404e-23)
(9.62571e-06 3.05761e-06 -3.52708e-23)
(8.35911e-06 2.50088e-06 -3.46739e-23)
(7.21247e-06 2.03255e-06 3.21971e-23)
(6.09403e-06 1.60931e-06 0)
(5.06817e-06 1.25354e-06 -2.92297e-23)
(4.13455e-06 9.55353e-07 3.26244e-27)
(3.25034e-06 6.9782e-07 -3.19409e-27)
(2.46364e-06 4.90182e-07 -7.15077e-28)
(1.74886e-06 3.20726e-07 2.2828e-23)
(1.10161e-06 1.84087e-07 6.03848e-28)
(5.42711e-07 8.15692e-08 -2.49225e-27)
(4.35175e-08 3.69411e-09 -1.94666e-23)
(-3.80675e-07 -5.01675e-08 2.3221e-27)
(-7.36839e-07 -8.4348e-08 0)
(-1.03665e-06 -1.0291e-07 0)
(-1.27267e-06 -1.079e-07 -8.03835e-24)
(-1.46084e-06 -1.03415e-07 0)
(-1.59804e-06 -9.03741e-08 -1.47533e-23)
(-1.69438e-06 -7.28087e-08 -3.49544e-24)
(-1.75387e-06 -5.07556e-08 -3.38004e-24)
(-1.78107e-06 -2.76038e-08 0)
(-1.78147e-06 -3.0114e-09 0)
(-1.75812e-06 2.09897e-08 -1.50337e-24)
(-1.71364e-06 4.39936e-08 -1.41317e-27)
(-1.66374e-06 6.41848e-08 -3.48834e-24)
(-1.61198e-06 7.90493e-08 -3.44803e-24)
(-1.55816e-06 8.94673e-08 -6.85372e-24)
(-1.50446e-06 1.00927e-07 6.80945e-24)
(-1.44528e-06 1.08079e-07 -1.35141e-23)
(-1.39026e-06 1.13724e-07 -8.1987e-28)
(-1.33674e-06 1.18708e-07 6.6836e-24)
(-1.28364e-06 1.23209e-07 -6.64659e-24)
(-1.23376e-06 1.26668e-07 0)
(-1.18496e-06 1.30195e-07 -1.31912e-23)
(-1.13934e-06 1.32311e-07 8.03921e-28)
(-1.09526e-06 1.34891e-07 1.31022e-23)
(-1.05237e-06 1.35957e-07 7.99358e-28)
(-1.01079e-06 1.37391e-07 -1.302e-23)
(-9.68654e-07 1.37453e-07 -3.97342e-28)
(-9.26524e-07 1.3743e-07 0)
(-8.8373e-07 1.36281e-07 -1.29297e-23)
(-8.39595e-07 1.34923e-07 0)
(-7.9596e-07 1.32182e-07 -1.28838e-23)
(-7.51669e-07 1.2982e-07 -2.57849e-23)
(-7.08958e-07 1.2587e-07 0)
(-6.67941e-07 1.23015e-07 3.91088e-28)
(-6.29614e-07 1.19253e-07 -3.94129e-28)
(-5.95606e-07 1.16746e-07 -3.90368e-28)
(-5.65838e-07 1.13693e-07 2.57155e-23)
(-5.42106e-07 1.12309e-07 -5.13691e-23)
(-5.24072e-07 1.11322e-07 0)
(-5.12646e-07 1.12041e-07 0)
(-5.07824e-07 1.13691e-07 2.54911e-23)
(-5.09221e-07 1.1724e-07 -2.58583e-23)
(-5.17191e-07 1.21664e-07 2.54443e-23)
(-5.30631e-07 1.28221e-07 3.93825e-28)
(-5.49367e-07 1.3557e-07 -1.94521e-28)
(-5.72144e-07 1.45e-07 2.57908e-23)
(-5.97546e-07 1.54462e-07 3.65754e-28)
(-6.25042e-07 1.65658e-07 -1.92671e-31)
(-6.50194e-07 1.75842e-07 -1.9401e-28)
(-6.74599e-07 1.86861e-07 -2.59358e-23)
(-6.88072e-07 1.94438e-07 0)
(-6.97686e-07 2.01619e-07 -1.95998e-28)
(-6.80421e-07 2.00676e-07 2.92209e-28)
(-6.59426e-07 1.98675e-07 -9.69223e-29)
(-5.78972e-07 1.78106e-07 -1.18191e-29)
(-5.10237e-07 1.60259e-07 -2.55462e-23)
(-3.05104e-07 9.77273e-08 2.5212e-23)
(-1.63678e-07 5.27485e-08 -5.07481e-23)
(3.22794e-07 -1.08571e-07 -9.68183e-29)
(5.93124e-07 -2.03841e-07 2.56367e-23)
(2.36787e-06 -8.26983e-07 -1.83219e-28)
(3.14617e-06 -3.8005e-06 5.46191e-23)
(6.1023e-05 0.000231577 0)
(4.08852e-06 0.00019756 0)
(1.16365e-05 0.000275308 -5.71555e-27)
(3.61956e-05 0.000327095 -2.77637e-24)
(0.000111974 0.000368851 8.3609e-24)
(0.000137886 0.000260762 0)
(0.00012935 0.000227305 -4.88752e-27)
(0.000150187 0.000222333 -4.54533e-23)
(0.000143666 0.000184312 -4.66333e-23)
(0.000145925 0.000165756 -1.25699e-26)
(0.000138111 0.000140783 1.23534e-26)
(0.000133199 0.000123525 -5.29604e-23)
(0.000125038 0.000106191 -1.02591e-22)
(0.000117827 9.24407e-05 5.34049e-23)
(0.00011027 8.0395e-05 -1.22111e-26)
(0.00010263 6.97175e-05 0)
(9.55278e-05 6.08382e-05 9.79742e-23)
(8.84537e-05 5.28296e-05 -9.17341e-23)
(8.16299e-05 4.58717e-05 9.35754e-23)
(7.54915e-05 4.00521e-05 8.73964e-23)
(6.91704e-05 3.45941e-05 -8.32522e-23)
(6.33492e-05 2.99618e-05 -9.95918e-27)
(5.79183e-05 2.59161e-05 1.83645e-26)
(5.24628e-05 2.21761e-05 -9.0963e-27)
(4.74765e-05 1.90084e-05 -7.10409e-23)
(4.27199e-05 1.61731e-05 -1.31834e-22)
(3.80559e-05 1.36058e-05 -7.94317e-27)
(3.3822e-05 1.1441e-05 0)
(2.9698e-05 9.47137e-06 6.77275e-27)
(2.5801e-05 7.75399e-06 5.52808e-23)
(2.22711e-05 6.30814e-06 2.84512e-27)
(1.88287e-05 5.00183e-06 4.8158e-23)
(1.56701e-05 3.90268e-06 9.32084e-23)
(1.27944e-05 2.98083e-06 0)
(1.00708e-05 2.18433e-06 0)
(7.6466e-06 1.54142e-06 3.91467e-23)
(5.44339e-06 1.01626e-06 -1.28372e-28)
(3.44799e-06 5.92184e-07 -3.51146e-23)
(1.72404e-06 2.73426e-07 3.97397e-27)
(1.83953e-07 3.07149e-08 -3.84148e-27)
(-1.12549e-06 -1.37909e-07 0)
(-2.22558e-06 -2.45702e-07 -1.40334e-23)
(-3.15191e-06 -3.05057e-07 7.50248e-29)
(-3.88202e-06 -3.22529e-07 3.16469e-27)
(-4.46453e-06 -3.10482e-07 0)
(-4.8901e-06 -2.71884e-07 1.17594e-23)
(-5.18961e-06 -2.19287e-07 5.57764e-24)
(-5.37548e-06 -1.52395e-07 -1.32696e-27)
(-5.46176e-06 -8.22727e-08 -2.58035e-24)
(-5.46522e-06 -7.25538e-09 0)
(-5.39541e-06 6.59466e-08 -5.79609e-29)
(-5.26051e-06 1.36223e-07 4.61259e-24)
(-5.10839e-06 1.97865e-07 1.1126e-23)
(-4.95033e-06 2.43494e-07 5.49936e-24)
(-4.78573e-06 2.75279e-07 1.09299e-23)
(-4.62133e-06 3.10453e-07 -2.17174e-23)
(-4.44007e-06 3.32316e-07 1.07731e-23)
(-4.2714e-06 3.497e-07 0)
(-4.10734e-06 3.64874e-07 1.06549e-23)
(-3.94444e-06 3.78734e-07 -1.05972e-23)
(-3.79132e-06 3.89331e-07 1.28815e-27)
(-3.6416e-06 4.002e-07 2.10306e-23)
(-3.50159e-06 4.06634e-07 1.28191e-27)
(-3.36623e-06 4.14619e-07 0)
(-3.23454e-06 4.17838e-07 2.08573e-23)
(-3.10685e-06 4.22266e-07 2.07622e-23)
(-2.97747e-06 4.22399e-07 0)
(-2.84806e-06 4.22358e-07 -2.07045e-23)
(-2.71667e-06 4.18772e-07 -2.06176e-23)
(-2.58112e-06 4.14598e-07 0)
(-2.44709e-06 4.06146e-07 -2.0545e-23)
(-2.31102e-06 3.98923e-07 5.28791e-28)
(-2.17984e-06 3.86812e-07 -2.05766e-23)
(-2.05386e-06 3.78043e-07 6.24395e-28)
(-1.9362e-06 3.6654e-07 0)
(-1.83176e-06 3.58788e-07 4.08147e-23)
(-1.74025e-06 3.49541e-07 -4.10053e-23)
(-1.66734e-06 3.45324e-07 8.19124e-23)
(-1.61202e-06 3.42391e-07 0)
(-1.57692e-06 3.44602e-07 -4.11457e-23)
(-1.56206e-06 3.49807e-07 7.16748e-28)
(-1.56634e-06 3.60701e-07 -3.17848e-29)
(-1.59078e-06 3.74418e-07 -4.05739e-23)
(-1.63203e-06 3.94538e-07 4.11588e-23)
(-1.68949e-06 4.17262e-07 -4.064e-23)
(-1.75942e-06 4.46176e-07 3.13622e-28)
(-1.83735e-06 4.75347e-07 8.12704e-23)
(-1.92172e-06 5.09645e-07 4.11694e-23)
(-1.99889e-06 5.41011e-07 0)
(-2.07374e-06 5.74687e-07 3.15303e-28)
(-2.11498e-06 5.97972e-07 -6.14967e-28)
(-2.14431e-06 6.19782e-07 -4.10049e-23)
(-2.09121e-06 6.16844e-07 -3.10313e-28)
(-2.02646e-06 6.10342e-07 3.0911e-28)
(-1.77961e-06 5.46979e-07 -4.09059e-23)
(-1.56819e-06 4.91519e-07 4.07373e-23)
(-9.39091e-07 2.99199e-07 1.42052e-28)
(-5.04029e-07 1.59907e-07 4.04621e-23)
(9.86674e-07 -3.35773e-07 7.71595e-29)
(1.81587e-06 -6.33666e-07 -4.08807e-23)
(7.2248e-06 -2.53556e-06 -8.98713e-28)
(7.7404e-06 -1.17605e-05 -1.30712e-22)
(6.30821e-05 0.0003973 -3.82972e-24)
(7.34098e-06 0.000340353 -2.75778e-24)
(2.09676e-05 0.000471795 -1.23926e-24)
(6.28209e-05 0.000559842 1.48507e-24)
(0.00019115 0.000630939 8.92626e-24)
(0.000236351 0.000449259 8.9007e-27)
(0.000222462 0.000391553 -4.59047e-27)
(0.000257919 0.000382363 9.77341e-23)
(0.000247191 0.000317813 1.00269e-22)
(0.000251084 0.0002857 1.23221e-26)
(0.000237894 0.000242959 0)
(0.000229497 0.000213192 1.41019e-26)
(0.00021557 0.000183393 2.20696e-22)
(0.000203202 0.000159682 0)
(0.000190236 0.000138921 -1.32753e-26)
(0.000177113 0.000120506 1.31766e-26)
(0.000164897 0.00010518 -1.05403e-22)
(0.000152724 9.1358e-05 9.86923e-23)
(0.000140977 7.93447e-05 0)
(0.000130398 6.92903e-05 -9.40502e-23)
(0.000119509 5.98658e-05 8.95919e-23)
(0.000109473 5.18599e-05 8.84686e-23)
(0.000100105 4.48678e-05 1.6449e-22)
(9.06984e-05 3.84053e-05 1.93894e-26)
(8.20943e-05 3.29275e-05 -1.86626e-26)
(7.38852e-05 2.80252e-05 7.09503e-23)
(6.58374e-05 2.35861e-05 0)
(5.85268e-05 1.98405e-05 7.87027e-27)
(5.14065e-05 1.64333e-05 -7.48355e-27)
(4.46771e-05 1.34611e-05 -7.16838e-27)
(3.85788e-05 1.09578e-05 9.73485e-27)
(3.26326e-05 8.69637e-06 -1.03651e-22)
(2.71747e-05 6.79218e-06 -5.01477e-23)
(2.22041e-05 5.19457e-06 -5.76379e-27)
(1.74966e-05 3.81379e-06 5.32397e-27)
(1.33047e-05 2.69839e-06 -5.21874e-27)
(9.49424e-06 1.7867e-06 0)
(6.0426e-06 1.04995e-06 4.55035e-27)
(3.05916e-06 4.95295e-07 -8.67258e-27)
(3.93473e-07 7.23999e-08 3.3412e-23)
(-1.8741e-06 -2.22266e-07 3.88609e-27)
(-3.7801e-06 -4.11455e-07 1.50953e-23)
(-5.38553e-06 -5.16621e-07 0)
(-6.65217e-06 -5.49205e-07 0)
(-7.6634e-06 -5.30309e-07 -1.30783e-23)
(-8.40345e-06 -4.65457e-07 3.12115e-27)
(-8.92527e-06 -3.75969e-07 2.90502e-27)
(-9.25051e-06 -2.61682e-07 -2.85629e-27)
(-9.40338e-06 -1.41487e-07 2.77973e-24)
(-9.41277e-06 -1.27062e-08 -2.62727e-27)
(-9.29534e-06 1.13087e-07 2.58125e-24)
(-9.06528e-06 2.3398e-07 -4.96664e-24)
(-8.80481e-06 3.40234e-07 -5.98489e-24)
(-8.53368e-06 4.18836e-07 5.9159e-24)
(-8.25094e-06 4.73702e-07 1.17648e-23)
(-7.96831e-06 5.343e-07 1.16873e-23)
(-7.65656e-06 5.72121e-07 0)
(-7.36629e-06 6.02138e-07 1.15508e-23)
(-7.08387e-06 6.28412e-07 -1.14686e-23)
(-6.80334e-06 6.52334e-07 1.14079e-23)
(-6.53953e-06 6.70724e-07 -1.13787e-23)
(-6.28163e-06 6.89495e-07 -2.26382e-23)
(-6.04037e-06 7.00714e-07 2.75519e-27)
(-5.80708e-06 7.14495e-07 2.24871e-23)
(-5.58007e-06 7.20122e-07 -4.48967e-23)
(-5.35994e-06 7.27747e-07 -2.23453e-23)
(-5.13693e-06 7.28054e-07 0)
(-4.91381e-06 7.27958e-07 2.22832e-23)
(-4.6873e-06 7.21808e-07 4.43794e-23)
(-4.45366e-06 7.14594e-07 0)
(-4.22258e-06 7.00104e-07 2.21117e-23)
(-3.98803e-06 6.87642e-07 2.21269e-23)
(-3.7619e-06 6.66894e-07 -1.44751e-27)
(-3.54476e-06 6.51767e-07 6.71186e-28)
(-3.34201e-06 6.32024e-07 -1.35222e-27)
(-3.16201e-06 6.18724e-07 -4.39265e-23)
(-3.00425e-06 6.03003e-07 4.41337e-23)
(-2.87861e-06 5.95799e-07 -4.40806e-23)
(-2.78333e-06 5.90898e-07 -4.39348e-23)
(-2.72284e-06 5.94794e-07 4.42835e-23)
(-2.69719e-06 6.03932e-07 -4.37468e-23)
(-2.70457e-06 6.22803e-07 4.43763e-23)
(-2.74668e-06 6.46603e-07 6.66573e-28)
(-2.81772e-06 6.8134e-07 -4.42978e-23)
(-2.91666e-06 7.2062e-07 4.37388e-23)
(-3.0371e-06 7.70484e-07 6.75613e-28)
(-3.17131e-06 8.20839e-07 -4.37352e-23)
(-3.31654e-06 8.7989e-07 -4.43083e-23)
(-3.44939e-06 9.33926e-07 -3.32967e-28)
(-3.57816e-06 9.91799e-07 0)
(-3.64902e-06 1.03182e-06 -4.33733e-23)
(-3.69922e-06 1.06905e-06 2.67605e-28)
(-3.60757e-06 1.06374e-06 0)
(-3.49553e-06 1.05188e-06 0)
(-3.07038e-06 9.42377e-07 0)
(-2.70553e-06 8.45602e-07 -4.38443e-23)
(-1.62253e-06 5.13968e-07 -4.327e-23)
(-8.7201e-07 2.71397e-07 0)
(1.69275e-06 -5.82594e-07 0)
(3.11966e-06 -1.10605e-06 4.40036e-23)
(1.23945e-05 -4.36359e-06 4.30321e-23)
(1.27687e-05 -1.99177e-05 -1.4045e-22)
(6.52458e-05 0.000572481 4.12144e-24)
(1.1131e-05 0.000493113 2.96181e-24)
(3.18191e-05 0.000680191 -4.07275e-27)
(9.18136e-05 0.000806144 2.18719e-27)
(0.000274498 0.000907993 0)
(0.000340817 0.000651346 4.74064e-23)
(0.00032191 0.000567579 -3.58644e-23)
(0.000372658 0.000553338 -5.25191e-23)
(0.000357864 0.000461173 -5.39104e-23)
(0.000363512 0.000414407 0)
(0.000344801 0.000352863 0)
(0.000332728 0.000309659 0)
(0.000312738 0.000266553 -1.18702e-22)
(0.000294895 0.000232144 0)
(0.000276178 0.00020203 -1.42796e-26)
(0.000257214 0.000175303 1.41736e-26)
(0.000239533 0.00015304 1.13357e-22)
(0.000221908 0.000132964 1.29639e-26)
(0.000204893 0.000115507 -1.08308e-22)
(0.00018955 0.000100888 0)
(0.000173766 8.71921e-05 -9.6405e-23)
(0.000159205 7.55472e-05 -9.51687e-23)
(0.000145608 6.53768e-05 -8.85024e-23)
(0.000131959 5.59788e-05 -8.54944e-23)
(0.000119465 4.80063e-05 9.93774e-27)
(0.000107543 4.08726e-05 -2.08391e-28)
(9.58564e-05 3.44129e-05 7.4478e-23)
(8.52334e-05 2.89582e-05 0)
(7.48878e-05 2.39976e-05 -6.51195e-23)
(6.51089e-05 1.96687e-05 -7.92175e-27)
(5.62426e-05 1.60207e-05 -1.18927e-22)
(4.75989e-05 1.27259e-05 1.1156e-22)
(3.96622e-05 9.94941e-06 -6.68485e-27)
(3.24317e-05 7.61912e-06 5.00764e-23)
(2.55843e-05 5.60452e-06 -1.16284e-26)
(1.94843e-05 3.97577e-06 5.61644e-27)
(1.3938e-05 2.64363e-06 0)
(8.91331e-06 1.56631e-06 4.89717e-27)
(4.56808e-06 7.53975e-07 -4.73071e-27)
(6.85078e-07 1.3378e-07 -2.34094e-27)
(-2.61964e-06 -2.9963e-07 4.28881e-27)
(-5.39883e-06 -5.79119e-07 0)
(-7.74057e-06 -7.35953e-07 0)
(-9.58997e-06 -7.86906e-07 3.58825e-27)
(-1.10675e-05 -7.62289e-07 1.40681e-23)
(-1.21506e-05 -6.70725e-07 0)
(-1.29158e-05 -5.42689e-07 0)
(-1.33948e-05 -3.78407e-07 -3.02665e-27)
(-1.36228e-05 -2.05063e-07 4.14147e-29)
(-1.36416e-05 -1.90498e-08 2.8276e-27)
(-1.34756e-05 1.6286e-07 -2.77815e-24)
(-1.31456e-05 3.37876e-07 5.34292e-24)
(-1.27704e-05 4.91985e-07 -6.44126e-24)
(-1.23791e-05 6.0595e-07 -6.3715e-24)
(-1.19705e-05 6.85696e-07 -2.53202e-23)
(-1.15617e-05 7.73552e-07 1.25817e-23)
(-1.11106e-05 8.28632e-07 -3.05482e-27)
(-1.06902e-05 8.72259e-07 -1.24314e-23)
(-1.02812e-05 9.10574e-07 -1.5036e-27)
(-9.87469e-06 9.45316e-07 5.80647e-30)
(-9.49223e-06 9.72225e-07 1.22462e-23)
(-9.11839e-06 9.99491e-07 0)
(-8.76857e-06 1.01597e-06 -2.42922e-23)
(-8.43022e-06 1.03598e-06 2.51877e-28)
(-8.10093e-06 1.0443e-06 -1.33529e-28)
(-7.78158e-06 1.05532e-06 0)
(-7.45807e-06 1.0559e-06 1.46459e-27)
(-7.13437e-06 1.05571e-06 -2.92785e-27)
(-6.80574e-06 1.04687e-06 1.56947e-27)
(-6.46687e-06 1.03635e-06 0)
(-6.13169e-06 1.0155e-06 0)
(-5.79155e-06 9.97348e-07 2.38144e-23)
(-5.4636e-06 9.67572e-07 4.76646e-23)
(-5.14877e-06 9.45574e-07 0)
(-4.85478e-06 9.17171e-07 -2.38434e-23)
(-4.59387e-06 8.97899e-07 2.88533e-27)
(-4.36518e-06 8.75529e-07 -4.74995e-23)
(-4.18308e-06 8.65153e-07 4.74409e-23)
(-4.04503e-06 8.58377e-07 4.72852e-23)
(-3.95738e-06 8.64136e-07 -4.766e-23)
(-3.92019e-06 8.77699e-07 -4.70833e-23)
(-3.93093e-06 9.05175e-07 -7.28997e-28)
(-3.99196e-06 9.40007e-07 0)
(-4.09492e-06 9.90428e-07 0)
(-4.23822e-06 1.04764e-06 0)
(-4.41273e-06 1.11991e-06 0)
(-4.60711e-06 1.19312e-06 -7.17945e-28)
(-4.81739e-06 1.27858e-06 7.27961e-28)
(-5.00967e-06 1.35695e-06 -4.69438e-23)
(-5.19594e-06 1.4405e-06 0)
(-5.29826e-06 1.49839e-06 4.6681e-23)
(-5.37044e-06 1.55173e-06 4.74991e-23)
(-5.23722e-06 1.54369e-06 -3.60029e-28)
(-5.07406e-06 1.52542e-06 -3.5738e-28)
(-4.45792e-06 1.36615e-06 3.61982e-28)
(-3.9282e-06 1.22397e-06 -1.79693e-28)
(-2.35978e-06 7.42773e-07 4.65713e-23)
(-1.27072e-06 3.87348e-07 -3.56969e-28)
(2.44169e-06 -8.50572e-07 2.68236e-28)
(4.5071e-06 -1.62525e-06 -4.73601e-23)
(1.78888e-05 -6.32026e-06 4.5613e-29)
(1.81306e-05 -2.8633e-05 2.01534e-22)
(7.04873e-05 0.000757305 1.33803e-27)
(1.55353e-05 0.000656453 1.58885e-24)
(4.4368e-05 0.000900927 1.40775e-24)
(0.000123361 0.00106642 -1.66327e-24)
(0.000362112 0.00120042 -8.38484e-27)
(0.000451549 0.000867863 -5.0961e-23)
(0.000428055 0.000756144 3.85374e-23)
(0.000494772 0.000735892 1.11252e-26)
(0.000476123 0.000615066 -1.52204e-26)
(0.000483656 0.000552475 2.98445e-26)
(0.000459304 0.000471059 -1.53448e-26)
(0.000443359 0.000413429 6.57973e-23)
(0.000417007 0.000356126 -3.15047e-26)
(0.000393357 0.000310232 -6.63676e-23)
(0.000368532 0.000270085 0)
(0.000343349 0.000234429 -3.06125e-26)
(0.000319831 0.000204703 -1.21946e-22)
(0.00029638 0.0001779 2.77774e-26)
(0.000273728 0.000154583 1.16531e-22)
(0.000253277 0.000135043 1.08822e-22)
(0.000232249 0.000116748 1.03704e-22)
(0.000212832 0.000101177 0)
(0.000194692 8.7578e-05 0)
(0.000176489 7.50147e-05 1.84008e-22)
(0.000159812 6.43478e-05 -8.85281e-23)
(0.000143897 5.48048e-05 0)
(0.000128299 4.61634e-05 -1.60306e-22)
(0.00011411 3.88607e-05 -7.55645e-23)
(0.000100293 3.22214e-05 1.4015e-22)
(8.72306e-05 2.64249e-05 6.89076e-23)
(7.53808e-05 2.15377e-05 6.40011e-23)
(6.3831e-05 1.71244e-05 -6.00344e-23)
(5.32218e-05 1.34024e-05 0)
(4.35534e-05 1.02774e-05 -9.48963e-27)
(3.43976e-05 7.57493e-06 5.1245e-23)
(2.62374e-05 5.38816e-06 6.21597e-27)
(1.88164e-05 3.59834e-06 -4.53693e-23)
(1.20922e-05 2.14989e-06 -4.37683e-23)
(6.27429e-06 1.05579e-06 -4.95376e-27)
(1.07447e-06 2.19357e-07 -3.86837e-23)
(-3.35321e-06 -3.6695e-07 -4.61574e-27)
(-7.07876e-06 -7.46746e-07 1.74898e-23)
(-1.02191e-05 -9.61953e-07 1.67828e-23)
(-1.27017e-05 -1.03514e-06 0)
(-1.46866e-05 -1.00625e-06 1.51413e-23)
(-1.61441e-05 -8.87804e-07 -1.46603e-23)
(-1.71761e-05 -7.19579e-07 3.36488e-27)
(-1.78249e-05 -5.02755e-07 -6.56586e-27)
(-1.81376e-05 -2.7303e-07 -3.21354e-24)
(-1.817e-05 -2.62196e-08 0)
(-1.79549e-05 2.15504e-07 5.97988e-24)
(-1.75201e-05 4.48326e-07 -1.15005e-23)
(-1.70236e-05 6.53797e-07 6.93556e-24)
(-1.65048e-05 8.05598e-07 -3.33615e-27)
(-1.59621e-05 9.12203e-07 1.36284e-23)
(-1.54188e-05 1.02922e-06 -1.35374e-23)
(-1.48189e-05 1.103e-06 0)
(-1.42596e-05 1.16123e-06 0)
(-1.3715e-05 1.21265e-06 0)
(-1.31737e-05 1.25898e-06 3.21987e-27)
(-1.26642e-05 1.29524e-06 -6.43483e-27)
(-1.21662e-05 1.3316e-06 3.20643e-27)
(-1.16999e-05 1.3539e-06 2.61457e-23)
(-1.12489e-05 1.38054e-06 -5.20955e-23)
(-1.08099e-05 1.39191e-06 -1.54973e-28)
(-1.0384e-05 1.4065e-06 0)
(-9.95266e-06 1.40752e-06 0)
(-9.52104e-06 1.40712e-06 0)
(-9.08282e-06 1.39553e-06 -2.57026e-23)
(-8.63111e-06 1.38136e-06 0)
(-8.18427e-06 1.35385e-06 0)
(-7.73102e-06 1.3295e-06 -5.1259e-23)
(-7.29395e-06 1.29034e-06 -2.56488e-23)
(-6.87453e-06 1.26091e-06 0)
(-6.48286e-06 1.22347e-06 5.13201e-23)
(-6.1354e-06 1.19778e-06 1.55205e-27)
(-5.83085e-06 1.16863e-06 -1.85306e-28)
(-5.58842e-06 1.15489e-06 -1.0212e-22)
(-5.40463e-06 1.1464e-06 -5.08907e-23)
(-5.28802e-06 1.15423e-06 5.1296e-23)
(-5.23853e-06 1.17279e-06 5.0673e-23)
(-5.25296e-06 1.20955e-06 5.14051e-23)
(-5.33423e-06 1.25647e-06 -7.7212e-28)
(-5.47138e-06 1.32372e-06 0)
(-5.66208e-06 1.40034e-06 0)
(-5.89441e-06 1.49658e-06 0)
(-6.153e-06 1.59443e-06 0)
(-6.43271e-06 1.70803e-06 0)
(-6.68829e-06 1.81249e-06 5.05239e-23)
(-6.93575e-06 1.92327e-06 0)
(-7.07133e-06 2.00019e-06 -7.66175e-28)
(-7.16652e-06 2.0703e-06 3.90851e-28)
(-6.98844e-06 2.05909e-06 3.87489e-28)
(-6.76998e-06 2.03319e-06 0)
(-5.94936e-06 1.82025e-06 5.09998e-23)
(-5.24257e-06 1.62818e-06 -7.74424e-28)
(-3.15545e-06 9.86521e-07 -5.01226e-23)
(-1.70348e-06 5.07818e-07 1.91858e-28)
(3.23411e-06 -1.14121e-06 -5.02832e-23)
(5.9809e-06 -2.19545e-06 0)
(2.37199e-05 -8.41258e-06 0)
(2.38436e-05 -3.79346e-05 -1.08418e-22)
(7.669e-05 0.000952068 0)
(2.0649e-05 0.000830966 -1.70718e-24)
(5.88302e-05 0.0011344 -1.04024e-26)
(0.000157682 0.00134102 1.78548e-24)
(0.00045406 0.00150858 -1.09344e-23)
(0.000568787 0.00109967 0)
(0.000541257 0.000958049 1.30109e-26)
(0.000624621 0.000930688 -1.19481e-26)
(0.00060241 0.00078021 -1.63534e-26)
(0.000611972 0.00070054 4.88504e-26)
(0.00058189 0.000598154 -3.29836e-26)
(0.00056188 0.000525044 -1.41513e-22)
(0.000528867 0.000452605 1.37189e-22)
(0.000499065 0.000394384 7.13959e-23)
(0.00046776 0.000343479 -1.34728e-22)
(0.000435963 0.000298236 0)
(0.000406217 0.000260481 0)
(0.000376543 0.000226442 1.22861e-22)
(0.000347864 0.000196817 0)
(0.000321936 0.000171972 -1.17112e-22)
(0.000295292 0.000148724 -2.70356e-26)
(0.000270665 0.000128917 2.71052e-26)
(0.000247646 0.000111619 0)
(0.000224555 9.56423e-05 -1.97944e-22)
(0.000203382 8.20649e-05 9.52088e-23)
(0.000183172 6.99201e-05 2.13338e-26)
(0.000163369 5.89226e-05 1.72478e-22)
(0.000145341 4.96212e-05 8.13297e-23)
(0.000127787 4.11672e-05 -7.54336e-23)
(0.00011119 3.37828e-05 -7.41301e-23)
(9.61242e-05 2.75535e-05 1.65822e-26)
(8.14431e-05 2.19292e-05 6.45782e-23)
(6.79524e-05 1.71819e-05 0)
(5.56536e-05 1.31945e-05 -5.79999e-23)
(4.40076e-05 9.74523e-06 -5.51314e-23)
(3.36226e-05 6.95153e-06 0)
(2.41765e-05 4.66324e-06 9.76739e-23)
(1.56158e-05 2.81005e-06 4.7089e-23)
(8.2049e-06 1.40763e-06 0)
(1.58027e-06 3.33992e-07 -1.00361e-26)
(-4.06366e-06 -4.20979e-07 9.93513e-27)
(-8.81522e-06 -9.12321e-07 -1.88219e-23)
(-1.28221e-05 -1.19354e-06 -1.80612e-23)
(-1.59931e-05 -1.29347e-06 0)
(-1.85303e-05 -1.26221e-06 -1.62987e-23)
(-2.03967e-05 -1.11696e-06 -7.65127e-28)
(-2.17212e-05 -9.06982e-07 0)
(-2.25577e-05 -6.35085e-07 0)
(-2.2966e-05 -3.45613e-07 3.4652e-24)
(-2.30171e-05 -3.43088e-08 -3.27521e-27)
(-2.27527e-05 2.71115e-07 -6.43582e-24)
(-2.22085e-05 5.65631e-07 6.18863e-24)
(-2.15838e-05 8.26212e-07 0)
(-2.09299e-05 1.01847e-06 -7.38019e-24)
(-2.02447e-05 1.15407e-06 1.4664e-23)
(-1.9558e-05 1.30227e-06 7.11569e-27)
(-1.87995e-05 1.39632e-06 -3.53835e-27)
(-1.80916e-05 1.47022e-06 3.50798e-27)
(-1.74021e-05 1.53592e-06 -3.49789e-27)
(-1.67167e-05 1.59465e-06 1.42197e-23)
(-1.60711e-05 1.64118e-06 -1.4183e-23)
(-1.54401e-05 1.68726e-06 0)
(-1.48491e-05 1.71602e-06 -2.81374e-23)
(-1.42773e-05 1.74974e-06 2.80327e-23)
(-1.37205e-05 1.76454e-06 2.79801e-23)
(-1.31804e-05 1.78289e-06 3.40481e-27)
(-1.26333e-05 1.7845e-06 2.78255e-23)
(-1.20859e-05 1.78381e-06 0)
(-1.15301e-05 1.76937e-06 0)
(-1.09574e-05 1.75122e-06 2.77241e-23)
(-1.03909e-05 1.71674e-06 -1.68375e-27)
(-9.81654e-06 1.68565e-06 2.75828e-23)
(-9.26262e-06 1.63676e-06 0)
(-8.73133e-06 1.59931e-06 -1.67349e-27)
(-8.23517e-06 1.55246e-06 -2.7615e-23)
(-7.79525e-06 1.51992e-06 1.67039e-27)
(-7.40967e-06 1.48387e-06 5.50164e-23)
(-7.10286e-06 1.46661e-06 5.49545e-23)
(-6.87027e-06 1.45663e-06 -2.02183e-27)
(-6.72283e-06 1.4668e-06 1.68417e-27)
(-6.66028e-06 1.49099e-06 -5.4541e-23)
(-6.67875e-06 1.53782e-06 -5.53225e-23)
(-6.7817e-06 1.59796e-06 -1.0888e-30)
(-6.95544e-06 1.6833e-06 5.5223e-23)
(-7.19676e-06 1.78091e-06 8.31791e-28)
(-7.49082e-06 1.90277e-06 -1.68389e-27)
(-7.81785e-06 2.02715e-06 8.32362e-28)
(-8.17153e-06 2.17073e-06 0)
(-8.49442e-06 2.30311e-06 5.43778e-23)
(-8.80684e-06 2.44272e-06 5.54925e-23)
(-8.97748e-06 2.53985e-06 5.40736e-23)
(-9.09664e-06 2.62737e-06 -5.50203e-23)
(-8.87006e-06 2.61244e-06 0)
(-8.59175e-06 2.57752e-06 -4.1398e-28)
(-7.55231e-06 2.30668e-06 -1.09778e-22)
(-6.65547e-06 2.0598e-06 0)
(-4.01456e-06 1.24609e-06 5.39466e-23)
(-2.17396e-06 6.32681e-07 5.42998e-23)
(4.0704e-06 -1.45623e-06 -1.39907e-27)
(7.54351e-06 -2.8216e-06 0)
(2.98996e-05 -1.06481e-05 -5.28227e-29)
(2.99314e-05 -4.78305e-05 -5.82948e-23)
(8.31833e-05 0.00115698 0)
(2.65865e-05 0.00101722 0)
(7.54492e-05 0.00138096 -1.61595e-24)
(0.000195013 0.00163024 -1.13227e-27)
(0.000550383 0.00183273 2.34519e-23)
(0.000692745 0.00134764 -2.38264e-27)
(0.000661875 0.00117413 -1.80498e-27)
(0.000762562 0.0011384 1.28296e-26)
(0.000737177 0.000957356 6.67843e-23)
(0.000748929 0.000859275 0)
(0.00071307 0.000734794 0)
(0.000688803 0.000645085 7.60856e-23)
(0.000648836 0.00055652 -1.47541e-22)
(0.000612529 0.000485077 -7.68527e-23)
(0.000574358 0.000422639 1.44972e-22)
(0.000535534 0.000367104 -1.44994e-22)
(0.000499145 0.000320713 1.41135e-22)
(0.000462827 0.000278892 -1.3218e-22)
(0.000427708 0.000242475 -3.30447e-26)
(0.000395911 0.00021191 0)
(0.000363256 0.000183329 2.90868e-26)
(0.000333039 0.000158953 -5.78851e-26)
(0.000304781 0.000137663 2.71347e-26)
(0.000276445 0.000118004 1.06503e-22)
(0.000250439 0.000101282 2.47617e-26)
(0.000225611 8.63269e-05 9.50706e-23)
(0.000201289 7.27844e-05 -9.27607e-23)
(0.000179127 6.13206e-05 -5.28262e-28)
(0.000157551 5.09043e-05 -8.11591e-23)
(0.000137148 4.18014e-05 -1.97436e-26)
(0.000118616 3.41179e-05 1.78445e-26)
(0.000100561 2.7182e-05 -6.95417e-23)
(8.39635e-05 2.13225e-05 6.72909e-23)
(6.88262e-05 1.63988e-05 -6.24219e-23)
(5.44934e-05 1.21383e-05 4.21582e-28)
(4.17055e-05 8.68404e-06 2.76046e-26)
(3.00712e-05 5.85246e-06 -5.25629e-23)
(1.95256e-05 3.5576e-06 -5.0705e-23)
(1.03912e-05 1.81749e-06 4.76508e-23)
(2.22441e-06 4.83411e-07 4.48078e-23)
(-4.73725e-06 -4.57813e-07 -1.04268e-26)
(-1.06016e-05 -1.07335e-06 2.39593e-28)
(-1.55491e-05 -1.42928e-06 1.94486e-23)
(-1.94688e-05 -1.56127e-06 0)
(-2.26078e-05 -1.53002e-06 8.48314e-27)
(-2.4921e-05 -1.3584e-06 -9.25065e-27)
(-2.65666e-05 -1.10521e-06 8.04017e-24)
(-2.76108e-05 -7.75751e-07 7.79058e-24)
(-2.81272e-05 -4.23064e-07 -3.61383e-27)
(-2.8203e-05 -4.34325e-08 4.53996e-29)
(-2.78897e-05 3.2977e-07 3.4666e-24)
(-2.72314e-05 6.90069e-07 0)
(-2.64717e-05 1.00976e-06 0)
(-2.56748e-05 1.24525e-06 1.58777e-23)
(-2.48381e-05 1.41217e-06 2.50188e-28)
(-2.39987e-05 1.5937e-06 0)
(-2.30712e-05 1.70971e-06 -1.55612e-23)
(-2.22047e-05 1.80042e-06 3.79295e-27)
(-2.13605e-05 1.88169e-06 -3.74873e-27)
(-2.0521e-05 1.95371e-06 -3.06036e-23)
(-1.97298e-05 2.0115e-06 3.05319e-23)
(-1.89564e-05 2.068e-06 -3.71398e-27)
(-1.82317e-05 2.10389e-06 3.02822e-23)
(-1.75305e-05 2.14516e-06 3.67818e-27)
(-1.68474e-05 2.16385e-06 -3.6811e-27)
(-1.61847e-05 2.18613e-06 3.65574e-27)
(-1.55134e-05 2.18853e-06 -2.99541e-23)
(-1.48418e-05 2.18743e-06 2.99048e-23)
(-1.41599e-05 2.17008e-06 -3.63761e-27)
(-1.34576e-05 2.14757e-06 -2.98359e-23)
(-1.27629e-05 2.10582e-06 0)
(-1.20589e-05 2.06742e-06 0)
(-1.138e-05 2.00843e-06 0)
(-1.07291e-05 1.9624e-06 1.80109e-27)
(-1.01213e-05 1.90579e-06 -1.81511e-27)
(-9.58273e-06 1.86598e-06 0)
(-9.11067e-06 1.82295e-06 -5.92117e-23)
(-8.73526e-06 1.80204e-06 5.91416e-23)
(-8.45069e-06 1.79084e-06 5.8948e-23)
(-8.27049e-06 1.8037e-06 5.94158e-23)
(-8.19413e-06 1.83424e-06 1.46632e-27)
(-8.21707e-06 1.89198e-06 5.95411e-23)
(-8.34321e-06 1.9666e-06 0)
(-8.55608e-06 2.07139e-06 -4.69596e-30)
(-8.8514e-06 2.19169e-06 0)
(-9.21131e-06 2.34095e-06 -5.93898e-23)
(-9.6112e-06 2.49385e-06 0)
(-1.00436e-05 2.66938e-06 -9.06654e-28)
(-1.04379e-05 2.83157e-06 -5.85238e-23)
(-1.08192e-05 3.00167e-06 -5.97235e-23)
(-1.10266e-05 3.1202e-06 -5.81992e-23)
(-1.11706e-05 3.22574e-06 5.92172e-23)
(-1.08915e-05 3.20642e-06 0)
(-1.05484e-05 3.16085e-06 0)
(-9.27496e-06 2.82756e-06 1.18152e-22)
(-8.17428e-06 2.52045e-06 5.88334e-23)
(-4.9426e-06 1.52238e-06 -1.16122e-22)
(-2.68625e-06 7.61689e-07 2.01743e-27)
(4.95063e-06 -1.79752e-06 1.16495e-22)
(9.1971e-06 -3.50929e-06 1.119e-28)
(3.64387e-05 -1.30346e-05 -5.77511e-23)
(3.64134e-05 -5.83406e-05 2.50987e-22)
(9.01137e-05 0.00137217 0)
(3.34793e-05 0.00121578 1.96353e-24)
(9.44906e-05 0.00164088 -4.99734e-27)
(0.000235608 0.00193428 5.63547e-27)
(0.000651103 0.00217304 -5.17353e-26)
(0.000823618 0.00161264 6.24486e-23)
(0.000790265 0.00140523 -2.99894e-26)
(0.000908947 0.00135974 -6.79801e-27)
(0.000880886 0.00114729 -7.17481e-23)
(0.000895009 0.00102939 3.44646e-27)
(0.000853373 0.000881664 7.95596e-23)
(0.000824667 0.000774172 -8.17195e-23)
(0.000777461 0.000668443 0)
(0.000734286 0.000582823 8.25875e-23)
(0.000688853 0.000508025 1.55844e-22)
(0.00064257 0.000441446 1.56053e-22)
(0.000599104 0.000385767 -1.51792e-22)
(0.0005557 0.000335576 1.42123e-22)
(0.000513702 0.000291849 0)
(0.000475618 0.000255118 3.29036e-26)
(0.00043653 0.000220793 -3.17102e-26)
(0.00040032 0.000191485 0)
(0.000366436 0.000165887 0)
(0.000332475 0.000142257 0)
(0.000301274 0.000122136 0)
(0.000271481 0.000104145 -1.02343e-22)
(0.000242301 8.78529e-05 0)
(0.00021569 7.40487e-05 0)
(0.000189785 6.151e-05 1.74681e-22)
(0.000165284 5.05465e-05 -2.12458e-26)
(0.000143016 4.12869e-05 1.92026e-26)
(0.000121325 3.29298e-05 7.4786e-23)
(0.000101376 2.58631e-05 -7.23907e-23)
(8.31756e-05 1.99223e-05 -5.35035e-27)
(6.59433e-05 1.478e-05 6.38704e-23)
(5.05597e-05 1.06064e-05 1.46398e-26)
(3.65606e-05 7.18232e-06 5.65304e-23)
(2.38691e-05 4.40504e-06 5.45645e-23)
(1.28692e-05 2.29476e-06 -5.12406e-23)
(3.03274e-06 6.74428e-07 -4.82313e-23)
(-5.35717e-06 -4.72724e-07 -1.15072e-26)
(-1.2429e-05 -1.22671e-06 1.05216e-26)
(-1.83981e-05 -1.66732e-06 -9.02628e-27)
(-2.31327e-05 -1.83754e-06 0)
(-2.69275e-05 -1.80933e-06 0)
(-2.97296e-05 -1.61214e-06 3.65588e-23)
(-3.17279e-05 -1.31451e-06 8.72724e-27)
(-3.30021e-05 -9.25048e-07 -8.38411e-24)
(-3.36408e-05 -5.0563e-07 0)
(-3.37485e-05 -5.37044e-08 0)
(-3.33874e-05 3.91534e-07 0)
(-3.26106e-05 8.21938e-07 0)
(-3.17089e-05 1.20498e-06 8.64548e-24)
(-3.07609e-05 1.48667e-06 -1.70879e-23)
(-2.97634e-05 1.68736e-06 -1.69842e-23)
(-2.87617e-05 1.90455e-06 -1.68757e-23)
(-2.76542e-05 2.04432e-06 1.67429e-23)
(-2.66186e-05 2.15311e-06 -1.66786e-23)
(-2.5609e-05 2.25129e-06 4.03447e-27)
(-2.4605e-05 2.3376e-06 1.64661e-23)
(-2.3658e-05 2.40773e-06 -1.64315e-23)
(-2.27324e-05 2.4754e-06 3.26907e-23)
(-2.18645e-05 2.51917e-06 3.9723e-27)
(-2.10245e-05 2.56851e-06 -1.11349e-29)
(-2.0206e-05 2.59156e-06 -3.96173e-27)
(-1.94119e-05 2.618e-06 -3.93443e-27)
(-1.86073e-05 2.62139e-06 8.66231e-30)
(-1.78025e-05 2.61976e-06 -6.43494e-23)
(-1.69854e-05 2.59942e-06 -3.20375e-23)
(-1.61443e-05 2.57218e-06 -3.21148e-23)
(-1.53122e-05 2.52281e-06 3.89448e-27)
(-1.44697e-05 2.47654e-06 -5.79965e-30)
(-1.36571e-05 2.40709e-06 -3.90613e-27)
(-1.28785e-05 2.35189e-06 0)
(-1.21516e-05 2.28518e-06 3.90354e-27)
(-1.15078e-05 2.23772e-06 -3.87285e-27)