/*--------------------------------*- C++ -*----------------------------------*\
| =========                 |                                                 |
| \\      /  F ield         | OpenFOAM: The Open Source CFD Toolbox           |
|  \\    /   O peration     | Version:  5.x                                   |
|   \\  /    A nd           | Web:      www.OpenFOAM.org                      |
|    \\/     M anipulation  |                                                 |
\*---------------------------------------------------------------------------*/
FoamFile
{
    version     2.0;
    format      ascii;
    class       volVectorField;
    location    "2000";
    object      wallShearStress;
}
// * * * * * * * * * * * * * * * * * * * * * * * * * * * * * * * * * * * * * //

dimensions      [0 2 -2 0 0 0 0];

internalField   uniform (0 0 0);

boundaryField
{
    inlet
    {
        type            calculated;
        value           uniform (0 0 0);
    }
    outlet
    {
        type            calculated;
        value           uniform (0 0 0);
    }
    walls
    {
        type            calculated;
        value           nonuniform List<vector> 
204
(
(-1.04178e-05 -2.18729e-05 9.51955e-29)
(-3.83841e-07 -1.84633e-05 -9.06293e-29)
(-1.07456e-06 -2.57473e-05 -2.09202e-25)
(-3.35205e-06 -3.03746e-05 -2.4985e-25)
(-1.03879e-05 -3.42281e-05 2.96212e-24)
(-1.30175e-05 -2.45829e-05 -7.51741e-24)
(-1.21338e-05 -2.13126e-05 -5.61765e-24)
(-1.42313e-05 -2.10797e-05 -1.70692e-28)
(-1.37128e-05 -1.75826e-05 1.05667e-27)
(-1.40485e-05 -1.59575e-05 1.15724e-27)
(-1.33928e-05 -1.36459e-05 1.24452e-27)
(-1.30058e-05 -1.20574e-05 -9.97083e-24)
(-1.22863e-05 -1.04291e-05 -1.94539e-23)
(-1.16429e-05 -9.12959e-06 -1.64115e-27)
(-1.09503e-05 -7.97869e-06 1.9302e-23)
(-1.02417e-05 -6.9523e-06 -1.94023e-23)
(-9.57167e-06 -6.09103e-06 -2.31873e-27)
(-8.90063e-06 -5.31123e-06 -9.70012e-40)
(-8.24525e-06 -4.62869e-06 3.65084e-23)
(-7.65086e-06 -4.05473e-06 1.71085e-23)
(-7.036e-06 -3.51448e-06 6.0267e-41)
(-6.46435e-06 -3.05313e-06 -5.73972e-42)
(-5.92875e-06 -2.6488e-06 1.51235e-23)
(-5.38796e-06 -2.27355e-06 -1.46594e-23)
(-4.88963e-06 -1.9539e-06 -1.41444e-23)
(-4.41289e-06 -1.66706e-06 -2.63393e-23)
(-3.94265e-06 -1.4061e-06 1.28915e-23)
(-3.51296e-06 -1.18506e-06 -1.2188e-23)
(-3.09312e-06 -9.83359e-07 1.13358e-23)
(-2.69397e-06 -8.06672e-07 1.11766e-23)
(-2.33058e-06 -6.57369e-07 -1.04056e-23)
(-1.97492e-06 -5.22032e-07 5.61057e-40)
(-1.64674e-06 -4.07696e-07 9.49857e-24)
(-1.34672e-06 -3.11515e-07 -1.06259e-27)
(-1.06142e-06 -2.28164e-07 1.04334e-27)
(-8.06298e-07 -1.60604e-07 2.90209e-28)
(-5.73632e-07 -1.05377e-07 -7.48851e-24)
(-3.62111e-07 -6.06048e-08 -2.2638e-28)
(-1.7872e-07 -2.69198e-08 8.20784e-28)
(-1.4354e-08 -1.24686e-09 6.4232e-24)
(1.25806e-07 1.65817e-08 -7.67428e-28)
(2.43863e-07 2.79379e-08 2.48851e-40)
(3.43563e-07 3.41542e-08 4.48416e-44)
(4.2225e-07 3.58441e-08 2.66711e-24)
(4.85171e-07 3.44454e-08 2.01787e-43)
(5.31165e-07 3.01077e-08 4.90399e-24)
(5.63522e-07 2.43336e-08 1.16256e-24)
(5.8358e-07 1.69792e-08 1.12471e-24)
(5.9276e-07 9.32374e-09 -4.19829e-42)
(5.9293e-07 1.11882e-09 3.89736e-44)
(5.85077e-07 -6.86212e-09 5.00309e-25)
(5.70069e-07 -1.45403e-08 4.70122e-28)
(5.53369e-07 -2.12194e-08 1.16025e-24)
(5.35675e-07 -2.61728e-08 1.14582e-24)
(5.16945e-07 -2.95518e-08 2.27382e-24)
(4.98462e-07 -3.33462e-08 -2.25613e-24)
(4.779e-07 -3.56109e-08 4.46856e-24)
(4.58551e-07 -3.74292e-08 2.70429e-28)
(4.3987e-07 -3.89454e-08 -2.19929e-24)
(4.21334e-07 -4.03637e-08 2.18163e-24)
(4.03944e-07 -4.13551e-08 -1.34525e-43)
(3.86941e-07 -4.24521e-08 4.30749e-24)
(3.71021e-07 -4.29879e-08 -2.61779e-28)
(3.55683e-07 -4.37468e-08 -4.25489e-24)
(3.40766e-07 -4.39276e-08 -2.58824e-28)
(3.26325e-07 -4.43063e-08 4.20338e-24)
(3.11795e-07 -4.41537e-08 1.27891e-28)
(2.97294e-07 -4.40457e-08 -1.02328e-40)
(2.82692e-07 -4.3506e-08 4.13586e-24)
(2.67704e-07 -4.29756e-08 4.2039e-45)
(2.52963e-07 -4.19197e-08 4.09438e-24)
(2.381e-07 -4.10814e-08 8.16753e-24)
(2.23814e-07 -3.96306e-08 5.73972e-41)
(2.10147e-07 -3.86487e-08 -1.23042e-28)
(1.97409e-07 -3.73042e-08 1.23565e-28)
(1.86079e-07 -3.64488e-08 1.21958e-28)
(1.76173e-07 -3.53188e-08 -8.00585e-24)
(1.68164e-07 -3.48037e-08 1.59345e-23)
(1.62e-07 -3.43456e-08 7.17465e-43)
(1.57878e-07 -3.44737e-08 -1.35601e-40)
(1.55831e-07 -3.48342e-08 -7.82171e-24)
(1.55675e-07 -3.58265e-08 7.90512e-24)
(1.57532e-07 -3.70095e-08 -7.74961e-24)
(1.61021e-07 -3.88928e-08 -1.19505e-28)
(1.66084e-07 -4.09416e-08 5.88036e-29)
(1.72318e-07 -4.36687e-08 -7.76775e-24)
(1.79294e-07 -4.63058e-08 -1.26957e-28)
(1.86838e-07 -4.95086e-08 5.58447e-32)
(1.93623e-07 -5.23265e-08 5.77718e-29)
(2.00128e-07 -5.54261e-08 7.69419e-24)
(2.03366e-07 -5.74225e-08 -3.58732e-43)
(2.05423e-07 -5.93325e-08 5.7708e-29)
(1.99607e-07 -5.88035e-08 -8.57145e-29)
(1.92715e-07 -5.79945e-08 2.83223e-29)
(1.68577e-07 -5.17797e-08 3.55663e-29)
(1.4803e-07 -4.63805e-08 7.40988e-24)
(8.82042e-08 -2.81268e-08 -7.28568e-24)
(4.72035e-08 -1.49507e-08 1.4611e-23)
(-9.25248e-08 3.13681e-08 2.7774e-29)
(-1.69325e-07 5.88504e-08 -7.32737e-24)
(-6.7318e-07 2.36098e-07 -1.9429e-28)
(-9.82326e-07 1.82953e-06 -1.45305e-23)
(5.53266e-06 -1.93624e-05 3.92997e-24)
(3.4396e-06 -1.0057e-05 -1.01162e-23)
(3.88707e-06 -7.55165e-06 8.69106e-28)
(1.23108e-06 -1.88858e-06 -1.33845e-23)
(-5.63966e-07 6.36833e-07 1.40485e-23)
(-3.24523e-06 3.217e-06 -1.26186e-23)
(-5.17e-06 4.35689e-06 1.51707e-27)
(-7.00765e-06 5.08716e-06 -4.01601e-40)
(-8.26101e-06 5.22421e-06 -4.30479e-42)
(-9.25481e-06 5.14263e-06 -8.98488e-24)
(-9.85728e-06 4.84812e-06 -1.4328e-27)
(-1.028e-05 4.49909e-06 7.27307e-24)
(-1.04548e-05 4.09077e-06 1.23619e-23)
(-1.05307e-05 3.69636e-06 -5.70958e-24)
(-1.04872e-05 3.30972e-06 2.41503e-27)
(-1.03545e-05 2.94211e-06 -4.30313e-24)
(-1.02003e-05 2.6096e-06 7.80656e-24)
(-9.97562e-06 2.29902e-06 2.86986e-42)
(-9.74504e-06 2.02205e-06 -1.48331e-24)
(-9.5042e-06 1.77136e-06 3.61423e-41)
(-9.22349e-06 1.54082e-06 1.96528e-28)
(-8.97608e-06 1.33956e-06 1.9651e-24)
(-8.70671e-06 1.1564e-06 -4.92378e-29)
(-8.43579e-06 9.92687e-07 -4.41583e-29)
(-8.18893e-06 8.4615e-07 -6.02276e-25)
(-7.92204e-06 7.13647e-07 -4.9162e-25)
(-7.67885e-06 5.97695e-07 4.13892e-25)
(-7.44169e-06 4.91518e-07 5.04467e-44)
(-7.19518e-06 3.97465e-07 1.14157e-28)
(-6.97917e-06 3.14412e-07 -1.13477e-28)
(-6.75671e-06 2.38844e-07 7.34774e-26)
(-6.54198e-06 1.73661e-07 -3.15292e-45)
(-6.34716e-06 1.1367e-07 1.39369e-26)
(-6.14239e-06 6.12084e-08 -2.07708e-27)
(-5.96097e-06 1.62029e-08 5.27445e-28)
(-5.78233e-06 -2.59699e-08 -3.0032e-27)
(-5.6043e-06 -6.06432e-08 -2.95928e-29)
(-5.44897e-06 -9.24182e-08 2.48523e-26)
(-5.2861e-06 -1.19916e-07 5.26689e-29)
(-5.14128e-06 -1.42092e-07 -6.87677e-26)
(-5.00261e-06 -1.63599e-07 7.7747e-26)
(-4.86419e-06 -1.79491e-07 -4.28293e-29)
(-4.74679e-06 -1.94412e-07 1.83027e-25)
(-4.62287e-06 -2.06234e-07 -1.92108e-25)
(-4.51879e-06 -2.14965e-07 -4.05642e-25)
(-4.41635e-06 -2.23574e-07 5.00334e-29)
(-4.3226e-06 -2.2799e-07 4.37553e-25)
(-4.24191e-06 -2.33176e-07 -4.56838e-25)
(-4.16182e-06 -2.34748e-07 4.44445e-29)
(-4.10154e-06 -2.36659e-07 -5.75618e-29)
(-4.03856e-06 -2.36135e-07 -6.15096e-29)
(-4.00125e-06 -2.3283e-07 6.06958e-29)
(-3.98702e-06 -2.34158e-07 -6.42197e-25)
(-3.9565e-06 -2.3878e-07 -6.69951e-25)
(-3.93042e-06 -2.41809e-07 1.83643e-29)
(-3.90932e-06 -2.48135e-07 -8.90439e-29)
(-3.87183e-06 -2.5601e-07 1.82119e-28)
(-3.83001e-06 -2.61774e-07 -9.22254e-29)
(-3.79129e-06 -2.65701e-07 -7.89314e-25)
(-3.7546e-06 -2.69829e-07 6.72623e-44)
(-3.71444e-06 -2.72934e-07 -1.66569e-24)
(-3.68012e-06 -2.75029e-07 8.53066e-25)
(-3.64658e-06 -2.77617e-07 -1.07893e-28)
(-3.61205e-06 -2.78912e-07 2.17828e-28)
(-3.5844e-06 -2.80169e-07 9.10078e-25)
(-3.55503e-06 -2.81356e-07 1.14687e-28)
(-3.52925e-06 -2.81686e-07 -1.72954e-28)
(-3.50725e-06 -2.82374e-07 5.8176e-29)
(-3.48413e-06 -2.82585e-07 -4.25995e-43)
(-3.46697e-06 -2.82453e-07 -9.99482e-25)
(-3.45003e-06 -2.82704e-07 -6.27406e-29)
(-3.43554e-06 -2.82312e-07 1.03918e-24)
(-3.42487e-06 -2.82204e-07 -1.04979e-24)
(-3.41413e-06 -2.81915e-07 -6.62265e-29)
(-3.40815e-06 -2.81497e-07 6.57853e-29)
(-3.4028e-06 -2.81282e-07 2.24208e-44)
(-3.40063e-06 -2.80891e-07 1.13189e-24)
(-3.40062e-06 -2.80646e-07 -1.1414e-24)
(-3.4025e-06 -2.80415e-07 2.24208e-43)
(-3.4075e-06 -2.80222e-07 1.18092e-24)
(-3.41396e-06 -2.80137e-07 2.42223e-24)
(-3.42373e-06 -2.80206e-07 2.45593e-24)
(-3.43506e-06 -2.80288e-07 1.2512e-24)
(-3.4496e-06 -2.80673e-07 -1.27752e-24)
(-3.4661e-06 -2.8104e-07 -1.29431e-24)
(-3.48554e-06 -2.81801e-07 -2.6574e-24)
(-3.50778e-06 -2.82582e-07 -1.30713e-40)
(-3.53234e-06 -2.83748e-07 4.26456e-29)
(-3.56128e-06 -2.85096e-07 -4.21602e-29)
(-3.59149e-06 -2.86805e-07 1.43439e-24)
(-3.6284e-06 -2.88898e-07 1.4641e-24)
(-3.66519e-06 -2.913e-07 -1.13728e-30)
(-3.71223e-06 -2.94431e-07 4.66708e-29)
(-3.75683e-06 -2.97573e-07 1.5445e-24)
(-3.82149e-06 -3.02451e-07 -1.59888e-24)
(-3.86998e-06 -3.06244e-07 -1.66012e-24)
(-3.97517e-06 -3.14656e-07 -3.35092e-24)
(-4.01178e-06 -3.18089e-07 2.24208e-44)
(-4.2286e-06 -3.35771e-07 -1.76703e-24)
(-4.20849e-06 -3.35748e-07 6.77906e-30)
(-4.87285e-06 -3.90047e-07 -1.83764e-24)
(-4.69028e-06 -1.92781e-06 -4.14733e-24)
)
;
    }
    frontAndBack
    {
        type            empty;
    }
}


// ************************************************************************* //
