/*--------------------------------*- C++ -*----------------------------------*\
| =========                 |                                                 |
| \\      /  F ield         | OpenFOAM: The Open Source CFD Toolbox           |
|  \\    /   O peration     | Version:  5.x                                   |
|   \\  /    A nd           | Web:      www.OpenFOAM.org                      |
|    \\/     M anipulation  |                                                 |
\*---------------------------------------------------------------------------*/
FoamFile
{
    version     2.0;
    format      ascii;
    class       volScalarField;
    location    "2000";
    object      yPlus;
}
// * * * * * * * * * * * * * * * * * * * * * * * * * * * * * * * * * * * * * //

dimensions      [0 0 0 0 0 0 0];

internalField   uniform 0;

boundaryField
{
    inlet
    {
        type            calculated;
        value           uniform 0;
    }
    outlet
    {
        type            calculated;
        value           uniform 0;
    }
    walls
    {
        type            calculated;
        value           nonuniform List<scalar> 
204
(
0.0167081
0.0149551
0.0177934
0.0195413
0.0211792
0.0182466
0.017219
0.0173804
0.0161252
0.0156121
0.0146837
0.0140421
0.0132938
0.012663
0.0120539
0.0114619
0.0109264
0.0103968
0.00989032
0.0094312
0.00895322
0.00850736
0.00808102
0.00764167
0.00722926
0.00682051
0.00640405
0.00601001
0.00560584
0.00520286
0.00481528
0.00440985
0.00400831
0.00360923
0.00319047
0.00277029
0.00232813
0.00184323
0.00129088
0.000363816
0.00107787
0.00149694
0.0017729
0.001962
0.00209985
0.00219437
0.00225812
0.00229631
0.00231345
0.00231351
0.00229854
0.00226998
0.00223736
0.00220377
0.00216893
0.00213329
0.00209358
0.00205649
0.00201948
0.0019821
0.00194631
0.00191066
0.00187677
0.0018434
0.00181027
0.00177756
0.00174343
0.00170855
0.00167194
0.0016331
0.0015934
0.00155182
0.00151029
0.00146928
0.00142966
0.00139382
0.00136156
0.00133594
0.00131656
0.00130535
0.00130229
0.00130739
0.00132077
0.00134127
0.00136813
0.0013999
0.00143423
0.00147078
0.00150396
0.00153609
0.00155541
0.00157054
0.00155511
0.00153518
0.00144245
0.00135787
0.00105292
0.000772839
0.00108957
0.00148129
0.00296759
0.00416955
0.0150142
0.0109845
0.00956906
0.0048216
0.00288573
0.00651029
0.00771532
0.00852219
0.00886428
0.00905805
0.00908796
0.00907225
0.00898706
0.00889485
0.00878126
0.00865442
0.00853643
0.00840558
0.0082844
0.00816629
0.0080383
0.00792933
0.00781453
0.00770189
0.0075995
0.00748961
0.00739163
0.00729416
0.00719299
0.00710571
0.0070134
0.00692556
0.00684493
0.00675859
0.00668465
0.00660897
0.00653427
0.00647045
0.00640098
0.0063427
0.0062852
0.0062287
0.00618384
0.0061341
0.00609787
0.00606076
0.00603092
0.0060085
0.0059876
0.00598031
0.00597167
0.00598408
0.00600787
0.00601297
0.00602184
0.00603226
0.00602802
0.00602084
0.00601659
0.00601333
0.00600714
0.00600587
0.00600453
0.00600253
0.00600613
0.00600786
0.00601286
0.00602073
0.00602762
0.00603975
0.00605182
0.00606619
0.00608387
0.00610149
0.00612351
0.00614604
0.00617161
0.0061992
0.00622862
0.00626107
0.00629495
0.00633208
0.0063708
0.00641268
0.00645656
0.00650339
0.00655305
0.00660508
0.00666145
0.0067192
0.00678347
0.00684786
0.00692204
0.00699416
0.00708514
0.00716132
0.00728989
0.00735557
0.00758489
0.00760011
0.00821485
0.00828689
)
;
    }
    frontAndBack
    {
        type            empty;
    }
}


// ************************************************************************* //
