/*--------------------------------*- C++ -*----------------------------------*\
| =========                 |                                                 |
| \\      /  F ield         | OpenFOAM: The Open Source CFD Toolbox           |
|  \\    /   O peration     | Version:  5.x                                   |
|   \\  /    A nd           | Web:      www.OpenFOAM.org                      |
|    \\/     M anipulation  |                                                 |
\*---------------------------------------------------------------------------*/
FoamFile
{
    version     2.0;
    format      ascii;
    class       volScalarField;
    location    "700";
    object      nuTilda;
}
// * * * * * * * * * * * * * * * * * * * * * * * * * * * * * * * * * * * * * //

dimensions      [0 2 -1 0 0 0 0];

internalField   nonuniform List<scalar> 
41860
(
4.15375e-05
4.37544e-05
5.52289e-05
5.82294e-05
5.38492e-05
4.98631e-05
4.43501e-05
3.9701e-05
3.59559e-05
3.28514e-05
3.01081e-05
2.81366e-05
2.59758e-05
2.49922e-05
2.33464e-05
2.28389e-05
2.19731e-05
2.13656e-05
2.09756e-05
1.96832e-05
1.95204e-05
2.87329e-05
1.89623e-05
2.98129e-05
1.85874e-05
3.0336e-05
3.06676e-05
1.82716e-05
3.07297e-05
3.06916e-05
3.06662e-05
1.79533e-05
1.79186e-05
3.03975e-05
1.78775e-05
3.00888e-05
1.79003e-05
1.79194e-05
1.79857e-05
2.89649e-05
1.81719e-05
1.82848e-05
3.01017e-05
3.01403e-05
1.71678e-05
3.00805e-05
3.00452e-05
3.00133e-05
2.99704e-05
2.99293e-05
2.98858e-05
2.9842e-05
2.97977e-05
2.9753e-05
2.97025e-05
1.7136e-05
1.71576e-05
2.9552e-05
1.71975e-05
2.94594e-05
2.94e-05
2.93606e-05
1.72907e-05
2.92135e-05
1.73213e-05
2.90811e-05
1.733e-05
1.73435e-05
2.88645e-05
2.8666e-05
1.73184e-05
2.85258e-05
2.83411e-05
1.72395e-05
1.71728e-05
2.79223e-05
1.70444e-05
1.691e-05
1.67735e-05
2.68303e-05
1.66728e-05
1.32227e-05
0.000191207
0.000224107
0.000287658
0.000304477
0.000281327
0.000260193
0.000230799
0.000205981
0.000185979
0.000169395
0.000154739
0.000144221
0.00013268
0.000127448
0.000118652
0.000115941
0.000110861
0.000107037
0.000104392
9.81207e-05
9.65866e-05
9.6777e-05
9.10302e-05
9.38818e-05
8.74999e-05
9.16711e-05
9.00424e-05
8.49622e-05
8.87387e-05
8.84238e-05
8.79175e-05
8.2827e-05
8.27274e-05
8.72707e-05
8.27984e-05
8.75114e-05
8.34328e-05
8.37701e-05
8.47804e-05
9.00321e-05
8.69557e-05
8.83154e-05
8.27746e-05
8.27133e-05
7.80933e-05
8.25071e-05
8.24818e-05
8.24134e-05
8.24181e-05
8.24351e-05
8.24853e-05
8.25624e-05
8.26586e-05
8.27792e-05
8.29324e-05
7.85286e-05
7.87577e-05
8.33941e-05
7.91807e-05
8.37931e-05
8.41604e-05
8.42526e-05
8.01203e-05
8.46633e-05
8.05102e-05
8.50669e-05
8.07874e-05
8.10326e-05
8.52984e-05
8.57352e-05
8.12143e-05
8.54754e-05
8.56846e-05
8.11518e-05
8.08668e-05
8.48425e-05
8.05169e-05
7.98848e-05
7.92156e-05
8.20335e-05
7.88324e-05
1.597e-05
0.000240535
0.000278616
0.000363684
0.000387569
0.000358466
0.000331247
0.000293257
0.000261185
0.000235484
0.000214464
0.000196563
0.000183555
0.000171685
0.000165385
0.00016043
0.000158617
0.000157687
0.000157179
0.000156593
0.000155885
0.000154907
0.000157246
0.000153827
0.000155985
0.000152571
0.000154372
0.000153891
0.000149811
0.000151852
0.000150713
0.000149702
0.000145967
0.00014495
0.000146653
0.000143145
0.000144881
0.000141678
0.00014109
0.00014072
0.000142677
0.000140439
0.000140576
0.000140361
0.000140022
0.000137326
0.000139356
0.000139042
0.000138751
0.000138493
0.000138267
0.000138074
0.000137915
0.000137786
0.000137688
0.000137622
0.000135313
0.000135321
0.000137541
0.000135391
0.000137617
0.000137751
0.000137779
0.000135727
0.000137899
0.000135834
0.000137987
0.00013586
0.000135907
0.000137858
0.000137985
0.000135662
0.000137524
0.000137434
0.000134998
0.000134532
0.00013603
0.000133517
0.000132555
0.000131554
0.000131546
0.000130609
1.92734e-05
0.000328367
0.000371538
0.000437398
0.000474856
0.00046486
0.000434636
0.000407151
0.000384622
0.000364607
0.00034618
0.000330082
0.000310038
0.000297769
0.000279473
0.000276323
0.000269977
0.000268759
0.000266621
0.000263781
0.000262146
0.000258666
0.000258209
0.000253876
0.000252826
0.000248971
0.00024757
0.000245563
0.00024115
0.000240441
0.000237842
0.000235503
0.000231785
0.000229534
0.000228836
0.000225472
0.000224961
0.000221996
0.000220512
0.000219232
0.000219229
0.000217312
0.000216715
0.000215359
0.000214316
0.000212334
0.00021276
0.000212029
0.000211353
0.000210736
0.000210181
0.000209688
0.000209253
0.000208872
0.000208549
0.000208275
0.000206923
0.000206766
0.00020769
0.000206548
0.000207512
0.000207549
0.000207484
0.000206482
0.000207424
0.000206396
0.000207317
0.000206201
0.000206138
0.000206839
0.000206851
0.000205456
0.000206043
0.000205769
0.000204152
0.000203383
0.000203496
0.000201626
0.000200133
0.000198567
0.000196628
0.000196549
2.32458e-05
0.000453928
0.000548887
0.000644512
0.000699353
0.000720573
0.000681066
0.000656342
0.000630702
0.000602369
0.000572819
0.000544926
0.000509972
0.000486241
0.000452263
0.00043862
0.000422707
0.000416276
0.000409542
0.000402562
0.000397833
0.000390806
0.000386715
0.000380199
0.000375611
0.000370156
0.00036543
0.000361289
0.000355594
0.000352108
0.00034762
0.000343554
0.000339018
0.000335201
0.000332256
0.000328289
0.000325752
0.00032233
0.000319744
0.000317423
0.00031582
0.00031366
0.000312325
0.0003094
0.000307304
0.000305393
0.000304543
0.000303262
0.000302076
0.000300987
0.000300001
0.000299111
0.000298313
0.000297602
0.000296978
0.000296433
0.000295482
0.000295103
0.000295178
0.000294499
0.000294659
0.000294565
0.000294371
0.000293887
0.000294078
0.000293551
0.000293728
0.000293084
0.000292888
0.000292814
0.000292692
0.000291687
0.000291462
0.000290973
0.000289636
0.000288515
0.000287676
0.000285912
0.000283824
0.000281595
0.000278113
0.000277964
2.80172e-05
0.000619677
0.000789797
0.000993891
0.0010813
0.00111475
0.00105215
0.00100862
0.000963378
0.000914892
0.000865446
0.000818531
0.000764506
0.000724272
0.000673154
0.000645299
0.000616807
0.000602205
0.000588762
0.000576045
0.00056643
0.000554702
0.000546153
0.000536042
0.00052752
0.000519152
0.000510922
0.000503946
0.000495955
0.000489588
0.000482747
0.000476502
0.000470299
0.000464562
0.000459455
0.000454185
0.000449749
0.000445253
0.000441351
0.000437838
0.00043485
0.000431994
0.000429885
0.000424872
0.000421319
0.000418905
0.000416993
0.000415026
0.0004132
0.000411524
0.000409997
0.000408616
0.000407367
0.000406246
0.00040525
0.000404371
0.000403408
0.000402759
0.000402286
0.000401684
0.000401348
0.000401095
0.000400741
0.000400414
0.000400175
0.00039979
0.000399542
0.000399012
0.00039867
0.000398121
0.000397854
0.000396885
0.000396139
0.000395411
0.000393999
0.000392477
0.000390948
0.000388933
0.000386184
0.00038319
0.000378438
0.000377237
3.37406e-05
0.000848759
0.00108693
0.00143959
0.00157003
0.00159974
0.00150733
0.00143589
0.0013651
0.00129224
0.00121946
0.00115029
0.00107478
0.00101512
0.000945109
0.000900699
0.000857175
0.000831695
0.000809442
0.000789299
0.000773164
0.00075545
0.000741449
0.000726459
0.000713309
0.000700883
0.000688655
0.000678097
0.000666896
0.000657295
0.000647534
0.000638592
0.000630001
0.000621911
0.000614469
0.00060731
0.000600857
0.00059478
0.000589291
0.000584363
0.000579972
0.00057607
0.000573105
0.000565565
0.000560081
0.000556707
0.000553752
0.000550933
0.000548318
0.000545918
0.000543726
0.000541741
0.000539937
0.000538313
0.000536861
0.000535572
0.000534344
0.000533366
0.000532473
0.000531722
0.000531025
0.000530578
0.00053003
0.000529665
0.000529147
0.000528713
0.000528192
0.000527583
0.00052708
0.000526196
0.000525768
0.000524649
0.000523509
0.000522518
0.000520839
0.000518867
0.000516754
0.00051428
0.000510812
0.00050694
0.0005011
0.000497745
4.05953e-05
0.00118349
0.00144641
0.00196787
0.00214799
0.00216682
0.00204071
0.00193732
0.00183836
0.00173908
0.00164096
0.00154741
0.00144841
0.001367
0.00127614
0.00121301
0.00115212
0.00111303
0.00107963
0.0010501
0.00102567
0.00100045
0.000979708
0.00095849
0.000939697
0.000922077
0.000905022
0.000890016
0.000874698
0.000861231
0.000847875
0.000835605
0.000823942
0.000812963
0.000802784
0.000793187
0.00078439
0.000776263
0.000768847
0.000762201
0.000756217
0.000750957
0.000746999
0.000736518
0.000728546
0.00072379
0.000719646
0.00071578
0.000712192
0.000708903
0.000705896
0.000703168
0.000700686
0.000698448
0.000696436
0.000694648
0.000692995
0.000691615
0.000690312
0.00068928
0.000688246
0.00068756
0.000686782
0.000686279
0.000685532
0.000684954
0.000684211
0.000683431
0.000682749
0.000681573
0.000680965
0.000679612
0.000678113
0.000676831
0.000674793
0.000672325
0.000669643
0.000666594
0.000662353
0.000657485
0.000650729
0.00064386
4.87898e-05
0.00163097
0.00188406
0.00258397
0.00281928
0.0028229
0.00265958
0.0025215
0.00239267
0.00226553
0.00214053
0.00202079
0.00189639
0.00179106
0.00167727
0.00159319
0.00151256
0.00145698
0.0014098
0.00136855
0.00133377
0.00129918
0.00127007
0.00124108
0.0012153
0.0011912
0.0011682
0.00114769
0.00112724
0.00110904
0.00109124
0.00107487
0.00105938
0.00104485
0.00103135
0.00101871
0.00100708
0.000996399
0.000986623
0.000977868
0.00096997
0.000963013
0.000957865
0.000944061
0.000932952
0.000926345
0.00092075
0.000915589
0.000910804
0.000906424
0.000902415
0.000898779
0.000895466
0.000892475
0.000889781
0.000887381
0.000885176
0.000883306
0.000881539
0.000880129
0.000878723
0.000877742
0.000876688
0.00087599
0.000875013
0.000874243
0.000873281
0.000872283
0.000871406
0.000869941
0.000869128
0.000867508
0.000865645
0.000864046
0.000861606
0.000858604
0.00085533
0.000851635
0.000846586
0.000840596
0.000833168
0.000821042
5.85643e-05
0.00221191
0.00242724
0.00330077
0.00359623
0.00358088
0.00337658
0.00320133
0.0030412
0.00288503
0.00273182
0.00258426
0.00243261
0.00230123
0.00216227
0.0020549
0.00195203
0.00187696
0.00181302
0.00175729
0.0017097
0.00166348
0.00162399
0.00158534
0.0015509
0.00151876
0.00148838
0.00146108
0.00143425
0.00141021
0.00138694
0.0013655
0.00134528
0.00132636
0.00130878
0.00129239
0.00127728
0.00126343
0.00125075
0.00123939
0.00122914
0.00122008
0.00121347
0.001196
0.00118101
0.00117198
0.00116456
0.00115779
0.00115154
0.00114581
0.00114057
0.00113582
0.00113149
0.00112758
0.00112404
0.0011209
0.00111801
0.00111554
0.00111322
0.00111133
0.00110949
0.00110814
0.00110676
0.00110582
0.00110459
0.00110359
0.0011024
0.00110116
0.00110007
0.00109831
0.00109727
0.00109537
0.00109313
0.00109119
0.00108833
0.00108477
0.00108088
0.00107649
0.00107062
0.00106338
0.00105566
0.00103607
7.01924e-05
0.002958
0.00311438
0.00413599
0.00449567
0.00445728
0.00420773
0.00399283
0.00380013
0.003614
0.00343145
0.00325462
0.00307391
0.00291442
0.00274797
0.00261483
0.00248706
0.00238934
0.00230533
0.0022319
0.0021686
0.00210798
0.00205566
0.00200505
0.00195984
0.00191774
0.00187821
0.00184249
0.00180776
0.00177649
0.00174644
0.00171873
0.00169266
0.00166832
0.0016457
0.00162466
0.00160525
0.00158748
0.00157121
0.00155661
0.00154346
0.00153176
0.00152333
0.00150188
0.00148219
0.00147
0.00146028
0.00145151
0.00144343
0.00143605
0.0014293
0.00142318
0.00141759
0.00141255
0.00140799
0.00140392
0.0014002
0.00139698
0.001394
0.00139153
0.00138916
0.00138736
0.00138558
0.00138434
0.00138284
0.00138158
0.00138014
0.00137863
0.00137731
0.00137525
0.00137396
0.00137179
0.00136917
0.00136687
0.0013636
0.00135948
0.00135495
0.00134985
0.00134318
0.00133457
0.0013271
0.00129742
8.39814e-05
0.00390989
0.00398258
0.00511166
0.00553835
0.00547191
0.00517224
0.00491512
0.00468876
0.004472
0.00425928
0.00405195
0.00384052
0.00365095
0.00345465
0.00329316
0.00313765
0.00301399
0.00290633
0.00281153
0.00272909
0.00265078
0.00258261
0.00251723
0.00245864
0.00240421
0.00235328
0.00230713
0.00226259
0.00222234
0.00218389
0.0021484
0.00211509
0.00208402
0.00205517
0.00202835
0.00200362
0.00198096
0.00196024
0.00194159
0.00192483
0.00190984
0.00189909
0.00187339
0.00184811
0.00183186
0.00181918
0.00180792
0.00179758
0.00178815
0.00177953
0.00177171
0.00176458
0.00175814
0.00175232
0.00174712
0.00174237
0.00173825
0.00173445
0.00173126
0.00172825
0.0017259
0.00172364
0.00172203
0.00172022
0.00171867
0.00171697
0.00171517
0.00171362
0.00171125
0.0017097
0.00170729
0.00170429
0.00170164
0.00169799
0.00169332
0.00168817
0.00168235
0.00167495
0.00166487
0.00165844
0.0016157
0.000100269
0.00511782
0.00506823
0.00625418
0.00674911
0.00664803
0.0062926
0.00599063
0.00572979
0.00548214
0.00523882
0.00500014
0.00475661
0.00453519
0.00430667
0.00411419
0.00392792
0.00377487
0.00363971
0.00351946
0.00341395
0.00331405
0.00322642
0.00314285
0.00306766
0.00299797
0.00293286
0.00287376
0.00281704
0.00276563
0.00271673
0.00267157
0.00262926
0.00258982
0.00255323
0.00251922
0.00248788
0.00245912
0.00243285
0.00240915
0.00238786
0.00236872
0.00235499
0.00232478
0.00229298
0.00227156
0.0022551
0.00224069
0.00222754
0.00221557
0.00220463
0.00219472
0.00218568
0.00217752
0.00217013
0.00216354
0.00215753
0.00215229
0.00214749
0.00214341
0.00213962
0.00213658
0.00213374
0.00213168
0.00212952
0.00212764
0.00212566
0.00212357
0.00212177
0.00211913
0.00211732
0.00211469
0.00211136
0.00210837
0.0021044
0.00209924
0.00209353
0.00208704
0.00207904
0.0020674
0.002063
0.00200439
0.000119418
0.00664317
0.00641898
0.0075948
0.00815731
0.00801278
0.00759507
0.00724558
0.0069498
0.00667159
0.00639783
0.00612749
0.00585086
0.00559609
0.00533312
0.00510698
0.00488677
0.0047007
0.00453399
0.00438384
0.00425083
0.00412487
0.00401349
0.00390764
0.00381196
0.00372339
0.00364069
0.0035655
0.00349365
0.00342833
0.00336644
0.00330923
0.00325572
0.00320585
0.00315962
0.00311664
0.00307705
0.00304066
0.00300745
0.0029774
0.00295042
0.00292604
0.00290844
0.00287343
0.00283417
0.00280627
0.00278496
0.00276658
0.00274992
0.00273478
0.00272096
0.00270845
0.00269705
0.00268675
0.00267743
0.00266911
0.00266155
0.00265491
0.00264888
0.0026437
0.00263897
0.00263507
0.00263152
0.0026289
0.00262634
0.00262409
0.00262181
0.00261943
0.0026174
0.00261452
0.00261244
0.00260966
0.00260608
0.00260281
0.0025986
0.00259307
0.00258689
0.00257982
0.00257145
0.0025582
0.00255707
0.00248061
0.000141802
0.00856029
0.00809668
0.00917089
0.00979537
0.00959711
0.00910969
0.00871009
0.00837953
0.0080719
0.00776871
0.00746714
0.007157
0.00686786
0.00656838
0.00630598
0.00604856
0.0058257
0.00562319
0.00543841
0.00527306
0.00511601
0.00497593
0.00484301
0.00472216
0.00461035
0.00450587
0.00441075
0.00432012
0.00423747
0.00415943
0.00408719
0.00401972
0.00395684
0.00389856
0.00384437
0.00379446
0.00374852
0.0037066
0.00366855
0.00363439
0.0036034
0.00358071
0.00354055
0.0034929
0.00345702
0.00342952
0.00340609
0.00338503
0.00336594
0.00334853
0.00333278
0.00331843
0.00330548
0.00329376
0.00328329
0.0032738
0.00326543
0.00325789
0.00325134
0.00324544
0.00324049
0.00323605
0.00323273
0.00322969
0.00322702
0.00322443
0.00322176
0.00321951
0.00321646
0.00321416
0.00321132
0.00320758
0.00320412
0.00319982
0.0031941
0.00318764
0.00318015
0.00317171
0.00315687
0.00316037
0.00306629
0.000167788
0.0109587
0.0101787
0.0110285
0.0116891
0.0114294
0.0108663
0.0104151
0.0100518
0.00971785
0.00938786
0.0090568
0.00871375
0.00838994
0.00805238
0.00775135
0.00745348
0.00719001
0.00694738
0.00672306
0.00652023
0.00632665
0.00615233
0.00598686
0.0058354
0.00569518
0.0055639
0.00544415
0.0053303
0.00522614
0.005128
0.00503704
0.00495218
0.00487305
0.00479974
0.00473152
0.00466869
0.00461075
0.00455788
0.00450974
0.0044665
0.00442712
0.00439773
0.0043519
0.00429501
0.00424947
0.00421414
0.0041843
0.00415769
0.00413365
0.00411175
0.00409195
0.00407394
0.00405766
0.00404296
0.00402979
0.00401792
0.00400739
0.00399796
0.00398971
0.00398236
0.0039761
0.00397057
0.00396637
0.00396273
0.00395959
0.00395667
0.00395372
0.00395128
0.00394813
0.00394567
0.00394288
0.00393916
0.00393566
0.00393146
0.00392578
0.00391931
0.00391164
0.00390356
0.00388722
0.00389675
0.00378911
0.000197709
0.0139459
0.0127599
0.0132253
0.0138437
0.0135069
0.0128698
0.0123732
0.0119879
0.0116383
0.0112898
0.0109348
0.0105622
0.0102053
0.00982939
0.00948821
0.00914722
0.00883958
0.00855268
0.00828396
0.00803848
0.00780274
0.00758824
0.00738422
0.00719605
0.00702146
0.00685752
0.00670759
0.00656521
0.00643445
0.00631144
0.00619724
0.00609073
0.00599136
0.00589928
0.00581352
0.00573452
0.00566153
0.00559488
0.00553401
0.00547927
0.00542924
0.00539106
0.0053387
0.00527178
0.00521482
0.00516968
0.00513173
0.00509812
0.00506786
0.00504035
0.00501547
0.00499287
0.00497245
0.00495401
0.00493748
0.00492261
0.00490939
0.00489761
0.00488724
0.00487809
0.0048702
0.00486329
0.00485796
0.00485358
0.00484986
0.00484657
0.00484336
0.00484076
0.00483762
0.0048351
0.00483251
0.00482903
0.00482569
0.00482185
0.00481655
0.00481044
0.00480292
0.00479574
0.0047781
0.00479492
0.00468238
0.000231821
0.0176506
0.0159556
0.015833
0.0162539
0.0157884
0.0150775
0.0145504
0.0141675
0.0138297
0.0134863
0.0131252
0.0127351
0.0123529
0.0119429
0.0115629
0.0111782
0.0108242
0.0104899
0.0101726
0.00987978
0.00959654
0.00933596
0.00908722
0.00885583
0.00864038
0.00843723
0.00825076
0.00807369
0.00791038
0.00775682
0.00761394
0.00748067
0.00735619
0.00724078
0.00713318
0.00703397
0.00694214
0.00685818
0.00678129
0.00671199
0.00664849
0.00659876
0.00653859
0.00646086
0.00639069
0.00633349
0.00628534
0.00624292
0.00620484
0.00617029
0.00613907
0.00611072
0.00608511
0.00606198
0.00604123
0.00602261
0.00600601
0.00599128
0.00597826
0.00596685
0.00595693
0.0059483
0.00594152
0.00593617
0.00593173
0.00592801
0.00592454
0.00592182
0.00591881
0.00591636
0.00591414
0.00591116
0.00590826
0.00590511
0.0059006
0.00589531
0.00588839
0.00588277
0.00586414
0.00588924
0.00578044
0.000804696
0.0222275
0.0199033
0.0189371
0.0189218
0.0182364
0.0174393
0.016894
0.016538
0.0162457
0.0159448
0.0156127
0.0152348
0.0148497
0.0144213
0.0140123
0.0135895
0.0131912
0.0128095
0.0124419
0.0120989
0.0117642
0.0114526
0.0111536
0.0108728
0.0106099
0.0103607
0.0101309
0.00991243
0.00970989
0.00951932
0.00934149
0.00917548
0.00902016
0.00887597
0.00874137
0.00861709
0.00850181
0.00839622
0.00829924
0.0082116
0.00813111
0.00806639
0.00799642
0.00790705
0.00782197
0.00775027
0.00768943
0.00763597
0.00758811
0.00754477
0.00750559
0.00747006
0.00743794
0.00740895
0.00738291
0.00735959
0.00733874
0.00732031
0.00730396
0.00728971
0.00727725
0.00726645
0.0072578
0.00725116
0.00724579
0.00724151
0.00723776
0.00723494
0.0072322
0.00722996
0.00722831
0.00722614
0.00722402
0.00722193
0.0072187
0.00721479
0.00720899
0.00720569
0.0071865
0.00722061
0.00711743
0.00238521
0.027865
0.0247642
0.0226324
0.0218601
0.0208294
0.0199204
0.0193625
0.0190508
0.0188306
0.0186068
0.0183436
0.0180192
0.01767
0.0172564
0.016844
0.0164019
0.0159717
0.0155505
0.0151368
0.0147457
0.0143594
0.0139948
0.0136422
0.0133074
0.0129918
0.0126905
0.0124109
0.0121443
0.0118956
0.0116612
0.0114417
0.0112363
0.0110437
0.0108646
0.010697
0.010542
0.0103979
0.0102656
0.0101437
0.0100331
0.00993137
0.00984741
0.00976485
0.00966281
0.00956126
0.00947255
0.00939623
0.00932911
0.00926909
0.00921481
0.00916574
0.00912126
0.00908102
0.00904472
0.00901205
0.00898284
0.00895669
0.00893361
0.00891308
0.00889526
0.00887964
0.00886609
0.00885504
0.00884667
0.00884003
0.008835
0.00883087
0.00882794
0.00882556
0.00882368
0.00882282
0.00882178
0.00882079
0.0088202
0.00881875
0.00881685
0.00881275
0.00881254
0.00879326
0.00883693
0.00873366
0.00500531
0.034784
0.0307208
0.027004
0.0250854
0.0235556
0.0224966
0.0219264
0.0216695
0.0215391
0.0214173
0.0212549
0.0210228
0.0207518
0.020396
0.0200201
0.0195938
0.0191601
0.0187211
0.0182775
0.01785
0.0174201
0.0170071
0.0166031
0.0162142
0.015844
0.0154871
0.0151533
0.0148334
0.0145329
0.0142485
0.0139807
0.0137295
0.0134931
0.0132725
0.0130657
0.0128738
0.0126948
0.01253
0.0123777
0.012239
0.0121111
0.0120029
0.011904
0.0117879
0.0116685
0.0115605
0.0114658
0.0113821
0.0113072
0.0112394
0.0111782
0.0111227
0.0110724
0.011027
0.0109861
0.0109496
0.0109168
0.0108879
0.0108622
0.0108399
0.0108203
0.0108034
0.0107892
0.0107785
0.0107702
0.0107641
0.0107593
0.0107562
0.0107542
0.0107528
0.0107529
0.0107533
0.0107538
0.0107551
0.0107559
0.0107567
0.0107548
0.0107584
0.0107394
0.0107929
0.0106847
0.00762372
0.0430042
0.0379445
0.0320798
0.0286021
0.0264021
0.0251448
0.0245593
0.0243648
0.0243358
0.0243322
0.0242925
0.0241816
0.0240238
0.0237656
0.0234686
0.0231008
0.0227043
0.0222837
0.0218409
0.0214027
0.02095
0.0205046
0.0200613
0.0196267
0.0192072
0.0187974
0.01841
0.0180357
0.0176808
0.0173427
0.0170224
0.0167202
0.0164346
0.0161669
0.0159149
0.0156802
0.0154606
0.0152575
0.015069
0.0148966
0.0147372
0.0145995
0.0144797
0.0143476
0.0142093
0.0140801
0.0139644
0.0138611
0.0137683
0.0136845
0.0136084
0.0135395
0.013477
0.0134206
0.0133697
0.0133241
0.0132832
0.0132472
0.013215
0.0131872
0.0131628
0.0131415
0.0131235
0.0131097
0.013099
0.0130913
0.0130857
0.0130821
0.0130804
0.0130795
0.0130807
0.0130826
0.0130849
0.0130885
0.013092
0.0130958
0.0130966
0.0131044
0.013086
0.0131492
0.0130277
0.0106317
0.0520151
0.0463176
0.037765
0.0323721
0.02934
0.0278328
0.0272297
0.0271045
0.0271862
0.0273117
0.0274093
0.0274403
0.0274214
0.0272912
0.0271085
0.0268385
0.0265215
0.0261607
0.025759
0.0253472
0.0249051
0.0244564
0.0239986
0.0235391
0.0230866
0.0226367
0.022205
0.0217829
0.0213777
0.020988
0.0206155
0.0202614
0.0199243
0.0196066
0.0193058
0.0190242
0.0187594
0.0185132
0.0182838
0.0180726
0.0178768
0.0177043
0.0175588
0.0174084
0.0172506
0.0170991
0.0169604
0.016835
0.0167217
0.016619
0.0165256
0.0164409
0.016364
0.0162944
0.0162315
0.0161752
0.0161245
0.0160798
0.01604
0.0160054
0.0159751
0.0159486
0.0159258
0.0159081
0.0158941
0.0158842
0.0158771
0.0158728
0.0158712
0.0158706
0.0158727
0.0158763
0.0158805
0.0158864
0.0158927
0.0158997
0.0159033
0.0159154
0.0158972
0.0159693
0.0158266
0.0140772
0.0613821
0.0553098
0.0437889
0.0362583
0.0322986
0.0305082
0.0298934
0.0298467
0.0300478
0.0303104
0.0305556
0.0307446
0.0308836
0.0309042
0.0308626
0.0307219
0.0305209
0.0302583
0.0299378
0.0295928
0.0292005
0.0287858
0.0283485
0.027896
0.0274388
0.0269732
0.0265182
0.0260655
0.0256239
0.0251937
0.0247772
0.0243773
0.023993
0.0236276
0.0232792
0.0229505
0.0226396
0.0223485
0.0220757
0.0218229
0.0215875
0.0213766
0.0212013
0.0210304
0.0208527
0.0206792
0.020517
0.0203682
0.0202326
0.020109
0.0199963
0.0198938
0.0198004
0.0197158
0.0196391
0.0195704
0.0195085
0.0194538
0.0194049
0.0193625
0.0193253
0.0192928
0.0192643
0.0192417
0.0192237
0.0192107
0.0192015
0.0191958
0.0191938
0.0191933
0.0191961
0.0192011
0.019207
0.0192151
0.019224
0.019234
0.0192399
0.0192556
0.0192366
0.0193157
0.0191468
0.0179853
0.0708119
0.0644104
0.0496098
0.0399133
0.0351172
0.03308
0.0324896
0.0325361
0.032866
0.0332704
0.0336695
0.0340302
0.0343423
0.0345312
0.034652
0.0346661
0.0346116
0.034479
0.0342758
0.034035
0.0337304
0.0333879
0.0330094
0.0326014
0.0321748
0.031727
0.0312793
0.0308235
0.0303701
0.0299205
0.0294786
0.0290482
0.0286296
0.028227
0.0278394
0.0274703
0.0271181
0.0267858
0.0264719
0.0261787
0.0259041
0.0256546
0.0254477
0.0252554
0.0250587
0.024865
0.0246809
0.0245096
0.0243516
0.0242068
0.0240739
0.0239527
0.0238418
0.0237413
0.0236498
0.0235677
0.0234935
0.0234279
0.0233691
0.0233181
0.0232734
0.0232343
0.0231994
0.0231713
0.0231484
0.0231317
0.0231196
0.0231118
0.0231089
0.0231079
0.023111
0.023117
0.0231241
0.0231339
0.0231448
0.0231571
0.0231643
0.0231822
0.0231608
0.0232436
0.0230473
0.0223602
0.080027
0.0729913
0.0551952
0.043201
0.0377807
0.0355941
0.0350408
0.0351557
0.0355777
0.0361209
0.0366743
0.0372184
0.0377133
0.038083
0.0383832
0.0385739
0.0386931
0.0387177
0.0386641
0.0385616
0.0383786
0.0381437
0.0378611
0.0375353
0.0371761
0.036783
0.0363783
0.0359532
0.0355196
0.0350802
0.0346399
0.0342037
0.0337726
0.0333523
0.0329425
0.0325477
0.0321671
0.0318042
0.0314583
0.0311322
0.0308245
0.0305412
0.0303056
0.0300935
0.0298806
0.0296708
0.029469
0.0292789
0.0291015
0.0289375
0.028786
0.0286473
0.0285198
0.0284039
0.028298
0.0282028
0.0281165
0.0280401
0.0279716
0.0279121
0.0278599
0.0278143
0.0277731
0.0277393
0.0277114
0.0276904
0.0276751
0.0276648
0.0276605
0.0276585
0.0276614
0.0276678
0.0276756
0.0276863
0.0276984
0.0277118
0.027719
0.0277371
0.027711
0.0277931
0.0275725
0.0271972
0.088684
0.08056
0.0616697
0.0474146
0.0409496
0.0385497
0.037946
0.0380338
0.0384494
0.039027
0.0396467
0.0402889
0.0409027
0.0414526
0.0419427
0.0423274
0.0426445
0.042848
0.0429753
0.043043
0.0430122
0.0429181
0.0427674
0.0425597
0.0423036
0.0420025
0.0416777
0.0413191
0.0409405
0.0405453
0.0401393
0.0397278
0.0393131
0.0389019
0.0384945
0.0380966
0.0377079
0.0373329
0.0369715
0.036627
0.0362992
0.0359935
0.0357374
0.0355114
0.0352881
0.0350689
0.0348567
0.0346547
0.0344642
0.0342866
0.0341213
0.0339691
0.0338285
0.0337004
0.0335827
0.0334768
0.0333804
0.0332951
0.0332185
0.0331521
0.0330938
0.0330431
0.0329968
0.0329583
0.032926
0.0329014
0.0328831
0.0328706
0.0328649
0.032862
0.0328645
0.0328711
0.0328791
0.0328903
0.0329027
0.0329162
0.0329221
0.0329384
0.0329057
0.0329819
0.0327437
0.0325111
0.0963433
0.0871005
0.0691848
0.0541096
0.0463291
0.0431993
0.0420882
0.0418501
0.042034
0.0424526
0.0429822
0.0435759
0.0441872
0.044785
0.0453609
0.0458536
0.0463303
0.0467185
0.047058
0.0473237
0.0474698
0.0475477
0.0475654
0.0475097
0.0473909
0.0472201
0.0470125
0.0467567
0.0464697
0.0461553
0.045819
0.0454666
0.0451016
0.0447313
0.0443565
0.0439838
0.0436137
0.0432515
0.0428977
0.0425563
0.0422278
0.0419176
0.0416554
0.0414262
0.0412021
0.0409832
0.0407708
0.0405672
0.0403734
0.0401912
0.0400204
0.0398622
0.0397153
0.0395809
0.0394571
0.0393455
0.0392438
0.0391538
0.0390729
0.039003
0.0389419
0.038889
0.0388406
0.0388002
0.0387658
0.0387396
0.03872
0.0387066
0.0387009
0.0386979
0.038701
0.0387084
0.0387171
0.0387289
0.0387418
0.038755
0.0387591
0.0387723
0.0387328
0.0387981
0.0385528
0.0383339
0.102536
0.0931306
0.0774793
0.0630311
0.0545605
0.0503053
0.0481782
0.0472231
0.0468897
0.0469163
0.0471589
0.0475175
0.0479676
0.0484498
0.0489694
0.0494508
0.0499503
0.0504047
0.0508414
0.0512352
0.051562
0.0518403
0.0520619
0.0521851
0.0522346
0.052234
0.0521801
0.0520629
0.0519056
0.0517102
0.0514814
0.0512252
0.0509464
0.0506525
0.0503447
0.0500304
0.0497106
0.0493914
0.0490738
0.0487624
0.0484587
0.0481678
0.0479196
0.0477027
0.0474918
0.0472863
0.0470867
0.0468945
0.0467103
0.046536
0.0463712
0.046218
0.0460749
0.0459437
0.0458225
0.0457132
0.0456135
0.0455257
0.0454471
0.0453796
0.0453212
0.0452715
0.0452258
0.0451882
0.0451562
0.0451323
0.0451152
0.0451042
0.0451013
0.0451011
0.0451071
0.0451175
0.0451289
0.0451432
0.045158
0.0451724
0.0451761
0.0451869
0.0451427
0.0451939
0.0449561
0.0446782
0.107159
0.0993095
0.0862322
0.0731555
0.0642851
0.0588214
0.0555892
0.0538129
0.0528765
0.0524283
0.0522837
0.0523004
0.0524773
0.0527211
0.0530563
0.0534041
0.0537939
0.0541883
0.0545943
0.054997
0.055375
0.055738
0.0560648
0.0563601
0.0566013
0.0568125
0.056939
0.0569909
0.0570013
0.0569634
0.0568796
0.0567579
0.0566046
0.0564255
0.0562224
0.0560034
0.05577
0.0555284
0.0552805
0.0550314
0.0547833
0.0545412
0.054332
0.054148
0.0539687
0.0537936
0.053623
0.0534583
0.0532994
0.0531482
0.0530043
0.0528701
0.0527442
0.0526288
0.052522
0.0524263
0.0523392
0.0522634
0.0521962
0.0521398
0.0520922
0.0520532
0.0520178
0.05199
0.0519672
0.0519523
0.0519435
0.0519407
0.0519458
0.0519533
0.0519669
0.0519847
0.052003
0.0520238
0.0520445
0.0520638
0.0520711
0.052083
0.0520402
0.0520768
0.0518644
0.051504
0.111534
0.105442
0.0949897
0.0833276
0.0733759
0.0666049
0.0627
0.0604532
0.059148
0.0583698
0.0578986
0.0576138
0.0575288
0.0575248
0.0576314
0.0577798
0.0579846
0.0582308
0.0585074
0.0588149
0.0591304
0.0594632
0.0597909
0.0601247
0.0604424
0.0607518
0.0610336
0.0612713
0.0614846
0.0616333
0.0617236
0.0617717
0.0617815
0.0617546
0.0616943
0.0616091
0.0615004
0.0613744
0.0612334
0.0610829
0.0609258
0.0607666
0.0606264
0.0605003
0.0603754
0.060252
0.0601305
0.0600124
0.0598974
0.0597875
0.0596823
0.0595842
0.0594919
0.0594081
0.0593309
0.059263
0.0592022
0.0591512
0.0591077
0.0590739
0.059048
0.0590301
0.059015
0.0590069
0.0590028
0.0590057
0.0590141
0.0590277
0.0590488
0.0590716
0.0591002
0.0591324
0.0591647
0.0591989
0.0592323
0.0592633
0.0592818
0.0593017
0.0592704
0.0592972
0.059129
0.0587008
0.116332
0.111628
0.103321
0.093302
0.0838016
0.0761476
0.0704468
0.0670563
0.0651453
0.0639955
0.0633093
0.0628839
0.0626688
0.0625068
0.062423
0.0623844
0.0624113
0.0624913
0.0626009
0.0627552
0.0629347
0.0631525
0.0633935
0.0636638
0.0639519
0.0642553
0.0645673
0.0648716
0.0651761
0.0654615
0.0657266
0.0659675
0.0661654
0.0663146
0.0664262
0.0665077
0.0665579
0.0665823
0.0665843
0.066569
0.0665396
0.0664998
0.066461
0.0664207
0.0663765
0.0663293
0.06628
0.0662306
0.0661809
0.0661332
0.066087
0.0660447
0.0660055
0.0659719
0.0659422
0.0659194
0.0659015
0.0658912
0.0658865
0.0658898
0.0658994
0.0659157
0.0659338
0.0659577
0.0659845
0.0660171
0.0660542
0.0660954
0.0661431
0.066192
0.0662458
0.0663026
0.0663589
0.0664166
0.0664729
0.066526
0.0665668
0.0666061
0.0666005
0.0666293
0.0665233
0.066071
0.120469
0.117181
0.110862
0.10288
0.094782
0.0875528
0.0814566
0.0766809
0.073068
0.0706853
0.0693164
0.0684397
0.0678446
0.0673954
0.0671267
0.0669628
0.0668955
0.0668442
0.0667929
0.0667821
0.0668006
0.0668651
0.0669683
0.0671119
0.0672921
0.0675026
0.0677437
0.0680051
0.0682911
0.0685904
0.0689027
0.0692192
0.069534
0.0698365
0.070125
0.0703846
0.0706054
0.0707977
0.0709656
0.0711117
0.071238
0.0713479
0.0714391
0.0715099
0.0715706
0.0716232
0.0716691
0.0717106
0.0717482
0.071784
0.0718178
0.0718521
0.0718864
0.0719228
0.0719604
0.0720017
0.0720451
0.0720934
0.0721448
0.0722016
0.0722626
0.0723283
0.0723947
0.0724653
0.0725375
0.0726141
0.0726937
0.0727763
0.072864
0.0729521
0.0730444
0.0731386
0.0732322
0.0733266
0.0734192
0.0735083
0.0735865
0.0736608
0.0736993
0.0737498
0.0737225
0.0733109
0.123926
0.121718
0.117294
0.111472
0.10499
0.0985669
0.0928377
0.0880157
0.084034
0.0807963
0.0782446
0.0760964
0.0744201
0.0732092
0.0724762
0.0719841
0.0716234
0.0713298