/*--------------------------------*- C++ -*----------------------------------*\
| =========                 |                                                 |
| \\      /  F ield         | OpenFOAM: The Open Source CFD Toolbox           |
|  \\    /   O peration     | Version:  5.x                                   |
|   \\  /    A nd           | Web:      www.OpenFOAM.org                      |
|    \\/     M anipulation  |                                                 |
\*---------------------------------------------------------------------------*/
FoamFile
{
    version     2.0;
    format      ascii;
    class       volScalarField;
    location    "700";
    object      p;
}
// * * * * * * * * * * * * * * * * * * * * * * * * * * * * * * * * * * * * * //

dimensions      [0 2 -2 0 0 0 0];

internalField   nonuniform List<scalar> 
11040
(
-0.000339551
-53.7871
-181.632
-216.397
-228.117
-235.299
-236.156
-230.658
-220.658
-206.755
-188.708
-161.045
-134.436
-115.437
-102.081
-87.8497
-73.4155
-59.7861
-46.8834
-34.4369
-22.4074
-12.036
-3.38536
4.68709
12.2182
19.214
25.6645
31.5548
36.8526
41.5037
45.4408
48.617
51.0523
52.8264
54.0889
54.9345
55.1814
54.8694
54.9341
57.0772
56.9537
19.1699
-32.8884
-115.261
-157.442
-179.684
-196.023
-205.664
-207.892
-204.102
-195.237
-181.433
-158.462
-134.295
-115.628
-101.982
-87.9141
-73.641
-60.0796
-47.2161
-34.8
-22.7882
-12.4383
-3.76772
4.32428
11.8764
18.8966
25.3763
31.3013
36.6369
41.327
45.3057
48.5265
51.0009
52.7979
54.0762
54.9492
55.2258
54.8912
54.7301
56.325
55.8963
31.9309
-18.6049
-77.9565
-127.331
-156.856
-176.439
-188.638
-193.305
-191.693
-184.885
-173.446
-154.382
-132.558
-114.331
-100.638
-87.0947
-73.2219
-59.8663
-47.1449
-34.8427
-22.9126
-12.6017
-3.95099
4.1277
11.6731
18.6934
25.1804
31.1193
36.4742
41.1894
45.2003
48.4579
50.9659
52.7893
54.0832
54.9772
55.2823
54.9657
54.7193
55.8781
55.2527
40.7767
-4.41973
-48.9039
-94.0044
-125.448
-147.801
-163.724
-172.599
-174.835
-171.444
-163.261
-148.303
-129.4
-112.204
-98.6876
-85.7337
-72.3806
-59.3373
-46.8381
-34.7143
-22.9155
-12.6889
-4.08686
3.96004
11.4848
18.4944
24.9807
30.9276
36.2986
41.0388
45.0836
48.3815
50.9305
52.7891
54.1014
55.0048
55.3291
55.0328
54.7439
55.616
55.1022
47.6698
8.91575
-25.6439
-64.259
-95.8802
-120.089
-138.481
-150.554
-156.205
-156.148
-151.253
-140.362
-124.86
-109.239
-96.1253
-83.7867
-71.0802
-58.4756
-46.2884
-34.4187
-22.8186
-12.7277
-4.20736
3.77998
11.2609
18.2409
24.7118
30.6561
36.0377
40.802
44.8854
48.2347
50.8414
52.7544
54.1012
55.0166
55.3618
55.0989
54.7843
55.5187
55.3231
52.8724
20.5507
-7.01901
-39.0728
-68.387
-92.6247
-112.25
-126.722
-135.457
-138.722
-137.219
-130.356
-118.563
-105.074
-92.7544
-81.1433
-69.2187
-57.1941
-45.4207
-33.8879
-22.5607
-12.6589
-4.26373
3.62563
11.0298
17.9515
24.3828
30.3053
35.683
40.4631
44.5838
47.9917
50.6711
52.6599
54.0632
55.0048
55.3861
55.1901
54.8876
55.5816
55.7233
56.7858
30.2823
7.90317
-18.314
-43.9584
-66.7064
-86.2637
-101.992
-113.031
-119.23
-120.988
-117.984
-110.066
-99.2893
-88.3186
-77.6599
-66.6694
-55.3871
-44.1564
-33.0606
-22.0918
-12.4439
-4.22662
3.52002
10.8081
17.6363
23.9963
29.8695
35.2214
40.0021
44.1531
47.6218
50.3865
52.473
53.9616
54.9574
55.4051
55.3221
55.0956
55.7907
56.248
59.7278
38.1614
19.8291
-1.47741
-23.0912
-43.3438
-61.7175
-77.5339
-89.8673
-98.2694
-102.825
-103.278
-99.1375
-91.4804
-82.442
-73.08
-63.2297
-52.8897
-42.3705
-31.8402
-21.3385
-12.0284
-4.05382
3.49541
10.6193
17.3098
23.5577
29.3448
34.6389
39.3946
43.5592
47.0831
49.9404
52.1452
53.7531
54.848
55.4125
55.5015
55.4256
56.1715
56.8943
61.9237
44.3957
29.3053
12.0219
-5.79437
-23.1164
-39.5306
-54.4383
-67.0148
-76.6897
-83.3084
-86.5808
-85.8261
-81.3968
-74.7571
-67.093
-58.6425
-49.4804
-39.8848
-30.0856
-20.1863
-11.3165
-3.66386
3.618
10.5166
17.0151
23.1007
28.7549
33.9482
38.6412
42.7887
46.3476
49.2915
51.6256
53.3855
54.6349
55.3858
55.7232
55.8835
56.7611
57.653
63.5335
49.2521
36.7903
22.768
8.26168
-6.14866
-20.2372
-33.5693
-45.502
-55.4995
-63.2882
-68.5467
-70.5184
-69.0793
-65.0508
-59.4282
-52.6518
-44.9134
-36.4809
-27.6177
-18.4885
-10.1832
-2.94728
3.9815
10.5804
16.8226
22.6884
28.1568
33.2
37.7842
41.8725
45.4306
48.436
50.8906
52.8191
54.2711
55.278
55.9453
56.4346
57.5311
58.5218
64.6854
52.9983
42.6785
31.2868
19.5449
7.7636
-3.98198
-15.4293
-26.1235
-35.6543
-43.7426
-50.0811
-53.9395
-54.9369
-53.3914
-49.9595
-45.0667
-38.9687
-31.9324
-24.2292
-16.0682
-8.47803
-1.77244
4.70167
10.9122
16.823
22.4043
27.6301
32.4725
36.9015
40.8867
44.4022
47.4316
49.9785
52.0657
53.7369
55.035
56.0769
56.9595
58.3315
59.4515
65.4857
55.8741
47.3058
38.0319
28.546
19.0076
9.40293
-0.134976
-9.31528
-17.8636
-25.5629
-32.1604
-37.0322
-39.7138
-40.2044
-38.8286
-35.8604
-31.5242
-26.0604
-19.7208
-12.7306
-6.02324
0.020465
5.9229
11.6419
17.1326
22.3544
27.2738
31.8611
36.0881
39.9286
43.3624
46.3784
48.9827
51.1993
53.0699
54.6416
56.0306
57.2957
58.9288
60.263
66.0262
58.0837
50.9533
43.3839
35.7171
28.029
20.2647
12.4766
4.83423
-2.49079
-9.3657
-15.6117
-20.7453
-24.3337
-26.2237
-26.5031
-25.2692
-22.648
-18.8125
-13.9638
-8.30759
-2.64115
2.60583
7.81339
12.9287
17.8998
22.6756
27.2148
31.4844
35.4559
39.1056
42.4165
45.3804
48.0039
50.3107
52.3374
54.1272
55.7804
57.3424
59.1423
60.7243
66.3834
59.7933
53.849
47.6544
41.447
35.2577
29.0182
22.7377
16.5083
10.4291
4.568
-0.967391
-5.82975
-9.67348
-12.309
-13.6977
-13.8095
-12.664
-10.3453
-6.98112
-2.7277
1.79047
6.1302
10.5344
14.9417
19.2944
23.5337
27.6118
31.4921
35.1449
38.5468
41.6817
44.5424
47.1338
49.4759
51.5965
53.5285
55.3455
57.0871
58.9395
60.6639
66.6161
61.1318
56.1711
51.0891
46.0519
41.066
36.0637
31.0337
26.0228
21.0836
16.2473
11.5657
7.27355
3.62154
0.775691
-1.18288
-2.16449
-2.1169
-1.0468
0.99306
3.90938
7.26476
10.6458
14.1812
17.8068
21.4636
25.0889
28.6304
32.0489
35.314
38.4018
41.2955
43.9861
46.4752
48.7766
50.9077
52.8887
54.7663
56.5698
58.3885
60.1088
66.7777
62.2057
58.0632
53.8838
49.7853
45.7618
41.7515
37.7351
33.7349
29.7764
25.8703
22.036
18.4249
15.2084
12.5094
10.4062
8.99724
8.36285
8.54234
9.53844
11.3151
13.6061
16.0623
18.7323
21.5571
24.4819
27.4462
30.3982
33.2977
36.1135
38.8211
41.4029
43.8477
46.1527
48.3243
50.3698
52.2977
54.1341
55.8964
57.622
59.253
66.9269
63.1126
59.6535
56.2094
52.8665
49.6118
46.3912
43.1842
40
36.8499
33.7339
30.6567
27.7123
25.0138
22.6449
20.6648
19.1562
18.1969
17.8413
18.1208
19.0372
20.4559
22.1076
23.9953
26.0709
28.2881
30.5945
32.9433
35.2974
37.6265
39.9066
42.1188
44.2499
46.293
48.2486
50.1165
51.8964
53.6012
55.2384
56.8206
58.3187
67.0589
63.845
60.9253
58.0502
55.2867
52.6163
49.9925
47.3965
44.8312
42.3016
39.8038
37.3377
34.962
32.7497
30.756
29.0221
27.6095
26.5807
25.9868
25.866
26.237
27.0466
28.0986
29.3764
30.8443
32.4666
34.2011
36.0092
37.8589
39.7238
41.5814
43.4136
45.2063
46.95
48.6413
50.2752
51.8466
53.3607
54.8197
56.2247
57.5629
67.1658
64.4162
61.914
59.4736
57.1487
54.9177
52.7401
50.5995
48.4956
46.4299
44.3974
42.3956
40.4642
38.6517
36.9943
35.5204
34.274
33.3017
32.645
32.3386
32.4051
32.8341
33.4838
34.3329
35.3568
36.5285
37.8158
39.1883
40.6201
42.089
43.5754
45.0631
46.5387
47.9919
49.4172
50.8075
52.1556
53.4626
54.7273
55.946
57.1135
67.2635
64.881
62.7097
60.6093
58.6238
56.7302
54.8932
53.0983
51.3439
49.6297
47.9506
46.3037
44.7167
43.2231
41.8467
40.6075
39.5364
38.6676
38.0326
37.6597
37.5696
37.7718
38.1624
38.7216
39.4331
40.2768
41.2283
42.2645
43.3651
44.5119
45.6888
46.8819
48.0791
49.2708
50.4508
51.6114
52.7453
53.8513
54.9267
55.9662
56.9675
67.3568
65.2714
63.3685
61.5409
59.8251
58.1978
56.628
55.1031
53.6208
52.1797
50.7751
49.4041
48.0866
46.8466
45.7003
44.6613
43.7519
42.997
42.4196
42.0419
41.8806
41.953
42.1807
42.5475
43.043
43.6522
44.3565
45.1386
45.9826
46.8744
47.8008
48.7504
49.7127
50.6794
51.6444
52.6005
53.5408
54.4636
55.3652
56.2406
57.088
67.4481
65.6076
63.9264
62.322
60.8249
59.4123
58.0567
56.7472
55.4809
54.256
53.0684
51.9154
50.8114
49.7741
48.815
47.943
47.1747
46.528
46.0197
45.6665
45.4813
45.4827
45.61
45.8507
46.1984
46.6415
47.1659
47.7585
48.407
49.1005
49.8285
50.5815
51.3512
52.1303
52.9135
53.6944
54.4671
55.2295
55.9781
56.7083
57.4183
67.5376
65.902
64.4066
62.9876
61.671
60.4345
59.2537
58.119
57.0274
55.9769
54.9637
53.9854
53.0528
52.1789
51.3721
50.6385
49.99
49.4398
49.0003
48.6836
48.4992
48.4647
48.5313
48.69
48.9369
49.2628
49.6569
50.109
50.61
51.151
51.7239
52.321
52.9357
53.5618
54.195
54.8297
55.4612
56.0873
56.7048
57.31
57.9008
67.6252
66.163
64.8251
63.5623
62.3965
61.3064
60.2704
59.2798
58.3316
57.4237
56.5526
55.7163
54.9228
54.1819
53.4997
52.8803
52.3325
51.866
51.4896
51.2124
51.041
50.9907
51.0215
51.127
51.3051
51.5482
51.8479
52.1962
52.586
53.0104
53.463
53.9378
54.4293
54.9326
55.444
55.959
56.4737
56.9863
57.4939
57.9936
58.4829
67.7107
66.3965
65.1934
64.0633
63.0251
62.0582
61.1435
60.2732
59.4442
58.6544
57.9007
57.1811
56.5017
55.87
55.2902
54.7655
54.3019
53.9067
53.5862
53.347
53.1938
53.1391
53.1493
53.2205
53.3512
53.5356
53.7664
54.0376
54.3437
54.6792
55.0389
55.4181
55.8124
56.2179
56.6315
57.0497
57.4691
57.8885
58.3052
58.717
59.1212
67.7934
66.6067
65.5199
64.5036
63.5742
62.7121
61.9001
61.1312
60.4024
59.7115
59.0556
58.4329
57.8482
57.3068
56.812
56.3659
55.9727
55.6378
55.3658
55.1613
55.0275
54.9744
54.9735
55.0224
55.1205
55.2626
55.443
55.6567
55.8994
56.1668
56.4547
56.7593
57.0771
57.4051
57.7407
58.081
58.4234
58.7669
59.1092
59.4486
59.7823
67.8731
66.7968
65.8109
64.893
64.0571
63.2847
62.5604
61.8778
61.234
60.6266
60.0531
59.5118
59.0061
58.5402
58.1163
57.7356
57.4015
57.1175
56.887
56.7133
56.5982
56.5498
56.5434
56.5779
56.6531
56.7646
56.9075
57.078
57.2725
57.4874
57.7196
57.966
58.2237
58.4902
58.7637
59.0416
59.322
59.6039
59.8856
60.1657
60.4414
67.9494
66.9692
66.0714
65.239
64.484
63.7891
63.1402
62.5316
61.9604
61.4242
60.9206
60.448
60.009
59.6065
59.242
58.9164
58.6318
58.3908
58.1957
58.0486
57.9508
57.9083
57.8998
57.9249
57.9839
58.073
58.1878
58.3254
58.4828
58.6572
58.846
59.0466
59.2568
59.4747
59.6986
59.9265
60.1569
60.3892
60.6216
60.8534
61.0816
68.0221
67.126
66.3054
65.5476
64.863
64.2352
63.6517
63.1069
62.5982
62.123
61.6792
61.2652
60.8827
60.5339
60.2197
59.9404
59.6976
59.4929
59.3278
59.2037
59.1212
59.085
59.0762
59.0954
59.1428
59.215
59.3086
59.4209
59.5496
59.6923
59.8469
60.0115
60.1841
60.3632
60.5474
60.7353
60.9255
61.1175
61.3099
61.5023
61.6917
68.0911
67.2687
66.5159
65.8236
65.2004
64.6313
64.1045
63.6152
63.1605
62.7381
62.3458
61.982
61.6477
61.3446
61.0731
60.8331
60.6256
60.4516
60.312
60.2077
60.1386
60.1084
60.1005
60.1157
60.1546
60.2142
60.2914
60.3841
60.4902
60.608
60.7357
60.8716
61.0142
61.1622
61.3147
61.4702
61.6279
61.7873
61.9472
62.1074
62.265
68.1562
67.3987
66.7057
66.0709
65.5016
64.9838
64.5066
64.0657
63.6581
63.2814
62.9336
62.613
62.3203
62.0563
61.8212
61.6147
61.4372
61.2893
61.1714
61.0839
61.0265
61.0018
60.9953
61.008
61.0407
61.0905
61.1549
61.2321
61.3205
61.4185
61.5246
61.6376
61.7561
61.8792
62.0059
62.1353
62.2666
62.3995
62.5329
62.6667
62.7983
68.2174
67.517
66.8768
66.2927
65.7708
65.298
64.8644
64.4658
64.0993
63.7626
63.4535
63.1704
62.9135
62.6833
62.4795
62.3016
62.1497
62.024
61.9246
61.8515
61.8041
61.7844
61.7794
61.7906
61.8185
61.8607
61.9151
61.98
62.0542
62.1363
62.2251
62.3195
62.4186
62.5214
62.6274
62.7355
62.8453
62.9564
63.0681
63.1802
63.2904
68.2746
67.6245
67.0311
66.4917
66.0115
65.5783
65.1831
64.8217
64.4913
64.1896
63.9143
63.6639
63.4381
63.2371
63.0602
62.907
62.777
62.6703
62.5867
62.5258
62.487
62.4717
62.4683
62.4785
62.5028
62.5391
62.5854
62.6405
62.7032
62.7724
62.8472
62.9266
63.0098
63.0961
63.185
63.2757
63.3678
63.4611
63.5549
63.6492
63.7416
68.3279
67.7221
67.1699
66.67
66.2266
65.8284
65.467
65.1384
64.8399
64.5689
64.3234
64.1015
63.9029
63.7272
63.5737
63.4417
63.3307
63.2403
63.1701
63.1197
63.0883
63.0768
63.0751
63.0847
63.1062
63.1377
63.1776
63.2246
63.278
63.3367
63.4
63.4671
63.5373
63.6101
63.685
63.7614
63.839
63.9175
63.9964
64.0759
64.1537
68.3773
67.8105
67.2946
66.8295
66.4186
66.0513
65.7198
65.4202
65.1498
64.906
64.6866
64.4899
64.315
64.1615
64.0284
63.9149
63.8202
63.7438
63.6852
63.6438
63.6187
63.6105
63.6103
63.6195
63.6388
63.6665
63.7011
63.7416
63.7873
63.8374
63.8912
63.9482
64.0076
64.0692
64.1325
64.197
64.2625
64.3288
64.3954
64.4626
64.5281
68.4228
67.8901
67.4063
66.9718
66.5896
66.2495
65.9444
65.6706
65.4251
65.2053
65.0091
64.8345
64.6806
64.5465
64.4313
64.3338
64.2533
64.1891
64.1404
64.1068
64.0872
64.082
64.0831
64.0923
64.1098
64.1344
64.1647
64.1998
64.2392
64.2822
64.3282
64.3767
64.4273
64.4796
64.5333
64.5879
64.6433
64.6994
64.7557
64.8125
64.8678
68.4645
67.9615
67.5058
67.0983
66.7412
66.4252
66.1435
65.8925
65.6691
65.4707
65.2951
65.1401
65.0047
64.8878
64.7882
64.7048
64.6366
64.583
64.543
64.5161
64.5012
64.4984
64.5008
64.5099
64.5261
64.5481
64.5747
64.6054
64.6395
64.6766
64.7161
64.7576
64.8007
64.8452
64.8908
64.9372
64.9842
65.0317
65.0794
65.1274
65.1741
68.5024
68.0251
67.5939
67.2099
66.8749
66.5801
66.3191
66.0883
65.8846
65.7053
65.5479
65.4105
65.2915
65.1897
65.104
65.033
64.9757
64.9313
64.899
64.8779
64.8672
64.8667
64.8704
64.8796
64.8948
64.9148
64.9385
64.9656
64.9953
65.0275
65.0615
65.0972
65.1341
65.1721
65.211
65.2504
65.2903
65.3305
65.3709
65.4117
65.4511
68.5365
68.0812
67.6711
67.3076
66.9918
66.7156
66.473
66.2601
66.074
65.9117
65.7707
65.6488
65.5444
65.4562
65.3828
65.3228
65.2751
65.2388
65.213
65.197
65.1898
65.1913
65.196
65.2053
65.2196
65.2378
65.2591
65.283
65.3091
65.3371
65.3666
65.3973
65.429
65.4616
65.4947
65.5283
65.5622
65.5964
65.6307
65.6652
65.6985
68.5669
68.1301
67.7381
67.3921
67.0929
66.833
66.6065
66.4096
66.2391
66.092
65.9657
65.8578
65.7666
65.6905
65.628
65.5779
65.5388
65.5098
65.4901
65.4788
65.4749
65.4784
65.4844
65.4942
65.508
65.525
65.5444
65.5659
65.5891
65.6137
65.6394
65.666
65.6934
65.7213
65.7496
65.7783
65.8071
65.8361
65.8652
65.8944
65.9224
68.5936
68.1721
67.7951
67.464
67.179
66.9332
66.7208
66.5381
66.3815
66.2481
66.1349
66.0396
65.9603
65.8951
65.8425
65.8011
65.7696
65.747
65.7324
65.725
65.7239
65.7288
65.7357
65.7456
65.7589
65.7747
65.7924
65.8117
65.8323
65.854
65.8765
65.8997
65.9234
65.9474
65.9718
65.9963
66.0209
66.0456
66.0703
66.095
66.1187
68.6167
68.2072
67.8425
67.5237
67.2507
67.017
66.8169
66.6467
66.5026
66.3813
66.2801
66.1962
66.1275
66.0723
66.0288
65.9955
65.9712
65.9548
65.9454
65.9421
65.9441
65.9511
65.9595
65.9704
65.9838
65.9992
66.0159
66.0338
66.0526
66.072
66.092
66.1124
66.1331
66.1539
66.1748
66.1958
66.2167
66.2377
66.2585
66.2794
66.2993
68.6361
68.2354
67.8801
67.5711
67.308
67.0845
66.8952
66.7359
66.603
66.4928
66.4023
66.3288
66.2699
66.2237
66.1883
66.1621
66.144
66.1326
66.1271
66.1268
66.1309
66.1389
66.1481
66.1591
66.1722
66.1868
66.2024
66.2187
66.2357
66.2532
66.271
66.289
66.3071
66.3253
66.3436
66.3617
66.3798
66.3977
66.4155
66.4332
66.4501
68.6518
68.257
67.9084
67.6067
67.3512
67.1361
66.9558
66.8062
66.6831
66.583
66.5023
66.4383
66.3886
66.3509
66.3235
66.3048
66.2933
66.2881
66.2879
66.2921
66.2997
66.3104
66.3217
66.3343
66.3484
66.3634
66.3789
66.3948
66.411
66.4272
66.4435
66.4597
66.4759
66.4918
66.5076
66.5232
66.5386
66.5537
66.5687
66.5835
66.5975
68.6642
68.2728
67.9287
67.6322
67.3823
67.1735
67.0005
66.8588
66.7441
66.6527
66.5809
66.5256
66.4841
66.454
66.4333
66.4203
66.4134
66.4118
66.4144
66.4206
66.4296
66.4411
66.453
66.466
66.4799
66.4944
66.5092
66.5242
66.5392
66.5542
66.569
66.5837
66.5982
66.6125
66.6266
66.6404
66.6539
66.6672
66.6802
66.693
66.7051
68.6731
68.2818
67.9396
67.6463
67.4005
67.1967
67.0297
66.8947
66.7873
66.7033
66.6393
66.5919
66.5584
66.5365
66.5241
66.5194
66.5207
66.5267
66.5361
66.5482
66.562
66.5773
66.5925
66.608
66.6239
66.6398
66.6555
66.671
66.686
66.7007
66.715
66.7288
66.7421
66.755
66.7674
66.7794
66.791
66.8022
66.813
66.8235
66.8335
68.677
68.2799
67.9349
67.6411
67.3968
67.1966
67.035
66.9066
66.8065
66.7303
66.674
66.6339
66.6069
66.5905
66.5823
66.5808
66.5844
66.5922
66.6033
66.6169
66.632
66.648
66.6638
66.6798
66.6959
66.7117
66.7272
66.7422
66.7568
66.7708
66.7844
66.7973
66.8098
66.8217
66.8331
66.8441
66.8545
66.8645
66.8741
66.8833
66.8923
68.6758
68.2687
67.9169
67.6192
67.3734
67.1742
67.0158
66.8925
66.7991
66.7307
66.6834
66.6534
66.6378
66.6337
66.6388
66.6508
66.6676
66.6875
66.709
66.7312
66.7531
66.7745
66.7952
66.8151
66.8343
66.8526
66.8699
66.8863
66.9017
66.9163
66.9299
66.9428
66.9548
66.9661
66.9767
66.9867
66.996
67.0048
67.0131
67.0208
67.0284
62.3363
66.4096
69.766
71.7161
72.9006
73.6936
74.1484
74.3559
74.4013
74.3371
74.2
74.0172
73.8081
73.5858
73.3589
73.1337
72.9142
72.7027
72.5007
72.3091
72.1283
71.9582
71.7985
71.649
71.5092
71.3786
71.2568
71.1431
71.037
70.938
70.8455
70.7589
70.6778
70.6017
70.5301
70.4628
70.3994
70.3397
70.2834
70.2304
70.1805
70.1334
70.0892
70.0475
70.0081
69.971
69.936
69.9028
69.8714
69.8416
69.8133
69.7863
69.7606
69.736
69.7125
69.6899
69.6682
69.6472
69.627
69.6074
69.5884
69.57
69.552
69.5345
69.5175
69.501
69.4849
69.4696
69.4546
69.4416
69.4271
69.4194
69.4017
69.4101
61.7266
66.1249
69.6246
71.7153
72.9639
73.7658
74.2115
74.4059
74.4378
74.3613
74.2136
74.0222
73.8061
73.5783
73.3472
73.1187
72.8968
72.6837
72.4806
72.2883
72.1071
71.9368
71.7773
71.628
71.4886
71.3585
71.2372
71.1241
71.0187
70.9203
70.8284
70.7425
70.6621
70.5866
70.5157
70.4489
70.3861
70.3269
70.2711
70.2186
70.1692
70.1226
70.0788
70.0375
69.9986
69.9619
69.9272
69.8944
69.8633
69.8338
69.8058
69.7792
69.7537
69.7294
69.7061
69.6838
69.6623
69.6416
69.6216
69.6022
69.5834
69.5652
69.5474
69.5301
69.5132
69.4968
69.4809
69.4658
69.4509
69.438
69.4237
69.4161
69.3986
69.407
61.2682
65.4343
69.287
71.6359
72.9957
73.8325
74.2813
74.4646
74.4812
74.3899
74.2296
74.0277
73.8033
73.569
73.333
73.1008
72.8762
72.6612
72.4568
72.2639
72.0823
71.912
71.7527
71.6038
71.4649
71.3354
71.2148
71.1025
70.9978
70.9002
70.8091
70.724
70.6443
70.5696
70.4994
70.4334
70.3712
70.3126
70.2575
70.2055
70.1566
70.1106
70.0673
70.0265
69.9881
69.9518
69.9176
69.8852
69.8545
69.8254
69.7977
69.7714
69.7463
69.7223
69.6993
69.6772
69.656
69.6356
69.6158
69.5967
69.5781
69.56
69.5424
69.5253
69.5086
69.4925
69.4767
69.4617
69.447
69.4342
69.4201
69.4126
69.3953
69.4037
61.0144
64.8317
68.8588
71.4544
72.9686
73.8669
74.336
74.5209
74.5274
74.4217
74.2471
74.0331
73.799
73.5572
73.3155
73.0791
72.8515
72.6344
72.4287
72.235
72.0532
71.883
71.724
71.5757
71.4375
71.3088
71.189
71.0776
70.9739
70.8773
70.7872
70.703
70.6242
70.5504
70.4811
70.4159
70.3545
70.2967
70.2422
70.191
70.1428
70.0974
70.0547
70.0144
69.9765
69.9408
69.907
69.8751
69.8449
69.8162
69.7889
69.763
69.7382
69.7146
69.6919
69.6702
69.6492
69.6291
69.6096
69.5907
69.5723
69.5545
69.5371
69.5202
69.5037
69.4878
69.4722
69.4574
69.4428
69.4302
69.4162
69.4089
69.3917
69.4002
61.0654
64.5876
68.4994
71.1979
72.8664
73.8521
74.3563
74.5524
74.5591
74.4468
74.2617
74.0361
73.7917
73.5416
73.2935
73.0524
72.8215
72.6022
72.3952
72.2008
72.0188
71.8488
71.6903
71.5428
71.4055
71.2778
71.1592
71.049
70.9464
70.851
70.7621
70.6791
70.6014
70.5287
70.4604
70.3961
70.3357
70.2788
70.2252
70.1747
70.1273
70.0826
70.0406
70.001
69.9638
69.9286
69.8954
69.8641
69.8343
69.8061
69.7793
69.7538
69.7295
69.7062
69.6839
69.6625
69.6419
69.622
69.6028
69.5842
69.5662
69.5486
69.5315
69.5148
69.4985
69.4828
69.4674
69.4528
69.4384
69.426
69.4122
69.4049
69.388
69.3965
61.2765
64.6303
68.3135
70.9752
72.7146
73.7764
74.3309
74.5482
74.5588
74.4455
74.2577
74.0271
73.776
73.5188
73.2645
73.0187
72.7845
72.563
72.3547
72.1598
71.9779
71.8083
71.6506
71.5041
71.3681
71.2417
71.1245
71.0157
70.9146
70.8207
70.7332
70.6516
70.5753
70.5039
70.4368
70.3738
70.3144
70.2586
70.206
70.1565
70.1099
70.0661
70.0249
69.9861
69.9496
69.9152
69.8826
69.8519
69.8227
69.7951
69.7688
69.7438
69.7199
69.697
69.6752
69.6542
69.6339
69.6144
69.5956
69.5773
69.5595
69.5422
69.5254
69.509
69.493
69.4774
69.4623
69.4479
69.4337
69.4214
69.4078
69.4007
69.384
69.3926
61.5573
64.8333
68.2935
70.8685
72.5821
73.6603
74.2534
74.5015
74.5236
74.4101
74.2195
73.9878
73.7368
73.479
73.2225
72.974
72.7374
72.5142
72.3051
72.1101
71.9286
71.76
71.6035
71.4584
71.324
71.1994
71.0839
70.977
70.8777
70.7856
70.6999
70.62
70.5454
70.4755
70.4099
70.3483
70.2903
70.2357
70.1843
70.1359
70.0904
70.0476
70.0074
69.9695
69.9338
69.9002
69.8684
69.8384
69.8099
69.7829
69.7572
69.7327
69.7094
69.6871
69.6657
69.6451
69.6253
69.6062
69.5877
69.5698
69.5523
69.5354
69.5188
69.5027
69.487
69.4717
69.4568
69.4427
69.4287
69.4166
69.4032
69.3962
69.3798
69.3884
61.9312
65.0904
68.341
70.8404
72.5041
73.5508
74.1436
74.4099
74.4487
74.3423
74.1502
73.9141
73.6613
73.4055
73.1529
72.9079
72.6735
72.4514
72.2429
72.0488
71.8686
71.7015
71.5469
71.4039
71.2716
71.1493
71.0362
70.9315
70.8346
70.7446
70.6611
70.5834
70.5107
70.4428
70.379
70.3191
70.2627
70.2096
70.1596
70.1125
70.0683
70.0267
69.9876
69.9508
69.9161
69.8834
69.8526
69.8233
69.7957
69.7694
69.7444
69.7206
69.6979
69.6761
69.6552
69.6352
69.6159
69.5972
69.5792
69.5616
69.5446
69.528
69.5118
69.496
69.4806
69.4656
69.4509
69.437
69.4233
69.4115
69.3983
69.3915
69.3754
69.384
62.4781
65.3769
68.3352
70.782
72.4306
73.4529
74.0278
74.2906
74.3356
74.2378
74.0508
73.8142
73.5576
73.2983
73.0459
72.8055
72.5783
72.3634
72.1607
71.9709
71.7941
71.63
71.4782
71.3382
71.209
71.0896
70.9795
70.8778
70.7838
70.6967
70.6159
70.5407
70.4705
70.4049
70.3433
70.2854
70.231
70.1797
70.1314
70.0859
70.0432
70.003
69.9653
69.9297
69.8962
69.8646
69.8348
69.8066
69.7798
69.7544
69.7302
69.7072
69.6851
69.664
69.6438
69.6243
69.6056
69.5874
69.5699
69.5528
69.5362
69.52
69.5042
69.4888
69.4737
69.459
69.4447
69.431
69.4176
69.406
69.3931
69.3864
69.3706
69.3794
63.1846
65.6765
68.2416
70.604
72.2525
73.2797
73.8743
74.1502
74.1997
74.103
73.9186
73.6855
73.4306
73.1699
72.9143
72.6721
72.4469
72.2382
72.0446
71.8647
71.6966
71.5394
71.3933
71.2581
71.1332
71.018
70.9119
70.8141
70.7237
70.6402
70.5628
70.4908
70.4236
70.3608
70.3019
70.2465
70.1944
70.1452
70.099
70.0555
70.0145
69.976
69.9399
69.9058
69.8737
69.8434
69.8148
69.7878
69.7621
69.7377
69.7144
69.6922
69.671
69.6507
69.6312
69.6124
69.5943
69.5767
69.5597
69.5432
69.5271
69.5113
69.496
69.4809
69.4662
69.4519
69.4379
69.4246
69.4115
69.4001
69.3875
69.381
69.3656
69.3744
63.8164
65.8782
68.0028
70.2217
71.8792
72.9317
73.5714
73.906
74.0043
73.9359
73.7642
73.5354
73.281
73.02
72.7641
72.5211
72.2947
72.0858
71.8951
71.7221
71.564
71.4181
71.2828
71.1569
71.0396
70.9308
70.8303
70.7376
70.6521
70.5731
70.4999
70.432
70.3686
70.3093
70.2536
70.2013
70.1519
70.1054
70.0616
70.0204
69.9816
69.9451
69.9108
69.8786
69.8481
69.8194
69.7923
69.7665
69.7421
69.7189
69.6967
69.6756
69.6553
69.6359
69.6172
69.5992
69.5818
69.565
69.5486
69.5327
69.5171
69.5019
69.487
69.4725
69.4582
69.4443
69.4307
69.4177
69.4049
69.3938
69.3815
69.3753
69.3603
69.3692
64.0345
65.7763
67.5137
69.5043
71.1469
72.264
72.9889
73.4237
73.621
73.6374
73.5309
73.3461
73.115
72.8626
72.6072
72.3612
72.1311
71.9196
71.7279
71.5559
71.4016
71.2627
71.1376
71.0236
70.9184
70.8205
70.7294
70.6446
70.5658
70.4928
70.4252
70.3623
70.3036
70.2487
70.197
70.1484
70.1024
70.0591
70.0183
69.9798
69.9436
69.9096
69.8776
69.8474
69.819
69.7921
69.7667
69.7425
69.7196
69.6977
69.6769
69.6569
69.6378
69.6194
69.6017
69.5846
69.5681
69.552
69.5364
69.5211
69.5062
69.4916
69.4773
69.4633
69.4495
69.436
69.4229
69.4103
69.3979
69.3871
69.3752
69.3692
69.3546
69.3636
63.743
65.273
66.7396
68.4435
69.9714
71.1164
71.9407
72.5168
72.8723
73.0387
73.0612
72.9823
72.8347
72.6436
72.4284
72.2028
71.9785
71.7641
71.5655
71.3864
71.2273
71.0874
70.9653
70.8584
70.7633
70.6777
70.5995
70.527
70.4589
70.395
70.3352
70.279
70.2264
70.1769
70.1303
70.0862
70.0445
70.005
69.9678
69.9327
69.8996
69.8685
69.8392
69.8115
69.7855
69.7608
69.7374
69.7152
69.694
69.6738
69.6545
69.6359
69.6181
69.601
69.5844
69.5684
69.5528
69.5376
69.5229
69.5084
69.4943
69.4804
69.4667
69.4533
69.44
69.4271
69.4144
69.4023
69.3903
69.3799
69.3684
69.3627
69.3485
69.3577
63.0269
64.3908
65.684
67.1288
68.489
69.605
70.4866
71.1722
71.6753
72.0098
72.2028
72.2834
72.2766
72.204
72.085
71.9357
71.7687
71.5935
71.4166
71.2437
71.0801
70.9304
70.7979
70.6837
70.5868
70.5052
70.4361
70.3759
70.3216
70.2713
70.2235
70.1776
70.1335
70.0912
70.051
70.0126
69.9762
69.9415
69.9087
69.8777
69.8484
69.8207
69.7947
69.7701
69.7469
69.7249
69.7039
69.6839
69.6649
69.6466
69.6291
69.6122
69.5959
69.5802
69.565
69.5502
69.5358
69.5217
69.5079
69.4944
69.4811
69.468
69.4551
69.4423
69.4298
69.4174
69.4053
69.3937
69.3821
69.3722
69.3611
69.3557
69.3421
69.3515
62.0134
63.2366
64.4104
65.6646
66.8685
67.9227
68.8175
69.5656
70.1705
70.6365
70.9777
71.2128
71.3595
71.4337
71.4497
71.4198
71.3548
71.2642
71.1563
71.0378
70.9143
70.7895
70.6664
70.5489
70.4412
70.3468
70.2678
70.2041
70.1534
70.1128
70.0786
70.0475
70.0173
69.9869
69.9562
69.9255
69.8955
69.8665
69.839
69.8129
69.7883
69.765
69.743
69.7221
69.7023
69.6834
69.6653
69.6481
69.6315
69.6155
69.6001
69.5852
69.5708
69.5568
69.5431
69.5298
69.5167
69.5039
69.4912
69.4788
69.4665
69.4543
69.4423
69.4304
69.4185
69.4069
69.3954
69.3844
69.3734
69.3639
69.3533
69.3483
69.3353
69.345
60.8467
61.9513
63.025
64.1371
65.2119
66.1937
67.0718
67.8465
68.5142
69.0732
69.5285
69.8893
70.1669
70.3725
70.5175
70.6121
70.6652
70.6843
70.6757
70.6445
70.5956
70.5336
70.4626
70.3862
70.307
70.2268
70.1484
70.0749
70.0101
69.9569
69.916
69.8861
69.8642
69.8471
69.8315
69.8151
69.7972
69.7778
69.7577
69.7377
69.7184
69.7
69.6826
69.6661
69.6504
69.6353
69.6208
69.6067
69.5931
69.5799
69.567
69.5545
69.5422
69.5302
69.5184
69.5067
69.4952
69.4839
69.4726
69.4614
69.4503
69.4392
69.4282
69.4172
69.4062
69.3954
69.3846
69.3742
69.3639
69.3549
69.3449
69.3403
69.3279
69.3381
59.6725
60.6684
61.6452
62.6375
63.6023
64.5095
65.3512
66.1233
66.8197
67.436
67.9714
68.4287
68.8127
69.1295
69.3862
69.5902
69.7491
69.8698
69.9585
70.0203
70.0594
70.0793
70.0828
70.0726
70.0513
70.0215
69.9856
69.9453
69.9017
69.856
69.8103
69.7677
69.7314
69.7036
69.6844
69.672
69.664
69.6577
69.651
69.6429
69.6334
69.6229
69.612
69.6009
69.5901
69.5795
69.5691
69.5589
69.5488
69.5389
69.529
69.5192
69.5095
69.4999
69.4903
69.4806
69.471
69.4614
69.4517
69.442
69.4323
69.4225
69.4126
69.4027
69.3927
69.3828
69.3728
69.3632
69.3536
69.3452
69.3359
69.3318
69.3201
69.3308
58.7144
59.6023
60.4796
61.3615
62.225
63.054
63.8426
64.5859
65.2779
65.9136
66.49
67.0061
67.4627
67.8617
68.2064
68.5008
68.7497
68.9581
69.1309
69.2729
69.3887
69.4818
69.5554
69.6118
69.6529
69.6802
69.6951
69.6995
69.6953
69.6845
69.6689
69.6498
69.628
69.6046
69.5815
69.561
69.5456
69.5361
69.5317
69.5308
69.531
69.5308
69.5291
69.5259
69.5216
69.5166
69.5111
69.5053
69.4993
69.4931
69.4867
69.4801
69.4733
69.4663
69.4591
69.4518
69.4443
69.4366
69.4288
69.4208
69.4125
69.4041
69.3956
69.3869
69.378
69.3691
69.3601
69.3514
69.3425
69.3349
69.3262
69.3227
69.3118
69.3231
58.0894
58.8677
59.6431
60.4194
61.1857
61.9333
62.6574
63.3534
64.0162
64.641
65.2243
65.7635
66.2572
66.7049
67.1073
67.4656
67.7822
68.0598
68.3015
68.5106
68.6905
68.8443
68.9752
69.0858
69.1786
69.2554
69.3179
69.3674
69.4051
69.4325
69.451
69.4623
69.468
69.4694
69.4674
69.4625
69.4551
69.4466
69.4388
69.4337
69.4323
69.4343
69.4384
69.4428
69.4462
69.4481
69.4486
69.4478
69.4462
69.444
69.4413
69.438
69.4344
69.4303
69.4258
69.4209
69.4157
69.4102
69.4042
69.398
69.3914
69.3846
69.3774
69.37
69.3624
69.3546
69.3466
69.3387
69.3307
69.3238
69.3159
69.313
69.3029
69.3152
57.7914
58.4612
59.1338
59.808
60.479
61.1422
61.7936
62.4293
63.0452
63.6372
64.2019
64.7361
65.2376
65.7045
66.1358
66.5312
66.8911
67.2164
67.5087
67.7696
68.0013
68.206
68.386
68.5437
68.6812
68.8006
68.9039
68.9927
69.0685
69.1325
69.1858
69.2294
69.2642
69.2915
69.3124
69.3282
69.3397
69.3475
69.352
69.3537
69.3536
69.3535
69.3551
69.3592
69.3655
69.3728
69.3797
69.3853
69.3892
69.3916
69.3929
69.3933
69.393
69.392
69.3903
69.3881
69.3853
69.382
69.3781
69.3738
69.369
69.3638
69.3582
69.3521
69.3458
69.3391
69.3322
69.3253
69.3182
69.3121
69.305
69.3028
69.2934
69.3069
57.7791
58.3444
58.9164
59.4925
60.0708
60.6488
61.2233
61.791
62.3487
62.8932
63.4214
63.9302
64.4171
64.8797
65.3164
65.7257
66.1068
66.4594
66.7837
67.0801
67.3496
67.5934
67.8129
68.0097
68.1853
68.3415
68.4799
68.6022
68.7099
68.8047
68.8878
68.9605
69.0237
69.078
69.1241
69.1626
69.1943
69.2201
69.2408
69.2573
69.2699
69.2791
69.2853
69.2899
69.2945
69.3004
69.3082
69.3173
69.3264
69.3344
69.3408
69.3456
69.349
69.3513
69.3527
69.3532
69.353
69.352
69.3504
69.3481
69.3452
69.3417
69.3377
69.3331
69.3281
69.3227
69.317
69.3111
69.305
69.2997
69.2934
69.292
69.2833
69.2983
57.9941
58.463
58.9407
59.425
59.9155
60.4104
60.9075
61.4042
61.898
62.3864
62.8669
63.3366
63.7933
64.2346
64.6583
65.0627
65.4463
65.808
66.147
66.4631
66.7561
67.0263
67.2742
67.5007
67.7067
67.8932
68.0616
68.2129
68.3487
68.4701
68.5786
68.6755
68.7619
68.839
68.9075
68.9681
69.021
69.0667
69.1056
69.1382
69.1653
69.1875
69.2057
69.22
69.2311
69.2396
69.247
69.2545
69.2633
69.2734
69.2838
69.2934
69.3014
69.3078
69.3126
69.3162
69.3187
69.3203
69.3209
69.3208
69.3199
69.3183
69.3159
69.313
69.3094
69.3053
69.3008
69.296
69.2909
69.2865
69.281
69.2805
69.2725
69.2894
58.3778
58.761
59.1536
59.5549
59.9648
60.3819
60.8045
61.2311
61.6597
62.0884
62.5151
62.9378
63.3542
63.7622
64.1599
64.5452
64.9166
65.2725
65.6116
65.9329
66.2358
66.5199
66.785
67.0311
67.2586
67.468
67.6599
67.8352
67.9947
68.1395
68.2705
68.3889
68.4957
68.5921
68.679
68.7573
68.8279
68.8912
68.9475
68.9971
69.0402
69.0771
69.1082
69.1344
69.1561
69.174
69.1885
69.2
69.2096
69.2186
69.2282
69.2388
69.2497
69.2602
69.2692
69.2765
69.2822
69.2866
69.2898
69.2919
69.2931
69.2934
69.2929
69.2916
69.2896