/*--------------------------------*- C++ -*----------------------------------*\
| =========                 |                                                 |
| \\      /  F ield         | OpenFOAM: The Open Source CFD Toolbox           |
|  \\    /   O peration     | Version:  5.x                                   |
|   \\  /    A nd           | Web:      www.OpenFOAM.org                      |
|    \\/     M anipulation  |                                                 |
\*---------------------------------------------------------------------------*/
FoamFile
{
    version     2.0;
    format      ascii;
    class       volScalarField;
    location    "700";
    object      p;
}
// * * * * * * * * * * * * * * * * * * * * * * * * * * * * * * * * * * * * * //

dimensions      [0 2 -2 0 0 0 0];

internalField   nonuniform List<scalar> 
41860
(
0.0957045
52757.2
30444.8
93538.7
104586
115243
123714
130582
136510
141572
145972
149842
153352
156472
159374
161951
164395
166649
168756
170751
172609
174393
176078
177700
179254
180749
182195
183589
184951
186269
187566
188824
190070
191281
192488
193664
194837
195985
197132
198257
199387
200486
201503
202395
203280
204129
204970
205793
206595
207395
208167
208946
209693
210451
211181
211921
212638
213362
214068
214775
215473
216161
216859
217587
218311
219062
219813
220594
221382
222199
223045
223911
224824
225777
226774
227828
228968
230176
231552
232895
234937
235380
378.839
52770.2
30432.2
93482.6
104572
115230
123705
130574
136504
141567
145967
149838
153349
156469
159371
161949
164394
166648
168755
170750
172608
174392
176077
177699
179253
180748
182195
183588
184950
186268
187566
188824
190070
191281
192488
193664
194836
195984
197132
198257
199387
200486
201503
202395
203280
204128
204970
205793
206595
207395
208167
208946
209693
210451
211181
211921
212638
213362
214068
214775
215473
216161
216859
217587
218311
219062
219813
220594
221382
222199
223045
223911
224824
225777
226774
227828
228968
230176
231552
232895
234937
235377
951.432
52793.2
30427.5
93413.4
104556
115216
123693
130565
136496
141561
145962
149834
153345
156465
159368
161947
164391
166646
168753
170749
172607
174391
176076
177698
179252
180747
182194
183587
184950
186268
187566
188823
190069
191281
192488
193663
194836
195984
197132
198257
199387
200486
201503
202395
203280
204128
204970
205792
206595
207395
208167
208945
209693
210451
211181
211921
212638
213362
214068
214775
215473
216161
216859
217587
218311
219062
219813
220594
221382
222199
223045
223911
224824
225777
226774
227828
228968
230175
231552
232895
234938
235373
1656.3
52828.4
30431.6
93340.8
104540
115201
123681
130555
136488
141554
145957
149829
153341
156462
159365
161944
164389
166644
168752
170747
172605
174390
176075
177697
179251
180747
182193
183587
184949
186267
187565
188823
190069
191280
192487
193663
194836
195984
197132
198257
199386
200485
201503
202395
203280
204128
204970
205792
206595
207395
208166
208945
209693
210451
211181
211921
212638
213362
214068
214775
215472
216161
216859
217587
218311
219062
219813
220594
221382
222199
223045
223911
224824
225777
226774
227828
228968
230175
231552
232895
234938
235368
2543.62
52881.4
30446.1
93258
104523
115185
123669
130545
136479
141547
145951
149824
153337
156458
159362
161942
164387
166642
168750
170745
172604
174389
176074
177696
179250
180746
182192
183586
184948
186267
187565
188822
190069
191280
192487
193663
194835
195984
197131
198256
199386
200485
201503
202395
203280
204128
204970
205792
206595
207395
208166
208945
209693
210451
211180
211921
212638
213362
214068
214775
215472
216161
216859
217587
218311
219062
219813
220594
221382
222199
223045
223911
224824
225777
226774
227828
228968
230175
231552
232895
234938
235363
3663.72
52958.3
30475.3
93159.8
104504
115166
123654
130533
136469
141538
145944
149818
153332
156454
159358
161938
164384
166639
168747
170743
172602
174387
176073
177695
179249
180745
182191
183585
184948
186266
187564
188822
190068
191280
192486
193662
194835
195983
197131
198256
199386
200485
201502
202394
203279
204128
204969
205792
206595
207394
208166
208945
209693
210450
211180
211921
212637
213361
214067
214774
215472
216161
216859
217587
218311
219062
219813
220594
221382
222199
223045
223911
224824
225777
226774
227828
228968
230175
231552
232895
234938
235357
5051.38
53065.3
30522.5
93042.5
104483
115144
123636
130518
136457
141528
145935
149811
153326
156449
159354
161934
164380
166636
168745
170741
172600
174385
176071
177694
179248
180744
182190
183584
184947
186265
187563
188821
190067
191279
192486
193662
194835
195983
197131
198256
199386
200485
201502
202394
203279
204127
204969
205792
206594
207394
208166
208945
209693
210450
211180
211921
212637
213361
214067
214774
215472
216161
216859
217587
218311
219062
219813
220594
221382
222199
223045
223911
224824
225777
226773
227828
228968
230175
231552
232895
234939
235349
6745.71
53209.4
30591.2
92901.8
104457
115118
123616
130501
136443
141516
145925
149802
153318
156442
159348
161930
164376
166633
168742
170738
172598
174383
176069
177692
179246
180742
182189
183583
184946
186264
187562
188820
190067
191278
192485
193661
194834
195982
197130
198255
199385
200484
201502
202394
203279
204127
204969
205791
206594
207394
208166
208945
209692
210450
211180
211921
212637
213361
214067
214774
215472
216161
216859
217587
218311
219062
219813
220594
221382
222199
223045
223911
224823
225777
226773
227828
228968
230175
231551
232895
234939
235340
8796.28
53399.6
30686.7
92733
104427
115087
123591
130481
136425
141502
145913
149792
153310
156435
159342
161924
164372
166629
168738
170735
172595
174380
176067
177690
179245
180741
182188
183582
184945
186263
187561
188819
190066
191278
192485
193661
194834
195982
197130
198255
199385
200484
201501
202393
203279
204127
204969
205791
206594
207394
208166
208944
209692
210450
211180
211920
212637
213361
214067
214774
215472
216161
216859
217587
218311
219062
219813
220594
221382
222199
223045
223911
224823
225777
226773
227828
228968
230175
231551
232894
234939
235329
11262.1
53647.6
30816.3
92530.5
104391
115051
123562
130457
136405
141485
145899
149780
153299
156426
159334
161918
164366
166624
168734
170731
172592
174378
176064
177688
179242
180739
182186
183580
184943
186262
187560
188818
190065
191277
192484
193660
194833
195981
197129
198254
199384
200483
201501
202393
203278
204126
204968
205791
206594
207394
208165
208944
209692
210450
211180
211920
212637
213361
214067
214774
215472
216161
216859
217587
218310
219062
219813
220594
221382
222199
223045
223911
224823
225777
226773
227827
228968
230175
231551
232894
234939
235316
14211.1
53968.4
30989.2
92288.1
104349
115008
123527
130428
136381
141465
145882
149766
153287
156416
159325
161910
164359
166618
168729
170727
172588
174374
176061
177685
179240
180737
182184
183579
184942
186260
187559
188817
190064
191276
192483
193659
194832
195980
197128
198254
199384
200483
201500
202392
203278
204126
204968
205790
206593
207393
208165
208944
209692
210449
211180
211920
212637
213361
214067
214774
215472
216161
216858
217587
218310
219062
219813
220594
221382
222199
223045
223911
224823
225777
226773
227827
228968
230175
231551
232894
234939
235301
17720.3
54381.2
31217
91998.3
104299
114957
123486
130394
136352
141441
145862
149749
153273
156404
159315
161901
164351
166611
168723
170722
172583
174370
176058
177682
179237
180734
182182
183577
184940
186259
187557
188816
190063
191275
192482
193658
194831
195980
197128
198253
199383
200482
201500
202392
203277
204126
204968
205790
206593
207393
208165
208944
209691
210449
211179
211920
212636
213361
214067
214774
215472
216161
216858
217587
218310
219062
219813
220594
221382
222198
223045
223911
224823
225776
226773
227827
228968
230175
231551
232894
234940
235284
21876.4
54910.8
31514.4
91652.9
104240
114897
123437
130354
136318
141413
145839
149729
153256
156389
159302
161890
164342
166603
168716
170716
172578
174365
176053
177678
179234
180731
182179
183574
184938
186257
187556
188814
190061
191273
192481
193657
194830
195979
197127
198252
199382
200482
201499
202391
203277
204125
204967
205790
206592
207392
208164
208943
209691
210449
211179
211919
212636
213360
214066
214774
215471
216160
216858
217586
218310
219062
219813
220594
221382
222198
223045
223911
224823
225776
226773
227827
228968
230175
231551
232893
234940
235264
26775.2
55589.6
31899.9
91242.4
104170
114826
123380
130306
136278
141380
145811
149706
153235
156372
159288
161878
164331
166594
168708
170708
172571
174360
176048
177674
179230
180728
182176
183571
184935
186255
187554
188812
190060
191272
192479
193656
194829
195978
197126
198252
199382
200481
201498
202391
203276
204125
204966
205789
206592
207392
208164
208943
209691
210449
211179
211919
212636
213360
214066
214773
215471
216160
216858
217586
218310
219061
219813
220594
221382
222198
223045
223911
224823
225776
226773
227827
228968
230175
231551
232893
234940
235241
32520.9
56459.9
32397.6
90756.2
104086
114743
123312
130250
136231
141341
145778
149678
153212
156352
159270
161863
164318
166582
168698
170700
172564
174353
176043
177669
179226
180724
182173
183568
184932
186252
187551
188810
190058
191270
192478
193654
194828
195977
197125
198251
199381
200480
201497
202390
203275
204124
204966
205789
206591
207391
208164
208942
209690
210448
211178
211919
212636
213360
214066
214773
215471
216160
216858
217586
218310
219061
219813
220594
221382
222198
223045
223911
224823
225777
226773
227827
228968
230175
231552
232893
234939
235215
39223.6
57576.9
33038.5
90182.9
103986
114646
123232
130183
136175
141294
145739
149645
153183
156328
159250
161846
164303
166569
168687
170690
172555
174346
176036
177663
179220
180719
182169
183565
184929
186249
187549
188808
190056
191268
192476
193653
194826
195975
197124
198249
199380
200479
201496
202389
203274
204123
204965
205788
206591
207391
208163
208942
209690
210448
211178
211919
212635
213360
214066
214773
215471
216160
216858
217586
218310
219061
219813
220594
221382
222199
223045
223911
224823
225777
226773
227828
228968
230175
231552
232892
234938
235188
46996.2
59012.8
33862.9
89510.6
103866
114532
123137
130105
136108
141239
145693
149606
153150
156300
159225
161825
164285
166554
168673
170678
172545
174337
176028
177656
179214
180714
182164
183560
184925
186246
187546
188805
190053
191266
192474
193651
194825
195974
197122
198248
199379
200478
201495
202388
203273
204122
204964
205787
206590
207390
208163
208941
209690
210447
211178
211918
212635
213359
214066
214773
215471
216160
216858
217586
218310
219061
219813
220594
221382
222199
223045
223911
224824
225777
226774
227828
228968
230175
231552
232892
234937
235157
55948.7
60861.7
34924.1
88727.6
103721
114400
123027
130013
136031
141175
145639
149561
153112
156267
159197
161801
164265
166536
168658
170665
172534
174327
176019
177648
179207
180708
182158
183556
184921
186242
187542
188802
190050
191264
192472
193649
194823
195972
197121
198247
199377
200477
201494
202387
203272
204122
204964
205787
206590
207390
208162
208941
209689
210447
211177
211918
212635
213359
214065
214773
215471
216160
216858
217586
218310
219062
219813
220594
221382
222199
223045
223912
224824
225777
226774
227828
228969
230176
231552
232892
234936
235124
66178.9
63245.1
36292.4
87825.8
103543
114248
122897
129905
135939
141099
145576
149507
153066
156228
159164
161773
164240
166515
168640
170649
172520
174315
176009
177639
179199
180701
182152
183550
184916
186238
187538
188799
190047
191261
192469
193647
194821
195970
197119
198245
199376
200476
201493
202386
203271
204121
204963
205786
206589
207389
208161
208940
209689
210446
211177
211917
212635
213359
214065
214772
215471
216160
216859
217587
218311
219062
219813
220594
221383
222199
223046
223912
224824
225777
226774
227828
228969
230176
231553
232891
234936
235089
77760.9
66318.4
38061.2
86803.4
103324
114072
122745
129778
135832
141011
145502
149445
153013
156184
159125
161740
164212
166491
168619
170631
172505
174301
175997
177629
179190
180693
182145
183544
184911
186233
187534
188795
190044
191258
192466
193644
194818
195968
197117
198244
199374
200475
201492
202384
203270
204120
204962
205785
206588
207388
208161
208940
209688
210446
211177
211917
212634
213358
214065
214772
215471
216161
216859
217587
218311
219062
219814
220595
221383
222200
223046
223913
224825
225778
226775
227829
228970
230176
231553
232891
234938
235057
90733.2
70277
40355.7
85671.2
103054
113873
122570
129631
135707
140908
145416
149373
152952
156131
159081
161702
164180
166463
168595
170610
172487
174286
175984
177617
179180
180684
182138
183537
184905
186228
187529
188791
190040
191255
192463
193642
194816
195966
197115
198242
199373
200474
201490
202383
203269
204119
204961
205784
206587
207388
208160
208939
209688
210445
211177
211917
212634
213358
214065
214772
215471
216161
216859
217587
218312
219063
219814
220595
221384
222200
223047
223913
224825
225779
226776
227830
228970
230177
231554
232891
234940
235035
105091
75362.1
43342.6
84462
102722
113650
122370
129461
135563
140788
145317
149290
152881
156071
159029
161659
164142
166431
168568
170587
172467
174268
175968
177604
179169
180674
182129
183530
184898
186222
187524
188787
190036
191251
192460
193639
194814
195964
197113
198240
199371
200473
201489
202382
203268
204118
204960
205783
206587
207387
208160
208939
209688
210445
211176
211917
212634
213358
214065
214772
215471
216162
216860
217588
218313
219063
219815
220596
221385
222201
223048
223914
224826
225780
226777
227831
228971
230178
231555
232890
234943
235028
120767
81864.4
47243.6
83245.1
102316
113408
122145
129268
135397
140651
145202
149194
152799
156003
158970
161609
164099
166394
168537
170560
172444
174248
175951
177589
179156
180663
182119
183521
184891
186216
187519
188782
190032
191248
192457
193636
194811
195962
197111
198239
199370
200472
201488
202381
203266
204117
204959
205783
206586
207386
208160
208938
209688
210445
211177
211916
212634
213358
214066
214773
215472
216163
216861
217589
218314
219064
219817
220597
221386
222202
223049
223916
224828
225781
226778
227832
228973
230179
231556
232890
234947
235040
137579
90112.8
52349.2
82149.3
101828
113151
121901
129053
135211
140497
145073
149085
152707
155925
158904
161553
164051
166353
168502
170530
172418
174227
175932
177573
179142
180651
182109
183512
184883
186209
187513
188777
190027
191244
192453
193634
194808
195960
197109
198237
199368
200471
201487
202380
203265
204116
204958
205782
206586
207386
208160
208938
209688
210445
211177
211917
212635
213359
214066
214773
215473
216164
216863
217590
218315
219066
219818
220599
221388
222204
223051
223918
224829
225783
226780
227834
228974
230181
231558
232890
234951
235072
155180
100438
59028
81398.2
101263
112892
121647
128819
135006
140325
144929
148965
152604
155839
158830
161491
163998
166308
168464
170497
172391
174203
175912
177555
179127
180638
182098
183503
184876
186202
187507
188772
190023
191241
192450
193631
194806
195958
197108
198236
199367
200470
201486
202379
203265
204116
204958
205782
206586
207386
208160
208938
209688
210445
211177
211917
212636
213359
214067
214774
215474
216166
216865
217592
218318
219068
219820
220601
221390
222206
223053
223920
224832
225785
226782
227836
228976
230182
231559
232890
234954
235123
173034
113102
67723.3
81359.2
100668
112647
121407
128579
134788
140140
144774
148835
152492
155746
158749
161424
163941
166259
168423
170462
172361
174178
175890
177537
179112
180625
182087
183494
184868
186196
187502
188768
190019
191238
192447
193629
194804
195957
197106
198235
199366
200470
201486
202379
203264
204116
204958
205782
206586
207386
208161
208938
209689
210446
211179
211918
212637
213360
214068
214776
215476
216168
216868
217595
218320
219071
219823
220603
221393
222209
223056
223923
224835
225788
226785
227839
228978
230184
231560
232890
234957
235189
190410
128169
78917.5
82590.4
100176
112451
121218
128355
134570
139952
144614
148700
152376
155649
158665
161355
163882
166209
168382
170426
172332
174153
175869
177520
179097
180613
182077
183485
184861
186190
187497
188765
190016
191236
192446
193628
194803
195957
197106
198236
199366
200471
201486
202380
203264
204117
204959
205783
206587
207387
208162
208939
209691
210447
211180
211919
212639
213362
214071
214778
215478
216172
216872
217598
218324
219074
219827
220607
221397
222213
223060
223927
224838
225792
226789
227842
228981
230187
231562
232890
234957
235266
206429
145330
93039.8
85863.8
100079
112363
121140
128192
134377
139776
144462
148570
152262
155554
158583
161287
163824
166161
168342
170392
172305
174130
175850
177504
179084
180603
182070
183479
184856
186187
187495
188763
190015
191236
192446
193629
194804
195958
197107
198237
199368
200474
201488
202381
203266
204119
204960
205785
206590
207389
208164
208941
209693
210449
211183
211921
212642
213364
214073
214781
215482
216176
216876
217603
218329
219079
219832
220612
221402
222218
223064
223932
224842
225796
226793
227846
228984
230189
231562
232889
234953
235353
220175
163749
110278
92130.2
100922
112509
121248
128160
134253
139639
144337
148461
152164
155471
158511
161228
163775
166119
168309
170365
172283
174113
175837
177494
179076
180598
182066
183477
184856
186187
187495
188765
190017
191239
192448
193632
194807
195961
197110
198241
199371
200478
201491
202385
203269
204123
204963
205788
206593
207392
208168
208944
209697
210452
211187
211925
212646
213368
214078
214785
215486
216182
216883
217608
218336
219084
219839
220617
221408
222224
223070
223937
224848
225801
226798
227850
228987
230191
231561
232888
234942
235448
230921
182056
130290
102351
103606
113181
121646
128357
134273
139586
144269
148397
152101
155417
158462
161189
163742
166093
168289
170350
172273
174106
175833
177493
179077
180600
182070
183482
184861
186194
187502
188772
190024
191246
192455
193640
194814
195969
197117
198247
199377
200485
201497
202391
203274
204128
204969
205793
206599
207397
208174
208949
209703
210457
211193
211930
212651
213373
214083
214791
215493
216189
216891
217616
218344
219092
219847
220625
221416
222231
223077
223945
224854
225807
226803
227854
228990
230193
231559
232886
234920
235549
238420
198686
151951
117106
109377
115015
122531
128913
134552
139696
144309
148413
152102
155415
158455
161186
163741
166094
168295
170356
172283
174118
175845
177506
179092
180616
182085
183498
184877
186209
187517
188788
190039
191261
192468
193653
194826
195981
197128
198259
199387
200497
201507
202400
203282
204137
204977
205802
206607
207405
208182
208957
209711
210464
211201
211937
212659
213381
214091
214799
215501
216199
216902
217626
218354
219102
219857
220634
221425
222240
223086
223953
224862
225814
226809
227859
228993
230193
231553
232882
234883
235647
243015
212347
173384
136032
119500
119127
124364
130023
135247
140098
144545
148569
152210
155499
158519
161242
163791
166140
168338
170397
172324
174157
175883
177543
179127
180651
182119
183530
184908
186240
187545
188815
190065
191286
192492
193676
194847
196001
197147
198277
199404
200514
201522
202415
203295
204151
204990
205814
206620
207417
208194
208968
209723
210475
211212
211947
212670
213391
214102
214810
215513
216212
216915
217639
218368
219115
219870
220647
221438
222252
223097
223964
224871
225823
226816
227864
228994
230192
231542
232873
234828
235731
245441
222484
192471
157426
134505
126931
128073
132087
136573
140965
145114
148962
152496
155720
158694
161390
163918
166251
168440
170489
172410
174237
175959
177614
179194
180714
182179
183587
184961
186290
187593
188861
190107
191326
192529
193712
194880
196033
197176
198305
199430
200540
201546
202437
203316
204171
205009
205833
206638
207434
208212
208983
209739
210490
211228
211962
212685
213405
214117
214825
215528
216229
216933
217656
218385
219131
219886
220662
221453
222266
223110
223976
224882
225832
226823
227868
228992
230186
231523
232855
234748
235784
246454
229432
207670
178507
153364
139388
134992
135933
138940
142539
146201
149737
153068
156161
159042
161678
164161
166461
168626
170655
172562
174375
176087
177732
179304
180817
182274
183677
185045
186370
187667
188931
190172
191388
192586
193765
194930
196080
197219
198346
199468
200577
201580
202470
203346
204201
205037
205859
206664
207458
208236
209006
209762
210511
211249
211982
212705
213425
214137
214845
215549
216251
216956
217678
218407
219152
219907
220681
221471
222284
223126
223991
224894
225841
226829
227869
228987
230174
231494
232824
234637
235788
246598
233961
218620
196565
173397
155932
146131
142769
143152
145276
148086
151093
154081
156942
159658
162179
164577
166815
168933
170925
172804
174594
176286
177915
179471
180972
182418
183812
185170
186487
187776
189033
190267
191477
192669
193843
195002
196148
197282
198406
199523
200630
201629
202516
203389
204242
205077
205897
206700
207493
208270
209038
209793
210541
211279
212010
212733
213452
214163
214871
215576
216279
216985
217706
218435
219178
219933
220706
221494
222305
223145
224008
224908
225851
226833
227867
228975
230152
231449
232771
234488
235722
246201
236736
225905
210246
191515
174164
161044
153427
150283
150001
151303
153370
155764
158232
160676
163003
165255
167383
169418
171345
173175
174924
176583
178184
179716
181197
182625
184004
185348
186652
187929
189176
190400
191602
192785
193952
195103
196243
197370
198489
199600
200703
201698
202581
203449
204300
205132
205949
206751
207540
208316
209082
209836
210582
211319
212048
212771
213488
214199
214907
215611
216316
217023
217742
218470
219212
219965
220736
221522
222330
223168
224027
224922
225859
226834
227859
228954
230115
231381
232686
234294
235568
245465
238278
230476
219642
205797
191092
177545
167297
160836
157591
156663
157175
158536
160318
162298
164304
166318
168267
170164
171984
173730
175412
177018
178573
180068
181517
182918
184273
185595
186881
188141
189372
190583
191772
192943
194099
195241
196371
197490
198601
199704
200801
201790
202668
203532
204378
205207
206020
206819
207605
208379
209142
209894
210637
211372
212100
212820
213536
214246
214953
215658
216362
217070
217787
218514
219254
220005
220772
221556
222360
223193
224047
224935
225864
226829
227841
228917
230056
231284
232556
234044
235311
244512
238962
233191
225644
215882
204683
192906
182292
173926
168147
164763
163224
163030
163688
164882
166342
167959
169618
171293
172943
174554
176128
177647
179132
180567
181967
183325
184644
185935
187193
188429
189639
190829
192000
193156
194296
195424
196542
197649
198749
199842
200931
201912
202784
203641
204482
205305
206114
206908
207691
208460
209220
209969
210709
211441
212166
212885
213598
214307
215013
215717
216421
217128
217844
218568
219305
220052
220816
221595
222395
223221
224067
224946
225863
226814
227808
228859
229967
231147
232370
233731
234948
243426
239061
234679
229286
222458
214407
205263
195995
187518
180495
175269
171752
169753
168909
168933
169525
170494
171677
172993
174370
175770
177175
178559
179932
181276
182599
183892
185157
186401
187619
188818
189997
191159
192305
193438
194558
195667
196767
197858
198944
200024
201100
202072
202935
203783
204617
205434
206236
207025
207801
208566
209321
210066
210802
211531
212252
212968
213678
214385
215088
215790
216493
217199
217912
218633
219366
220109
220867
221640
222432
223249
224085
224952
225853
226784
227753
228772
229840
230960
232117
233348
234482
242270
238775
235363
231385
226525
220825
214146
206891
199564
192703
186789
182031
178536
176186
174843
174295
174333
174792
175546
176492
177558
178701
179876
181079
182283
183490
184687
185869
187043
188200
189348
190480
191602
192712
193812
194903
195986
197063
198133
199199
200260
201320
202278
203130
203968
204791
205599
206394
207175
207944
208703
209451
210190
210921
211645
212361
213073
213779
214482
215182
215881
216582
217285
217994
218710
219437
220174
220925
221689
222471
223276
224098
224949
225829
226735
227672
228651
229667
230718
231793
232894
233923
241095
238251
235531
232501
228937
224850
220061
214698
208960
203138
197593
192588
188355
184973
182464
180773
179752
179299
179284
179608
180175
180917
181775
182719
183713
184746
185798
186860
187930
188999
190070
191135
192199
193258
194312
195363
196409
197453
198493
199532
200568
201606
202546
203383
204206
205017
205813
206596
207367
208127
208877
209617
210348
211072
211788
212499
213204
213905
214602
215298
215993
216688
217387
218090
218800
219519
220248
220989
221741
222511
223300
224104
224932
225786
226659
227558
228487
229442
230415
231398
232376
233288
239948
237602
235388
233012
230314
227302
223833
219934
215656
211112
206497
201996
197815
194102
190961
188466
186555
185216
184369
183950
183876
184075
184483
185052
185738
186514
187354
188237
189156
190097
191057
192027
193008
193993
194983
195976
196972
197969
198968
199970
200973
201979
202894
203711
204515
205308
206088
206856
207613
208361
209098
209827
210548
211262
211969
212671
213368
214061
214751
215440
216127
216816
217507
218203
218904
219613
220329
221057
221794
222547
223316
224096
224897
225717
226552
227403
228275
229162
230051
230936
231799
232599
238880
236915
235077
233160
231047
228747
226157
223279
220110
216680
213072
209382
205736
202264
199068
196275
193876
191933
190419
189326
188607
188211
188091
188196
188483
188918
189467
190105
190814
191575
192381
193218
194083
194967
195868
196783
197708
198643
199586
200537
201495
202459
203341
204130
204910
205679
206438
207187
207925
208656
209377
210091
210799
211499
212194
212884
213570
214252
214932
215610
216288
216967
217647
218331
219020
219715
220416
221127
221845
222575
223319
224071
224838
225619
226408
227206
228015
228829
229635
230426
231187
231888
237934
236254
234690
233093
231374
229543
227525
225318
222907
220292
217504
214582
211590
208614
205720
203031
200553
198375
196505
194974
193774
192883
192283
191932
191803
191862
192079
192426
192880
193421
194034
194704
195422
196178
196966
197780
198617
199473
200346
201233
202132
203045
203884
204639
205387
206128
206860
207583
208299
209008
209710
210406
211095
211779
212459
213134
213805
214474
215140
215805
216470
217135
217802
218471
219144
219822
220505
221195
221890
222595
223310
224028
224758
225497
226237
226980
227727
228470
229198
229908
230583
231205
237117
235654
234295
232928
231485
229973
228339
226579
224679
222631
220442
218128
215714
213252
210775
208380
206070
203927
201973
200255
198791
197579
196628
195913
195424
195136
195030
195082
195268
195568
195966
196446
196995
197602
198257
198954
199686
200448
201236
202047
202879
203729
204517
205232
205942
206648
207348
208042
208731
209414
210093
210766
211435
212099
212760
213417
214071
214722
215372
216021
216670
217319
217969
218621
219275
219933
220594
221261
221930
222606
223290
223974
224664
225359
226051
226741
227428
228107
228768
229406
230012
230571
236413
235120
233921
232729
231489
230207
228844
227396
225852
224202
222446
220588
218635
216619
214550
212497
210457
208495
206632
204913
203367
202005
200850
199892
199138
198573
198190
197974
197904
197967
198146
198425
198793
199236
199744
200308
200920
201575
202266
202990
203742
204520
205249
205916
206582
207246
207909
208569
209226
209880
210530
211177
211821
212462
213101
213736
214370
215002
215632
216262
216891
217520
218150
218782
219415
220050
220687
221327
221969
222614
223264
223911
224562
225213
225858
226496
227129
227750
228351
228929
229477
229985
235803
234649
233579
232524
231440
230332
229170
227949
226662
225300
223860
222342
220744
219086
217368
215638
213884
212157
210470
208861
207360
205978
204747
203665
202749
201995
201405
200973
200687
200537
200510
200596
200782
201057
201411
201833
202317
202854
203438
204064
204726
205423
206085
206696
207312
207930
208549
209170
209789
210409
211027
211644
212259
212873
213486
214097
214706
215315
215922
216529
217136
217743
218350
218958
219566
220176
220786
221398
222009
222622
223237
223847
224457
225065
225664
226255
226837
227406
227954
228481
228981
229445
235273
234235
233272
232329
231369
230397
229388
228341
227246
226099
224894
223631
222305
220929
219497
218042
216552
215061
213578
212130
210743
209426
208212
207101
206116
205259
204537
203954
203503
203181
202980
202894
202912
203027
203229
203510
203860
204274
204745
205266
205832
206439
207027
207577
208135
208701
209272
209848
210426
211006
211588
212170
212753
213336
213919
214501
215083
215665
216247
216828
217409
217990
218571
219152
219734
220315
220896
221477
222056
222635
223214
223786
224357
224923
225478
226024
226559
227081
227584
228066
228524
228952
234812
233872
232999
232149
231291
230429
229542
228630
227685
226702
225677
224609
223493
222337
221133
219906
218642
217366
216080
214806
213562
212355
211214
210140
209155
208265
207480
206809
206250
205805
205470
205244
205120
205093
205156
205302
205524
205817
206172
206585
207051
207564
208072
208555
209052
209561
210078
210604
211136
211673
212214
212758
213304
213852
214402
214952
215504
216055
216608
217160
217712
218265
218817
219369
219920
220472
221021
221570
222115
222659
223201
223736
224267
224793
225307
225810
226303
226783
227244
227688
228109
228505
234410
233554
232760
231989
231216
230444
229657
228852
228026
227173
226289
225374
224422
223439
222418
221376
220300
219208
218101
216991
215895
214815
213775
212775
211836
210964
210170
209464
208848
208327
207902
207573
207338
207195
207140
207167
207272
207450
207696
208003
208368
208785
209212
209626
210058
210505
210966
211439
211921
212411
212907
213409
213915
214425
214938
215453
215970
216488
217008
217528
218049
218570
219091
219611
220131
220649
221166
221681
222191
222700
223205
223703
224196
224682
225157
225621
226075
226516
226940
227348
227737
228104
234059
233277
232550
231848
231148
230452
229747
229032
228302
227553
226783
225989
225168
224323
223448
222556
221635
220698
219744
218783
217825
216872
215942
215035
214167
213344
212578
211877
211245
210690
210213
209819
209506
209276
209128
209057
209063
209140
209285
209494
209763
210087
210432
210776
211142
211527
211929
212346
212775
213215