/*--------------------------------*- C++ -*----------------------------------*\
| =========                 |                                                 |
| \\      /  F ield         | OpenFOAM: The Open Source CFD Toolbox           |
|  \\    /   O peration     | Version:  5.x                                   |
|   \\  /    A nd           | Web:      www.OpenFOAM.org                      |
|    \\/     M anipulation  |                                                 |
\*---------------------------------------------------------------------------*/
FoamFile
{
    version     2.0;
    format      ascii;
    class       volVectorField;
    location    "700";
    object      U;
}
// * * * * * * * * * * * * * * * * * * * * * * * * * * * * * * * * * * * * * //

dimensions      [0 1 -1 0 0 0 0];

internalField   nonuniform List<vector> 
11040
(
(-4.50716 25.0889 0)
(-0.63198 30.5777 -1.53165e-19)
(5.69828 33.7791 1.58428e-17)
(11.5762 32.7426 1.8304e-17)
(16.0357 29.4381 3.79918e-17)
(19.1038 25.279 -1.8178e-17)
(21.0031 20.9323 -1.77028e-17)
(21.9292 16.791 1.76582e-17)
(22.0563 13.0683 3.85961e-17)
(21.4741 9.79742 1.24205e-18)
(19.8738 6.69364 1.67344e-17)
(17.6943 4.20192 -7.10141e-19)
(15.8089 2.69512 1.02755e-17)
(14.4963 1.91551 6.85721e-18)
(13.2026 1.32216 2.82835e-18)
(11.5917 0.756415 -6.11866e-19)
(9.67369 0.287701 3.14701e-18)
(7.55153 -0.0363855 8.32725e-19)
(5.24793 -0.223164 -9.8162e-19)
(2.77296 -0.276396 -1.46321e-17)
(0.475036 -0.155851 -2.2304e-17)
(-1.12142 0.0324149 -3.17494e-17)
(-2.0028 0.14964 -6.02723e-17)
(-2.53693 0.235776 -3.82933e-18)
(-2.83356 0.305357 -1.63664e-20)
(-2.97519 0.360477 2.00847e-18)
(-3.03638 0.408845 -1.3078e-16)
(-3.06995 0.458259 2.05327e-18)
(-3.10659 0.509012 -1.33854e-16)
(-3.1647 0.560786 1.29059e-16)
(-3.2556 0.617314 2.00129e-18)
(-3.38865 0.681171 9.58825e-19)
(-3.56716 0.751778 -9.04571e-19)
(-3.7771 0.823144 0)
(-3.97082 0.881186 2.02192e-16)
(-4.0541 0.903895 0)
(-3.91905 0.867785 0)
(-3.5396 0.759096 -3.69667e-19)
(-2.75409 0.492013 4.42012e-19)
(-1.6234 -0.141795 -2.16335e-16)
(-1.56402 -0.999021 -1.95364e-16)
(-0.27401 24.3954 0)
(4.02905 28.5193 0)
(11.7128 30.0625 -8.95883e-18)
(18.2453 28.7813 9.33206e-18)
(22.9265 26.6871 -2.24983e-17)
(26.1933 24.3335 2.28364e-17)
(28.3046 21.6614 1.08303e-17)
(29.3781 18.7255 1.38849e-18)
(29.5629 15.679 -9.0077e-19)
(29.0208 12.6894 1.05308e-17)
(27.636 9.65968 -1.17143e-18)
(25.3315 7.05286 0)
(22.7289 5.18353 0)
(20.4154 3.88536 -3.15056e-18)
(18.3631 2.82109 -1.49494e-18)
(16.2761 1.96065 5.84689e-19)
(14.0227 1.2998 0)
(11.5488 0.805965 -3.55497e-19)
(8.81134 0.462073 1.33169e-18)
(5.85594 0.260452 1.29588e-18)
(2.84744 0.18266 7.69926e-18)
(0.497463 0.197272 1.11377e-17)
(-0.917328 0.232554 1.68508e-18)
(-1.82095 0.273615 -2.95207e-17)
(-2.37553 0.319362 2.79694e-17)
(-2.69994 0.366189 2.00366e-18)
(-2.90343 0.416607 6.74041e-17)
(-3.05442 0.470341 -1.09199e-18)
(-3.18831 0.527292 7.25534e-17)
(-3.32792 0.588963 -7.21566e-17)
(-3.48094 0.656157 -7.25836e-17)
(-3.64835 0.729065 7.14558e-17)
(-3.82194 0.804622 -1.40506e-21)
(-3.98161 0.875181 -1.45411e-18)
(-4.09 0.927433 -5.76991e-17)
(-4.09178 0.94 0)
(-3.93909 0.893469 -3.98706e-19)
(-3.52497 0.777103 9.46377e-17)
(-2.56007 0.554558 9.64555e-17)
(-0.74567 -0.0336806 9.0046e-17)
(-0.27742 -1.14699 1.27756e-16)
(1.51378 23.4649 0)
(5.47004 26.6003 0)
(10.8828 28.2015 2.34375e-18)
(15.9453 28.0852 -6.76681e-18)
(20.0429 26.7065 6.9774e-18)
(23.4049 24.6129 -8.31464e-18)
(26.0915 22.1198 -6.31485e-18)
(28.0387 19.405 0)
(29.2176 16.5973 -9.66941e-18)
(29.6706 13.8088 -5.38964e-18)
(29.3386 10.9691 0)
(28.0527 8.44122 0)
(26.1341 6.47778 -3.54667e-18)
(24.055 4.98815 -2.23609e-18)
(21.9279 3.72783 -4.9574e-20)
(19.6756 2.70107 5.19927e-20)
(17.2598 1.91217 0)
(14.6573 1.32849 0)
(11.8067 0.919386 -2.91766e-19)
(8.6762 0.648566 8.21203e-19)
(5.35296 0.478726 -9.26354e-19)
(2.54683 0.378921 4.39656e-18)
(0.636889 0.320042 -3.52997e-20)
(-0.681978 0.299878 -1.40421e-17)
(-1.53758 0.311956 -1.14264e-18)
(-2.08421 0.344339 -1.24261e-18)
(-2.45101 0.392009 -1.58023e-21)
(-2.71166 0.448084 1.38993e-18)
(-2.91643 0.509485 0)
(-3.09725 0.575188 0)
(-3.26981 0.64419 9.52601e-17)
(-3.44151 0.715735 -9.28955e-17)
(-3.61305 0.786377 4.42774e-17)
(-3.77636 0.849161 0)
(-3.90646 0.8927 3.95391e-17)
(-3.94991 0.893623 3.72061e-17)
(-3.83914 0.816909 0)
(-3.4799 0.641848 1.32091e-19)
(-2.58615 0.335655 -2.19843e-19)
(-0.792389 -0.366175 0)
(-0.210324 -1.7019 -5.49687e-17)
(3.33152 22.4027 1.0331e-19)
(7.03119 24.8594 -1.06665e-19)
(11.2588 26.2143 2.957e-19)
(15.6865 26.3224 0)
(19.5511 25.284 -7.23385e-18)
(22.6769 23.5577 0)
(25.147 21.4181 1.40583e-17)
(26.987 19.0289 1.19287e-20)
(28.2188 16.5289 1.35788e-18)
(28.8934 14.0336 8.25948e-18)
(29.0153 11.5061 1.18788e-18)
(28.4415 9.18775 2.75893e-18)
(27.2846 7.3136 6.29125e-18)
(25.8348 5.8479 1.74477e-18)
(24.1786 4.57405 0)
(22.2503 3.48217 1.76664e-19)
(20.0298 2.60181 2.52655e-19)
(17.5333 1.92974 7.03607e-19)
(14.7392 1.44742 4.71976e-19)
(11.6089 1.11363 -5.01825e-19)
(8.15243 0.871249 -2.75202e-18)
(5.00947 0.671892 -3.94005e-18)
(2.59976 0.506179 0)
(0.787646 0.39794 2.5168e-17)
(-0.449633 0.349712 -1.52361e-17)
(-1.26902 0.346789 1.42639e-17)
(-1.82284 0.376671 -2.98374e-17)
(-2.20865 0.424982 0)
(-2.49703 0.48357 0)
(-2.72799 0.548032 0)
(-2.92797 0.616204 -3.39696e-17)
(-3.11491 0.687189 3.47312e-17)
(-3.29964 0.757339 -1.00541e-18)
(-3.48243 0.818394 -3.18251e-17)
(-3.6434 0.856445 -2.7866e-17)
(-3.73065 0.844215 -2.74254e-17)
(-3.67823 0.739213 -4.80596e-17)
(-3.40698 0.513475 -4.20501e-17)
(-2.65972 0.140842 -1.51268e-19)
(-1.07723 -0.602784 -3.49375e-17)
(-0.504263 -2.03243 2.12286e-17)
(5.15181 21.2371 0)
(8.39452 23.1644 1.53926e-19)
(11.7665 24.281 -5.16583e-20)
(15.4071 24.6025 2.86686e-19)
(18.8016 24.0297 5.43254e-18)
(21.7101 22.7727 -5.0534e-18)
(24.1174 21.0224 -1.85306e-18)
(25.9843 18.9271 -6.50703e-18)
(27.2856 16.6436 0)
(28.0563 14.3107 -7.61035e-18)
(28.3349 11.9476 0)
(28.0644 9.74611 -1.68318e-18)
(27.3181 7.92394 -3.39437e-18)
(26.3105 6.48843 0)
(25.1352 5.26064 5.44217e-19)
(23.715 4.19589 0)
(21.9784 3.31378 0)
(19.9016 2.61744 -3.74295e-19)
(17.4516 2.09668 -5.54313e-19)
(14.5801 1.71767 0)
(11.2387 1.41689 2.06187e-18)
(7.96976 1.13218 0)
(5.16382 0.851973 0)
(2.80826 0.618272 -8.38059e-18)
(1.05104 0.468095 0)
(-0.158366 0.399177 1.15152e-17)
(-0.974473 0.390259 2.41206e-17)
(-1.53565 0.416476 0)
(-1.94022 0.463106 0)
(-2.24461 0.520789 0)
(-2.48925 0.585188 2.76304e-17)
(-2.70295 0.654613 2.34455e-17)
(-2.90683 0.724713 -2.43572e-17)
(-3.11051 0.785021 -7.58394e-19)
(-3.30183 0.817878 6.99277e-19)
(-3.43584 0.791905 0)
(-3.45394 0.658922 3.76696e-17)
(-3.29224 0.383357 -3.28264e-17)
(-2.7315 -0.0523487 2.96103e-17)
(-1.45394 -0.814067 2.67262e-17)
(-0.961414 -2.22491 3.60011e-20)
(6.82473 20.0094 -2.30157e-19)
(9.58878 21.5161 -2.76356e-20)
(12.3243 22.4241 7.08255e-19)
(15.2811 22.8465 -1.40304e-19)
(18.196 22.6035 -6.49383e-19)
(20.8287 21.7586 4.95776e-18)
(23.1116 20.4272 -6.10558e-18)
(24.977 18.71 5.31841e-18)
(26.3596 16.7333 2.4059e-18)
(27.2519 14.6261 -1.22264e-18)
(27.6737 12.4367 0)
(27.596 10.3287 0)
(27.0744 8.51211 6.17942e-19)
(26.2877 7.04798 -6.55144e-19)
(25.3687 5.82384 -8.18933e-19)
(24.2986 4.78502 -2.3415e-19)
(23.0103 3.93297 7.85502e-19)
(21.4531 3.26486 1.50063e-19)
(19.5602 2.76468 1.13484e-18)
(17.2393 2.39602 -2.55707e-18)
(14.3575 2.08719 3.81834e-18)
(11.3021 1.76361 -2.05985e-18)
(8.36674 1.39742 1.21841e-18)
(5.57405 1.02752 1.50831e-18)
(3.22592 0.731866 -9.12738e-18)
(1.46678 0.54624 1.19851e-20)
(0.239485 0.460268 -2.28499e-17)
(-0.600342 0.441392 -1.88348e-17)
(-1.19001 0.461604 0)
(-1.61582 0.503278 0)
(-1.93825 0.558341 -1.99524e-17)
(-2.19893 0.623106 -4.34023e-17)
(-2.43022 0.691797 -1.27506e-18)
(-2.65398 0.75126 1.94011e-17)
(-2.87171 0.779763 1.92841e-17)
(-3.0522 0.741703 -1.75616e-17)
(-3.14775 0.583665 4.83893e-19)
(-3.11025 0.262823 5.37869e-17)
(-2.76143 -0.230369 -4.7987e-17)
(-1.84285 -1.00663 8.24312e-20)
(-1.4859 -2.32347 1.55967e-17)
(8.33046 18.7577 0)
(10.6514 19.9299 -5.96936e-19)
(12.8886 20.6656 -1.31639e-18)
(15.2807 21.1085 -2.76324e-19)
(17.7219 21.0818 -2.26829e-19)
(20.0311 20.5663 7.7309e-19)
(22.1269 19.6143 -2.80115e-18)
(23.9311 18.2823 1.20406e-18)
(25.3592 16.6574 0)
(26.3718 14.8426 1.51322e-18)
(26.9623 12.8908 -2.9023e-18)
(27.0936 10.9327 2.60116e-18)
(26.7861 9.1549 -2.81227e-19)
(26.1719 7.65681 0)
(25.3925 6.39772 2.79578e-19)
(24.4934 5.34138 2.28983e-19)
(23.4586 4.48547 -2.08356e-19)
(22.268 3.83027 -5.8124e-19)
(20.8778 3.3619 3.99863e-19)
(19.1992 3.04336 9.71796e-19)
(17.0447 2.79095 -1.08354e-18)
(14.5896 2.50895 -1.49043e-18)
(11.955 2.13877 0)
(9.08646 1.6827 2.13309e-18)
(6.29487 1.23104 5.15209e-18)
(3.9088 0.873748 -7.78698e-18)
(2.08985 0.648954 5.6246e-18)
(0.797867 0.538209 1.74473e-17)
(-0.10358 0.502802 -2.39791e-18)
(-0.741574 0.510721 -2.39361e-21)
(-1.20601 0.545171 -1.41557e-17)
(-1.55741 0.598177 -4.60063e-18)
(-1.84207 0.661675 -1.54152e-17)
(-2.09652 0.719391 0)
(-2.34056 0.744936 -1.53706e-17)
(-2.56323 0.698408 1.52262e-17)
(-2.73489 0.521923 -1.3695e-17)
(-2.82719 0.16607 -4.57582e-17)
(-2.70317 -0.373178 2.00028e-17)
(-2.16919 -1.16401 6.97652e-20)
(-2.0008 -2.36612 -2.8216e-17)
(9.6604 17.5135 1.40259e-18)
(11.5949 18.4224 -4.01392e-19)
(13.433 19.017 -2.80877e-19)
(15.3706 19.4338 1.12624e-18)
(17.38 19.5311 -3.9874e-19)
(19.3471 19.2589 -8.46341e-19)
(21.2049 18.6253 1.79224e-18)
(22.882 17.649 1.75835e-18)
(24.2927 16.3797 -1.42963e-18)
(25.3815 14.8888 0)
(26.1237 13.2221 -8.52209e-19)
(26.4695 11.4776 1.35503e-19)
(26.4008 9.80682 -9.79538e-21)
(25.9941 8.32156 3.57081e-19)
(25.3672 7.03639 -2.33364e-20)
(24.594 5.94561 2.42798e-20)
(23.6986 5.05339 0)
(22.699 4.36835 0)
(21.6035 3.88907 -1.78606e-18)
(20.3905 3.59558 1.57214e-18)
(18.9296 3.41354 -1.05659e-18)
(17.2515 3.23396 1.10015e-18)
(15.3079 2.96536 1.31149e-18)
(12.9054 2.54937 0)
(10.1673 2.02836 1.77566e-18)
(7.39702 1.50303 -2.11688e-18)
(4.93908 1.07493 -5.14936e-18)
(3.0002 0.79264 0)
(1.58384 0.641499 0)
(0.576706 0.578101 2.06344e-18)
(-0.143429 0.56781 1.76034e-17)
(-0.669083 0.59267 1.50902e-17)
(-1.06576 0.640482 3.05245e-17)
(-1.38695 0.691827 1.89249e-18)
(-1.67418 0.71549 0)
(-1.94183 0.666257 -7.92261e-19)
(-2.18533 0.481934 1.25274e-17)
(-2.40075 0.107975 6.79461e-20)
(-2.4968 -0.458429 1.79314e-17)
(-2.34329 -1.25635 1.52879e-17)
(-2.41688 -2.34808 1.29913e-17)
(10.82 16.304 -8.4465e-19)
(12.4283 17.0076 -1.03725e-20)
(13.943 17.4866 1.11827e-18)
(15.5165 17.8557 -2.11135e-18)
(17.154 18.0106 0)
(18.7925 17.8998 -5.2196e-19)
(20.3891 17.5095 1.40219e-18)
(21.8894 16.8347 -1.11557e-18)
(23.2188 15.8944 3.878e-19)
(24.3203 14.729 8.34473e-19)
(25.161 13.3699 3.91119e-20)
(25.6853 11.8849 -1.48708e-18)
(25.8478 10.3868 0)
(25.6749 8.97956 -6.55484e-20)
(25.2459 7.71117 -2.37059e-19)
(24.6323 6.60595 2.65391e-19)
(23.8745 5.67792 6.13587e-19)
(23.0068 4.9433 -6.33038e-19)
(22.0669 4.41123 5.25259e-19)
(21.0893 4.08155 0)
(20.0529 3.91255 -2.00417e-18)
(18.9847 3.81338 3.61166e-18)
(17.7849 3.68611 -3.06551e-18)
(16.1953 3.43082 -2.18221e-20)
(14.1185 3.01262 2.50095e-18)
(11.6204 2.4674 -2.84939e-18)
(8.94544 1.88668 0)
(6.423 1.37646 1.01923e-17)
(4.31325 1.00712 4.90193e-18)
(2.70237 0.786504 2.87602e-18)
(1.52729 0.678052 -1.321e-17)
(0.676931 0.640963 -3.66123e-18)
(0.0565736 0.648967 3.89233e-18)
(-0.409529 0.679121 -1.8543e-18)
(-0.788198 0.695719 -1.00237e-17)
(-1.12446 0.647956 -1.50287e-18)
(-1.44502 0.469616 0)
(-1.77351 0.10059 1.97342e-17)
(-2.06763 -0.466273 -1.67333e-17)
(-2.25761 -1.25189 -1.42061e-17)
(-2.61024 -2.24866 0)
(11.8213 15.151 0)
(13.1585 15.696 0)
(14.4099 16.0799 0)
(15.6919 16.3942 5.83502e-18)
(17.0203 16.5648 -3.33064e-18)
(18.3642 16.55 1.49175e-18)
(19.702 16.3306 1.33519e-18)
(20.9989 15.8905 -3.47325e-19)
(22.1984 15.2292 -3.44959e-19)
(23.251 14.363 1.12403e-19)
(24.1247 13.3072 -1.10627e-19)
(24.7656 12.1023 5.1558e-19)
(25.1155 10.8243 -1.24889e-19)
(25.1651 9.5567 1.26636e-19)
(24.9551 8.36003 6.87476e-19)
(24.538 7.28026 -5.8319e-19)
(23.954 6.34332 -1.07098e-18)
(23.2388 5.57094 1.10383e-18)
(22.434 4.97895 -8.65226e-19)
(21.5889 4.5764 0)
(20.7454 4.35102 -2.91218e-18)
(19.9862 4.24962 2.07622e-18)
(19.2623 4.19772 8.32377e-19)
(18.3755 4.10184 -1.67922e-18)
(17.1638 3.88955 3.64084e-18)
(15.5017 3.52118 0)
(13.3797 3.00744 0)
(10.9425 2.41222 -2.60318e-18)
(8.45161 1.8307 -1.53869e-17)
(6.18286 1.35055 -7.32682e-18)
(4.31667 1.01756 8.60909e-18)
(2.89026 0.82622 2.48915e-18)
(1.83937 0.739662 -1.39278e-17)
(1.06993 0.714201 -2.98813e-18)
(0.489769 0.703897 1.8381e-17)
(0.0195426 0.653304 -2.99176e-18)
(-0.407003 0.49216 -1.09802e-17)
(-0.850662 0.152716 1.21838e-18)
(-1.31727 -0.382907 1.5036e-17)
(-1.78795 -1.1273 0)
(-2.42134 -2.03813 0)
(12.6795 14.0707 0)
(13.7929 14.4934 0)
(14.8295 14.7996 -2.15187e-19)
(15.8772 15.0601 -4.08633e-18)
(16.9538 15.2229 0)
(18.046 15.2584 -3.34903e-18)
(19.1465 15.1493 -9.8718e-19)
(20.2367 14.8779 0)
(21.2788 14.4345 1.21349e-18)
(22.2355 13.8204 -1.05624e-18)
(23.0812 13.0388 -2.45945e-19)
(23.7701 12.1078 -1.3473e-19)
(24.2434 11.0719 2.02982e-21)
(24.4723 9.98948 0)
(24.4668 8.91674 1.26219e-18)
(24.2555 7.90841 -1.02897e-18)
(23.8684 7.00049 0)
(23.336 6.22039 0)
(22.6943 5.58888 -8.45845e-19)
(21.9862 5.11842 3.45923e-18)
(21.2626 4.8111 -1.84671e-18)
(20.6332 4.64544 0)
(20.1053 4.57299 2.61163e-18)
(19.5761 4.5297 9.79623e-20)
(18.9535 4.46159 -2.83255e-18)
(18.1061 4.31176 1.50562e-18)
(16.9028 4.03331 0)
(15.2731 3.6093 0)
(13.2542 3.06591 -1.99078e-18)
(10.9964 2.46794 9.03067e-18)
(8.71962 1.89758 -5.24015e-18)
(6.63994 1.42641 6.13563e-18)
(4.90239 1.09302 3.53475e-18)
(3.54928 0.894197 0)
(2.53331 0.788493 6.52733e-18)
(1.7635 0.706153 6.56157e-21)
(1.13456 0.561314 2.08471e-17)
(0.537818 0.272716 0)
(-0.0884955 -0.198234 -1.76216e-17)
(-0.775622 -0.868917 1.43326e-17)
(-1.66423 -1.6907 0)
(13.4107 13.0735 0)
(14.3394 13.4023 -2.34406e-18)
(15.2003 13.6452 2.13548e-18)
(16.0594 13.857 0)
(16.9329 14.001 3.37113e-18)
(17.8167 14.0575 -9.63361e-19)
(18.7115 14.014 -1.15016e-17)
(19.6095 13.8554 1.28545e-17)
(20.4878 13.57 -6.9517e-18)
(21.3218 13.152 -4.49156e-18)
(22.094 12.5979 3.01791e-18)
(22.7703 11.9114 7.29924e-19)
(23.2999 11.1127 -1.11038e-18)
(23.6475 10.2364 6.67818e-19)
(23.8043 9.3256 -1.72781e-18)
(23.7778 8.43091 1.29736e-18)
(23.5837 7.59186 9.22635e-19)
(23.2432 6.8399 5.419e-19)
(22.7843 6.20016 2.34832e-18)
(22.2405 5.68868 -5.40972e-18)
(21.6524 5.31395 3.08149e-18)
(21.1216 5.07543 1.19452e-19)
(20.6772 4.93906 5.19226e-19)
(20.2717 4.85756 0)
(19.8853 4.80607 -3.47066e-18)
(19.4654 4.75384 1.1577e-18)
(18.9235 4.66076 3.74841e-18)
(18.151 4.48277 -2.59903e-18)
(17.0533 4.18597 5.57261e-18)
(15.5898 3.76211 -2.99783e-18)
(13.7988 3.2359 0)
(11.7958 2.65952 -5.54421e-18)
(9.74463 2.09739 -2.09684e-18)
(7.81287 1.60734 2.3771e-18)
(6.12625 1.22388 -1.61251e-17)
(4.74763 0.944254 -3.00353e-18)
(3.65545 0.717392 -6.40329e-18)
(2.74381 0.454049 6.82912e-18)
(1.89115 0.0736997 7.26096e-18)
(1.02255 -0.479427 -1.42372e-17)
(-0.0888201 -1.18851 -4.08299e-19)
(14.0302 12.1652 0)
(14.8065 12.4217 1.28235e-19)
(15.5232 12.6137 1.93958e-18)
(16.2299 12.7833 7.098e-18)
(16.9406 12.9047 -4.16661e-18)
(17.6552 12.9655 2.38032e-18)
(18.3783 12.9576 2.0922e-18)
(19.1082 12.8699 -1.10688e-17)
(19.8325 12.692 2.11446e-18)
(20.5365 12.4162 4.1222e-18)
(21.2101 12.037 -5.55165e-18)
(21.8307 11.5504 3.42801e-18)
(22.3591 10.9616 1.7309e-18)
(22.7633 10.2869 -5.735e-19)
(23.0263 9.55383 0)
(23.1419 8.80154 0)
(23.1127 8.06537 -4.38595e-18)
(22.9489 7.37647 -8.62326e-19)
(22.6691 6.7618 4.15468e-18)
(22.298 6.24092 -3.05288e-19)
(21.8651 5.82714 3.21995e-18)
(21.4518 5.53593 -6.36549e-18)
(21.089 5.34254 3.27085e-18)
(20.7511 5.20303 0)
(20.4427 5.10382 -4.65047e-19)
(20.1595 5.03334 3.90475e-18)
(19.8793 4.97734 -4.95839e-18)
(19.5561 4.91378 4.13974e-18)
(19.1198 4.81154 -3.16535e-18)
(18.4895 4.63637 0)
(17.5962 4.36178 2.32143e-18)
(16.4071 3.97945 4.92062e-18)
(14.9409 3.50362 -2.65236e-18)
(13.2667 2.96697 2.89049e-18)
(11.4846 2.41065 1.56499e-18)
(9.71575 1.87577 -3.58851e-18)
(8.06785 1.38859 5.90907e-18)
(6.58803 0.943291 -4.26774e-18)
(5.26019 0.506079 -3.50036e-18)
(4.05052 0.013793 -6.40743e-19)
(2.68443 -0.556137 1.04333e-17)
(14.5527 11.3472 -2.03284e-18)
(15.2027 11.548 -7.57683e-18)
(15.8008 11.6992 7.44874e-18)
(16.3842 11.8334 0)
(16.9642 11.9327 -2.08911e-19)
(17.543 11.9891 0)
(18.1263 11.9982 -1.72346e-17)
(18.7155 11.9524 1.38995e-17)
(19.3044 11.8436 9.93415e-18)
(19.8854 11.6654 -1.18109e-17)
(20.4535 11.412 4.09141e-18)
(20.9951 11.0773 -2.08043e-18)
(21.4832 10.6585 -1.5066e-18)
(21.8925 10.1606 -3.33445e-18)
(22.2061 9.59848 2.93625e-20)
(22.4118 8.99787 3.34213e-18)
(22.5037 8.38531 -2.63717e-18)
(22.483 7.78698 3.62409e-18)
(22.3586 7.22775 0)
(22.1464 6.72818 4.53153e-18)
(21.8664 6.30466 3.19844e-20)
(21.5784 5.98536 -4.95549e-18)
(21.3112 5.75551 4.38368e-20)
(21.0513 5.57387 0)
(20.8051 5.42907 3.83156e-19)
(20.5778 5.31268 3.9784e-19)
(20.3712 5.21906 0)
(20.1809 5.14319 0)
(19.9904 5.07661 2.40503e-21)
(19.7673 5.00398 0)
(19.4629 4.90284 -2.68673e-18)
(19.0208 4.74756 0)
(18.3895 4.51618 3.8186e-18)
(17.537 4.19653 -3.98175e-18)
(16.4548 3.78801 0)
(15.1697 3.30412 2.20392e-18)
(13.7368 2.7674 -2.36644e-18)
(12.2124 2.19746 1.33232e-18)
(10.6391 1.61517 4.30194e-18)
(9.1016 1.02254 -3.94721e-19)
(7.36557 0.422574 -9.92925e-18)
(14.9918 10.618 5.39764e-18)
(15.5368 10.7757 2.09288e-19)
(16.0369 10.8943 -3.29727e-18)
(16.5199 10.9996 -6.30445e-18)
(16.9952 11.0787 -1.48223e-17)
(17.4655 11.1271 1.76192e-17)
(17.9365 11.1424 -4.25747e-19)
(18.4109 11.1199 -1.0268e-17)
(18.8862 11.0539 2.02904e-17)
(19.3587 10.9394 -5.52276e-19)
(19.8269 10.772 -1.10209e-17)
(20.2834 10.5456 3.98526e-18)
(20.7105 10.2549 -7.46099e-18)
(21.0908 9.8989 1.13464e-17)
(21.4107 9.48419 -1.89995e-18)
(21.6579 9.02559 0)
(21.8233 8.54017 -7.91283e-18)
(21.9024 8.04672 7.16164e-18)
(21.897 7.56492 7.69163e-18)
(21.8148 7.113 -1.48517e-17)
(21.6674 6.70719 8.14108e-18)
(21.4943 6.38311 -4.26429e-19)
(21.3206 6.13574 -3.63818e-20)
(21.1429 5.92983 -5.02003e-18)
(20.9673 5.75692 1.01979e-17)
(20.7981 5.60922 -5.54225e-18)
(20.6387 5.48057 5.12482e-18)
(20.492 5.36708 -6.20795e-18)
(20.3598 5.2666 -6.39871e-18)
(20.2401 5.17704 5.73085e-18)
(20.1239 5.09379 1.46383e-18)
(19.9919 5.00759 2.22672e-18)
(19.8149 4.90405 -6.75703e-18)
(19.5567 4.76542 6.10194e-18)
(19.1783 4.57297 -3.12524e-18)
(18.6482 4.31256 -1.63232e-18)
(17.9481 3.9779 0)
(17.073 3.56735 -1.71898e-18)
(16.0127 3.08954 -1.81401e-18)
(14.8472 2.56149 -2.01697e-18)
(13.35 1.97513 2.07968e-18)
(15.359 9.97357 1.45438e-20)
(15.8165 10.0977 7.56411e-19)
(16.2354 10.1904 2.88439e-18)
(16.6366 10.2721 -5.48015e-18)
(17.0275 10.334 2.18478e-17)
(17.4112 10.3732 -2.03444e-17)
(17.7927 10.3889 2.57015e-17)
(18.1752 10.3783 1.4289e-17)
(18.5578 10.3376 -5.76349e-18)
(18.9393 10.2631 -7.90855e-19)
(19.3198 10.1521 -1.78414e-17)
(19.6957 9.99958 2.43794e-19)
(20.0561 9.79999 0)
(20.3897 9.55021 -3.4103e-18)
(20.6873 9.25232 3.54869e-18)
(20.939 8.9138 -3.72189e-18)
(21.1361 8.54422 0)
(21.2723 8.15528 7.05888e-18)
(21.3452 7.76048 -1.52364e-17)
(21.3568 7.37363 5.42372e-18)
(21.312 7.00811 -7.6329e-18)
(21.2327 6.70075 8.57676e-18)
(21.1387 6.45366 2.60243e-19)
(21.0336 6.23877 -1.01491e-19)
(20.9233 6.0515 8.75111e-18)
(20.812 5.88668 -8.8181e-18)
(20.7025 5.73909 2.82626e-19)
(20.5968 5.60406 5.77752e-19)
(20.4967 5.47805 -4.77415e-18)
(20.404 5.35889 5.40818e-18)
(20.3204 5.24552 -6.06073e-19)
(20.2459 5.1371 6.131e-19)
(20.1766 5.03163 -2.49973e-18)
(20.1036 4.92469 1.23326e-18)
(20.011 4.80833 5.12189e-18)
(19.8775 4.67227 -1.30819e-18)
(19.678 4.50549 1.32712e-18)
(19.3895 4.2968 -2.7137e-18)
(18.9748 4.03656 1.41081e-18)
(18.4609 3.73091 1.40866e-18)
(17.6855 3.34609 0)
(15.6642 9.40723 -8.27096e-18)
(16.0485 9.50476 1.52187e-17)
(16.3997 9.57691 1.50722e-17)
(16.7337 9.64011 -3.99527e-17)
(17.0563 9.68777 1.49693e-17)
(17.3706 9.71842 -3.29348e-17)
(17.681 9.73201 2.76334e-17)
(17.9904 9.72695 -4.11058e-17)
(18.2989 9.70063 3.97609e-17)
(18.6062 9.65071 -5.52661e-19)
(18.9135 9.57541 -1.70415e-17)
(19.219 9.47117 -1.87234e-18)
(19.5163 9.33332 -1.4901e-17)
(19.7985 9.15855 1.47469e-17)
(20.0597 8.9469 -1.37657e-17)
(20.2932 8.70173 1.53205e-17)
(20.4921 8.42774 0)
(20.6506 8.13132 -1.1715e-17)
(20.7649 7.82064 1.42991e-17)
(20.834 7.50482 -1.28986e-17)
(20.8586 7.19329 -1.99897e-19)
(20.8473 6.91936 2.08028e-17)
(20.8142 6.68887 -1.06759e-19)
(20.7663 6.48029 -7.41102e-18)
(20.7084 6.29191 -1.4036e-23)
(20.6445 6.1213 0)
(20.5775 5.96552 -7.84343e-18)
(20.5092 5.82137 7.7529e-18)
(20.4409 5.6856 0)
(20.3732 5.55533 -5.04563e-19)
(20.3068 5.42826 0)
(20.2425 5.3029 4.21473e-18)
(20.1812 5.17856 -4.74899e-18)
(20.1232 5.05498 -4.31034e-18)
(20.0671 4.93155 8.67155e-18)
(20.0095 4.80741 -4.9192e-18)
(19.9429 4.68065 -5.62653e-19)
(19.8583 4.54786 1.10239e-18)
(19.7363 4.40283 -1.11933e-18)
(19.5765 4.24785 0)
(19.3173 4.05815 -1.19912e-18)
(15.9057 8.93391 0)
(16.2311 9.01132 -2.0685e-17)
(16.5281 9.06822 5.44886e-19)
(16.8088 9.11758 2.86009e-17)
(17.0781 9.1544 1.83126e-17)
(17.3389 9.17805 -1.87111e-17)
(17.5949 9.18893 1.79266e-17)
(17.8486 9.18612 1.76661e-17)
(18.1006 9.1679 3.45726e-17)
(18.351 9.13265 -4.38272e-17)
(18.6011 9.07922 4.35577e-18)
(18.8504 9.00501 4.15889e-18)
(19.0947 8.90645 -1.53829e-17)
(19.33 8.78071 1.13152e-17)
(19.5527 8.6272 1.64586e-17)
(19.7584 8.44731 -1.2646e-17)
(19.9423 8.24316 -1.57049e-17)
(20.0999 8.018 1.5786e-17)
(20.2275 7.7764 0)
(20.3232 7.52394 1.7682e-18)
(20.3856 7.26661 1.76047e-18)
(20.4156 7.0322 1.39913e-17)
(20.4224 6.82772 -2.79948e-17)
(20.4136 6.6367 1.43129e-17)
(20.3926 6.45894 7.21226e-18)
(20.3626 6.29368 -1.54767e-19)
(20.3261 6.13964 -7.3268e-18)
(20.2852 5.99523 1.14649e-19)
(20.2411 5.8586 7.48965e-21)
(20.1944 5.72782 7.61875e-18)
(20.1454 5.60099 -7.69405e-18)
(20.094 5.47642 -3.92624e-18)
(20.0401 5.35276 4.18286e-18)
(19.9836 5.22912 -4.01194e-18)
(19.9245 5.10495 3.50448e-18)
(19.8629 4.98075 3.06822e-18)
(19.7983 4.85757 -1.54459e-18)
(19.7297 4.73627 5.27929e-19)
(19.6541 4.61721 0)
(19.5692 4.50398 0)
(19.4675 4.39068 -2.55601e-20)
(16.0904 8.5552 -9.27651e-18)
(16.3699 8.6178 1.04142e-17)
(16.6249 8.66338 -4.51952e-18)
(16.8649 8.70227 -8.88657e-18)
(17.0939 8.73063 0)
(17.3144 8.74838 1.75861e-17)
(17.5297 8.75614 -4.32656e-17)
(17.742 8.75342 2.65452e-17)
(17.9519 8.73904 -8.74457e-18)
(18.1599 8.71191 8.40055e-18)
(18.3672 8.67135 -4.1722e-18)
(18.5736 8.61547 -3.68335e-17)
(18.7766 8.54151 6.36159e-17)
(18.9736 8.4472 -2.72986e-17)
(19.1623 8.33178 -3.61237e-18)
(19.3401 8.19573 -1.44999e-17)
(19.5034 8.03989 4.46347e-17)
(19.6491 7.86583 -1.95209e-17)
(19.7741 7.67603 -2.97894e-17)
(19.8765 7.47377 1.2255e-17)
(19.9545 7.26272 -3.43943e-18)
(20.0048 7.06532 0)
(20.0334 6.88839 0)
(20.0473 6.71916 -1.40297e-17)
(20.0489 6.55813 1.40405e-17)
(20.0404 6.40535 2.1746e-19)
(20.0238 6.26048 0)
(20.0008 6.12286 7.2549e-18)
(19.9725 5.99166 -7.26691e-18)
(19.9397 5.8659 5.65603e-20)
(19.9029 5.74457 -5.87676e-20)
(19.8623 5.62668 0)
(19.8176 5.51133 3.59006e-18)
(19.7685 5.39771 -3.79364e-18)
(19.7145 5.28504 4.73799e-19)
(19.6552 5.17326 -4.78425e-19)
(19.5905 5.06288 0)
(19.5202 4.9543 -4.8821e-19)
(19.4443 4.84858 -1.00548e-18)
(19.3628 4.74821 4.96832e-19)
(19.2781 4.65352 1.50079e-18)
(16.2346 8.24812 0)
(16.4777 8.29944 0)
(16.6995 8.33631 -1.68209e-17)
(16.9075 8.36716 -3.33569e-17)
(17.105 8.38894 5.09615e-17)
(17.2943 8.40193 -4.17823e-17)
(17.4784 8.40685 -1.64201e-17)
(17.659 8.40344 3.39467e-17)
(17.837 8.39089 -3.35753e-17)
(18.0126 8.36844 3.38775e-17)
(18.1871 8.33566 0)
(18.3605 8.29119 0)
(18.5312 8.23294 3.17144e-17)
(18.6974 8.15914 -6.18767e-17)
(18.8578 8.0691 6.01845e-17)
(19.0105 7.9629 -2.95825e-17)
(19.1532 7.84078 -3.67779e-18)
(19.2835 7.70343 3.37045e-17)
(19.3992 7.55212 -2.29302e-17)
(19.4985 7.38874 0)
(19.5794 7.21543 1.68213e-18)
(19.6375 7.05013 0)
(19.6762 6.8989 -1.46714e-17)
(19.702 6.75172 2.84915e-17)
(19.7163 6.60934 -1.38223e-17)
(19.7205 6.4722 0)
(19.7161 6.34043 0)
(19.7045 6.21395 6.60863e-18)
(19.6865 6.09245 -7.05098e-18)
(19.663 5.97557 -7.14381e-18)
(19.6346 5.86286 7.19382e-18)
(19.6015 5.75389 7.23883e-18)
(19.564 5.6483 -7.26017e-18)
(19.5219 5.54571 0)
(19.4751 5.44567 -5.81161e-20)
(19.4233 5.34815 0)
(19.3664 5.25341 -1.47311e-20)
(19.3041 5.16133 -5.93189e-20)
(19.2362 5.07229 2.02476e-18)
(19.163 4.98734 -2.86315e-18)
(19.0857 4.90657 9.44493e-19)
(16.3494 7.99428 0)
(16.5629 8.03675 -1.96736e-18)
(16.7577 8.06678 0)
(16.9398 8.09132 1.57708e-17)
(17.1121 8.10792 -1.58459e-17)
(17.2766 8.11705 0)
(17.436 8.11949 1.59837e-17)
(17.5917 8.11511 1.585e-17)
(17.7445 8.10334 -4.10561e-17)
(17.8948 8.08365 0)
(18.0436 8.05577 3.25042e-17)
(18.1911 8.0187 -6.54395e-17)
(18.3361 7.97087 3.18966e-17)
(18.4775 7.91091 0)
(18.6144 7.83823 -2.97519e-17)
(18.7455 7.75279 3.31102e-17)
(18.8693 7.65457 3.21313e-17)
(18.9839 7.54382 -3.54811e-17)
(19.0878 7.4212 -3.424e-18)
(19.1794 7.28775 0)
(19.257 7.14469 0)
(19.3158 7.00636 -1.73979e-18)
(19.3581 6.87791 8.32734e-19)
(19.3891 6.75133 1.36309e-17)
(19.4097 6.6274 9.02095e-19)
(19.421 6.50671 -1.35982e-17)
(19.424 6.38963 1.36884e-17)
(19.4197 6.27635 -1.32478e-17)
(19.4088 6.16689 -7.76538e-18)
(19.392 6.0612 6.8844e-18)
(19.3699 5.95918 -6.955e-18)
(19.3428 5.8607 6.94288e-18)
(19.3111 5.76567 0)
(19.2749 5.67398 -7.50087e-18)
(19.2344 5.58542 7.09498e-18)
(19.1897 5.5001 0)
(19.1408 5.4183 1.3802e-20)
(19.0876 5.33988 1.85662e-18)
(19.0302 5.26498 -1.90829e-18)
(18.9688 5.1941 8.53469e-19)
(18.9039 5.12708 -8.92227e-19)
(16.4424 7.78117 0)
(16.6313 7.81655 1.81251e-18)
(16.8036 7.84111 -1.4733e-17)
(16.9644 7.86061 2.94437e-17)
(17.116 7.87307 -6.00018e-17)
(17.2603 7.87907 3.05318e-17)
(17.3996 7.8794 0)
(17.5352 7.87403 1.53514e-17)
(17.6678 7.86254 9.31608e-17)
(17.7979 7.84457 -6.31307e-17)
(17.9261 7.81992 0)
(18.0528 7.78788 -7.9986e-18)
(18.1771 7.74723 2.31468e-17)
(18.2982 7.69694 -2.89218e-19)
(18.4156 7.63654 -2.95751e-17)
(18.5283 7.56593 3.24483e-17)
(18.6353 7.48501 -2.84235e-17)
(18.7352 7.39386 2.77333e-17)
(18.8269 7.29279 -2.76786e-17)
(18.9091 7.1824 -2.73199e-17)
(18.9804 7.06338 2.36264e-17)
(19.0363 6.94724 -1.18071e-17)
(19.0781 6.83828 1.5034e-17)
(19.1103 6.73002 -1.41428e-17)
(19.1335 6.62317 -2.52774e-18)
(19.1483 6.51833 1.32869e-17)
(19.1554 6.41594 0)
(19.1557 6.31631 0)
(19.1497 6.21963 -1.25625e-17)
(19.138 6.12603 1.33559e-17)
(19.121 6.03556 0)
(19.0991 5.94827 8.49525e-19)
(19.0727 5.86419 8.51647e-19)
(19.0421 5.78334 7.2079e-18)
(19.0076 5.70562 -7.19688e-18)
(18.9693 5.63118 -3.41675e-18)
(18.9274 5.56029 3.40669e-18)
(18.8823 5.49282 -1.28803e-18)
(18.8339 5.42888 3.43915e-18)
(18.7826 5.36879 -1.66574e-18)
(18.7288 5.31253 -2.13294e-19)
(16.5187 7.59993 1.31991e-17)
(16.6868 7.62955 1.64915e-17)
(16.8401 7.64966 -1.76403e-19)
(16.983 7.66509 0)
(17.1173 7.67421 0)
(17.2448 7.67768 0)
(17.3675 7.67625 0)
(17.4866 7.66996 -5.8566e-17)
(17.6026 7.65851 1.04302e-16)
(17.716 7.64165 -6.04105e-17)
(17.8275 7.61924 6.04021e-17)
(17.9372 7.59076 -3.8386e-17)
(18.0445 7.55528 6.81231e-17)
(18.1489 7.512 -8.12185e-17)
(18.25 7.46057 2.88728e-17)
(18.3472 7.4009 2.11239e-17)
(18.4396 7.33287 -2.77832e-17)
(18.5264 7.25647 3.36693e-18)
(18.6064 7.17186 -3.41416e-18)
(18.6789 7.07941 3.35172e-17)
(18.7427 6.97949 2.96224e-17)
(18.7937 6.88148 -4.93321e-17)
(18.833 6.78889 -1.60536e-18)
(18.8641 6.69643 0)
(18.8874 6.60472 1.59786e-18)
(18.9034 6.51431 -1.6359e-18)
(18.9126 6.42564 -1.13223e-17)
(18.9156 6.33906 1.29217e-17)
(18.9128 6.25482 -1.29685e-17)
(18.9048 6.1731 1.29322e-17)
(18.8919 6.09406 1.29969e-17)
(18.8745 6.0178 -1.37605e-17)
(18.853 5.94443 -8.04325e-19)
(18.8276 5.874 6.52882e-18)
(18.7987 5.80648 -5.28004e-18)
(18.7665 5.74201 0)
(18.7312 5.68079 0)
(18.6932 5.62273 -4.06397e-19)
(18.6527 5.56787 8.25353e-19)
(18.6099 5.51644 8.26137e-19)
(18.5651 5.46855 2.00094e-19)
(16.5819 7.44414 0)
(16.7322 7.46901 -3.08949e-18)
(16.8693 7.48546 2.52112e-17)
(16.9969 7.49757 -2.59363e-17)
(17.1165 7.50397 -5.24795e-17)
(17.2299 7.50538 5.40952e-17)
(17.3387 7.5025 2.70877e-17)
(17.4439 7.49542 -5.60304e-17)
(17.5461 7.48393 -5.63751e-17)
(17.6457 7.46783 5.75614e-17)
(17.7431 7.44707 0)
(17.8387 7.42123 -2.91999e-17)
(17.932 7.38962 5.85047e-17)
(18.0225 7.35163 -6.45819e-17)
(18.11 7.30698 0)
(18.194 7.25562 -6.89609e-18)
(18.2739 7.19744 6.78602e-18)
(18.3489 7.13241 0)
(18.4184 7.06063 3.24598e-18)
(18.4817 6.98234 -6.43605e-18)
(18.5379 6.89774 2.89711e-17)
(18.5833 6.81452 -2.87491e-17)
(18.619 6.73559 3.1963e-18)
(18.6478 6.65657 2.36454e-17)
(18.6698 6.57797 -2.3563e-17)
(18.6855 6.50029 1.5507e-18)
(18.6953 6.42394 -1.40961e-17)
(18.6996 6.34923 1.25079e-17)
(18.6989 6.27644 1.57789e-18)
(18.6935 6.20577 0)
(18.6838 6.13738 0)
(18.67 6.07142 0)
(18.6526 6.00799 -6.26783e-18)
(18.6319 5.94719 6.24516e-18)
(18.608 5.88898 -7.75728e-19)
(18.5813 5.8335 -6.27444e-18)
(18.552 5.7809 7.03696e-18)
(18.5205 5.73109 0)
(18.4868 5.68409 9.33044e-21)
(18.4514 5.64003 -1.56299e-18)
(18.4142 5.5991 7.63065e-19)
(16.6347 7.30897 1.12048e-17)
(16.7696 7.3299 0)
(16.8927 7.34331 -5.83842e-17)
(17.0071 7.35269 4.82597e-17)
(17.1142 7.35688 0)
(17.2154 7.35661 5.03173e-17)
(17.3123 7.35256 -2.2532e-19)
(17.4057 7.34483 5.2512e-17)
(17.4962 7.33327 -8.07722e-17)
(17.5841 7.31777 -5.42702e-17)
(17.6698 7.29828 5.53906e-17)
(17.7536 7.2745 1.38432e-17)
(17.835 7.24591 0)
(17.9138 7.21203 0)
(17.9898 7.17269 -1.35758e-17)
(18.0626 7.12783 5.93125e-17)
(18.1317 7.07739 -1.17091e-16)
(18.1966 7.02135 5.1482e-17)
(18.2567 6.95977 6.40617e-18)
(18.3116 6.89282 6.35622e-18)
(18.3605 6.82064 -3.08406e-18)
(18.4004 6.74959 4.63454e-17)
(18.4321 6.68204 -7.96315e-17)
(18.458 6.61438 1.50574e-18)
(18.4781 6.54701 2.2807e-17)
(18.4927 6.48037 0)
(18.5023 6.41481 1.21094e-17)