/*--------------------------------*- C++ -*----------------------------------*\
| =========                 |                                                 |
| \\      /  F ield         | OpenFOAM: The Open Source CFD Toolbox           |
|  \\    /   O peration     | Version:  5.x                                   |
|   \\  /    A nd           | Web:      www.OpenFOAM.org                      |
|    \\/     M anipulation  |                                                 |
\*---------------------------------------------------------------------------*/
FoamFile
{
    version     2.0;
    format      ascii;
    class       volScalarField;
    location    "800";
    object      nuTilda;
}
// * * * * * * * * * * * * * * * * * * * * * * * * * * * * * * * * * * * * * //

dimensions      [0 2 -1 0 0 0 0];

internalField   nonuniform List<scalar> 
41860
(
4.14313e-05
4.37365e-05
5.51773e-05
5.81766e-05
5.38193e-05
4.9841e-05
4.43356e-05
3.96886e-05
3.59439e-05
3.28411e-05
3.01001e-05
2.81341e-05
2.59759e-05
2.49966e-05
2.33533e-05
2.28469e-05
2.19808e-05
2.13731e-05
2.09826e-05
1.96896e-05
1.95262e-05
2.87369e-05
1.8967e-05
2.98166e-05
1.85909e-05
3.03371e-05
3.06665e-05
1.82734e-05
3.07283e-05
3.06878e-05
3.06669e-05
1.79522e-05
1.79164e-05
3.03982e-05
1.78737e-05
3.00959e-05
1.78934e-05
1.79079e-05
1.79834e-05
2.89461e-05
1.81643e-05
1.82767e-05
3.00886e-05
3.01264e-05
1.71574e-05
3.00649e-05
3.00286e-05
2.99959e-05
2.99521e-05
2.99102e-05
2.98658e-05
2.98212e-05
2.97761e-05
2.97304e-05
2.96789e-05
1.71182e-05
1.71392e-05
2.95263e-05
1.71778e-05
2.94329e-05
2.93678e-05
2.93344e-05
1.72665e-05
2.91913e-05
1.72948e-05
2.90374e-05
1.73042e-05
1.73179e-05
2.88091e-05
2.86351e-05
1.72875e-05
2.84727e-05
2.82896e-05
1.72005e-05
1.71323e-05
2.78706e-05
1.69977e-05
1.68595e-05
1.67162e-05
2.67625e-05
1.65758e-05
1.26142e-05
0.000191038
0.000224014
0.000287384
0.000304194
0.000281166
0.000260073
0.00023072
0.000205913
0.000185913
0.000169339
0.000154694
0.000144206
0.000132679
0.00012747
0.000118687
0.000115982
0.000110902
0.000107076
0.000104429
9.81561e-05
9.66189e-05
9.68063e-05
9.10557e-05
9.39052e-05
8.75191e-05
9.16877e-05
9.00552e-05
8.49715e-05
8.87448e-05
8.84259e-05
8.79176e-05
8.28239e-05
8.27217e-05
8.72607e-05
8.2786e-05
8.74964e-05
8.34164e-05
8.3757e-05
8.47461e-05
8.99951e-05
8.69202e-05
8.82752e-05
8.27265e-05
8.2662e-05
7.80433e-05
8.24489e-05
8.24202e-05
8.23483e-05
8.23495e-05
8.2363e-05
8.24096e-05
8.24832e-05
8.25757e-05
8.26926e-05
8.28419e-05
7.84416e-05
7.86669e-05
8.3292e-05
7.90819e-05
8.36829e-05
8.40441e-05
8.4134e-05
8.00057e-05
8.45368e-05
8.03862e-05
8.4923e-05
8.06478e-05
8.08846e-05
8.51324e-05
8.55705e-05
8.10465e-05
8.52871e-05
8.54874e-05
8.09589e-05
8.06598e-05
8.46082e-05
8.02771e-05
7.96242e-05
7.89201e-05
8.17049e-05
7.83309e-05
1.52345e-05
0.000240334
0.000278495
0.000363323
0.000387194
0.000358249
0.000331083
0.000293146
0.000261085
0.000235384
0.000214375
0.000196487
0.000183521
0.000171669
0.000165406
0.000160472
0.00015867
0.000157744
0.000157235
0.000156647
0.000155937
0.000154956
0.000157292
0.000153868
0.000156024
0.000152604
0.000154401
0.000153916
0.00014983
0.000151867
0.000150724
0.000149707
0.000145967
0.000144945
0.000146643
0.000143131
0.000144861
0.000141655
0.000141064
0.000140683
0.000142636
0.000140394
0.000140525
0.000140301
0.000139958
0.00013726
0.000139282
0.000138964
0.000138668
0.000138405
0.000138175
0.000137977
0.000137813
0.000137679
0.000137576
0.000137504
0.000135193
0.000135196
0.000137407
0.000135255
0.000137471
0.0001376
0.000137622
0.000135567
0.000137728
0.000135661
0.000137801
0.000135668
0.000135707
0.000137645
0.000137762
0.000135432
0.000137278
0.000137175
0.000134729
0.000134245
0.000135717
0.000133185
0.000132194
0.000131146
0.000131109
0.000129918
1.83849e-05
0.000328103
0.000371355
0.000436906
0.000474297
0.000464392
0.000434238
0.000406798
0.000384306
0.000364328
0.000345941
0.000329879
0.000309878
0.000297648
0.000279439
0.000276367
0.00027006
0.000268853
0.000266717
0.000263875
0.000262239
0.000258753
0.000258292
0.000253952
0.000252897
0.000249034
0.000247627
0.000245613
0.000241192
0.000240476
0.00023787
0.000235524
0.000231798
0.000229539
0.000228833
0.000225461
0.000224943
0.000221971
0.000220478
0.000219192
0.000219181
0.000217256
0.000216651
0.000215282
0.000214233
0.000212245
0.000212664
0.000211926
0.000211243
0.000210619
0.000210057
0.000209557
0.000209115
0.000208727
0.000208396
0.000208115
0.000206756
0.000206591
0.000207507
0.000206358
0.000207312
0.000207341
0.000207266
0.000206256
0.000207186
0.00020615
0.000207059
0.000205932
0.000205856
0.000206544
0.00020654
0.000205131
0.000205699
0.000205406
0.000203767
0.000202973
0.000203056
0.00020115
0.000199616
0.000197981
0.000196008
0.000195556
2.2173e-05
0.000453597
0.000548577
0.000643741
0.000698474
0.000719779
0.000680378
0.000655717
0.000630141
0.000601878
0.000572397
0.00054457
0.000509685
0.000486018
0.000452142
0.000438638
0.000422818
0.000416418
0.000409692
0.00040271
0.000397979
0.000390946
0.000386849
0.000380325
0.000375729
0.000370265
0.00036553
0.00036138
0.000355675
0.000352179
0.000347681
0.000343605
0.000339058
0.000335231
0.000332276
0.000328299
0.000325751
0.000322318
0.000319721
0.000317392
0.000315778
0.000313607
0.000312263
0.000309321
0.000307215
0.000305296
0.000304436
0.000303146
0.00030195
0.000300853
0.000299857
0.000298958
0.00029815
0.00029743
0.000296796
0.000296242
0.000295281
0.000294892
0.000294956
0.000294266
0.000294415
0.00029431
0.000294103
0.000293607
0.000293784
0.000293243
0.000293407
0.000292747
0.000292534
0.000292443
0.000292301
0.000291275
0.000291027
0.000290512
0.000289144
0.000287989
0.000287111
0.000285299
0.000283154
0.000280834
0.000277306
0.000276672
2.67228e-05
0.000619332
0.00078931
0.000992677
0.00107991
0.0011135
0.00105106
0.00100764
0.0009625
0.000914126
0.000864792
0.000817979
0.000764059
0.000723921
0.000672935
0.000645269
0.000616938
0.000602399
0.000588976
0.000576261
0.000566646
0.000554911
0.000546356
0.000536236
0.000527705
0.000519326
0.000511084
0.000504098
0.000496095
0.000489716
0.000482861
0.000476604
0.000470387
0.000464638
0.000459517
0.000454235
0.000449786
0.000445277
0.000441361
0.000437836
0.000434834
0.000431966
0.000429844
0.000424809
0.000421245
0.000418819
0.000416896
0.000414917
0.000413079
0.000411392
0.000409853
0.00040846
0.000407199
0.000406066
0.000405058
0.000404166
0.000403191
0.000402529
0.000402042
0.000401427
0.000401077
0.00040081
0.00040044
0.000400098
0.000399843
0.00039944
0.000399175
0.000398625
0.000398261
0.000397691
0.000397399
0.000396403
0.000395627
0.000394868
0.000393417
0.000391851
0.000390273
0.000388197
0.000385377
0.000382268
0.000377452
0.000375669
3.21798e-05
0.0008486
0.00108623
0.00143781
0.001568
0.00159792
0.00150576
0.00143447
0.00136383
0.00129114
0.00121852
0.0011495
0.00107413
0.00101461
0.000944772
0.000900602
0.000857309
0.000831941
0.000809729
0.000789597
0.000773467
0.000755749
0.000741743
0.000726743
0.000713584
0.000701147
0.000688905
0.000678336
0.00066712
0.000657505
0.00064773
0.000638773
0.000630166
0.000622061
0.000614603
0.000607429
0.00060096
0.000594867
0.000589362
0.000584419
0.000580013
0.000576095
0.000573113
0.000565549
0.000560049
0.000556662
0.000553693
0.00055086
0.00054823
0.000545817
0.00054361
0.000541611
0.000539792
0.000538154
0.000536687
0.000535384
0.00053414
0.000533146
0.000532237
0.00053147
0.000530756
0.000530293
0.000529726
0.000529343
0.000528805
0.00052835
0.000527807
0.000527175
0.000526646
0.000525735
0.000525278
0.000524126
0.00052295
0.000521921
0.000520194
0.00051817
0.000515997
0.00051345
0.000509893
0.000505885
0.000499955
0.000495949
3.87147e-05
0.00118352
0.00144551
0.00196543
0.00214518
0.00216433
0.00203855
0.00193538
0.00183664
0.00173758
0.00163967
0.00154632
0.00144751
0.00136629
0.00127566
0.00121282
0.00115224
0.00111332
0.00108
0.0010505
0.00102608
0.00100086
0.000980117
0.000958892
0.000940091
0.00092246
0.000905392
0.000890373
0.000875041
0.000861558
0.000848187
0.0008359
0.000824219
0.000813223
0.000803026
0.000793412
0.000784597
0.000776453
0.000769018
0.000762355
0.000756351
0.000751074
0.000747097
0.000736587
0.000728597
0.000723825
0.000719665
0.000715783
0.000712177
0.000708872
0.000705848
0.000703104
0.000700604
0.00069835
0.000696321
0.000694516
0.000692844
0.000691447
0.000690124
0.000689074
0.000688021
0.000687315
0.000686515
0.000685992
0.000685221
0.00068462
0.00068385
0.000683044
0.000682332
0.000681125
0.000680482
0.000679091
0.000677549
0.000676223
0.000674129
0.000671601
0.000668846
0.000665712
0.000661367
0.000656343
0.000649462
0.000641917
4.65258e-05
0.0016311
0.00188302
0.00258075
0.00281559
0.00281964
0.00265674
0.00251895
0.00239039
0.00226354
0.00213882
0.00201933
0.0018952
0.0017901
0.00167659
0.00159288
0.00151263
0.0014573
0.00141025
0.00136905
0.0013343
0.00129973
0.00127062
0.00124162
0.00121585
0.00119174
0.00116873
0.00114821
0.00112774
0.00110952
0.00109171
0.00107532
0.00105982
0.00104527
0.00103175
0.00101909
0.00100744
0.000996739
0.000986942
0.000978168
0.00097025
0.000963274
0.000958106
0.000944268
0.000933137
0.000926513
0.000920899
0.00091572
0.000910916
0.000906518
0.000902489
0.000898835
0.000895502
0.000892493
0.000889778
0.00088736
0.000885134
0.000883244
0.000881456
0.000880026
0.000878597
0.000877595
0.000876517
0.000875796
0.000874792
0.000873996
0.000873004
0.000871977
0.000871066
0.000869566
0.000868715
0.000867052
0.000865139
0.00086349
0.000860987
0.000857916
0.000854559
0.000850767
0.000845597
0.000839437
0.000831833
0.000819077
5.58414e-05
0.0022121
0.00242621
0.00329664
0.00359149
0.00357672
0.00337293
0.00319805
0.00303827
0.00288246
0.0027296
0.00258237
0.00243104
0.00229997
0.00216136
0.00205442
0.00195202
0.00187729
0.00181353
0.00175789
0.00171037
0.00166417
0.00162471
0.00158607
0.00155163
0.00151949
0.00148911
0.00146179
0.00143496
0.00141091
0.00138762
0.00136616
0.00134593
0.00132699
0.00130939
0.00129298
0.00127785
0.00126398
0.00125128
0.0012399
0.00122963
0.00122055
0.00121392
0.00119641
0.0011814
0.00117235
0.00116491
0.00115812
0.00115184
0.0011461
0.00114084
0.00113607
0.00113171
0.00112778
0.00112423
0.00112106
0.00111815
0.00111566
0.00111332
0.00111141
0.00110954
0.00110817
0.00110676
0.0011058
0.00110454
0.00110352
0.00110229
0.00110101
0.00109989
0.00109809
0.00109701
0.00109506
0.00109277
0.00109077
0.00108785
0.00108421
0.00108022
0.00107573
0.00106972
0.00106231
0.00105433
0.00103426
6.69215e-05
0.00295826
0.00311348
0.00413081
0.00448972
0.00445207
0.00420316
0.0039887
0.00379643
0.00361074
0.00342863
0.00325219
0.00307188
0.00291278
0.00274676
0.00261413
0.00248691
0.00238963
0.00230588
0.00223261
0.00216941
0.00210885
0.00205657
0.00200599
0.0019608
0.00191871
0.00187918
0.00184346
0.00180872
0.00177745
0.00174739
0.00171967
0.00169358
0.00166923
0.0016466
0.00162554
0.00160611
0.00158832
0.00157203
0.00155741
0.00154424
0.00153252
0.00152408
0.00150258
0.00148287
0.00147066
0.00146091
0.00145213
0.00144403
0.00143663
0.00142985
0.00142371
0.0014181
0.00141303
0.00140845
0.00140436
0.00140062
0.00139738
0.00139437
0.00139188
0.00138949
0.00138767
0.00138586
0.00138459
0.00138306
0.00138178
0.0013803
0.00137876
0.0013774
0.0013753
0.00137397
0.00137175
0.00136907
0.00136672
0.00136337
0.00135916
0.00135454
0.00134932
0.0013425
0.00133372
0.0013259
0.001296
8.00575e-05
0.0039102
0.00398169
0.00510525
0.00553101
0.00546548
0.00516657
0.00490997
0.00468414
0.00446791
0.00425572
0.00404888
0.00383794
0.00364885
0.00345306
0.00329218
0.00313731
0.00301419
0.00290687
0.0028123
0.00273002
0.00265181
0.00258373
0.0025184
0.00245985
0.00240545
0.00235454
0.0023084
0.00226388
0.00222363
0.00218518
0.00214968
0.00211636
0.00208529
0.00205643
0.00202959
0.00200485
0.00198218
0.00196144
0.00194278
0.001926
0.00191099
0.00190023
0.00187449
0.00184918
0.00183291
0.00182021
0.00180893
0.00179857
0.00178912
0.00178048
0.00177264
0.00176549
0.00175903
0.00175318
0.00174797
0.0017432
0.00173905
0.00173523
0.00173202
0.00172898
0.00172661
0.00172433
0.00172269
0.00172086
0.00171928
0.00171754
0.00171571
0.00171412
0.00171172
0.00171013
0.00170766
0.00170461
0.0017019
0.00169817
0.00169342
0.00168816
0.00168223
0.00167467
0.00166444
0.0016575
0.00161499
9.55697e-05
0.00511818
0.00506719
0.00624633
0.00674015
0.00664018
0.00628565
0.0059843
0.00572407
0.00547706
0.00523437
0.0049963
0.00475335
0.0045325
0.00430461
0.00411283
0.00392729
0.00377488
0.00364018
0.00352025
0.00341496
0.00331523
0.00322773
0.00314426
0.00306915
0.00299951
0.00293446
0.00287539
0.0028187
0.00276731
0.00271843
0.00267328
0.00263097
0.00259154
0.00255494
0.00252093
0.00248958
0.00246082
0.00243454
0.00241083
0.00238953
0.00237039
0.00235665
0.0023264
0.00229457
0.00227314
0.00225666
0.00224223
0.00222907
0.00221708
0.00220612
0.00219619
0.00218713
0.00217895
0.00217155
0.00216494
0.00215891
0.00215365
0.00214883
0.00214473
0.00214093
0.00213786
0.002135
0.00213292
0.00213074
0.00212884
0.00212682
0.00212471
0.00212288
0.0021202
0.00211834
0.00211567
0.00211229
0.00210925
0.00210519
0.00209996
0.00209414
0.00208754
0.00207938
0.00206763
0.00206252
0.00200477
0.000113801
0.00664355
0.00641764
0.00758522
0.00814646
0.00800328
0.00758661
0.00723785
0.00694279
0.00666532
0.00639232
0.00612269
0.00584676
0.00559269
0.00533044
0.00510511
0.00488573
0.00470042
0.00453427
0.00438455
0.00425186
0.00412614
0.00401496
0.00390927
0.00381371
0.00372525
0.00364264
0.00356753
0.00349574
0.00343046
0.00336862
0.00331144
0.00325795
0.00320811
0.00316189
0.00311892
0.00307934
0.00304297
0.00300976
0.00297971
0.00295273
0.00292837
0.00291077
0.00287573
0.00283644
0.00280853
0.00278721
0.00276882
0.00275215
0.002737
0.00272316
0.00271064
0.00269922
0.00268891
0.00267959
0.00267125
0.00266368
0.00265703
0.00265098
0.00264579
0.00264104
0.00263714
0.00263357
0.00263094
0.00262835
0.00262609
0.00262379
0.00262139
0.00261933
0.00261642
0.00261432
0.0026115
0.00260787
0.00260455
0.00260027
0.00259468
0.00258841
0.00258124
0.0025727
0.00255941
0.00255728
0.0024826
0.000135105
0.00856062
0.00809485
0.0091593
0.00978228
0.00958566
0.00909946
0.0087007
0.00837096
0.0080642
0.0077619
0.00746118
0.00715186
0.00686353
0.0065649
0.00630342
0.00604693
0.00582494
0.00562312
0.00543889
0.00527397
0.00511727
0.00497748
0.00484479
0.00472415
0.00461251
0.00450817
0.00441317
0.00432265
0.0042401
0.00416213
0.00408996
0.00402255
0.00395972
0.00390149
0.00384733
0.00379746
0.00375155
0.00370966
0.00367163
0.00363749
0.00360653
0.00358386
0.00354369
0.00349603
0.00346015
0.00343265
0.00340922
0.00338815
0.00336906
0.00335165
0.00333589
0.00332155
0.00330859
0.00329687
0.00328639
0.0032769
0.00326853
0.00326099
0.00325444
0.00324853
0.00324358
0.00323914
0.00323582
0.00323277
0.0032301
0.0032275
0.00322483
0.00322256
0.00321949
0.00321718
0.00321431
0.00321055
0.00320706
0.0032027
0.00319693
0.00319039
0.00318282
0.00317423
0.00315946
0.00316155
0.00307053
0.000159828
0.0109589
0.0101761
0.0110146
0.0116733
0.0114156
0.0108538
0.0104036
0.0100413
0.00970836
0.00937941
0.00904935
0.00870727
0.0083844
0.00804781
0.00774782
0.007451
0.00718852
0.00694671
0.00672307
0.0065208
0.0063277
0.00615379
0.00598866
0.00583751
0.00569755
0.00556649
0.00544695
0.00533327
0.00522926
0.00513126
0.00504042
0.00495566
0.00487663
0.0048034
0.00473526
0.0046725
0.00461463
0.00456182
0.00451373
0.00447055
0.00443122
0.00440189
0.00435607
0.00429918
0.00425366
0.00421834
0.00418853
0.00416193
0.0041379
0.00411602
0.00409623
0.00407823
0.00406197
0.00404728
0.00403413
0.00402226
0.00401175
0.00400234
0.00399411
0.00398677
0.00398053
0.00397501
0.00397082
0.0039672
0.00396407
0.00396116
0.00395823
0.00395579
0.00395265
0.00395019
0.0039474
0.00394368
0.00394017
0.00393595
0.00393025
0.00392373
0.00391602
0.00390779
0.00389169
0.00389926
0.00379644
0.000188286
0.0139457
0.0127564
0.0132088
0.0138247
0.01349
0.0128543
0.0123588
0.0119746
0.0116263
0.0112791
0.0109253
0.0105538
0.0101981
0.0098233
0.00948329
0.00914349
0.00883697
0.00855104
0.00828315
0.00803839
0.00780328
0.00758934
0.00738581
0.00719807
0.00702387
0.00686027
0.00671064
0.00656852
0.00643801
0.00631521
0.0062012
0.00609487
0.00599566
0.00590372
0.0058181
0.00573922
0.00566635
0.00559981
0.00553905
0.0054844
0.00543448
0.00539639
0.00534409
0.00527719
0.00522028
0.00517518
0.00513728
0.00510371
0.00507349
0.00504601
0.00502118
0.00499862
0.00497824
0.00495983
0.00494334
0.00492851
0.00491532
0.00490358
0.00489325
0.00488414
0.00487629
0.00486943
0.00486414
0.0048598
0.00485612
0.00485287
0.00484971
0.00484714
0.00484404
0.00484156
0.004839
0.00483555
0.00483224
0.00482842
0.00482314
0.00481702
0.00480952
0.00480222
0.00478504
0.00479914
0.00469386
0.000311741
0.0176496
0.0159505
0.0158136
0.0162316
0.0157679
0.0150582
0.014532
0.0141502
0.0138139
0.0134721
0.0131126
0.012724
0.0123432
0.0119345
0.0115559
0.0111726
0.0108198
0.0104867
0.0101704
0.00987853
0.0095961
0.00933627
0.00908819
0.0088574
0.00864249
0.00843984
0.00825381
0.00807714
0.00791419
0.00776096
0.00761838
0.00748538
0.00736116
0.00724598
0.0071386
0.00703959
0.00694795
0.00686417
0.00678745
0.00671832
0.00665499
0.00660542
0.00654536
0.0064677
0.00639762
0.00634051
0.00629245
0.0062501
0.0062121
0.00617763
0.00614648
0.00611821
0.00609267
0.00606961
0.00604894
0.00603039
0.00601386
0.00599921
0.00598626
0.00597492
0.00596509
0.00595653
0.00594984
0.00594456
0.00594021
0.00593656
0.00593318
0.00593054
0.00592762
0.00592524
0.00592311
0.00592021
0.00591739
0.00591431
0.00590988
0.00590464
0.00589781
0.00589211
0.00587423
0.00589566
0.00579934
0.00040539
0.0222251
0.0198961
0.0189145
0.0188962
0.0182122
0.0174159
0.016871
0.0165159
0.0162249
0.0159258
0.0155955
0.0152194
0.0148361
0.0144094
0.0140021
0.0135809
0.0131842
0.0128038
0.0124375
0.0120957
0.0117621
0.0114514
0.0111533
0.0108733
0.0106112
0.0103627
0.0101335
0.00991561
0.0097136
0.00952352
0.00934614
0.00918053
0.0090256
0.00888177
0.00874751
0.00862354
0.00850856
0.00840325
0.00830654
0.00821916
0.00813893
0.00807446
0.00800469
0.00791546
0.00783053
0.00775897
0.00769828
0.00764496
0.00759723
0.00755401
0.00751496
0.00747956
0.00744756
0.00741869
0.00739278
0.00736958
0.00734886
0.00733055
0.00731432
0.00730019
0.00728787
0.00727719
0.00726868
0.00726218
0.00725694
0.0072528
0.00724919
0.00724651
0.0072439
0.00724181
0.00724031
0.00723829
0.00723631
0.00723437
0.00723129
0.00722752
0.00722191
0.00721857
0.00720048
0.00722984
0.00713811
0.00334258
0.0278601
0.0247539
0.0226064
0.0218314
0.0208016
0.0198927
0.0193346
0.0190232
0.018804
0.0185819
0.0183205
0.0179982
0.0176509
0.0172393
0.0168289
0.0163888
0.0159605
0.015541
0.015129
0.0147393
0.0143544
0.013991
0.0136396
0.0133059
0.0129914
0.012691
0.0124123
0.0121465
0.0118986
0.0116649
0.011446
0.0112413
0.0110492
0.0108706
0.0107036
0.010549
0.0104054
0.0102734
0.0101519
0.0100418
0.00994043
0.00985685
0.0097746
0.0096728
0.0095715
0.00948302
0.00940693
0.00934003
0.00928022
0.00922614
0.00917727
0.00913298
0.00909294
0.00905683
0.00902436
0.00899534
0.00896938
0.00894649
0.00892616
0.00890853
0.00889311
0.00887975
0.00886891
0.00886074
0.00885432
0.0088495
0.00884558
0.00884287
0.0088407
0.00883905
0.00883842
0.00883761
0.00883687
0.00883652
0.00883532
0.00883366
0.00882987
0.00882968
0.00881189
0.00884969
0.00876389
0.00539632
0.034775
0.0307061
0.0269747
0.0250539
0.0235242
0.0224645
0.0218933
0.0216362
0.0215064
0.0213859
0.0212251
0.0209949
0.0207259
0.0203722
0.0199985
0.0195744
0.0191429
0.018706
0.0182644
0.0178387
0.0174106
0.0169993
0.0165968
0.0162094
0.0158405
0.015485
0.0151523
0.0148336
0.0145341
0.0142507
0.0139839
0.0137335
0.0134979
0.0132781
0.013072
0.0128808
0.0127025
0.0125383
0.0123866
0.0122484
0.0121211
0.0120134
0.011915
0.0117993
0.0116803
0.0115726
0.0114783
0.0113949
0.0113203
0.0112529
0.0111919
0.0111367
0.0110867
0.0110416
0.011001
0.0109648
0.0109323
0.0109037
0.0108783
0.0108563
0.010837
0.0108203
0.0108064
0.010796
0.010788
0.0107822
0.0107778
0.010775
0.0107733
0.0107722
0.0107727
0.0107734
0.0107742
0.0107759
0.0107771
0.0107782
0.0107768
0.0107805
0.0107634
0.0108101
0.0107219
0.00793531
0.0429945
0.0379246
0.0320481
0.0285682
0.0263671
0.0251082
0.0245211
0.0243256
0.0242967
0.0242939
0.0242555
0.0241461
0.0239901
0.0237339
0.023439
0.0230735
0.0226793
0.022261
0.0218205
0.0213844
0.0209339
0.0204906
0.0200493
0.0196166
0.0191988
0.0187908
0.0184049
0.0180322
0.0176787
0.017342
0.0170229
0.016722
0.0164375
0.0161709
0.0159199
0.0156862
0.0154675
0.0152653
0.0150777
0.0149061
0.0147475
0.0146105
0.0144914
0.0143599
0.0142222
0.0140935
0.0139782
0.0138755
0.0137832
0.0136998
0.0136242
0.0135557
0.0134936
0.0134376
0.0133871
0.013342
0.0133015
0.0132659
0.0132341
0.0132067
0.0131827
0.0131618
0.0131442
0.0131309
0.0131205
0.0131133
0.0131081
0.013105
0.0131038
0.0131033
0.0131049
0.0131074
0.0131102
0.0131142
0.0131182
0.0131225
0.0131239
0.0131319
0.0131158
0.0131714
0.0130707
0.0108872
0.0520096
0.0462958
0.0377317
0.0323358
0.0293016
0.0277918
0.0271862
0.0270594
0.0271406
0.0272664
0.0273649
0.027397
0.0273794
0.0272508
0.02707
0.0268021
0.0264872
0.0261288
0.0257294
0.02532
0.0248803
0.024434
0.0239786
0.0235213
0.0230711
0.0226233
0.0221937
0.0217735
0.0213702
0.0209823
0.0206115
0.020259
0.0199235
0.0196072
0.0193079
0.0190276
0.0187641
0.0185191
0.0182909
0.0180808
0.0178861
0.0177147
0.0175702
0.0174206
0.0172636
0.0171129
0.0169749
0.0168502
0.0167376
0.0166355
0.0165428
0.0164587
0.0163823
0.0163134
0.016251
0.0161953
0.0161452
0.0161011
0.0160618
0.0160278
0.015998
0.0159722
0.0159499
0.0159327
0.0159194
0.0159101
0.0159036
0.0158998
0.0158988
0.0158989
0.0159016
0.0159059
0.0159107
0.0159173
0.0159243
0.0159319
0.0159363
0.0159485
0.0159329
0.0159969
0.015875
0.0142799
0.0613818
0.0552884
0.0437539
0.0362195
0.0322566
0.0304626
0.0298446
0.0297957
0.0299957
0.0302581
0.0305036
0.0306932
0.0308331
0.0308549
0.0308148
0.0306757
0.0304766
0.030216
0.0298978
0.0295551
0.0291653
0.028753
0.0283183
0.0278683
0.0274136
0.0269506
0.026498
0.0260477
0.0256085
0.0251805
0.0247662
0.0243684
0.0239861
0.0236226
0.023276
0.0229491
0.0226399
0.0223505
0.0220793
0.021828
0.021594
0.0213847
0.0212106
0.0210409
0.0208643
0.0206919
0.0205306
0.0203829
0.0202482
0.0201255
0.0200136
0.019912
0.0198194
0.0197357
0.0196598
0.0195919
0.0195307
0.0194768
0.0194287
0.0193871
0.0193506
0.0193189
0.0192911
0.0192693
0.0192521
0.0192399
0.0192315
0.0192265
0.0192253
0.0192256
0.0192293
0.0192351
0.0192418
0.0192508
0.0192605
0.0192714
0.0192782
0.0192941
0.019278
0.0193487
0.0191999
0.0181353
0.0708156
0.0643886
0.049572
0.0398713
0.0350711
0.0330295
0.0324354
0.0324793
0.0328076
0.0332113
0.0336101
0.0339709
0.0342832
0.0344728
0.0345946
0.0346098
0.0345568
0.0344259
0.0342246
0.0339859
0.0336834
0.0333434
0.0329673
0.0325619
0.032138
0.0316929
0.0312479
0.0307948
0.030344
0.029897
0.0294577
0.0290299
0.0286137
0.0282135
0.0278282
0.0274613
0.0271114
0.0267811
0.0264693
0.0261781
0.0259054
0.0256578
0.0254527
0.0252619
0.0250666
0.0248744
0.0246916
0.0245216
0.0243649
0.0242212
0.0240896
0.0239695
0.0238598
0.0237603
0.0236699
0.0235889
0.0235156
0.0234511
0.0233934
0.0233434
0.0232996
0.0232616
0.0232277
0.0232005
0.0231787
0.0231629
0.0231519
0.0231451
0.0231432
0.0231432
0.0231474
0.0231544
0.0231626
0.0231734
0.0231854
0.0231986
0.023207
0.0232252
0.0232066
0.0232809
0.0231037
0.0224584
0.0800323
0.0729647
0.0551573
0.0431563
0.0377297
0.0355379
0.034981
0.0350934
0.0355137
0.0360555
0.036608
0.0371514
0.037646
0.0380157
0.0383162
0.0385075
0.0386276
0.0386535
0.0386013
0.0385004
0.0383193
0.0380866
0.0378063
0.0374828
0.0371263
0.0367358
0.0363338
0.0359115
0.0354807
0.0350441
0.0346067
0.0341733
0.033745
0.0333275
0.0329204
0.0325283
0.0321502
0.0317899
0.0314466
0.0311229
0.0308176
0.0305367
0.0303032
0.030093
0.029882
0.029674
0.029474
0.0292855
0.0291097
0.0289473
0.0287974
0.0286601
0.0285341
0.0284196
0.0283151
0.0282212
0.0281362
0.0280612
0.027994
0.0279358
0.0278849
0.0278406
0.0278007
0.0277682
0.0277415
0.0277218
0.0277077
0.0276987
0.0276957
0.027695
0.0276992
0.0277068
0.0277159
0.0277279
0.0277412
0.0277558
0.0277643
0.0277827
0.0277594
0.027833
0.0276298
0.0272517
0.0886881
0.080523
0.0616327
0.0473781
0.0408947
0.0384873
0.0378805
0.0379663
0.0383801
0.038956
0.0395742
0.0402152
0.0408279
0.041377
0.0418668
0.0422514
0.0425687
0.0427728
0.0429009
0.0429697
0.0429404
0.0428479
0.0426992
0.0424935
0.0422398
0.0419412
0.0416189
0.041263
0.0408872
0.0404949
0.0400917
0.0396832
0.0392715
0.0388633
0.0384589
0.0380639
0.0376781
0.0373061
0.0369476
0.036606
0.036281
0.035978
0.0357245
0.0355007
0.0352797
0.0350626
0.0348526
0.0346527
0.0344642
0.0342885
0.0341251
0.0339748
0.033836
0.0337096
0.0335936
0.0334894
0.0333947
0.0333111
0.0332361
0.0331713
0.0331146
0.0330655
0.0330208
0.0329839
0.0329531
0.0329301
0.0329134
0.0329024
0.0328983
0.0328969
0.032901
0.0329091
0.0329187
0.0329313
0.0329452
0.03296
0.0329673
0.0329839
0.0329539
0.0330218
0.0327989
0.0325352
0.0963431
0.0870557
0.0691472
0.0540791
0.0462738
0.0431332
0.0420184
0.0417784
0.0419604
0.042377
0.0429045
0.0434963
0.0441058
0.0447022
0.045277
0.0457689
0.0462451
0.0466331
0.0469727
0.0472388
0.0473857
0.0474647
0.0474838
0.0474298
0.0473128
0.0471441
0.0469388
0.0466854
0.0464011
0.0460893
0.0457558
0.0454064
0.0450444
0.044677
0.0443053
0.0439357
0.0435688
0.0432097
0.042859
0.0425207
0.0421954
0.0418883
0.041629
0.0414023
0.0411808
0.0409643
0.0407543
0.0405531
0.0403617
0.0401818
0.0400132
0.0398572
0.0397125
0.0395802
0.0394585
0.0393489
0.0392492
0.0391611
0.0390823
0.0390142
0.0389551
0.0389042
0.0388576
0.0388191
0.0387866
0.0387622
0.0387445
0.038733
0.0387291
0.038728
0.0387329
0.0387421
0.0387526
0.0387662
0.0387807
0.0387955
0.0388011
0.0388147
0.0387776
0.0388349
0.0386024
0.0383398
0.102528
0.093103
0.0774475
0.063004
0.0545089
0.0502413
0.0481086
0.0471503
0.0468142
0.046838
0.0470778
0.0474337
0.0478812
0.0483612
0.048879
0.0493588
0.0498571
0.0503105
0.0507465
0.05114
0.0514669
0.0517455
0.0519677
0.052092
0.0521428
0.0521437
0.0520916
0.0519764
0.0518213
0.0516283
0.051402
0.0511484
0.0508725
0.0505814
0.0502766
0.0499653
0.0496487
0.0493327
0.0490183
0.0487101
0.0484097
0.0481222
0.047877
0.0476629
0.0474547
0.0472519
0.0470549
0.0468654
0.0466838
0.0465121
0.0463498
0.0461991
0.0460584
0.0459296
0.0458107
0.0457039
0.0456065
0.0455209
0.0454446
0.0453793
0.0453232
0.0452756
0.0452322
0.0451967
0.0451669
0.0451453
0.0451303
0.0451215
0.0451207
0.0451227
0.0451308
0.0451433
0.0451568
0.0451731
0.0451898
0.0452059
0.0452112
0.0452226
0.0451806
0.0452242
0.0449964
0.0446731
0.107148
0.0992938
0.0862102
0.0731337
0.0642432
0.0587648
0.0555244
0.0537427
0.0528022
0.0523502
0.0522019
0.052215
0.0523885
0.0526294
0.052962
0.0533074
0.0536951
0.0540877
0.0544922
0.0548937
0.055271
0.0556336
0.0559602
0.0562556
0.0564973
0.0567092
0.0568367
0.05689
0.0569021
0.056866
0.0567842
0.0566648
0.0565139
0.0563373
0.0561369
0.0559207
0.0556902
0.0554517
0.055207
0.054961
0.0547162
0.0544774
0.0542713
0.0540901
0.0539136
0.0537413
0.0535736
0.0534116
0.0532554
0.053107
0.0529658
0.0528343
0.052711
0.0525982
0.052494
0.0524009
0.0523164
0.0522431
0.0521784
0.0521245
0.0520794
0.0520429
0.05201
0.0519847
0.0519643
0.0519518
0.0519455
0.0519451
0.0519527
0.0519625
0.0519785
0.0519987
0.0520194
0.0520424
0.0520653
0.0520865
0.0520957
0.0521083
0.0520675
0.0520974
0.051892
0.0514903
0.111533
0.105437
0.0949781
0.0833139
0.0733573
0.0665577
0.0626413
0.0603873
0.0590771
0.0582945
0.0578189
0.0575298
0.0574411
0.0574337
0.0575371
0.0576823
0.057884
0.0581275
0.0584018
0.0587073
0.0590212
0.0593527
0.0596793
0.0600123
0.0603294
0.0606386
0.0609205
0.0611586
0.0613726
0.0615223
0.0616139
0.0616635
0.0616751
0.0616502
0.061592
0.0615091
0.061403
0.0612796
0.0611414
0.0609938
0.0608397
0.0606837
0.0605464
0.060423
0.0603009
0.0601802
0.0600615
0.0599462
0.0598339
0.0597269
0.0596244
0.0595291
0.0594396
0.0593585
0.059284
0.0592189
0.0591607
0.0591125
0.0590716
0.0590406
0.0590173
0.0590021
0.0589897
0.0589842
0.0589828
0.0589884
0.0589994
0.0590157
0.0590394
0.0590649
0.0590961
0.059131
0.0591658
0.0592025
0.0592383
0.0592715
0.0592921
0.059313
0.0592836
0.0593048
0.0591409
0.0586787
0.116332
0.111628
0.103317
0.0932951
0.0837941
0.0761333
0.0704211
0.0670039
0.0650817
0.063925
0.0632331
0.0628038
0.0625858
0.0624207
0.0623333
0.0622908
0.062314
0.0623909
0.0624976
0.0626492
0.0628261
0.0630415
0.0632803
0.0635487
0.0638351
0.0641372
0.0644482
0.0647518
0.0650558
0.0653411
0.0656064
0.0658478
0.0660464
0.0661966
0.0663094
0.0663926
0.0664445
0.0664709
0.066475
0.0664622
0.0664352
0.0663981
0.0663619
0.066324
0.0662823
0.0662376
0.0661909
0.066144
0.066097
0.066052
0.0660084
0.0659689
0.0659324
0.0659014
0.0658745
0.0658545
0.0658393
0.0658318
0.0658298
0.0658359
0.0658482
0.0658672
0.0658881
0.0659148
0.0659444
0.0659799
0.0660197
0.0660638
0.0661143
0.066166
0.0662227
0.0662822
0.0663414
0.0664017
0.0664607
0.0665161
0.0665593
0.0665999
0.0665963
0.066621
0.0665171
0.0660387
0.120469
0.117181
0.110862
0.102878
0.0947795
0.0875495
0.0814518
0.0766706
0.0730477
0.0706392
0.0692538
0.0683709
0.0677729
0.0673194
0.0670456
0.0668772
0.0668065
0.0667525
0.0666986
0.066685
0.0667001
0.0667611
0.0668611
0.0670016
0.0671792
0.0673872
0.0676262
0.0678856
0.0681698
0.0684677
0.0687786
0.0690942
0.0694084
0.0697106
0.0699992
0.0702591
0.0704805
0.0706737
0.0708427
0.0709902
0.0711181
0.0712298
0.0713229
0.0713956
0.0714583
0.0715128
0.0715609
0.0716046
0.0716444
0.0716825
0.0717187
0.0717555
0.0717922
0.0718312
0.0718713
0.0719151
0.0719611
0.072012
0.0720661
0.0721256
0.0721892
0.0722577
0.0723269
0.0724002
0.0724752
0.0725546
0.0726371
0.0727226
0.0728131
0.0729042
0.0729994
0.0730965
0.073193
0.0732903
0.0733857
0.0734774
0.0735581
0.0736342
0.0736747
0.0737229
0.0736963
0.073267
0.123926
0.121717
0.117294
0.111472
0.10499
0.0985668
0.0928379
0.0880157
0.0840334
0.080792
0.0782346
0.0760798
0.0743902
0.0731584
0.0724112
0.0719125