/*--------------------------------*- C++ -*----------------------------------*\
| =========                 |                                                 |
| \\      /  F ield         | OpenFOAM: The Open Source CFD Toolbox           |
|  \\    /   O peration     | Version:  5.x                                   |
|   \\  /    A nd           | Web:      www.OpenFOAM.org                      |
|    \\/     M anipulation  |                                                 |
\*---------------------------------------------------------------------------*/
FoamFile
{
    version     2.0;
    format      ascii;
    class       surfaceScalarField;
    location    "800";
    object      phi;
}
// * * * * * * * * * * * * * * * * * * * * * * * * * * * * * * * * * * * * * //

dimensions      [0 3 -1 0 0 0 0];

internalField   nonuniform List<scalar> 
83317
(
0.000496862
0.0001078
-0.000609247
0.000401992
9.48653e-05
0.00032685
7.51432e-05
0.000294901
3.19488e-05
0.00027733
1.75717e-05
0.000263254
1.40755e-05
0.000252758
1.04961e-05
0.000244897
7.86066e-06
0.000238515
6.38182e-06
0.000232866
5.64889e-06
0.000227877
4.94665e-06
0.000222674
5.24139e-06
0.00021859
4.04285e-06
0.000214533
4.10262e-06
0.000212039
2.45013e-06
0.000210192
1.89039e-06
0.000208289
1.85933e-06
0.000206835
1.49822e-06
0.000204843
1.9472e-06
0.000203225
1.66292e-06
0.00020155
1.67607e-06
0.000199735
1.81518e-06
0.000198384
1.35087e-06
0.000196722
1.66216e-06
0.000195422
1.30075e-06
0.000194142
1.27997e-06
0.000192588
1.55408e-06
0.000191327
1.26179e-06
0.000190276
1.05045e-06
0.000189115
1.16129e-06
0.000187664
1.45109e-06
0.000186335
1.28048e-06
0.000185586
7.9315e-07
0.000184736
8.19748e-07
0.000183934
8.32737e-07
0.000183345
5.65662e-07
0.000182625
7.48172e-07
0.000182339
2.55345e-07
0.000182421
-5.08259e-08
0.000182503
-1.07815e-07
0.000182561
-3.12964e-08
0.000178057
4.48544e-06
0.000174243
3.83386e-06
0.000173753
4.64693e-07
0.000173354
4.23879e-07
0.000173296
5.57157e-08
0.000172905
3.93341e-07
0.000172545
3.52276e-07
0.000172238
3.14675e-07
0.000171974
2.56039e-07
0.000171754
2.25054e-07
0.000171579
1.7191e-07
0.000171439
1.44275e-07
0.000171348
9.94588e-08
0.00017093
4.09365e-07
0.000170574
3.41603e-07
0.000170892
-3.0341e-07
0.000170945
-4.43914e-08
0.000170977
-3.91779e-08
0.000171383
-3.83165e-07
0.000171475
-1.14533e-07
0.000171243
2.45977e-07
0.000171215
1.51863e-08
0.000171154
8.90791e-08
0.000171041
8.64307e-08
0.000170837
2.44832e-07
0.000170369
4.28774e-07
0.000170228
1.91202e-07
0.000170135
4.39374e-08
0.000169405
7.92034e-07
0.000168592
7.52604e-07
0.000168112
5.86277e-07
0.000166883
1.1257e-06
0.000165256
1.75349e-06
0.000163936
1.19459e-06
0.000162192
1.96898e-06
0.000159601
2.36773e-06
0.000156743
3.20113e-06
0.000152897
3.50571e-06
0.000151227
2.14776e-06
7.78813e-05
7.29463e-05
-0.000366244
0.000444095
0.000750536
0.000251433
-0.000894244
0.000578405
0.000266994
0.000459366
0.000194183
0.000411987
7.93272e-05
0.000391562
3.79974e-05
0.000377473
2.81641e-05
0.000369888
1.80814e-05
0.000365984
1.17643e-05
0.000364001
8.36522e-06
0.000363223
6.42689e-06
0.000362884
5.2633e-06
0.000362586
5.559e-06
0.000362708
3.89956e-06
0.000362914
3.92077e-06
0.000364744
5.96982e-07
0.000366355
3.02311e-07
0.000368927
-7.35115e-07
0.000371052
-6.04465e-07
0.000373337
-3.60459e-07
0.000375376
-3.53438e-07
0.000376626
4.26383e-07
0.000378081
3.6113e-07
0.000378601
8.30731e-07
0.000379103
1.16059e-06
0.000379058
1.34636e-06
0.000378537
1.80122e-06
0.000378319
1.77163e-06
0.000377369
2.21233e-06
0.000376184
2.23544e-06
0.00037485
2.4955e-06
0.000373716
2.58499e-06
0.000372378
2.59381e-06
0.000370465
2.72777e-06
0.00036866
2.60966e-06
0.000366763
2.74558e-06
0.000364789
2.52768e-06
0.000362921
2.63095e-06
0.000360817
2.3445e-06
0.000358418
2.36449e-06
0.000356217
2.07865e-06
0.000354033
2.16663e-06
0.000355636
2.87334e-06
0.000358236
1.24408e-06
0.000358445
2.42025e-07
0.000357891
9.8962e-07
0.000356985
9.61407e-07
0.000356306
1.07295e-06
0.00035565
1.00465e-06
0.000354991
9.77231e-07
0.000354359
8.84283e-07
0.000353742
8.43884e-07
0.000353154
7.57607e-07
0.000352589
7.12358e-07
0.000352045
6.47407e-07
0.000351765
6.84984e-07
0.000351503
5.95072e-07
0.000350788
4.20377e-07
0.00035033
4.17454e-07
0.000349902
3.85183e-07
0.000349275
2.56554e-07
0.000348886
2.61692e-07
0.000348663
4.76754e-07
0.000348104
5.68136e-07
0.000347491
7.16645e-07
0.000346791
7.72457e-07
0.00034605
1.00771e-06
0.000345383
1.07537e-06
0.000344264
1.33718e-06
0.000343005
1.27611e-06
0.000341898
1.93256e-06
0.00034058
2.03956e-06
0.000338772
2.45084e-06
0.000337022
2.82194e-06
0.000335102
3.7407e-06
0.000332435
3.7955e-06
0.000329403
5.12039e-06
0.000325849
5.80404e-06
0.000321733
7.50096e-06
0.000315428
9.63069e-06
0.000313031
4.8094e-06
0.000171371
0.000214406
-0.000740825
0.000545905
0.0009944
0.000430661
-0.00117356
0.00075901
0.000502382
0.000596189
0.000357004
0.000533866
0.000141651
0.000509222
6.26414e-05
0.000493811
4.35748e-05
0.000487681
2.42115e-05
0.000486381
1.30643e-05
0.000487532
7.21384e-06
0.000490318
3.64048e-06
0.000493405
2.16243e-06
0.000496514
2.46363e-06
0.000499504
8.94558e-07
0.000502055
1.38569e-06
0.000506181
-3.54371e-06
0.000509304
-2.80587e-06
0.000513656
-5.10077e-06
0.000517158
-4.09265e-06
0.000520802
-4.01904e-06
0.000524042
-3.58e-06
0.000526309
-1.83973e-06
0.000528657
-1.98754e-06
0.000529734
-2.46302e-07
0.000530734
1.60649e-07
0.000531009
1.07158e-06
0.000530869
1.94109e-06
0.00053066
1.98142e-06
0.000529703
3.16947e-06
0.000528675
3.2629e-06
0.000527208
3.96308e-06
0.000525742
4.0511e-06
0.000523982
4.33956e-06
0.000521929
4.79399e-06
0.000519757
4.77165e-06
0.000517399
5.11336e-06
0.000514912
5.00689e-06
0.000512267
5.28452e-06
0.000509467
5.13584e-06
0.000506368
5.47272e-06
0.000503272
5.16602e-06
0.000499893
5.55431e-06
0.000503163
-4.02595e-07
0.000507787
-3.37374e-06
0.000507938
8.32812e-08
0.000507288
1.64707e-06
0.000506414
1.8357e-06
0.00050558
1.90697e-06
0.000504765
1.81774e-06
0.000503933
1.81137e-06
0.000503122
1.69297e-06
0.00050232
1.64804e-06
0.000501543
1.53318e-06
0.000500786
1.47121e-06
0.000500041
1.39493e-06
0.000499417
1.30652e-06
0.000498804
1.20365e-06
0.000498031
1.19784e-06
0.000497371
1.08e-06
0.000496738
1.01537e-06
0.000496047
9.54797e-07
0.000495452
8.5037e-07
0.000494869
1.06383e-06
0.000494038
1.39518e-06
0.00049315
1.61315e-06
0.000492125
1.78893e-06
0.000491075
2.07099e-06
0.000489902
2.23638e-06
0.000488552
2.7022e-06
0.000486976
2.83675e-06
0.000485225
3.7029e-06
0.000483458
3.78754e-06
0.00048115
4.79237e-06
0.000478584
5.3554e-06
0.000475876
6.48839e-06
0.000472497
7.13448e-06
0.00046844
9.24929e-06
0.000463565
1.06077e-05
0.000458189
1.29856e-05
0.000450048
1.7663e-05
0.000447031
7.97792e-06
0.000265196
0.000396109
-0.00115628
0.000680612
0.0012903
0.000644733
-0.00150442
0.000985864
0.000806812
0.000768733
0.000574136
0.000686817
0.000223566
0.000656038
9.34209e-05
0.000638382
6.12302e-05
0.00063285
2.97437e-05
0.000633366
1.25487e-05
0.000636906
3.67384e-06
0.000642414
-1.86743e-06
0.000648363
-3.79758e-06
0.000654118
-3.2825e-06
0.000659606
-4.60301e-06
0.000663797
-2.7934e-06
0.000669182
-8.9392e-06
0.000673129
-6.74311e-06
0.000678145
-1.01263e-05
0.000682322
-8.2598e-06
0.000686405
-8.11196e-06
0.000690131
-7.29596e-06
0.000692791
-4.49975e-06
0.000695423
-4.61947e-06
0.000696775
-1.59771e-06
0.0006979
-9.64083e-07
0.000698313
6.58037e-07
0.000698264
1.99078e-06
0.000697983
2.26226e-06
0.000696974
4.17905e-06
0.000695939
4.2976e-06
0.000694354
5.54858e-06
0.000692635
5.77006e-06
0.000690604
6.35979e-06
0.000688422
6.98552e-06
0.000686024
7.16206e-06
0.000683395
7.74964e-06
0.000680633
7.76384e-06
0.000677583
8.34123e-06
0.000674445
8.2675e-06
0.000671036
8.88901e-06
0.000667538
8.65745e-06
0.000663599
9.49927e-06
0.000666604
-3.41132e-06
0.000671388
-8.15371e-06
0.000671569
-1.03156e-07
0.000670847
2.37379e-06
0.000669963
2.7191e-06
0.000669006
2.86417e-06
0.000668067
2.75563e-06
0.000667109
2.77102e-06
0.000666175
2.62508e-06
0.000665249
2.57421e-06
0.000664354
2.42807e-06
0.000663479
2.34671e-06
0.00066262
2.25593e-06
0.000661784
2.14057e-06
0.000660963
2.02091e-06
0.000660175
1.9893e-06
0.000659412
1.84468e-06
0.000658672
1.75404e-06
0.000657977
1.65559e-06
0.000657279
1.54271e-06
0.000656484
1.8626e-06
0.000655474
2.40249e-06
0.000654387
2.70616e-06
0.000653121
3.04865e-06
0.000651809
3.39337e-06
0.000650244
3.79227e-06
0.000648633
4.32536e-06
0.000646747
4.71087e-06
0.000644434
6.03081e-06
0.000642154
6.05466e-06
0.000639314
7.65735e-06
0.000635936
8.70888e-06
0.000632337
1.01182e-05
0.000628075
1.13675e-05
0.000622866
1.45112e-05
0.000616485
1.69371e-05
0.00060952
2.00321e-05
0.000599087
2.80169e-05
0.000595279
1.19066e-05
0.000385798
0.000605508
-0.00162635
0.000855807
0.00164443
0.00088836
-0.00188797
0.00126274
0.0011885
0.00098199
0.000854888
0.000874032
0.000331524
0.000834052
0.000133401
0.000812445
8.28375e-05
0.000805834
3.63544e-05
0.000806962
1.14205e-05
0.000812094
-1.45817e-06
0.000819757
-9.53053e-06
0.000828374
-1.24212e-05
0.000836735
-1.16372e-05
0.000845032
-1.29063e-05
0.000851424
-9.17845e-06
0.000858586
-1.61081e-05
0.000863935
-1.20851e-05
0.000870077
-1.62753e-05
0.000875383
-1.35586e-05
0.000880365
-1.31009e-05
0.000885005
-1.19293e-05
0.000888379
-7.874e-06
0.000891643
-7.8834e-06
0.000893537
-3.49171e-06
0.000895044
-2.47092e-06
0.000895794
-9.14402e-08
0.000895921
1.86357e-06
0.00089579
2.39313e-06
0.000894832
5.13689e-06
0.000893794
5.33624e-06
0.000892147
7.19545e-06
0.000890303
7.61391e-06
0.000888113
8.5424e-06
0.000885732
9.37301e-06
0.000883111
9.779e-06
0.000880211
1.06541e-05
0.000877166
1.08055e-05
0.000873785
1.17263e-05
0.000870305
1.17422e-05
0.000866518
1.26811e-05
0.000862626
1.25456e-05
0.000858217
1.39121e-05
0.000860836
-6.03314e-06
0.0008657
-1.3014e-05
0.000866042
-4.49471e-07
0.000865275
3.14456e-06
0.000864305
3.68883e-06
0.000863233
3.93681e-06
0.000862176
3.81164e-06
0.000861099
3.84892e-06
0.000860046
3.6774e-06
0.000859005
3.61598e-06
0.000857998
3.43473e-06
0.000857015
3.33085e-06
0.000856049
3.22295e-06
0.000855095
3.09376e-06
0.000854162
2.95133e-06
0.000853284
2.8692e-06
0.00085243
2.69996e-06
0.000851595
2.58833e-06
0.000850828
2.42676e-06
0.000850042
2.3245e-06
0.00084912
2.78715e-06
0.00084793
3.59036e-06
0.000846633
4.00785e-06
0.00084511
4.56684e-06
0.000843509
5.00118e-06
0.000841595
5.69953e-06
0.000839601
6.32782e-06
0.000837285
7.01894e-06
0.000834412
8.91369e-06
0.00083153
8.92679e-06
0.000827991
1.1214e-05
0.000823741
1.29407e-05
0.000819158
1.47228e-05
0.000813759
1.67447e-05
0.000807175
2.1134e-05
0.000799065
2.50087e-05
0.000790176
2.89799e-05
0.000776891
4.1243e-05
0.000772099
1.67782e-05
0.000542573
0.000834962
-0.00216191
0.0010781
0.00206615
0.00115838
-0.00233622
0.00159485
0.00165979
0.00123827
0.00121147
0.00109839
0.000471399
0.00104656
0.000185237
0.00101983
0.000109562
0.00101161
4.45732e-05
0.00101333
9.70028e-06
0.00102034
-8.4684e-06
0.00103064
-1.98314e-05
0.0010425
-2.42877e-05
0.00105411
-2.32332e-05
0.00106591
-2.47139e-05
0.00107531
-1.85792e-05
0.00108518
-2.59779e-05
0.00109268
-1.95795e-05
0.00110059
-2.41972e-05
0.00110756
-2.05167e-05
0.00111391
-1.94587e-05
0.00111989
-1.79017e-05
0.00112432
-1.23091e-05
0.00112855
-1.21061e-05
0.00113125
-6.19239e-06
0.00113337
-4.59121e-06
0.00113465
-1.3695e-06
0.0011351
1.41221e-06
0.00113527
2.22319e-06
0.00113446
5.94478e-06
0.00113349
6.30421e-06
0.00113184
8.84731e-06
0.00112993
9.52134e-06
0.00112763
1.08381e-05
0.00112505
1.19572e-05
0.00112221
1.26161e-05
0.00111904
1.38309e-05
0.0011157
1.41412e-05
0.00111199
1.54448e-05
0.00110815
1.55776e-05
0.00110395
1.68863e-05
0.00109964
1.68521e-05
0.00109474
1.88127e-05
0.00109694
-8.24067e-06
0.0011019
-1.79719e-05
0.00110248
-1.02433e-06
0.00110169
3.92922e-06
0.00110063
4.74942e-06
0.00109945
5.11872e-06
0.00109828
4.97987e-06
0.00109709
5.04353e-06
0.00109592
4.84247e-06
0.00109477
4.77055e-06
0.00109365
4.55025e-06
0.00109256
4.42046e-06
0.0010915
4.29157e-06
0.00109045
4.14245e-06
0.00108942
3.97176e-06
0.00108844
3.8539e-06
0.0010875
3.64202e-06
0.00108657
3.51333e-06
0.00108572
3.28183e-06
0.00108485
3.19076e-06
0.00108382
3.82291e-06
0.00108243
4.97319e-06
0.0010809
5.54345e-06
0.00107909
6.3744e-06
0.00107716
6.93972e-06
0.00107486
7.99324e-06
0.0010724
8.79453e-06
0.00106956
9.85088e-06
0.00106605
1.24384e-05
0.00106244
1.25208e-05
0.00105806
1.56182e-05
0.00105278
1.82021e-05
0.00104703
2.04965e-05
0.00104024
2.35138e-05
0.00103199
2.9412e-05
0.00102181
3.51607e-05
0.00101058
4.02594e-05
0.000993818
5.79571e-05
0.000987792
2.28828e-05
0.000740152
0.00108255
-0.00277401
0.0013522
0.00257042
0.00145224
-0.0028642
0.00199543
0.00223479
0.00154708
0.00165982
0.00136889
0.000649589
0.00130258
0.000251541
0.00126971
0.000142436
0.00125973
5.45543e-05
0.00126232
7.10982e-06
0.00127174
-1.78853e-05
0.00128537
-3.34681e-05
0.00130125
-4.01662e-05
0.00131688
-3.88626e-05
0.00133301
-4.08517e-05
0.00134627
-3.18266e-05
0.00135976
-3.94776e-05
0.00137022
-3.00309e-05
0.00138062
-3.46064e-05
0.00138984
-2.97318e-05
0.00139809
-2.77093e-05
0.00140587
-2.56845e-05
0.00141178
-1.8212e-05
0.00141733
-1.76576e-05
0.00142114
-9.99931e-06
0.00142414
-7.59307e-06
0.00142617
-3.40381e-06
0.00142713
4.5106e-07
0.00142776
1.59356e-06
0.00142723
6.48012e-06
0.00142643
7.09767e-06
0.00142485
1.04273e-05
0.00142294
1.14371e-05
0.00142056
1.3212e-05
0.00141781
1.47117e-05
0.00141476
1.56598e-05
0.00141131
1.72818e-05
0.00140768
1.77762e-05
0.00140361
1.95158e-05
0.00139939
1.97942e-05
0.00139475
2.15315e-05
0.00138999
2.16066e-05
0.00138457
2.42406e-05
0.00138633
-1.00112e-05
0.00139142
-2.30586e-05
0.00139228
-1.88555e-06
0.00139152
4.69118e-06
0.00139038
5.887e-06
0.0013891
6.39872e-06
0.00138783
6.25475e-06
0.00138653
6.3476e-06
0.00138525
6.11813e-06
0.00138398
6.03594e-06
0.00138277
5.76875e-06
0.00138157
5.61244e-06
0.00138041
5.45819e-06
0.00137927
5.28475e-06
0.00137816
5.07752e-06
0.00137707
4.93945e-06
0.00137605
4.66647e-06
0.00137504
4.52729e-06
0.00137411
4.21326e-06
0.00137316
4.13698e-06
0.00137201
4.97209e-06
0.00137041
6.57303e-06
0.00136862
7.34101e-06
0.00136647
8.517e-06
0.00136415
9.26286e-06
0.0013614
1.07418e-05
0.00135839
1.18071e-05
0.00135493
1.33031e-05
0.00135065
1.67281e-05
0.00134618
1.69824e-05
0.00134077
2.10373e-05
0.00133426
2.47071e-05
0.00132708
2.76854e-05
0.00131861
3.19697e-05
0.00130835
3.96948e-05
0.00129565
4.78441e-05
0.00128157
5.43712e-05
0.00126058
7.89167e-05
0.00125299
3.05173e-05
0.000983784
0.00135171
-0.00347434
0.00168409
0.00317511
0.00176566
-0.00348857
0.00248178
0.00292812
0.00192248
0.00221912
0.00169797
0.000874096
0.00161385
0.000335663
0.00157348
0.000182806
0.00156147
6.65594e-05
0.00156522
3.36591e-06
0.00157764
-3.03058e-05
0.00159541
-5.12436e-05
0.00161623
-6.09815e-05
0.00163684
-5.94716e-05
0.0016583
-6.23158e-05
0.00167635
-4.98708e-05
0.00169451
-5.76407e-05
0.00170884
-4.43631e-05
0.00172257
-4.83401e-05
0.00173476
-4.19179e-05
0.00174552
-3.84718e-05
0.00175569
-3.58467e-05
0.00176354
-2.60629e-05
0.00177086
-2.49742e-05
0.00177614
-1.52827e-05
0.00178034
-1.17985e-05
0.00178341
-6.46755e-06
0.00178511
-1.25014e-06
0.00178639
3.08877e-07
0.00178628
6.59108e-06
0.0017858
7.5786e-06
0.00178439
1.18409e-05
0.00178254
1.32879e-05
0.00178014
1.56105e-05
0.00177725
1.75967e-05
0.00177402
1.88871e-05
0.00177031
2.09988e-05
0.00176637
2.17114e-05
0.00176194
2.39558e-05
0.00175732
2.44075e-05
0.00175221
2.66412e-05
0.00174698
2.68348e-05
0.00174099
3.02387e-05
0.00174228
-1.13026e-05
0.00174751
-2.82929e-05
0.00174872
-3.09336e-06
0.00174803
5.38036e-06
0.00174685
7.07149e-06
0.00174548
7.76389e-06
0.00174411
7.62258e-06
0.00174271
7.75292e-06
0.00174133
7.49491e-06
0.00173996
7.40294e-06
0.00173865
7.0833e-06
0.00173736
6.89936e-06
0.00173611
6.71418e-06
0.00173487
6.51837e-06
0.00173368
6.26419e-06
0.00173251
6.11792e-06
0.00173141
5.76676e-06
0.00173031
5.62222e-06
0.00172932
5.21131e-06
0.00172829
5.15661e-06
0.00172703
6.24253e-06
0.00172518
8.41263e-06
0.00172309
9.4396e-06
0.00172056
1.10452e-05
0.00171779
1.2036e-05
0.0017145
1.403e-05
0.00171084
1.54699e-05
0.00170665
1.74869e-05
0.00170144
2.19439e-05
0.00169593
2.24883e-05
0.0016893
2.76827e-05
0.00168128
3.27158e-05
0.00167237
3.66053e-05
0.00166186
4.24696e-05
0.00164915
5.24246e-05
0.00163337
6.36038e-05
0.00161582
7.19592e-05
0.00158967
0.000105031
0.00158009
4.01535e-05
0.00128312
0.00164866
-0.00427536
0.00208409
0.0039014
0.00209407
-0.00422973
0.00307423
0.00375528
0.00238134
0.00291201
0.00210051
0.00115493
0.00199418
0.000441988
0.00194454
0.000232448
0.0019301
8.09973e-05
0.00193527
-1.80469e-06
0.00195138
-4.64101e-05
0.00197423
-7.41019e-05
0.00200109
-8.78369e-05
0.00202781
-8.61943e-05
0.00205581
-9.03125e-05
0.00207979
-7.38535e-05
0.00210383
-8.16775e-05
0.00212314
-6.36765e-05
0.00214121
-6.64047e-05
0.00215724
-5.7953e-05
0.00217128
-5.25066e-05
0.00218451
-4.9083e-05
0.00219491
-3.64561e-05
0.00220453
-3.45942e-05
0.00221175
-2.25039e-05
0.00221755
-1.76035e-05
0.002222
-1.09101e-05
0.00222472
-3.97388e-06
0.00222691
-1.88118e-06
0.00222742
6.08071e-06
0.00222742
7.57721e-06
0.00222631
1.29558e-05
0.00222462
1.49732e-05
0.00222227
1.79582e-05
0.00221931
2.05564e-05
0.00221594
2.22559e-05
0.00221198
2.49632e-05
0.00220776
2.59322e-05
0.00220295
2.87706e-05
0.00219792
2.94271e-05
0.00219233
3.22322e-05
0.00218661
3.25605e-05
0.00218001
3.6841e-05
0.00218076
-1.20591e-05
0.00218614
-3.36723e-05
0.00218776
-4.7133e-06
0.00218721
5.93492e-06
0.00218601
8.26657e-06
0.00218459
9.19076e-06
0.00218314
9.06498e-06
0.00218165
9.24427e-06
0.00218019
8.95893e-06
0.00217873
8.85865e-06
0.00217733
8.48204e-06
0.00217597
8.2686e-06
0.00217463
8.04766e-06
0.00217332
7.83279e-06
0.00217206
7.52159e-06
0.0021708
7.37735e-06
0.00216964
6.92754e-06
0.00216847
6.79051e-06
0.00216743
6.25861e-06
0.00216634
6.23859e-06
0.00216495
7.63459e-06
0.00216285
1.0518e-05
0.00216041
1.18785e-05
0.00215743
1.4021e-05
0.00215413
1.5337e-05
0.0021502
1.79579e-05
0.00214578
1.98997e-05
0.00214071
2.25464e-05
0.00213439
2.82666e-05
0.00212762
2.92571e-05
0.00211951
3.58029e-05
0.00210967
4.25492e-05
0.00209866
4.76246e-05
0.00208566
5.54576e-05
0.00206997
6.81245e-05
0.00205045
8.31161e-05
0.00202865
9.37748e-05
0.00199623
0.000137432
0.00198408
5.23312e-05
0.00165281
0.0019799
-0.00518968
0.00256713
0.00477471
0.00243145
-0.00511214
0.00379688
0.00473311
0.00294392
0.00376497
0.00259447
0.00150438
0.00246027
0.000576186
0.00239904
0.000293679
0.00238157
9.84716e-05
0.00238844
-8.67791e-06
0.00240902
-6.69861e-05
0.00243807
-0.000103155
0.0024723
-0.000122066
0.0025065
-0.000120395
0.00254249
-0.000126306
0.00257378
-0.000105142
0.00260513
-0.000113032
0.00263075
-8.9292e-05
0.00265438
-9.00329e-05
0.00267535
-7.89212e-05
0.00269359
-7.07526e-05
0.00271077
-6.62581e-05
0.00272444
-5.01247e-05
0.00273703
-4.71892e-05
0.00274676
-3.2234e-05
0.00275467
-2.55099e-05
0.00276093
-1.71664e-05
0.00276503
-8.0816e-06
0.00276845
-5.29692e-06
0.00276983
4.69603e-06
0.00277054
6.87254e-06
0.00276989
1.3601e-05
0.00276852
1.63515e-05
0.00276633
2.01454e-05
0.00276338
2.35077e-05
0.00275992
2.57056e-05
0.00275575
2.91359e-05
0.00275128
3.04104e-05
0.00274609
3.39535e-05
0.00274067
3.48475e-05
0.00273459
3.83139e-05
0.00272836
3.87931e-05
0.00272113
4.40713e-05
0.00272128
-1.22075e-05
0.00272678
-3.91738e-05
0.00272888
-6.81831e-06
0.00272854
6.27544e-06
0.00272739
9.41984e-06
0.00272594
1.06446e-05
0.00272445
1.05529e-05
0.0027229
1.07973e-05
0.00272137
1.04842e-05
0.00271984
1.03834e-05
0.00271839
9.93997e-06
0.00271696
9.70042e-06
0.00271557
9.43622e-06
0.00271419
9.21176e-06
0.00271288
8.82845e-06
0.00271156
8.70052e-06
0.00271036
8.13054e-06
0.00270913
8.0119e-06
0.00270806
7.33408e-06
0.00270693
7.36535e-06
0.00270542
9.14443e-06
0.00270302
1.29165e-05
0.0027002
1.47044e-05
0.0026967
1.75143e-05
0.00269279
1.92562e-05
0.0026881
2.26413e-05
0.00268276
2.52472e-05
0.00267665
2.86472e-05
0.002669
3.59243e-05
0.00266071
3.75472e-05
0.00265081
4.57123e-05
0.00263876
5.4587e-05
0.00262519
6.12059e-05
0.00260917
7.14645e-05
0.00258986
8.74506e-05
0.00256578
0.000107186
0.00253881
0.000120772
0.00249875
0.000177464
0.00248325
6.78834e-05
0.002112
0.00235113
-0.0062296
0.00315188
0.00582537
0.00277041
-0.00616426
0.00467866
0.00587982
0.00363487
0.00480876
0.00320194
0.0019373
0.00303258
0.000745547
0.00295674
0.000369518
0.0029354
0.000119813
0.00294424
-1.75161e-05
0.00297019
-9.29407e-05
0.00300676
-0.000139721
0.00304995
-0.000165252
0.00309326
-0.000163709
0.00313901
-0.000172058
0.00317926
-0.000145389
0.00321967
-0.000153442
0.00325318
-0.000122806
0.00328387
-0.000120718
0.00331111
-0.000106162
0.00333473
-9.4378e-05
0.00335692
-8.84449e-05
0.00337478
-6.7988e-05
0.00339119
-6.35938e-05
0.00340415
-4.51948e-05
0.00341478
-3.61432e-05
0.00342341
-2.57907e-05
0.00342935
-1.40289e-05
0.0034344
-1.03459e-05
0.00343699
2.10851e-06
0.00343869
5.17646e-06
0.00343874
1.35493e-05
0.00343785
1.72382e-05
0.00343597
2.20227e-05
0.00343315
2.63365e-05
0.00342971
2.9144e-05
0.00342539
3.34529e-05
0.00342071
3.50944e-05
0.00341519
3.94736e-05
0.00340939
4.0646e-05
0.00340282
4.48791e-05
0.00339609
4.55277e-05
0.00338822
5.19367e-05
0.00338768
-1.1669e-05
0.00339326
-4.47535e-05
0.00339592
-9.47597e-06
0.00339589
6.30319e-06
0.00339485
1.0461e-05
0.00339342
1.2075e-05
0.00339193
1.2044e-05
0.00339036
1.23736e-05
0.0033888
1.20372e-05
0.00338724
1.1943e-05
0.00338576
1.14243e-05
0.0033843
1.11626e-05
0.00338289
1.0847e-05
0.00338147
1.06254e-05
0.00338015
1.01558e-05
0.00337879
1.00586e-05
0.00337758
9.34256e-06
0.00337632
9.26281e-06
0.00337526
8.40421e-06
0.00337411
8.5091e-06
0.00337249
1.07608e-05
0.00336978
1.56317e-05
0.00336652
1.79639e-05
0.00336243
2.16055e-05
0.00335779
2.38982e-05
0.00335221
2.82165e-05
0.00334578
3.16823e-05
0.00333843
3.59929e-05
0.00332918
4.51776e-05
0.00331905
4.76738e-05
0.00330699
5.77762e-05
0.00329228
6.92938e-05
0.0032756
7.78876e-05
0.00325591
9.11475e-05
0.0032322
0.000111172
0.00320257
0.000136807
0.00316929
0.000154063
0.00311997
0.000226771
0.00310002
8.78533e-05
0.0026847
0.00276643
-0.00740578
0.00386089
0.00708974
0.00310024
-0.00741961
0.00575476
0.00721479
0.00448444
0.00607908
0.00395025
0.00247149
0.00373642
0.000959385
0.00364202
0.000463915
0.00361565
0.000146185
0.00362668
-2.85519e-05
0.00365905
-0.000125308
0.00370467
-0.00018534
0.00375871
-0.00021929
0.00381309
-0.000218085
0.00387072
-0.000229688
0.0039219
-0.000196567
0.00397344
-0.000204992
0.00401678
-0.000166136
0.00405634
-0.000160283
0.0040915
-0.000141317
0.00412194
-0.000124823
0.00415047
-0.000116975
0.00417367
-9.11844e-05
0.00419493
-8.48507e-05
0.00421202
-6.22868e-05
0.00422617
-5.02935e-05
0.00423785
-3.74757e-05
0.00424622
-2.23914e-05
0.00425342
-1.75511e-05
0.00425763
-2.09981e-06
0.00426069
2.12059e-06
0.00426173
1.25052e-05
0.00426158
1.73835e-05
0.00426022
2.33859e-05
0.00425767
2.8884e-05
0.00425438
3.24369e-05
0.00425001
3.78207e-05
0.00424521
3.99013e-05
0.0042394
4.52779e-05
0.00423327
4.6774e-05
0.00422625
5.1901e-05
0.00421904
5.27386e-05
0.00421056
6.04181e-05
0.00420926
-1.03658e-05
0.00421485
-5.03436e-05
0.00421812
-1.27533e-05
0.00421853
5.89735e-06
0.0042177
1.12961e-05
0.00421636
1.34106e-05
0.00421493
1.34764e-05
0.00421338
1.39174e-05
0.00421186
1.35646e-05
0.00421031
1.34871e-05
0.00420885
1.28854e-05
0.00420741
1.26078e-05
0.00420602
1.22326e-05
0.00420461
1.20308e-05
0.00420332
1.14544e-05
0.00420196
1.14124e-05
0.00420079
1.05176e-05
0.00419955
1.05007e-05
0.00419853
9.42566e-06
0.00419741
9.6286e-06
0.00419571
1.24602e-05
0.00419265
1.86871e-05
0.00418891
2.1711e-05
0.00418413
2.63818e-05
0.00417865
2.93838e-05
0.00417202
3.484e-05
0.0041643
3.94121e-05
0.00415547
4.48212e-05
0.0041443
5.63466e-05
0.00413196
6.00066e-05
0.0041173
7.24478e-05
0.00409937
8.72205e-05
0.00407893
9.83363e-05
0.00405478
0.000115286
0.00402572
0.000140245
0.00398936
0.000173155
0.0039484
0.000195043
0.00388786
0.000287297
0.00386194
0.000113803
0.00340094
0.00322743
-0.00872621
0.00472133
0.0086118
0.0034064
-0.0089179
0.00706828
0.00875831
0.00552987
0.00761749
0.00487338
0.00312798
0.00460321
0.00122956
0.00448507
0.000582056
0.00445205
0.0001792
0.00446544
-4.19383e-05
0.00450538
-0.000165251
0.00456185
-0.000241809
0.00462898
-0.000286414
0.00469673
-0.000285841
0.00476877
-0.000301725
0.00483324
-0.000261036
0.00489843
-0.000270181
0.00495387
-0.000221583
0.00500451
-0.000210924
0.0050496
-0.000186399
0.00508863
-0.00016386
0.00512515
-0.000153496
0.00515509
-0.000121125
0.0051825
-0.000112256
0.00520484
-8.46313e-05
0.00522349
-6.89415e-05
0.00523911
-5.30977e-05
0.00525062
-3.38972e-05
0.00526064
-2.75678e-05
0.005267
-8.46721e-06
0.00527189
-2.76489e-06
0.00527431
1.00804e-05
0.00527523
1.64636e-05
0.00527465
2.39678e-05
0.0052726
3.09327e-05
0.00526963
3.54064e-05
0.00526536
4.20969e-05
0.00526055
4.47103e-05
0.00525455
5.12746e-05
0.00524817
5.31531e-05
0.00524076
5.93177e-05
0.00523313
6.03676e-05
0.00522408
6.94638e-05
0.00522195
-8.23231e-06
0.00522746
-5.58546e-05
0.00523141
-1.67007e-05
0.00523239
4.91685e-06
0.00523188
1.18006e-05
0.00523074
1.45545e-05
0.00522945
1.47629e-05
0.00522802
1.53538e-05
0.00522659
1.49892e-05
0.00522513
1.49492e-05
0.00522377
1.42499e-05
0.0052224
1.39698e-05
0.00522111
1.3523e-05
0.00521978
1.33645e-05
0.00521857
1.26611e-05
0.00521729
1.27002e-05
0.00521621
1.15908e-05
0.00521504
1.16693e-05
0.00521414
1.03303e-05
0.0052131
1.06666e-05
0.00521136
1.42039e-05
0.00520795
2.20994e-05
0.00520367
2.59916e-05
0.0051981
3.19441e-05
0.00519164
3.58454e-05
0.00518378
4.26958e-05
0.00517453
4.86726e-05
0.00516393
5.54155e-05
0.00515048
6.97992e-05
0.00513549
7.49926e-05
0.00511769
9.02516e-05
0.00509587
0.000109034
0.00507088
0.000123333
0.00504133
0.000144828
0.00500579
0.000175791
0.00496127
0.000217668
0.00491098
0.000245342
0.00483689
0.000361382
0.00480289
0.00014781
0.00429836
0.00373195
-0.0101941
0.00576624
0.010445
0.00366758
-0.0107062
0.00867221
0.0105311
0.00681711
0.00947259
0.00601366
0.00393143
0.00567213
0.00157108
0.00552343
0.000730762
0.00548153
0.000221101
0.00549726
-5.76746e-05
0.00554606
-0.000214044
0.00561545
-0.000311198
0.00569828
-0.000369247
0.00578214
-0.000369702
0.00587159
-0.00039118
0.00595215
-0.000341586
0.00603395
-0.000351989
0.00610426
-0.000291893
0.00616863
-0.000275289
0.00622607
-0.000243839
0.00627586
-0.000213652
0.00632238
-0.000200018
0.00636081
-0.000159548
0.00639596
-0.000147406
0.00642494
-0.000113616
0.00644932
-9.33164e-05
0.00646996
-7.37389e-05
0.00648552
-4.94568e-05
0.00649918
-4.12259e-05
0.00650837
-1.76669e-05
0.00651569
-1.00848e-05
0.00651999
5.78564e-06
0.0065224
1.40552e-05
0.00652295
2.34166e-05
0.00652169
3.21959e-05
0.00651929
3.7806e-05
0.00651529
4.60885e-05
0.00651066
4.93494e-05
0.0065046
5.73308e-05
0.0064981
5.96571e-05
0.00649038
6.70333e-05
0.00648243
6.83185e-05
0.00647291
7.89797e-05
0.00646991
-5.23175e-06
0.00647524
-6.11827e-05
0.0064799
-2.1355e-05
0.00648161
3.20446e-06
0.00648159
1.18163e-05
0.00648078
1.53714e-05
0.00647975
1.57866e-05
0.00647853
1.65752e-05
0.00647731
1.62061e-05
0.00647603
1.62298e-05
0.00647486
1.5419e-05
0.00647368
1.51559e-05
0.00647258
1.46202e-05
0.0064714
1.45403e-05
0.00647039
1.36798e-05
0.00646925
1.3841e-05
0.00646837
1.247e-05
0.00646735
1.2687e-05
0.00646665
1.10297e-05
0.00646577
1.15417e-05
0.00646404
1.59368e-05
0.00646027
2.58751e-05
0.0064554
3.08554e-05
0.00644895
3.83959e-05
0.00644136
4.34344e-05
0.00643207
5.19915e-05
0.006421
5.97416e-05
0.00640831
6.81049e-05
0.00639213
8.59805e-05
0.00637397
9.31532e-05
0.00635239
0.000111833
0.0063259
0.00013552
0.00629541
0.000153828
0.00625934
0.000180901
0.00621595
0.000219186
0.00616156
0.000272045
0.00609995
0.000306972
0.00600955
0.000451768
0.0059645
0.000192892
0.0054245
0.00427195
-0.0118056
0.00703601
0.0126545
0.00385354
-0.0128404
0.0106318
0.0125538
0.00840299
0.0117014
0.00742391
0.00491051
0.00699217
0.00200282
0.00680389
0.000919038
0.00674997
0.000275022
0.00676781
-7.55118e-05
0.00682681
-0.000273045
0.00691147
-0.00039586
0.00701307
-0.000470846
0.00711623
-0.00047286
0.00722666
-0.000501611
0.00732659
-0.000441516
0.00742856
-0.000453957
0.00751699
-0.000380324
0.00759823
-0.000356532
0.00767096
-0.000316565
0.00773412
-0.00027681
0.0077931
-0.000258999
0.00784212
-0.000208574
0.00788698
-0.000192261
0.00792431
-0.000150949
0.00795592
-0.000124923
0.00798293
-0.000100748
0.00800367
-7.02045e-05
0.008022
-5.95547e-05
0.00803488
-3.05482e-05
0.00804539
-2.05941e-05
0.00805219
-1.00619e-06
0.00805662
9.62063e-06
0.00805876
2.12788e-05
0.00805866
3.22984e-05
0.00805715
3.93118e-05
0.00805371
4.95331e-05
0.00804947
5.35809e-05
0.00804355
6.32553e-05
0.0080371
6.61065e-05
0.00802924
7.48959e-05
0.00802111
7.64436e-05
0.00801128
8.88129e-05
0.00800742
-1.37245e-06
0.00801246
-6.62185e-05
0.00801782
-2.67205e-05
0.00802044
5.86999e-07
0.00802111
1.11436e-05
0.00802079
1.56901e-05
0.00802019
1.6389e-05
0.00801933
1.74369e-05
0.00801846
1.70773e-05
0.00801749
1.71962e-05
0.00801665
1.62585e-05
0.00801577
1.60364e-05
0.008015
1.53935e-05
0.0080141
1.54364e-05
0.0080134
1.43831e-05
0.00801252
1.47177e-05
0.00801196
1.30308e-05
0.00801121
1.3441e-05
0.00801084
1.14011e-05
0.00801024
1.2143e-05
0.0080086
1.75708e-05
0.00800447
3.00043e-05
0.00799899
3.63389e-05
0.00799153
4.58504e-05
0.00798265
5.23144e-05
0.00797168
6.29633e-05
0.00795849
7.29348e-05
0.00794332
8.3275e-05
0.0079239
0.000105402
0.00790194
0.000115106
0.00787584
0.000137935
0.00784374
0.000167624
0.00780663
0.000190932
0.00776268
0.000224857
0.00770982
0.000272046
0.00764352
0.000338341
0.0075682
0.000382298
0.00745825
0.000561711
0.00739805
0.000253096
0.00684033
0.00482966
-0.0135463
0.00858099
0.0153201
0.00391983
-0.0153864
0.0130277
0.0148462
0.010358
0.0143711
0.00917027
0.00609825
0.00862471
0.00254838
0.00838498
0.00115877
0.00831467
0.000345335
0.00833393
-9.47731e-05
0.00840452
-0.000343632
0.00850708
-0.000498424
0.00863097
-0.000594735
0.00875714