/*--------------------------------*- C++ -*----------------------------------*\
| =========                 |                                                 |
| \\      /  F ield         | OpenFOAM: The Open Source CFD Toolbox           |
|  \\    /   O peration     | Version:  5.x                                   |
|   \\  /    A nd           | Web:      www.OpenFOAM.org                      |
|    \\/     M anipulation  |                                                 |
\*---------------------------------------------------------------------------*/
FoamFile
{
    version     2.0;
    format      ascii;
    class       volVectorField;
    location    "800";
    object      wallShearStress;
}
// * * * * * * * * * * * * * * * * * * * * * * * * * * * * * * * * * * * * * //

dimensions      [0 2 -2 0 0 0 0];

internalField   uniform (0 0 0);

boundaryField
{
    inlet
    {
        type            calculated;
        value           uniform (0 0 0);
    }
    outlet
    {
        type            calculated;
        value           uniform (0 0 0);
    }
    walls
    {
        type            calculated;
        value           nonuniform List<vector> 
164
(
(-629.804 -974.331 4.81482e-35)
(-1113.71 -858.159 -2.00259e-15)
(-1622.62 -659.653 -8.28646e-16)
(-1453.74 -487.516 2.22102e-15)
(-1360.58 -381.577 5.46373e-21)
(-1237.24 -299.51 1.50714e-15)
(-1114.17 -237.516 1.75687e-15)
(-1007.09 -191.86 -1.98833e-15)
(-914.999 -157.432 -5.89816e-33)
(-835.954 -130.773 2.38432e-15)
(-767.137 -109.801 -2.6001e-15)
(-708.063 -92.9994 -2.68777e-15)
(-655.055 -79.2358 2.2563e-20)
(-613.199 -68.4117 -2.90007e-15)
(-574.539 -59.193 3.21313e-15)
(-547.697 -52.2105 3.11751e-15)
(-521.622 -45.9278 -3.24151e-15)
(-499.757 -40.6763 3.28457e-15)
(-481.054 -36.1115 3.24563e-15)
(-461.265 -31.9023 -3.40918e-15)
(-447.357 -28.4475 3.28491e-15)
(-431.141 -25.1097 6.52785e-21)
(-418.756 -22.2859 1.8425e-20)
(-407.224 -19.6978 -1.25742e-20)
(-395.403 -17.2982 -6.68345e-15)
(-387.007 -15.2101 3.20564e-15)
(-376.923 -13.1915 -1.35417e-35)
(-368.299 -11.3743 1.57978e-15)
(-360.769 -9.70226 -1.56996e-15)
(-353.674 -8.14444 -1.35417e-35)
(-346.559 -6.68731 -1.14881e-20)
(-338.932 -5.30431 1.12994e-20)
(-332.873 -4.04695 1.01951e-20)
(-327.924 -2.85571 -2.15118e-20)
(-321.758 -1.74086 -6.87854e-16)
(-317.369 -0.685216 -7.82879e-36)
(-312.113 0.299716 8.13705e-17)
(-307.494 1.24094 -6.37935e-16)
(-303.87 2.12031 6.1213e-16)
(-300.618 2.97597 -1.18314e-15)
(-296.971 3.76525 3.46066e-35)
(-293.628 4.52857 4.41097e-15)
(-276.272 4.92037 6.01853e-35)
(-273.604 5.46061 -1.19162e-20)
(-269.148 5.89995 -2.95074e-15)
(-266.913 6.3679 5.59578e-21)
(-263.674 6.77542 -5.56086e-21)
(-260.46 7.15083 -2.92975e-15)
(-257.413 7.51064 5.85284e-15)
(-254.459 7.834 2.92636e-15)
(-251.616 8.15382 5.58868e-21)
(-248.872 8.43472 -2.92115e-15)
(-246.217 8.718 2.91719e-15)
(-243.645 8.96683 -5.5682e-21)
(-241.169 9.2206 -1.94043e-23)
(-237.698 9.40027 -1.93602e-23)
(-235.439 9.62456 5.56552e-21)
(-233.984 9.86 -6.01853e-36)
(-230.961 10.0233 5.80678e-15)
(-229.496 10.2413 5.50784e-21)
(-227.534 10.4317 -5.70198e-15)
(-225.226 10.6229 5.73254e-15)
(-222.397 10.8021 -5.72737e-15)
(-220.71 11.0183 1.13935e-14)
(-217.788 11.1767 -5.70419e-15)
(-216.018 11.3749 5.65546e-15)
(-212.87 11.5054 -1.20371e-35)
(-210.453 11.6546 -2.70469e-21)
(-208.205 11.8182 -9.81126e-24)
(-205.919 11.973 5.55581e-15)
(-202.136 12.0302 1.04501e-23)
(-199.67 12.1683 -2.68719e-21)
(-196.777 12.2717 -1.11346e-14)
(-192.568 12.2862 1.35042e-21)
(-188.783 12.323 -1.14578e-14)
(-185.409 12.3842 3.91542e-31)
(-180.724 12.3485 2.2837e-14)
(-175.52 12.2694 6.8697e-22)
(-170.398 12.1847 -1.1729e-14)
(-162.991 11.9312 1.16502e-14)
(-163.336 12.1908 -1.19278e-14)
(-1.46901 0.876966 1.91184e-14)
(541.052 -1016.06 -3.85186e-34)
(-264.781 171.079 -1.2451e-14)
(-490.629 213.79 1.92593e-34)
(-590.559 198.826 -2.93975e-32)
(-608.625 169.331 -5.77779e-32)
(-615.543 147.153 5.80997e-15)
(-621.57 130.27 2.19402e-20)
(-612.692 114.329 2.57139e-39)
(-594.042 99.7755 -3.45952e-20)
(-573.037 87.2343 -5.60594e-15)
(-550.875 76.4859 -2.17978e-20)
(-535.354 67.9813 -5.48313e-15)
(-517.435 60.3172 2.16694e-20)
(-506.955 54.3108 -2.01458e-20)
(-491.191 48.4275 -5.54923e-15)
(-481.059 43.7049 5.20762e-15)
(-468.11 39.1302 -2.00171e-20)
(-456.349 35.1094 5.17179e-15)
(-446.357 31.5218 -1.89137e-20)
(-433.497 28.0631 6.0994e-21)
(-425.877 25.2039 4.82228e-15)
(-414.735 22.3516 -7.22224e-35)
(-407.723 19.9399 -4.71103e-15)
(-399.456 17.6148 -4.62579e-15)
(-391.803 15.4849 -2.03842e-20)
(-386.852 13.5863 -4.31309e-15)
(-378.738 11.6986 -4.69626e-32)
(-373.8 10.0351 2.06771e-15)
(-368.774 8.45495 -4.05141e-15)
(-363.909 6.96214 -1.40879e-20)
(-357.896 5.54476 -1.90628e-15)
(-353.222 4.21771 -9.24094e-16)
(-349.932 2.98799 -1.34482e-20)
(-345.587 1.79282 4.28911e-16)
(-341.994 0.681954 2.04926e-16)
(-337.207 -0.387998 -2.45872e-20)
(-333.953 -1.38474 1.17375e-20)
(-330.455 -2.3475 7.47248e-16)
(-328.533 -3.25961 -1.41493e-15)
(-325.678 -4.13782 -1.04335e-20)
(-324.029 -4.97188 2.58765e-15)
(-321.594 -5.77335 -2.48133e-15)
(-304.994 -6.15556 -2.45409e-32)
(-303.233 -6.73167 -3.23878e-15)
(-300.851 -7.23268 -3.21146e-15)
(-298.278 -7.71094 -3.20605e-15)
(-295.856 -8.15377 6.35768e-15)
(-293.429 -8.56486 -3.16798e-15)
(-291.148 -8.96257 -3.14547e-15)
(-288.944 -9.32143 3.12688e-15)
(-286.821 -9.6795 1.31068e-36)
(-284.825 -9.99808 3.08584e-15)
(-282.74 -10.3159 5.85017e-21)
(-280.745 -10.5966 6.09993e-15)
(-278.9 -10.8859 6.04998e-15)
(-277.026 -11.1402 -6.62038e-35)
(-275.315 -11.4022 4.45826e-32)
(-273.505 -11.6334 -5.67352e-21)
(-271.933 -11.8751 1.17403e-14)
(-270.144 -12.0809 5.66533e-21)
(-267.974 -12.2752 -1.16847e-14)
(-266.031 -12.4193 -5.85831e-15)
(-265.557 -12.6126 -3.00927e-35)
(-263.303 -12.7127 -2.74475e-21)
(-262.766 -12.8923 -5.61137e-15)
(-262.296 -13.0707 -5.55433e-15)
(-260.765 -13.2002 -5.52386e-15)
(-258.222 -13.2653 5.52889e-15)
(-257.216 -13.4128 5.50613e-15)
(-256.991 -13.6019 2.54182e-21)
(-255.293 -13.7109 -1.61737e-31)
(-253.749 -13.8328 -1.27247e-21)
(-252.31 -13.9604 -5.23186e-15)
(-250.496 -14.0694 2.50366e-21)
(-248.412 -14.1661 5.26585e-15)
(-246.897 -14.2999 -2.47617e-21)
(-245.05 -14.4177 1.21986e-21)
(-242.541 -14.5018 6.10552e-22)
(-239.938 -14.584 -1.02538e-14)
(-235.79 -14.5768 1.01318e-14)
(-237.995 -14.896 4.555e-22)
(-26.9206 -2.09581 -1.93885e-14)
)
;
    }
    frontAndBack
    {
        type            empty;
    }
}


// ************************************************************************* //
