/*--------------------------------*- C++ -*----------------------------------*\
| =========                 |                                                 |
| \\      /  F ield         | OpenFOAM: The Open Source CFD Toolbox           |
|  \\    /   O peration     | Version:  5.x                                   |
|   \\  /    A nd           | Web:      www.OpenFOAM.org                      |
|    \\/     M anipulation  |                                                 |
\*---------------------------------------------------------------------------*/
FoamFile
{
    version     2.0;
    format      ascii;
    class       volScalarField;
    location    "1100";
    object      nut;
}
// * * * * * * * * * * * * * * * * * * * * * * * * * * * * * * * * * * * * * //

dimensions      [0 2 -1 0 0 0 0];

internalField   nonuniform List<scalar> 
41860
(
5.32001e-06
8.26174e-06
1.7588e-05
2.05981e-05
1.62956e-05
1.27837e-05
8.665e-06
5.88937e-06
4.11794e-06
2.94973e-06
2.12562e-06
1.64559e-06
1.21162e-06
1.04586e-06
8.0385e-07
7.38483e-07
6.35107e-07
5.69142e-07
5.29474e-07
9.08455e-07
9.99072e-07
5.51826e-07
1.24489e-06
5.43046e-07
1.33874e-06
5.29744e-07
5.19305e-07
1.35848e-06
5.05548e-07
5.00209e-07
4.93579e-07
1.33222e-06
1.31796e-06
4.78142e-07
1.28255e-06
4.71764e-07
1.23931e-06
1.21749e-06
1.18186e-06
4.68194e-07
1.09593e-06
1.03764e-06
4.20439e-07
4.20594e-07
1.21405e-06
4.16751e-07
4.15232e-07
4.13481e-07
4.12219e-07
4.11134e-07
4.10309e-07
4.09746e-07
4.09363e-07
4.09204e-07
4.09277e-07
1.15843e-06
1.15436e-06
4.09731e-07
1.14461e-06
4.10883e-07
4.12565e-07
4.12532e-07
1.12478e-06
4.12949e-07
1.11152e-06
4.12605e-07
1.09639e-06
1.08604e-06
4.08476e-07
4.0847e-07
1.0526e-06
4.01091e-07
3.98376e-07
1.00627e-06
9.90101e-07
3.78712e-07
9.40251e-07
9.11843e-07
8.83602e-07
3.24385e-07
8.35083e-07
3.88662e-08
0.000181173
0.000216932
0.000282909
0.000300122
0.000276515
0.000254711
0.000224047
0.00019767
0.000175961
0.000157575
0.000140928
0.00012876
0.000115008
0.000108711
9.78233e-05
9.44299e-05
8.79499e-05
8.30097e-05
7.95642e-05
7.29966e-05
7.12642e-05
6.67964e-05
6.46531e-05
6.25653e-05
6.02315e-05
5.94303e-05
5.71582e-05
5.69405e-05
5.53746e-05
5.4936e-05
5.42486e-05
5.41162e-05
5.39772e-05
5.3389e-05
5.40242e-05
5.37318e-05
5.47988e-05
5.52206e-05
5.64381e-05
5.73191e-05
5.90898e-05
6.07159e-05
4.73338e-05
4.72285e-05
4.77483e-05
4.69436e-05
4.68983e-05
4.67986e-05
4.67986e-05
4.6815e-05
4.68756e-05
4.6972e-05
4.70938e-05
4.72482e-05
4.74495e-05
4.81871e-05
4.84746e-05
4.80603e-05
4.89875e-05
4.85777e-05
4.90589e-05
4.91786e-05
5.01322e-05
4.9735e-05
5.05938e-05
5.02628e-05
5.08949e-05
5.11771e-05
5.05537e-05
5.11616e-05
5.12966e-05
5.07786e-05
5.10632e-05
5.10658e-05
5.06357e-05
4.98772e-05
4.99958e-05
4.90707e-05
4.80323e-05
4.59524e-05
4.64865e-05
8.24085e-08
0.000233944
0.00027375
0.000360373
0.000384498
0.000355228
0.000327619
0.000288853
0.000255755
0.000228899
0.00020666
0.000187441
0.000173359
0.00016024
0.000153289
0.000147745
0.000145724
0.000144678
0.000144102
0.000143431
0.000143018
0.00014196
0.000143559
0.000140873
0.00014203
0.000139463
0.000140127
0.00013955
0.000136249
0.00013717
0.000135833
0.000134644
0.000131727
0.000130525
0.000131055
0.000128369
0.000128955
0.000126602
0.000125892
0.00012541
0.000126367
0.000124998
0.000125108
0.000123502
0.000123085
0.000121343
0.000122271
0.000121883
0.000121524
0.000121204
0.000120924
0.000120682
0.000120482
0.000120317
0.000120189
0.000120101
0.000118785
0.000118782
0.000119977
0.000118829
0.000120043
0.000120192
0.000120211
0.000119155
0.000120333
0.000119241
0.000120407
0.000119221
0.000119249
0.000120191
0.000120324
0.000118855
0.000119708
0.000119567
0.000117927
0.000117311
0.00011772
0.000115926
0.000114665
0.000113271
0.000111861
0.000110824
1.73843e-07
0.000324462
0.000368502
0.000434716
0.000472261
0.000462261
0.00043186
0.000404146
0.000381391
0.000361151
0.000342494
0.000326165
0.000305788
0.000293307
0.000274752
0.000271766
0.000265352
0.000264143
0.000261947
0.000259009
0.000257367
0.00025376
0.00025314
0.000248792
0.000247509
0.000243673
0.000241998
0.000239886
0.000235467
0.000234496
0.000231754
0.000229282
0.000225581
0.000223195
0.000222216
0.000218873
0.00021809
0.000215161
0.00021357
0.000212194
0.000211962
0.000210109
0.000209451
0.000207773
0.000206647
0.000204765
0.000204958
0.000204162
0.000203424
0.000202749
0.000202141
0.000201598
0.000201117
0.000200694
0.000200332
0.000200023
0.000198805
0.000198618
0.000199348
0.000198347
0.00019912
0.000199141
0.00019905
0.000198191
0.000198942
0.00019805
0.00019878
0.000197784
0.000197685
0.000198177
0.000198153
0.00019684
0.000197199
0.000196854
0.000195278
0.00019438
0.000194193
0.000192291
0.000190554
0.00018863
0.00018621
0.000184781
3.64539e-07
0.000451474
0.000546982
0.000642395
0.000697053
0.000718299
0.000678783
0.000654018
0.00062836
0.000600027
0.00057048
0.000542585
0.000507606
0.000483877
0.000449952
0.000436641
0.000420914
0.000414542
0.000407783
0.000400745
0.000395977
0.000388868
0.000384709
0.000378123
0.000373443
0.000367927
0.000363094
0.000358879
0.000353109
0.000349523
0.000344945
0.000340792
0.000336189
0.000332283
0.000329233
0.000325201
0.000322563
0.000319082
0.000316421
0.000314032
0.000312343
0.000310142
0.000308756
0.000305709
0.000303545
0.000301607
0.000300681
0.00029935
0.000298116
0.000296981
0.00029595
0.000295019
0.00029418
0.000293431
0.000292771
0.000292191
0.000291231
0.00029082
0.000290838
0.000290154
0.000290257
0.000290136
0.00028991
0.00028942
0.000289552
0.000289014
0.000289129
0.000288465
0.000288225
0.000288073
0.000287901
0.000286849
0.000286526
0.000285958
0.000284538
0.000283294
0.00028229
0.000280368
0.000278053
0.000275465
0.000271715
0.000269642
7.5767e-07
0.000618016
0.000788166
0.000991568
0.00107854
0.00111197
0.00104945
0.00100593
0.000960747
0.000912363
0.000863042
0.00081625
0.000762364
0.000722268
0.000671392
0.000644037
0.000616001
0.000601585
0.000588182
0.000575456
0.000565823
0.00055405
0.000545464
0.000535303
0.000526728
0.00051831
0.000510018
0.00050299
0.000494938
0.000488512
0.000481607
0.000475302
0.00046904
0.00046324
0.00045807
0.000452741
0.000448245
0.000443693
0.000439735
0.000436169
0.000433126
0.000430224
0.000428071
0.000422981
0.000419373
0.000416919
0.000414961
0.000412952
0.000411085
0.00040937
0.000407804
0.000406386
0.0004051
0.000403942
0.000402912
0.000401998
0.000401004
0.000400321
0.00039981
0.000399178
0.000398804
0.000398518
0.000398127
0.000397768
0.000397485
0.000397062
0.000396766
0.00039619
0.000395796
0.000395184
0.000394857
0.000393816
0.000392984
0.000392168
0.000390646
0.000388992
0.000387307
0.0003851
0.000382113
0.000378726
0.000373726
0.000370204
1.55383e-06
0.000847935
0.00108521
0.00143656
0.0015663
0.001596
0.00150374
0.00143236
0.00136169
0.00128902
0.00121646
0.00114752
0.00107227
0.00101287
0.000943245
0.000899484
0.000856656
0.000831532
0.000809406
0.000789307
0.000773186
0.000755459
0.000741445
0.000726425
0.000713245
0.000700785
0.000688515
0.000677921
0.000666674
0.00065703
0.000647223
0.000638235
0.000629597
0.000621457
0.000613967
0.00060676
0.00060026
0.000594134
0.0005886
0.000583626
0.000579191
0.000575245
0.00057224
0.000564639
0.000559107
0.000555694
0.0005527
0.000549843
0.00054719
0.000544752
0.000542524
0.000540502
0.000538661
0.000537002
0.000535514
0.00053419
0.000532926
0.000531912
0.000530981
0.000530194
0.000529458
0.000528973
0.000528384
0.000527978
0.000527414
0.000526932
0.00052636
0.000525695
0.000525132
0.00052418
0.000523682
0.00052248
0.000521246
0.000520153
0.000518348
0.000516229
0.000513942
0.000511249
0.000507511
0.0005032
0.000497056
0.000491123
3.1225e-06
0.0011833
0.0014445
0.00196387
0.00214298
0.00216184
0.00203594
0.00193265
0.00183388
0.00173487
0.00163707
0.00154384
0.00144522
0.00136418
0.00127385
0.00121151
0.00115154
0.001113
0.00107984
0.00105042
0.00102605
0.00100085
0.000980118
0.000958894
0.000940089
0.000922452
0.000905371
0.000890341
0.000874991
0.000861492
0.000848101
0.000835794
0.000824094
0.000813073
0.000802856
0.000793217
0.00078438
0.000776211
0.000768754
0.000762066
0.000756042
0.000750741
0.000746745
0.00073621
0.000728194
0.0007234
0.00071922
0.000715316
0.000711691
0.000708365
0.000705321
0.000702557
0.000700038
0.000697762
0.000695714
0.000693889
0.000692197
0.000690779
0.000689435
0.000688363
0.000687287
0.000686559
0.000685734
0.000685186
0.000684386
0.000683756
0.000682954
0.000682112
0.000681363
0.000680111
0.000679422
0.000677975
0.00067637
0.000674972
0.000672791
0.000670157
0.000667276
0.000663978
0.000659429
0.000654075
0.000646895
0.000637418
6.08697e-06
0.0016311
0.00188207
0.00257878
0.00281275
0.00281646
0.0026534
0.00251546
0.00238687
0.00226008
0.0021355
0.00201619
0.00189229
0.00178745
0.00167432
0.00159118
0.00151167
0.00145686
0.00141006
0.00136901
0.00133434
0.00129982
0.00127076
0.00124178
0.00121602
0.00119192
0.00116891
0.00114839
0.00112792
0.0011097
0.00109188
0.00107549
0.00105997
0.0010454
0.00103187
0.0010192
0.00100753
0.000996813
0.000987001
0.000978208
0.000970274
0.000963279
0.000958095
0.000944241
0.000933091
0.000926448
0.000920817
0.000915619
0.000910798
0.00090638
0.000902335
0.000898661
0.00089531
0.000892281
0.000889549
0.00088711
0.000884865
0.000882954
0.000881145
0.000879692
0.00087824
0.000877214
0.000876111
0.000875362
0.000874329
0.000873501
0.000872475
0.000871409
0.000870457
0.000868908
0.000868006
0.000866282
0.000864299
0.000862571
0.000859971
0.000856784
0.000853285
0.000849311
0.00084391
0.000837399
0.000829349
0.000814965
1.1359e-05
0.00221224
0.00242543
0.00329419
0.00358792
0.00357272
0.00336873
0.00319365
0.00303381
0.00287808
0.00272539
0.00257837
0.00242734
0.00229659
0.00215844
0.00205217
0.0019506
0.00187653
0.00181314
0.00175773
0.00171034
0.00166424
0.00162485
0.00158626
0.00155186
0.00151975
0.00148939
0.0014621
0.00143527
0.00141123
0.00138795
0.00136649
0.00134626
0.00132732
0.00130972
0.0012933
0.00127816
0.00126428
0.00125157
0.00124017
0.0012299
0.0012208
0.00121416
0.00119664
0.00118162
0.00117255
0.0011651
0.0011583
0.00115201
0.00114625
0.00114097
0.00113618
0.00113181
0.00112786
0.00112429
0.00112111
0.00111818
0.00111566
0.0011133
0.00111137
0.00110948
0.00110809
0.00110666
0.00110566
0.00110438
0.00110332
0.00110206
0.00110074
0.00109957
0.00109772
0.00109658
0.00109457
0.0010922
0.00109012
0.00108709
0.00108332
0.00107918
0.00107449
0.00106822
0.00106045
0.0010518
0.0010309
1.9994e-05
0.00295851
0.00311294
0.00412779
0.00448531
0.00444714
0.00419794
0.00398323
0.00379088
0.00360526
0.00342333
0.00324716
0.0030672
0.00290848
0.00274302
0.00261114
0.00248486
0.00238837
0.00230511
0.00223215
0.00216915
0.00210874
0.00205658
0.00200609
0.00196097
0.00191894
0.00187946
0.00184378
0.00180908
0.00177783
0.00174779
0.00172009
0.00169402
0.00166967
0.00164706
0.001626
0.00160658
0.00158878
0.0015725
0.00155787
0.0015447
0.00153298
0.00152453
0.00150304
0.00148332
0.0014711
0.00146134
0.00145255
0.00144444
0.00143703
0.00143024
0.00142408
0.00141846
0.00141338
0.00140878
0.00140468
0.00140092
0.00139767
0.00139464
0.00139213
0.00138971
0.00138787
0.00138604
0.00138474
0.00138319
0.00138187
0.00138036
0.00137877
0.00137737
0.00137522
0.00137383
0.00137154
0.00136878
0.00136634
0.00136288
0.00135854
0.00135375
0.00134832
0.00134121
0.0013321
0.00132323
0.00129407
3.27899e-05
0.00391055
0.00398125
0.00510156
0.00552562
0.00545946
0.00516019
0.00490326
0.0046773
0.00446113
0.00424914
0.00404259
0.00383207
0.00364343
0.00344828
0.00328824
0.0031344
0.0030122
0.0029055
0.00281135
0.00272936
0.00265137
0.00258346
0.00251827
0.00245984
0.00240554
0.00235471
0.00230865
0.00226418
0.00222399
0.00218558
0.00215013
0.00211685
0.00208579
0.00205697
0.00203015
0.00200543
0.00198277
0.00196205
0.0019434
0.00192663
0.00191163
0.00190088
0.00187515
0.00184985
0.00183358
0.00182087
0.00180959
0.00179923
0.00178977
0.00178112
0.00177327
0.00176612
0.00175965
0.0017538
0.00174857
0.00174379
0.00173963
0.00173579
0.00173256
0.00172951
0.00172712
0.00172482
0.00172316
0.0017213
0.00171969
0.00171792
0.00171606
0.00171442
0.00171197
0.00171032
0.00170779
0.00170466
0.00170186
0.00169801
0.00169312
0.00168769
0.00168154
0.00167367
0.00166316
0.00165463
0.00161553
4.98558e-05
0.00511862
0.00506667
0.00624184
0.00673365
0.00663292
0.00627792
0.00597614
0.00571572
0.00546874
0.00522627
0.00498851
0.00474603
0.00452572
0.00429855
0.0041077
0.00392328
0.0037719
0.00363794
0.00351855
0.00341365
0.00331422
0.00322698
0.00314371
0.00306878
0.0029993
0.00293437
0.00287543
0.00281884
0.00276753
0.00271873
0.00267365
0.00263141
0.00259203
0.00255549
0.00252152
0.00249022
0.00246149
0.00243525
0.00241157
0.0023903
0.00237118
0.00235747
0.00232725
0.00229544
0.00227402
0.00225755
0.00224313
0.00222997
0.00221799
0.00220703
0.0021971
0.00218805
0.00217987
0.00217247
0.00216585
0.00215982
0.00215455
0.00214973
0.00214562
0.00214181
0.00213874
0.00213586
0.00213377
0.00213156
0.00212964
0.0021276
0.00212545
0.00212359
0.00212087
0.00211896
0.00211623
0.00211277
0.00210964
0.00210548
0.00210011
0.00209411
0.00208729
0.0020788
0.00206689
0.00205939
0.00200919
7.06081e-05
0.00664404
0.00641689
0.0075798
0.00813868
0.0079946
0.00757733
0.00722801
0.00693267
0.00665519
0.00638239
0.00611312
0.0058377
0.00558423
0.00532279
0.00509848
0.0048803
0.00469612
0.00453084
0.00438179
0.0042496
0.00412429
0.00401346
0.00390806
0.00381276
0.00372452
0.0036421
0.00356717
0.00349553
0.0034304
0.00336868
0.00331161
0.00325824
0.00320849
0.00316236
0.00311947
0.00307996
0.00304365
0.00301051
0.00298052
0.0029536
0.00292928
0.00291173
0.00287675
0.0028375
0.00280963
0.00278833
0.00276996
0.00275331
0.00273818
0.00272436
0.00271185
0.00270046
0.00269016
0.00268084
0.00267252
0.00266496
0.00265831
0.00265228
0.00264709
0.00264234
0.00263844
0.00263487
0.00263223
0.00262965
0.00262737
0.00262506
0.00262264
0.00262056
0.00261762
0.00261547
0.00261261
0.00260891
0.00260552
0.00260114
0.00259542
0.00258898
0.00258161
0.00257272
0.00255947
0.00255383
0.00249268
9.42589e-05
0.00856112
0.00809369
0.00915276
0.009773
0.00957534
0.00908837
0.00868889
0.00835876
0.00805193
0.00774981
0.00744945
0.00714069
0.00685302
0.00655527
0.00629489
0.00603968
0.00581892
0.00561809
0.00543465
0.00527036
0.0051142
0.00497487
0.00484259
0.0047223
0.00461097
0.00450691
0.00441217
0.00432188
0.00423953
0.00416175
0.00408976
0.00402251
0.00395982
0.00390173
0.0038477
0.00379795
0.00375215
0.00371036
0.00367243
0.00363839
0.0036075
0.00358492
0.00354484
0.00349726
0.00346143
0.00343398
0.0034106
0.00338958
0.00337052
0.00335315
0.00333743
0.00332312
0.0033102
0.00329851
0.00328806
0.0032786
0.00327026
0.00326274
0.00325621
0.00325033
0.0032454
0.00324097
0.00323767
0.00323463
0.00323197
0.00322938
0.0032267
0.00322443
0.00322135
0.00321902
0.00321612
0.00321231
0.00320877
0.00320434
0.00319846
0.00319178
0.00318405
0.00317508
0.00316062
0.00315773
0.00308829
0.000120305
0.0109593
0.0101743
0.0110067
0.0116622
0.0114033
0.0108406
0.0103895
0.0100266
0.00969351
0.00936472
0.009035
0.00869351
0.00837134
0.0080357
0.00773688
0.00744142
0.00718026
0.00693955
0.00671684
0.00651534
0.00632292
0.0061496
0.00598501
0.00583434
0.00569481
0.00556414
0.00544495
0.0053316
0.00522789
0.00513016
0.00503957
0.00495505
0.00487623
0.00480321
0.00473526
0.00467268
0.00461497
0.00456233
0.00451439
0.00447135
0.00443216
0.00440297
0.00435728
0.00430051
0.00425508
0.00421985
0.00419011
0.00416359
0.00413963
0.00411782
0.00409809
0.00408016
0.00406396
0.00404933
0.00403623
0.00402443
0.00401397
0.0040046
0.00399642
0.00398913
0.00398294
0.00397746
0.00397332
0.00396974
0.00396664
0.00396376
0.00396086
0.00395845
0.00395532
0.00395288
0.00395009
0.00394636
0.00394282
0.00393856
0.00393279
0.00392617
0.00391835
0.00390976
0.00389434
0.00389504
0.0038236
0.000213169
0.0139458
0.0127536
0.0131993
0.0138115
0.0134753
0.0128384
0.0123417
0.0119568
0.0116082
0.0112611
0.0109077
0.0105368
0.0101818
0.00980802
0.00946925
0.00913088
0.00882578
0.00854108
0.00827427
0.00803042
0.00779614
0.00758296
0.00738011
0.007193
0.00701938
0.00685631
0.00670716
0.00656549
0.00643539
0.00631299
0.00619933
0.00609334
0.00599444
0.0059028
0.00581745
0.00573883
0.0056662
0.0055999
0.00553936
0.00548493
0.00543521
0.00539732
0.00534522
0.0052785
0.00522173
0.00517677
0.00513899
0.00510554
0.00507543
0.00504807
0.00502334
0.00500088
0.0049806
0.00496229
0.00494589
0.00493115
0.00491806
0.0049064
0.00489616
0.00488713
0.00487937
0.00487258
0.00486738
0.00486311
0.00485951
0.00485633
0.00485324
0.00485073
0.00484769
0.00484526
0.00484275
0.00483933
0.00483605
0.00483224
0.00482695
0.00482077
0.00481325
0.00480559
0.00478958
0.00479465
0.00473078
0.000255599
0.017649
0.0159463
0.0158021
0.0162161
0.0157506
0.0150394
0.0145115
0.0141286
0.0137918
0.01345
0.0130908
0.0127028
0.0123227
0.0119151
0.0115378
0.011156
0.0108048
0.010473
0.010158
0.00986719
0.00958577
0.00932687
0.00907966
0.00884968
0.00863552
0.00843357
0.00824819
0.00807212
0.00790974
0.00775704
0.00761495
0.00748242
0.00735863
0.00724386
0.00713687
0.00703824
0.00694694
0.0068635
0.0067871
0.00671828
0.00665523
0.00660596
0.00654618
0.00646877
0.00639891
0.00634201
0.00629412
0.00625196
0.00621413
0.00617982
0.00614883
0.00612071
0.00609532
0.00607242
0.00605189
0.00603348
0.0060171
0.00600258
0.00598976
0.00597856
0.00596886
0.00596043
0.00595387
0.00594872
0.00594449
0.00594097
0.00593772
0.00593519
0.00593239
0.00593012
0.0059281
0.00592529
0.00592257
0.00591956
0.0059152
0.00590999
0.00590324
0.00589718
0.00588106
0.00589125
0.00583482
0.00259512
0.0222232
0.0198897
0.0189006
0.0188782
0.0181922
0.0173939
0.0168469
0.0164902
0.0161983
0.0158988
0.0155687
0.0151931
0.0148104
0.0143848
0.0139788
0.0135593
0.0131642
0.0127854
0.0124204
0.0120799
0.0117475
0.011438
0.0111409
0.0108619
0.0106008
0.0103532
0.0101249
0.00990773
0.00970648
0.0095171
0.00934039
0.00917542
0.00902108
0.00887782
0.00874409
0.00862063
0.00850613
0.00840129
0.00830503
0.00821809
0.00813826
0.0080742
0.00800481
0.00791595
0.00783133
0.00776007
0.00769964
0.00764657
0.00759909
0.00755611
0.00751729
0.00748212
0.00745034
0.00742169
0.00739598
0.00737299
0.00735248
0.00733438
0.00731835
0.00730442
0.0072923
0.00728182
0.00727351
0.00726719
0.00726215
0.0072582
0.00725478
0.0072523
0.00724988
0.00724797
0.00724667
0.00724482
0.00724302
0.00724126
0.00723834
0.00723469
0.0072293
0.0072256
0.00720992
0.007226
0.00717889
0.00421223
0.0278556
0.0247444
0.0225895
0.0218108
0.0207788
0.0198675
0.0193068
0.0189932
0.0187726
0.0185497
0.018288
0.0179658
0.017619
0.0172084
0.0167992
0.0163607
0.0159341
0.0155163
0.0151058
0.0147176
0.0143341
0.0139721
0.0136221
0.0132896
0.0129762
0.012677
0.0123994
0.0121346
0.0118877
0.0116549
0.0114369
0.011233
0.0110418
0.0108639
0.0106976
0.0105437
0.0104007
0.0102694
0.0101486
0.010039
0.00993821
0.00985517
0.00977344
0.00967214
0.00957128
0.00948321
0.0094075
0.00934096
0.0092815
0.00922776
0.00917921
0.00913525
0.00909551
0.00905971
0.00902754
0.00899882
0.00897315
0.00895055
0.0089305
0.00891316
0.00889802
0.00888495
0.00887439
0.0088665
0.00886036
0.00885582
0.00885219
0.00884976
0.00884788
0.00884651
0.00884617
0.00884564
0.00884519
0.00884512
0.00884421
0.00884278
0.00883938
0.00883882
0.00882413
0.0088469
0.00880267
0.00625857
0.0347665
0.0306924
0.0269543
0.0250306
0.0234985
0.0224361
0.0218618
0.0216019
0.0214701
0.0213482
0.0211867
0.0209561
0.0206872
0.020334
0.0199612
0.0195385
0.0191086
0.0186735
0.0182336
0.0178095
0.0173831
0.0169733
0.0165724
0.0161865
0.0158191
0.0154649
0.0151336
0.0148162
0.014518
0.0142357
0.01397
0.0137207
0.0134862
0.0132674
0.0130623
0.0128719
0.0126945
0.0125312
0.0123803
0.0122429
0.0121163
0.0120094
0.0119117
0.0117966
0.0116783
0.0115711
0.0114773
0.0113944
0.0113203
0.0112534
0.0111928
0.0111381
0.0110885
0.0110438
0.0110037
0.0109678
0.0109357
0.0109075
0.0108825
0.0108609
0.010842
0.0108257
0.0108122
0.0108022
0.0107946
0.0107891
0.0107851
0.0107827
0.0107815
0.0107808
0.0107816
0.0107828
0.0107841
0.0107861
0.0107878
0.0107892
0.0107884
0.0107916
0.0107783
0.0108085
0.0107585
0.00866559
0.0429849
0.0379057
0.0320238
0.0285419
0.0263386
0.0250765
0.0244858
0.0242871
0.0242556
0.0242508
0.0242111
0.0241009
0.0239444
0.0236881
0.0233936
0.023029
0.0226361
0.0222194
0.0217805
0.0213461
0.0208974
0.0204558
0.0200162
0.0195853
0.0191692
0.0187628
0.0183786
0.0180074
0.0176554
0.0173202
0.0170026
0.016703
0.0164198
0.0161545
0.0159048
0.0156722
0.0154547
0.0152536
0.015067
0.0148964
0.0147389
0.0146028
0.0144846
0.014354
0.0142171
0.0140892
0.0139747
0.0138725
0.0137809
0.0136981
0.0136231
0.0135552
0.0134937
0.0134383
0.0133883
0.0133438
0.0133038
0.0132687
0.0132375
0.0132106
0.0131871
0.0131668
0.0131497
0.0131368
0.0131271
0.0131203
0.0131157
0.0131131
0.0131124
0.0131125
0.0131147
0.0131177
0.013121
0.0131256
0.0131302
0.013135
0.0131372
0.0131447
0.0131328
0.0131707
0.0131063
0.0114689
0.0520043
0.0462741
0.0377036
0.0323063
0.0292698
0.0277567
0.027147
0.0270166
0.0270947
0.0272181
0.0273146
0.0273452
0.0273265
0.0271974
0.0270163
0.0267487
0.0264346
0.0260773
0.0256793
0.0252713
0.0248332
0.0243886
0.023935
0.0234796
0.0230312
0.0225853
0.0221575
0.0217392
0.0213377
0.0209516
0.0205824
0.0202316
0.0198978
0.0195831
0.0192853
0.0190065
0.0187444
0.0185009
0.018274
0.0180652
0.0178718
0.0177017
0.0175583
0.0174098
0.0172538
0.0171041
0.016967
0.0168432
0.0167315
0.0166302
0.0165383
0.016455
0.0163794
0.0163111
0.0162495
0.0161945
0.0161451
0.0161017
0.0160631
0.0160298
0.0160007
0.0159755
0.0159539
0.0159375
0.0159248
0.0159161
0.0159103
0.0159073
0.015907
0.0159077
0.0159112
0.0159161
0.0159217
0.015929
0.0159367
0.015945
0.0159502
0.0159619
0.0159508
0.015996
0.01591
0.0147056
0.0613821
0.0552664
0.043722
0.0361863
0.0322214
0.0304237
0.0298015
0.0297487
0.0299452
0.0302047
0.0304477
0.0306352
0.0307734
0.0307938
0.0307528
0.0306134
0.0304144
0.0301543
0.0298369
0.0294953
0.0291067
0.0286959
0.0282628
0.0278146
0.0273618
0.0269006
0.02645
0.0260017
0.0255644
0.0251384
0.0247261
0.0243302
0.0239498
0.0235882
0.0232435
0.0229184
0.0226109
0.0223233
0.0220537
0.021804
0.0215717
0.0213639
0.0211913
0.0210229
0.0208476
0.0206764
0.0205164
0.0203697
0.0202361
0.0201145
0.0200037
0.019903
0.0198114
0.0197286
0.0196536
0.0195867
0.0195264
0.0194734
0.0194261
0.0193854
0.0193498
0.019319
0.019292
0.0192711
0.0192547
0.0192434
0.0192358
0.0192317
0.0192314
0.0192325
0.0192371
0.0192438
0.0192514
0.0192612
0.0192718
0.0192833
0.0192911
0.0193063
0.0192946
0.0193455
0.0192331
0.0184012
0.0708201
0.0643653
0.0495356
0.0398341
0.0350319
0.0329865
0.0323881
0.0324281
0.0327528
0.0331531
0.0335489
0.033907
0.0342169
0.0344045
0.0345246
0.0345388
0.0344851
0.034354
0.0341529
0.0339146
0.033613
0.0332739
0.0328992
0.0324952
0.0320729
0.0316296
0.0311864
0.0307352
0.0302864
0.0298415
0.0294043
0.0289786
0.0285645
0.0281664
0.0277831
0.0274183
0.0270704
0.0267422
0.0264323
0.026143
0.0258723
0.0256265
0.0254231
0.0252339
0.0250402
0.0248495
0.0246682
0.0244996
0.0243442
0.0242019
0.0240714
0.0239526
0.0238441
0.0237458
0.0236565
0.0235766
0.0235045
0.0234411
0.0233844
0.0233355
0.0232929
0.0232559
0.0232231
0.023197
0.0231762
0.0231614
0.0231514
0.0231457
0.0231449
0.0231459
0.0231511
0.0231591
0.0231683
0.0231801
0.0231931
0.023207
0.0232163
0.0232334
0.023219
0.0232724
0.0231317
0.0225724
0.0800385
0.0729359
0.0551186
0.0431156
0.0376856
0.0354899
0.0349291
0.035038
0.0354547
0.035993
0.0365421
0.0370822
0.0375737
0.0379408
0.0382389
0.0384284
0.038547
0.0385719
0.0385191
0.038418
0.038237
0.0380048
0.0377252
0.0374027
0.0370474
0.0366583
0.0362579
0.0358372
0.0354083
0.0349737
0.0345382
0.0341069
0.0336807
0.0332654
0.0328604
0.0324705
0.0320947
0.0317366
0.0313954
0.0310739
0.0307708
0.030492
0.0302604
0.030052
0.0298428
0.0296366
0.0294383
0.0292514
0.0290772
0.0289164
0.0287679
0.0286322
0.0285076
0.0283945
0.0282913
0.0281989
0.0281152
0.0280415
0.0279756
0.0279187
0.027869
0.027826
0.0277874
0.0277561
0.0277306
0.0277122
0.0276993
0.0276916
0.0276898
0.0276903
0.0276957
0.0277045
0.0277147
0.0277277
0.027742
0.0277573
0.0277665
0.0277834
0.0277636
0.0278153
0.0276469
0.0272401
0.0886931
0.0804832
0.0615932
0.0473419
0.0408459
0.038433
0.0378234
0.0379065
0.0383172
0.0388897
0.0395043
0.0401415
0.0407506
0.0412965
0.0417831
0.0421651
0.0424801
0.0426824
0.0428091
0.0428768
0.0428469
0.0427542
0.0426055
0.0424003
0.0421471
0.0418494
0.0415282
0.0411736
0.0407992
0.0404086
0.0400072
0.0396005
0.0391908
0.0387846
0.0383823
0.0379895
0.0376059
0.037236
0.0368798
0.0365405
0.0362177
0.0359171
0.0356656
0.0354438
0.0352247
0.0350095
0.0348014
0.0346033
0.0344166
0.0342427
0.034081
0.0339323
0.0337952
0.0336704
0.033556
0.0334534
0.0333602
0.0332781
0.0332046
0.0331412
0.033086
0.0330384
0.0329951
0.0329597
0.0329303
0.0329087
0.0328933
0.0328838
0.0328811
0.032881
0.0328865
0.0328958
0.0329066
0.0329203
0.0329352
0.0329505
0.0329584
0.0329729
0.0329456
0.0329905
0.0327983
0.0324366
0.0963439
0.0870083
0.0691064
0.0540465
0.046222
0.0430737
0.0419563
0.0417143
0.0418939
0.0423074
0.0428313
0.0434191
0.0440247
0.0446173
0.0451884
0.045677
0.0461501
0.0465354
0.0468726
0.0471368
0.0472823
0.0473602
0.0473786
0.0473242
0.0472072
0.0470387
0.0468338
0.0465811
0.0462977
0.0459871
0.0456549
0.0453069
0.0449465
0.0445809
0.044211
0.0438434
0.0434785
0.0431215
0.0427729
0.0424368
0.0421137
0.0418089
0.0415517
0.0413269
0.0411073
0.0408929
0.0406848
0.0404855
0.040296
0.040118
0.0399512
0.039797
0.039654
0.0395235
0.0394035
0.0392956
0.0391976
0.0391112
0.039034
0.0389676
0.03891
0.0388607
0.0388157
0.0387788
0.0387478
0.038725
0.0387089
0.0386989
0.0386965
0.0386968
0.0387031
0.0387137
0.0387254
0.0387401
0.0387555
0.0387706
0.0387765
0.0387875
0.038752
0.0387857
0.0385778
0.0381881
0.102522
0.0930744
0.0774132
0.0629741
0.054458
0.0501811
0.0480445
0.0470838
0.0467453
0.0467661
0.0470024
0.0473542
0.0477977
0.0482735
0.0487872
0.0492632
0.0497577
0.0502078
0.0506406
0.0510313
0.0513558
0.0516324
0.0518529
0.0519759
0.0520258
0.0520261
0.0519736
0.0518584
0.0517035
0.051511
0.0512853
0.0510327
0.0507578
0.050468
0.0501646
0.0498548
0.0495399
0.0492255
0.048913
0.0486068
0.0483084
0.048023
0.0477797
0.0475674
0.047361
0.0471601
0.046965
0.0467774
0.0465976
0.0464277
0.0462673
0.0461184
0.0459795
0.0458525
0.0457354
0.0456303
0.0455346
0.0454508
0.0453762
0.0453126
0.0452581
0.0452123
0.0451705
0.0451367
0.0451086
0.0450886
0.0450752
0.045068
0.0450687
0.0450722
0.0450818
0.0450956
0.0451103
0.0451276
0.0451451
0.0451614
0.0451667
0.045175
0.0451334
0.0451533
0.0449428
0.0444892
0.107138
0.0992781
0.0861867
0.0731095
0.0642004
0.0587094
0.0554625
0.0536769
0.0527333
0.052278
0.052126
0.052135
0.0523045
0.0525411
0.0528695
0.0532107
0.0535942
0.0539827
0.0543834
0.0547814
0.0551555
0.0555151
0.0558391
0.0561322
0.0563719
0.0565821
0.0567083
0.0567607
0.0567721
0.0567356
0.0566537
0.0565344
0.0563838
0.0562078
0.0560082
0.0557928
0.0555634
0.0553262
0.0550828
0.0548383
0.0545951
0.054358
0.0541535
0.0539738
0.0537988
0.0536282
0.0534621
0.0533018
0.0531473
0.0530006
0.0528611
0.0527313
0.0526097
0.0524987
0.0523962
0.0523047
0.0522219
0.0521503
0.0520873
0.0520351
0.0519916
0.0519568
0.0519255
0.0519018
0.0518832
0.0518723
0.0518676
0.0518688
0.0518779
0.0518893
0.0519067
0.0519281
0.05195
0.051974
0.0519975
0.0520186
0.0520275
0.0520366
0.0519951
0.0520021
0.0518059
0.0512855
0.111532
0.105433
0.0949658
0.0832985
0.0733368
0.0665109
0.0625844
0.0603244
0.0590103
0.0582241
0.0577446
0.0574515
0.0573591
0.0573479
0.0574471
0.0575881
0.0577853
0.0580243
0.0582944
0.0585958
0.0589058
0.0592335
0.0595566
0.0598862
0.0602003
0.0605068
0.0607862
0.0610223
0.0612344
0.0613826
0.0614731
0.0615217
0.0615327
0.0615074
0.061449
0.0613662
0.0612604
0.0611375
0.0609999
0.0608531
0.0607
0.0605451
0.0604089
0.0602865
0.0601655
0.060046
0.0599286
0.0598145
0.0597037
0.059598
0.059497
0.0594031
0.0593151
0.0592355
0.0591625
0.0590988
0.0590422
0.0589955
0.0589561
0.0589266
0.0589049
0.0588912
0.0588804
0.0588764
0.0588766
0.0588837
0.0588963
0.0589141
0.0589392
0.0589661
0.0589987
0.0590347
0.0590707
0.0591082
0.0591445
0.0591774
0.0591973
0.0592146
0.0591833
0.0591836
0.0590211
0.0584579
0.116332
0.111627
0.103313
0.0932871
0.083785
0.0761176
0.0703955
0.066954
0.0650216
0.0638589
0.0631623
0.0627293
0.0625087
0.0623407
0.0622495
0.0622027
0.0622216
0.0622941
0.0623966
0.0625441
0.0627168
0.0629278
0.0631623
0.0634264
0.0637088
0.0640071
0.0643146
0.0646149
0.0649159
0.0651984
0.0654612
0.0657003
0.0658971
0.0660456
0.0661572
0.0662392
0.0662904
0.0663162
0.06632
0.0663069
0.06628
0.0662432
0.0662073
0.0661697
0.0661285
0.0660844
0.0660383
0.0659923
0.0659461
0.065902
0.0658594
0.0658208
0.0657854
0.0657555
0.0657297
0.0657108
0.0656968
0.0656905
0.0656898
0.0656971
0.0657107
0.065731
0.0657532
0.0657812
0.0658122
0.065849
0.0658902
0.0659356
0.0659874
0.0660403
0.0660981
0.0661587
0.0662187
0.0662798
0.066339
0.0663941
0.0664364
0.0664735
0.0664672
0.0664737
0.0663648
0.0658061
0.120468
0.117181
0.110861
0.102875
0.0947759
0.087545
0.081446
0.0766598
0.0730286
0.0705973
0.0691967
0.0683079
0.0677074
0.0672501
0.0669716
0.0667987
0.0667244
0.0666672
0.06661
0.0665926
0.0666034
0.0666598
0.0667549
0.0668907
0.0670637
0.0672673
0.0675019
0.067757
0.0680369
0.0683307
0.0686378
0.0689497
0.0692606
0.0695597
0.0698455
0.0701029
0.0703222
0.0705134
0.0706807
0.0708268
0.0709535
0.0710642
0.0711565
0.0712287
0.0712909
0.0713453
0.0713932
0.0714369
0.0714768
0.0715151
0.0715516
0.0715887
0.0716258
0.0716653
0.0717059
0.0717504
0.0717971
0.0718487
0.0719035
0.0719638
0.0720283
0.0720977
0.0721677
0.072242
0.072318
0.0723984
0.0724818
0.0725683
0.0726599
0.0727519
0.072848
0.0729459
0.0730431
0.0731408
0.0732364
0.0733276
0.0734074
0.0734804
0.0735177
0.0735513
0.0735159
0.0730269
0.123925
0.121716
0.117293
0.111472
0.10499
0.0985659
0.0928371
0.0880148
0.0840322
0.080788
0.0782258
0.0760655
0.0743649
0.0731148
0.0723545
0.0718493
0.0714839
0.0711885
0.0709299