/*--------------------------------*- C++ -*----------------------------------*\
| =========                 |                                                 |
| \\      /  F ield         | OpenFOAM: The Open Source CFD Toolbox           |
|  \\    /   O peration     | Version:  5.x                                   |
|   \\  /    A nd           | Web:      www.OpenFOAM.org                      |
|    \\/     M anipulation  |                                                 |
\*---------------------------------------------------------------------------*/
FoamFile
{
    version     2.0;
    format      ascii;
    class       surfaceScalarField;
    location    "1100";
    object      phi;
}
// * * * * * * * * * * * * * * * * * * * * * * * * * * * * * * * * * * * * * //

dimensions      [0 3 -1 0 0 0 0];

internalField   nonuniform List<scalar> 
83317
(
0.000496206
0.000109863
-0.000607757
0.000401646
9.45597e-05
0.00032664
7.50064e-05
0.000294789
3.18509e-05
0.000277284
1.75048e-05
0.000263259
1.40243e-05
0.000252799
1.04597e-05
0.000244961
7.83838e-06
0.000238594
6.36625e-06
0.000232957
5.63639e-06
0.000227989
4.96712e-06
0.000222809
5.1782e-06
0.000218754
4.05299e-06
0.000214744
4.0071e-06
0.000212293
2.45066e-06
0.000210476
1.81416e-06
0.00020859
1.88572e-06
0.000207143
1.44371e-06
0.000205155
1.98823e-06
0.000203538
1.61474e-06
0.000201861
1.67465e-06
0.000200043
1.81608e-06
0.000198688
1.35414e-06
0.00019702
1.66613e-06
0.000195713
1.30609e-06
0.000194424
1.28737e-06
0.000192863
1.55963e-06
0.000191592
1.26911e-06
0.000190532
1.05953e-06
0.00018936
1.16982e-06
0.000187899
1.45869e-06
0.00018656
1.32835e-06
0.000185799
7.62161e-07
0.000184936
8.61449e-07
0.000184123
8.02963e-07
0.00018352
6.03395e-07
0.000182787
7.14299e-07
0.000182489
2.98553e-07
0.000182559
-8.04731e-08
0.000182625
-6.34158e-08
0.000182669
-6.11538e-08
0.000178151
4.52221e-06
0.000174325
3.8089e-06
0.000173823
4.93647e-07
0.000173412
3.96456e-07
0.000173342
8.2774e-08
0.000172938
3.7911e-07
0.000172565
3.79446e-07
0.000172245
3.00911e-07
0.000171969
2.82898e-07
0.000171735
2.10274e-07
0.000171546
1.95205e-07
0.000171393
1.23761e-07
0.000171287
1.25826e-07
0.000170854
4.0176e-07
0.000170482
3.73138e-07
0.000170785
-3.15236e-07
0.00017082
-1.50296e-08
0.000170835
-4.84354e-08
0.000171224
-3.57129e-07
0.000171297
-1.17283e-07
0.000171044
2.75919e-07
0.000170995
7.6816e-10
0.00017091
1.19448e-07
0.000170774
7.55754e-08
0.000170544
2.81852e-07
0.000170047
4.21454e-07
0.000169876
2.32386e-07
0.00016975
3.47573e-08
0.00016898
8.52159e-07
0.000168126
7.46046e-07
0.000167599
6.62455e-07
0.000166311
1.11124e-06
0.000164617
1.86026e-06
0.00016322
1.19779e-06
0.000161376
2.16172e-06
0.000158659
2.34214e-06
0.000155606
3.59169e-06
0.000151593
3.42186e-06
0.00014893
3.67086e-06
7.74379e-05
7.0216e-05
-0.000333063
0.00041071
0.000749636
0.000252426
-0.000892206
0.000577953
0.000266242
0.000459112
0.000193848
0.000411873
7.90898e-05
0.000391536
3.78413e-05
0.00037752
2.80407e-05
0.00036999
1.79892e-05
0.00036613
1.16985e-05
0.000364182
8.31375e-06
0.000363433
6.38482e-06
0.00036312
5.27957e-06
0.000362844
5.45299e-06
0.000362991
3.90464e-06
0.000363238
3.75846e-06
0.000365114
5.74664e-07
0.000366761
1.65402e-07
0.000369353
-7.0729e-07
0.000371488
-6.93296e-07
0.000373776
-2.99288e-07
0.000375815
-4.24849e-07
0.000377061
4.26603e-07
0.000378509
3.66964e-07
0.000379021
8.41174e-07
0.000379513
1.17299e-06
0.000379457
1.36137e-06
0.000378924
1.81975e-06
0.000378694
1.78818e-06
0.000377731
2.23174e-06
0.000376532
2.25738e-06
0.000375184
2.51706e-06
0.000374035
2.60587e-06
0.000372682
2.67536e-06
0.000370754
2.69036e-06
0.000368932
2.68194e-06
0.000367019
2.71004e-06
0.000365029
2.59361e-06
0.000363144
2.5882e-06
0.000361021
2.42141e-06
0.000358603
2.33152e-06
0.000356384
2.15662e-06
0.000354181
2.13252e-06
0.000355762
2.94256e-06
0.000358345
1.21709e-06
0.000358537
2.95696e-07
0.000357967
9.57465e-07
0.000357044
1.01255e-06
0.000356348
1.06138e-06
0.000355674
1.05611e-06
0.000354998
9.66487e-07
0.000354348
9.35936e-07
0.000353713
8.32334e-07
0.000353107
8.0359e-07
0.000352522
6.91799e-07
0.000351958
6.99431e-07
0.000351658
6.85421e-07
0.000351375
6.55325e-07
0.000350637
4.15454e-07
0.000350157
4.75383e-07
0.000349705
3.85041e-07
0.000349053
3.11085e-07
0.000348638
2.72973e-07
0.000348387
5.37241e-07
0.000347799
5.62558e-07
0.000347154
7.8075e-07
0.000346421
7.7521e-07
0.000345643
1.08511e-06
0.000344937
1.08553e-06
0.000343775
1.42515e-06
0.00034247
1.28809e-06
0.000341311
2.05435e-06
0.000339934
2.06217e-06
0.00033806
2.60544e-06
0.000336232
2.84033e-06
0.000334222
3.95764e-06
0.000331447
3.86255e-06
0.000328278
5.49511e-06
0.000324554
5.85732e-06
0.000320171
8.2612e-06
0.000313637
9.62883e-06
0.000309868
7.98867e-06
0.000172637
0.000206749
-0.000667758
0.00050765
0.000993231
0.000430109
-0.00117091
0.000758435
0.000501038
0.00059588
0.000356403
0.000533738
0.000141232
0.000509207
6.23718e-05
0.00049389
4.33574e-05
0.000487835
2.4044e-05
0.000486599
1.29345e-05
0.000487806
7.10696e-06
0.000490639
3.55198e-06
0.000493757
2.1601e-06
0.000496889
2.32055e-06
0.000499904
8.89821e-07
0.000502491
1.17034e-06
0.000506666
-3.60116e-06
0.000509832
-3.00064e-06
0.000514209
-5.08448e-06
0.000517723
-4.2087e-06
0.000521372
-3.94753e-06
0.000524611
-3.66491e-06
0.000526872
-1.83489e-06
0.000529212
-1.97399e-06
0.000530279
-2.25722e-07
0.000531266
1.85052e-07
0.000531527
1.09993e-06
0.000531372
1.97445e-06
0.000531146
2.01362e-06
0.000530172
3.20551e-06
0.000529127
3.30204e-06
0.000527641
4.0027e-06
0.000526155
4.09099e-06
0.000524375
4.45185e-06
0.000522302
4.76371e-06
0.00052011
4.87374e-06
0.000517731
5.08641e-06
0.000515223
5.1023e-06
0.000512555
5.24958e-06
0.000509731
5.24596e-06
0.000506608
5.45118e-06
0.000503488
5.2777e-06
0.000500083
5.53162e-06
0.000503326
-2.98786e-07
0.000507927
-3.38926e-06
0.000508057
1.63813e-07
0.000507385
1.62459e-06
0.000506489
1.91291e-06
0.000505633
1.90917e-06
0.000504795
1.89612e-06
0.000503941
1.81524e-06
0.000503107
1.77204e-06
0.00050228
1.65127e-06
0.00050148
1.6065e-06
0.000500697
1.46496e-06
0.000499927
1.4765e-06
0.000499276
1.32639e-06
0.000498635
1.29636e-06
0.000497834
1.21292e-06
0.000497144
1.17176e-06
0.000496481
1.038e-06
0.000495758
1.04463e-06
0.000495128
8.88886e-07
0.000494509
1.16352e-06
0.00049364
1.41687e-06
0.000492712
1.72055e-06
0.000491643
1.82466e-06
0.000490546
2.19922e-06
0.000489322
2.28623e-06
0.000487917
2.84994e-06
0.00048628
2.89637e-06
0.000484462
3.89982e-06
0.000482619
3.8713e-06
0.000480225
5.04408e-06
0.000477558
5.45188e-06
0.000474734
6.83455e-06
0.000471215
7.3195e-06
0.000466981
9.833e-06
0.000461888
1.08338e-05
0.000456166
1.41553e-05
0.000447734
1.78767e-05
0.000442934
1.31071e-05
0.000268093
0.000381183
-0.00103538
0.000635998
0.0012888
0.000642358
-0.00150105
0.000985134
0.000804703
0.000768357
0.00057318
0.000686678
0.00022291
0.000656045
9.30042e-05
0.000638514
6.0889e-05
0.000633083
2.94742e-05
0.000633687
1.23303e-05
0.000637305
3.48975e-06
0.000642877
-2.02057e-06
0.00064887
-3.83357e-06
0.000654655
-3.46502e-06
0.000660165
-4.6203e-06
0.000664383
-3.04888e-06
0.000669815
-9.03427e-06
0.00067381
-6.99617e-06
0.000678856
-1.01306e-05
0.000683049
-8.40216e-06
0.000687136
-8.0352e-06
0.000690861
-7.39014e-06
0.000693515
-4.48982e-06
0.000696137
-4.59661e-06
0.000697475
-1.56457e-06
0.000698584
-9.24787e-07
0.000698981
7.03132e-07
0.000698912
2.04283e-06
0.000698611
2.31421e-06
0.000697579
4.23641e-06
0.000696522
4.35867e-06
0.000694913
5.61127e-06
0.000693169
5.83419e-06
0.000691113
6.50501e-06
0.000688905
6.9718e-06
0.000686481
7.29667e-06
0.000683824
7.74052e-06
0.000681034
7.89157e-06
0.000677955
8.32348e-06
0.000674787
8.41412e-06
0.000671346
8.88847e-06
0.000667817
8.80709e-06
0.000663845
9.49851e-06
0.000666815
-3.2675e-06
0.00067157
-8.14852e-06
0.000671722
8.34187e-09
0.000670972
2.36978e-06
0.00067006
2.82747e-06
0.000669075
2.88863e-06
0.000668106
2.86578e-06
0.000667118
2.79793e-06
0.000666154
2.73703e-06
0.000665198
2.60148e-06
0.000664271
2.534e-06
0.000663364
2.3639e-06
0.000662471
2.37318e-06
0.000661601
2.1891e-06
0.000660745
2.15199e-06
0.00065992
2.03458e-06
0.000659118
1.97686e-06
0.000658338
1.80995e-06
0.000657601
1.78861e-06
0.000656859
1.61962e-06
0.000656017
2.00895e-06
0.000654957
2.4637e-06
0.000653818
2.86636e-06
0.000652496
3.13098e-06
0.000651122
3.58328e-06
0.000649492
3.89681e-06
0.000647809
4.54578e-06
0.000645845
4.83615e-06
0.000643444
6.31903e-06
0.000641065
6.2218e-06
0.000638114
8.02434e-06
0.000634607
8.91243e-06
0.000630855
1.06243e-05
0.000626412
1.17119e-05
0.000620974
1.53427e-05
0.000614308
1.74023e-05
0.000606894
2.16955e-05
0.000596086
2.85356e-05
0.000589956
1.94785e-05
0.000389928
0.000580894
-0.00144801
0.000802923
0.00164253
0.000883512
-0.00188368
0.00126182
0.00118542
0.000981532
0.000853467
0.000873883
0.00033056
0.000834093
0.000132794
0.000812647
8.2335e-05
0.00080617
3.59517e-05
0.000807413
1.10875e-05
0.000812643
-1.74115e-06
0.000820389
-9.76625e-06
0.000829065
-1.25094e-05
0.000837466
-1.18666e-05
0.000845788
-1.29422e-05
0.000852201
-9.46241e-06
0.000859404
-1.62375e-05
0.000864801
-1.23936e-05
0.000870977
-1.63073e-05
0.000876301
-1.37266e-05
0.00088129
-1.30233e-05
0.000885929
-1.20299e-05
0.000889295
-7.85626e-06
0.000892546
-7.84849e-06
0.000894424
-3.44273e-06
0.000895912
-2.41267e-06
0.00089664
-2.52385e-08
0.000896743
1.93938e-06
0.000896587
2.47007e-06
0.000895602
5.22119e-06
0.000894535
5.42529e-06
0.000892859
7.28759e-06
0.000890983
7.70905e-06
0.000888762
8.72501e-06
0.000886348
9.38515e-06
0.000883693
9.95203e-06
0.000880758
1.0673e-05
0.000877677
1.09729e-05
0.000874259
1.17378e-05
0.000870742
1.19319e-05
0.000866915
1.27129e-05
0.000862982
1.27406e-05
0.000858532
1.39456e-05
0.000861106
-5.84093e-06
0.000865932
-1.29778e-05
0.000866239
-2.99679e-07
0.000865437
3.16974e-06
0.000864431
3.83546e-06
0.000863322
3.99321e-06
0.000862227
3.9613e-06
0.000861113
3.90913e-06
0.000860021
3.82999e-06
0.000858941
3.67748e-06
0.000857893
3.58245e-06
0.000856869
3.38353e-06
0.00085586
3.38498e-06
0.000854862
3.18232e-06
0.000853883
3.13062e-06
0.000852958
2.95709e-06
0.000852055
2.88364e-06
0.000851168
2.69103e-06
0.000850348
2.61513e-06
0.000849505
2.45405e-06
0.000848524
2.99501e-06
0.00084727
3.70885e-06
0.000845906
4.23687e-06
0.000844311
4.71532e-06
0.000842633
5.27104e-06
0.000840635
5.88203e-06
0.000838549
6.64267e-06
0.000836132
7.2373e-06
0.000833147
9.31928e-06
0.000830139
9.21151e-06
0.000826458
1.17305e-05
0.000822041
1.3299e-05
0.000817264
1.54306e-05
0.000811633
1.73088e-05
0.000804755
2.22791e-05
0.000796281
2.58135e-05
0.000786815
3.12559e-05
0.000773054
4.21979e-05
0.000765276
2.74245e-05
0.000547838
0.000798105
-0.00191477
0.00101485
0.00206376
0.00115063
-0.00233088
0.00159369
0.00165549
0.00123771
0.00120945
0.00109823
0.00047004
0.00104663
0.000184388
0.00102012
0.000108854
0.00101207
4.40006e-05
0.00101393
9.22225e-06
0.00102107
-8.87601e-06
0.00103147
-2.01713e-05
0.00104341
-2.44468e-05
0.00105506
-2.35219e-05
0.0010669
-2.47784e-05
0.00107632
-1.88894e-05
0.00108622
-2.61365e-05
0.00109377
-1.99407e-05
0.00110172
-2.4261e-05
0.00110871
-2.07124e-05
0.00111507
-1.93826e-05
0.00112105
-1.80073e-05
0.00112547
-1.2283e-05
0.00112968
-1.20572e-05
0.00113236
-6.12446e-06
0.00113446
-4.51023e-06
0.00113571
-1.27768e-06
0.00113613
1.51703e-06
0.00113627
2.33059e-06
0.00113543
6.0623e-06
0.00113443
6.42775e-06
0.00113274
8.97577e-06
0.00113079
9.65468e-06
0.00112845
1.10646e-05
0.00112583
1.20044e-05
0.00112295
1.28344e-05
0.00111973
1.38871e-05
0.00111635
1.43553e-05
0.00111259
1.54947e-05
0.0011087
1.58187e-05
0.00110445
1.6961e-05
0.00110009
1.71016e-05
0.00109514
1.88918e-05
0.00109729
-7.98984e-06
0.0011022
-1.78947e-05
0.00110273
-8.28154e-07
0.0011019
3.99304e-06
0.00110079
4.9432e-06
0.00109957
5.21704e-06
0.00109835
5.17782e-06
0.00109711
5.14709e-06
0.00109589
5.04524e-06
0.00109469
4.87725e-06
0.00109352
4.749e-06
0.00109238
4.51929e-06
0.00109126
4.50879e-06
0.00109015
4.28274e-06
0.00108907
4.20997e-06
0.00108803
3.997e-06
0.00108703
3.88864e-06
0.00108604
3.67622e-06
0.00108512
3.53838e-06
0.00108418
3.38775e-06
0.00108307
4.10517e-06
0.0010816
5.16455e-06
0.00107999
5.85682e-06
0.00107808
6.60695e-06
0.00107605
7.30748e-06
0.00107365
8.27393e-06
0.00107107
9.22504e-06
0.00106811
1.01865e-05
0.00106445
1.29881e-05
0.00106069
1.29537e-05
0.00105612
1.63158e-05
0.00105063
1.87543e-05
0.00104463
2.14555e-05
0.00103755
2.43556e-05
0.00102893
3.09393e-05
0.00101829
3.63944e-05
0.00100633
4.3292e-05
0.000988966
5.94641e-05
0.000979139
3.74009e-05
0.000746887
0.00103015
-0.00244399
0.00127647
0.00256745
0.00144079
-0.00285761
0.00199397
0.00222896
0.00154639
0.00165703
0.0013687
0.000647732
0.0013027
0.000250389
0.00127009
0.00014147
0.00126032
5.37678e-05
0.00126309
6.45007e-06
0.00127266
-1.84485e-05
0.00128643
-3.39383e-05
0.0013024
-4.042e-05
0.00131811
-3.92258e-05
0.00133429
-4.09578e-05
0.00134756
-3.2163e-05
0.00136109
-3.96623e-05
0.00137158
-3.04391e-05
0.00138203
-3.47054e-05
0.00139127
-2.99552e-05
0.00139953
-2.76378e-05
0.00140731
-2.57932e-05
0.0014132
-1.81744e-05
0.00141874
-1.75913e-05
0.00142252
-9.90819e-06
0.00142549
-7.48407e-06
0.0014275
-3.28056e-06
0.00142842
5.91651e-07
0.00142901
1.73854e-06
0.00142844
6.6386e-06
0.0014276
7.26395e-06
0.00142597
1.06009e-05
0.00142401
1.16181e-05
0.00142158
1.34906e-05
0.00141878
1.48053e-05
0.00141568
1.5933e-05
0.00141218
1.73878e-05
0.00140849
1.80481e-05
0.00140436
1.96184e-05
0.00140008
2.00975e-05
0.00139538
2.16634e-05
0.00139056
2.19225e-05
0.00138507
2.43808e-05
0.00138677
-9.68868e-06
0.0013918
-2.29273e-05
0.0013926
-1.63172e-06
0.00139179
4.80714e-06
0.00139059
6.13894e-06
0.00138925
6.55174e-06
0.00138792
6.51279e-06
0.00138656
6.50805e-06
0.00138522
6.38306e-06
0.00138389
6.20146e-06
0.00138261
6.0321e-06
0.00138135
5.77299e-06
0.00138012
5.74437e-06
0.0013789
5.49219e-06
0.00137773
5.38954e-06
0.00137657
5.15453e-06
0.00137546
4.99249e-06
0.00137437
4.76866e-06
0.00137335
4.55598e-06
0.00137232
4.42104e-06
0.00137107
5.35004e-06
0.00136937
6.86093e-06
0.00136747
7.76199e-06
0.00136521
8.86004e-06
0.00136277
9.75527e-06
0.00135988
1.1152e-05
0.00135673
1.23852e-05
0.00135311
1.3793e-05
0.00134865
1.74604e-05
0.00134398
1.76097e-05
0.00133835
2.19662e-05
0.00133157
2.55168e-05
0.00132408
2.89588e-05
0.00131524
3.31725e-05
0.00130452
4.17037e-05
0.00129123
4.96423e-05
0.00127624
5.83449e-05
0.00125449
8.11499e-05
0.0012421
4.98876e-05
0.000992401
0.0012797
-0.00304481
0.00159341
0.00317141
0.00174986
-0.00348048
0.00247996
0.00292041
0.00192164
0.00221535
0.00169776
0.000871615
0.00161401
0.000334132
0.00157396
0.000181519
0.00156223
6.55057e-05
0.0015662
2.47971e-06
0.00157881
-3.10627e-05
0.00159675
-5.18761e-05
0.00161768
-6.13562e-05
0.00163839
-5.99302e-05
0.00165991
-6.24795e-05
0.00167799
-5.02401e-05
0.00169617
-5.7849e-05
0.00171055
-4.48141e-05
0.00172432
-4.84751e-05
0.00173653
-4.21712e-05
0.0017473
-3.84061e-05
0.00175746
-3.5958e-05
0.0017653
-2.60129e-05
0.0017726
-2.48876e-05
0.00177785
-1.51641e-05
0.00178202
-1.16562e-05
0.00178505
-6.30661e-06
0.00178671
-1.0665e-06
0.00178795
4.99169e-07
0.00178779
6.79934e-06
0.00178725
7.7968e-06
0.00178578
1.20695e-05
0.00178387
1.35268e-05
0.00178141
1.59518e-05
0.00177847
1.77486e-05
0.00177517
1.92263e-05
0.00177139
2.1167e-05
0.00176739
2.20524e-05
0.00176288
2.41237e-05
0.00175819
2.47863e-05
0.00175301
2.68446e-05
0.0017477
2.72312e-05
0.00174162
3.04555e-05
0.00174282
-1.08926e-05
0.00174799
-2.80939e-05
0.00174912
-2.76916e-06
0.00174837
5.56159e-06
0.00174711
7.39507e-06
0.00174567
7.98564e-06
0.00174423
7.95429e-06
0.00174275
7.98449e-06
0.0017413
7.83654e-06
0.00173985
7.64269e-06
0.00173846
7.42565e-06
0.00173709
7.13688e-06
0.00173575
7.08524e-06
0.00173443
6.80981e-06
0.00173315
6.6667e-06
0.00173188
6.42304e-06
0.00173069
6.18994e-06
0.00172949
5.96148e-06
0.00172839
5.65985e-06
0.00172725
5.54934e-06
0.00172587
6.73659e-06
0.0017239
8.82004e-06
0.00172167
9.99223e-06
0.001719
1.15252e-05
0.00171608
1.26809e-05
0.00171262
1.45999e-05
0.00170878
1.62284e-05
0.00170439
1.81673e-05
0.00169896
2.29e-05
0.0016932
2.3356e-05
0.00168628
2.8893e-05
0.00167793
3.38419e-05
0.00166864
3.82679e-05
0.00165767
4.41204e-05
0.00164438
5.50224e-05
0.00162787
6.61002e-05
0.00160917
7.70943e-05
0.00158209
0.000108161
0.00156648
6.55942e-05
0.0012938
0.00155223
-0.00372615
0.00197544
0.00389684
0.00207292
-0.00421988
0.00307196
0.00374529
0.0023803
0.002907
0.00210025
0.00115167
0.00199439
0.000439988
0.00194515
0.000230763
0.00193104
7.96117e-05
0.00193649
-2.97173e-06
0.00195284
-4.74067e-05
0.0019759
-7.49357e-05
0.00200291
-8.83666e-05
0.00202975
-8.67729e-05
0.00205782
-9.05541e-05
0.00208185
-7.42635e-05
0.00210591
-8.19107e-05
0.00212526
-6.41642e-05
0.00214336
-6.6576e-05
0.00215942
-5.82355e-05
0.00217347
-5.2449e-05
0.0021867
-4.91949e-05
0.00219708
-3.639e-05
0.00220668
-3.44831e-05
0.00221386
-2.23522e-05
0.00221963
-1.7421e-05
0.00222402
-1.07036e-05
0.0022267
-3.73802e-06
0.00222883
-1.63577e-06
0.00222928
6.34951e-06
0.00222922
7.85879e-06
0.00222804
1.32516e-05
0.00222628
1.52831e-05
0.00222386
1.83743e-05
0.00222082
2.07818e-05
0.00221737
2.26751e-05
0.00221333
2.52104e-05
0.00220902
2.63584e-05
0.00220412
2.9023e-05
0.00219901
2.98977e-05
0.00219333
3.25268e-05
0.0021875
3.30553e-05
0.0021808
3.71555e-05
0.00218145
-1.15423e-05
0.00218674
-3.33877e-05
0.00218828
-4.30212e-06
0.00218764
6.20003e-06
0.00218635
8.6782e-06
0.00218484
9.4993e-06
0.0021833
9.4878e-06
0.00218172
9.56605e-06
0.00218016
9.39513e-06
0.00217861
9.19204e-06
0.00217711
8.92318e-06
0.00217564
8.60482e-06
0.00217421
8.52395e-06
0.00217278
8.23026e-06
0.00217141
8.03649e-06
0.00217004
7.79641e-06
0.00216876
7.47201e-06
0.00216746
7.25379e-06
0.00216629
6.83932e-06
0.00216507
6.76827e-06
0.00216353
8.27542e-06
0.00216127
1.10784e-05
0.00215866
1.25966e-05
0.00215551
1.46755e-05
0.00215202
1.61734e-05
0.00214788
1.87317e-05
0.00214323
2.08854e-05
0.00213792
2.347e-05
0.00213133
2.9503e-05
0.00212424
3.04309e-05
0.00211578
3.73679e-05
0.00210553
4.40817e-05
0.00209404
4.97709e-05
0.00208047
5.76758e-05
0.00206406
7.14582e-05
0.00204363
8.6503e-05
0.00202042
0.000100348
0.00198684
0.000141701
0.00196716
8.53321e-05
0.00166554
0.00185374
-0.00449759
0.00243706
0.00476911
0.00240402
-0.00510021
0.00379405
0.00472035
0.00294263
0.00375842
0.00259415
0.00150016
0.00246053
0.000573605
0.00239979
0.000291503
0.00238273
9.66753e-05
0.00238995
-1.01922e-05
0.00241082
-6.82788e-05
0.00244012
-0.000104238
0.00247454
-0.000122789
0.0025089
-0.000121126
0.00254499
-0.000126651
0.00257634
-0.000105609
0.00260772
-0.000113293
0.00263337
-8.98136e-05
0.00265703
-9.02386e-05
0.00267803
-7.9234e-05
0.00269628
-7.07028e-05
0.00271346
-6.63699e-05
0.00272711
-5.00407e-05
0.00273967
-4.70498e-05
0.00274936
-3.20433e-05
0.00275722
-2.52799e-05
0.00276342
-1.69057e-05
0.00276747
-7.78347e-06
0.00277082
-4.98562e-06
0.00277213
5.03766e-06
0.00277276
7.23036e-06
0.00277203
1.39779e-05
0.00277057
1.6747e-05
0.00276829
2.06521e-05
0.00276525
2.38229e-05
0.0027617
2.62215e-05
0.00275743
2.94795e-05
0.00275285
3.0939e-05
0.00274756
3.43082e-05
0.00274203
3.54296e-05
0.00273583
3.87199e-05
0.00272948
3.94077e-05
0.00272213
4.45055e-05
0.00272214
-1.15605e-05
0.00272754
-3.87842e-05
0.00272954
-6.30111e-06
0.00272909
6.64333e-06
0.00272783
9.93944e-06
0.00272627
1.10601e-05
0.00272467
1.10871e-05
0.002723
1.12299e-05
0.00272136
1.10365e-05
0.00271971
1.08325e-05
0.00271813
1.05016e-05
0.00271658
1.01576e-05
0.00271506
1.00415e-05
0.00271355
9.7398e-06
0.0027121
9.4809e-06
0.00271064
9.25985e-06
0.00270929
8.8231e-06
0.00270791
8.62766e-06
0.00270667
8.07645e-06
0.00270537
8.06373e-06
0.00270369
9.96336e-06
0.00270109
1.3664e-05
0.00269807
1.56245e-05
0.00269435
1.83829e-05
0.0026902
2.03264e-05
0.00268526
2.36646e-05
0.00267964
2.65099e-05
0.00267323
2.98682e-05
0.00266523
3.75033e-05
0.00265656
3.90962e-05
0.00264622
4.77086e-05
0.00263367
5.66151e-05
0.0026195
6.39476e-05
0.00260278
7.43803e-05
0.00258257
9.16836e-05
0.00255738
0.000111664
0.00252865
0.000129113
0.00248717
0.000183124
0.00246229
0.000110274
0.00212653
0.00218939
-0.00536731
0.00299647
0.00581851
0.00273538
-0.00614986
0.00467513
0.00586373
0.00363327
0.00480027
0.00320153
0.0019319
0.00303289
0.000742251
0.00295765
0.00036674
0.00293681
0.000117511
0.00294608
-1.94584e-05
0.0029724
-9.45981e-05
0.00300927
-0.000141111
0.0030527
-0.00016622
0.00309621
-0.000164631
0.00314209
-0.000172537
0.00318242
-0.000145931
0.00322286
-0.00015374
0.00325641
-0.000123358
0.00328713
-0.000120958
0.00331439
-0.000106503
0.00333803
-9.43374e-05
0.00336021
-8.85542e-05
0.00337805
-6.78814e-05
0.00339442
-6.34203e-05
0.00340734
-4.49578e-05
0.00341791
-3.58565e-05
0.00342647
-2.54654e-05
0.00343235
-1.36561e-05
0.00343732
-9.95536e-06
0.00343982
2.53772e-06
0.00344142
5.62627e-06
0.00344137
1.40244e-05
0.00344038
1.77376e-05
0.0034384
2.26376e-05
0.00343546
2.67623e-05
0.0034319
2.97766e-05
0.00342746
3.3916e-05
0.00342265
3.57483e-05
0.00341701
3.99566e-05
0.00341107
4.13633e-05
0.00340437
4.54235e-05
0.00339749
4.62879e-05
0.00338947
5.252e-05
0.00338877
-1.08637e-05
0.00339422
-4.42337e-05
0.00339675
-8.82873e-06
0.00339659
6.7998e-06
0.00339542
1.11126e-05
0.00339385
1.26231e-05
0.00339223
1.27149e-05
0.00339051
1.29441e-05
0.00338882
1.27319e-05
0.00338711
1.25358e-05
0.00338548
1.21351e-05
0.00338386
1.17714e-05
0.00338229
1.16109e-05
0.00338072
1.13156e-05
0.00337922
1.09777e-05
0.00337769
1.07925e-05
0.00337629
1.02182e-05
0.00337485
1.00685e-05
0.00337358
9.34652e-06
0.00337223
9.41695e-06
0.00337039
1.18018e-05
0.00336744
1.66138e-05
0.00336393
1.91348e-05
0.00335957
2.27416e-05
0.00335464
2.52586e-05
0.00334875
2.95521e-05
0.00334197
3.32898e-05
0.00333425
3.75867e-05
0.00332457
4.71818e-05
0.00331397
4.9692e-05
0.00330138
6.03102e-05
0.00328604
7.19453e-05
0.00326863
8.13646e-05
0.00324807
9.49332e-05
0.00322325
0.00011652
0.00319225
0.000142652
0.0031568
0.000164583
0.00310574
0.000234167
0.00307419
0.000141854
0.00270048
0.00256303
-0.00634243
0.00367563
0.00708138
0.00305626
-0.00740227
0.00575036
0.00719475
0.00448245
0.00606819
0.00394972
0.00246463
0.00373676
0.000955207
0.0036431
0.000460399
0.00361735
0.000143261
0.00362891
-3.10205e-05
0.00366173
-0.000127414
0.00370773
-0.000187109
0.00376207
-0.000220561
0.00381669
-0.000219249
0.00387449
-0.000230339
0.00392577
-0.000197213
0.00397737
-0.00020534
0.00402073
-0.000166722
0.00406033
-0.000160555
0.00409551
-0.000141688
0.00412597
-0.000124791
0.00415449
-0.000117081
0.00417766
-9.10526e-05
0.00419888
-8.46382e-05
0.00421592
-6.19956e-05
0.00423
-4.99406e-05
0.00424161
-3.70741e-05
0.00424988
-2.19304e-05
0.004257
-1.70667e-05
0.0042611
-1.56623e-06
0.00426404
2.6801e-06
0.00426497
1.30975e-05
0.0042647
1.8007e-05
0.00426321
2.41312e-05
0.00426052
2.94429e-05
0.00425709
3.32098e-05
0.00425258
3.84275e-05
0.00424762
4.07054e-05
0.00424166
4.59148e-05
0.00423537
4.76547e-05
0.00422818
5.26127e-05
0.00422079
5.36751e-05
0.00421212
6.1182e-05
0.00421063
-9.36861e-06
0.00421606
-4.96661e-05
0.00421918
-1.19483e-05
0.00421942
6.55007e-06
0.00421843
1.21085e-05
0.00421693
1.41204e-05
0.00421533
1.43137e-05
0.00421362
1.46557e-05
0.00421191
1.44329e-05
0.00421019
1.42553e-05
0.00420855
1.37774e-05
0.00420692
1.3401e-05
0.00420534
1.31898e-05
0.00420373
1.29189e-05
0.00420222
1.24829e-05
0.00420066
1.23591e-05
0.00419926
1.1616e-05
0.00419779
1.1538e-05
0.00419652
1.06115e-05
0.00419514
1.07924e-05
0.00419317
1.37704e-05
0.00418983
1.99544e-05
0.00418577
2.31871e-05
0.00418067
2.78439e-05
0.00417483
3.10974e-05
0.00416782
3.65558e-05
0.00415967
4.14389e-05
0.00415038
4.68687e-05
0.00413869
5.88689e-05
0.00412578
6.25971e-05
0.00411046
7.56348e-05
0.00409176
9.06295e-05
0.00407042
0.000102714
0.0040452
0.000120135
0.00401478
0.000146951
0.00397674
0.000180666
0.00393312
0.000208227
0.00387044
0.000296804
0.00383024
0.000182099
0.00341762
0.00297554
-0.00742615
0.00450151
0.00860163
0.00335169
-0.00889705
0.00706281
0.00873356
0.00552736
0.00760364
0.00487266
0.00311933
0.00460357
0.0012243
0.00448633
0.000577639
0.00445408
0.000175514
0.00446811
-4.50528e-05
0.00450861
-0.000167907
0.00456554
-0.000244043
0.00463304
-0.000288062
0.0047011
-0.000287306
0.00477336
-0.000302598
0.00483796
-0.000261819
0.00490322
-0.000270599
0.00495871
-0.000222208
0.00500938
-0.00021123
0.00505449
-0.000186797
0.00509354
-0.000163836
0.00513005
-0.000153595
0.00515996
-0.000120962
0.00518732
-0.000111998
0.0052096
-8.42766e-05
0.00522817
-6.85105e-05
0.0052437
-5.26063e-05
0.0052551
-3.33318e-05
0.00526501
-2.69719e-05
0.00527125
-7.80947e-06
0.00527601
-2.07451e-06
0.00527829
1.08132e-05
0.00527906
1.72359e-05
0.00527832
2.48684e-05
0.00527611
3.16532e-05
0.00527298
3.63479e-05
0.00526852
4.2879e-05
0.00526353
4.56964e-05
0.00525735
5.21009e-05
0.00525077
5.42308e-05
0.00524315
6.02342e-05
0.0052353
6.15173e-05
0.00522604
7.04491e-05
0.00522367
-7.00291e-06
0.00522899
-5.49843e-05
0.00523274
-1.57036e-05
0.00523353
5.76197e-06
0.00523283
1.28086e-05
0.00523149
1.54623e-05
0.00523
1.58029e-05
0.00522836
1.62982e-05
0.00522672
1.60691e-05
0.00522504
1.59326e-05
0.00522345
1.53641e-05
0.00522186
1.49905e-05
0.00522034
1.47165e-05
0.00521876
1.44958e-05
0.0052173
1.39421e-05
0.00521575
1.39088e-05
0.0052144
1.29624e-05
0.00521295
1.29918e-05
0.00521175
1.18148e-05
0.00521039
1.21451e-05
0.00520832
1.58463e-05
0.00520455
2.37199e-05
0.0051999
2.78434e-05
0.00519393
3.38092e-05
0.00518703
3.79939e-05
0.00517871
4.48818e-05
0.00516893
5.12165e-05
0.00515777
5.80247e-05
0.00514368
7.29591e-05
0.00512799
7.82904e-05
0.00510938
9.42454e-05
0.00508663
0.000113383
0.00506053
0.000128816
0.00502967
0.00015099
0.00499246
0.00018417
0.00494589
0.000227239
0.00489234
0.000261789
0.00481563
0.000373499
0.00476413
0.000233613
0.00431599
0.00342364
-0.00861735
0.00550716
0.0104326
0.00360023
-0.0106812
0.00866542
0.0105008
0.00681394
0.00945512
0.00601268
0.00392059
0.00567249
0.00156449
0.00552488
0.000725246
0.00548391
0.000216483
0.00550044
-6.15802e-05
0.00554991
-0.000217375
0.00561987
-0.000314003
0.00570316
-0.000371361
0.0057874
-0.000371543
0.00587714
-0.000392334
0.00595787
-0.000342555
0.00603978
-0.000352508
0.00611014
-0.000292571
0.00617455
-0.000275634
0.00623202
-0.000244267
0.00628182
-0.000213636
0.00632833
-0.00020011
0.00636672
-0.000159352
0.00640182
-0.000147096
0.00643073
-0.000113188
0.00645501
-9.2795e-05
0.00647555
-7.31427e-05
0.00649099
-4.87694e-05
0.00650451
-4.04994e-05
0.00651357
-1.68627e-05
0.00652073
-9.2399e-06
0.00652486
6.68461e-06
0.00652709
1.50039e-05
0.00652746
2.45025e-05
0.006526
3.31086e-05
0.0065234
3.89486e-05
0.0065192
4.70796e-05
0.00651434
5.05525e-05
0.00650806
5.83825e-05
0.00650131
6.09714e-05
0.00649335
6.81951e-05
0.00648514
6.97248e-05
0.00647536
8.02307e-05
0.00647208
-3.72266e-06
0.00647717
-6.00802e-05
0.00648159
-2.01263e-05
0.00648307
4.28116e-06
0.00648282
1.30608e-05
0.00648176
1.65188e-05
0.00648049
1.70718e-05
0.00647902
1.77686e-05
0.00647755
1.75424e-05
0.006476
1.74741e-05
0.00647456
1.68018e-05
0.0064731
1.64516e-05
0.00647172
1.61e-05
0.00647024
1.59662e-05
0.00646892
1.52671e-05
0.00646746
1.53672e-05
0.00646625
1.41724e-05
0.00646488
1.43553e-05
0.00646382
1.28764e-05
0.00646256
1.34023e-05
0.00646042
1.79805e-05
0.00645622
2.79228e-05
0.0064509
3.31625e-05
0.00644395
4.07492e-05
0.00643583
4.61101e-05
0.00642596
5.47473e-05
0.00641427
6.29122e-05
0.00640089
7.13948e-05
0.00638393
8.99147e-05
0.00636491
9.73101e-05
0.00634235
0.000116804
0.00631471
0.000141009
0.00628287
0.000160657
0.00624519
0.00018866
0.00619977
0.000229596
0.00614287
0.000284119
0.00607729
0.00032739
0.00598369
0.000467065
0.00591734
0.000299991
0.00544545
0.00389544
-0.00990675
0.00673505
0.0126395
0.00377108
-0.0128104
0.0106234
0.0125169
0.00839898
0.0116795
0.00742257
0.004897
0.00699246
0.0019946
0.00680552
0.000912186
0.00675273
0.000269269
0.00677154
-8.03845e-05
0.00683136
-0.000277202
0.00691672
-0.000399365
0.0070189
-0.000473536
0.00712253
-0.000475171
0.00723332
-0.000503122
0.00733349
-0.000442731
0.0074356
-0.000454619
0.00752411
-0.000381077
0.0076054
-0.000356928
0.00767816
-0.000317028
0.00774133
-0.000276806
0.00780031
-0.000259082
0.00784929
-0.000208338
0.00789409
-0.000191891
0.00793134
-0.000150437
0.00796284
-0.000124297
0.00798973
-0.00010003
0.00801033
-6.93745e-05
0.00802851
-5.86749e-05
0.00804121
-2.9572e-05
0.00805154
-1.9567e-05
0.00805814
8.95081e-08
0.00806236
1.07784e-05
0.00806428
2.25839e-05
0.00806395
3.34414e-05
0.0080622
4.0694e-05
0.00805851
5.07757e-05
0.00805401
5.50445e-05
0.00804782
6.45802e-05
0.00804108
6.77038e-05
0.00803292
7.63542e-05
0.00802449
7.81576e-05
0.00801433
9.03857e-05
0.00801014
4.72713e-07
0.00801489
-6.48352e-05
0.00801998
-2.52119e-05
0.00802231
1.94561e-06
0.0080227
1.26735e-05
0.00802209
1.7128e-05
0.00802119
1.79708e-05
0.00802003
1.8933e-05
0.00801885
1.87236e-05
0.00801756
1.87575e-05
0.0080164
1.79678e-05
0.00801518
1.76678e-05
0.00801406
1.72206e-05
0.0080128
1.7221e-05
0.00801173
1.63422e-05
0.00801046
1.66307e-05
0.0080095
1.51359e-05
0.00800832
1.5531e-05
0.00800751
1.36887e-05
0.00800644
1.44696e-05
0.00800432
2.01053e-05
0.00799967
3.25755e-05
0.00799363
3.9202e-05
0.00798557
4.88017e-05
0.00797605
5.56342e-05
0.00796438
6.64171e-05
0.00795042
7.68723e-05
0.00793442
8.73997e-05
0.00791405
0.000110282
0.00789105
0.000120315
0.00786375
0.000144104
0.00783025
0.000174512
0.0077915
0.000199404
0.00774559
0.000234571
0.00769025
0.000284939
0.00762089
0.000353483
0.00754074
0.000407546
0.00742687
0.000580936
0.00734097
0.000385888
0.00687126
0.00436512
-0.0112799
0.00824439
0.0153019
0.0038196
-0.0153504
0.0130173
0.0148016
0.0103529
0.0143439
0.00916841
0.0060815
0.00862486
0.00253815
0.00838675
0.00115029
0.00831782
0.000338202
0.00833826
-0.000100826
0.00840986
-0.000348799
0.00851328
-0.000502787
0.00863788
-0.000598134
0.00876463
-0.000601921