/*--------------------------------*- C++ -*----------------------------------*\
| =========                 |                                                 |
| \\      /  F ield         | OpenFOAM: The Open Source CFD Toolbox           |
|  \\    /   O peration     | Version:  5.x                                   |
|   \\  /    A nd           | Web:      www.OpenFOAM.org                      |
|    \\/     M anipulation  |                                                 |
\*---------------------------------------------------------------------------*/
FoamFile
{
    version     2.0;
    format      ascii;
    class       volScalarField;
    location    "650";
    object      nut;
}
// * * * * * * * * * * * * * * * * * * * * * * * * * * * * * * * * * * * * * //

dimensions      [0 2 -1 0 0 0 0];

internalField   nonuniform List<scalar> 
11040
(
0.00332941
0.0039094
0.00420023
0.00424547
0.00406821
0.00380357
0.00357732
0.00338119
0.00317797
0.00294506
0.00265447
0.00237989
0.00216561
0.00199922
0.00182993
0.00164691
0.00143841
0.0010842
0.000776894
0.000632508
0.000547326
0.000466541
0.000404005
0.000440538
0.000541691
0.00054618
0.000498464
0.000433697
0.000416459
0.000415031
0.000422503
0.000438617
0.000463991
0.000497088
0.000532576
0.000557212
0.000541235
0.000458269
0.000441516
0.000527479
0.00089167
0.00771748
0.008242
0.00749552
0.00672137
0.00599137
0.00536181
0.00528616
0.00531951
0.00528434
0.00514309
0.00495206
0.00480204
0.00469512
0.00457369
0.00439338
0.00418984
0.00398188
0.00373792
0.00347769
0.00327224
0.00298126
0.00256955
0.00215259
0.00192704
0.0017005
0.00148594
0.00132015
0.00116639
0.00105974
0.000980466
0.000937431
0.000931959
0.000969552
0.00105361
0.00118706
0.0013702
0.00158922
0.00182154
0.00211725
0.00273712
0.00433437
0.0157419
0.0165418
0.0154626
0.0141354
0.0126556
0.0111912
0.00987797
0.0087515
0.00781789
0.00699404
0.00649435
0.0063201
0.00626127
0.00625582
0.00622497
0.00615136
0.00603679
0.0058826
0.00569961
0.00552145
0.00532052
0.0051183
0.0048936
0.00454289
0.00401917
0.00351731
0.00316118
0.00283844
0.00260539
0.00242278
0.0023034
0.00226896
0.00233565
0.00251441
0.00280846
0.00321274
0.0037036
0.0042428
0.00485062
0.00594843
0.00888792
0.0249221
0.0257888
0.0246122
0.0228875
0.0208851
0.0188207
0.0168216
0.0149366
0.0132072
0.0116129
0.0101144
0.00888073
0.00821133
0.00796769
0.00786116
0.00780136
0.00774577
0.00766984
0.00756423
0.00744482
0.00733146
0.00727655
0.00725321
0.00717028
0.00694796
0.00653343
0.00594
0.00535534
0.00493432
0.0046012
0.00436781
0.00427305
0.00434923
0.00462251
0.00510328
0.00578301
0.00661498
0.00753685
0.00854648
0.010188
0.0143307
0.0349318
0.0357491
0.034573
0.0326166
0.0302358
0.0276744
0.0250946
0.0225371
0.020104
0.0178088
0.0155465
0.0135085
0.011915
0.0106999
0.0100645
0.00970364
0.00948221
0.00933398
0.00921943
0.00912665
0.00907696
0.00913136
0.00928989
0.00948714
0.00960971
0.00955812
0.00929182
0.00885083
0.00830846
0.00777746
0.00737555
0.00717338
0.00722421
0.00757743
0.00825697
0.00925671
0.0104869
0.0118501
0.0132924
0.0154444
0.0204283
0.0453877
0.0461089
0.0449963
0.0429722
0.0403925
0.0374385
0.0343178
0.0311828
0.0281428
0.0252187
0.0222891
0.0195576
0.0172458
0.0153339
0.0137327
0.0124989
0.0118203
0.0113565
0.0110136
0.010772
0.0106559
0.0107205
0.0109825
0.0114142
0.0118947
0.0122675
0.012425
0.0123493
0.0120869
0.011719
0.011358
0.0111425
0.0112116
0.0116522
0.0125172
0.0138558
0.0155145
0.0173508
0.0191933
0.0217225
0.0270585
0.0559764
0.0565642
0.055548
0.0535888
0.050955
0.0478404
0.0444517
0.0409416
0.0374407
0.0339892
0.0304701
0.027101
0.0241401
0.0216051
0.0193203
0.0172623
0.0154725
0.0143364
0.0135103
0.0128604
0.0124065
0.0122415
0.0124
0.0128921
0.0136414
0.0144574
0.0151338
0.0155542
0.0157145
0.0156822
0.0155752
0.0155662
0.0158749
0.0166875
0.0180637
0.0198933
0.0219731
0.0242801
0.0264062
0.0291001
0.0340994
0.0663469
0.0668142
0.0659177
0.0641142
0.061588
0.0585351
0.0551253
0.0514856
0.0477436
0.0439489
0.0399953
0.0361039
0.0325667
0.0294416
0.026564
0.0238834
0.0213548
0.0190646
0.0174143
0.0160918
0.0149966
0.0142668
0.0139747
0.0141496
0.0148242
0.0158862
0.0170794
0.018131
0.0188953
0.0193731
0.0196651
0.0199636
0.0205588
0.0217673
0.0237963
0.026617
0.0298784
0.0329535
0.0351657
0.0377248
0.041714
0.0762588
0.0766097
0.0758327
0.0742342
0.071938
0.0691116
0.0658839
0.0623452
0.058603
0.0546981
0.0505335
0.0463136
0.0423429
0.0387173
0.0353137
0.0320954
0.0290223
0.0260308
0.0233293
0.0211422
0.0192297
0.0177045
0.0166415
0.0160428
0.0160567
0.0167528
0.0180328
0.0196085
0.0211257
0.0223575
0.0232826
0.0240526
0.0249717
0.0264636
0.0289222
0.0324758
0.0368815
0.0415395
0.0454829
0.0478467
0.0505611
0.08547
0.0857221
0.0850621
0.0836896
0.0816884
0.0791904
0.0762861
0.0730295
0.0695003
0.0657004
0.0615577
0.0572434
0.053046
0.0490927
0.0453219
0.0416879
0.0381726
0.0347278
0.0313448
0.0283136
0.0255974
0.0232886
0.0213977
0.0198212
0.0187372
0.0183419
0.0187723
0.020011
0.0218268
0.023833
0.0256763
0.027237
0.0286954
0.0304809
0.0331406
0.0370593
0.0422014
0.0480859
0.0538737
0.0585276
0.0612403
0.0938211
0.0939967
0.0934464
0.0922977
0.0906091
0.0884807
0.0859737
0.083099
0.0799126
0.0764292
0.0725609
0.0684269
0.0642702
0.0602175
0.0562347
0.0523352
0.0485172
0.0447684
0.0410099
0.0373742
0.0340349
0.0311443
0.0286385
0.0262737
0.0241572
0.0224697
0.0214322
0.0212481
0.0220189
0.0236634
0.0258996
0.0283424
0.0307167
0.0330905
0.0359335
0.0398542
0.0451676
0.0516707
0.0586725
0.0651685
0.0701587
0.101235
0.101355
0.100902
0.0999572
0.0985651
0.0968012
0.0947068
0.0922698
0.0895319
0.086495
0.0830755
0.0793458
0.075487
0.0716014
0.067668
0.0637192
0.0597742
0.0558398
0.0518904
0.0478933
0.0440844
0.0408369
0.0380007
0.0352238
0.0325143
0.0299511
0.0276795
0.0259042
0.0248545
0.0247251
0.0256027
0.0274112
0.0299218
0.0328734
0.0361901
0.04013
0.0451579
0.0515435
0.0589892
0.0666538
0.0734659
0.107707
0.107784
0.107408
0.106639
0.105509
0.104076
0.102368
0.100366
0.0981003
0.0955651
0.0926853
0.0894974
0.0861107
0.0826062
0.0789723
0.0752475
0.0714386
0.0675573
0.0636068
0.059562
0.055438
0.051788
0.0487452
0.0458453
0.0429845
0.0401337
0.0373256
0.0346511
0.0322599
0.0303501
0.0291372
0.028806
0.0294584
0.0310861
0.0336154
0.0370084
0.0413822
0.0470039
0.0539782
0.0619094
0.0699345
0.113272
0.11331
0.112996
0.112373
0.111465
0.110316
0.108946
0.107337
0.105512
0.103462
0.101126
0.0985041
0.0956839
0.0927069
0.0895554
0.086251
0.0828078
0.0792444
0.075549
0.0717151
0.0677222
0.0640046
0.0606753
0.0575572
0.0546591
0.0518422
0.04903
0.0462049
0.0433978
0.0406869
0.0381984
0.0360989
0.0345727
0.0337878
0.03387
0.034901
0.0369514
0.0401682
0.0447617
0.050857
0.0582956
0.11798
0.117995
0.117735
0.117233
0.11651
0.115597
0.11451
0.113234
0.111787
0.110164
0.108305
0.106224
0.10397
0.101561
0.0989748
0.0962188
0.093298
0.0902166
0.0869747
0.0835682
0.079991
0.0765987
0.0734583
0.0703357
0.06727
0.0643507
0.0616163
0.0589535
0.0562912
0.0536071
0.0509164
0.0482699
0.0457556
0.043491
0.0416082
0.0402514
0.039549
0.0396199
0.0406154
0.0427142
0.0462198
0.121946
0.121944
0.121727
0.12132
0.120753
0.120027
0.119165
0.118158
0.117022
0.115752
0.114304
0.112686
0.110931
0.109045
0.107
0.104802
0.10246
0.09996
0.0972953
0.0944595
0.091444
0.0885534
0.0858518
0.0831175
0.0803555
0.0775897
0.0748561
0.0721692
0.0695929
0.0671264
0.0646979
0.0622676
0.0598227
0.0573799
0.0549745
0.0526794
0.0505859
0.0487743
0.0473454
0.0464126
0.0461196
0.125272
0.125256
0.125073
0.124743
0.124288
0.123711
0.12303
0.122241
0.121354
0.120366
0.119248
0.118006
0.116661
0.115208
0.113636
0.111944
0.110129
0.108185
0.106111
0.103889
0.101506
0.0991966
0.0970187
0.0948039
0.0925524
0.0902637
0.0879421
0.0855963
0.0832465
0.0809137
0.0786056
0.0763248
0.074094
0.0719161
0.069764
0.0676223
0.0654927
0.0633777
0.0613095
0.0593499
0.0574374
0.127923
0.127903
0.127748
0.127479
0.127111
0.126648
0.126104
0.125482
0.124778
0.123998
0.123122
0.122157
0.121118
0.119998
0.118792
0.117497
0.116111
0.114626
0.113038
0.111338
0.109516
0.107741
0.106057
0.104341
0.102595
0.100818
0.0990094
0.097172
0.0953029
0.0934051
0.0914851
0.0895499
0.0876094
0.0856714
0.0837326
0.0817951
0.0798597
0.0779089
0.0759429
0.0740625
0.0721166
0.129963
0.129938
0.129808
0.129584
0.12928
0.128907
0.128462
0.127956
0.127387
0.126759
0.126064
0.125297
0.124475
0.123593
0.122648
0.121639
0.120564
0.119418
0.118196
0.116892
0.1155
0.114141
0.112849
0.111535
0.1102
0.108844
0.107466
0.106067
0.104646
0.1032
0.101733
0.100243
0.0987286
0.0971928
0.0956314
0.0940497
0.0924536
0.090832
0.0891808
0.0875183
0.085774
0.131561
0.131535
0.131424
0.131236
0.130982
0.13067
0.1303
0.129881
0.129416
0.128901
0.128334
0.127712
0.127048
0.126344
0.12559
0.124787
0.123936
0.123034
0.122078
0.121063
0.119985
0.118934
0.117935
0.116923
0.115898
0.11486
0.11381
0.112747
0.111671
0.110582
0.109478
0.108359
0.107223
0.106073
0.104899
0.103704
0.10249
0.101249
0.0999788
0.0986832
0.0973201
0.132844
0.13282
0.132725
0.132565
0.132349
0.132084
0.131776
0.131423
0.131033
0.130603
0.130131
0.129622
0.129077
0.128502
0.127888
0.127239
0.126554
0.125832
0.125071
0.124269
0.123422
0.122596
0.121814
0.121023
0.120226
0.119424
0.118612
0.117794
0.116973
0.116145
0.115311
0.114469
0.113619
0.112761
0.11189
0.111005
0.110108
0.109192
0.108255
0.107298
0.106301
0.133894
0.133874
0.133792
0.133655
0.133469
0.133242
0.132978
0.13268
0.132349
0.131987
0.131591
0.131164
0.13071
0.130231
0.129727
0.129195
0.128635
0.128049
0.127434
0.126789
0.126114
0.125456
0.124833
0.124208
0.123577
0.122947
0.122312
0.121675
0.121037
0.120399
0.119761
0.119119
0.118475
0.117828
0.117175
0.116515
0.115849
0.115172
0.114483
0.113782
0.113061
0.13477
0.134752
0.134682
0.134563
0.134402
0.134205
0.133976
0.133719
0.133437
0.133128
0.132792
0.13243
0.132049
0.131647
0.131225
0.130784
0.130324
0.129841
0.129337
0.128812
0.128266
0.127734
0.127232
0.126729
0.126225
0.125723
0.12522
0.124716
0.124214
0.123713
0.123216
0.122722
0.122228
0.121733
0.121236
0.120736
0.120234
0.119727
0.119214
0.118694
0.118167
0.135509
0.135494
0.135432
0.135329
0.135188
0.135016
0.134817
0.134593
0.134349
0.134081
0.133793
0.133483
0.133158
0.132819
0.132462
0.132091
0.131706
0.131307
0.130892
0.130461
0.130013
0.129579
0.129169
0.12876
0.128353
0.127949
0.127545
0.127142
0.126742
0.126344
0.12595
0.12556
0.125174
0.124791
0.124407
0.124023
0.12364
0.123255
0.122867
0.122478
0.122087
0.13614
0.136127
0.136073
0.135982
0.135859
0.135708
0.135534
0.135338
0.135124
0.134893
0.134643
0.134378
0.134097
0.133806
0.133503
0.13319
0.132864
0.132527
0.13218
0.131822
0.131455
0.131096
0.130757
0.130421
0.130088
0.129757
0.129429
0.129103
0.128781
0.128462
0.128147
0.127836
0.127529
0.127226
0.126926
0.126628
0.126333
0.126037
0.125741
0.125445
0.125151
0.136683
0.136672
0.136625
0.136545
0.136437
0.136305
0.136151
0.13598
0.135791
0.135589
0.135372
0.135141
0.1349
0.134648
0.134387
0.134118
0.133842
0.133558
0.133264
0.132963
0.132656
0.132358
0.132077
0.131798
0.131523
0.13125
0.13098
0.130714
0.130452
0.130193
0.129939
0.129688
0.129442
0.1292
0.128961
0.128725
0.128493
0.128264
0.128035
0.127808
0.127585
0.137155
0.137145
0.137104
0.137035
0.13694
0.136824
0.136688
0.136537
0.136371
0.136192
0.136002
0.135801
0.13559
0.135373
0.135148
0.134917
0.134679
0.134436
0.134187
0.133933
0.133674
0.133423
0.133187
0.132954
0.132724
0.132497
0.132274
0.132054
0.131838
0.131627
0.131419
0.131215
0.131016
0.130821
0.130629
0.13044
0.130255
0.130073
0.129893
0.129715
0.129544
0.137566
0.137559
0.137524
0.137464
0.137381
0.137278
0.137159
0.137025
0.136878
0.13672
0.136552
0.136374
0.136191
0.136001
0.135807
0.135606
0.135401
0.135193
0.13498
0.134763
0.134544
0.134332
0.134132
0.133935
0.133741
0.133551
0.133364
0.133181
0.133002
0.132827
0.132656
0.13249
0.132327
0.132168
0.132012
0.13186
0.131712
0.131566
0.131422
0.131282
0.131147
0.137927
0.137923
0.137894
0.137842
0.13777
0.13768
0.137574
0.137455
0.137324
0.137184
0.137035
0.136878
0.136716
0.136549
0.136378
0.136204
0.136027
0.135846
0.135663
0.135478
0.135291
0.13511
0.134939
0.134772
0.134608
0.134447
0.13429
0.134137
0.133987
0.133842
0.1337
0.133563
0.133429
0.133299
0.133172
0.133048
0.132928
0.13281
0.132695
0.132583
0.132476
0.138247
0.138245
0.138223
0.138178
0.138115
0.138035
0.137941
0.137835
0.137719
0.137594
0.137461
0.137322
0.137178
0.137031
0.13688
0.136727
0.136571
0.136415
0.136257
0.136097
0.135938
0.135782
0.135636
0.135493
0.135353
0.135216
0.135083
0.134954
0.134828
0.134707
0.134588
0.134474
0.134363
0.134256
0.134152
0.13405
0.133953
0.133857
0.133764
0.133674
0.133589
0.138531
0.138533
0.138515
0.138478
0.138423
0.138352
0.138268
0.138173
0.138069
0.137958
0.137839
0.137716
0.137588
0.137457
0.137324
0.137188
0.137052
0.136915
0.136777
0.136639
0.136502
0.136368
0.136241
0.136118
0.135998
0.135882
0.135768
0.135659
0.135552
0.13545
0.135351
0.135255
0.135163
0.135073
0.134987
0.134904
0.134824
0.134746
0.13467
0.134597
0.134529
0.138784
0.13879
0.138778
0.138746
0.138698
0.138635
0.13856
0.138475
0.138382
0.138282
0.138177
0.138066
0.137953
0.137837
0.137718
0.137599
0.137478
0.137358
0.137237
0.137116
0.136997
0.136881
0.136772
0.136665
0.136562
0.136461
0.136364
0.136271
0.136181
0.136094
0.13601
0.135929
0.135852
0.135778
0.135706
0.135637
0.135571
0.135507
0.135445
0.135386
0.135331
0.139011
0.139022
0.139014
0.138987
0.138944
0.138887
0.138821
0.138745
0.138663
0.138574
0.13848
0.138382
0.138281
0.138178
0.138073
0.137967
0.13786
0.137754
0.137648
0.137542
0.137438
0.137337
0.137241
0.137149
0.137059
0.136973
0.136889
0.136809
0.136732
0.136657
0.136586
0.136518
0.136453
0.136391
0.136331
0.136273
0.136218
0.136166
0.136115
0.136066
0.136022
0.139216
0.13923
0.139225
0.139202
0.139164
0.139115
0.139057
0.13899
0.138918
0.13884
0.138757
0.13867
0.13858
0.138488
0.138395
0.138301
0.138207
0.138113
0.138019
0.137926
0.137835
0.137747
0.137663
0.137582
0.137504
0.137429
0.137357
0.137287
0.137221
0.137158
0.137097
0.137039
0.136984
0.136931
0.136881
0.136833
0.136787
0.136743
0.136701
0.136661
0.136625
0.139402
0.139419
0.139416
0.139396
0.139363
0.139322
0.139272
0.139216
0.139153
0.139085
0.139013
0.138936
0.138857
0.138776
0.138693
0.13861
0.138526
0.138443
0.13836
0.138278
0.138198
0.13812
0.138047
0.137976
0.137908
0.137842
0.137779
0.137719
0.137662
0.137607
0.137555
0.137506
0.137458
0.137414
0.137371
0.137331
0.137292
0.137256
0.137221
0.137188
0.137158
0.13957
0.139588
0.139586
0.13957
0.139545
0.139513
0.139473
0.139427
0.139375
0.139317
0.139255
0.139188
0.139119
0.139048
0.138974
0.138901
0.138826
0.138753
0.138679
0.138607
0.138537
0.138468
0.138403
0.13834
0.13828
0.138223
0.138168
0.138116
0.138066
0.138018
0.137973
0.137931
0.13789
0.137852
0.137816
0.137782
0.13775
0.137719
0.13769
0.137663
0.137639
0.139721
0.139739
0.139739
0.139729
0.139713
0.139691
0.139663
0.139628
0.139587
0.139541
0.13949
0.139434
0.139374
0.139312
0.139249
0.139183
0.139118
0.139052
0.138987
0.138923
0.138861
0.1388
0.138743
0.138687
0.138634
0.138583
0.138535
0.138489
0.138445
0.138404
0.138365
0.138328
0.138293
0.138261
0.13823
0.138201
0.138174
0.138149
0.138125
0.138103
0.138084
0.139856
0.139871
0.139873
0.139871
0.139865
0.139855
0.139839
0.139817
0.13979
0.139757
0.13972
0.139678
0.139632
0.139583
0.139531
0.139477
0.139421
0.139365
0.139309
0.139253
0.139199
0.139147
0.139096
0.139047
0.139
0.138956
0.138914
0.138874
0.138836
0.138801
0.138769
0.138739
0.138711
0.138686
0.138662
0.138641
0.138622
0.138605
0.13859
0.138577
0.138567
0.139961
0.139974
0.139979
0.139982
0.139983
0.13998
0.139974
0.139965
0.139953
0.139937
0.139919
0.139897
0.139873
0.139846
0.139817
0.139786
0.139753
0.139718
0.139682
0.139646
0.13961
0.139573
0.139537
0.139502
0.139468
0.139435
0.139404
0.139374
0.139347
0.139321
0.139298
0.139276
0.139257
0.139239
0.139224
0.13921
0.139198
0.139188
0.139179
0.139171
0.139167
0.140018
0.140027
0.140033
0.140037
0.140039
0.14004
0.140039
0.140037
0.140032
0.140026
0.140019
0.140009
0.139999
0.139986
0.139973
0.139959
0.139943
0.139927
0.13991
0.139893
0.139875
0.139857
0.139839
0.139822
0.139804
0.139786
0.139769
0.139753
0.139738
0.139724
0.13971
0.139698
0.139687
0.139677
0.139668
0.13966
0.139653
0.139647
0.139643
0.139639
0.139637
0.140047
0.140054
0.14006
0.140066
0.14007
0.140073
0.140075
0.140076
0.140076
0.140075
0.140074
0.140071
0.140067
0.140062
0.140056
0.14005
0.140043
0.140036
0.140029
0.140021
0.140013
0.140005
0.139997
0.139989
0.139982
0.139974
0.139966
0.139959
0.139952
0.139946
0.13994
0.139934
0.139929
0.139925
0.139921
0.139917
0.139914
0.139911
0.139909
0.139907
0.139907
0.140061
0.140068
0.140074
0.14008
0.140085
0.14009
0.140094
0.140098
0.140101
0.140104
0.140106
0.140107
0.140107
0.140107
0.140106
0.140105
0.140103
0.140101
0.140098
0.140095
0.140092
0.140089
0.140086
0.140083
0.14008
0.140076
0.140073
0.14007
0.140068
0.140065
0.140063
0.14006
0.140059
0.140057
0.140055
0.140054
0.140053
0.140052
0.140052
0.140051
0.140052
0.140066
0.140073
0.140079
0.140085
0.140091
0.140097
0.140103
0.140109
0.140114
0.140119
0.140124
0.140128
0.140131
0.140134
0.140137
0.140139
0.14014
0.140141
0.140142
0.140142
0.140143
0.140143
0.140142
0.140142
0.140141
0.140141
0.14014
0.140139
0.140139
0.140138
0.140138
0.140137
0.140137
0.140137
0.140137
0.140137
0.140137
0.140137
0.140137
0.140138
0.140139
0.140065
0.140071
0.140077
0.140083
0.140089
0.140096
0.140103
0.14011
0.140117
0.140124
0.14013
0.140137
0.140142
0.140148
0.140153
0.140157
0.140162
0.140165
0.140168
0.140171
0.140174
0.140176
0.140178
0.14018
0.140181
0.140183
0.140184
0.140185
0.140186
0.140187
0.140187
0.140188
0.140189
0.14019
0.140191
0.140191
0.140192
0.140193
0.140194
0.140195
0.140196
0.140058
0.140064
0.140069
0.140074
0.140081
0.140088
0.140095
0.140103
0.140111
0.140119
0.140127
0.140134
0.140142
0.140149
0.140156
0.140163
0.140169
0.140175
0.14018
0.140185
0.14019
0.140194
0.140198
0.140201
0.140204
0.140207
0.14021
0.140212
0.140214
0.140217
0.140218
0.14022
0.140222
0.140223
0.140225
0.140226
0.140228
0.140229
0.14023
0.140232
0.140233
0.140047
0.140051
0.140055
0.14006
0.140066
0.140072
0.140079
0.140087
0.140095
0.140103
0.140112
0.14012
0.140129
0.140138
0.140146
0.140154
0.140162
0.14017
0.140177
0.140184
0.14019
0.140196
0.140201
0.140206
0.140211
0.140215
0.140219
0.140222
0.140226
0.140229
0.140232
0.140234
0.140237
0.140239
0.140241
0.140243
0.140245
0.140246
0.140248
0.14025
0.140251
0.140031
0.140034
0.140037
0.140041
0.140045
0.14005
0.140055
0.140061
0.140068
0.140075
0.140083
0.140091
0.140099
0.140108
0.140117
0.140126
0.140134
0.140143
0.140151
0.14016
0.140168
0.140176
0.140183
0.14019
0.140197
0.140204
0.14021
0.140216
0.140221
0.140226
0.140231
0.140235
0.140239
0.140243
0.140246
0.14025
0.140253
0.140256
0.140258
0.140261
0.140263
0.140011
0.140012
0.140013
0.140015
0.140017
0.140019
0.140021
0.140024
0.140027
0.140031
0.140035
0.140039
0.140044
0.140049
0.140055
0.140061
0.140065
0.140068
0.14007
0.140074
0.140077
0.140081
0.140085
0.14009
0.140094
0.140099
0.140103
0.140108
0.140112
0.140116
0.14012
0.140124
0.140127
0.140131
0.140134
0.140137
0.14014
0.140143
0.140145
0.140148
0.14015
0.00615333
0.00821771
0.00901698
0.0102395
0.0126585
0.0160561
0.0200118
0.0242692
0.0286714
0.0331275
0.0375829
0.0420006
0.0463532
0.0506202
0.0547871
0.0588446
0.0627862
0.066608
0.0703078
0.0738842
0.0773368
0.0806652
0.0838695
0.0869502
0.0899076
0.0927424
0.0954555
0.0980481
0.100522
0.102878
0.105118
0.107245
0.109262
0.11117
0.112973
0.114675
0.116279
0.117788
0.119206
0.120538
0.121788
0.122959
0.124056
0.125083
0.126045
0.126946
0.12779
0.128583
0.129335
0.130048
0.130724
0.131362
0.131965
0.132534
0.133071
0.133578
0.134057
0.134509
0.134936
0.135339
0.135721
0.136081
0.136422
0.136745
0.137051
0.137341
0.137616
0.137877
0.138126
0.138364
0.138591
0.138807
0.138994
0.139258
0.0131024
0.0159259
0.0154943
0.0141918
0.0140498
0.0158459
0.019082
0.0230516
0.02735
0.0317773
0.0362388
0.0406782
0.0450619
0.0493653
0.0535721
0.0576715
0.0616563
0.065522
0.069266
0.0728869
0.0763838
0.0797563
0.0830043
0.0861281
0.089128
0.0920046
0.0947586
0.0973911
0.0999033
0.102297
0.104574
0.106736
0.108786
0.110726
0.11256
0.114291
0.115922
0.117457
0.1189
0.120255
0.121525
0.122716
0.123832
0.124876
0.125854
0.126769
0.127626
0.128433
0.129196
0.12992
0.130605
0.131252
0.131863
0.132439
0.132983
0.133496
0.13398
0.134437
0.134869
0.135277
0.135662
0.136027
0.136371
0.136698
0.137006
0.137299
0.137577
0.13784
0.138091
0.138331
0.13856
0.138779
0.138967
0.139237
0.0203608
0.0249443
0.0247507
0.0220635
0.0191306
0.0178941
0.0190826
0.0220778
0.0259912
0.0302694
0.0346915
0.0391345
0.0435447
0.0478864
0.0521382
0.0562869
0.0603234
0.064242
0.0680396
0.0717143
0.075265
0.0786909
0.0819919
0.0851679
0.0882191
0.091146
0.0939491
0.0966293
0.0991878
0.101626
0.103946
0.106149
0.108239
0.110217
0.112087
0.113852
0.115515
0.11708
0.118552
0.119933
0.121229
0.122443
0.12358
0.124644
0.12564
0.126572
0.127444
0.128265
0.129042
0.129777
0.130473
0.13113
0.131749
0.132334
0.132885
0.133405
0.133896
0.134359
0.134796
0.135208
0.135599
0.135967
0.136316
0.136646
0.136958
0.137254
0.137534
0.1378
0.138054
0.138296
0.138526
0.138747
0.138938
0.139214
0.0270923
0.0339073
0.0349577
0.0323588
0.0280515
0.0239555
0.0218303
0.0223862
0.0250338
0.0287844
0.0330043
0.0373745
0.0417826
0.0461517
0.0504479
0.0546509
0.0587467
0.0627274
0.0665889
0.0703285
0.0739441
0.0774346
0.0807996
0.0840388
0.087152
0.0901396
0.0930018
0.0957394
0.0983535
0.100845
0.103217
0.105469
0.107606
0.109629
0.111542
0.113347
0.115048
0.116649
0.118154
0.119566
0.120891
0.122132
0.123294
0.124381
0.125398
0.126349
0.12724
0.128077
0.128869
0.129618
0.130326
0.130994
0.131624
0.132218
0.132777
0.133305
0.133803
0.134272
0.134715
0.135134
0.135529
0.135902
0.136255
0.136589
0.136905
0.137204
0.137488
0.137757
0.138013
0.138257
0.13849
0.138714
0.138906
0.139189
0.0333869
0.0425106
0.0451935
0.0435757
0.0393378
0.0339328
0.0289733
0.0260326
0.0258528
0.0279756
0.031446
0.0355156
0.0398145
0.0441548
0.0484735
0.0527259
0.056883
0.0609325
0.0648678
0.0686838
0.0723769
0.075945
0.0793871
0.0827025
0.0858908
0.0889517
0.0918854
0.0946924
0.0973734
0.0999298
0.102363
0.104675
0.106868
0.108945
0.110908
0.112761
0.114508
0.116151
0.117696
0.119145
0.120504
0.121777
0.122968
0.124082
0.125123
0.126097
0.127008
0.127865
0.128674
0.129439
0.130162
0.130843
0.131484
0.132089
0.132658
0.133194
0.1337
0.134177
0.134627
0.135052
0.135453
0.135831
0.136189
0.136528
0.136848
0.137151
0.137438
0.13771
0.137969
0.138216
0.138451
0.138677
0.138872
0.139161
0.0393408
0.0505798
0.0549381
0.0547569
0.0514977
0.046249
0.0401288
0.034491
0.0307327
0.0296486
0.0310247
0.0340147
0.0378299
0.0419812
0.0462429
0.0505034
0.0547007
0.0588137
0.0628278
0.0667296
0.070512
0.0741712
0.0777051
0.0811121
0.0843907
0.0875403
0.0905604
0.0934512
0.0962132
0.0988475
0.101355
0.103739
0.106
0.108142
0.110166
0.112077
0.113877
0.115572
0.117163
0.118657
0.120056
0.121367
0.122592
0.123738
0.124809
0.12581
0.126745
0.127624
0.128454
0.129238
0.129976
0.130672
0.131327
0.131944
0.132525
0.133071
0.133586
0.134072
0.134529
0.134961
0.135369
0.135753
0.136117
0.13646
0.136785
0.137092
0.137383
0.137659
0.137921
0.138171
0.138409
0.138638
0.138835
0.139131
0.0449899
0.0577898
0.0637119
0.0651847
0.063424
0.0592746
0.0534945
0.0469613
0.0407926
0.0362045
0.0340511
0.0343989
0.0366439
0.040006
0.0439118
0.0480369
0.052212
0.056359
0.0604374
0.0644216
0.0682976
0.0720581
0.0756976
0.0792119
0.0825979
0.0858536
0.0889776
0.0919695
0.0948294
0.0975579
0.100156
0.102626
0.10497
0.10719
0.109288
0.111269
0.113135
0.11489
0.116539
0.118085
0.119534
0.12089
0.122157
0.123341
0.124446
0.125479
0.126443
0.127349
0.128203
0.129008
0.129766
0.13048
0.131151
0.131782
0.132375
0.132934
0.133459
0.133954
0.134421
0.134861
0.135276
0.135667
0.136037
0.136386
0.136716
0.137028
0.137323
0.137603
0.137869
0.138122
0.138363
0.138595
0.138794
0.139098
0.0501671
0.0636892
0.0709921
0.0741638
0.0741695
0.0716774
0.0672108
0.061305
0.0546404
0.0481122
0.042751
0.0394233
0.0384733
0.0396213
0.0422366
0.0456991
0.0495738
0.0536128
0.0576863
0.0617238
0.0656859
0.0695507
0.073305
0.0769402
0.08045
0.0838303
0.0870778
0.0901907
0.0931682
0.0960104
0.0987182
0.101293
0.103737
0.106052
0.10824
0.110306
0.112252
0.114082
0.1158
0.117411
0.118919
0.120329
0.121647
0.122876
0.124024
0.125094
0.126094
0.127032
0.127915
0.128745
0.129526
0.130261
0.13095
0.131598
0.132206
0.132778
0.133317
0.133823
0.1343
0.134749
0.135172
0.135572
0.135948
0.136304
0.13664
0.136958
0.137258
0.137542
0.137812
0.138069
0.138313
0.138549
0.13875
0.139061
0.0561399
0.0678702
0.0762095
0.0809667
0.0827867
0.0822429
0.0796699
0.0753646
0.0697099
0.0632201
0.0565812
0.050624
0.0461649
0.043745
0.0434397
0.0449004
0.0475843
0.0509908
0.0547675
0.0587004
0.0626677
0.0666006
0.0704594
0.0742201
0.0778673
0.081391
0.084784
0.0880419
0.0911615
0.0941414
0.0969816
0.0996831
0.102248
0.104679
0.106977
0.109147
0.11119
0.113112
0.114915
0.116605
0.118186
0.119663
0.121042
0.122328
0.123527
0.124644
0.125686
0.126662
0.12758
0.128441
0.12925
0.130009
0.13072
0.131388
0.132014
0.132603
0.133155
0.133675
0.134164
0.134624
0.135057
0.135465
0.13585
0.136213
0.136556
0.13688
0.137186
0.137476
0.13775
0.138011
0.138259
0.138498
0.138703
0.139021
0.0637111
0.0704937
0.0789899
0.0849558
0.0883458
0.089779
0.0893757
0.0872127
0.0834937
0.0784825
0.0725317
0.0661283
0.0599032
0.0545606
0.0507211
0.0487422
0.0486233
0.050061
0.0526143
0.0558652
0.0594986
0.0633087
0.06717
0.0710077
0.074776
0.0784466
0.0820008
0.0854264
0.0887155
0.0918629
0.094866
0.097724
0.100438
0.103009
0.105441
0.107738
0.109901
0.111935
0.113844
0.115632
0.117303
0.118863
0.120318
0.121674
0.122935
0.12411
0.125204
0.126228
0.127187
0.128086
0.128928
0.129716
0.130455
0.131146
0.131794
0.132402
0.132972
0.133507
0.13401
0.134483
0.134927
0.135346
0.135741
0.136112
0.136463
0.136794
0.137106
0.137402
0.137682
0.137947
0.138199
0.138443
0.138651
0.138977
0.0736196
0.0768407
0.0802022
0.0862893
0.0902781
0.093297
0.0949828
0.0950753
0.0937326
0.0910353
0.0870865
0.0820826
0.0763471
0.070329
0.0645774
0.059672
0.0561093
0.054181
0.0539101
0.055082
0.0573504
0.0603548
0.0637972
0.0674643
0.0712164
0.0749647
0.0786533
0.0822466
0.0857214
0.0890627
0.0922612
0.0953113
0.0982105
0.100959
0.103557
0.10601
0.108321
0.110493
0.112532
0.114442
0.116226
0.11789
0.11944
0.120882
0.122222
0.123468
0.124628
0.12571
0.126721
0.127666
0.128549
0.129374
0.130145
0.130866
0.131539
0.13217
0.132761
0.133315
0.133834
0.134322
0.134781
0.135212
0.135617
0.135999
0.136359
0.136698
0.137018
0.137321
0.137606
0.137878
0.138134
0.138383
0.138594
0.138929
0.0784073
0.0820668
0.0852146
0.0879606
0.0895681
0.0929954
0.0959326
0.0976535
0.0985513
0.0984335
0.0971179
0.0945782
0.0909338
0.0863712
0.0811578
0.0756619
0.0703416
0.0656881
0.0621395
0.0599885
0.0593254
0.0600389
0.0618768
0.0645324
0.0677187
0.0712076
0.0748357
0.0784934
0.0821091
0.0856362
0.0890449
0.0923163
0.0954386
0.0984056
0.101215
0.103867
0.106363
0.10871
0.11091
0.11297
0.114895
0.11669
0.11836
0.119912
0.121352
0.122689
0.123931
0.125086
0.126162
0.127164
0.128098
0.128968
0.129779
0.130536
0.131241
0.131901
0.132517
0.133093
0.133633
0.134139
0.134613
0.135059
0.135478
0.135872
0.136242
0.136591
0.13692
0.13723
0.137523
0.137801
0.138063
0.138317
0.138532
0.138875
0.0760291
0.080451
0.0844212
0.0878266
0.0905315
0.0929357
0.0946943
0.0956897
0.097592
0.0994515
0.100474
0.100491
0.099606
0.0977462
0.094879
0.0910938
0.0866042
0.0817209
0.0768283
0.0723498
0.0686917
0.0661727
0.064964
0.0650655
0.0663282
0.0685111
0.0713477
0.0745967
0.0780671
0.0816208
0.0851633
0.0886323
0.0919874
0.0952034
0.0982651
0.101165
0.103899
0.106469
0.108878
0.111131
0.113234
0.115193
0.117015
0.118706
0.120275
0.121727
0.123073
0.124321
0.12548
0.126555
0.127553
0.12848
0.129342
0.130143
0.130889
0.131583
0.13223
0.132834
0.133399
0.133927
0.134421
0.134884
0.135319
0.135727
0.13611
0.13647
0.13681
0.137129
0.13743
0.137715
0.137984
0.138245
0.138464
0.138817
0.0645826
0.069718
0.074663
0.0793258
0.0835932
0.0874349
0.0907458
0.0934363
0.0956783
0.0973428
0.0983109
0.0990262
0.100319
0.101199
0.101196
0.100215
0.0983153
0.095552
0.0920276
0.0879428
0.0835991
0.0793654
0.0756277
0.0727315
0.0709244
0.0703173
0.070876
0.072447
0.074808
0.0777205
0.0809699
0.0843855
0.0878423
0.0912545
0.0945658
0.0977406
0.100758
0.103607
0.106283
0.108787
0.111123
0.113296
0.115315
0.117187
0.118919
0.120521
0.122001
0.123369
0.124633
0.125803
0.126884
0.127885
0.128811
0.12967
0.130465
0.131204
0.131891
0.132529
0.133124
0.133679
0.134198
0.134682
0.135136
0.135561
0.135959
0.136333
0.136685
0.137016
0.137327
0.13762
0.137897
0.138165
0.13839
0.138752
0.0494818
0.0526566
0.0563166
0.0605026
0.0651854
0.0702775
0.0756093
0.0809231
0.0859314
0.0903251
0.0938339
0.0963759
0.0981997
0.0993856
0.0999177
0.100376
0.101008
0.101215
0.100602
0.0990706
0.0966968
0.0936255
0.0900673
0.0863083
0.0826901
0.0795641
0.0772368
0.0759194
0.0756978
0.0765297
0.0782695
0.0807121
0.0836382
0.0868493
0.0901855
0.0935292
0.0967996
0.0999449
0.102934
0.105749
0.108385
0.11084
0.113119
0.115229
0.117178
0.118976
0.120633
0.122159
0.123564
0.124857
0.126048
0.127145
0.128156
0.129088
0.129949
0.130745
0.131481
0.132164
0.132798
0.133387
0.133935
0.134446
0.134923
0.135369
0.135786
0.136177
0.136543
0.136887
0.13721
0.137514
0.1378
0.138076
0.138308
0.138681
0.0465892
0.0473995
0.048527
0.0500004
0.0518815
0.0542456
0.0571724
0.0607307
0.0649525
0.0697969
0.0751097
0.0806109
0.085944
0.0907175
0.0945776
0.0974184
0.099359
0.100481
0.100788
0.100911
0.101055
0.100795
0.0998114
0.0980324
0.0955632
0.0926092
0.0894454
0.0863934
0.0837806
0.0818908
0.0809193
0.0809466
0.0819361
0.0837559
0.086217
0.0891142
0.092259
0.0954974
0.0987154
0.101836
0.104809
0.107609
0.110223
0.112648
0.114888
0.116951
0.118846
0.120585