/*--------------------------------*- C++ -*----------------------------------*\
| =========                 |                                                 |
| \\      /  F ield         | OpenFOAM: The Open Source CFD Toolbox           |
|  \\    /   O peration     | Version:  5.x                                   |
|   \\  /    A nd           | Web:      www.OpenFOAM.org                      |
|    \\/     M anipulation  |                                                 |
\*---------------------------------------------------------------------------*/
FoamFile
{
    version     2.0;
    format      ascii;
    class       volScalarField;
    location    "650";
    object      nut;
}
// * * * * * * * * * * * * * * * * * * * * * * * * * * * * * * * * * * * * * //

dimensions      [0 2 -1 0 0 0 0];

internalField   nonuniform List<scalar> 
41860
(
5.39488e-06
8.29883e-06
1.77016e-05
2.07284e-05
1.63681e-05
1.28346e-05
8.69382e-06
5.91001e-06
4.13455e-06
2.9619e-06
2.13388e-06
1.64854e-06
1.21251e-06
1.04409e-06
8.01162e-07
7.35332e-07
6.32288e-07
5.6657e-07
5.27145e-07
9.06498e-07
9.96739e-07
5.49838e-07
1.24167e-06
5.41297e-07
1.33563e-06
5.28282e-07
5.17993e-07
1.35674e-06
5.04604e-07
4.99432e-07
4.93026e-07
1.33101e-06
1.3162e-06
4.78147e-07
1.28134e-06
4.72195e-07
1.23517e-06
1.20556e-06
1.19149e-06
4.69117e-07
1.0981e-06
1.04042e-06
4.22049e-07
4.22357e-07
1.21885e-06
4.18818e-07
4.1745e-07
4.15852e-07
4.14745e-07
4.13816e-07
4.1315e-07
4.12748e-07
4.1253e-07
4.12537e-07
4.12782e-07
1.16741e-06
1.16393e-06
4.1378e-07
1.1553e-06
4.15331e-07
4.17196e-07
4.1742e-07
1.13467e-06
4.18334e-07
1.12154e-06
4.18352e-07
1.11341e-06
1.10615e-06
4.15015e-07
4.15551e-07
1.07212e-06
4.0873e-07
4.0646e-07
1.02271e-06
1.00982e-06
3.8848e-07
9.62152e-07
9.35565e-07
9.10816e-07
3.37494e-07
8.87981e-07
9.31879e-08
0.000181748
0.00021722
0.000283545
0.000300805
0.000276943
0.000255054
0.000224294
0.000197898
0.000176198
0.000157797
0.000141123
0.00012885
0.000115046
0.000108647
9.76966e-05
9.42693e-05
8.77808e-05
8.28411e-05
7.93996e-05
7.28405e-05
7.11164e-05
6.66513e-05
6.45242e-05
6.24396e-05
6.01224e-05
5.93244e-05
5.70617e-05
5.68632e-05
5.53026e-05
5.48742e-05
5.42051e-05
5.40844e-05
5.3957e-05
5.33855e-05
5.40278e-05
5.37621e-05
5.48265e-05
5.52597e-05
5.6493e-05
5.73793e-05
5.91707e-05
6.08113e-05
4.7449e-05
4.7355e-05
4.78812e-05
4.70936e-05
4.70603e-05
4.69726e-05
4.69849e-05
4.70138e-05
4.70871e-05
4.71964e-05
4.73314e-05
4.74989e-05
4.77137e-05
4.84548e-05
4.87564e-05
4.83692e-05
4.92986e-05
4.89195e-05
4.94113e-05
4.95574e-05
5.05077e-05
5.01583e-05
5.10073e-05
5.07061e-05
5.13548e-05
5.16625e-05
5.1065e-05
5.17316e-05
5.18677e-05
5.13967e-05
5.17267e-05
5.17553e-05
5.13801e-05
5.07168e-05
5.08849e-05
5.00539e-05
4.91846e-05
4.72125e-05
4.88041e-05
1.97235e-07
0.000234538
0.000274109
0.000361193
0.000385386
0.000355791
0.000328076
0.000289189
0.000256073
0.000229235
0.000206987
0.000187744
0.000173522
0.000160346
0.000153245
0.000147611
0.000145538
0.000144475
0.000143895
0.000143227
0.000142818
0.000141769
0.000143372
0.0001407
0.000141863
0.000139312
0.000139985
0.000139421
0.000136137
0.000137067
0.000135746
0.000134571
0.000131671
0.000130485
0.000131028
0.000128359
0.000128959
0.000126626
0.000125939
0.000125457
0.000126437
0.000125085
0.000125212
0.000123631
0.000123228
0.000121496
0.000122444
0.000122072
0.000121728
0.000121424
0.000121159
0.000120934
0.000120749
0.000120601
0.00012049
0.000120419
0.000119112
0.000119126
0.00012035
0.00011921
0.000120454
0.000120623
0.000120665
0.000119621
0.000120834
0.000119756
0.000120959
0.000119785
0.000119842
0.000120836
0.000121007
0.00011956
0.000120477
0.000120388
0.000118791
0.000118241
0.000118754
0.000117042
0.000115902
0.000114724
0.000113432
0.000113763
4.14631e-07
0.000325156
0.000369019
0.000435807
0.000473558
0.00046342
0.000432912
0.000405138
0.000382335
0.000362037
0.000343308
0.000326904
0.000306416
0.000293823
0.000274966
0.000271686
0.000265116
0.000263855
0.000261645
0.000258705
0.000257064
0.000253468
0.000252856
0.000248523
0.000247253
0.000243434
0.000241775
0.00023968
0.000235281
0.000234328
0.000231607
0.000229153
0.000225474
0.000223108
0.000222148
0.000218828
0.000218063
0.000215158
0.000213587
0.000212235
0.000212025
0.000210193
0.000209557
0.000207912
0.000206805
0.000204941
0.000205155
0.000204378
0.000203661
0.000203006
0.000202418
0.000201896
0.000201436
0.000201034
0.000200693
0.000200407
0.000199209
0.000199045
0.000199801
0.000198822
0.000199623
0.00019967
0.000199606
0.000198774
0.000199557
0.000198695
0.000199466
0.000198502
0.000198442
0.000198984
0.000199003
0.00019774
0.000198165
0.000197885
0.00019638
0.000195572
0.000195495
0.000193722
0.000192143
0.000190496
0.000188201
0.000188564
8.6378e-07
0.000452306
0.000547813
0.00064408
0.000699072
0.000720245
0.000680578
0.000655753
0.000630012
0.000601565
0.000571885
0.000543854
0.0005087
0.000484801
0.000450542
0.000436736
0.000420653
0.000414156
0.000407357
0.000400309
0.000395539
0.000388441
0.000384292
0.000377723
0.00037306
0.000367564
0.000362753
0.00035856
0.000352815
0.000349252
0.0003447
0.000340572
0.000335996
0.000332117
0.000329093
0.000325089
0.000322476
0.000319023
0.000316389
0.000314031
0.00031237
0.000310196
0.000308838
0.000305832
0.000303692
0.000301779
0.000300878
0.000299572
0.000298363
0.000297254
0.000296249
0.000295343
0.000294532
0.000293809
0.000293177
0.000292625
0.000291693
0.000291311
0.00029136
0.000290706
0.000290842
0.000290754
0.000290563
0.00029011
0.000290281
0.000289784
0.000289945
0.000289327
0.000289138
0.000289043
0.000288927
0.000287944
0.000287698
0.000287212
0.00028589
0.00028476
0.000283891
0.000282139
0.000280028
0.000277786
0.000274199
0.000274362
1.77451e-06
0.000618874
0.000789417
0.000994207
0.00108171
0.00111504
0.00105227
0.00100865
0.000963321
0.000914747
0.00086521
0.000818199
0.000764051
0.000723699
0.00067241
0.000644406
0.000615781
0.000601117
0.000587628
0.00057487
0.000565225
0.000553458
0.000544879
0.000534735
0.00052618
0.000517782
0.000509517
0.000502514
0.000494492
0.000488094
0.00048122
0.000474945
0.000468715
0.000462948
0.000457811
0.000452516
0.000448052
0.000443534
0.000439609
0.000436079
0.000433071
0.000430202
0.000428085
0.000423043
0.000419467
0.000417043
0.000415116
0.000413138
0.000411303
0.000409619
0.000408085
0.000406698
0.000405445
0.000404321
0.000403324
0.000402444
0.000401486
0.000400839
0.000400365
0.000399772
0.000399437
0.000399191
0.000398844
0.000398529
0.000398295
0.000397922
0.000397683
0.000397164
0.000396833
0.00039629
0.000396036
0.000395079
0.000394342
0.000393627
0.00039223
0.000390718
0.000389202
0.000387205
0.000384473
0.000381509
0.000376744
0.000375869
3.56792e-06
0.000848339
0.00108692
0.00144041
0.00157094
0.00160044
0.00150783
0.00143627
0.00136538
0.00129244
0.00121957
0.00115031
0.0010747
0.00101494
0.000944782
0.000900226
0.00085657
0.000831026
0.000808736
0.000788566
0.000772411
0.000754678
0.000740661
0.000725653
0.000712489
0.000700049
0.000687807
0.000677238
0.000666022
0.00065641
0.000646637
0.000637684
0.000629082
0.00062098
0.000613528
0.000606359
0.000599898
0.000593812
0.000588317
0.000583383
0.000578989
0.000575083
0.000572118
0.000564576
0.000559081
0.000555704
0.000552747
0.000549927
0.000547312
0.000544911
0.000542721
0.000540737
0.000538936
0.000537316
0.000535868
0.000534584
0.000533363
0.000532391
0.000531505
0.000530762
0.000530075
0.000529637
0.000529101
0.000528747
0.000528241
0.000527819
0.000527313
0.000526717
0.00052623
0.000525361
0.000524951
0.000523849
0.00052273
0.00052176
0.000520106
0.000518158
0.000516076
0.000513636
0.000510211
0.000506399
0.000500598
0.000497604
6.9452e-06
0.00118325
0.00144665
0.00196916
0.00214936
0.00216789
0.00204153
0.00193799
0.00183891
0.00173953
0.00164131
0.00154766
0.00144855
0.00136703
0.00127603
0.00121274
0.00115171
0.00111252
0.00107909
0.00104954
0.00102509
0.000999861
0.000979106
0.000957881
0.000939083
0.000921459
0.0009044
0.000889392
0.000874072
0.000860604
0.000847248
0.000834977
0.000823315
0.000812335
0.000802158
0.000792561
0.000783767
0.000775642
0.00076823
0.000761586
0.000755606
0.00075035
0.0007464
0.000735932
0.00072796
0.000723207
0.000719069
0.000715207
0.000711626
0.000708342
0.000705343
0.000702622
0.000700148
0.000697917
0.000695915
0.000694136
0.000692493
0.000691123
0.000689831
0.00068881
0.000687789
0.000687115
0.000686352
0.000685862
0.000685131
0.000684569
0.000683844
0.000683081
0.00068242
0.000681264
0.000680679
0.000679349
0.000677878
0.000676623
0.000674621
0.000672188
0.000669551
0.000666549
0.000662373
0.000657585
0.000650913
0.000644423
1.29048e-05
0.00163084
0.00188448
0.00258574
0.00282117
0.00282437
0.00266073
0.00252246
0.00239347
0.00226621
0.00214109
0.00202124
0.00189672
0.00179125
0.0016773
0.00159303
0.00151223
0.00145653
0.00140929
0.00136802
0.00133322
0.00129862
0.0012695
0.00124049
0.00121472
0.00119062
0.00116762
0.00114711
0.00112666
0.00110847
0.00109068
0.00107432
0.00105884
0.00104431
0.00103082
0.00101819
0.00100657
0.000995894
0.000986128
0.000977381
0.000969494
0.000962546
0.00095741
0.00094363
0.000932531
0.000925931
0.000920347
0.000915195
0.000910423
0.000906052
0.000902055
0.000898429
0.000895129
0.000892149
0.000889468
0.00088708
0.000884889
0.00088303
0.000881279
0.000879882
0.000878493
0.000877525
0.00087649
0.000875807
0.00087485
0.000874097
0.000873158
0.00087218
0.000871328
0.000869887
0.000869102
0.00086751
0.000865682
0.000864115
0.00086172
0.000858762
0.000855545
0.000851908
0.000846941
0.000841048
0.00083375
0.000821984
2.25431e-05
0.00221182
0.00242774
0.00330308
0.00359868
0.0035828
0.00337809
0.0032026
0.00304228
0.00288596
0.0027326
0.00258491
0.00243311
0.00230157
0.00216241
0.00205482
0.00195173
0.0018765
0.00181247
0.00175669
0.00170908
0.00166283
0.00162333
0.00158468
0.00155023
0.00151809
0.00148772
0.00146042
0.0014336
0.00140957
0.00138631
0.00136488
0.00134467
0.00132576
0.0013082
0.00129182
0.00127672
0.00126288
0.00125022
0.00123887
0.00122864
0.00121958
0.00121299
0.00119555
0.00118058
0.00117156
0.00116416
0.0011574
0.00115116
0.00114545
0.00114023
0.00113549
0.00113117
0.00112727
0.00112376
0.00112063
0.00111775
0.0011153
0.001113
0.00111113
0.0011093
0.00110797
0.00110661
0.00110568
0.00110448
0.0011035
0.00110234
0.00110111
0.00110005
0.00109832
0.00109731
0.00109545
0.00109325
0.00109134
0.00108854
0.00108503
0.0010812
0.00107688
0.00107111
0.00106398
0.00105645
0.00103714
3.65932e-05
0.00295794
0.00311488
0.00413893
0.00449878
0.00445972
0.00420967
0.00399446
0.00380154
0.00361521
0.00343249
0.00325548
0.00307459
0.0029149
0.00274822
0.00261481
0.00248677
0.00238884
0.0023047
0.0022312
0.00216784
0.00210719
0.00205484
0.00200422
0.001959
0.0019169
0.00187736
0.00184164
0.00180692
0.00177565
0.00174562
0.00171792
0.00169186
0.00166753
0.00164494
0.00162391
0.00160452
0.00158675
0.0015705
0.00155592
0.00154279
0.0015311
0.00152269
0.00150128
0.00148162
0.00146944
0.00145973
0.00145098
0.00144293
0.00143556
0.00142882
0.00142272
0.00141715
0.00141212
0.00140758
0.00140353
0.00139982
0.00139663
0.00139366
0.00139121
0.00138886
0.00138708
0.00138532
0.0013841
0.00138262
0.00138139
0.00137997
0.00137849
0.0013772
0.00137517
0.00137391
0.00137178
0.0013692
0.00136695
0.00136374
0.00135967
0.00135522
0.00135019
0.00134364
0.00133515
0.00132794
0.00129836
5.50215e-05
0.00390985
0.00398311
0.00511533
0.00554223
0.00547495
0.00517466
0.00491717
0.00469054
0.00447354
0.0042606
0.00405307
0.00384142
0.00365161
0.00345502
0.00329321
0.00313737
0.00301344
0.00290559
0.00281067
0.00272815
0.00264977
0.00258156
0.00251615
0.00245753
0.00240309
0.00235215
0.00230599
0.00226146
0.00222121
0.00218277
0.00214729
0.00211399
0.00208293
0.0020541
0.00202729
0.00200258
0.00197993
0.00195923
0.0019406
0.00192386
0.00190888
0.00189815
0.00187249
0.00184725
0.00183101
0.00181835
0.00180711
0.00179679
0.00178738
0.00177878
0.00177098
0.00176387
0.00175744
0.00175164
0.00174646
0.00174173
0.00173763
0.00173385
0.00173067
0.00172769
0.00172535
0.00172312
0.00172152
0.00171974
0.00171821
0.00171654
0.00171477
0.00171325
0.00171092
0.00170941
0.00170702
0.00170408
0.00170147
0.00169789
0.00169328
0.00168821
0.00168248
0.00167521
0.00166523
0.00165917
0.00161622
7.71551e-05
0.00511781
0.00506886
0.00625871
0.00675388
0.00665176
0.00629561
0.00599319
0.00573201
0.00548408
0.0052405
0.00500157
0.00475777
0.00453605
0.00430719
0.00411432
0.00392766
0.00377427
0.00363885
0.00351843
0.00341278
0.00331278
0.00322507
0.00314144
0.00306621
0.00299648
0.00293136
0.00287224
0.00281551
0.00276409
0.00271519
0.00267004
0.00262774
0.0025883
0.00255173
0.00251773
0.0024864
0.00245766
0.0024314
0.00240771
0.00238644
0.00236731
0.0023536
0.00232343
0.00229167
0.00227027
0.00225383
0.00223944
0.00222632
0.00221436
0.00220344
0.00219355
0.00218453
0.00217638
0.00216902
0.00216244
0.00215646
0.00215123
0.00214645
0.00214238
0.00213862
0.00213559
0.00213278
0.00213074
0.0021286
0.00212675
0.00212479
0.00212273
0.00212097
0.00211836
0.00211658
0.00211399
0.00211071
0.00210777
0.00210386
0.00209877
0.00209315
0.00208674
0.00207889
0.00206734
0.00206346
0.00200409
0.000102262
0.0066432
0.00641978
0.00760034
0.00816312
0.00801734
0.00759876
0.00724873
0.00695255
0.00667399
0.00639992
0.00612929
0.00585233
0.00559721
0.00533382
0.00510723
0.00488656
0.00470007
0.00453303
0.00438263
0.00424942
0.0041233
0.00401179
0.00390585
0.00381009
0.00372145
0.00363871
0.00356349
0.00349161
0.00342626
0.00336437
0.00330715
0.00325364
0.00320377
0.00315754
0.00311456
0.00307498
0.00303861
0.00300541
0.00297536
0.00294839
0.00292402
0.00290643
0.00287147
0.00283225
0.00280437
0.00278308
0.00276471
0.00274808
0.00273296
0.00271916
0.00270666
0.00269528
0.00268499
0.0026757
0.00266739
0.00265985
0.00265322
0.00264721
0.00264204
0.00263733
0.00263345
0.00262992
0.00262731
0.00262477
0.00262254
0.00262029
0.00261793
0.00261593
0.00261308
0.00261104
0.0026083
0.00260476
0.00260154
0.00259739
0.00259193
0.00258585
0.00257886
0.00257064
0.00255745
0.00255705
0.002479
0.000130006
0.00856039
0.00809771
0.00917761
0.00980242
0.00960264
0.0091142
0.00871397
0.00838292
0.00807488
0.00777131
0.00746939
0.00715886
0.00686929
0.00656933
0.0063064
0.00604843
0.00582508
0.00562215
0.00543704
0.00527141
0.00511413
0.00497386
0.00484078
0.00471981
0.00460789
0.00450333
0.00440814
0.00431745
0.00423477
0.00415668
0.00408442
0.00401693
0.00395404
0.00389575
0.00384155
0.00379164
0.0037457
0.00370378
0.00366572
0.00363157
0.00360057
0.00357788
0.00353777
0.00349017
0.0034543
0.00342682
0.0034034
0.00338236
0.00336328
0.00334589
0.00333014
0.00331582
0.00330287
0.00329118
0.00328071
0.00327124
0.00326288
0.00325535
0.00324881
0.00324292
0.00323798
0.00323356
0.00323025
0.00322723
0.00322457
0.003222
0.00321935
0.00321713
0.00321409
0.00321183
0.00320901
0.00320533
0.0032019
0.00319766
0.003192
0.00318563
0.00317822
0.00316993
0.0031551
0.00315961
0.00306266
0.000160495
0.010959
0.01018
0.0110366
0.0116976
0.0114362
0.0108718
0.0104199
0.010056
0.00972156
0.00939112
0.00905963
0.00871611
0.0083918
0.00805367
0.00775203
0.00745354
0.00718947
0.00694633
0.00672157
0.00651837
0.00632447
0.00614988
0.00598418
0.00583253
0.00569214
0.00556072
0.00544086
0.00532691
0.00522267
0.00512446
0.00503345
0.00494854
0.00486937
0.00479602
0.00472777
0.00466493
0.00460697
0.00455408
0.00450592
0.00446267
0.00442327
0.00439387
0.00434806
0.00429122
0.00424569
0.00421037
0.00418054
0.00415394
0.0041299
0.00410802
0.00408822
0.00407022
0.00405395
0.00403925
0.00402609
0.00401422
0.00400369
0.00399427
0.00398602
0.00397868
0.00397242
0.0039669
0.00396269
0.00395907
0.00395592
0.00395301
0.00395008
0.00394765
0.00394451
0.00394208
0.0039393
0.00393562
0.00393215
0.003928
0.00392237
0.00391598
0.00390837
0.00390044
0.00388404
0.00389494
0.00378261
0.000194097
0.0139464
0.0127618
0.0132349
0.0138539
0.0135152
0.0128767
0.0123793
0.0119933
0.0116431
0.0112939
0.0109384
0.0105652
0.0102078
0.00983121
0.00948932
0.0091476
0.00883927
0.00855174
0.00828247
0.0080365
0.00780033
0.00758545
0.00738111
0.00719265
0.00701782
0.00685367
0.00670355
0.00656101
0.00643012
0.00630699
0.00619268
0.00608609
0.00598664
0.00589449
0.00580868
0.00572962
0.00565658
0.00558989
0.00552898
0.0054742
0.00542413
0.0053859
0.00533356
0.00526666
0.00520971
0.00516457
0.00512662
0.005093
0.00506273
0.00503522
0.00501034
0.00498774
0.00496731
0.00494887
0.00493233
0.00491745
0.00490422
0.00489243
0.00488205
0.00487289
0.00486499
0.00485808
0.00485273
0.00484834
0.00484461
0.00484131
0.0048381
0.0048355
0.00483236
0.00482984
0.00482725
0.00482379
0.00482046
0.00481666
0.00481139
0.00480534
0.00479786
0.00479083
0.00477301
0.00479162
0.00467219
0.000231221
0.0176514
0.0159581
0.0158441
0.0162659
0.0157985
0.0150863
0.0145583
0.0141746
0.013836
0.0134919
0.0131301
0.0127393
0.0123563
0.0119455
0.0115647
0.0111792
0.0108243
0.0104892
0.0101713
0.00987787
0.00959405
0.00933297
0.00908378
0.00885199
0.00863618
0.00843271
0.00824597
0.00806865
0.00790513
0.00775138
0.00760832
0.00747491
0.0073503
0.00723476
0.00712706
0.00702775
0.00693582
0.00685178
0.00677481
0.00670543
0.00664185
0.00659204
0.00653185
0.00645413
0.00638395
0.00632674
0.00627856
0.00623611
0.00619801
0.00616344
0.00613219
0.00610383
0.00607818
0.00605504
0.00603426
0.00601562
0.00599898
0.00598423
0.00597117
0.00595974
0.00594979
0.00594113
0.00593431
0.00592893
0.00592446
0.00592071
0.00591721
0.00591446
0.00591143
0.00590896
0.00590672
0.00590374
0.00590082
0.00589767
0.00589317
0.00588791
0.00588099
0.0058755
0.00585657
0.00588393
0.00576675
0.000724981
0.0222291
0.0199068
0.0189499
0.0189355
0.0182483
0.0174501
0.0169041
0.0165475
0.0162543
0.0159525
0.0156195
0.0152406
0.0148547
0.0144253
0.0140154
0.0135915
0.0131923
0.0128096
0.0124411
0.0120974
0.0117619
0.0114497
0.01115
0.0108687
0.0106053
0.0103557
0.0101255
0.00990661
0.00970375
0.00951289
0.00933479
0.00916854
0.009013
0.00886862
0.00873384
0.00860939
0.00849395
0.00838822
0.00829111
0.00820333
0.00812271
0.00805785
0.00798781
0.00789842
0.0078133
0.00774154
0.00768064
0.00762713
0.00757922
0.00753582
0.00749659
0.00746101
0.00742884
0.0073998
0.0073737
0.00735033
0.00732943
0.00731094
0.00729453
0.00728022
0.00726771
0.00725684
0.00724813
0.00724143
0.00723599
0.00723165
0.00722784
0.00722496
0.00722216
0.00721986
0.00721816
0.00721595
0.00721377
0.00721165
0.00720837
0.00720446
0.00719862
0.00719542
0.00717576
0.00721259
0.00710162
0.00200338
0.0278678
0.0247691
0.0226468
0.0218752
0.0208432
0.0199334
0.019375
0.0190627
0.0188417
0.0186171
0.0183528
0.0180275
0.0176773
0.0172625
0.0168489
0.0164057
0.0159743
0.0155519
0.0151372
0.0147451
0.0143578
0.0139923
0.013639
0.0133034
0.0129871
0.0126852
0.012405
0.0121379
0.0118888
0.0116539
0.011434
0.0112283
0.0110353
0.0108559
0.0106881
0.0105328
0.0103884
0.0102558
0.0101337
0.0100229
0.009921
0.00983682
0.00975411
0.009652
0.00955036
0.00946155
0.00938512
0.0093179
0.00925779
0.00920341
0.00915424
0.00910967
0.00906934
0.00903294
0.00900018
0.00897088
0.00894463
0.00892145
0.00890083
0.00888291
0.00886718
0.00885353
0.00884238
0.00883389
0.00882715
0.00882202
0.00881778
0.00881475
0.00881225
0.00881027
0.0088093
0.00880816
0.00880708
0.0088064
0.00880485
0.00880289
0.00879868
0.00879854
0.00877861
0.00882538
0.00871376
0.00481284
0.0347885
0.0307277
0.0270197
0.0251016
0.0235712
0.0225118
0.0219414
0.0216842
0.0215531
0.0214305
0.0212671
0.021034
0.020762
0.020405
0.0200278
0.0196002
0.0191651
0.0187248
0.0182799
0.0178511
0.0174201
0.0170059
0.0166009
0.016211
0.0158398
0.0154821
0.0151475
0.0148269
0.0145257
0.0142406
0.0139723
0.0137205
0.0134837
0.0132626
0.0130554
0.0128631
0.0126837
0.0125186
0.0123659
0.0122269
0.0120986
0.0119901
0.011891
0.0117747
0.0116552
0.011547
0.0114521
0.0113682
0.0112931
0.0112253
0.0111638
0.0111082
0.0110577
0.0110122
0.0109712
0.0109345
0.0109016
0.0108725
0.0108466
0.0108242
0.0108045
0.0107873
0.010773
0.0107622
0.0107536
0.0107473
0.0107425
0.0107392
0.010737
0.0107354
0.0107354
0.0107356
0.0107359
0.0107371
0.0107377
0.0107383
0.0107363
0.0107399
0.0107201
0.010777
0.010661
0.00744583
0.043009
0.0379537
0.0320961
0.0286193
0.0264193
0.0251622
0.024577
0.0243823
0.0243528
0.0243485
0.0243079
0.0241961
0.0240374
0.023778
0.0234798
0.0231106
0.0227126
0.0222905
0.0218463
0.0214066
0.0209525
0.0205057
0.0200611
0.0196252
0.0192044
0.0187936
0.018405
0.0180298
0.0176739
0.017335
0.0170138
0.0167109
0.0164246
0.0161562
0.0159037
0.0156684
0.0154482
0.0152445
0.0150556
0.0148827
0.0147228
0.0145846
0.0144644
0.014332
0.0141935
0.014064
0.0139479
0.0138444
0.0137514
0.0136673
0.013591
0.0135218
0.0134591
0.0134025
0.0133513
0.0133055
0.0132644
0.0132281
0.0131957
0.0131677
0.013143
0.0131215
0.0131032
0.0130892
0.0130782
0.0130703
0.0130644
0.0130606
0.0130587
0.0130575
0.0130584
0.0130601
0.0130622
0.0130655
0.0130687
0.0130723
0.0130728
0.0130806
0.0130611
0.0131279
0.0129992
0.0104794
0.0520183
0.0463275
0.0377813
0.0323901
0.0293588
0.0278524
0.0272499
0.0271249
0.0272063
0.0273313
0.0274282
0.0274583
0.0274385
0.0273073
0.0271235
0.0268523
0.0265338
0.0261716
0.0257683
0.0253549
0.0249112
0.0244609
0.0240016
0.0235405
0.0230866
0.0226352
0.0222022
0.0217788
0.0213723
0.0209815
0.0206078
0.0202527
0.0199146
0.0195959
0.0192943
0.0190118
0.0187463
0.0184993
0.0182691
0.0180573
0.0178608
0.0176876
0.0175415
0.0173907
0.0172324
0.0170805
0.0169413
0.0168156
0.0167019
0.0165988
0.0165051
0.01642
0.0163427
0.0162728
0.0162095
0.0161529
0.0161019
0.0160569
0.0160166
0.0159818
0.0159511
0.0159243
0.0159011
0.015883
0.0158688
0.0158585
0.0158511
0.0158463
0.0158444
0.0158435
0.0158452
0.0158484
0.0158523
0.0158578
0.0158637
0.0158705
0.0158736
0.0158856
0.0158662
0.015942
0.0157923
0.0139517
0.0613831
0.0553193
0.0438052
0.0362771
0.032319
0.0305301
0.0299164
0.0298701
0.0300711
0.0303334
0.030578
0.0307663
0.0309046
0.0309243
0.0308818
0.03074
0.0305377
0.0302737
0.0299518
0.0296052
0.0292113
0.0287949
0.0283559
0.0279016
0.0274427
0.0269755
0.0265188
0.0260645
0.0256214
0.0251896
0.0247718
0.0243705
0.0239849
0.0236182
0.0232686
0.0229388
0.0226267
0.0223346
0.0220608
0.021807
0.0215706
0.0213588
0.0211827
0.0210111
0.0208328
0.0206587
0.0204958
0.0203465
0.0202103
0.0200862
0.0199729
0.0198699
0.019776
0.0196909
0.0196137
0.0195446
0.0194821
0.019427
0.0193776
0.0193347
0.019297
0.0192641
0.0192351
0.019212
0.0191935
0.0191801
0.0191704
0.0191642
0.0191617
0.0191607
0.019163
0.0191675
0.0191729
0.0191805
0.0191889
0.0191985
0.0192039
0.0192194
0.0191992
0.0192819
0.0191059
0.0178864
0.0708114
0.0644199
0.0496269
0.0399333
0.0351395
0.0331044
0.0325153
0.0325624
0.0328925
0.0332967
0.0336954
0.0340557
0.0343672
0.0345555
0.0346755
0.0346887
0.0346331
0.0344994
0.0342948
0.0340526
0.0337464
0.0334023
0.033022
0.0326123
0.0321839
0.0317343
0.0312847
0.0308271
0.0303718
0.0299205
0.0294768
0.0290448
0.0286245
0.0282204
0.0278312
0.0274606
0.027107
0.0267733
0.026458
0.0261635
0.0258877
0.0256369
0.025429
0.0252357
0.025038
0.0248435
0.0246585
0.0244864
0.0243277
0.024182
0.0240484
0.0239265
0.0238149
0.0237137
0.0236215
0.0235388
0.0234638
0.0233976
0.0233382
0.0232866
0.0232412
0.0232015
0.0231659
0.0231371
0.0231136
0.0230962
0.0230835
0.0230751
0.0230715
0.0230699
0.0230723
0.0230776
0.0230841
0.0230932
0.0231035
0.0231152
0.0231218
0.0231395
0.0231167
0.0232032
0.0229996
0.0222859
0.0800259
0.0730028
0.0552119
0.0432219
0.0378051
0.0356211
0.0350692
0.0351848
0.0356072
0.0361504
0.0367036
0.0372475
0.0377421
0.0381114
0.038411
0.0386011
0.0387195
0.0387432
0.0386884
0.0385847
0.0384003
0.0381639
0.0378797
0.0375521
0.0371912
0.0367962
0.0363896
0.0359625
0.0355269
0.0350856
0.0346434
0.0342052
0.0337722
0.0333501
0.0329383
0.0325418
0.0321594
0.0317948
0.0314472
0.0311194
0.0308101
0.0305252
0.0302882
0.0300748
0.0298607
0.0296498
0.0294469
0.0292556
0.0290772
0.0289122
0.0287597
0.02862
0.0284916
0.0283748
0.0282679
0.0281718
0.0280846
0.0280074
0.027938
0.0278776
0.0278245
0.0277781
0.0277361
0.0277015
0.0276726
0.0276508
0.0276347
0.0276236
0.0276184
0.0276156
0.0276177
0.0276232
0.0276301
0.02764
0.0276513
0.027664
0.0276704
0.0276882
0.0276608
0.0277466
0.0275187
0.027142
0.0886833
0.0805758
0.0616853
0.0474308
0.0409755
0.0385796
0.0379771
0.0380655
0.0384815
0.0390593
0.0396791
0.0403214
0.0409352
0.041485
0.0419749
0.0423591
0.0426757
0.0428785
0.043005
0.0430717
0.0430398
0.0429443
0.0427922
0.0425829
0.0423251
0.0420222
0.0416956
0.041335
0.0409544
0.0405572
0.0401491
0.0397356
0.0393188
0.0389055
0.038496
0.038096
0.0377053
0.0373283
0.0369649
0.0366184
0.0362886
0.035981
0.0357232
0.0354956
0.0352708
0.0350501
0.0348365
0.0346331
0.0344413
0.0342624
0.0340958
0.0339424
0.0338006
0.0336712
0.0335524
0.0334453
0.0333478
0.0332614
0.0331837
0.0331161
0.0330567
0.0330049
0.0329575
0.032918
0.0328846
0.0328589
0.0328395
0.0328259
0.0328192
0.0328152
0.0328167
0.0328222
0.0328292
0.0328394
0.0328508
0.0328634
0.0328683
0.0328842
0.0328503
0.0329301
0.0326851
0.0324669
0.0963443
0.0871197
0.0692005
0.0541226
0.0463545
0.0432303
0.0421211
0.0418837
0.0420682
0.0424873
0.0430173
0.0436114
0.044223
0.0448211
0.045397
0.0458896
0.0463662
0.0467539
0.0470929
0.047358
0.0475032
0.04758
0.0475965
0.0475395
0.0474191
0.0472467
0.0470374
0.0467797
0.0464909
0.0461744
0.045836
0.0454816
0.0451144
0.0447419
0.0443649
0.04399
0.0436177
0.0432533
0.0428972
0.0425535
0.0422228
0.0419104
0.0416462
0.0414151
0.0411893
0.0409686
0.0407545
0.0405492
0.0403538
0.0401701
0.0399977
0.039838
0.0396896
0.0395537
0.0394285
0.0393154
0.0392123
0.0391208
0.0390386
0.0389673
0.0389048
0.0388506
0.0388008
0.0387591
0.0387234
0.0386958
0.0386749
0.0386602
0.0386532
0.0386489
0.0386507
0.0386568
0.0386642
0.0386748
0.0386865
0.0386986
0.0387016
0.0387144
0.0386735
0.0387424
0.0384912
0.0382936
0.10254
0.093143
0.0774927
0.0630424
0.0545835
0.0503344
0.0482102
0.0472567
0.0469246
0.0469523
0.0471958
0.0475553
0.0480062
0.0484889
0.0490089
0.0494905
0.0499902
0.0504446
0.0508811
0.0512746
0.0516008
0.0518784
0.0520991
0.0522213
0.0522696
0.0522676
0.0522122
0.0520934
0.0519343
0.051737
0.0515062
0.0512479
0.0509671
0.050671
0.0503609
0.0500443
0.0497223
0.0494007
0.0490807
0.0487669
0.0484608
0.0481675
0.0479171
0.0476982
0.0474852
0.0472777
0.0470762
0.0468821
0.046696
0.0465199
0.0463533
0.0461982
0.0460534
0.0459205
0.0457975
0.0456865
0.0455852
0.0454957
0.0454154
0.0453462
0.0452862
0.0452349
0.0451876
0.0451483
0.0451147
0.0450893
0.0450706
0.045058
0.0450536
0.0450518
0.0450562
0.0450651
0.045075
0.0450878
0.0451012
0.0451142
0.0451166
0.0451268
0.0450813
0.0451357
0.0448931
0.0446379
0.107165
0.099317
0.0862418
0.0731647
0.0643033
0.0588466
0.0556185
0.0538448
0.0529105
0.0524639
0.0523209
0.0523391
0.0525173
0.0527621
0.0530982
0.0534467
0.053837
0.0542318
0.0546381
0.0550407
0.0554186
0.0557812
0.0561075
0.0564021
0.0566425
0.0568527
0.056978
0.0570286
0.0570375
0.056998
0.0569124
0.0567888
0.0566336
0.0564524
0.0562472
0.0560259
0.0557902
0.0555463
0.055296
0.0550444
0.0547938
0.0545491
0.0543376
0.0541514
0.0539699
0.0537927
0.05362
0.0534532
0.0532922
0.0531389
0.052993
0.0528568
0.0527288
0.0526115
0.0525027
0.0524051
0.052316
0.0522383
0.0521692
0.0521109
0.0520614
0.0520206
0.0519833
0.0519536
0.051929
0.0519121
0.0519016
0.0518969
0.0519001
0.0519058
0.0519176
0.0519335
0.0519501
0.0519692
0.0519882
0.0520059
0.0520118
0.0520227
0.0519785
0.052018
0.0518019
0.0514622
0.111535
0.105445
0.094995
0.0833336
0.0733839
0.0666259
0.0627263
0.0604829
0.0591802
0.0584041
0.057935
0.057652
0.0575685
0.0575659
0.0576738
0.0578234
0.0580292
0.0582763
0.0585536
0.0588615
0.0591772
0.0595102
0.0598378
0.0601714
0.0604887
0.0607976
0.0610787
0.0613154
0.0615276
0.0616751
0.061764
0.0618105
0.0618186
0.06179
0.0617277
0.0616404
0.0615296
0.0614013
0.061258
0.0611051
0.0609455
0.0607838
0.0606411
0.0605128
0.0603858
0.0602601
0.0601364
0.060016
0.0598988
0.0597868
0.0596794
0.0595791
0.0594847
0.0593987
0.0593193
0.0592493
0.0591863
0.0591332
0.0590875
0.0590517
0.0590237
0.0590036
0.0589865
0.0589762
0.05897
0.0589708
0.0589771
0.0589886
0.0590075
0.0590283
0.0590547
0.0590849
0.0591152
0.0591473
0.0591788
0.059208
0.0592247
0.0592435
0.0592106
0.0592396
0.059069
0.0586578
0.116332
0.111628
0.103323
0.0933052
0.0838049
0.0761539
0.0704585
0.0670801
0.0651743
0.0640277
0.0633442
0.0629206
0.0627067
0.0625462
0.0624639
0.0624268
0.0624552
0.0625365
0.0626471
0.0628022
0.0629824
0.0632008
0.0634424
0.0637131
0.0640013
0.0643047
0.0646165
0.0649204
0.0652243
0.065509
0.0657732
0.0660132
0.0662098
0.0663576
0.0664676
0.0665475
0.0665958
0.0666183
0.0666181
0.0666007
0.0665689
0.0665268
0.0664857
0.0664433
0.0663969
0.0663475
0.066296
0.0662443
0.0661924
0.0661424
0.0660939
0.0660494
0.0660079
0.065972
0.0659401
0.065915
0.0658948
0.0658823
0.0658753
0.0658763
0.0658836
0.0658975
0.0659134
0.0659349
0.0659594
0.0659898
0.0660245
0.0660634
0.0661088
0.0661553
0.0662068
0.0662612
0.0663153
0.0663707
0.0664248
0.0664757
0.0665146
0.0665523
0.0665451
0.0665751
0.0664675
0.0660281
0.120469
0.117181
0.110862
0.102881
0.0947833
0.0875542
0.0814587
0.0766857
0.0730777
0.0707071
0.0693458
0.0684718
0.0678779
0.0674309
0.0671645
0.0670025
0.0669366
0.0668863
0.066836
0.0668263
0.066846
0.0669117
0.0670161
0.0671606
0.0673416
0.0675525
0.0677941
0.0680557
0.0683418
0.0686411
0.0689532
0.0692693
0.0695835
0.0698852
0.0701728
0.0704313
0.0706508
0.0708416
0.0710078
0.0711522
0.0712766
0.0713844
0.0714736
0.0715425
0.0716012
0.0716517
0.0716956
0.071735
0.0717704
0.071804
0.0718356
0.0718677
0.0718997
0.0719339
0.0719692
0.0720082
0.0720493
0.0720952
0.0721442
0.0721987
0.0722573
0.0723206
0.0723846
0.0724528
0.0725225
0.0725966
0.0726737
0.0727539
0.072839
0.0729246
0.0730144
0.0731061
0.0731971
0.073289
0.0733791
0.0734658
0.0735417
0.0736141
0.0736505
0.0737012
0.0736728
0.0732696
0.123926
0.121718
0.117294
0.111472
0.10499
0.098567
0.0928378
0.0880159
0.0840346
0.0807986
0.0782496
0.0761046
0.0744351
0.0732342
0.0725077
0.0720185