/*--------------------------------*- C++ -*----------------------------------*\
| =========                 |                                                 |
| \\      /  F ield         | OpenFOAM: The Open Source CFD Toolbox           |
|  \\    /   O peration     | Version:  5.x                                   |
|   \\  /    A nd           | Web:      www.OpenFOAM.org                      |
|    \\/     M anipulation  |                                                 |
\*---------------------------------------------------------------------------*/
FoamFile
{
    version     2.0;
    format      ascii;
    class       volScalarField;
    location    "650";
    object      p;
}
// * * * * * * * * * * * * * * * * * * * * * * * * * * * * * * * * * * * * * //

dimensions      [0 2 -2 0 0 0 0];

internalField   nonuniform List<scalar> 
11040
(
1.11429e-05
-93.5255
-334.006
-377.792
-376.366
-369.504
-353.42
-326.889
-293.33
-254.187
-209.579
-151.573
-97.3967
-56.1163
-23.7009
9.15664
41.1646
70.3301
95.7471
116.136
130.117
136.891
140.052
141.998
143.368
144.404
145.184
145.739
146.103
146.306
146.367
146.3
146.128
145.909
145.814
146.206
147.351
149.184
152.937
159.34
155.029
52.5093
-41.1053
-191.778
-257.532
-281.957
-296.508
-299.917
-290.006
-269.152
-239.496
-202.167
-151.077
-99.8868
-58.596
-25.6029
7.25197
39.3106
68.7168
94.489
115.327
129.751
136.77
140.002
141.966
143.339
144.384
145.175
145.741
146.116
146.329
146.398
146.337
146.167
145.938
145.815
146.159
147.244
148.991
152.521
158.573
151.965
88.1743
-6.10037
-112.544
-196.957
-238.485
-260.067
-268.401
-263.424
-247.349
-222.408
-190.101
-145.951
-98.68
-58.2446
-25.4259
6.64431
38.2262
67.5176
93.3884
114.534
129.368
136.695
140.032
141.995
143.349
144.387
145.18
145.752
146.135
146.355
146.433
146.379
146.213
145.981
145.834
146.118
147.122
148.776
152.082
157.992
149.918
114.912
30.1574
-48.5982
-127.21
-176.065
-205.61
-222.701
-226.735
-218.611
-200.522
-174.393
-137.526
-95.2667
-56.6674
-24.3759
6.6689
37.4773
66.4248
92.252
113.637
128.895
136.618
140.123
142.09
143.414
144.428
145.209
145.779
146.167
146.392
146.477
146.431
146.268
146.031
145.854
146.061
146.947
148.463
151.486
157.157
148.874
137.023
64.3235
3.26943
-64.7039
-116.736
-152.27
-175.792
-187.149
-186.451
-175.319
-155.698
-126.237
-89.8925
-54.0889
-22.7388
7.08347
36.7732
65.0721
90.6627
112.228
128.002
136.325
140.176
142.23
143.543
144.521
145.275
145.833
146.216
146.443
146.534
146.496
146.339
146.094
145.881
145.991
146.722
148.052
150.745
155.938
148.482
154.78
94.3257
45.5139
-11.2232
-60.9707
-98.9234
-126.735
-144.06
-150.294
-146.233
-133.472
-111.513
-81.7443
-49.7634
-20.0808
8.19007
36.372
63.6328
88.6736
110.223
126.505
135.631
140.084
142.375
143.733
144.681
145.396
145.927
146.294
146.515
146.608
146.579
146.427
146.176
145.92
145.917
146.456
147.557
149.894
154.387
148.493
169.034
119.683
79.9198
33.3328
-10.9349
-47.9379
-77.4911
-98.7843
-110.67
-113.173
-107.271
-92.8029
-70.1222
-43.0426
-15.99
10.2781
36.5624
62.3573
86.4565
107.662
124.292
134.314
139.634
142.42
143.962
144.925
145.596
146.082
146.417
146.62
146.707
146.682
146.536
146.278
145.979
145.852
146.172
147.016
148.98
152.654
148.746
180.436
140.468
107.795
69.8324
32.1552
-1.59427
-30.5414
-53.5911
-69.2933
-77.1219
-77.4125
-69.9891
-54.5131
-33.2249
-9.87243
13.7605
37.7173
61.5942
84.3109
104.743
121.397
132.168
138.474
142.09
144.11
145.246
145.911
146.334
146.615
146.781
146.849
146.818
146.674
146.41
146.069
145.816
145.906
146.484
148.075
150.959
149.06
189.482
157.141
130.192
99.3503
68.1151
38.8044
12.2423
-10.5405
-28.0843
-39.5559
-44.8075
-43.4888
-34.7983
-19.7308
-1.02813
19.1936
40.3073
61.804
82.6961
101.909
118.161
129.288
136.372
140.966
143.806
145.462
146.343
146.765
146.954
147.038
147.059
147.008
146.858
146.589
146.213
145.848
145.717
146.042
147.282
149.551
149.362
196.56
170.309
148.03
122.998
97.4864
72.8705
49.6581
28.6353
11.0176
-2.29539
-10.9051
-14.3156
-11.4553
-2.43098
11.0682
27.1581
44.8555
63.4851
82.1107
99.6921
115.113
126.162
133.604
138.939
142.629
145.069
146.549
147.306
147.571
147.558
147.436
147.292
147.11
146.834
146.439
145.999
145.699
145.803
146.734
148.605
149.673
202.007
180.59
162.133
141.807
121.127
100.882
81.2876
62.8593
46.4628
32.8757
22.5562
16.0277
14.4291
18.1958
26.5269
38.0769
51.8737
67.1636
83.0668
98.5977
112.759
123.375
130.829
136.505
140.722
143.799
145.973
147.381
148.134
148.371
148.263
147.968
147.603
147.214
146.785
146.321
145.939
145.899
146.61
148.251
150.079
206.122
188.549
173.225
156.694
139.978
123.525
107.365
91.7826
77.3363
64.59
53.9464
45.8512
41.3371
41.0764
44.8812
51.9874
61.6888
73.3161
86.0968
99.1538
111.6
121.427
128.637
134.356
138.783
142.163
144.738
146.663
148.009
148.816
149.145
149.092
148.77
148.273
147.667
147.052
146.572
146.456
147.05
148.63
150.83
209.173
194.675
181.924
168.445
154.934
141.637
128.491
115.622
103.374
92.0973
82.0843
73.6625
67.6582
64.757
65.1023
68.3818
74.2256
82.1739
91.6314
101.888
112.195
120.827
127.491
133
137.436
140.929
143.657
145.787
147.438
148.67
149.507
149.964
150.076
149.905
149.522
149.033
148.552
148.292
148.635
150.03
152.178
211.392
199.375
188.743
177.721
166.78
156.05
145.43
134.957
124.828
115.242
106.376
98.4469
92.0533
87.7688
85.8539
86.2656
88.9013
93.5352
99.7868
107.151
115.051
122.121
127.893
132.891
137.109
140.577
143.373
145.603
147.372
148.771
149.867
150.698
151.279
151.627
151.766
151.788
151.819
152.023
152.618
154.086
155.823
212.97
202.973
194.096
185.055
176.17
167.504
158.947
150.49
142.236
134.298
126.76
119.752
113.677
108.959
105.853
104.431
104.741
106.734
110.224
114.908
120.396
125.705
130.315
134.512
138.239
141.47
144.208
146.492
148.374
149.917
151.184
152.236
153.127
153.902
154.592
155.254
155.962
156.839
157.969
159.902
161.547
214.079
205.741
198.321
190.881
183.64
176.624
169.726
162.917
156.248
149.777
143.534
137.586
132.196
127.653
124.15
121.785
120.661
120.82
122.212
124.693
128.037
131.626
134.973
138.195
141.219
143.99
146.477
148.674
150.597
152.273
153.738
155.034
156.21
157.322
158.431
159.601
160.895
162.409
164.153
166.536
168.668
214.893
207.93
201.722
195.579
189.657
183.956
178.38
172.894
167.519
162.282
157.189
152.266
147.679
143.617
140.211
137.541
135.708
134.787
134.794
135.686
137.358
139.479
141.654
143.898
146.141
148.326
150.406
152.357
154.172
155.859
157.434
158.919
160.345
161.75
163.179
164.684
166.318
168.163
170.253
172.777
175.444
215.452
209.574
204.321
199.178
194.263
189.56
184.985
180.502
176.119
171.85
167.688
163.638
159.806
156.313
153.245
150.657
148.629
147.232
146.504
146.45
147.034
148.11
149.384
150.826
152.379
153.996
155.63
157.251
158.845
160.406
161.938
163.45
164.96
166.486
168.059
169.705
171.455
173.352
175.428
177.734
180.265
215.809
210.771
206.256
201.876
197.724
193.772
189.947
186.217
182.58
179.043
175.595
172.234
169.028
166.059
163.38
161.03
159.066
157.546
156.509
155.976
155.942
156.368
157.04
157.911
158.945
160.102
161.344
162.645
163.985
165.354
166.75
168.172
169.627
171.125
172.679
174.302
176.004
177.806
179.719
181.746
183.906
216.056
211.681
207.753
203.97
200.408
197.035
193.785
190.628
187.563
184.587
181.693
178.873
176.174
173.652
171.341
169.267
167.471
165.998
164.88
164.142
163.793
163.844
164.14
164.635
165.304
166.119
167.051
168.075
169.175
170.34
171.56
172.833
174.158
175.535
176.97
178.466
180.023
181.649
183.345
185.107
186.937
216.237
212.4
208.949
205.647
202.555
199.64
196.843
194.138
191.521
188.989
186.531
184.143
181.855
179.707
177.722
175.917
174.323
172.97
171.888
171.097
170.611
170.464
170.539
170.797
171.223
171.795
172.492
173.294
174.186
175.157
176.197
177.302
178.464
179.683
180.957
182.283
183.658
185.085
186.558
188.072
189.625
216.38
212.988
209.932
207.024
204.315
201.771
199.34
196.999
194.742
192.565
190.459
188.42
186.467
184.631
182.927
181.368
179.974
178.769
177.775
177.011
176.489
176.25
176.205
176.321
176.59
176.995
177.52
178.149
178.87
179.672
180.546
181.486
182.483
183.535
184.637
185.784
186.971
188.196
189.455
190.741
192.049
216.5
213.481
210.757
208.178
205.786
203.548
201.418
199.375
197.412
195.527
193.709
191.955
190.28
188.704
187.241
185.897
184.689
183.634
182.748
182.048
181.544
181.276
181.172
181.208
181.378
181.671
182.072
182.57
183.153
183.814
184.543
185.334
186.178
187.072
188.01
188.986
189.994
191.033
192.097
193.179
194.274
216.605
213.904
211.462
209.161
207.036
205.054
203.175
201.38
199.662
198.018
196.439
194.922
193.478
192.121
190.862
189.706
188.664
187.749
186.975
186.353
185.893
185.63
185.505
185.498
185.609
185.826
186.139
186.537
187.013
187.558
188.164
188.825
189.535
190.287
191.078
191.9
192.749
193.623
194.515
195.42
196.332
216.702
214.272
212.074
210.01
208.111
206.347
204.68
203.094
201.582
200.141
198.763
197.444
196.193
195.022
193.937
192.942
192.046
191.259
190.59
190.049
189.642
189.402
189.275
189.249
189.324
189.491
189.741
190.064
190.455
190.906
191.411
191.963
192.557
193.187
193.85
194.539
195.25
195.98
196.725
197.479
198.237
216.792
214.597
212.609
210.75
209.046
207.468
205.982
204.574
203.237
201.968
200.76
199.609
198.523
197.509
196.572
195.716
194.947
194.272
193.699
193.234
192.883
192.672
192.555
192.524
192.578
192.711
192.914
193.181
193.505
193.88
194.301
194.763
195.259
195.786
196.341
196.916
197.51
198.119
198.739
199.367
199.996
216.878
214.887
213.083
211.401
209.866
208.448
207.118
205.863
204.676
203.555
202.492
201.484
200.538
199.658
198.849
198.112
197.452
196.875
196.387
195.991
195.693
195.513
195.411
195.38
195.424
195.533
195.702
195.925
196.195
196.51
196.862
197.249
197.664
198.106
198.569
199.05
199.545
200.052
200.569
201.091
201.614
216.96
215.148
213.505
211.978
210.589
209.31
208.116
206.993
205.936
204.942
204.004
203.12
202.293
201.528
200.828
200.193
199.628
199.136
198.721
198.388
198.137
197.987
197.9
197.875
197.912
198.005
198.148
198.336
198.564
198.829
199.125
199.45
199.799
200.168
200.556
200.957
201.371
201.794
202.224
202.66
203.094
217.039
215.384
213.882
212.491
211.23
210.073
208.997
207.989
207.045
206.161
205.331
204.553
203.83
203.164
202.558
202.011
201.527
201.109
200.758
200.478
200.269
200.146
200.075
200.056
200.089
200.17
200.293
200.453
200.647
200.871
201.122
201.395
201.689
201.999
202.324
202.66
203.006
203.359
203.718
204.082
204.443
217.115
215.598
214.221
212.95
211.801
210.751
209.778
208.871
208.026
207.238
206.502
205.817
205.183
204.602
204.077
203.606
203.192
202.836
202.54
202.306
202.134
202.034
201.978
201.965
201.997
202.069
202.175
202.313
202.479
202.67
202.882
203.113
203.361
203.622
203.895
204.177
204.466
204.763
205.063
205.366
205.668
217.188
215.793
214.526
213.36
212.311
211.355
210.473
209.655
208.896
208.192
207.539
206.933
206.377
205.871
205.415
205.01
204.656
204.354
204.105
203.91
203.77
203.69
203.646
203.639
203.67
203.735
203.828
203.948
204.09
204.253
204.434
204.63
204.839
205.059
205.289
205.527
205.77
206.018
206.27
206.524
206.776
217.259
215.97
214.801
213.729
212.767
211.894
211.092
210.352
209.669
209.039
208.458
207.923
207.434
206.993
206.598
206.249
205.947
205.691
205.482
205.321
205.207
205.145
205.112
205.11
205.14
205.198
205.281
205.385
205.508
205.648
205.802
205.969
206.147
206.333
206.527
206.727
206.932
207.141
207.352
207.566
207.777
217.325
216.132
215.049
214.06
213.175
212.376
211.644
210.973
210.358
209.793
209.276
208.802
208.373
207.987
207.645
207.345
207.087
206.871
206.697
206.564
206.472
206.425
206.401
206.403
206.433
206.486
206.559
206.65
206.757
206.877
207.01
207.152
207.303
207.461
207.625
207.794
207.967
208.143
208.321
208.501
208.678
217.389
216.279
215.273
214.357
213.54
212.806
212.138
211.528
210.971
210.465
210.003
209.584
209.206
208.87
208.574
208.316
208.097
207.915
207.77
207.661
207.588
207.552
207.536
207.542
207.571
207.62
207.685
207.765
207.858
207.962
208.076
208.198
208.326
208.461
208.6
208.743
208.889
209.037
209.187
209.339
209.488
217.449
216.413
215.474
214.623
213.867
213.19
212.577
212.022
211.518
211.062
210.651
210.279
209.947
209.654
209.398
209.177
208.991
208.838
208.718
208.63
208.572
208.547
208.537
208.546
208.575
208.619
208.678
208.748
208.829
208.919
209.017
209.122
209.231
209.346
209.464
209.585
209.709
209.834
209.961
210.089
210.215
217.505
216.534
215.655
214.86
214.158
213.532
212.969
212.461
212.005
211.594
211.226
210.897
210.606
210.35
210.129
209.94
209.783
209.655
209.557
209.486
209.442
209.425
209.421
209.432
209.459
209.501
209.553
209.616
209.686
209.765
209.849
209.939
210.033
210.13
210.231
210.334
210.439
210.545
210.652
210.76
210.866
217.557
216.642
215.816
215.071
214.416
213.835
213.316
212.851
212.436
212.067
211.738
211.446
211.19
210.968
210.778
210.617
210.484
210.379
210.298
210.243
210.209
210.199
210.199
210.213
210.239
210.277
210.325
210.38
210.442
210.51
210.583
210.66
210.741
210.824
210.91
210.998
211.086
211.176
211.267
211.358
211.447
217.605
216.739
215.958
215.258
214.644
214.103
213.623
213.196
212.818
212.484
212.19
211.932
211.708
211.515
211.352
211.216
211.105
211.018
210.954
210.91
210.887
210.882
210.886
210.901
210.927
210.963
211.006
211.055
211.11
211.169
211.232
211.299
211.368
211.439
211.513
211.587
211.662
211.738
211.815
211.892
211.967
217.649
216.825
216.084
215.422
214.844
214.338
213.892
213.499
213.154
212.852
212.589
212.361
212.165
211.998
211.859
211.744
211.652
211.582
211.531
211.499
211.483
211.483
211.49
211.506
211.532
211.565
211.604
211.648
211.696
211.748
211.803
211.86
211.92
211.981
212.043
212.107
212.171
212.235
212.3
212.365
212.429
217.689
216.9
216.192
215.563
215.017
214.541
214.125
213.762
213.447
213.174
212.939
212.737
212.566
212.423
212.304
212.209
212.134
212.078
212.039
212.016
212.007
212.012
212.022
212.039
212.064
212.095
212.131
212.171
212.214
212.26
212.308
212.358
212.409
212.461
212.515
212.569
212.623
212.678
212.732
212.787
212.84
217.724
216.965
216.285
215.684
215.164
214.715
214.325
213.989
213.7
213.452
213.242
213.064
212.915
212.793
212.694
212.615
212.555
212.511
212.483
212.468
212.465
212.473
212.485
212.503
212.528
212.557
212.59
212.626
212.664
212.704
212.747
212.79
212.834
212.879
212.925
212.971
213.017
213.063
213.11
213.156
213.201
217.754
217.018
216.361
215.783
215.286
214.86
214.493
214.18
213.914
213.69
213.502
213.345
213.217
213.113
213.031
212.968
212.921
212.889
212.87
212.863
212.866
212.878
212.892
212.912
212.937
212.965
212.996
213.029
213.064
213.1
213.137
213.175
213.214
213.252
213.292
213.331
213.37
213.409
213.448
213.487
213.524
217.78
217.061
216.422
215.862
215.384
214.976
214.63
214.337
214.092
213.888
213.72
213.583
213.473
213.386
213.319
213.269
213.234
213.212
213.201
213.2
213.207
213.221
213.238
213.258
213.282
213.309
213.338
213.369
213.4
213.433
213.466
213.499
213.533
213.566
213.6
213.634
213.667
213.701
213.734
213.767
213.798
217.801
217.094
216.467
215.921
215.457
215.065
214.736
214.461
214.234
214.049
213.899
213.779
213.686
213.614
213.562
213.526
213.503
213.491
213.489
213.495
213.507
213.526
213.546
213.568
213.593
213.62
213.649
213.678
213.707
213.737
213.767
213.797
213.826
213.856
213.885
213.914
213.942
213.97
213.998
214.025
214.051
217.818
217.117
216.499
215.963
215.509
215.129
214.813
214.553
214.341
214.172
214.038
213.934
213.856
213.798
213.758
213.733
213.719
213.714
213.718
213.729
213.745
213.765
213.786
213.81
213.835
213.861
213.888
213.915
213.943
213.97
213.997
214.024
214.051
214.077
214.102
214.127
214.152
214.176
214.2
214.223
214.245
217.829
217.13
216.515
215.985
215.539
215.168
214.863
214.615
214.417
214.261
214.141
214.052
213.988
213.945
213.919
213.907
213.906
213.913
213.927
213.946
213.969
213.994
214.02
214.047
214.074
214.102
214.13
214.157
214.184
214.21
214.236
214.26
214.285
214.308
214.33
214.352
214.373
214.394
214.413
214.433
214.451
217.834
217.124
216.505
215.975
215.532
215.167
214.871
214.635
214.45
214.308
214.202
214.126
214.073
214.04
214.023
214.018
214.023
214.036
214.054
214.076
214.101
214.128
214.155
214.182
214.21
214.238
214.265
214.291
214.317
214.342
214.366
214.389
214.412
214.433
214.454
214.473
214.492
214.51
214.527
214.544
214.56
217.831
217.104
216.472
215.935
215.489
215.126
214.836
214.609
214.435
214.307
214.216
214.157
214.124
214.111
214.115
214.131
214.155
214.186
214.218
214.252
214.286
214.321
214.355
214.387
214.419
214.45
214.479
214.506
214.533
214.557
214.581
214.603
214.624
214.643
214.662
214.679
214.695
214.711
214.725
214.739
214.752
160.775
165.473
171.7
176.657
181.817
187.241
192.448
197.25
201.571
205.371
208.648
211.428
213.754
215.674
217.237
218.491
219.482
220.252
220.838
221.271
221.582
221.792
221.923
221.991
222.009
221.989
221.939
221.868
221.78
221.681
221.575
221.464
221.351
221.239
221.128
221.019
220.915
220.814
220.717
220.625
220.537
220.454
220.375
220.3
220.23
220.163
220.1
220.04
219.984
219.931
219.88
219.833
219.788
219.746
219.706
219.668
219.633
219.599
219.567
219.537
219.509
219.482
219.457
219.433
219.41
219.39
219.37
219.353
219.337
219.324
219.311
219.307
219.291
219.312
157.103
163.411
170.005
175.533
181.079
186.731
192.107
197.04
201.457
205.325
208.648
211.458
213.802
215.731
217.296
218.549
219.535
220.299
220.878
221.305
221.609
221.813
221.939
222.001
222.015
221.991
221.938
221.864
221.773
221.673
221.565
221.453
221.339
221.226
221.114
221.005
220.9
220.799
220.703
220.611
220.523
220.44
220.362
220.287
220.217
220.15
220.087
220.028
219.972
219.919
219.869
219.822
219.778
219.736
219.696
219.659
219.624
219.59
219.559
219.529
219.501
219.474
219.449
219.426
219.404
219.383
219.364
219.347
219.331
219.319
219.306
219.302
219.286
219.308
153.822
160.175
167.575
174.039
180.14
186.114
191.714
196.806
201.336
205.283
208.66
211.504
213.866
215.804
217.371
218.62
219.601
220.357
220.927
221.346
221.642
221.839
221.957
222.014
222.022
221.993
221.937
221.859
221.766
221.663
221.553
221.44
221.325
221.211
221.099
220.99
220.884
220.783
220.687
220.595
220.508
220.425
220.346
220.272
220.202
220.136
220.074
220.015
219.959
219.907
219.857
219.811
219.767
219.725
219.686
219.649
219.614
219.581
219.55
219.52
219.492
219.466
219.441
219.418
219.396
219.376
219.357
219.341
219.325
219.313
219.3
219.297
219.281
219.303
151.108
156.932
164.721
172.123
178.942
185.353
191.248
196.545
201.214
205.253
208.69
211.571
213.953
215.899
217.466
218.71
219.682
220.428
220.987
221.396
221.681
221.869
221.979
222.028
222.03
221.997
221.935
221.854
221.758
221.652
221.541
221.425
221.309
221.194
221.082
220.972
220.867
220.766
220.669
220.577
220.49
220.408
220.33
220.256
220.186
220.121
220.059
220
219.945
219.893
219.844
219.798
219.754
219.713
219.674
219.638
219.603
219.57
219.54
219.511
219.483
219.457
219.433
219.41
219.388
219.369
219.35
219.334
219.319
219.307
219.294
219.291
219.276
219.298
149.469
154.497
161.976
169.923
177.454
184.413
190.687
196.245
201.091
205.245
208.75
211.67
214.072
216.024
217.588
218.823
219.783
220.515
221.061
221.456
221.729
221.905
222.006
222.046
222.041
222.001
221.934
221.848
221.749
221.64
221.526
221.409
221.292
221.176
221.062
220.952
220.847
220.745
220.649
220.558
220.471
220.389
220.311
220.238
220.169
220.104
220.042
219.984
219.93
219.878
219.83
219.784
219.741
219.7
219.662
219.626
219.592
219.559
219.529
219.5
219.473
219.448
219.424
219.401
219.38
219.361
219.343
219.327
219.312
219.3
219.288
219.286
219.271
219.293
148.737
152.964
159.806
167.808
175.804
183.292
190.015
195.893
200.957
205.259
208.853
211.817
214.236
216.19
217.747
218.968
219.911
220.625
221.153
221.53
221.788
221.95
222.038
222.068
222.054
222.006
221.933
221.842
221.738
221.626
221.509
221.39
221.271
221.154
221.04
220.93
220.824
220.723
220.627
220.535
220.449
220.368
220.291
220.218
220.149
220.085
220.024
219.967
219.913
219.862
219.814
219.769
219.726
219.686
219.648
219.613
219.579
219.547
219.517
219.489
219.463
219.437
219.414
219.392
219.371
219.352
219.334
219.319
219.304
219.293
219.282
219.279
219.265
219.288
148.72
152.335
158.523
166.202
174.296
182.118
189.251
195.487
200.81
205.285
208.994
212.021
214.463
216.414
217.955
219.155
220.073
220.763
221.267
221.623
221.86
222.005
222.077
222.095
222.069
222.012
221.932
221.835
221.726
221.61
221.49
221.369
221.248
221.13
221.015
220.904
220.798
220.697
220.601
220.51
220.425
220.344
220.267
220.195
220.128
220.064
220.004
219.947
219.894
219.844
219.797
219.752
219.71
219.671
219.634
219.599
219.566
219.534
219.505
219.477
219.451
219.426
219.403
219.382
219.361
219.343
219.326
219.31
219.296
219.286
219.275
219.273
219.259
219.282
149.368
152.628
158.256
165.435
173.295
181.159
188.523
195.062
200.657
205.329
209.164
212.269
214.751
216.709
218.231
219.399
220.283
220.939
221.411
221.738
221.95
222.072
222.126
222.127
222.088
222.02
221.931
221.826
221.712
221.591
221.468
221.344
221.221
221.101
220.985
220.874
220.768
220.667
220.572
220.482
220.397
220.317
220.241
220.17
220.103
220.04
219.981
219.925
219.873
219.824
219.777
219.734
219.693
219.654
219.617
219.583
219.551
219.52
219.491
219.464
219.439
219.415
219.392
219.371
219.351
219.333
219.316
219.302
219.288
219.278
219.267
219.266
219.252
219.276
150.603
153.791
159.001
165.668
173.107
180.735
188.074
194.741
200.536
205.402
209.374
212.556
215.079
217.053
218.569
219.71
220.552
221.163
221.594
221.883
222.062
222.156
222.186
222.168
222.112
222.031
221.93
221.817
221.696
221.569
221.442
221.315
221.19
221.068
220.952
220.84
220.734
220.634
220.539
220.449
220.365
220.286
220.212
220.142
220.076
220.014
219.956
219.901
219.85
219.802
219.756
219.713
219.673
219.635
219.6
219.566
219.535
219.505
219.477
219.45
219.425
219.402
219.38
219.359
219.34
219.322
219.306
219.292
219.279
219.269
219.259
219.258
219.245
219.269
152.245
155.634
160.674
166.893
173.867
181.098
188.175
194.742
200.567
205.538
209.626
212.891
215.451
217.432
218.939
220.06
220.872
221.441
221.824
222.065
222.202
222.261
222.261
222.217
222.142
222.044
221.93
221.806
221.676
221.544
221.411
221.28
221.153
221.03
220.912
220.8
220.694
220.594
220.5
220.412
220.329
220.251
220.178
220.109
220.045
219.984
219.927
219.874
219.824
219.777
219.732
219.691
219.652
219.615
219.58
219.548
219.517
219.488
219.461
219.435
219.411
219.388
219.367
219.347
219.328
219.311
219.295
219.282
219.269
219.26
219.251
219.25
219.238
219.262
153.973
157.787
162.965
168.96
175.521
182.307
189
195.281
200.936
205.847
209.949
213.258
215.857
217.849
219.336
220.422
221.199
221.735
222.081
222.282
222.374
222.39
222.353
222.278
222.177
222.059
221.93
221.793
221.653
221.513
221.375
221.24
221.109
220.985
220.866
220.754
220.648
220.549
220.456
220.369
220.287
220.211
220.139
220.072
220.009
219.95
219.895
219.843
219.794
219.749
219.706
219.666
219.628
219.592
219.558
219.527
219.497
219.469
219.443
219.418
219.395
219.373
219.352
219.333
219.315
219.299
219.284
219.271
219.259
219.251
219.242
219.242
219.23
219.255
155.603
159.858
165.333
171.402
177.771
184.221
190.514
196.419
201.771
206.464
210.436
213.686
216.275
218.27
219.746
220.798
221.526
222.013
222.317
222.483
222.545
222.53
222.46
222.351
222.221
222.078
221.928
221.777
221.625
221.476
221.331
221.191
221.058
220.931
220.812
220.699
220.594
220.496
220.404
220.319
220.239
220.165
220.095
220.03
219.969
219.912
219.858
219.808
219.761
219.717
219.676
219.637
219.601
219.567
219.534
219.504
219.476
219.449
219.423
219.4
219.377
219.356
219.337
219.318
219.301
219.286
219.271
219.259
219.248
219.24
219.232
219.233
219.222
219.247
157.644
162.057
167.576
173.714
180.05
186.355
192.396
197.99
203.016
207.416
211.157
214.243
216.731
218.672
220.116
221.142
221.837
222.279
222.53
222.645
222.668
222.626
222.537
222.411
222.261
222.097
221.927
221.756
221.59
221.431
221.278
221.133
220.996
220.867
220.747
220.635
220.53
220.434
220.344
220.26
220.183
220.111
220.043
219.981
219.922
219.867
219.816
219.768
219.724
219.682
219.642
219.605
219.571
219.538
219.507
219.479
219.451
219.426
219.402
219.379
219.358
219.338
219.319
219.302
219.286
219.271
219.258
219.246
219.236
219.229
219.222
219.223
219.213
219.238
161.761
165.44
170.286
176.179
182.314
188.375
194.185
199.569
204.384
208.542
212.038
214.916
217.241
219.064
220.431
221.409
222.075
222.49
222.706
222.776
222.751
222.667
222.545
222.401
222.242
222.075
221.901
221.724
221.547
221.376
221.214
221.062
220.921
220.79
220.669
220.558
220.455
220.36
220.273
220.192
220.117
220.048
219.984
219.924
219.868
219.816
219.768
219.723
219.68
219.641
219.604
219.569
219.536
219.506
219.477
219.45
219.425
219.401
219.378
219.357
219.337
219.318
219.301
219.284
219.269
219.256
219.243
219.233
219.223
219.217
219.21
219.213
219.204
219.229
167.701
170.92
175.031
180.368
185.955
191.375
196.553
201.376
205.716
209.508
212.749
215.445
217.613
219.304
220.58
221.506
222.144
222.548
222.761
222.827
222.79
222.682
222.527
222.345
222.158
221.975
221.798
221.625
221.456
221.291
221.13
220.975
220.83
220.697
220.575
220.464
220.364
220.272
220.188
220.111
220.04
219.974
219.914
219.858
219.806
219.757
219.712
219.67
219.631
219.594
219.56
219.528
219.498
219.469
219.443
219.418
219.394
219.372
219.351
219.332
219.313
219.296
219.28
219.265
219.251
219.239
219.227
219.218
219.209
219.204
219.199
219.202
219.194
219.22
173.618
176.522
179.857
184.162
188.846
193.537
198.158
202.61
206.737
210.411
213.564
216.172
218.239
219.797
220.911
221.665
222.145
222.43
222.58
222.63
222.606
222.522
222.389
222.22
222.033
221.839
221.646
221.461
221.289
221.13
220.983
220.843
220.71
220.584
220.465
220.355
220.256
220.167
220.087
220.014
219.948
219.888
219.832
219.78
219.733
219.689
219.648
219.609
219.574
219.541
219.51
219.481
219.454
219.428
219.404
219.382
219.36
219.341
219.322
219.304
219.287
219.272
219.257
219.244
219.231
219.22
219.21
219.202
219.195
219.19
219.186
219.19
219.183
219.21
178.906
181.521
184.29
187.522
191.061
194.72
198.423
202.109
205.68
209.035
212.091
214.783
217.066
218.921
220.36
221.415
222.124
222.535
222.701
222.688
222.558
222.37
222.165
221.964
221.773
221.589
221.409
221.231
221.06
220.9
220.753
220.62
220.503
220.398
220.301
220.21
220.124
220.044
219.969
219.901
219.84
219.785
219.735
219.689
219.647
219.608
219.572
219.539
219.508
219.479
219.452
219.427
219.403
219.381
219.36
219.341
219.322
219.305
219.288
219.273
219.258
219.245
219.232
219.22
219.21
219.2
219.191
219.184
219.178
219.175
219.172
219.177
219.172
219.199
182.739
184.952
187.264
189.755
192.431
195.232
198.106
201.008
203.887
206.687
209.355
211.841
214.105
216.11
217.829
219.245
220.352
221.161
221.702
222.017
222.149
222.138
222.024
221.841
221.622
221.395
221.18
220.985
220.812
220.658
220.518
220.392
220.278
220.176
220.088
220.011
219.943
219.881
219.824
219.769
219.717
219.669
219.625
219.586
219.55
219.517
219.487
219.459
219.434
219.41
219.387
219.366
219.347
219.329
219.311
219.295
219.28
219.265
219.252
219.239
219.227
219.215
219.205
219.195
219.186
219.178
219.171
219.165
219.161
219.159
219.157
219.163
219.16
219.188
185.848
187.675
189.59
191.584
193.683
195.878
198.138
200.434
202.735
205.009
207.221
209.337
211.327
213.164
214.83
216.31
217.594
218.679
219.563
220.249
220.744
221.063
221.229
221.272
221.223
221.11
220.958
220.786
220.61
220.445
220.297
220.171
220.063
219.97
219.888
219.816
219.753
219.699
219.652
219.612
219.574
219.54
219.506
219.475
219.446
219.419
219.395
219.373
219.353
219.335
219.318
219.301
219.286
219.272
219.259
219.246
219.234
219.223
219.212
219.202
219.192
219.184
219.175
219.167
219.16
219.154
219.149
219.145
219.142
219.142
219.142
219.149
219.147
219.176
188.542
190.028
191.582
193.184
194.858
196.605
198.406
200.244
202.102
203.958
205.791
207.577
209.293
210.919
212.437
213.832
215.094
216.218
217.202
218.045
218.752
219.327
219.775
220.102
220.315
220.426
220.452
220.415
220.333
220.224
220.103
219.981
219.867
219.766
219.683
219.615
219.56
219.514
219.475
219.442
219.414
219.391
219.37
219.351
219.333
219.314
219.297
219.282
219.268
219.255
219.243
219.232
219.222
219.212
219.203
219.194
219.185
219.178
219.17
219.163
219.156
219.15
219.144
219.138
219.134
219.129
219.126
219.124
219.123
219.124
219.125
219.134
219.133
219.163
190.962
192.16
193.408
194.697
196.042
197.444
198.893
200.378
201.888
203.41
204.931
206.434
207.902
209.321
210.673
211.947
213.131
214.217
215.198
216.075
216.848
217.521
218.099
218.585
218.986
219.302
219.539
219.698
219.787
219.815
219.796
219.744
219.673
219.593
219.513
219.439
219.376
219.328
219.292
219.266
219.247
219.232
219.221
219.212
219.205
219.198
219.191
219.184
219.176
219.169
219.163
219.157
219.152
219.147
219.143
219.138
219.134
219.129
219.125
219.121
219.118
219.114
219.111
219.108
219.105
219.103
219.101
219.101
219.102
219.105
219.108
219.118
219.119
219.15
193.158
194.118
195.118
196.154
197.237
198.367
199.537
200.741
201.972
203.224
204.485
205.747
206.996
208.221
209.411
210.555
211.641
212.66
213.607
214.475
215.263
215.969
216.596
217.146
217.626
218.04
218.394
218.69
218.93
219.114
219.243
219.321
219.353
219.349
219.32
219.277
219.227
219.178
219.135
219.101
219.08
219.069
219.065
219.065
219.066
219.069
219.073
219.076
219.078
219.079
219.079
219.079
219.079
219.079
219.079
219.079
219.078
219.078
219.078
219.077
219.076
219.076
219.075
219.075
219.074
219.075
219.075
219.077
219.079
219.084
219.089
219.101
219.103
219.136
195.191
195.957
196.755
197.586
198.457
199.367
200.311
201.288
202.292
203.319
204.362
205.416
206.471
207.52
208.554
209.564
210.541
211.477
212.364
213.197
213.971
214.683
215.331
215.915
216.437
216.9
217.308
217.665
217.978
218.248
218.479
218.671
218.821
218.929
218.997
219.031
219.036
219.023
219
218.972
218.946
218.926
218.915
218.915
218.922
218.933
218.945
218.957
218.968
218.979
218.988
218.995
219.001
219.006
219.011
219.015
219.02
219.023
219.027
219.03
219.033
219.035
219.037
219.04
219.042
219.045
219.048
219.051
219.056
219.062
219.069
219.083
219.087
219.122
197.089
197.697
198.331
198.996
199.694
200.425
201.186
201.976
202.793
203.633
204.493