/*--------------------------------*- C++ -*----------------------------------*\
| =========                 |                                                 |
| \\      /  F ield         | OpenFOAM: The Open Source CFD Toolbox           |
|  \\    /   O peration     | Version:  5.x                                   |
|   \\  /    A nd           | Web:      www.OpenFOAM.org                      |
|    \\/     M anipulation  |                                                 |
\*---------------------------------------------------------------------------*/
FoamFile
{
    version     2.0;
    format      ascii;
    class       surfaceScalarField;
    location    "650";
    object      phi;
}
// * * * * * * * * * * * * * * * * * * * * * * * * * * * * * * * * * * * * * //

dimensions      [0 3 -1 0 0 0 0];

internalField   nonuniform List<scalar> 
21876
(
0.0302887
-0.00418826
-0.0261
0.0395648
-0.00927607
0.0396456
-8.07735e-05
0.040082
-0.000436405
0.0383075
0.00177453
0.0354965
0.002811
0.0324072
0.00308927
0.0293443
0.00306299
0.0263751
0.00296918
0.0232227
0.00315242
0.0195716
0.00365109
0.0166987
0.00287289
0.0148988
0.00179976
0.0135692
0.00132977
0.0119772
0.00159265
0.0102072
0.00177148
0.00824587
0.00196726
0.00610352
0.00215094
0.00379242
0.00230987
0.00152185
0.0022613
-0.000363022
0.00188059
-0.001484
0.0011189
-0.00224574
0.000761934
-0.0027002
0.000455352
-0.00295512
0.000255412
-0.00309003
0.000133719
-0.00316966
7.79629e-05
-0.00323945
6.85054e-05
-0.00332505
8.5419e-05
-0.00344272
0.00011776
-0.00360426
0.000161553
-0.0038181
0.00021381
-0.00407866
0.000260433
-0.00435357
0.000274649
-0.0045744
0.000219889
-0.00461798
4.17195e-05
-0.00433653
-0.000282933
-0.00371554
-0.00062128
-0.00314068
-0.000574427
-0.00132581
-0.00181415
-0.00880206
0.00747606
0.0366769
-0.0105456
-0.0303196
0.0443509
-0.0169501
0.0464231
-0.00215296
0.0479973
-0.00201057
0.0486518
0.00112003
0.0482427
0.00322014
0.0468565
0.00447548
0.0446385
0.00528101
0.041827
0.00578062
0.0384329
0.00654657
0.0342672
0.00781679
0.0301828
0.00695725
0.0267225
0.0052601
0.0237892
0.00426316
0.0209933
0.00438888
0.0182583
0.00450743
0.0154004
0.00482766
0.012295
0.00525852
0.00892141
0.00568119
0.00538932
0.00578903
0.00201373
0.00525326
-0.000133201
0.00326424
-0.00159301
0.00222116
-0.00253306
0.00139486
-0.00311814
0.00084
-0.00348666
0.000502009
-0.00374915
0.000340934
-0.00397253
0.000292539
-0.00419353
0.000306912
-0.00443253
0.000356967
-0.00469572
0.000424792
-0.00497913
0.000497228
-0.00526318
0.000544423
-0.00550898
0.000520318
-0.0056618
0.000372512
-0.00564383
2.38534e-05
-0.00528912
-0.00063675
-0.00437542
-0.00153341
-0.00277441
-0.00217476
-0.000302256
-0.00428739
-0.0151116
0.00600701
0.0429623
-0.0178624
-0.0356454
0.0497717
-0.0237595
0.0539133
-0.0062945
0.056079
-0.00417627
0.0570017
0.00019733
0.0568648
0.00335705
0.0559412
0.00539908
0.0543698
0.00685243
0.0522288
0.0079216
0.0494611
0.00931424
0.045847
0.0114309
0.0419173
0.010887
0.0381553
0.009022
0.0345535
0.00786502
0.0309075
0.00803511
0.0272759
0.008139
0.0235555
0.00854697
0.0196017
0.00921057
0.0152989
0.00998308
0.0106454
0.010444
0.0059102
0.0099903
0.00259134
0.00658337
0.000126284
0.00468621
-0.00155887
0.00307963
-0.00266747
0.00194834
-0.00340687
0.00124141
-0.00393178
0.000866331
-0.00433877
0.000699778
-0.00469058
0.000658833
-0.0050249
0.000691363
-0.00536005
0.000759952
-0.00570296
0.000840138
-0.00604699
0.000888432
-0.00636485
0.000838234
-0.00660022
0.00060815
-0.0066466
7.07264e-05
-0.00631178
-0.000970782
-0.00530743
-0.00253777
-0.0033416
-0.0041412
-0.000509501
-0.00711933
-0.0197615
0.0041405
0.0499025
-0.0259782
-0.0417866
0.0566306
-0.0304876
0.0618321
-0.011496
0.0647833
-0.00712743
0.0662708
-0.00129018
0.0665322
0.00309565
0.0657941
0.00613717
0.0643184
0.00832812
0.0623038
0.00993625
0.0597841
0.0118339
0.0565982
0.0146169
0.0530752
0.01441
0.0496034
0.0124937
0.0461092
0.0113593
0.042327
0.0118175
0.0382878
0.0121784
0.0339679
0.012867
0.029275
0.0139032
0.0240881
0.0151699
0.0183179
0.0162148
0.0120998
0.0162089
0.00731261
0.0113706
0.00338799
0.00861068
0.00051821
0.00594901
-0.00144211
0.00390822
-0.0027701
0.00256925
-0.00369767
0.00179419
-0.004384
0.00138646
-0.00493249
0.00120755
-0.00540665
0.00116562
-0.00584833
0.00120166
-0.00628583
0.00127764
-0.00673003
0.00133261
-0.00716175
0.00126993
-0.00751815
0.000964628
-0.00767557
0.000228501
-0.00742941
-0.00121632
-0.00645353
-0.00351325
-0.00438934
-0.00620548
-0.00135569
-0.0101533
-0.0233264
0.00220903
0.0575535
-0.0348652
-0.0486664
0.0645724
-0.0375066
0.0706312
-0.0175547
0.0747087
-0.011205
0.077138
-0.00371939
0.0781458
0.00208785
0.0778811
0.00640182
0.0765858
0.00962346
0.0745338
0.0119883
0.0718756
0.014492
0.0686025
0.0178901
0.0650315
0.017981
0.0615851
0.0159401
0.0582362
0.0147083
0.054673
0.0153808
0.050774
0.0160773
0.0464412
0.0171991
0.041527
0.0188163
0.0358601
0.0208367
0.0292559
0.0228201
0.0216751
0.0237909
0.015271
0.0177749
0.00942506
0.0144567
0.00470796
0.010666
0.00127446
0.0073416
-0.00109041
0.00493414
-0.00271916
0.00342315
-0.00388462
0.002552
-0.00476401
0.00208698
-0.00546976
0.0018714
-0.00608108
0.001813
-0.00665702
0.00185358
-0.00723493
0.0019105
-0.00781312
0.00184816
-0.00833288
0.00148455
-0.00866439
0.000560305
-0.00859766
-0.00128271
-0.0077925
-0.00431859
-0.00586528
-0.00813308
-0.00284324
-0.0131752
-0.0261248
-4.48297e-05
0.0660155
-0.0445936
-0.0562871
0.0736215
-0.0451126
0.0805008
-0.024434
0.0857131
-0.0164172
0.089235
-0.00724128
0.0912092
0.000113693
0.0917453
0.00586573
0.0909946
0.0103741
0.0892033
0.0137796
0.0865577
0.0171377
0.0831382
0.0213095
0.0792678
0.0218514
0.0754538
0.0197541
0.0718384
0.0183239
0.0682365
0.0189828
0.0644868
0.0198271
0.0604403
0.0212456
0.0558596
0.0233969
0.0504319
0.0262645
0.0437652
0.0294874
0.035519
0.0320374
0.0278206
0.0254734
0.0199264
0.0223509
0.0127396
0.0178526
0.00694956
0.0131315
0.00271299
0.00917064
-0.000240379
0.00637658
-0.00230706
0.00461876
-0.00380301
0.00358299
-0.00493481
0.00300326
-0.00584487
0.00272308
-0.00663863
0.00264734
-0.00739581
0.00266767
-0.0081534
0.00260575
-0.00888073
0.00221194
-0.00946041
0.00114014
-0.00968956
-0.00105338
-0.00923951
-0.00476864
-0.00772316
-0.00964948
-0.00502899
-0.0158694
-0.0282686
-0.0028852
0.0754246
-0.0553376
-0.0646806
0.083901
-0.053589
0.0916742
-0.0322072
0.0979966
-0.0227395
0.10268
-0.0119251
0.105761
-0.00296646
0.107302
0.0043245
0.107388
0.0102881
0.106197
0.0149703
0.103906
0.0194287
0.100618
0.0245975
0.0965982
0.0258713
0.092371
0.0239814
0.0882347
0.0224602
0.0842056
0.0230121
0.0802141
0.0238186
0.0761905
0.0252689
0.0719613
0.0276257
0.067197
0.0310287
0.0613444
0.0353403
0.0536817
0.0397007
0.0457649
0.0333904
0.036572
0.0315438
0.0269427
0.0274818
0.0180469
0.0220272
0.0107786
0.016439
0.0053755
0.0117798
0.00154232
0.00845195
-0.00117642
0.00630172
-0.00315702
0.00498388
-0.00465632
0.00422239
-0.00585755
0.00384856
-0.0069073
0.00371741
-0.00790999
0.00360846
-0.00889758
0.00319961
-0.00980042
0.00204312
-0.0104572
-0.000396514
-0.0105859
-0.00464
-0.00980733
-0.0104282
-0.00787933
-0.0177973
-0.0296535
-0.00649436
0.0859439
-0.0673721
-0.0739093
0.0955847
-0.0632298
0.104407
-0.04103
0.111855
-0.0301872
0.11773
-0.0178
0.122004
-0.00724072
0.124683
0.00164607
0.125814
0.00915653
0.125502
0.0152829
0.123896
0.0210342
0.121099
0.0273953
0.11728
0.0296894
0.112898
0.0283635
0.108327
0.0270312
0.103759
0.0275801
0.099244
0.0283341
0.0948254
0.0296874
0.0904974
0.0319536
0.0861213
0.0354049
0.0812881
0.0401739
0.0751729
0.0458161
0.068464
0.0400994
0.0597497
0.0402581
0.0491645
0.038067
0.0376554
0.0335363
0.026641
0.0274534
0.017331
0.0210898
0.0101987
0.0155842
0.00502087
0.0114796
0.00129659
0.00870816
-0.00142688
0.00694587
-0.00348045
0.00590214
-0.0051171
0.00535406
-0.00654638
0.00503776
-0.0079095
0.00456279
-0.00923548
0.00336917
-0.0104589
0.00082695
-0.011401
-0.00369803
-0.0117208
-0.0101084
-0.011107
-0.0184111
-0.0299014
-0.0108591
0.0977783
-0.0810655
-0.0840849
0.108914
-0.0743652
0.119012
-0.051128
0.12767
-0.038846
0.134763
-0.0248929
0.140261
-0.0127385
0.144151
-0.00224387
0.14646
0.0068479
0.147231
0.0145117
0.146584
0.0216809
0.144607
0.0293729
0.141373
0.0329227
0.137225
0.0325116
0.132537
0.0317193
0.127617
0.0325008
0.122613
0.0333375
0.11765
0.034651
0.112847
0.0367564
0.108278
0.0399741
0.10387
0.0445812
0.0991334
0.0505531
0.0942694
0.0449635
0.0877046
0.0468229
0.0786973
0.0470743
0.0671667
0.0450669
0.0539395
0.0406806
0.040538
0.0344913
0.0285317
0.0275904
0.0188517
0.0211596
0.0115729
0.015987
0.00624656
0.0122722
0.00233933
0.00980937
-0.000587925
0.00828131
-0.00291111
0.00736096
-0.00494969
0.00660142
-0.00690378
0.00532333
-0.0088783
0.0028015
-0.0108687
-0.00170766
-0.0126406
-0.00833662
-0.0139139
-0.0171378
-0.0284012
-0.0154141
0.111186
-0.0968781
-0.0953735
0.124204
-0.087383
0.135869
-0.0627934
0.145905
-0.0488813
0.154283
-0.0332712
0.161026
-0.0194816
0.166156
-0.00737366
0.169695
0.00330931
0.171666
0.0125406
0.172166
0.0211804
0.171267
0.030272
0.168956
0.0352338
0.165444
0.0360238
0.161051
0.0361121
0.156134
0.0374182
0.150917
0.038554
0.145575
0.0399936
0.140287
0.0420441
0.135232
0.0450286
0.130576
0.0492372
0.126267
0.0548628
0.122619
0.048611
0.118322
0.0511207
0.112375
0.0530205
0.103827
0.053615
0.0922361
0.0522717
0.0780327
0.0486948
0.0625236
0.0430995
0.0474472
0.036236
0.0342876
0.0291465
0.0237655
0.0227943
0.0158142
0.0177607
0.00993739
0.0141581
0.00553759
0.0117608
0.00203642
0.0101026
-0.00104461
0.00840439
-0.00411288
0.00586975
-0.00744725
0.00162664
-0.0110066
-0.00477724
-0.0146471
-0.0134973
-0.0244535
-0.0185947
0.126492
-0.115369
-0.108001
0.141857
-0.102748
0.155456
-0.0763928
0.167119
-0.0605437
0.176921
-0.0430741
0.184968
-0.0275278
0.191347
-0.0137527
0.196117
-0.0014612
0.199317
0.00934071
0.201048
0.0194492
0.20138
0.0299402
0.200235
0.0363793
0.197701
0.0385573
0.194018
0.0397956
0.189524
0.041912
0.184483
0.0435952
0.179107
0.0453687
0.173609
0.0475421
0.168202
0.0504361
0.16312
0.0543192
0.158546
0.059437
0.155097
0.0520602
0.15187
0.0543479
0.148269
0.0566214
0.143367
0.0585171
0.136108
0.0595304
0.125683
0.0591201
0.11194
0.0568424
0.0955991
0.0525767
0.0781087
0.0466369
0.0611924
0.0397107
0.0462924
0.0326607
0.0341778
0.0262727
0.024857
0.0210817
0.0177672
0.0171924
0.0121436
0.0140281
0.00711554
0.0108977
0.00190879
0.00683335
-0.00383697
0.000968509
-0.0102351
-0.00709913
-0.0174348
-0.0172538
0.144103
-0.137211
-0.122261
0.162375
-0.12102
0.178362
-0.0923798
0.191992
-0.0741734
0.203444
-0.0545266
0.212917
-0.0369999
0.220583
-0.0214196
0.226582
-0.00745949
0.230985
0.00493759
0.233937
0.0164974
0.235532
0.0283446
0.235666
0.0362454
0.234336
0.0398871
0.231698
0.0424341
0.228028
0.0455813
0.223578
0.0480452
0.218581
0.0503662
0.213267
0.0528562
0.207868
0.0558351
0.202624
0.0595632
0.197771
0.0642894
0.194067
0.0557646
0.19087
0.057545
0.18803
0.0594617
0.185147
0.0613996
0.181514
0.0631632
0.176161
0.0644729
0.168086
0.0649183
0.156604
0.0640584
0.14167
0.0615704
0.123995
0.0573864
0.104903
0.0517525
0.0860027
0.0451729
0.0687377
0.0383467
0.0539975
0.0319326
0.0420632
0.0259624
0.0323125
0.0206484
0.0235524
0.0155934
0.0147582
0.0097627
0.00514188
0.00251719
-0.00667805
-0.00561488
0.164525
-0.163212
-0.138524
0.186382
-0.142876
0.205315
-0.111313
0.221351
-0.0902097
0.234775
-0.0679503
0.245882
-0.0481071
0.254946
-0.0304829
0.262197
-0.014711
0.267774
-0.000639006
0.271887
0.0123838
0.274686
0.0255459
0.276083
0.0348486
0.276032
0.0399379
0.274632
0.0438345
0.272085
0.0481279
0.268591
0.0515392
0.264368
0.0545893
0.259646
0.0575777
0.254668
0.0608134
0.249678
0.0645538
0.244918
0.069049
0.241103
0.0595801
0.237745
0.0609028
0.234861
0.0623453
0.2324
0.0638609
0.230173
0.0653902
0.227761
0.0668844
0.224464
0.068216
0.219366
0.0691564
0.211549
0.0693868
0.200372
0.0685635
0.185704
0.0664205
0.168025
0.0628521
0.148313
0.0580587
0.127793
0.052453
0.107913
0.0458418
0.0896152
0.0389465
0.0729934
0.0322152
0.057679
0.0250771
0.0427751
0.0174211
0.00878442
0.0273126
0.188384
-0.194346
-0.157249
0.214645
-0.169138
0.237207
-0.133875
0.256202
-0.109204
0.272022
-0.0837703
0.28507
-0.061155
0.295724
-0.0411369
0.304318
-0.0233048
0.311084
-0.0074048
0.316305
0.00716193
0.320209
0.0216422
0.322766
0.0322922
0.323936
0.0387674
0.323803
0.0439675
0.322517
0.0494146
0.320215
0.0538408
0.317075
0.057729
0.313302
0.061351
0.309124
0.0649915
0.304784
0.0688939
0.300532
0.0733005
0.296934
0.0631787
0.293693
0.064144
0.290844
0.065194
0.288408
0.0662968
0.286391
0.0674067
0.284753
0.0685229
0.28333
0.0696386
0.281758
0.0707283
0.279434
0.0717109
0.275574
0.0724236
0.269363
0.0726314
0.260154
0.0720611
0.247615
0.0705977
0.231768
0.0683003
0.213216
0.064394
0.19275
0.0594126
0.170996
0.0539686
0.148693
0.0473803
0.126049
0.040065
0.0318114
0.103022
0.216447
-0.231791
-0.179002
0.248107
-0.200799
0.275132
-0.160899
0.297766
-0.131839
0.316524
-0.102528
0.331924
-0.076555
0.344459
-0.0536722
0.354575
-0.0334205
0.362611
-0.0154409
0.368935
0.000837981
0.373865
0.0167127
0.377454
0.0287031
0.379713
0.0365088
0.380748
0.042932
0.380694
0.049469
0.37965
0.0548846
0.377751
0.0596276
0.375161
0.0639411
0.372074
0.0680788
0.368708
0.0722593
0.365307
0.0767017
0.362203
0.066283
0.359368
0.066979
0.356853
0.0677086
0.354682
0.0684682
0.352867
0.0692213
0.351428
0.0699625
0.350382
0.0706841
0.349717
0.0713936
0.349326
0.0721014
0.348952
0.0727979
0.348151
0.0734322
0.346323
0.0738894
0.342781
0.07414
0.336832
0.0742487
0.328012
0.0732146
0.31606
0.0713641
0.300795
0.0692343
0.282447
0.0657275
0.261239
0.061273
0.0556031
0.237448
0.24965
-0.276971
-0.20447
0.287917
-0.239065
0.320418
-0.193401
0.347529
-0.158949
0.369899
-0.124899
0.38818
-0.0948356
0.402992
-0.0684848
0.414905
-0.0453326
0.424374
-0.0249104
0.431871
-0.00665865
0.437804
0.0107795
0.442329
0.0241781
0.445532
0.0333059
0.447575
0.0408891
0.448612
0.048432
0.44874
0.054757
0.448071
0.0602963
0.446736
0.0652764
0.444888
0.0699262
0.442708
0.0744391
0.440406
0.0790043
0.437997
0.0686914
0.435762
0.0692143
0.433778
0.0696924
0.43209
0.070156
0.430717
0.0705951
0.429662
0.071017
0.428933
0.0714131
0.428547
0.07178
0.428526
0.0721221
0.428878
0.0724456
0.429556
0.0727543
0.430414
0.0730318
0.431175
0.0733788
0.431416
0.0740075
0.430622
0.074009
0.428223
0.0737629
0.423589
0.0738684
0.416233
0.0730837
0.405804
0.0717021
0.0696026
0.391804
0.289105
-0.331608
-0.234469
0.335445
-0.285405
0.374661
-0.232617
0.407273
-0.191561
0.434091
-0.151716
0.455918
-0.116663
0.473524
-0.0860907
0.487615
-0.059423
0.49878
-0.0360753
0.507603
-0.0154819
0.514594
0.00378824
0.520021
0.0187511
0.524062
0.0292648
0.526953
0.0379978
0.528898
0.0464879
0.530019
0.0536358
0.530438
0.0598776
0.530272
0.065442
0.52965
0.0705485
0.528714
0.0753748
0.527632
0.0800865
0.526041
0.0702822
0.524528
0.0707277
0.523185
0.071035
0.522078
0.0712628
0.521246
0.0714269
0.520706
0.0715571
0.520459
0.0716608
0.520496
0.0717423
0.520814
0.0718047
0.521413
0.0718463
0.522303
0.0718639
0.523491
0.0718446
0.524955
0.0719144
0.526623
0.0723395
0.528348
0.0722842
0.529886
0.072225
0.530884
0.0728703
0.530902
0.0730652
0.529531
0.0730735
0.0731311
0.526002
0.305037
-0.391563
-0.245082
0.355937
-0.336304
0.398906
-0.275586
0.434563
-0.227218
0.463814
-0.180968
0.48755
-0.1404
0.506625
-0.105166
0.521824
-0.0746215
0.533816
-0.0480673
0.543245
-0.0249107
0.550676
-0.00364281
0.556455
0.0129716
0.560837
0.0248832
0.564111
0.0347235
0.566522
0.0440769
0.568229
0.0519289
0.569371
0.058736
0.570068
0.0647451
0.570433
0.0701831
0.570581
0.0752272
0.570634
0.0800332
0.569911
0.0710057
0.569198
0.0714407
0.568579
0.0716535
0.56812
0.0717221
0.567865
0.0716818
0.567842
0.0715795
0.568064
0.0714386
0.568529
0.0712776
0.569224
0.0711101
0.570129
0.070941
0.571224
0.0707687
0.572492
0.0705773
0.573917
0.0704891
0.575487
0.0707691
0.577189
0.0705822
0.57899
0.0704248
0.580823
0.0710367
0.582576
0.0713122
0.584128
0.0715211
0.0721023
0.585157
0.317303
-0.456061
-0.252805
0.372094
-0.391096
0.418266
-0.321758
0.456526
-0.265478
0.487858
-0.2123
0.513227
-0.165769
0.533556
-0.125494
0.549694
-0.0907592
0.562377
-0.0607502
0.572295
-0.0348295
0.58006
-0.0114073
0.586074
0.00695699
0.590651
0.0203066
0.594121
0.0312541
0.596761
0.0414363
0.598765
0.0499253
0.600293
0.0572075
0.60148
0.0635587
0.602439
0.0692241
0.603274
0.0743921
0.604086
0.0792215
0.603972
0.0711196
0.60384
0.0715719
0.603763
0.071731
0.603795
0.0716897
0.603979
0.071498
0.604343
0.0712156
0.604904
0.0708781
0.605666
0.0705148
0.606627
0.0701495
0.607772
0.0697963
0.609079
0.0694609
0.610524
0.0691328
0.612076
0.0689373
0.613705
0.0691398
0.615388
0.0688991
0.617105
0.0687076
0.618839
0.0693026
0.620579
0.0695729
0.622324
0.0697757
0.070388
0.624039
0.331935
-0.525506
-0.26249
0.390957
-0.450117
0.440635
-0.371436
0.48176
-0.306603
0.515399
-0.245939
0.542594
-0.192964
0.564339
-0.14724
0.581552
-0.107972
0.595033
-0.0742318
0.605524
-0.0453207
0.61368
-0.0195627
0.619957
0.000679397
0.624721
0.0155428
0.628338
0.0276377
0.631117
0.0386568
0.633282
0.0477605
0.635017
0.0554721
0.636473
0.0621026
0.637774
0.0679239
0.639022
0.0731434
0.640312
0.0779321
0.640587
0.0708445
0.640838
0.0713207
0.641126
0.0714427
0.6415
0.0713158
0.641996
0.0710022
0.642639
0.0705721
0.643447
0.0700705
0.644426
0.0695355
0.645578
0.0689982
0.646895
0.0684794
0.648364
0.067991
0.64997
0.0675276
0.651689
0.0672184
0.653496
0.0673321
0.655366
0.067029
0.657275
0.0667994
0.659199
0.0673785
0.661124
0.0676471
0.66305
0.0678502
0.0684612
0.664977
0.348774
-0.600327
-0.273953
0.412388
-0.513731
0.465887
-0.424935
0.510148
-0.350863
0.546322
-0.282113
0.575534
-0.222175
0.598856
-0.170562
0.617276
-0.126392
0.631664
-0.0886198
0.642813
-0.0564697
0.651425
-0.0281742
0.658009
-0.00590464
0.662976
0.0105758
0.666726
0.0238868
0.669603
0.0357805
0.671856
0.0455073
0.673695
0.0536329
0.675289
0.0605088
0.676774
0.0664389
0.678261
0.0716561
0.679843
0.0763498
0.680357
0.0703307
0.680852
0.0708263
0.681381
0.0709132
0.681989
0.0707084
0.682706
0.0702849
0.683556
0.0697217
0.684555
0.0690723
0.685708
0.0683815
0.68702
0.0676867
0.688486
0.0670136
0.690099
0.066378
0.691848
0.0657783
0.693721
0.0653458
0.695702
0.0653505
0.697774
0.0649568
0.699921
0.0646529
0.702126
0.0651733
0.704375
0.0653979
0.70666
0.0655661
0.0661505
0.70897
0.367754
-0.680982
-0.2871
0.436349
-0.582326
0.494005
-0.482592
0.541685
-0.398543
0.580633
-0.321061
0.612062
-0.253604
0.637125
-0.195626
0.656889
-0.146156
0.672292
-0.104023
0.684187
-0.068364
0.693323
-0.0373103
0.700263
-0.0128444
0.705461
0.00537754
0.709353
0.0199944
0.712312
0.032822
0.714616
0.0432029
0.716499
0.0517498
0.718149
0.0588591
0.719717
0.0648709
0.721325
0.0700477
0.723072
0.0746027
0.723716
0.0696873
0.724351
0.0701916
0.725028
0.0702361
0.725787
0.0699494
0.726657
0.0694149
0.727659
0.0687198
0.728806
0.0679248
0.730107
0.0670807
0.731563
0.0662302
0.733174
0.0654029
0.734934
0.064618
0.736836
0.0638763
0.738872
0.06331
0.741034
0.0631888
0.743308
0.0626827
0.745684
0.0622763
0.748157
0.0627008
0.750715
0.06284
0.753351
0.0629297
0.0634428
0.756059
0.388874
-0.767963
-0.301893
0.462869
-0.656322
0.525043
-0.544766
0.576446
-0.449946
0.618422
-0.363037
0.652277
-0.287459
0.679255
-0.222604
0.700503
-0.167403
0.717035
-0.120556
0.729765
-0.0810937
0.739497
-0.0470426
0.746845
-0.0201929
0.75231
-8.72391e-05
0.756362
0.0159425
0.759404
0.0297799
0.761744
0.0408627
0.763639
0.0498556
0.765295
0.057203
0.766881
0.0632851
0.768531
0.0683977
0.770353
0.0727808
0.771044
0.0689957
0.77174
0.0694958
0.77249
0.0694861
0.773333
0.0691068
0.774296
0.0684515
0.7754
0.0676156
0.776658
0.0666668
0.778077
0.0656615
0.779661
0.0646468
0.781408
0.063656
0.783315
0.062711
0.785376
0.0618149
0.787586
0.0610998
0.789941
0.0608344
0.792428
0.0601959
0.79504
0.0596641
0.797776
0.059965
0.800626
0.0599894
0.803587
0.0599693
0.0603762
0.806653
0.412175
-0.861805
-0.318333
0.492028
-0.736175
0.559109
-0.611847
0.614563
-0.5054
0.659839
-0.408313
0.696346
-0.323965
0.725422
-0.251681
0.748302
-0.190283
0.766083
-0.138336
0.779742
-0.0947536
0.790146
-0.0574456
0.797959
-0.0280066
0.80373
-0.00585847
0.807966
0.0117068
0.811102
0.0266439
0.813475
0.0384902
0.815363
0.0479667
0.816996
0.0555701
0.818558
0.0617235
0.820197
0.0667591
0.822031
0.0709467
0.822711
0.0683155
0.823407
0.0687997
0.824171
0.0687223
0.825041
0.0682362
0.826047
0.0674458
0.827208
0.0664547
0.828537
0.0653375
0.830043
0.0641561
0.831728
0.0629618
0.833592
0.0617916
0.835633
0.0606697
0.837847
0.0596013
0.840229
0.0587183
0.842776
0.0582873
0.845476
0.0574952
0.848325
0.0568158
0.851321
0.056968
0.854458
0.0568529
0.857729
0.0566984
0.0569729
0.861132
0.437736
-0.96309
-0.336451
0.523943
-0.822382
0.596354
-0.684259
0.656214
-0.565259
0.705085
-0.457185
0.744485
-0.363365
0.775858
-0.283053
0.800531
-0.214955
0.819686
-0.157492
0.834377
-0.109445
0.84553
-0.0685985
0.853869
-0.0363456
0.85999
-0.0119793
0.864438
0.00725902
0.867683
0.0233986
0.870092
0.0360818
0.871968
0.0460909
0.873559
0.0539783
0.875069
0.0602137
0.87666
0.0651686
0.878461
0.0691451
0.879085
0.0676912
0.879736
0.0681492
0.880467
0.0679911
0.88132
0.0673832
0.882325
0.0664413
0.883502
0.0652775
0.884866
0.0639737
0.886424
0.0625975
0.888182
0.0612044
0.890138
0.0598348
0.892292
0.0585158
0.894639
0.0572541
0.897176
0.0561816
0.899901
0.0555622
0.902802
0.0545942
0.905873
0.0537447
0.909117
0.0537239
0.912524
0.0534461
0.916088
0.053135
0.0532541
0.919806
0.465662
-1.07245
-0.356303
0.558764
-0.915483
0.636965
-0.76246
0.701617
-0.629911
0.754404
-0.509972
0.796961
-0.405922
0.830844
-0.316936
0.857483
-0.241594
0.878152
-0.178161
0.893983
-0.125275
0.90597
-0.0805862
0.914899
-0.0452743
0.921416
-0.0184961
0.926107
0.00256761
0.929481
0.0200252
0.931932
0.03363
0.933793
0.0442306
0.935332
0.0524393
0.93677
0.0587758
0.938285
0.0636536
0.94002
0.0674099
0.940553
0.0671579
0.94112
0.0675817
0.941781
0.0673308
0.942578
0.0665862
0.943544
0.0654754
0.944701
0.0641203
0.946065
0.06261
0.947644
0.0610181
0.949444
0.0594049
0.951464
0.0578141
0.953704
0.0562756
0.95616
0.0547984
0.958828
0.0535136
0.961708
0.0526823
0.964786
0.051516
0.968057
0.0504743
0.971524
0.0502569
0.975175
0.0497943
0.979005
0.0493056
0.0492481
0.983011
0.496083
-1.19057
-0.377962
0.59667
-1.01607
0.681164
-0.846954
0.751028
-0.699775
0.808081
-0.567024
0.854083
-0.451924
0.89071
-0.353563
0.919502
-0.270386
0.941834
-0.200494
0.958923
-0.142364
0.971837
-0.0935003
0.981425
-0.0548624
0.988388
-0.0254593
0.993358
-0.00240197
0.99688
0.0165025
0.999385
0.0311249
1.00123
0.0423858
1.00271
0.0509617
1.00406
0.057426
1.00547
0.0622373
1.00711
0.0657702
1.00753
0.0667456
1.00798
0.0671296
1.00853
0.0667754
1.00924
0.0658796
1.01013
0.0645831
1.01124
0.0630174
1.01257
0.0612799
1.01413
0.0594508
1.01594
0.057595
1.018
0.0557603
1.02029
0.0539793
1.02283
0.0522635
1.0256
0.0507433
1.0286
0.0496764
1.03183
0.0482895
1.03527
0.0470338
1.03893
0.0465973
1.0428
0.0459286
1.04686
0.0452426
0.0449887
1.05112
0.529153
-1.31821
-0.401516
0.63787
-1.12479
0.729205
-0.938289
0.804742
-0.775312
0.866442
-0.628724
0.916203
-0.501685
0.95583
-0.39319
0.986981
-0.301537
1.01114
-0.224653
1.02962
-0.160838
1.04356
-0.107441
1.05388
-0.065185
1.06134
-0.0329235
1.06663
-0.00768734
1.07032
0.0128072
1.07289
0.0285553
1.07472
0.0405553
1.07613
0.0495531
1.07738
0.0561794
1.07867
0.0609412
1.08019
0.0642535
1.08045
0.0664828
1.08076
0.0668238
1.08118
0.0663575
1.08176
0.0652975
1.08254
0.0637987
1.08356
0.0620036
1.08482
0.0600184
1.08634
0.0579301
1.08813
0.0558092
1.09018
0.0537073
1.0925
0.0516605
1.09508
0.0496829
1.09792
0.0479042
1.10102
0.0465783
1.10436
0.0449488
1.10793
0.0434578
1.11175
0.0427801
1.11579
0.0418852
1.12005
0.0409828
0.0405138
1.12453
0.565046
-1.45618
-0.427072
0.682599
-1.24234
0.781375
-1.03707
0.863088
-0.857026
0.929854
-0.69549
0.983718
-0.555549
1.02662
-0.436097
1.06036
-0.335274
1.08653
-0.250819
1.10653
-0.18084
1.12161
-0.122516
1.13275
-0.0763247
1.14077
-0.0409483
1.14641
-0.0133291
1.1503
0.00891408
1.15295
0.0259091
1.15477
0.0387383
1.1561
0.0482217
1.15723
0.0550521
1.15838
0.0597886
1.15974
0.062889
1.15983
0.0663986
1.15996
0.0666962
1.1602
0.0661111
1.16062
0.0648751
1.16126
0.0631588
1.16215
0.0611161
1.16331
0.0588631
1.16474
0.0564942
1.16647
0.0540855
1.16848
0.0516936
1.17078
0.0493579
1.17337
0.0470954
1.17624
0.0450353
1.17939
0.0434274
1.18281
0.0415337
1.18648
0.0397867
1.19041
0.0388463
1.19459
0.0377053
1.199
0.0365682
0.0358659
1.20365
0.603957
-1.60539
-0.454749
0.731119
-1.3695
0.837993
-1.14394
0.926436
-0.945468
0.998727
-0.767781
1.05707
-0.613894
1.10357
-0.482593
1.14014
-0.371845
1.16851
-0.279189
1.19019
-0.202525
1.20652
-0.138847
1.21857
-0.0883717
1.22722
-0.0495989
1.23326
-0.0193716
1.23738
0.00479622
1.24012
0.0231737
1.24192
0.0369341
1.24317
0.0469774
1.24416
0.054063
1.24514
0.0588057
1.24632
0.0617096
1.24619
0.0665247
1.24611
0.0667816
1.24614
0.0660734
1.24637
0.0646517
1.24682
0.0627038
1.24754
0.0603967
1.24855
0.0578565
1.24986
0.055186
1.25147
0.0524677
1.2534
0.0497633
1.25565
0.0471159
1.2582
0.044546
1.26105
0.042182
1.26421
0.0402694
1.26765
0.0380904
1.27137
0.0360669
1.27537
0.034843
1.27964
0.0334368
1.28416
0.032047
0.0310939
1.28894
0.646106
-1.76682
-0.484678
0.783723
-1.50712
0.899417
-1.25963
0.995195
-1.04125
1.07352
-0.846102
1.13676
-0.677137
1.18718
-0.533016
1.22686
-0.411524
1.25765
-0.309982
1.28119
-0.226063
1.29891
-0.156566
1.31197
-0.101426
1.32131
-0.0589468
1.3278
-0.025863
1.33218
0.000424667
1.33501
0.0203364
1.3368
0.0351437
1.33795
0.0458326
1.33878
0.0532343
1.33956
0.0580234
1.34052
0.0607538
1.34014
0.0668973
1.3398
0.0671197
1.33959
0.0662867
1.33957
0.0646719
1.33979
0.0624803
1.3403
0.0598928
1.34111
0.0570473
1.34224
0.0540553
1.3437
0.0510064
1.3455
0.0479675
1.34762
0.0449864
1.35008
0.042087
1.35287
0.0393973
1.35598
0.0371579
1.3594
0.034673
1.36311
0.0323533
1.36713
0.0308254
1.37143
0.0291351
1.376
0.0274753
0.0262542
1.38084
0.691732
-1.94154
-0.517005
0.840734
-1.65612
0.966039
-1.38494
1.06982
-1.14503
1.15473
-0.931008
1.22332
-0.745735
1.27805
-0.587742
1.32114
-0.454614
1.3546
-0.343439
1.38018
-0.251646
1.39943
-0.17582
1.4136
-0.115596
1.42373
-0.069071
1.43072
-0.0328562
1.43538
-0.00423178
1.43833
0.0173843
1.4401
0.0333699
1.44113
0.0448035
1.44177
0.0525934
1.44232
0.0574791
1.443
0.0600679
1.44234
0.0675585
1.4417
0.0677565
1.44119
0.0668004
1.44088
0.0649873
1.44081
0.0625419
1.44105
0.0596604
1.4416
0.0564928
1.4425
0.0531605
1.44374
0.0497608
1.44534
0.0463667
1.4473
0.0430306
1.4496
0.0397804
1.45226
0.0367437
1.45526
0.034156
1.45859
0.0313452
1.46223
0.02871
1.4662
0.0268583
1.47047
0.0248657
1.47502
0.0229189
0.0214131
1.47987
0.741101
-2.13076
-0.551891
0.902509
-1.81753
1.0383
-1.52073
1.15081
-1.25754
1.24292
-1.02311
1.31738
-0.820195
1.37682
-0.647183
1.42365
-0.501448
1.46004
-0.379827
1.48788
-0.279482
1.50883
-0.196769
1.52424
-0.131005
1.53522
-0.0800584
1.54278
-0.040409
1.54775
-0.00920669
1.55083
0.0143048
1.55258
0.0316175
1.55348
0.0439099
1.5539
0.0521736
1.55416
0.0572177
1.55452
0.0597072
1.55352
0.0685578
1.55253
0.068746
1.55166
0.067672
1.55099
0.0656588
1.55058
0.0629521
1.55047
0.0597647
1.5507
0.05626
1.5513
0.0525703
1.55225
0.048801
1.55359
0.0450319
1.5553
0.0413205
1.55738
0.0376993
1.55983
0.0342951
1.56265
0.0313383
1.56581
0.0281824
1.56931
0.0252132
1.57315
0.0230183
1.57731
0.0207057
1.58177
0.0184554
0.0166488
1.58653
0.794503
-2.33575
-0.589507
0.96944
-1.99246
1.11667
-1.66796
1.23873
-1.3796
1.33871
-1.12309
1.41959
-0.901075
1.4842
-0.711798
1.53515
-0.552397
1.57477
-0.419442
1.60509
-0.309806
1.62792
-0.219596
1.6447
-0.147787
1.65665
-0.0920055
1.66482
-0.0485853
1.67015
-0.014536
1.67337
0.0110853
1.67509
0.0298943
1.67583
0.0431773
1.67599
0.0520155
1.67591
0.0572934
1.67588
0.0597382
1.67448
0.0699536
1.67308
0.0701518
1.67178
0.0689697
1.67068
0.066758
1.66985
0.0637855
1.66933
0.0602829
1.66916
0.0564285
1.66936
0.052366
1.66996
0.04821
1.67094
0.0440474
1.67232
0.0399418
1.67409
0.0359303
1.67624
0.0321393
1.67879
0.0287936
1.6817
0.0252741
1.68496
0.0219531
1.68858
0.0193963
1.69254
0.0167468
1.69682
0.0141773
0.0120541
1.70141
0.852256
-2.55797
-0.630042
1.04196
-2.18217
1.20169
-1.82768
1.33418
-1.5121
1.44278
-1.23169
1.5307
-0.988993
1.60099
-0.782093
1.65647
-0.607874
1.69964
-0.462614
1.73271
-0.342877
1.75761
-0.244499
1.77592
-0.166093
1.78893
-0.105019
1.7978
-0.057455
1.80353
-0.0202588
1.8069
0.00771369
1.80858
0.0282114
1.80912
0.0426368
1.80897
0.0521682
1.80849
0.0577712
1.80799
0.0602404
1.80613
0.0718146
1.80423
0.0720488
1.80243
0.0707735
1.80082
0.0683694
1.79947
0.0651302
1.79845
0.0613064
1.79778
0.057092
1.79751
0.0526436
1.79763
0.0480857
1.79816
0.0435132
1.79911
0.0389959
1.80046
0.0345762
1.80222
0.0303803
1.80439
0.0266269
1.80694
0.0227265
1.80985
0.019037
1.81315
0.0161006
1.8168
0.0130979
1.82078
0.0101942
0.0077396
1.8251
0.914706
-2.79897
-0.673696
1.12054
-2.388
1.29393
-2.00107
1.43785
-1.65602
1.55589
-1.34973
1.65153
-1.08463
1.72807
-0.85863
1.78853
-0.668333
1.83562
-0.509709
1.87173
-0.378982
1.89893
-0.271703
1.91893
-0.186088
1.93313
-0.119218
1.94277
-0.0670957
1.94892
-0.0264169
1.95246
0.00417849
1.95409
0.0265838
1.9544
0.0423269
1.95387
0.0526909
1.95292
0.0587292
1.95185
0.061309
1.94944
0.0742221
1.94696
0.0745256
1.94456
0.073178
1.94234
0.0705925
1.94038
0.0670903
1.93874
0.0629427
1.93747
0.0583615
1.9366
0.0535169
1.93614
0.0485444
1.9361
0.0435476
1.9365
0.038603
1.93731
0.0337591
1.93855
0.0291417
1.94022
0.0249632
1.94228
0.020666
1.94472
0.0165924
1.94756
0.0132596
1.95077
0.00988868
1.95433
0.00663681
0.0038369
1.95823
0.982234
-3.06052
-0.720688
1.2057
-2.61147
1.39404
-2.18942
1.55047
-1.81245
1.67887
-1.47813
1.783
-1.18876
1.8664
-0.942033
1.93235
-0.734283
1.98378
-0.561134
2.02324
-0.418446
2.05299
-0.301456
2.07486
-0.207961
2.09038
-0.134734
2.10088
-0.0775928
2.10752
-0.033056
2.11123