/*--------------------------------*- C++ -*----------------------------------*\
| =========                 |                                                 |
| \\      /  F ield         | OpenFOAM: The Open Source CFD Toolbox           |
|  \\    /   O peration     | Version:  5.x                                   |
|   \\  /    A nd           | Web:      www.OpenFOAM.org                      |
|    \\/     M anipulation  |                                                 |
\*---------------------------------------------------------------------------*/
FoamFile
{
    version     2.0;
    format      ascii;
    class       volVectorField;
    location    "650";
    object      U;
}
// * * * * * * * * * * * * * * * * * * * * * * * * * * * * * * * * * * * * * //

dimensions      [0 1 -1 0 0 0 0];

internalField   nonuniform List<vector> 
11040
(
(-2.54691 16.4472 0)
(-0.0645297 20.7052 -1.26113e-19)
(4.35056 23.3978 1.22902e-17)
(8.60006 23.0597 1.4413e-17)
(12.0273 21.3137 3.19462e-17)
(14.5527 18.8671 -1.57659e-17)
(16.2583 16.1367 -1.57162e-17)
(17.2756 13.3873 1.60544e-17)
(17.7348 10.7865 3.65673e-17)
(17.7042 8.39716 1.19302e-18)
(16.9554 6.03045 1.80829e-17)
(15.7842 4.07082 -9.79671e-19)
(14.8147 2.84337 1.56803e-17)
(14.2745 2.17705 1.48849e-17)
(13.8028 1.6464 1.18918e-17)
(13.1972 1.13248 7.03591e-18)
(12.4789 0.668425 -5.5456e-18)
(11.714 0.272893 -4.61991e-19)
(10.9221 -0.0579164 4.81715e-19)
(10.1007 -0.328152 2.59865e-18)
(9.24128 -0.539899 1.78233e-18)
(8.45606 -0.674663 1.1063e-18)
(7.74501 -0.753258 6.57197e-19)
(7.02908 -0.798803 -9.25184e-20)
(6.30503 -0.81441 -5.05973e-20)
(5.57145 -0.8016 1.53603e-19)
(4.82692 -0.761213 -1.36523e-17)
(4.07564 -0.693022 3.14478e-19)
(3.3288 -0.606135 -2.41929e-17)
(2.5641 -0.5057 3.04567e-17)
(1.79194 -0.385288 6.15123e-19)
(1.02659 -0.24732 4.58655e-19)
(0.348471 -0.10334 -6.01046e-19)
(-0.25104 0.0315245 0)
(-0.693095 0.144097 1.72904e-16)
(-1.03709 0.258683 0)
(-1.51072 0.418766 0)
(-2.19054 0.582279 -1.94241e-19)
(-2.83018 0.591694 2.14629e-19)
(-2.97922 0.22141 -7.85522e-17)
(-1.88223 -0.346058 -1.02007e-16)
(0.108577 16.0245 0)
(2.94454 19.2423 0)
(8.25704 20.7037 -7.2098e-18)
(12.9109 20.202 7.88029e-18)
(16.3957 18.8612 -1.96934e-17)
(18.9749 17.3033 2.07843e-17)
(20.8145 15.5459 1.00634e-17)
(21.9793 13.6185 1.33011e-18)
(22.5493 11.5927 -7.69716e-19)
(22.6247 9.56396 1.1461e-17)
(22.1387 7.44617 -1.2936e-18)
(20.9772 5.59005 0)
(19.5531 4.24837 0)
(18.312 3.29541 -7.80904e-18)
(17.3045 2.45474 -7.96298e-18)
(16.3492 1.72921 -5.50391e-18)
(15.3958 1.13096 0)
(14.4472 0.635648 2.58987e-19)
(13.4951 0.224097 -7.04031e-19)
(12.5278 -0.111333 -3.47607e-19)
(11.5349 -0.375269 -1.09748e-18)
(10.628 -0.553142 -5.90481e-19)
(9.82349 -0.666117 1.68493e-21)
(9.02482 -0.739872 -4.83828e-19)
(8.22427 -0.778414 1.21548e-18)
(7.4166 -0.784576 1.45655e-19)
(6.59683 -0.761092 6.37531e-18)
(5.75931 -0.709995 -1.42283e-19)
(4.89848 -0.634555 1.05855e-17)
(4.02497 -0.53736 -1.27423e-17)
(3.14589 -0.421197 -1.57008e-17)
(2.27589 -0.292883 1.95486e-17)
(1.4338 -0.159904 1.49987e-20)
(0.66029 -0.0294839 -6.49568e-19)
(0.0159701 0.0874962 -3.2732e-17)
(-0.528267 0.21117 0)
(-1.15332 0.391867 -2.34597e-19)
(-1.77286 0.578369 5.11851e-17)
(-2.07499 0.681677 4.6244e-17)
(-1.75224 0.384091 4.24558e-17)
(-1.36978 -0.588815 7.30059e-17)
(1.50386 15.4868 0)
(4.17231 17.9441 0)
(7.94242 19.3552 1.978e-18)
(11.5604 19.5517 -5.61631e-18)
(14.5704 18.8291 5.99857e-18)
(17.0895 17.539 -7.62764e-18)
(19.1549 15.899 -6.19169e-18)
(20.7369 14.0597 0)
(21.8289 12.1258 -1.00349e-17)
(22.4626 10.1743 -5.9523e-18)
(22.6098 8.15241 0)
(22.1286 6.34967 0)
(21.2248 4.95774 -6.24883e-18)
(20.2403 3.89197 -5.68551e-18)
(19.2773 2.94052 -6.0709e-19)
(18.2818 2.1151 6.26956e-19)
(17.254 1.42667 0)
(16.2225 0.853666 0)
(15.1919 0.377873 1.69868e-19)
(14.1528 -0.0101206 -2.13584e-19)
(13.0935 -0.316591 2.17631e-19)
(12.1282 -0.531039 -3.62157e-19)
(11.2735 -0.668592 -7.4455e-20)
(10.4292 -0.760802 -2.63008e-19)
(9.58756 -0.813553 -5.32198e-20)
(8.74276 -0.830564 -9.4153e-20)
(7.88903 -0.815176 -6.6007e-20)
(7.02069 -0.770078 1.55364e-19)
(6.13324 -0.698231 0)
(5.22802 -0.602779 0)
(4.30905 -0.488324 1.90436e-17)
(3.38801 -0.362158 -2.19852e-17)
(2.48288 -0.232108 1.26081e-17)
(1.62537 -0.107405 0)
(0.862424 0.00891939 1.7133e-17)
(0.210021 0.138046 1.95569e-17)
(-0.427384 0.306863 0)
(-0.980718 0.426897 1.81037e-19)
(-1.26102 0.440115 -1.28236e-19)
(-1.05625 0.0992018 0)
(-1.26764 -0.94206 -3.44052e-17)
(2.88012 14.8485 3.47526e-20)
(5.37232 16.7744 -3.1692e-20)
(8.31506 17.9576 5.92174e-19)
(11.4522 18.2654 0)
(14.2706 17.7565 -7.07528e-18)
(16.6427 16.7173 0)
(18.5793 15.335 1.40149e-17)
(20.0788 13.7276 -4.47135e-20)
(21.1551 11.9982 1.40911e-18)
(21.8476 10.2321 9.46809e-18)
(22.1637 8.4066 1.39652e-18)
(22.0123 6.71831 3.864e-18)
(21.493 5.35649 1.10312e-17)
(20.8397 4.29228 4.49547e-18)
(20.1438 3.34317 0)
(19.3553 2.49087 -8.33415e-19)
(18.4665 1.75323 1.42582e-19)
(17.5142 1.12451 -5.73438e-19)
(16.5218 0.593578 -2.30977e-19)
(15.4954 0.154091 2.35269e-19)
(14.4334 -0.197957 5.33964e-19)
(13.4571 -0.447841 3.34058e-19)
(12.5869 -0.61221 0)
(11.7249 -0.726872 5.03385e-19)
(10.8652 -0.798268 -7.35861e-19)
(10.0031 -0.830563 1.13116e-18)
(9.13318 -0.827524 -3.16985e-18)
(8.25031 -0.792327 0)
(7.35016 -0.728188 0)
(6.43102 -0.638886 0)
(5.49387 -0.529654 -6.88729e-18)
(4.54507 -0.408221 8.133e-18)
(3.59775 -0.283379 -2.82674e-19)
(2.67492 -0.164904 -1.04103e-17)
(1.81311 -0.053016 -1.10161e-17)
(1.05726 0.0745331 -1.29735e-17)
(0.384247 0.227593 -2.76764e-17)
(-0.173679 0.307946 -2.72599e-17)
(-0.542345 0.276035 -1.0426e-19)
(-0.468022 -0.065211 -2.35923e-17)
(-1.11736 -1.09743 1.4117e-17)
(4.23578 14.1209 0)
(6.43654 15.6314 -4.5058e-20)
(8.78978 16.5971 -3.62485e-19)
(11.3701 17.0046 2.17902e-19)
(13.8305 16.7826 5.1839e-18)
(16.0047 16.0629 -5.66279e-18)
(17.8688 14.9614 -1.33583e-18)
(19.3778 13.5764 -7.24094e-18)
(20.5019 12.016 0)
(21.2576 10.377 -8.73322e-18)
(21.6611 8.67054 0)
(21.666 7.04874 -2.20139e-18)
(21.3378 5.69183 -5.82463e-18)
(20.8609 4.61165 0)
(20.3422 3.66551 3.10809e-18)
(19.7503 2.81126 0)
(19.0565 2.05945 0)
(18.2752 1.40711 5.87676e-19)
(17.4225 0.844893 4.82414e-19)
(16.5051 0.368863 0)
(15.5251 -0.0211542 -4.34107e-19)
(14.6037 -0.304618 0)
(13.768 -0.496918 0)
(12.9306 -0.636166 -1.75591e-19)
(12.0888 -0.72885 0)
(11.2401 -0.779385 8.74576e-19)
(10.3808 -0.791786 2.45415e-18)
(9.50684 -0.769614 0)
(8.61449 -0.71646 0)
(7.70126 -0.63657 0)
(6.76641 -0.535717 5.6143e-18)
(5.81222 -0.422153 5.43828e-18)
(4.84574 -0.305303 -6.55989e-18)
(3.88114 -0.195228 -2.30596e-19)
(2.94267 -0.0928632 2.60316e-19)
(2.08338 0.0228399 0)
(1.33553 0.155033 2.03823e-17)
(0.726729 0.209812 -2.15654e-17)
(0.22603 0.150601 2.26789e-17)
(0.13896 -0.153317 2.18655e-17)
(-0.774337 -1.12053 2.56303e-20)
(5.48397 13.3352 -8.93594e-20)
(7.37398 14.5161 5.28942e-20)
(9.28791 15.2953 -2.21016e-20)
(11.3862 15.7336 2.27551e-19)
(13.4912 15.7059 -8.38545e-19)
(15.4426 15.2472 5.52887e-18)
(17.1877 14.4262 -6.83132e-18)
(18.668 13.3066 5.89558e-18)
(19.8287 11.9724 2.8985e-18)
(20.6582 10.5113 -1.49203e-18)
(21.1616 8.95202 0)
(21.304 7.4139 0)
(21.1205 6.06115 1.36043e-18)
(20.7542 4.94479 -1.43614e-18)
(20.3226 3.9775 -4.93193e-18)
(19.8335 3.11265 1.0407e-18)
(19.266 2.34945 -1.98347e-18)
(18.6246 1.6839 1.02882e-19)
(17.9168 1.10519 -6.02521e-19)
(17.142 0.607639 1.05419e-18)
(16.296 0.191827 -9.31451e-19)
(15.4837 -0.117919 2.23283e-19)
(14.7327 -0.33437 -7.5913e-20)
(13.9685 -0.496751 6.75305e-20)
(13.1904 -0.611074 -4.84833e-19)
(12.3976 -0.681474 -1.17782e-20)
(11.5879 -0.711756 -2.25655e-18)
(10.7585 -0.705495 -2.22143e-18)
(9.90664 -0.66642 0)
(9.02985 -0.599042 0)
(8.12656 -0.50946 -3.89503e-18)
(7.19652 -0.406208 -9.64912e-18)
(6.24186 -0.299133 -3.33617e-19)
(5.26888 -0.198672 5.81279e-18)
(4.28939 -0.108283 6.83793e-18)
(3.34778 -0.0119677 -7.36139e-18)
(2.50343 0.0921869 2.42933e-19)
(1.80161 0.126229 3.35482e-17)
(1.16659 0.0475347 -3.62069e-17)
(0.856747 -0.20503 7.60713e-20)
(-0.153228 -1.03802 1.31639e-17)
(6.60745 12.5189 0)
(8.20708 13.4377 -1.49432e-19)
(9.77885 14.0636 -1.72209e-20)
(11.481 14.4838 1.41004e-19)
(13.2424 14.5763 1.20638e-18)
(14.9435 14.3237 2.026e-18)
(16.5281 13.7523 -4.52961e-18)
(17.9364 12.8942 1.71366e-18)
(19.1022 11.8059 0)
(19.9931 10.5566 2.17771e-18)
(20.6009 9.18032 -4.34661e-18)
(20.889 7.76736 4.37547e-18)
(20.8611 6.45569 -1.76665e-19)
(20.6144 5.32065 0)
(20.2594 4.32803 1.06604e-18)
(19.8354 3.44327 1.217e-19)
(19.3397 2.65993 8.43813e-19)
(18.7792 1.97538 6.8117e-19)
(18.1648 1.37971 -2.70097e-19)
(17.498 0.86519 -3.02867e-19)
(16.7726 0.430493 4.34023e-19)
(16.0746 0.101551 2.42153e-19)
(15.4261 -0.133161 0)
(14.762 -0.314129 1.08617e-19)
(14.0809 -0.447164 4.50529e-19)
(13.3814 -0.536128 -6.30335e-19)
(12.6613 -0.584457 6.1027e-19)
(11.9179 -0.595461 2.02968e-18)
(11.1483 -0.572715 -3.25932e-19)
(10.3496 -0.520663 -3.99203e-20)
(9.51908 -0.445345 -2.43356e-18)
(8.65458 -0.355122 -8.78622e-19)
(7.75448 -0.259898 -3.55594e-18)
(6.81903 -0.170249 0)
(5.84982 -0.092497 -4.92969e-18)
(4.87435 -0.0185987 5.76663e-18)
(3.94928 0.0521652 -6.12268e-18)
(3.13507 0.0643444 -2.58218e-17)
(2.36608 -0.0290101 1.39651e-17)
(1.81959 -0.235828 6.24619e-20)
(0.764577 -0.889765 -2.78925e-17)
(7.60068 11.6943 5.87002e-19)
(8.94527 12.4064 -1.59205e-19)
(10.244 12.9071 -1.53633e-19)
(11.6282 13.2829 -3.29547e-19)
(13.0803 13.4357 -8.38001e-19)
(14.5261 13.3295 -2.50032e-18)
(15.921 12.9633 2.64721e-18)
(17.2142 12.3437 3.62757e-18)
(18.341 11.5 -2.5806e-18)
(19.2591 10.479 0)
(19.9499 9.31018 -1.56765e-18)
(20.373 8.05967 2.83582e-20)
(20.5068 6.83523 -6.41086e-20)
(20.4036 5.71819 1.48653e-18)
(20.1511 4.71567 1.38041e-18)
(19.8028 3.81528 -1.43309e-18)
(19.3728 3.01134 0)
(18.8727 2.30329 0)
(18.318 1.68543 9.82741e-19)
(17.7176 1.15071 -8.27901e-19)
(17.0715 0.696735 1.26558e-19)
(16.4562 0.350321 -2.47167e-19)
(15.8901 0.0999132 -4.73015e-20)
(15.3152 -0.0964736 0)
(14.7299 -0.244876 1.78908e-19)
(14.1319 -0.349393 -1.83038e-19)
(13.5183 -0.413499 -6.38282e-19)
(12.8857 -0.440451 0)
(12.2303 -0.43372 0)
(11.5479 -0.397581 2.97954e-19)
(10.8339 -0.337783 2.6189e-18)
(10.0833 -0.262174 2.53886e-18)
(9.29073 -0.180283 5.89984e-18)
(8.45118 -0.102414 4.21034e-19)
(7.55853 -0.0369481 0)
(6.62328 0.0161497 -2.56149e-19)
(5.68073 0.0539254 4.71806e-18)
(4.7847 0.0415064 -3.45975e-20)
(3.90087 -0.062774 1.09357e-17)
(3.14821 -0.243609 1.19559e-17)
(2.02177 -0.711419 1.36063e-17)
(8.46723 10.8807 -3.5958e-19)
(9.59491 11.4308 -3.70494e-21)
(10.6725 11.8294 2.91664e-19)
(11.8026 12.1506 -4.09823e-19)
(12.9901 12.3222 0)
(14.1952 12.3084 8.05109e-19)
(15.3902 12.0953 -1.5196e-18)
(16.5378 11.6744 -2.1872e-18)
(17.5842 11.0541 1.60969e-18)
(18.4868 10.2592 2.08832e-18)
(19.222 9.30916 1.28069e-19)
(19.7484 8.24786 -4.27753e-18)
(20.0278 7.15305 0)
(20.076 6.09806 9.79484e-19)
(19.9507 5.11515 -2.28273e-18)
(19.7028 4.21564 -9.62958e-19)
(19.3561 3.40098 -8.48731e-19)
(18.9266 2.67387 8.78438e-19)
(18.4318 2.03346 -3.2149e-19)
(17.8858 1.47566 0)
(17.2954 0.999439 3.718e-19)
(16.7348 0.633492 -5.17837e-19)
(16.2229 0.36603 3.93749e-20)
(15.7091 0.15365 -7.8327e-20)
(15.1934 -0.0098678 2.89666e-19)
(14.675 -0.129047 -2.95978e-19)
(14.1518 -0.207675 0)
(13.6213 -0.249213 1.62491e-18)
(13.0799 -0.25724 7.61251e-19)
(12.5233 -0.235991 4.21234e-19)
(11.946 -0.190941 -2.00681e-18)
(11.3409 -0.129356 -5.78644e-19)
(10.6995 -0.0601616 5.56948e-19)
(10.0118 0.00681089 -3.36379e-19)
(9.26538 0.0621117 -2.11969e-18)
(8.45677 0.100055 -3.77698e-19)
(7.59631 0.113193 0)
(6.7121 0.0791741 7.31543e-18)
(5.78353 -0.0321149 -8.03087e-18)
(4.90473 -0.204938 -8.8123e-18)
(3.70095 -0.528483 0)
(9.21511 10.0938 0)
(10.1612 10.5175 0)
(11.0585 10.8326 0)
(11.985 11.0986 1.23516e-18)
(12.9534 11.2637 -3.53877e-19)
(13.9447 11.2999 2.23884e-20)
(14.9461 11.1908 -2.02259e-19)
(15.9341 10.9216 -2.93171e-19)
(16.8695 10.4884 9.09467e-19)
(17.7163 9.89908 1.3364e-18)
(18.4519 9.16185 -1.31375e-18)
(19.0374 8.30107 1.74657e-18)
(19.4277 7.36688 -1.53562e-19)
(19.6135 6.41629 1.64658e-18)
(19.623 5.49046 -2.96316e-18)
(19.4935 4.61818 2.35632e-18)
(19.2499 3.81134 1.26344e-18)
(18.9099 3.0778 -1.30499e-18)
(18.4914 2.422 5.01689e-19)
(18.0104 1.84407 0)
(17.4777 1.34531 4.7858e-19)
(16.9656 0.958204 -3.5746e-19)
(16.4957 0.671657 2.81197e-20)
(16.0254 0.441125 -6.72534e-20)
(15.5567 0.260378 3.09577e-19)
(15.0913 0.124631 0)
(14.6296 0.0298473 0)
(14.1711 -0.027621 -4.79652e-19)
(13.7148 -0.0514559 -3.03373e-18)
(13.2585 -0.0458298 -1.40781e-18)
(12.7984 -0.0158881 1.61992e-18)
(12.3288 0.0317935 4.55518e-19)
(11.8412 0.0891171 -2.39541e-18)
(11.3245 0.146949 -5.22485e-19)
(10.7629 0.195599 3.28109e-18)
(10.1441 0.22639 -5.70943e-19)
(9.45949 0.229063 -2.45299e-18)
(8.71006 0.186944 3.28565e-19)
(7.86418 0.0797316 5.33242e-18)
(6.99958 -0.0825199 0)
(5.79799 -0.325278 0)
(9.85474 9.34561 0)
(10.6497 9.67105 0)
(11.3989 9.9181 -1.40223e-19)
(12.1618 10.1329 -1.15576e-18)
(12.9516 10.2786 0)
(13.7611 10.3358 -4.81018e-19)
(14.5869 10.2906 2.50355e-19)
(15.417 10.128 0)
(16.2256 9.83856 -1.23889e-18)
(16.9867 9.42043 1.98296e-19)
(17.6822 8.87346 -2.76263e-19)
(18.2801 8.20665 9.87812e-19)
(18.736 7.44709 -1.22602e-18)
(19.0271 6.63269 0)
(19.1591 5.80109 -1.85209e-18)
(19.1509 4.9881 2.15904e-18)
(19.0212 4.21455 0)
(18.7856 3.4943 0)
(18.4603 2.83723 2.78531e-19)
(18.0613 2.24846 -1.13457e-18)
(17.6006 1.73255 4.80609e-19)
(17.146 1.32645 0)
(16.7219 1.02097 2.91979e-20)
(16.2941 0.771375 1.72932e-19)
(15.8664 0.571717 -2.1101e-19)
(15.4422 0.417182 2.42337e-19)
(15.0239 0.303625 0)
(14.6134 0.227296 0)
(14.2118 0.184486 -5.02017e-19)
(13.8198 0.171166 2.26625e-18)
(13.4367 0.182636 -1.2618e-18)
(13.0603 0.213181 1.32544e-18)
(12.6859 0.25588 7.28261e-19)
(12.3056 0.302829 0)
(11.9066 0.345179 1.25325e-18)
(11.4752 0.373786 -1.2339e-20)
(10.9952 0.378139 4.21191e-18)
(10.4533 0.345102 0)
(9.80465 0.259466 -4.16308e-18)
(9.1048 0.12883 4.56224e-18)
(8.06999 -0.0656428 0)
(10.3971 8.64507 0)
(11.0662 8.89422 -8.55672e-19)
(11.6935 9.08599 7.49825e-19)
(12.3239 9.25569 0)
(12.9694 9.37716 7.61039e-19)
(13.6283 9.43764 -6.44985e-19)
(14.3026 9.42726 -1.24523e-18)
(14.9877 9.33362 1.73138e-19)
(15.6682 9.14636 4.35295e-19)
(16.3275 8.85981 1.38734e-18)
(16.9539 8.46929 -1.44682e-18)
(17.5235 7.97395 -4.47818e-19)
(17.9986 7.38413 1.15296e-18)
(18.3526 6.72049 -5.55556e-19)
(18.5775 6.01062 2.17574e-18)
(18.6764 5.28773 -1.38757e-18)
(18.6575 4.57613 -5.58969e-19)
(18.5309 3.89399 -2.53672e-19)
(18.3088 3.25574 -7.29497e-19)
(18.005 2.67134 1.4406e-18)
(17.6308 2.14905 -6.41672e-19)
(17.2466 1.73064 -5.95001e-21)
(16.8784 1.40996 -5.22094e-21)
(16.501 1.1433 0)
(16.1196 0.925436 -4.53948e-19)
(15.7384 0.751814 1.36868e-19)
(15.3612 0.618359 8.52193e-19)
(14.9909 0.521341 -5.96495e-19)
(14.6301 0.457091 1.61544e-18)
(14.2809 0.421734 -8.40801e-19)
(13.9448 0.410972 0)
(13.6223 0.419871 -1.63254e-18)
(13.3125 0.44273 -5.74213e-19)
(13.0119 0.473164 6.47279e-19)
(12.7134 0.504029 -4.0061e-18)
(12.4083 0.527711 -7.03984e-19)
(12.0829 0.535607 -1.46869e-18)
(11.7239 0.518706 1.52213e-18)
(11.2884 0.464951 1.59922e-18)
(10.811 0.382655 -3.27229e-18)
(10.0678 0.24131 -1.12207e-19)
(10.8532 7.99802 0)
(11.4172 8.18795 4.86955e-20)
(11.9437 8.33517 6.78951e-19)
(12.4663 8.46655 2.18507e-18)
(12.9953 8.56341 -1.49668e-18)
(13.5316 8.6178 2.13738e-19)
(14.0794 8.62333 -3.74754e-20)
(14.6383 8.57096 -1.60462e-18)
(15.1999 8.45177 -8.9648e-20)
(15.7548 8.25922 -2.32866e-19)
(16.2967 7.98764 8.20773e-19)
(16.8099 7.63157 -7.18451e-19)
(17.2658 7.19114 -4.05958e-19)
(17.64 6.67431 4.76666e-19)
(17.9193 6.09761 0)
(18.0968 5.48605 0)
(18.1711 4.86157 1.92395e-18)
(18.1451 4.24308 1.41167e-20)
(18.0254 3.6471 -1.31182e-18)
(17.8215 3.08696 6.921e-20)
(17.5424 2.57407 -1.95639e-19)
(17.2381 2.15437 1.86564e-19)
(16.9348 1.82577 -4.73026e-22)
(16.6166 1.54725 0)
(16.2893 1.31473 -6.37751e-20)
(15.958 1.12433 7.63346e-19)
(15.627 0.972355 -9.93053e-19)
(15.2997 0.85527 1.14343e-18)
(14.9792 0.769534 -8.49096e-19)
(14.6682 0.711495 0)
(14.3688 0.677229 7.87315e-19)
(14.0824 0.662435 1.77778e-18)
(13.8099 0.66237 -9.0716e-19)
(13.5504 0.671938 1.02447e-18)
(13.3009 0.68567 5.73354e-19)
(13.0574 0.698059 -1.09131e-18)
(12.8125 0.703174 1.71977e-18)
(12.5581 0.696047 -1.20613e-18)
(12.2661 0.668534 -9.34649e-19)
(11.9552 0.629336 -1.57214e-19)
(11.4869 0.547584 2.58492e-18)
(11.2336 7.40767 -8.19376e-19)
(11.7096 7.55165 -2.84065e-18)
(12.1521 7.6632 2.76788e-18)
(12.5867 7.76286 0)
(13.0215 7.83719 -1.27517e-19)
(13.4587 7.88139 0)
(13.903 7.89168 -4.16031e-18)
(14.356 7.8619 3.02549e-18)
(14.8136 7.78524 1.37284e-18)
(15.271 7.65594 -1.48317e-18)
(15.7258 7.46919 1.68724e-19)
(16.1686 7.21827 -1.15791e-19)
(16.5794 6.8985 3.52816e-19)
(16.9394 6.51032 5.50744e-19)
(17.2354 6.06158 1.01605e-19)
(17.4567 5.56805 -6.60759e-19)
(17.5961 5.04589 5.71032e-19)
(17.6503 4.51108 -6.92139e-19)
(17.6204 3.9793 0)
(17.5106 3.46471 -2.65203e-19)
(17.3262 2.98024 2.73428e-19)
(17.1048 2.57389 2.32468e-20)
(16.8713 2.24803 3.69167e-21)
(16.6176 1.96599 0)
(16.3501 1.72518 5.20053e-20)
(16.0742 1.52287 7.7538e-20)
(15.7945 1.35615 0)
(15.5149 1.22197 0)
(15.2386 1.11716 2.03654e-21)
(14.9682 1.03842 0)
(14.706 0.98226 -9.52157e-19)
(14.4535 0.944986 0)
(14.2118 0.92268 1.5041e-18)
(13.9809 0.911268 -1.55845e-18)
(13.7595 0.906537 0)
(13.5459 0.904607 8.86254e-19)
(13.3367 0.901646 -9.24293e-19)
(13.1278 0.895101 4.65834e-19)
(12.9051 0.880722 1.47892e-18)
(12.678 0.865295 -1.3137e-19)
(12.3789 0.829287 -3.08413e-18)
(11.5483 6.87498 2.17998e-18)
(11.9503 6.98333 8.08084e-20)
(12.3228 7.06653 -1.2227e-18)
(12.6849 7.14044 -2.22699e-18)
(13.0434 7.19531 -4.82061e-18)
(13.4006 7.22838 5.57836e-18)
(13.7611 7.23757 -2.78026e-19)
(14.1273 7.21889 -2.48192e-18)
(14.4973 7.1675 4.58709e-18)
(14.8692 7.079 -4.36462e-19)
(15.2426 6.94965 -1.89945e-18)
(15.6126 6.77349 4.58873e-19)
(15.9661 6.54456 -4.76573e-19)
(16.2898 6.25985 8.57312e-19)
(16.5732 5.92182 -1.30627e-19)
(16.8061 5.53891 0)
(16.9794 5.12105 2.83377e-19)
(17.0866 4.67956 -1.90547e-19)
(17.1244 4.22691 -3.9876e-21)
(17.0928 3.77568 -1.62453e-19)
(16.9931 3.33814 2.2318e-19)
(16.85 2.96106 -3.62729e-20)
(16.6849 2.6507 -3.04954e-21)
(16.4963 2.376 -7.83652e-19)
(16.2902 2.13597 1.75755e-18)
(16.0717 1.92915 -1.04575e-18)
(15.8456 1.75372 1.27913e-18)
(15.616 1.60749 -1.56845e-18)
(15.3861 1.48799 -1.95695e-18)
(15.1586 1.39249 1.77016e-18)
(14.9357 1.31809 5.11442e-19)
(14.7189 1.26177 8.65057e-19)
(14.5093 1.2204 -2.67265e-18)
(14.3072 1.1908 2.52973e-18)
(14.1118 1.16973 -1.30107e-18)
(13.9223 1.15445 -6.96062e-19)
(13.7372 1.14245 0)
(13.554 1.13207 -7.64239e-19)
(13.3666 1.12138 -7.92992e-19)
(13.1795 1.11418 -8.14321e-19)
(12.9631 1.10083 8.4666e-19)
(11.8064 6.39906 3.01127e-21)
(12.146 6.47974 2.95998e-19)
(12.4597 6.54056 1.07543e-18)
(12.762 6.59396 -1.91518e-18)
(13.0583 6.63274 7.56276e-18)
(13.351 6.65537 -6.38376e-18)
(13.6441 6.66089 8.02487e-18)
(13.94 6.64676 3.88395e-18)
(14.2382 6.60967 -1.99968e-18)
(14.5381 6.5465 -6.06001e-19)
(14.8404 6.45457 -4.35835e-18)
(15.1427 6.3294 1.86562e-19)
(15.4367 6.16543 0)
(15.7139 5.95875 -3.32822e-19)
(15.9669 5.70914 4.34712e-19)
(16.1877 5.42037 -5.65543e-19)
(16.3679 5.09758 0)
(16.5005 4.74761 6.44397e-19)
(16.5803 4.37894 -1.46596e-18)
(16.6047 4.00115 5.24792e-19)
(16.5718 3.62421 -9.77655e-19)
(16.4949 3.29023 1.1052e-18)
(16.391 3.00783 4.67206e-20)
(16.2625 2.75207 -2.14358e-20)
(16.1145 2.52332 1.87484e-18)
(15.9516 2.32133 -1.89494e-18)
(15.7781 2.14534 6.79466e-20)
(15.5978 1.99413 1.54443e-19)
(15.4141 1.86608 -1.47101e-18)
(15.2294 1.75928 1.68058e-18)
(15.0461 1.67164 -2.07935e-19)
(14.8656 1.60087 2.24433e-19)
(14.6891 1.54463 -9.83151e-19)
(14.5172 1.50056 4.60325e-19)
(14.3495 1.46626 2.13467e-18)
(14.1858 1.43981 -5.33214e-19)
(14.0256 1.41953 5.93223e-19)
(13.8674 1.40405 -1.19761e-18)
(13.7084 1.39232 6.2377e-19)
(13.551 1.38589 6.53365e-19)
(13.3816 1.37939 0)
(12.0157 5.97683 -3.34038e-18)
(12.3024 6.03593 5.97985e-18)
(12.5666 6.07934 5.59443e-18)
(12.8191 6.11683 -1.47078e-17)
(13.0644 6.1429 5.44585e-18)
(13.3048 6.15678 -1.11407e-17)
(13.5437 6.15814 8.98689e-18)
(13.7831 6.14539 -1.29866e-17)
(14.0234 6.1163 1.17772e-17)
(14.2643 6.06873 -4.16752e-19)
(14.507 6.00088 -4.75713e-18)
(14.7506 5.90944 -4.37276e-19)
(14.9898 5.79011 -3.51785e-18)
(15.2194 5.63934 3.48224e-18)
(15.4345 5.45597 -2.68627e-18)
(15.6296 5.24133 2.91919e-18)
(15.7982 4.99763 0)
(15.9342 4.72842 -1.99863e-18)
(16.0326 4.43878 2.4761e-18)
(16.0896 4.13509 -2.34869e-18)
(16.1019 3.82447 -1.63104e-19)
(16.0745 3.54204 3.99939e-18)
(16.0196 3.29699 7.89342e-20)
(15.9413 3.07009 -1.58231e-18)
(15.8437 2.86257 -3.04205e-24)
(15.7304 2.67505 0)
(15.6049 2.50765 -2.17969e-18)
(15.4705 2.35998 2.15733e-18)
(15.3302 2.2312 0)
(15.1863 2.12023 -1.60829e-19)
(15.0409 2.02571 0)
(14.8956 1.94618 1.52671e-18)
(14.7516 1.88008 -1.72959e-18)
(14.6097 1.82578 -1.68667e-18)
(14.4701 1.78158 3.45427e-18)
(14.3331 1.74619 -1.9932e-18)
(14.1986 1.71846 -2.33794e-19)
(14.0661 1.69725 4.86869e-19)
(13.9343 1.68179 -5.03337e-19)
(13.8046 1.67247 0)
(13.6708 1.66562 -5.19856e-19)
(12.1768 5.62123 0)
(12.4205 5.66434 -8.14678e-18)
(12.6445 5.69515 3.89287e-19)
(12.8572 5.72113 1.08241e-17)
(13.0623 5.73792 6.57821e-18)
(13.2618 5.74526 -6.75976e-18)
(13.4587 5.74319 6.10224e-18)
(13.6548 5.7307 5.80738e-18)
(13.8504 5.70624 1.08286e-17)
(14.0458 5.66833 -1.36918e-17)
(14.2421 5.61577 1.32991e-18)
(14.4389 5.54617 1.27078e-18)
(14.6329 5.45624 -4.3095e-18)
(14.8207 5.34315 3.13521e-18)
(14.9994 5.2057 4.35212e-18)
(15.1652 5.04417 -3.31194e-18)
(15.3134 4.85936 -3.80874e-18)
(15.4396 4.65296 3.90739e-18)
(15.5395 4.42783 0)
(15.6094 4.18792 4.46715e-19)
(15.6459 3.93792 4.48037e-19)
(15.6492 3.70571 3.40339e-18)
(15.6275 3.4998 -6.91515e-18)
(15.5855 3.30555 3.59243e-18)
(15.5258 3.12448 1.95784e-18)
(15.4511 2.95765 3.74275e-20)
(15.3643 2.80566 -2.07817e-18)
(15.268 2.66865 3.36309e-20)
(15.1644 2.54641 2.40358e-21)
(15.0557 2.43842 2.54302e-18)
(14.9436 2.34395 -2.57164e-18)
(14.8297 2.26213 -1.40567e-18)
(14.715 2.19201 1.50062e-18)
(14.6006 2.13254 -1.52407e-18)
(14.487 2.08257 1.33115e-18)
(14.3745 2.04127 1.22004e-18)
(14.2638 2.0079 -6.10506e-19)
(14.1547 1.9815 2.14158e-19)
(14.0468 1.96147 0)
(13.9409 1.94774 0)
(13.8349 1.93777 4.84856e-21)
(12.2964 5.33485 -3.77236e-18)
(12.5064 5.3666 4.20452e-18)
(12.6989 5.38843 -1.75798e-18)
(12.8809 5.40611 -3.36129e-18)
(13.0551 5.41611 0)
(13.2236 5.41854 6.34328e-18)
(13.3889 5.41361 -1.50493e-17)
(13.5524 5.40066 9.2721e-18)
(13.7146 5.3786 -2.95626e-18)
(13.8759 5.34641 2.64865e-18)
(14.0372 5.30328 -1.27001e-18)
(14.1984 5.24751 -1.13319e-17)
(14.3574 5.17668 1.9883e-17)
(14.5119 5.0886 -8.52788e-18)
(14.66 4.98221 -1.01038e-18)
(14.7992 4.85741 -4.14593e-18)
(14.9262 4.71436 1.25563e-17)
(15.0377 4.55383 -5.47606e-18)
(15.1304 4.37737 -8.21182e-18)
(15.2014 4.18741 3.39455e-18)
(15.2476 3.98695 -9.34054e-19)
(15.2669 3.7977 0)
(15.2649 3.62701 0)
(15.2459 3.46362 -4.03924e-18)
(15.2116 3.30902 4.04411e-18)
(15.164 3.16436 6.2476e-20)
(15.1051 3.03043 0)
(15.037 2.90765 2.3265e-18)
(14.9616 2.79614 -2.33241e-18)
(14.8804 2.69577 1.86639e-20)
(14.7949 2.60622 -2.03946e-20)
(14.7064 2.52703 0)
(14.6161 2.45764 1.31312e-18)
(14.5248 2.39742 -1.38729e-18)
(14.4332 2.34556 1.79847e-19)
(14.3417 2.30154 -1.85435e-19)
(14.2512 2.2649 0)
(14.1616 2.23488 -1.95823e-19)
(14.0731 2.21098 -4.05464e-19)
(13.9863 2.19304 1.98143e-19)
(13.9008 2.17936 6.14964e-19)
(12.3872 5.10158 0)
(12.5701 5.125 0)
(12.7376 5.14029 -6.57357e-18)
(12.8952 5.15191 -1.27122e-17)
(13.0453 5.157 1.93152e-17)
(13.1896 5.15585 -1.52588e-17)
(13.3304 5.14878 -5.75838e-18)
(13.4688 5.13535 1.20549e-17)
(13.6055 5.11478 -1.15352e-17)
(13.7407 5.08633 1.15071e-17)
(13.8753 5.04945 0)
(14.0092 5.00292 0)
(14.141 4.94494 1.03097e-17)
(14.2691 4.87388 -2.02797e-17)
(14.3924 4.7889 1.93407e-17)
(14.509 4.68982 -9.41406e-18)
(14.6167 4.57656 -1.17631e-18)
(14.7131 4.44943 1.02946e-17)
(14.7957 4.30931 -6.99371e-18)
(14.8622 4.15766 0)
(14.9102 3.99639 4.84163e-19)
(14.9367 3.84235 0)
(14.9455 3.7016 -4.49116e-18)
(14.9403 3.56538 8.76927e-18)
(14.9223 3.435 -4.27705e-18)
(14.8929 3.31152 0)
(14.8537 3.19575 0)
(14.806 3.08821 2.19125e-18)
(14.7513 2.98919 -2.33972e-18)
(14.6909 2.89875 -2.4638e-18)
(14.6261 2.81682 2.48177e-18)
(14.5578 2.7432 2.59116e-18)
(14.4871 2.67759 -2.59932e-18)
(14.4147 2.61962 0)
(14.3412 2.56873 -2.16905e-20)
(14.2673 2.52461 0)
(14.1936 2.48695 -5.63018e-21)
(14.1202 2.45516 -2.29035e-20)
(14.0476 2.42885 7.95494e-19)
(13.9762 2.40783 -1.12752e-18)
(13.9061 2.39103 3.71922e-19)
(12.4574 4.90807 0)
(12.6182 4.92528 -7.98859e-19)
(12.7653 4.93571 0)
(12.9031 4.94286 6.11373e-18)
(13.0337 4.94436 -6.0139e-18)
(13.1587 4.94062 0)
(13.28 4.93201 5.81846e-18)
(13.3987 4.91822 5.58455e-18)
(13.5153 4.8987 -1.46665e-17)
(13.63 4.8729 0)
(13.7437 4.84044 1.09812e-17)
(13.8562 4.80043 -2.1881e-17)
(13.9667 4.75155 1.08714e-17)
(14.0739 4.69258 0)
(14.1771 4.62289 -1.00314e-17)
(14.275 4.54231 1.11696e-17)
(14.366 4.45071 1.05451e-17)
(14.4484 4.34821 -1.16556e-17)
(14.5204 4.23531 -1.07633e-18)
(14.5802 4.11295 0)
(14.6259 3.98233 0)
(14.6546 3.85659 -5.73954e-19)
(14.6687 3.7406 2.60721e-19)
(14.6716 3.62746 4.46512e-18)
(14.6639 3.51825 3.45462e-19)
(14.6466 3.41388 -4.47867e-18)
(14.6208 3.31507 4.61445e-18)
(14.5877 3.22235 -4.4658e-18)
(14.5483 3.13604 -2.6881e-18)
(14.5037 3.05632 2.38114e-18)
(14.4547 2.98322 -2.47129e-18)
(14.4023 2.9167 2.46644e-18)
(14.3472 2.85662 0)
(14.2901 2.80276 -2.76632e-18)
(14.2316 2.75474 2.61662e-18)
(14.1722 2.71239 0)
(14.1126 2.6755 5.23828e-21)
(14.0529 2.64361 7.1212e-19)
(13.9934 2.61642 -7.31825e-19)
(13.9347 2.59377 3.31962e-19)
(13.8771 2.575 -3.44904e-19)
(12.5127 4.74517 0)
(12.655 4.75767 7.38293e-19)
(12.785 4.76445 -5.90406e-18)
(12.9065 4.76828 1.14966e-17)
(13.021 4.76714 -2.31441e-17)
(13.1303 4.76154 1.16369e-17)
(13.2358 4.75187 0)
(13.3385 4.73791 5.58449e-18)
(13.439 4.71924 3.34661e-17)
(13.5374 4.69549 -2.25345e-17)
(13.6344 4.66637 0)
(13.73 4.63124 -2.78028e-18)
(13.8234 4.5891 7.90585e-18)
(13.9138 4.53907 -2.12506e-19)
(14.0008 4.48068 -1.05043e-17)
(14.0833 4.4138 1.13623e-17)
(14.1602 4.33832 -9.88311e-18)
(14.2304 4.25429 9.45607e-18)
(14.2924 4.16202 -9.48376e-18)
(14.3449 4.06213 -9.30162e-18)
(14.3865 3.95542 8.01545e-18)
(14.4145 3.85219 -4.01174e-18)
(14.4308 3.75635 5.08473e-18)
(14.4379 3.66237 -4.80374e-18)
(14.4364 3.57112 -8.94483e-19)
(14.427 3.48333 4.5388e-18)
(14.4104 3.39963 0)
(14.3876 3.32048 0)
(14.3593 3.24619 -4.43809e-18)
(14.3264 3.17696 4.70956e-18)
(14.2895 3.11289 0)
(14.2494 3.05399 3.08504e-19)
(14.2067 3.00022 3.11693e-19)
(14.162 2.95145 2.65857e-18)
(14.1157 2.90743 -2.65558e-18)
(14.0683 2.86804 -1.28079e-18)
(14.0203 2.83317 1.27611e-18)
(13.972 2.80246 -4.89881e-19)
(13.9237 2.77568 1.30992e-18)
(13.8757 2.7527 -6.35801e-19)
(13.8283 2.73316 -8.15308e-20)
(12.5568 4.60637 5.47347e-18)
(12.6835 4.61525 6.67666e-18)
(12.7991 4.61927 -1.2756e-19)
(12.9067 4.6206 0)
(13.0079 4.61753 0)
(13.104 4.61062 0)
(13.1965 4.60025 0)
(13.2861 4.58627 -2.16949e-17)
(13.3734 4.56839 3.83076e-17)
(13.4585 4.54632 -2.19576e-17)
(13.542 4.51986 2.14668e-17)
(13.6238 4.48853 -1.36089e-17)
(13.7035 4.4516 2.3738e-17)
(13.7804 4.4084 -2.90573e-17)
(13.8541 4.35862 1.05271e-17)
(13.9239 4.30217 7.63873e-18)
(13.9892 4.23898 -9.99165e-18)
(14.0488 4.16907 1.17864e-18)
(14.1019 4.09266 -1.2262e-18)
(14.1474 4.0102 1.18767e-17)
(14.1843 3.92222 1.04277e-17)
(14.2103 3.83689 -1.7265e-17)
(14.2268 3.75732 -5.51909e-19)
(14.2359 3.67905 0)
(14.2379 3.60275 5.5233e-19)
(14.2334 3.52903 -5.82897e-19)
(14.223 3.45838 -4.01626e-18)
(14.2074 3.39118 4.58236e-18)
(14.1871 3.32773 -4.65565e-18)
(14.1628 3.26819 4.63749e-18)
(14.1351 3.21268 4.72292e-18)
(14.1044 3.16125 -4.99459e-18)
(14.0714 3.11389 -2.9329e-19)
(14.0364 3.07053 2.41628e-18)
(13.9999 3.03099 -1.95058e-18)
(13.9622 2.99521 0)
(13.9239 2.96312 0)
(13.885 2.93443 -1.53171e-19)
(13.8459 2.90899 3.12767e-19)
(13.8069 2.88667 3.14182e-19)
(13.7681 2.86733 7.60846e-20)
(12.5924 4.48686 0)
(12.7056 4.49296 -1.27104e-18)
(12.8089 4.49487 1.01821e-17)
(12.9048 4.49432 -1.03861e-17)
(12.9946 4.48985 -2.05315e-17)
(13.0797 4.48203 2.10311e-17)
(13.1612 4.47125 1.02298e-17)
(13.2399 4.4574 -2.12004e-17)
(13.3162 4.44027 -2.09048e-17)
(13.3904 4.41964 2.12422e-17)
(13.4627 4.39537 0)
(13.5333 4.36713 -1.04819e-17)
(13.6017 4.33436 2.07388e-17)
(13.6674 4.29657 -2.34235e-17)
(13.7303 4.25354 0)
(13.7898 4.20523 -2.58021e-18)
(13.8452 4.15161 2.52303e-18)
(13.8959 4.09271 0)
(13.9413 4.0287 1.16793e-18)
(13.9805 3.9599 -2.30882e-18)
(14.0127 3.8867 1.05245e-17)
(14.0361 3.81565 -1.03416e-17)
(14.0518 3.74922 1.16046e-18)
(14.0615 3.68377 8.50609e-18)
(14.0654 3.61983 -8.45781e-18)
(14.0639 3.55786 5.5224e-19)
(14.0576 3.49827 -5.09547e-18)
(14.0469 3.44137 4.52045e-18)
(14.0323 3.38739 5.77551e-19)
(14.0143 3.33648 0)
(13.9934 3.28875 0)
(13.9699 3.24424 0)
(13.9443 3.20298 -2.32043e-18)
(13.917 3.16492 2.30949e-18)
(13.8882 3.12992 -2.87823e-19)
(13.8583 3.09795 -2.35064e-18)
(13.8277 3.06898 2.63488e-18)
(13.7965 3.04278 0)
(13.765 3.01922 4.11375e-21)
(13.7333 2.99822 -5.92691e-19)
(13.7017 2.97976 2.87742e-19)
(12.6214 4.38306 4.70617e-18)
(12.723 4.38699 0)
(12.8155 4.38731 -2.3694e-17)
(12.9013 4.38534 1.94397e-17)
(12.9814 4.37987 0)
(13.0571 4.37145 1.95875e-17)
(13.1293 4.36047 -1.60464e-19)
(13.1988 4.34685 1.99487e-17)
(13.2659 4.33045 -3.05371e-17)
(13.3308 4.3111 -2.01648e-17)
(13.3939 4.28872 2.04881e-17)
(13.4551 4.26306 5.021e-18)
(13.5142 4.2337 0)
(13.5708 4.20029 0)
(13.6246 4.16269 -5.1002e-18)
(13.6755 4.12089 2.23714e-17)
(13.7227 4.07489 -4.40907e-17)
(13.766 4.02472 1.93176e-17)
(13.8047 3.97054 2.4096e-18)
(13.8383 3.9126 2.38478e-18)
(13.8662 3.85119 -1.13173e-18)
(13.8869 3.79159 1.7073e-17)