/*--------------------------------*- C++ -*----------------------------------*\
| =========                 |                                                 |
| \\      /  F ield         | OpenFOAM: The Open Source CFD Toolbox           |
|  \\    /   O peration     | Version:  5.x                                   |
|   \\  /    A nd           | Web:      www.OpenFOAM.org                      |
|    \\/     M anipulation  |                                                 |
\*---------------------------------------------------------------------------*/
FoamFile
{
    version     2.0;
    format      ascii;
    class       volVectorField;
    location    "650";
    object      wallShearStress;
}
// * * * * * * * * * * * * * * * * * * * * * * * * * * * * * * * * * * * * * //

dimensions      [0 2 -2 0 0 0 0];

internalField   uniform (0 0 0);

boundaryField
{
    inlet
    {
        type            calculated;
        value           uniform (0 0 0);
    }
    outlet
    {
        type            calculated;
        value           uniform (0 0 0);
    }
    walls
    {
        type            calculated;
        value           nonuniform List<vector> 
82
(
(0.116183 -0.818182 0)
(-0.0277539 -1.20668 7.1411e-21)
(-0.21673 -1.53281 -8.36416e-19)
(-0.496543 -1.57464 -9.43858e-19)
(-0.728978 -1.4793 -2.20225e-18)
(-0.898864 -1.30386 1.10307e-18)
(-1.00378 -1.09525 1.06329e-18)
(-1.05276 -0.884599 -9.97717e-19)
(-1.05776 -0.690388 -2.26064e-18)
(-1.02473 -0.519033 -7.32777e-20)
(-0.93195 -0.354048 -1.00707e-18)
(-0.81415 -0.2199 5.08527e-20)
(-0.726037 -0.140854 -7.7291e-19)
(-0.679132 -0.102649 -7.10637e-19)
(-0.639515 -0.0763914 -5.53361e-19)
(-0.590751 -0.0511371 -3.16176e-19)
(-0.535661 -0.0290705 2.38691e-19)
(-0.479873 -0.0113976 1.88474e-20)
(-0.425075 0.00219872 -1.88134e-20)
(-0.371367 0.0121572 -9.57599e-20)
(-0.318594 0.0188366 -6.15822e-20)
(-0.273451 0.0220486 -3.58767e-20)
(-0.235159 0.0230602 -2.01583e-20)
(-0.199154 0.0227854 2.61953e-21)
(-0.165416 0.021483 1.34136e-21)
(-0.134043 0.019361 -3.68979e-21)
(-0.105175 0.0166075 2.97461e-19)
(-0.0791708 0.0134093 -6.12102e-21)
(-0.0565397 0.0101832 4.10779e-19)
(-0.0368752 0.00715322 -4.37797e-19)
(-0.0208311 0.00435962 -7.14919e-21)
(-0.00895826 0.00205785 -3.99488e-21)
(-0.00217551 0.000556331 3.71841e-21)
(0.00144431 -0.000257959 -7.52316e-37)
(0.00500236 -0.00113256 -1.25522e-18)
(0.00881579 -0.00239881 0)
(0.0155315 -0.00474279 -1.19019e-37)
(0.0279014 -0.00788915 2.47984e-21)
(0.0422279 -0.00831564 -2.57825e-21)
(0.0459492 -0.000333336 1.18576e-18)
(0.0213069 0.00976026 1.17501e-18)
(0.142718 -0.532017 -2.28788e-19)
(0.0876675 -0.239955 -3.23587e-20)
(0.0325698 -0.0849281 -1.54531e-18)
(-0.000173463 -0.0157808 -6.54277e-19)
(-0.0165938 0.00154137 -7.97105e-19)
(-0.0501002 0.0202238 -1.02738e-18)
(-0.0894846 0.0369513 -2.12059e-18)
(-0.128393 0.0490829 -9.88445e-19)
(-0.165087 0.0581062 8.75385e-19)
(-0.205112 0.0691783 5.91027e-20)
(-0.251518 0.0786395 -1.74269e-18)
(-0.292623 0.0774608 7.78039e-19)
(-0.324121 0.0696086 2.09801e-21)
(-0.350538 0.0610176 4.68584e-19)
(-0.373978 0.0523475 7.13434e-19)
(-0.393763 0.0429967 -4.32465e-20)
(-0.409623 0.0331096 1.88079e-37)
(-0.42186 0.0230355 -2.71738e-19)
(-0.430812 0.0130591 -1.89791e-20)
(-0.436843 0.00340054 -1.41409e-19)
(-0.439974 -0.00570201 3.52961e-22)
(-0.441325 -0.0138313 -9.40395e-38)
(-0.440909 -0.0202667 -2.84193e-19)
(-0.439732 -0.0259023 -2.44449e-19)
(-0.438041 -0.0308974 5.08034e-19)
(-0.435973 -0.0353394 4.95603e-19)
(-0.433666 -0.0392872 9.68103e-19)
(-0.431233 -0.0428035 4.73049e-19)
(-0.428748 -0.0459503 1.43494e-20)
(-0.426275 -0.0487901 -4.65924e-19)
(-0.423881 -0.0513836 -4.48642e-19)
(-0.421634 -0.0537928 8.7003e-19)
(-0.419571 -0.0560759 8.49663e-19)
(-0.417726 -0.058282 -8.29309e-19)
(-0.416085 -0.0604546 6.24026e-21)
(-0.414686 -0.0626344 -6.15391e-21)
(-0.413434 -0.0648595 -1.17549e-38)
(-0.412818 -0.0672179 -1.46937e-39)
(-0.411167 -0.0696956 1.40559e-21)
(-0.416761 -0.0727789 -7.13712e-19)
(-0.399064 -0.0758891 6.51975e-22)
)
;
    }
    frontAndBack
    {
        type            empty;
    }
}


// ************************************************************************* //
