/*--------------------------------*- C++ -*----------------------------------*\
| =========                 |                                                 |
| \\      /  F ield         | OpenFOAM: The Open Source CFD Toolbox           |
|  \\    /   O peration     | Version:  5.x                                   |
|   \\  /    A nd           | Web:      www.OpenFOAM.org                      |
|    \\/     M anipulation  |                                                 |
\*---------------------------------------------------------------------------*/
FoamFile
{
    version     2.0;
    format      ascii;
    class       volVectorField;
    location    "650";
    object      wallShearStress;
}
// * * * * * * * * * * * * * * * * * * * * * * * * * * * * * * * * * * * * * //

dimensions      [0 2 -2 0 0 0 0];

internalField   uniform (0 0 0);

boundaryField
{
    inlet
    {
        type            calculated;
        value           uniform (0 0 0);
    }
    outlet
    {
        type            calculated;
        value           uniform (0 0 0);
    }
    walls
    {
        type            calculated;
        value           nonuniform List<vector> 
82
(
(0.20565 -1.42245 -7.52316e-37)
(-0.0439437 -2.10089 1.23779e-20)
(-0.370358 -2.67201 -1.45261e-18)
(-0.856063 -2.74693 -1.63672e-18)
(-1.25997 -2.58251 -3.81239e-18)
(-1.55578 -2.27777 1.90674e-18)
(-1.73997 -1.91427 1.83403e-18)
(-1.82801 -1.54675 -1.71786e-18)
(-1.83985 -1.20775 -3.89079e-18)
(-1.7851 -0.908484 -1.26232e-19)
(-1.62502 -0.619869 -1.72954e-18)
(-1.42141 -0.385153 8.69389e-20)
(-1.27055 -0.246929 -1.31828e-18)
(-1.19251 -0.180321 -1.208e-18)
(-1.12731 -0.134703 -9.38409e-19)
(-1.0458 -0.0907188 -5.34332e-19)
(-0.952548 -0.0520463 4.01693e-19)
(-0.857506 -0.0208151 3.13767e-20)
(-0.76377 0.00345244 -3.13254e-20)
(-0.671602 0.0214659 -1.56141e-19)
(-0.580732 0.0338081 -9.72356e-20)
(-0.502804 0.0400531 -5.19072e-20)
(-0.436438 0.0423457 -1.53329e-20)
(-0.37377 0.042337 5.76285e-21)
(-0.314722 0.0404737 2.33503e-21)
(-0.259421 0.037114 -7.00945e-21)
(-0.207977 0.0326205 5.56801e-19)
(-0.160556 0.0274036 -1.13772e-20)
(-0.117308 0.0217453 7.87342e-19)
(-0.0791474 0.0157834 -8.57526e-19)
(-0.0481137 0.0101202 -1.38087e-20)
(-0.024463 0.00544639 -7.4495e-21)
(-0.00883012 0.00209719 6.58676e-21)
(-0.000822805 0.00028124 0)
(0.0039784 -0.000882437 -1.91966e-18)
(0.00973811 -0.00272393 6.01853e-36)
(0.019783 -0.00640469 -1.20488e-37)
(0.0408663 -0.0120442 4.81143e-21)
(0.0687831 -0.013765 -4.83537e-21)
(0.0795594 -0.000670816 2.36478e-18)
(0.0360361 0.0158665 2.16104e-18)
(0.250121 -0.923927 -3.97015e-19)
(0.153526 -0.415408 -5.5855e-20)
(0.0576845 -0.146463 -2.66823e-18)
(0.000735894 -0.0266749 -1.09623e-18)
(-0.0246802 0.00169357 -1.2958e-18)
(-0.080119 0.0325734 -1.76717e-18)
(-0.146863 0.0617757 -3.64327e-18)
(-0.212986 0.0823336 -1.66028e-18)
(-0.275115 0.096828 1.47535e-18)
(-0.343442 0.115366 1.01278e-19)
(-0.422703 0.131867 -3.02434e-18)
(-0.493149 0.130665 1.3608e-18)
(-0.547492 0.11804 3.55278e-21)
(-0.593239 0.103892 8.26362e-19)
(-0.633941 0.0894272 1.26179e-18)
(-0.668442 0.0736898 -7.66019e-20)
(-0.696255 0.0569525 8.46356e-37)
(-0.71787 0.0398268 -4.83856e-19)
(-0.733855 0.022816 -3.38093e-20)
(-0.744835 0.00630648 -2.52898e-19)
(-0.750831 -0.00928151 5.95077e-22)
(-0.753699 -0.0232392 -4.70198e-37)
(-0.75346 -0.0343147 -5.09729e-19)
(-0.75188 -0.0440292 -4.38916e-19)
(-0.749356 -0.0526438 9.13375e-19)
(-0.746107 -0.0603031 8.92224e-19)
(-0.742386 -0.0671087 1.74515e-18)
(-0.738392 -0.0731673 8.53864e-19)
(-0.734259 -0.0785853 2.59538e-20)
(-0.730096 -0.0834718 -8.43218e-19)
(-0.726039 -0.0879318 -8.12941e-19)
(-0.722191 -0.0920707 1.5786e-18)
(-0.718605 -0.0959837 1.54399e-18)
(-0.715315 -0.0997501 -1.50958e-18)
(-0.712291 -0.103442 1.13902e-20)
(-0.709568 -0.107126 -1.12358e-20)
(-0.70697 -0.110862 0)
(-0.705294 -0.114788 -2.93874e-39)
(-0.701625 -0.118875 2.59321e-21)
(-0.709745 -0.12383 -1.3196e-18)
(-0.678045 -0.128931 1.21004e-21)
)
;
    }
    frontAndBack
    {
        type            empty;
    }
}


// ************************************************************************* //
