/*--------------------------------*- C++ -*----------------------------------*\
| =========                 |                                                 |
| \\      /  F ield         | OpenFOAM: The Open Source CFD Toolbox           |
|  \\    /   O peration     | Version:  5.x                                   |
|   \\  /    A nd           | Web:      www.OpenFOAM.org                      |
|    \\/     M anipulation  |                                                 |
\*---------------------------------------------------------------------------*/
FoamFile
{
    version     2.0;
    format      ascii;
    class       volScalarField;
    location    "2100";
    object      p;
}
// * * * * * * * * * * * * * * * * * * * * * * * * * * * * * * * * * * * * * //

dimensions      [0 2 -2 0 0 0 0];

internalField   nonuniform List<scalar> 
11040
(
-0.00193038
-99.7332
-337.067
-401.179
-422.363
-435.339
-436.793
-426.495
-407.826
-381.895
-348.211
-296.467
-246.654
-211.176
-186.384
-159.955
-133.111
-107.754
-83.7507
-60.5831
-38.164
-18.7983
-2.61553
12.5295
26.7162
39.9683
52.2811
63.6431
73.9925
83.2297
91.2421
97.9097
103.177
107.112
109.914
111.84
112.629
112.05
111.723
115.212
115.272
36.5763
-59.9099
-212.478
-290.474
-331.383
-361.455
-379.287
-383.47
-376.488
-360.05
-334.365
-291.474
-246.299
-211.467
-186.129
-160.009
-133.473
-108.249
-84.3242
-61.2206
-38.8425
-19.5246
-3.31144
11.8633
26.082
39.3717
51.7297
63.143
73.5528
82.8614
90.9505
97.6985
103.045
107.04
109.878
111.853
112.711
112.114
111.374
113.837
113.376
61.2548
-32.4996
-142.359
-234.014
-288.794
-325.027
-347.619
-356.286
-353.298
-340.637
-319.322
-283.738
-242.965
-208.957
-183.517
-158.39
-132.618
-107.789
-84.1364
-61.2525
-39.0338
-19.795
-3.6246
11.5195
25.7191
39.0017
51.3647
62.7933
73.2298
82.5784
90.7204
97.5332
102.946
106.999
109.877
111.891
112.813
112.271
111.388
113.051
112.239
78.635
-5.13825
-87.3782
-171.033
-229.423
-270.857
-300.45
-317.068
-321.364
-315.171
-300.012
-272.174
-236.923
-204.864
-179.749
-155.733
-130.95
-106.717
-83.4905
-60.9503
-38.987
-19.9148
-3.84291
11.2343
25.3876
38.6413
50.9928
62.4249
72.8804
82.2651
90.4609
97.3427
102.832
106.96
109.89
111.926
112.887
112.406
111.475
112.655
112.011
92.3283
20.5663
-43.3244
-114.926
-173.762
-218.795
-253.048
-275.64
-286.309
-286.342
-277.336
-257.132
-228.281
-199.189
-174.82
-151.954
-128.39
-104.991
-82.3579
-60.3046
-38.7253
-19.918
-4.00859
10.9475
25.0086
38.1953
50.5046
61.9168
72.3754
81.7885
90.0392
97.0024
102.594
106.829
109.846
111.92
112.918
112.524
111.592
112.594
112.454
102.747
42.958
-8.03337
-67.4275
-121.969
-167.092
-203.663
-230.739
-247.184
-253.45
-250.815
-238.176
-216.308
-191.236
-168.359
-146.851
-124.76
-102.456
-80.605
-59.1904
-38.1328
-19.6904
-4.02537
10.7366
24.6423
37.7063
49.9254
61.2775
71.7073
81.126
89.4203
96.468
102.18
106.557
109.702
111.847
112.912
112.674
111.83
112.818
113.226
110.636
61.6509
20.2384
-28.3107
-76.0006
-118.36
-154.811
-184.211
-204.946
-216.689
-220.156
-214.755
-200.172
-180.213
-159.876
-140.153
-119.819
-98.9161
-78.088
-57.497
-37.1183
-19.1602
-3.83753
10.6468
24.3231
37.197
49.2643
60.5017
70.8562
80.2444
88.5591
95.6844
101.529
106.077
109.399
111.673
112.867
112.873
112.252
113.296
114.242
116.577
76.7346
42.7963
3.35919
-36.8062
-74.5026
-108.736
-138.272
-161.391
-177.226
-185.908
-186.965
-179.462
-165.368
-148.666
-131.374
-113.182
-94.055
-74.5688
-55.043
-35.5451
-18.2261
-3.3649
10.7404
24.0976
36.699
48.5371
59.5882
69.8027
79.1052
87.3988
94.5778
100.553
105.296
108.847
111.329
112.751
113.121
112.875
114.092
115.464
120.996
88.615
60.6688
28.6904
-4.39304
-36.6106
-67.1708
-94.9791
-118.508
-136.679
-149.184
-155.483
-154.3
-146.253
-134.051
-119.94
-104.37
-87.4575
-69.7107
-51.5617
-33.1987
-16.7099
-2.45675
11.1403
24.0654
36.2939
47.8096
58.5866
68.5785
77.719
85.9255
93.1076
99.1856
104.126
107.945
110.727
112.505
113.382
113.681
115.239
116.861
124.209
97.8155
74.7308
48.7946
21.8761
-4.90369
-31.1111
-55.9523
-78.2367
-96.9634
-111.609
-121.574
-125.451
-122.978
-115.658
-105.361
-92.9188
-78.6725
-63.1091
-46.7183
-29.804
-14.3786
-0.910758
12.0183
24.3728
36.1091
47.1962
57.6013
67.2789
76.1707
84.2081
91.319
97.4398
102.542
106.635
109.78
112.03
113.553
114.561
116.615
118.414
126.477
104.864
85.7428
64.6779
42.902
21.0246
-0.805676
-22.1121
-42.053
-59.8654
-75.0244
-86.9549
-94.3056
-96.3471
-93.6465
-87.4293
-78.4938
-67.3071
-54.3537
-40.1342
-25.0348
-10.9532
1.51674
13.5877
25.2056
36.3085
46.8457
56.7728
66.0422
74.5998
82.388
89.3503
95.4404
100.641
104.97
108.482
111.244
113.463
115.263
117.894
119.984
128.025
110.236
94.3572
77.2113
59.6277
41.9263
24.0883
6.35241
-10.744
-26.6903
-41.0847
-53.4524
-62.6419
-67.7797
-68.845
-66.4386
-61.0727
-53.158
-43.1312
-31.4541
-18.5405
-6.11146
5.11708
16.1125
26.8009
37.1039
46.9491
56.2775
65.0359
73.172
80.6349
87.3793
93.3719
98.606
103.108
106.934
110.159
112.991
115.514
118.647
121.205
129.047
114.334
101.119
87.1261
72.9195
58.659
44.2476
29.7768
15.5593
1.91451
-10.9146
-22.5919
-32.2252
-39.0074
-42.6418
-43.2864
-41.123
-36.3798
-29.3702
-20.4608
-10.0279
0.460517
10.2005
19.8941
29.446
38.7636
47.7549
56.3451
64.4736
72.0872
79.1387
85.59
91.4159
96.6152
101.217
105.275
108.854
112.133
115.189
118.614
121.655
129.703
117.487
106.47
95.0187
83.5193
72.0431
60.4674
48.8049
37.2256
25.9134
14.9921
4.66302
-4.43246
-11.652
-16.6372
-19.312
-19.6208
-17.5952
-13.385
-7.22095
0.613005
8.96825
17.0192
25.2133
33.438
41.5896
49.5604
57.2623
64.6279
71.6013
78.1361
84.1974
89.7637
94.8345
99.4364
103.609
107.402
110.944
114.304
117.805
121.079
130.117
119.946
110.753
101.358
92.0277
82.7855
73.5085
64.1726
54.8643
45.681
36.6791
27.9555
19.9435
13.1088
7.76247
4.0583
2.1626
2.17573
4.09023
7.81325
13.1772
19.3785
25.6496
32.2265
38.9907
45.8353
52.645
59.3227
65.7949
72.0037
77.9026
83.4569
88.6443
93.4605
97.9241
102.058
105.893
109.507
112.953
116.379
119.616
130.399
121.917
114.241
106.514
98.9235
91.4666
84.0312
76.5796
69.1524
61.7974
54.533
47.3963
40.6663
34.6609
29.6099
25.6608
22.9962
21.7674
22.051
23.8559
27.1193
31.3531
35.9102
40.8792
46.1504
51.6239
57.1886
62.7475
68.2253
73.5625
78.7117
83.6368
88.3133
92.7311
96.8983
100.822
104.513
108.015
111.357
114.6
117.661
130.661
123.584
117.176
110.807
104.617
98.5857
92.616
86.6679
80.7583
74.9086
69.1178
63.3959
57.9154
52.8856
48.4635
44.7609
41.9305
40.118
39.4274
39.9193
41.6001
44.2234
47.2914
50.8082
54.684
58.8345
63.1629
67.5819
72.0212
76.4241
80.7439
84.9435
88.9955
92.8836
96.6063
100.159
103.539
106.766
109.854
112.82
115.626
130.898
124.934
119.527
114.21
109.093
104.146
99.2839
94.4703
89.7114
85.016
80.3765
75.7935
71.3757
67.2575
63.5424
60.3082
57.6685
55.7406
54.6208
54.3821
55.0611
56.5606
58.5188
60.9033
63.6479
66.6868
69.9424
73.3423
76.8265
80.3446
83.854
87.3194
90.7128
94.0146
97.2165
100.307
103.274
106.127
108.868
111.497
113.997
131.093
125.992
121.358
116.845
112.541
108.408
104.374
100.406
96.5041
92.6715
88.8984
85.1808
81.5923
78.2221
75.138
72.3939
70.0708
68.2564
67.0286
66.4533
66.5737
67.3711
68.5843
70.1724
72.0896
74.2866
76.7036
79.2837
81.9782
84.745
87.5472
90.3534
93.1373
95.8788
98.5666
101.186
103.722
106.177
108.547
110.824
113.002
131.275
126.855
122.836
118.952
115.276
111.769
108.366
105.04
101.787
98.6079
95.4925
92.4359
89.4892
86.7144
84.1564
81.8525
79.8602
78.2435
77.0615
76.3678
76.2017
76.5807
77.3137
78.3627
79.6974
81.2811
83.0686
85.0162
87.0859
89.2435
91.4586
93.7045
95.9578
98.2
100.419
102.599
104.727
106.8
108.811
110.752
112.618
131.452
127.584
124.062
120.682
117.506
114.492
111.585
108.76
106.013
103.341
100.736
98.1929
95.7483
93.4467
91.3185
89.3891
87.7004
86.2985
85.2271
84.5275
84.2317
84.371
84.8017
85.4925
86.4241
87.569
88.8928
90.3627
91.9492
93.6255
95.3668
97.1513
98.9593
100.774
102.585
104.378
106.139
107.866
109.55
111.183
112.761
131.627
128.213
125.102
122.135
119.364
116.748
114.238
111.813
109.466
107.196
104.995
102.857
100.81
98.8863
97.1072
95.4899
94.065
92.8661
91.925
91.2727
90.9337
90.9419
91.1858
91.6415
92.2969
93.1308
94.1171
95.2308
96.4494
97.752
99.1189
100.532
101.976
103.437
104.904
106.366
107.812
109.236
110.634
111.995
113.317
131.799
128.766
125.999
123.374
120.938
118.649
116.463
114.361
112.34
110.393
108.516
106.703
104.975
103.355
101.86
100.501
99.2993
98.2809
97.4685
96.8848
96.5479
96.4894
96.6202
96.9225
97.3892
98.0035
98.7452
99.5951
100.536
101.552
102.626
103.746
104.898
106.071
107.256
108.443
109.622
110.791
111.943
113.071
114.171
131.968
129.257
126.782
124.446
122.289
120.271
118.353
116.519
114.764
113.082
111.469
109.92
108.45
107.078
105.814
104.668
103.654
102.792
102.097
101.587
101.274
101.186
101.25
101.453
101.79
102.249
102.813
103.468
104.2
104.997
105.845
106.735
107.655
108.597
109.553
110.515
111.476
112.433
113.379
114.31
115.221
132.133
129.697
127.471
125.381
123.46
121.671
119.978
118.367
116.832
115.37
113.975
112.642
111.385
110.215
109.142
108.172
107.315
106.585
105.994
105.555
105.276
105.179
105.204
105.342
105.591
105.939
106.374
106.884
107.459
108.088
108.762
109.472
110.21
110.968
111.741
112.522
113.305
114.087
114.863
115.63
116.382
132.294
130.094
128.083
126.204
124.484
122.889
121.386
119.963
118.615
117.336
116.122
114.97
113.888
112.886
111.971
111.147
110.42
109.802
109.302
108.927
108.683
108.589
108.593
108.688
108.875
109.144
109.485
109.887
110.342
110.844
111.383
111.953
112.548
113.161
113.787
114.422
115.061
115.701
116.339
116.971
117.592
132.448
130.454
128.63
126.932
125.385
123.956
122.616
121.353
120.162
119.038
117.977
116.976
116.041
115.179
114.396
113.693
113.076
112.552
112.129
111.81
111.601
111.515
111.508
111.576
111.72
111.932
112.201
112.522
112.887
113.29
113.725
114.186
114.668
115.166
115.676
116.195
116.717
117.243
117.767
118.289
118.802
132.596
130.78
129.119
127.579
126.182
124.897
123.697
122.571
121.514
120.522
119.591
118.717
117.905
117.161
116.488
115.887
115.362
114.919
114.56
114.291
114.113
114.038
114.026
114.077
114.19
114.359
114.576
114.835
115.13
115.457
115.811
116.186
116.579
116.986
117.404
117.829
118.258
118.691
119.124
119.555
119.981
132.737
131.077
129.558
128.157
126.89
125.729
124.65
123.642
122.701
121.823
121.002
120.237
119.53
118.886
118.306
117.79
117.343
116.966
116.663
116.437
116.287
116.223
116.21
116.249
116.34
116.477
116.654
116.866
117.107
117.375
117.664
117.972
118.295
118.629
118.973
119.323
119.678
120.035
120.394
120.752
121.105
132.871
131.347
129.954
128.674
127.521
126.468
125.494
124.589
123.749
122.968
122.243
121.57
120.953
120.393
119.892
119.45
119.068
118.748
118.492
118.301
118.176
118.123
118.112
118.143
118.218
118.331
118.477
118.651
118.851
119.071
119.31
119.565
119.831
120.107
120.392
120.682
120.976
121.273
121.571
121.869
122.163
132.997
131.594
130.311
129.137
128.084
127.126
126.244
125.429
124.675
123.979
123.337
122.744
122.204
121.717
121.283
120.903
120.576
120.304
120.088
119.929
119.825
119.782
119.772
119.799
119.861
119.956
120.078
120.223
120.389
120.573
120.772
120.983
121.205
121.434
121.671
121.912
122.157
122.405
122.653
122.902
123.148
133.115
131.818
130.633
129.553
128.588
127.713
126.912
126.175
125.497
124.875
124.304
123.782
123.307
122.883
122.507
122.179
121.9
121.669
121.487
121.354
121.269
121.235
121.228
121.251
121.305
121.385
121.488
121.61
121.749
121.903
122.07
122.246
122.432
122.624
122.821
123.023
123.228
123.435
123.643
123.852
124.057
133.226
132.022
130.924
129.926
129.038
128.237
127.506
126.838
126.228
125.67
125.162
124.7
124.283
123.913
123.587
123.305
123.066
122.87
122.717
122.607
122.537
122.511
122.507
122.527
122.574
122.643
122.731
122.835
122.953
123.082
123.222
123.371
123.527
123.688
123.854
124.023
124.195
124.369
124.543
124.719
124.892
133.329
132.207
131.185
130.26
129.44
128.704
128.036
127.429
126.877
126.377
125.924
125.514
125.148
124.824
124.542
124.299
124.095
123.929
123.801
123.71
123.654
123.634
123.633
123.652
123.694
123.754
123.829
123.918
124.018
124.129
124.247
124.373
124.504
124.64
124.78
124.922
125.067
125.214
125.361
125.509
125.654
133.425
132.375
131.42
130.56
129.8
129.121
128.508
127.954
127.455
127.005
126.6
126.237
125.915
125.632
125.387
125.179
125.005
124.865
124.758
124.683
124.639
124.625
124.626
124.645
124.682
124.735
124.801
124.877
124.963
125.057
125.158
125.264
125.376
125.491
125.609
125.729
125.852
125.975
126.099
126.225
126.347
133.513
132.526
131.63
130.827
130.12
129.491
128.927
128.422
127.968
127.563
127.201
126.879
126.595
126.348
126.137
125.958
125.81
125.693
125.604
125.544
125.509
125.501
125.504
125.523
125.557
125.603
125.661
125.727
125.801
125.882
125.968
126.059
126.154
126.251
126.352
126.454
126.557
126.662
126.767
126.873
126.976
133.593
132.661
131.818
131.064
130.404
129.82
129.299
128.836
128.423
128.057
127.733
127.448
127.198
126.983
126.8
126.647
126.523
126.425
126.352
126.304
126.278
126.274
126.28
126.298
126.329
126.371
126.422
126.48
126.544
126.613
126.687
126.765
126.846
126.929
127.014
127.101
127.189
127.278
127.367
127.456
127.544
133.667
132.782
131.984
131.274
130.654
130.109
129.627
129.201
128.825
128.494
128.204
127.951
127.732
127.545
127.388
127.258
127.153
127.073
127.014
126.976
126.958
126.958
126.966
126.985
127.014
127.052
127.097
127.148
127.204
127.264
127.328
127.395
127.464
127.536
127.608
127.682
127.756
127.832
127.907
127.983
128.057
133.732
132.889
132.13
131.457
130.873
130.363
129.915
129.522
129.178
128.879
128.619
128.395
128.203
128.041
127.907
127.797
127.71
127.644
127.598
127.569
127.557
127.561
127.571
127.59
127.617
127.652
127.692
127.737
127.786
127.839
127.894
127.952
128.012
128.072
128.134
128.197
128.261
128.325
128.389
128.453
128.515
133.791
132.982
132.256
131.616
131.063
130.582
130.164
129.801
129.487
129.216
128.983
128.785
128.617
128.478
128.363
128.272
128.201
128.148
128.113
128.093
128.087
128.095
128.107
128.126
128.153
128.185
128.222
128.263
128.306
128.353
128.401
128.451
128.502
128.554
128.608
128.661
128.715
128.769
128.824
128.878
128.931
133.843
133.062
132.364
131.751
131.224
130.77
130.378
130.041
129.752
129.507
129.299
129.124
128.978
128.859
128.763
128.687
128.63
128.59
128.564
128.551
128.55
128.56
128.574
128.593
128.619
128.649
128.682
128.719
128.758
128.799
128.841
128.885
128.929
128.974
129.02
129.066
129.112
129.158
129.204
129.25
129.295
133.887
133.128
132.453
131.863
131.359
130.927
130.558
130.244
129.978
129.755
129.569
129.415
129.29
129.189
129.109
129.049
129.005
128.976
128.96
128.955
128.96
128.974
128.99
129.011
129.037
129.066
129.098
129.132
129.167
129.204
129.242
129.28
129.319
129.358
129.397
129.436
129.476
129.515
129.554
129.593
129.63
133.925
133.182
132.524
131.953
131.466
131.054
130.704
130.411
130.166
129.964
129.797
129.663
129.555
129.471
129.407
129.36
129.327
129.307
129.298
129.299
129.307
129.323
129.341
129.362
129.387
129.415
129.444
129.475
129.507
129.54
129.574
129.608
129.642
129.676
129.71
129.744
129.778
129.812
129.845
129.878
129.91
133.955
133.223
132.578
132.02
131.548
131.151
130.818
130.542
130.316
130.132
129.984
129.867
129.777
129.708
129.659
129.625
129.606
129.597
129.598
129.607
129.622
129.643
129.665
129.689
129.716
129.744
129.774
129.804
129.834
129.865
129.895
129.926
129.956
129.986
130.016
130.045
130.074
130.102
130.13
130.158
130.185
133.979
133.254
132.617
132.068
131.606
131.221
130.902
130.641
130.43
130.263
130.131
130.03
129.955
129.901
129.864
129.841
129.83
129.828
129.834
129.846
129.864
129.886
129.909
129.933
129.96
129.987
130.015
130.044
130.072
130.1
130.128
130.156
130.183
130.21
130.237
130.262
130.288
130.313
130.337
130.361
130.384
133.996
133.271
132.638
132.095
131.641
131.265
130.957
130.709
130.512
130.358
130.241
130.155
130.094
130.055
130.034
130.026
130.03
130.042
130.061
130.085
130.111
130.141
130.17
130.199
130.229
130.259
130.289
130.318
130.347
130.374
130.401
130.427
130.452
130.476
130.5
130.522
130.544
130.565
130.585
130.605
130.624
134.004
133.268
132.629
132.086
131.635
131.265
130.968
130.732
130.548
130.409
130.306
130.234
130.185
130.157
130.143
130.141
130.149
130.165
130.186
130.212
130.241
130.272
130.302
130.332
130.362
130.392
130.422
130.45
130.478
130.504
130.529
130.554
130.577
130.6
130.621
130.642
130.662
130.68
130.698
130.716
130.732
134.002
133.247
132.596
132.045
131.592
131.224
130.933
130.706
130.535
130.41
130.325
130.271
130.244
130.238
130.25
130.273
130.306
130.345
130.386
130.428
130.47
130.51
130.549
130.587
130.623
130.657
130.69
130.721
130.75
130.777
130.803
130.827
130.85
130.871
130.891
130.909
130.927
130.944
130.959
130.974
130.988
125.738
133.173
139.073
142.366
144.221
145.37
145.929
146.068
145.941
145.644
145.241
144.777
144.285
143.784
143.289
142.808
142.347
141.908
141.494
141.104
140.738
140.396
140.077
139.779
139.501
139.242
139.001
138.777
138.568
138.374
138.193
138.024
137.866
137.718
137.579
137.449
137.326
137.21
137.101
136.999
136.902
136.811
136.726
136.645
136.569
136.497
136.43
136.366
136.305
136.248
136.193
136.141
136.092
136.044
135.999
135.956
135.914
135.874
135.835
135.797
135.761
135.725
135.691
135.657
135.624
135.592
135.561
135.531
135.502
135.476
135.447
135.43
135.395
135.408
124.727
132.723
138.889
142.415
144.368
145.521
146.055
146.164
146.008
145.686
145.262
144.783
144.277
143.766
143.264
142.777
142.311
141.87
141.454
141.063
140.697
140.355
140.036
139.738
139.461
139.204
138.964
138.741
138.534
138.34
138.161
137.993
137.836
137.689
137.552
137.422
137.301
137.186
137.078
136.977
136.881
136.791
136.706
136.626
136.551
136.48
136.413
136.35
136.29
136.233
136.179
136.128
136.079
136.032
135.987
135.944
135.903
135.863
135.825
135.788
135.752
135.716
135.682
135.649
135.616
135.585
135.554
135.524
135.495
135.469
135.441
135.424
135.39
135.402
123.976
131.533
138.351
142.33
144.464
145.664
146.193
146.276
146.088
145.736
145.288
144.788
144.267
143.744
143.233
142.739
142.269
141.825
141.407
141.015
140.648
140.306
139.988
139.691
139.416
139.159
138.921
138.7
138.494
138.302
138.124
137.958
137.802
137.657
137.521
137.393
137.273
137.159
137.053
136.952
136.858
136.769
136.685
136.606
136.532
136.461
136.395
136.333
136.274
136.217
136.164
136.113
136.065
136.019
135.975
135.932
135.891
135.852
135.814
135.777
135.742
135.707
135.673
135.64
135.608
135.576
135.546
135.516
135.488
135.462
135.434
135.417
135.383
135.395
123.578
130.51
137.65
142.061
144.458
145.753
146.305
146.381
146.171
145.79
145.314
144.792
144.253
143.717
143.195
142.694
142.219
141.771
141.351
140.958
140.591
140.25
139.932
139.637
139.363
139.108
138.872
138.652
138.448
138.258
138.082
137.918
137.764
137.621
137.486
137.36
137.241
137.129
137.024
136.925
136.831
136.744
136.661
136.583
136.51
136.441
136.376
136.314
136.255
136.2
136.148
136.098
136.05
136.004
135.961
135.919
135.879
135.84
135.802
135.766
135.731
135.697
135.663
135.631
135.599
135.568
135.537
135.508
135.48
135.454
135.427
135.41
135.377
135.389
123.695
130.123
137.075
141.657
144.316
145.755
146.357
146.443
146.225
145.828
145.333
144.79
144.232
143.68
143.147
142.639
142.158
141.707
141.284
140.89
140.524
140.183
139.867
139.574
139.301
139.049
138.814
138.597
138.396
138.208
138.034
137.872
137.721
137.579
137.447
137.323
137.206
137.095
136.992
136.894
136.802
136.716
136.635
136.558
136.486
136.418
136.354
136.293
136.236
136.181
136.13
136.08
136.033
135.989
135.946
135.905
135.865
135.827
135.79
135.754
135.719
135.686
135.653
135.62
135.589
135.558
135.528
135.5
135.471
135.446
135.419
135.403
135.369
135.382
124.071
130.228
136.789
141.31
144.082
145.644
146.327
146.443
146.224
145.818
145.314
144.762
144.192
143.629
143.086
142.569
142.083
141.628
141.204
140.81
140.444
140.105
139.79
139.499
139.229
138.979
138.748
138.534
138.335
138.151
137.979
137.82
137.671
137.532
137.402
137.28
137.165
137.057
136.956
136.86
136.77
136.685
136.605
136.53
136.459
136.393
136.33
136.27
136.214
136.161
136.11
136.062
136.016
135.972
135.929
135.889
135.85
135.813
135.776
135.741
135.707
135.674
135.641
135.61
135.579
135.548
135.519
135.491
135.463
135.438
135.411
135.395
135.362
135.374
124.57
130.592
136.743
141.139
143.875
145.456
146.199
146.365
146.163
145.752
145.238
144.678
144.107
143.543
142.998
142.477
141.988
141.531
141.106
140.712
140.348
140.011
139.699
139.411
139.144
138.898
138.67
138.46
138.264
138.084
137.916
137.76
137.614
137.479
137.351
137.232
137.12
137.014
136.915
136.821
136.733
136.65
136.572
136.499
136.43
136.365
136.303
136.245
136.19
136.138
136.088
136.041
135.996
135.953
135.912
135.872
135.834
135.797
135.762
135.727
135.694
135.661
135.629
135.598
135.567
135.538
135.509
135.481
135.453
135.429
135.402
135.386
135.354
135.366
125.248
131.018
136.747
141.055
143.736
145.266
146.008
146.204
146.029
145.629
145.112
144.541
143.961
143.396
142.856
142.343
141.859
141.406
140.984
140.593
140.231
139.898
139.59
139.306
139.044
138.802
138.579
138.373
138.182
138.006
137.842
137.69
137.549
137.417
137.293
137.177
137.068
136.965
136.868
136.777
136.691
136.611
136.535
136.464
136.396
136.333
136.273
136.217
136.163
136.113
136.064
136.018
135.974
135.932
135.892
135.854
135.816
135.78
135.746
135.712
135.679
135.647
135.616
135.585
135.555
135.526
135.498
135.47
135.443
135.419
135.393
135.377
135.345
135.358
126.22
131.451
136.609
140.851
143.547
145.064
145.792
145.989
145.826
145.44
144.931
144.361
143.773
143.199
142.655
142.145
141.672
141.232
140.822
140.44
140.086
139.759
139.457
139.179
138.924
138.688
138.47
138.27
138.085
137.914
137.756
137.609
137.472
137.345
137.225
137.113
137.008
136.909
136.815
136.727
136.644
136.566
136.493
136.424
136.359
136.298
136.24
136.185
136.134
136.084
136.038
135.993
135.951
135.91
135.871
135.833
135.797
135.762
135.728
135.695
135.663
135.632
135.602
135.572
135.543
135.514
135.486
135.459
135.432
135.409
135.383
135.368
135.337
135.349
127.372
131.816
136.243
140.357
143.106
144.673
145.464
145.711
145.574
145.195
144.689
144.124
143.54
142.967
142.418
141.903
141.429
140.996
140.599
140.234
139.897
139.584
139.294
139.026
138.779
138.551
138.341
138.148
137.971
137.807
137.655
137.514
137.383
137.261
137.147
137.04
136.939
136.844
136.754
136.67
136.59
136.516
136.445
136.379
136.317
136.258
136.203
136.15
136.1
136.053
136.008
135.965
135.924
135.885
135.847
135.811
135.776
135.742
135.709
135.677
135.646
135.616
135.586
135.557
135.529
135.501
135.473
135.447
135.421
135.398
135.373
135.358
135.327
135.34
128.186
131.859
135.501
139.364
142.199
143.884
144.8
145.183
145.163
144.865
144.399
143.849
143.269
142.695
142.145
141.63
141.155
140.721
140.326
139.969
139.646
139.352
139.081
138.831
138.599
138.385
138.186
138.003
137.834
137.679
137.535
137.403
137.279
137.164
137.056
136.954
136.859
136.769
136.684
136.604
136.528
136.457
136.391
136.328
136.269
136.213
136.16
136.11
136.063
136.018
135.975
135.934
135.895
135.857
135.821
135.786
135.753
135.72
135.689
135.658
135.628
135.598
135.57
135.541
135.514
135.487
135.46
135.434
135.409
135.386
135.361
135.347
135.317
135.33
128.1
131.23
134.225
137.673
140.506
142.36
143.496
144.12
144.329
144.224
143.909
143.466
142.952
142.407
141.864
141.346
140.864
140.424
140.027
139.67
139.352
139.067
138.811
138.579
138.368
138.174
137.993
137.826
137.67
137.527
137.394
137.27
137.156
137.049
136.949
136.854
136.765
136.681
136.602
136.527
136.457
136.391
136.328
136.269
136.214
136.162
136.112
136.065
136.021
135.978
135.938
135.899
135.862
135.826
135.792
135.759
135.727
135.696
135.666
135.636
135.607
135.579
135.551
135.524
135.497
135.471
135.445
135.42
135.396
135.374
135.349
135.335
135.306
135.319
127.07
129.839
132.404
135.351
137.984
139.922
141.276
142.194
142.73
142.94
142.901
142.687
142.355
141.949
141.504
141.045
140.589
140.152
139.745
139.375
139.046
138.756
138.501
138.278
138.082
137.906
137.747
137.602
137.467
137.341
137.223
137.113
137.01
136.913
136.823
136.737
136.656
136.58
136.507
136.439
136.374
136.313
136.256
136.202
136.151
136.103
136.057
136.014
135.973
135.934
135.896
135.86
135.825
135.792
135.76
135.729
135.699
135.669
135.641
135.613
135.585
135.558
135.532
135.506
135.48
135.454
135.43
135.405
135.381
135.36
135.337
135.323
135.295
135.308
125.303
127.778
130.076
132.598
134.959
136.878
138.368
139.506
140.325
140.852
141.137
141.231
141.179
141.016
140.772
140.475
140.147
139.803
139.457
139.117
138.792
138.489
138.216
137.976
137.77
137.596
137.447
137.32
137.208
137.106
137.011
136.92
136.834
136.752
136.673
136.598
136.527
136.46
136.396
136.335
136.278
136.224
136.173
136.124
136.079
136.036
135.995
135.955
135.918
135.883
135.848
135.815
135.784
135.753
135.724
135.695
135.667
135.639
135.613
135.586
135.561
135.535
135.51
135.485
135.461
135.436
135.412
135.389
135.366
135.346
135.323
135.31
135.282
135.296
123.046
125.276
127.387
129.607
131.724
133.564
135.11
136.39
137.413
138.192
138.752
139.129
139.355
139.46
139.468
139.401
139.275
139.105
138.903
138.68
138.446
138.209
137.973
137.743
137.527
137.331
137.161
137.02
136.906
136.814
136.738
136.673
136.613
136.553
136.494
136.435
136.377
136.32
136.265
136.214
136.165
136.119
136.075
136.034
135.995
135.958
135.922
135.888
135.856
135.824
135.794
135.765
135.737
135.709
135.683
135.657
135.631
135.606
135.582
135.557
135.533
135.51
135.486
135.463
135.44
135.417
135.394
135.372
135.35
135.33
135.308
135.296
135.269
135.283
120.557
122.581
124.53
126.525
128.441
130.181
131.729
133.085
134.247
135.214
135.995
136.61
137.079
137.423
137.662
137.816
137.9
137.929
137.912
137.859
137.774
137.665
137.538
137.398
137.251
137.101
136.951
136.806
136.672
136.555
136.46
136.386
136.332
136.29
136.256
136.223
136.189
136.152
136.113
136.073
136.035
135.997
135.962
135.929
135.898
135.867
135.839
135.811
135.784
135.758
135.732
135.707
135.683
135.66
135.636
135.614
135.591
135.569
135.547
135.525
135.503
135.481
135.46
135.438
135.417
135.395
135.374
135.353
135.332
135.313
135.293
135.281
135.256
135.27
118.105
119.939
121.726
123.525
125.267
126.898
128.405
129.781
131.018
132.108
133.052
133.856
134.529
135.083
135.53
135.884
136.159
136.368
136.522
136.631
136.702
136.742
136.754
136.742
136.71
136.662
136.6
136.528
136.449
136.366
136.279
136.194
136.117
136.051
136.001
135.966
135.942
135.924
135.909
135.892
135.873
135.852
135.83
135.807
135.785
135.763
135.742
135.721
135.701
135.681
135.661
135.641
135.622
135.603
135.584
135.565
135.546
135.527
135.508
135.489
135.469
135.45
135.431
135.411
135.391
135.372
135.352
135.332
135.313
135.295
135.276
135.265
135.241
135.256
116.117
117.758
119.371
120.984
122.558
124.065
125.493
126.836
128.082
129.224
130.257
131.18
131.995
132.707
133.321
133.845
134.288
134.659
134.966
135.219
135.426
135.593
135.728
135.834
135.914
135.972
136.009
136.026
136.026
136.011
135.986
135.952
135.913
135.869
135.824
135.78
135.742
135.713
135.695
135.685
135.681
135.677
135.673
135.666
135.656
135.645
135.633
135.621
135.608
135.595
135.582
135.568
135.554
135.54
135.526
135.511
135.496
135.481
135.465
135.449
135.433
135.416
135.399
135.382
135.364
135.346
135.328
135.31
135.292
135.276
135.257
135.248
135.225
135.242
114.808
116.248
117.68
119.108
120.514
121.882
123.205
124.472
125.677
126.811
127.867
128.842
129.734
130.542
131.267
131.913
132.484
132.984
133.42
133.797
134.122
134.401
134.639
134.841
135.012
135.156
135.275
135.372
135.449
135.507
135.548
135.575
135.589
135.594
135.591
135.583
135.57
135.553
135.534
135.519
135.508
135.504
135.505
135.51
135.514
135.516
135.516
135.513
135.509
135.503
135.497
135.489
135.481
135.473
135.463
135.453
135.442
135.431
135.419
135.406
135.393
135.379
135.365
135.35
135.335
135.319
135.303
135.287
135.27
135.255
135.238
135.229
135.208
135.226
114.147
115.388
116.633
117.878
119.115
120.335
121.531
122.696
123.823
124.904
125.934
126.908
127.82
128.669
129.453
130.171
130.824
131.415
131.946
132.42
132.842
133.215
133.543
133.831
134.083
134.303
134.494
134.659
134.801
134.923
135.026
135.113
135.183
135.239
135.282
135.315
135.338
135.354
135.363
135.367
135.366
135.363
135.361
135.362
135.367
135.376
135.386
135.395
135.402
135.405
135.406
135.406
135.404
135.401
135.397
135.392
135.385
135.378
135.37
135.361
135.351
135.341
135.329
135.317
135.304
135.29
135.276
135.262
135.247
135.233
135.218
135.21
135.19
135.211
114.046
115.095
116.155
117.221
118.29
119.357
120.416
121.461
122.486
123.486
124.454
125.386
126.277
127.123
127.92
128.668
129.363
130.007
130.599
131.14
131.633
132.078
132.48
132.841
133.163
133.45
133.705
133.931
134.13
134.306
134.461
134.597
134.716
134.82
134.909
134.986
135.049
135.101
135.142
135.175
135.2
135.218
135.23
135.238
135.244
135.25
135.258
135.27
135.284
135.297
135.308
135.316
135.322
135.325
135.327
135.326
135.325
135.322
135.318
135.313
135.307
135.299
135.291
135.281
135.271
135.26
135.248
135.235
135.222
135.21
135.196
135.19
135.171
135.194
114.388
115.259
116.145
117.043
117.951
118.866
119.785
120.702
121.612
122.512
123.396
124.26
125.099
125.909
126.686
127.428
128.131
128.794
129.415
129.994
130.531
131.027
131.482
131.898
132.276
132.62
132.93
133.209
133.46
133.684
133.885
134.064
134.224
134.367
134.494
134.608
134.709
134.798
134.874
134.939
134.993
135.037
135.072
135.101
135.122
135.138
135.15
135.161
135.172
135.186
135.202
135.218
135.232
135.243
135.252
135.257
135.261
135.263
135.263
135.262
135.26
135.256
135.25
135.244
135.236
135.227
135.217
135.207
135.196
135.185
135.173
135.168
135.151
135.177
115.058
115.77
116.499
117.244
118.004
118.776
119.559
120.348
121.14
121.931
122.719
123.498
124.265
125.017
125.749
126.457
127.14
127.794
128.417
129.008
129.565
130.087
130.574
131.027
131.446
131.831
132.185
132.509
132.803
133.071
133.313
133.532
133.729
133.907
134.068
134.213
134.344
134.461
134.568
134.662
134.746
134.818
134.88
134.931
134.974
135.009
135.037
135.059
135.076
135.091
135.105
135.12
135.137
135.154
135.17
135.183
135.193
135.2
135.205
135.208
135.21