# y+ ()      
# Time       	patch        	min          	max          	average      
0            	walls	6.029285e+01	8.507258e+01	7.544013e+01
50           	walls	8.143823e+00	8.533979e+01	4.575603e+01
100          	walls	5.608739e+00	9.443988e+01	4.264967e+01
150          	walls	9.273683e+00	9.301226e+01	4.390088e+01
200          	walls	1.276657e+01	9.204966e+01	4.553122e+01
