# Wall shear stress
# Time       	patch        	min          	max          
0.000000e+00	walls	(-3.025573e+00 -3.194265e-01 -3.607841e-19)	(-2.230600e+00 4.642042e-01 7.428537e-19)
5.000000e+01	walls	(-4.122791e+02 -2.116356e+02 -1.011252e-15)	(-6.725278e+00 2.857222e+02 1.341133e-15)
1.000000e+02	walls	(-4.108059e+02 -2.090507e+02 -1.006639e-15)	(-7.785367e+00 2.898630e+02 1.334468e-15)
1.500000e+02	walls	(-4.099856e+02 -2.082727e+02 -1.004358e-15)	(-7.951675e+00 2.907761e+02 1.330818e-15)
2.000000e+02	walls	(-4.098270e+02 -2.080944e+02 -1.004042e-15)	(-7.970887e+00 2.910217e+02 1.330351e-15)
2.410000e+02	walls	(-4.097797e+02 -2.080506e+02 -1.003962e-15)	(-7.976590e+00 2.910795e+02 1.330219e-15)
