/*--------------------------------*- C++ -*----------------------------------*\
| =========                 |                                                 |
| \\      /  F ield         | OpenFOAM: The Open Source CFD Toolbox           |
|  \\    /   O peration     | Version:  5.x                                   |
|   \\  /    A nd           | Web:      www.OpenFOAM.org                      |
|    \\/     M anipulation  |                                                 |
\*---------------------------------------------------------------------------*/
FoamFile
{
    version     2.0;
    format      ascii;
    class       volScalarField;
    location    "1750";
    object      p;
}
// * * * * * * * * * * * * * * * * * * * * * * * * * * * * * * * * * * * * * //

dimensions      [0 2 -2 0 0 0 0];

internalField   nonuniform List<scalar> 
11040
(
-0.00219668
-99.7341
-337.068
-401.179
-422.364
-435.34
-436.794
-426.496
-407.827
-381.896
-348.212
-296.467
-246.655
-211.177
-186.385
-159.955
-133.111
-107.755
-83.7512
-60.5837
-38.1646
-18.7989
-2.6161
12.529
26.7156
39.9677
52.2805
63.6425
73.9919
83.2291
91.2415
97.9091
103.176
107.111
109.913
111.839
112.629
112.049
111.723
115.211
115.272
36.5759
-59.9106
-212.478
-290.474
-331.383
-361.456
-379.288
-383.47
-376.488
-360.05
-334.365
-291.475
-246.3
-211.467
-186.129
-160.009
-133.473
-108.25
-84.3248
-61.2211
-38.843
-19.5252
-3.31201
11.8627
26.0814
39.3711
51.7291
63.1425
73.5522
82.8608
90.9499
97.6979
103.044
107.039
109.877
111.852
112.71
112.114
111.374
113.837
113.375
61.2543
-32.5003
-142.36
-234.015
-288.795
-325.028
-347.619
-356.286
-353.299
-340.637
-319.323
-283.739
-242.966
-208.958
-183.517
-158.39
-132.619
-107.79
-84.137
-61.2531
-39.0343
-19.7956
-3.62516
11.5189
25.7186
39.0011
51.3641
62.7927
73.2292
82.5778
90.7198
97.5326
102.946
106.999
109.876
111.89
112.813
112.271
111.387
113.051
112.238
78.6345
-5.13885
-87.3788
-171.034
-229.424
-270.858
-300.45
-317.069
-321.364
-315.171
-300.013
-272.175
-236.923
-204.865
-179.749
-155.734
-130.95
-106.718
-83.491
-60.9509
-38.9876
-19.9154
-3.84348
11.2337
25.387
38.6407
50.9923
62.4243
72.8798
82.2646
90.4603
97.3421
102.832
106.959
109.889
111.926
112.887
112.405
111.475
112.655
112.011
92.3278
20.5657
-43.325
-114.927
-173.763
-218.795
-253.049
-275.64
-286.309
-286.343
-277.336
-257.132
-228.282
-199.189
-174.82
-151.954
-128.391
-104.991
-82.3585
-60.3052
-38.7259
-19.9186
-4.00916
10.9469
25.0081
38.1947
50.504
61.9162
72.3749
81.788
90.0386
97.0018
102.593
106.829
109.845
111.919
112.917
112.524
111.591
112.594
112.454
102.746
42.9574
-8.03395
-67.4281
-121.97
-167.093
-203.664
-230.739
-247.185
-253.451
-250.815
-238.177
-216.309
-191.237
-168.359
-146.852
-124.761
-102.457
-80.6056
-59.191
-38.1333
-19.6909
-4.02594
10.7361
24.6417
37.7058
49.9248
61.2769
71.7067
81.1254
89.4197
96.4674
102.179
106.556
109.701
111.847
112.912
112.673
111.829
112.817
113.226
110.635
61.6504
20.2379
-28.3113
-76.0012
-118.361
-154.811
-184.212
-204.946
-216.689
-220.157
-214.756
-200.172
-180.214
-159.876
-140.154
-119.82
-98.9167
-78.0885
-57.4976
-37.1188
-19.1608
-3.8381
10.6462
24.3225
37.1965
49.2637
60.5011
70.8556
80.2438
88.5586
95.6838
101.528
106.076
109.398
111.672
112.866
112.873
112.251
113.295
114.241
116.576
76.7341
42.7957
3.35862
-36.8067
-74.5032
-108.736
-138.273
-161.391
-177.226
-185.908
-186.966
-179.462
-165.368
-148.666
-131.375
-113.182
-94.0555
-74.5693
-55.0435
-35.5457
-18.2266
-3.36547
10.7399
24.097
36.6984
48.5365
59.5876
69.8022
79.1046
87.3982
94.5772
100.552
105.296
108.846
111.329
112.751
113.12
112.874
114.091
115.464
120.995
88.6144
60.6683
28.6898
-4.39361
-36.6112
-67.1714
-94.9797
-118.508
-136.68
-149.185
-155.484
-154.301
-146.253
-134.052
-119.941
-104.37
-87.4581
-69.7113
-51.5622
-33.1993
-16.7105
-2.45732
11.1397
24.0648
36.2933
47.8091
58.586
68.5779
77.7184
85.9249
93.107
99.185
104.126
107.945
110.726
112.504
113.381
113.681
115.239
116.86
124.208
97.8149
74.7302
48.7941
21.8755
-4.90426
-31.1117
-55.9529
-78.2373
-96.9639
-111.609
-121.575
-125.452
-122.979
-115.658
-105.362
-92.9194
-78.6731
-63.1097
-46.7189
-29.8045
-14.3792
-0.911329
12.0177
24.3723
36.1086
47.1957
57.6007
67.2783
76.1702
84.2076
91.3184
97.4392
102.541
106.635
109.78
112.029
113.552
114.561
116.615
118.414
126.477
104.864
85.7423
64.6774
42.9015
21.0241
-0.806248
-22.1127
-42.0535
-59.866
-75.025
-86.9555
-94.3061
-96.3477
-93.6471
-87.4299
-78.4944
-67.3076
-54.3542
-40.1348
-25.0354
-10.9538
1.51617
13.5871
25.2051
36.3079
46.8451
56.7723
66.0416
74.5993
82.3874
89.3497
95.4398
100.641
104.969
108.481
111.244
113.462
115.263
117.894
119.984
128.025
110.235
94.3567
77.2107
59.6271
41.9257
24.0877
6.35183
-10.7446
-26.6909
-41.0853
-53.453
-62.6425
-67.7803
-68.8456
-66.4392
-61.0733
-53.1586
-43.1317
-31.4547
-18.5411
-6.11203
5.11651
16.1119
26.8004
37.1033
46.9485
56.2769
65.0353
73.1714
80.6343
87.3787
93.3713
98.6054
103.107
106.934
110.158
112.99
115.514
118.646
121.205
129.046
114.334
101.119
87.1255
72.9189
58.6584
44.247
29.7762
15.5588
1.91394
-10.9152
-22.5924
-32.2258
-39.008
-42.6423
-43.2869
-41.1235
-36.3804
-29.3708
-20.4614
-10.0284
0.459944
10.1999
19.8935
29.4454
38.763
47.7543
56.3445
64.473
72.0867
79.1382
85.5894
91.4153
96.6146
101.217
105.274
108.853
112.133
115.189
118.614
121.654
129.702
117.486
106.47
95.0182
83.5188
72.0425
60.4668
48.8043
37.225
25.9128
14.9916
4.66245
-4.43304
-11.6526
-16.6378
-19.3126
-19.6214
-17.5957
-13.3856
-7.22152
0.612431
8.96768
17.0186
25.2127
33.4374
41.589
49.5598
57.2618
64.6273
71.6007
78.1356
84.1968
89.7631
94.834
99.4358
103.608
107.401
110.943
114.304
117.805
121.078
130.117
119.945
110.752
101.357
92.0271
82.7849
73.508
64.172
54.8638
45.6805
36.6785
27.9549
19.943
13.1083
7.7619
4.05773
2.16203
2.17516
4.08966
7.81267
13.1766
19.3779
25.649
32.2259
38.9901
45.8347
52.6444
59.3222
65.7943
72.0031
77.902
83.4563
88.6437
93.46
97.9235
102.058
105.892
109.507
112.952
116.378
119.615
130.398
121.916
114.241
106.513
98.9229
91.466
84.0307
76.579
69.1519
61.7969
54.5324
47.3957
40.6657
34.6603
29.6093
25.6602
22.9957
21.7669
22.0505
23.8553
27.1187
31.3525
35.9096
40.8786
46.1498
51.6234
57.1881
62.7469
68.2247
73.562
78.7111
83.6362
88.3127
92.7306
96.8977
100.822
104.512
108.014
111.357
114.6
117.66
130.66
123.584
117.175
110.806
104.616
98.5851
92.6154
86.6673
80.7578
74.9081
69.1172
63.3953
57.9148
52.885
48.4629
44.7604
41.9299
40.1175
39.4268
39.9187
41.5995
44.2228
47.2908
50.8076
54.6834
58.8339
63.1623
67.5813
72.0207
76.4236
80.7433
84.943
88.9949
92.8831
96.6057
100.159
103.538
106.765
109.853
112.82
115.626
130.897
124.934
119.526
114.21
109.093
104.146
99.2833
94.4698
89.7108
85.0154
80.376
75.793
71.3751
67.2569
63.5418
60.3076
57.6679
55.74
54.6203
54.3815
55.0605
56.5601
58.5182
60.9027
63.6473
66.6862
69.9418
73.3417
76.8259
80.344
83.8534
87.3188
90.7122
94.014
97.2159
100.306
103.274
106.126
108.867
111.496
113.996
131.093
125.991
121.358
116.845
112.54
108.408
104.373
100.405
96.5035
92.671
88.8978
85.1802
81.5917
78.2215
75.1374
72.3933
70.0702
68.2559
67.028
66.4527
66.5731
67.3705
68.5837
70.1718
72.089
74.2861
76.7031
79.2832
81.9777
84.7444
87.5466
90.3528
93.1367
95.8783
98.5661
101.185
103.722
106.176
108.546
110.823
113.001
131.275
126.855
122.835
118.951
115.275
111.768
108.365
105.039
101.787
98.6074
95.4919
92.4354
89.4886
86.7139
84.1559
81.8519
79.8596
78.243
77.0609
76.3673
76.2012
76.5801
77.3131
78.3621
79.6968
81.2806
83.068
85.0157
87.0853
89.243
91.4581
93.7039
95.9572
98.1994
100.418
102.599
104.727
106.799
108.811
110.751
112.617
131.452
127.583
124.061
120.681
117.505
114.492
111.584
108.759
106.012
103.34
100.735
98.1924
95.7477
93.4461
91.3179
89.3885
87.6998
86.298
85.2265
84.5269
84.2311
84.3704
84.8011
85.4919
86.4236
87.5684
88.8922
90.3621
91.9486
93.6249
95.3663
97.1507
98.9587
100.774
102.585
104.377
106.139
107.865
109.55
111.183
112.761
131.626
128.213
125.101
122.134
119.363
116.748
114.238
111.812
109.466
107.196
104.994
102.857
100.81
98.8857
97.1066
95.4893
94.0644
92.8655
91.9244
91.2721
90.9331
90.9413
91.1852
91.641
92.2963
93.1302
94.1165
95.2302
96.4489
97.7514
99.1183
100.532
101.976
103.436
104.904
106.366
107.811
109.236
110.633
111.994
113.317
131.798
128.765
125.998
123.374
120.937
118.648
116.462
114.361
112.339
110.393
108.515
106.703
104.974
103.355
101.859
100.5
99.2988
98.2804
97.4679
96.8842
96.5473
96.4889
96.6196
96.922
97.3886
98.0029
98.7446
99.5946
100.536
101.551
102.626
103.746
104.897
106.07
107.255
108.442
109.622
110.791
111.943
113.07
114.17
131.967
129.257
126.781
124.445
122.288
120.271
118.353
116.519
114.763
113.082
111.468
109.919
108.449
107.077
105.814
104.667
103.653
102.791
102.096
101.586
101.274
101.186
101.249
101.452
101.789
102.248
102.813
103.468
104.2
104.996
105.845
106.734
107.654
108.596
109.552
110.515
111.476
112.432
113.378
114.309
115.22
132.133
129.697
127.471
125.381
123.46
121.67
119.977
118.366
116.832
115.37
113.974
112.642
111.384
110.215
109.142
108.171
107.314
106.584
105.994
105.554
105.275
105.179
105.203
105.341
105.59
105.938
106.373
106.883
107.458
108.087
108.762
109.472
110.209
110.968
111.741
112.521
113.304
114.086
114.863
115.629
116.382
132.293
130.094
128.083
126.203
124.484
122.888
121.386
119.963
118.614
117.335
116.121
114.969
113.887
112.886
111.971
111.146
110.42
109.802
109.301
108.926
108.682
108.589
108.592
108.688
108.875
109.144
109.484
109.886
110.342
110.843
111.382
111.953
112.547
113.16
113.787
114.422
115.061
115.701
116.338
116.97
117.592
132.448
130.453
128.629
126.931
125.385
123.956
122.616
121.353
120.161
119.038
117.977
116.975
116.04
115.179
114.395
113.692
113.075
112.552
112.128
111.81
111.6
111.515
111.507
111.576
111.72
111.931
112.201
112.521
112.886
113.29
113.724
114.185
114.667
115.165
115.676
116.194
116.717
117.242
117.767
118.288
118.802
132.596
130.779
129.118
127.579
126.182
124.896
123.696
122.57
121.513
120.522
119.59
118.716
117.905
117.161
116.488
115.887
115.362
114.918
114.559
114.29
114.113
114.038
114.026
114.076
114.189
114.358
114.575
114.834
115.13
115.457
115.81
116.185
116.578
116.985
117.403
117.828
118.258
118.69
119.123
119.555
119.98
132.737
131.076
129.558
128.156
126.89
125.729
124.649
123.642
122.701
121.822
121.002
120.236
119.53
118.885
118.305
117.79
117.342
116.966
116.663
116.436
116.287
116.223
116.21
116.249
116.34
116.477
116.654
116.865
117.107
117.374
117.664
117.971
118.294
118.628
118.972
119.323
119.677
120.035
120.393
120.751
121.104
132.87
131.347
129.954
128.673
127.521
126.468
125.494
124.589
123.748
122.967
122.242
121.57
120.952
120.393
119.892
119.449
119.067
118.747
118.491
118.301
118.176
118.123
118.111
118.142
118.217
118.33
118.476
118.651
118.85
119.071
119.31
119.564
119.83
120.107
120.391
120.682
120.975
121.272
121.57
121.868
122.162
132.996
131.593
130.311
129.137
128.084
127.126
126.244
125.428
124.675
123.979
123.336
122.744
122.203
121.716
121.283
120.902
120.575
120.304
120.088
119.928
119.825
119.781
119.772
119.798
119.861
119.956
120.078
120.223
120.389
120.573
120.771
120.983
121.204
121.434
121.67
121.912
122.157
122.404
122.653
122.902
123.147
133.115
131.817
130.633
129.552
128.587
127.713
126.911
126.174
125.497
124.875
124.304
123.781
123.307
122.882
122.506
122.179
121.9
121.669
121.487
121.354
121.268
121.234
121.227
121.25
121.304
121.384
121.487
121.61
121.749
121.903
122.069
122.246
122.431
122.623
122.821
123.022
123.227
123.434
123.642
123.851
124.057
133.226
132.021
130.923
129.925
129.037
128.236
127.506
126.838
126.227
125.67
125.162
124.699
124.283
123.912
123.586
123.304
123.065
122.87
122.717
122.606
122.537
122.51
122.506
122.527
122.574
122.643
122.73
122.834
122.952
123.082
123.222
123.37
123.526
123.687
123.853
124.022
124.194
124.368
124.543
124.718
124.891
133.329
132.207
131.185
130.26
129.44
128.704
128.035
127.428
126.877
126.376
125.923
125.514
125.147
124.824
124.541
124.298
124.094
123.929
123.801
123.709
123.653
123.634
123.632
123.652
123.693
123.753
123.829
123.918
124.018
124.128
124.247
124.372
124.503
124.639
124.779
124.922
125.067
125.213
125.36
125.508
125.653
133.424
132.374
131.42
130.559
129.799
129.12
128.507
127.954
127.454
127.004
126.6
126.237
125.914
125.632
125.387
125.178
125.004
124.865
124.758
124.683
124.638
124.625
124.626
124.645
124.682
124.735
124.8
124.876
124.962
125.056
125.157
125.264
125.375
125.49
125.608
125.729
125.851
125.975
126.099
126.224
126.347
133.512
132.525
131.63
130.826
130.119
129.491
128.927
128.421
127.968
127.562
127.2
126.878
126.595
126.348
126.136
125.957
125.809
125.692
125.604
125.543
125.508
125.5
125.504
125.522
125.556
125.603
125.66
125.726
125.801
125.881
125.968
126.058
126.153
126.251
126.351
126.453
126.557
126.661
126.766
126.872
126.976
133.593
132.661
131.817
131.064
130.403
129.819
129.299
128.835
128.423
128.057
127.733
127.447
127.198
126.983
126.8
126.647
126.522
126.424
126.352
126.303
126.277
126.274
126.279
126.297
126.329
126.371
126.421
126.479
126.543
126.613
126.687
126.765
126.845
126.929
127.014
127.101
127.188
127.277
127.366
127.456
127.543
133.666
132.782
131.983
131.273
130.654
130.109
129.627
129.2
128.825
128.494
128.204
127.951
127.732
127.545
127.387
127.257
127.153
127.072
127.013
126.976
126.957
126.958
126.966
126.984
127.013
127.051
127.096
127.147
127.203
127.264
127.328
127.395
127.464
127.535
127.608
127.681
127.756
127.831
127.906
127.982
128.056
133.732
132.888
132.129
131.457
130.873
130.362
129.914
129.521
129.178
128.879
128.619
128.395
128.203
128.041
127.906
127.796
127.709
127.644
127.597
127.569
127.557
127.561
127.571
127.589
127.616
127.651
127.691
127.737
127.786
127.838
127.894
127.951
128.011
128.072
128.134
128.197
128.26
128.324
128.388
128.452
128.515
133.791
132.981
132.255
131.615
131.062
130.582
130.164
129.8
129.486
129.215
128.982
128.784
128.616
128.477
128.363
128.271
128.2
128.148
128.112
128.093
128.087
128.094
128.106
128.126
128.152
128.185
128.221
128.262
128.306
128.352
128.4
128.45
128.502
128.554
128.607
128.661
128.715
128.769
128.823
128.878
128.93
133.842
133.061
132.363
131.751
131.224
130.77
130.377
130.04
129.752
129.506
129.298
129.123
128.977
128.858
128.762
128.687
128.63
128.589
128.563
128.551
128.55
128.56
128.573
128.593
128.618
128.648
128.682
128.718
128.757
128.798
128.84
128.884
128.928
128.974
129.019
129.065
129.111
129.157
129.203
129.25
129.294
133.887
133.128
132.453
131.863
131.358
130.926
130.557
130.243
129.978
129.755
129.569
129.415
129.289
129.188
129.109
129.049
129.005
128.976
128.959
128.954
128.959
128.973
128.99
129.011
129.037
129.066
129.098
129.131
129.167
129.203
129.241
129.279
129.318
129.357
129.396
129.436
129.475
129.514
129.553
129.592
129.63
133.924
133.181
132.524
131.952
131.466
131.053
130.704
130.41
130.166
129.963
129.797
129.662
129.555
129.47
129.406
129.359
129.327
129.307
129.298
129.298
129.307
129.323
129.34
129.362
129.387
129.414
129.444
129.475
129.507
129.54
129.573
129.607
129.641
129.676
129.71
129.744
129.778
129.811
129.845
129.878
129.91
133.955
133.223
132.577
132.019
131.547
131.15
130.818
130.542
130.315
130.132
129.984
129.867
129.776
129.708
129.658
129.625
129.605
129.596
129.597
129.606
129.621
129.642
129.664
129.688
129.715
129.744
129.773
129.803
129.833
129.864
129.895
129.925
129.956
129.986
130.015
130.045
130.073
130.102
130.13
130.158
130.184
133.978
133.253
132.616
132.068
131.606
131.22
130.902
130.641
130.43
130.262
130.131
130.03
129.955
129.9
129.863
129.841
129.829
129.827
129.833
129.845
129.863
129.885
129.908
129.933
129.959
129.987
130.015
130.043
130.071
130.1
130.128
130.155
130.183
130.21
130.236
130.262
130.287
130.312
130.337
130.361
130.384
133.996
133.271
132.637
132.095
131.64
131.264
130.957
130.708
130.511
130.357
130.24
130.154
130.094
130.055
130.033
130.026
130.029
130.042
130.061
130.084
130.111
130.14
130.169
130.199
130.229
130.259
130.289
130.318
130.346
130.374
130.401
130.427
130.452
130.476
130.499
130.522
130.544
130.565
130.585
130.604
130.623
134.003
133.267
132.629
132.085
131.634
131.265
130.967
130.731
130.548
130.408
130.306
130.233
130.185
130.156
130.142
130.141
130.149
130.164
130.186
130.212
130.241
130.271
130.301
130.331
130.362
130.392
130.421
130.449
130.477
130.503
130.529
130.553
130.577
130.599
130.621
130.641
130.661
130.68
130.698
130.715
130.732
134.001
133.247
132.595
132.045
131.591
131.224
130.932
130.706
130.534
130.41
130.324
130.271
130.243
130.238
130.249
130.273
130.306
130.344
130.386
130.428
130.469
130.509
130.548
130.586
130.622
130.657
130.689
130.72
130.749
130.776
130.802
130.826
130.849
130.87
130.89
130.909
130.926
130.943
130.959
130.973
130.987
125.737
133.172
139.072
142.365
144.221
145.369
145.929
146.067
145.941
145.643
145.24
144.777
144.284
143.784
143.289
142.808
142.346
141.908
141.493
141.103
140.738
140.396
140.076
139.778
139.5
139.242
139.001
138.777
138.568
138.374
138.192
138.023
137.865
137.717
137.578
137.448
137.325
137.21
137.101
136.998
136.902
136.811
136.725
136.645
136.569
136.497
136.429
136.365
136.305
136.247
136.193
136.141
136.091
136.044
135.999
135.955
135.914
135.873
135.834
135.797
135.76
135.725
135.69
135.657
135.624
135.592
135.56
135.531
135.501
135.475
135.446
135.429
135.395
135.407
124.727
132.723
138.889
142.415
144.368
145.52
146.054
146.163
146.008
145.685
145.262
144.782
144.276
143.766
143.263
142.776
142.311
141.869
141.453
141.062
140.696
140.354
140.035
139.738
139.461
139.203
138.963
138.74
138.533
138.34
138.16
137.992
137.835
137.689
137.551
137.422
137.3
137.186
137.078
136.976
136.88
136.79
136.706
136.626
136.551
136.48
136.413
136.349
136.289
136.233
136.179
136.127
136.078
136.032
135.987
135.944
135.903
135.863
135.824
135.787
135.751
135.716
135.682
135.648
135.616
135.584
135.553
135.523
135.494
135.468
135.44
135.423
135.389
135.401
123.975
131.533
138.351
142.329
144.463
145.663
146.193
146.275
146.088
145.735
145.287
144.787
144.266
143.744
143.232
142.739
142.269
141.824
141.406
141.014
140.648
140.306
139.987
139.691
139.415
139.159
138.92
138.699
138.493
138.302
138.123
137.957
137.802
137.656
137.52
137.392
137.272
137.159
137.052
136.952
136.857
136.768
136.684
136.605
136.531
136.461
136.395
136.332
136.273
136.217
136.163
136.113
136.064
136.018
135.974
135.932
135.891
135.852
135.814
135.777
135.741
135.706
135.672
135.639
135.607
135.576
135.545
135.516
135.487
135.461
135.433
135.417
135.383
135.395
123.578
130.509
137.65
142.06
144.458
145.753
146.304
146.38
146.17
145.789
145.314
144.792
144.252
143.716
143.194
142.694
142.218
141.771
141.35
140.957
140.591
140.249
139.932
139.636
139.362
139.107
138.871
138.651
138.447
138.258
138.081
137.917
137.764
137.62
137.486
137.359
137.24
137.129
137.023
136.924
136.831
136.743
136.66
136.583
136.509
136.44
136.375
136.313
136.255
136.2
136.147
136.097
136.049
136.004
135.96
135.918
135.878
135.839
135.802
135.766
135.73
135.696
135.663
135.63
135.598
135.567
135.537
135.508
135.479
135.454
135.426
135.41
135.376
135.388
123.695
130.122
137.074
141.657
144.315
145.755
146.357
146.442
146.224
145.827
145.332
144.789
144.231
143.68
143.147
142.638
142.157
141.706
141.284
140.89
140.523
140.183
139.867
139.573
139.301
139.048
138.814
138.597
138.395
138.208
138.034
137.872
137.72
137.579
137.446
137.322
137.205
137.095
136.991
136.894
136.802
136.715
136.634
136.557
136.485
136.417
136.353
136.293
136.235
136.181
136.129
136.08
136.033
135.988
135.945
135.904
135.864
135.826
135.789
135.754
135.719
135.685
135.652
135.62
135.588
135.558
135.528
135.499
135.471
135.446
135.418
135.402
135.369
135.381
124.071
130.227
136.789
141.309
144.082
145.644
146.327
146.443
146.224
145.817
145.313
144.761
144.192
143.629
143.085
142.569
142.082
141.628
141.204
140.809
140.443
140.104
139.79
139.498
139.229
138.979
138.747
138.533
138.334
138.15
137.979
137.819
137.671
137.532
137.402
137.28
137.165
137.057
136.955
136.859
136.769
136.684
136.605
136.529
136.459
136.392
136.329
136.27
136.213
136.16
136.109
136.061
136.015
135.971
135.929
135.888
135.85
135.812
135.776
135.741
135.706
135.673
135.641
135.609
135.578
135.548
135.518
135.49
135.462
135.437
135.41
135.394
135.361
135.374
124.569
130.591
136.742
141.138
143.874
145.455
146.198
146.365
146.163
145.751
145.237
144.678
144.106
143.542
142.997
142.477
141.987
141.53
141.106
140.712
140.347
140.01
139.698
139.41
139.144
138.897
138.67
138.459
138.264
138.083
137.915
137.759
137.614
137.478
137.351
137.232
137.119
137.014
136.914
136.821
136.732
136.65
136.572
136.498
136.429
136.364
136.303
136.244
136.189
136.137
136.088
136.04
135.995
135.952
135.911
135.872
135.833
135.797
135.761
135.727
135.693
135.66
135.628
135.597
135.567
135.537
135.508
135.48
135.453
135.428
135.402
135.386
135.353
135.366
125.247
131.018
136.747
141.054
143.735
145.265
146.007
146.203
146.028
145.628
145.111
144.541
143.96
143.396
142.855
142.342
141.859
141.406
140.983
140.592
140.231
139.897
139.589
139.305
139.043
138.801
138.578
138.372
138.181
138.005
137.841
137.69
137.548
137.416
137.292
137.176
137.067
136.964
136.868
136.777
136.691
136.61
136.534
136.463
136.396
136.333
136.273
136.216
136.163
136.112
136.064
136.018
135.974
135.932
135.892
135.853
135.816
135.78
135.745
135.711
135.679
135.647
135.615
135.585
135.555
135.526
135.497
135.47
135.443
135.419
135.392
135.377
135.345
135.357
126.22
131.45
136.608
140.851
143.547
145.063
145.792
145.988
145.826
145.439
144.931
144.36
143.772
143.199
142.654
142.145
141.671
141.231
140.821
140.44
140.086
139.759
139.457
139.179
138.923
138.687
138.47
138.27
138.085
137.914
137.755
137.609
137.472
137.344
137.225
137.113
137.007
136.908
136.815
136.727
136.644
136.566
136.492
136.423
136.359
136.297
136.24
136.185
136.133
136.084
136.037
135.993
135.95
135.909
135.87
135.833
135.797
135.762
135.728
135.695
135.663
135.632
135.601
135.571
135.542
135.513
135.485
135.459
135.432
135.408
135.382
135.367
135.336
135.348
127.371
131.816
136.242
140.356
143.106
144.672
145.463
145.71
145.573
145.195
144.689
144.123
143.539
142.966
142.417
141.903
141.428
140.995
140.598
140.233
139.896
139.584
139.294
139.025
138.778
138.55
138.341
138.148
137.97
137.806
137.654
137.514
137.383
137.261
137.146
137.039
136.938
136.843
136.754
136.669
136.59
136.515
136.445
136.379
136.316
136.258
136.202
136.15
136.1
136.053
136.008
135.965
135.924
135.884
135.847
135.81
135.775
135.742
135.709
135.677
135.646
135.615
135.586
135.557
135.528
135.5
135.473
135.447
135.42
135.397
135.372
135.357
135.326
135.339
128.186
131.858
135.501
139.363
142.199
143.883
144.799
145.183
145.163
144.864
144.398
143.849
143.269
142.694
142.145
141.629
141.154
140.721
140.326
139.968
139.646
139.351
139.081
138.831
138.599
138.384
138.185
138.002
137.834
137.678
137.535
137.402
137.278
137.163
137.055
136.954
136.858
136.768
136.683
136.603
136.528
136.457
136.39
136.327
136.268
136.212
136.16
136.11
136.062
136.017
135.974
135.934
135.894
135.857
135.821
135.786
135.752
135.72
135.688
135.657
135.627
135.598
135.569
135.541
135.513
135.486
135.459
135.434
135.408
135.386
135.361
135.346
135.316
135.329
128.099
131.23
134.224
137.673
140.505
142.36
143.495
144.12
144.329
144.224
143.909
143.466
142.951
142.406
141.864
141.345
140.863
140.424
140.026
139.67
139.352
139.066
138.81
138.579
138.368
138.173
137.993
137.825
137.67
137.526
137.393
137.27
137.155
137.048
136.948
136.854
136.765
136.681
136.602
136.527
136.456
136.39
136.328
136.269
136.213
136.161
136.112
136.065
136.02
135.978
135.937
135.899
135.862
135.826
135.792
135.759
135.727
135.695
135.665
135.636
135.607
135.579
135.551
135.524
135.497
135.471
135.445
135.42
135.395
135.373
135.349
135.335
135.306
135.318
127.069
129.838
132.403
135.35
137.983
139.921
141.276
142.193
142.729
142.94
142.901
142.686
142.354
141.948
141.503
141.044
140.588
140.151
139.745
139.375
139.045
138.755
138.5
138.277
138.081
137.906
137.747
137.601
137.466
137.34
137.222
137.112
137.009
136.913
136.822
136.736
136.656
136.579
136.507
136.438
136.374
136.313
136.256
136.202
136.151
136.102
136.057
136.014
135.972
135.933
135.895
135.859
135.825
135.791
135.759
135.728
135.698
135.669
135.64
135.612
135.585
135.558
135.531
135.505
135.479
135.454
135.429
135.405
135.381
135.359
135.336
135.322
135.294
135.307
125.302
127.777
130.075
132.598
134.959
136.877
138.367
139.506
140.324
140.852
141.136
141.231
141.179
141.015
140.771
140.475
140.146
139.803
139.457
139.117
138.791
138.489
138.215
137.976
137.77
137.595
137.447
137.32
137.207
137.105
137.01
136.92
136.834
136.751
136.673
136.598
136.527
136.459
136.395
136.335
136.277
136.223
136.172
136.124
136.078
136.035
135.994
135.955
135.918
135.882
135.848
135.815
135.783
135.753
135.723
135.694
135.666
135.639
135.612
135.586
135.56
135.535
135.509
135.485
135.46
135.436
135.412
135.389
135.366
135.345
135.322
135.309
135.282
135.295
123.045
125.275
127.386
129.607
131.723
133.563
135.11
136.389
137.412
138.191
138.752
139.128
139.355
139.46
139.468
139.4
139.274
139.104
138.902
138.679
138.446
138.208
137.972
137.743
137.527
137.331
137.161
137.02
136.905
136.813
136.738
136.672
136.612
136.553
136.494
136.435
136.376
136.319
136.265
136.213
136.164
136.118
136.075
136.033
135.994
135.957
135.922
135.888
135.855
135.824
135.794
135.764
135.736
135.709
135.682
135.656
135.631
135.606
135.581
135.557
135.533
135.509
135.486
135.462
135.439
135.416
135.393
135.371
135.349
135.329
135.308
135.295
135.269
135.283
120.556
122.581
124.53
126.524
128.44
130.181
131.728
133.084
134.246
135.213
135.995
136.61
137.079
137.422
137.661
137.815
137.9
137.928
137.912
137.858
137.773
137.664
137.537
137.397
137.251
137.1
136.95
136.805
136.671
136.554
136.459
136.386
136.331
136.29
136.255
136.222
136.188
136.151
136.112
136.073
136.034
135.997
135.962
135.928
135.897
135.867
135.838
135.81
135.783
135.757
135.732
135.707
135.683
135.659
135.636
135.613
135.59
135.568
135.546
135.524
135.503
135.481
135.459
135.438
135.416
135.395
135.373
135.352
135.331
135.313
135.292
135.28
135.255
135.27
118.104
119.939
121.725
123.525
125.266
126.898
128.404
129.78
131.017
132.107
133.051
133.855
134.528
135.082
135.529
135.883
136.159
136.368
136.522
136.63
136.702
136.741
136.753
136.742
136.71
136.661
136.599
136.527
136.449
136.365
136.279
136.194
136.116
136.051
136.001
135.965
135.941
135.924
135.908
135.891
135.872
135.851
135.829
135.807
135.784
135.762
135.741
135.72
135.7
135.68
135.66
135.641
135.621
135.602
135.583
135.564
135.545
135.526
135.507
135.488
135.469
135.45
135.43
135.411
135.391
135.371
135.351
135.332
135.312
135.295
135.275
135.264
135.24
135.256
116.117
117.757
119.371
120.984
122.558
124.064
125.493
126.835
128.081
129.223
130.256
131.179
131.995
132.706
133.321
133.845
134.288
134.658
134.966
135.218
135.425
135.593
135.727
135.833
135.914
135.972
136.008
136.025
136.025
136.011
135.985
135.952
135.912
135.868
135.823
135.779
135.741
135.713
135.694
135.685
135.68
135.677
135.672
135.665
135.656
135.645
135.633
135.62
135.607
135.594
135.581
135.567
135.554
135.539
135.525
135.51
135.495
135.48
135.464
135.448
135.432
135.415
135.398
135.381
135.363
135.346
135.328
135.31
135.292
135.275
135.257
135.247
135.224
135.241
114.807
116.248
117.679
119.107
120.513
121.882
123.204
124.472
125.676
126.81
127.866
128.842
129.733
130.541
131.267
131.913
132.483
132.983
133.419
133.797
134.122
134.4
134.638
134.84
135.011
135.155
135.274
135.371
135.448
135.506
135.547
135.574
135.588
135.593
135.591
135.582
135.569
135.552
135.534
135.518
135.507
135.503
135.505
135.509
135.513
135.516
135.515
135.513
135.508
135.503
135.496
135.489
135.481
135.472
135.463
135.453
135.442
135.43
135.418
135.406
135.393
135.379
135.365
135.35
135.334
135.319
135.302
135.286
135.27
135.255
135.238
135.229
135.208
135.226
114.146
115.388
116.632
117.877
119.114
120.334
121.53
122.696
123.822
124.904
125.934
126.907
127.82
128.668
129.452
130.17
130.824
131.415
131.945
132.42
132.841
133.214
133.542
133.831
134.083
134.302
134.493
134.658
134.801
134.923
135.026
135.112
135.182
135.238
135.282
135.314
135.337
135.353
135.363
135.366
135.366
135.363
135.36
135.361
135.367
135.376
135.386
135.395
135.401
135.405
135.406
135.405
135.403
135.4
135.396
135.391
135.385
135.378
135.37
135.361
135.351
135.34
135.329
135.316
135.303
135.29
135.275
135.261
135.246
135.233
135.217
135.21
135.19
135.21
114.046
115.094
116.154
117.221
118.29
119.356
120.415
121.46
122.485
123.485
124.453
125.385
126.276
127.122
127.92
128.667
129.363
130.006
130.598
131.14
131.632
132.078
132.48
132.84
133.163
133.45
133.705
133.93
134.13
134.305
134.46
134.596
134.715
134.819
134.909
134.985
135.049
135.1
135.142
135.175
135.199
135.218
135.23
135.237
135.243
135.249
135.258
135.27
135.283
135.297
135.308
135.316
135.321
135.324
135.326
135.326
135.325
135.322
135.318
135.313
135.306
135.299
135.29
135.281
135.27
135.259
135.247
135.235
135.221
135.209
135.195
135.189
135.17
135.194
114.388
115.258
116.144
117.042
117.95
118.866
119.784
120.701
121.612
122.512
123.396
124.26
125.099
125.909
126.686
127.427
128.13
128.793
129.415
129.994
130.531
131.026
131.481
131.897
132.276
132.619
132.929
133.208
133.459
133.683
133.884
134.063
134.223
134.366
134.494
134.608
134.709
134.797
134.874
134.938
134.992
135.036
135.072
135.1
135.122
135.138
135.15
135.16
135.172
135.186
135.202
135.218
135.232
135.243
135.251
135.257
135.261
135.262
135.263
135.262
135.259
135.255
135.25
135.243
135.235
135.227
135.217
135.206
135.195
135.185
135.172
135.168
135.15
135.177
115.058
115.769
116.498
117.243
118.003
118.776
119.558
120.347
121.139
121.931
122.718
123.498
124.265
125.016
125.748
126.457
127.14
127.794
128.417
129.007
129.564
130.086
130.574
131.026
131.445
131.831
132.185
132.508
132.803
133.07
133.312
133.531
133.729
133.907
134.067
134.212
134.343
134.461
134.567
134.662
134.745
134.818
134.879
134.931
134.973
135.008
135.036
135.058
135.075
135.09
135.104
135.119
135.136
135.153
135.169
135.182
135.192
135.2
135.205
135.208
135.209
135.209