/*--------------------------------*- C++ -*----------------------------------*\
| =========                 |                                                 |
| \\      /  F ield         | OpenFOAM: The Open Source CFD Toolbox           |
|  \\    /   O peration     | Version:  5.x                                   |
|   \\  /    A nd           | Web:      www.OpenFOAM.org                      |
|    \\/     M anipulation  |                                                 |
\*---------------------------------------------------------------------------*/
FoamFile
{
    version     2.0;
    format      ascii;
    class       volScalarField;
    location    "850";
    object      nuTilda;
}
// * * * * * * * * * * * * * * * * * * * * * * * * * * * * * * * * * * * * * //

dimensions      [0 2 -1 0 0 0 0];

internalField   nonuniform List<scalar> 
41860
(
4.1439e-05
4.37283e-05
5.51591e-05
5.81561e-05
5.38061e-05
4.98304e-05
4.43281e-05
3.96819e-05
3.59372e-05
3.28352e-05
3.00951e-05
2.81321e-05
2.59751e-05
2.49984e-05
2.33565e-05
2.28509e-05
2.19849e-05
2.13772e-05
2.09866e-05
1.96936e-05
1.953e-05
2.87401e-05
1.89705e-05
2.98201e-05
1.85942e-05
3.034e-05
3.06689e-05
1.82762e-05
3.07309e-05
3.06897e-05
3.067e-05
1.79542e-05
1.7918e-05
3.04013e-05
1.78749e-05
3.01023e-05
1.78931e-05
1.7904e-05
1.79861e-05
2.89403e-05
1.81643e-05
1.82765e-05
3.00879e-05
3.01254e-05
1.71566e-05
3.00633e-05
3.00268e-05
2.99937e-05
2.99496e-05
2.99075e-05
2.98628e-05
2.98179e-05
2.97725e-05
2.97265e-05
2.96746e-05
1.7115e-05
1.71357e-05
2.95212e-05
1.71738e-05
2.94273e-05
2.93611e-05
2.93286e-05
1.72613e-05
2.91864e-05
1.72888e-05
2.90268e-05
1.72981e-05
1.7312e-05
2.87939e-05
2.86269e-05
1.72796e-05
2.84585e-05
2.82756e-05
1.71899e-05
1.7121e-05
2.7856e-05
1.69841e-05
1.68443e-05
1.66982e-05
2.67406e-05
1.65379e-05
1.23147e-05
0.000191042
0.000223962
0.000287288
0.000304085
0.000281095
0.000260016
0.00023068
0.000205877
0.000185876
0.000169306
0.000154667
0.000144194
0.000132674
0.000127478
0.000118703
0.000116003
0.000110924
0.000107098
0.000104451
9.81772e-05
9.66393e-05
9.68262e-05
9.10741e-05
9.39238e-05
8.75358e-05
9.17046e-05
9.00711e-05
8.49856e-05
8.8759e-05
8.8439e-05
8.793e-05
8.28344e-05
8.27314e-05
8.72701e-05
8.27938e-05
8.75048e-05
8.34239e-05
8.37695e-05
8.47454e-05
8.99953e-05
8.69213e-05
8.82749e-05
8.27246e-05
8.2659e-05
7.80396e-05
8.24437e-05
8.24139e-05
8.23409e-05
8.23409e-05
8.23533e-05
8.23988e-05
8.24712e-05
8.25625e-05
8.26781e-05
8.28262e-05
7.84261e-05
7.86501e-05
8.32724e-05
7.90625e-05
8.36605e-05
8.402e-05
8.41088e-05
7.99808e-05
8.45088e-05
8.03581e-05
8.48895e-05
8.06148e-05
8.08485e-05
8.50911e-05
8.55291e-05
8.10036e-05
8.5238e-05
8.54349e-05
8.09066e-05
8.06024e-05
8.45417e-05
8.02072e-05
7.95461e-05
7.88276e-05
8.16013e-05
7.81354e-05
1.48725e-05
0.000240266
0.00027843
0.000363198
0.000387051
0.000358154
0.000331006
0.000293089
0.000261033
0.000235331
0.000214325
0.000196443
0.000183497
0.000171654
0.000165413
0.000160491
0.000158697
0.000157772
0.000157265
0.000156677
0.000155967
0.000154985
0.000157321
0.000153896
0.000156051
0.00015263
0.000154427
0.00015394
0.000149852
0.000151889
0.000150744
0.000149726
0.000145984
0.000144961
0.000146658
0.000143143
0.000144872
0.000141665
0.000141075
0.000140687
0.000142641
0.000140396
0.000140526
0.000140301
0.000139955
0.000137256
0.000139277
0.000138957
0.00013866
0.000138395
0.000138163
0.000137964
0.000137798
0.000137663
0.000137558
0.000137485
0.000135172
0.000135174
0.000137382
0.000135229
0.000137443
0.000137569
0.000137589
0.000135533
0.000137691
0.000135622
0.000137758
0.000135624
0.000135658
0.000137593
0.000137707
0.000135373
0.000137214
0.000137106
0.000134656
0.000134166
0.000135629
0.000133089
0.000132086
0.000131019
0.000130972
0.000129647
1.79476e-05
0.00032798
0.000371266
0.000436741
0.000474088
0.000464199
0.000434062
0.000406632
0.00038415
0.000364184
0.000345811
0.000329764
0.000309782
0.000297571
0.000279407
0.00027638
0.000270096
0.000268898
0.000266765
0.000263924
0.000262288
0.000258802
0.00025834
0.000253999
0.000252942
0.000249078
0.000247669
0.000245654
0.00024123
0.000240513
0.000237904
0.000235555
0.000231827
0.000229566
0.000228858
0.000225484
0.000224962
0.000221988
0.000220492
0.000219205
0.000219192
0.000217264
0.000216656
0.000215285
0.000214234
0.000212243
0.00021266
0.00021192
0.000211234
0.000210608
0.000210044
0.000209542
0.000209097
0.000208707
0.000208374
0.00020809
0.000206729
0.000206561
0.000207474
0.000206323
0.000207274
0.0002073
0.000207222
0.000206209
0.000207135
0.000206096
0.000207002
0.00020587
0.00020579
0.000206474
0.000206464
0.000205049
0.000205611
0.000205311
0.000203664
0.000202861
0.000202932
0.000201013
0.000199462
0.000197799
0.000195814
0.000195162
2.16451e-05
0.000453455
0.000548438
0.000643486
0.000698149
0.000719454
0.000680076
0.000655424
0.000629865
0.000601625
0.000572171
0.00054437
0.000509516
0.000485877
0.000452053
0.000438625
0.00042286
0.00041648
0.00040976
0.000402781
0.000398051
0.000391017
0.00038692
0.000380394
0.000375796
0.00037033
0.000365592
0.00036144
0.000355732
0.000352233
0.000347733
0.000343654
0.000339104
0.000335273
0.000332315
0.000328335
0.000325784
0.000322348
0.000319747
0.000317416
0.000315798
0.000313624
0.000312276
0.00030933
0.000307222
0.000305299
0.000304437
0.000303144
0.000301945
0.000300845
0.000299846
0.000298944
0.000298133
0.00029741
0.000296773
0.000296215
0.000295251
0.000294858
0.000294919
0.000294226
0.000294371
0.000294262
0.000294051
0.00029355
0.000293724
0.000293178
0.000293336
0.000292671
0.000292453
0.000292356
0.000292206
0.000291173
0.000290916
0.000290393
0.000289013
0.000287847
0.000286954
0.000285123
0.000282956
0.000280599
0.000277053
0.000276154
2.60857e-05
0.000619192
0.000789104
0.000992279
0.0010794
0.00111299
0.00105058
0.00100718
0.00096207
0.000913734
0.000864442
0.000817671
0.000763797
0.000723702
0.000672781
0.000645214
0.000616973
0.000602474
0.000589064
0.000576355
0.000566742
0.000555008
0.000546452
0.000536331
0.000527797
0.000519416
0.000511172
0.000504183
0.000496176
0.000489794
0.000482936
0.000476675
0.000470455
0.000464701
0.000459577
0.00045429
0.000449838
0.000445324
0.000441404
0.000437876
0.00043487
0.000431997
0.000429871
0.000424832
0.000421264
0.000418835
0.000416907
0.000414925
0.000413083
0.000411393
0.00040985
0.000408453
0.000407188
0.000406051
0.000405039
0.000404144
0.000403164
0.000402498
0.000402007
0.000401388
0.000401033
0.000400761
0.000400386
0.000400039
0.000399778
0.00039937
0.000399098
0.000398541
0.000398171
0.000397592
0.000397292
0.000396287
0.0003955
0.00039473
0.000393264
0.000391684
0.000390087
0.000387988
0.000385139
0.000381985
0.000377142
0.000375034
3.14115e-05
0.000848538
0.00108596
0.00143723
0.00156726
0.00159718
0.00150507
0.00143381
0.00136321
0.00129058
0.00121801
0.00114906
0.00107375
0.0010143
0.000944537
0.000900489
0.000857323
0.00083202
0.000809834
0.000789714
0.000773589
0.000755873
0.000741868
0.000726867
0.000713706
0.000701267
0.000689022
0.00067845
0.000667231
0.000657612
0.000647833
0.000638872
0.000630262
0.000622152
0.000614689
0.00060751
0.000601037
0.000594939
0.00058943
0.000584482
0.00058007
0.000576148
0.000573161
0.000565592
0.000560088
0.000556696
0.000553723
0.000550886
0.000548252
0.000545833
0.000543623
0.000541619
0.000539795
0.000538153
0.000536681
0.000535373
0.000534124
0.000533126
0.000532211
0.000531439
0.00053072
0.000530251
0.000529678
0.000529289
0.000528744
0.000528283
0.000527732
0.000527092
0.000526554
0.000525635
0.000525167
0.000524004
0.000522815
0.000521773
0.000520029
0.000517987
0.00051579
0.000513216
0.000509624
0.000505564
0.000499594
0.000495217
3.77889e-05
0.00118354
0.00144517
0.00196464
0.00214416
0.00216333
0.00203761
0.00193448
0.0018358
0.00173681
0.00163899
0.00154571
0.00144699
0.00136585
0.00127532
0.00121263
0.00115221
0.00111339
0.00108011
0.00105063
0.00102623
0.00100101
0.000980272
0.000959048
0.000940246
0.000922614
0.000905543
0.000890523
0.000875187
0.000861701
0.000848325
0.000836034
0.000824349
0.000813348
0.000803147
0.000793527
0.000784707
0.000776558
0.000769118
0.000762449
0.000756441
0.000751158
0.000747176
0.00073666
0.000728665
0.000723889
0.000719723
0.000715836
0.000712226
0.000708916
0.000705886
0.000703138
0.000700633
0.000698373
0.000696338
0.000694528
0.000692851
0.000691448
0.00069012
0.000689064
0.000688004
0.000687293
0.000686486
0.000685956
0.000685176
0.000684568
0.000683789
0.000682974
0.000682253
0.000681035
0.00068038
0.000678977
0.00067742
0.000676078
0.000673965
0.000671415
0.000668633
0.000665467
0.00066108
0.000655998
0.000649059
0.000641131
4.54112e-05
0.00163115
0.00188266
0.00257971
0.00281424
0.00281833
0.00265551
0.00251777
0.00238929
0.00226253
0.00213792
0.00201853
0.00189451
0.00178952
0.00167614
0.00159259
0.00151254
0.00145735
0.00141036
0.0013692
0.00133447
0.0012999
0.00127081
0.00124181
0.00121604
0.00119193
0.00116892
0.0011484
0.00112792
0.00110971
0.0010919
0.0010755
0.00105999
0.00104543
0.00103191
0.00101925
0.00100759
0.000996888
0.000987086
0.000978306
0.000970383
0.000963401
0.000958228
0.000944383
0.000933248
0.000926618
0.000920999
0.000915815
0.000911005
0.000906601
0.000902568
0.000898908
0.000895569
0.000892554
0.000889834
0.00088741
0.000885178
0.000883282
0.000881488
0.000880052
0.000878616
0.000877607
0.000876521
0.000875793
0.000874781
0.000873976
0.000872975
0.000871938
0.000871016
0.000869504
0.00086864
0.000866963
0.000865033
0.000863367
0.000860842
0.000857748
0.000854359
0.000850533
0.000845314
0.000839091
0.000831401
0.000818307
5.45008e-05
0.00221218
0.00242588
0.00329532
0.00358977
0.00357505
0.00337136
0.00319654
0.00303685
0.00288116
0.00272844
0.00258133
0.00243014
0.0022992
0.00216075
0.00205401
0.00195184
0.00187728
0.00181362
0.00175804
0.00171054
0.00166437
0.00162492
0.00158629
0.00155186
0.00151972
0.00148934
0.00146203
0.00143519
0.00141114
0.00138785
0.00136639
0.00134615
0.00132721
0.00130961
0.0012932
0.00127806
0.00126419
0.00125148
0.00124009
0.00122982
0.00122073
0.0012141
0.00119658
0.00118157
0.00117251
0.00116507
0.00115827
0.00115199
0.00114624
0.00114097
0.0011362
0.00113184
0.0011279
0.00112434
0.00112117
0.00111825
0.00111575
0.0011134
0.00111149
0.00110961
0.00110824
0.00110682
0.00110585
0.00110458
0.00110355
0.00110231
0.00110103
0.00109989
0.00109808
0.00109698
0.00109502
0.00109271
0.0010907
0.00108775
0.00108408
0.00108006
0.00107553
0.00106947
0.00106199
0.00105389
0.00103362
6.53109e-05
0.00295837
0.00311323
0.00412916
0.00448758
0.00444999
0.00420119
0.00398681
0.00379465
0.0036091
0.00342714
0.00325087
0.00307073
0.00291179
0.00274596
0.00261356
0.00248661
0.00238954
0.00230592
0.00223273
0.00216957
0.00210905
0.0020568
0.00200623
0.00196105
0.00191898
0.00187945
0.00184374
0.001809
0.00177773
0.00174767
0.00171995
0.00169387
0.00166951
0.00164688
0.00162581
0.00160639
0.00158859
0.0015723
0.00155767
0.0015445
0.00153278
0.00152433
0.00150283
0.00148311
0.0014709
0.00146115
0.00145236
0.00144425
0.00143685
0.00143006
0.00142391
0.0014183
0.00141323
0.00140864
0.00140455
0.0014008
0.00139756
0.00139454
0.00139204
0.00138964
0.00138782
0.001386
0.00138473
0.00138319
0.00138189
0.00138041
0.00137886
0.00137749
0.00137537
0.00137403
0.00137179
0.00136909
0.00136672
0.00136335
0.00135912
0.00135446
0.0013492
0.00134232
0.00133349
0.00132547
0.00129567
7.81253e-05
0.00391034
0.00398148
0.00510322
0.00552837
0.00546292
0.00516414
0.00490764
0.00468193
0.00446586
0.00425386
0.00404721
0.00383648
0.00364758
0.00345202
0.0032914
0.00313683
0.00301397
0.00290682
0.00281236
0.00273015
0.00265199
0.00258395
0.00251865
0.00246013
0.00240575
0.00235485
0.00230873
0.00226421
0.00222397
0.00218552
0.00215003
0.00211672
0.00208564
0.00205678
0.00202995
0.00200521
0.00198253
0.00196179
0.00194313
0.00192635
0.00191134
0.00190058
0.00187483
0.00184953
0.00183325
0.00182055
0.00180926
0.0017989
0.00178945
0.00178079
0.00177295
0.0017658
0.00175933
0.00175349
0.00174826
0.00174349
0.00173934
0.00173551
0.00173229
0.00172925
0.00172687
0.00172458
0.00172294
0.0017211
0.00171952
0.00171777
0.00171593
0.00171433
0.00171192
0.00171031
0.00170783
0.00170476
0.00170203
0.00169828
0.0016935
0.00168821
0.00168224
0.00167462
0.00166434
0.0016571
0.00161525
9.32555e-05
0.00511835
0.00506694
0.00624385
0.00673694
0.00663707
0.00628269
0.00598144
0.00572136
0.00547454
0.00523207
0.00499422
0.00475151
0.0045309
0.00430327
0.0041118
0.00392659
0.00377448
0.00363998
0.0035202
0.00341502
0.00331536
0.00322791
0.00314449
0.00306942
0.00299982
0.00293479
0.00287575
0.00281908
0.0027677
0.00271883
0.00267369
0.0026314
0.00259197
0.00255538
0.00252138
0.00249003
0.00246127
0.002435
0.00241129
0.00238999
0.00237085
0.00235712
0.00232687
0.00229504
0.0022736
0.00225712
0.00224269
0.00222953
0.00221753
0.00220657
0.00219664
0.00218758
0.0021794
0.00217199
0.00216538
0.00215935
0.00215408
0.00214926
0.00214516
0.00214135
0.00213828
0.00213542
0.00213333
0.00213115
0.00212924
0.00212722
0.0021251
0.00212326
0.00212057
0.0021187
0.00211602
0.00211262
0.00210956
0.00210548
0.00210023
0.00209437
0.00208774
0.00207951
0.00206774
0.00206218
0.00200602
0.000111035
0.00664374
0.0064173
0.00758221
0.0081426
0.00799954
0.00758304
0.00723438
0.00693948
0.00666223
0.00638948
0.00612012
0.00584447
0.00559067
0.00532873
0.00510374
0.00488473
0.00469975
0.00453386
0.00438432
0.00425177
0.00412616
0.00401506
0.00390945
0.00381395
0.00372554
0.00364297
0.0035679
0.00349614
0.00343089
0.00336907
0.00331191
0.00325845
0.00320862
0.00316241
0.00311946
0.00307989
0.00304353
0.00301033
0.00298029
0.00295332
0.00292896
0.00291137
0.00287634
0.00283705
0.00280915
0.00278783
0.00276944
0.00275277
0.00273762
0.00272379
0.00271126
0.00269985
0.00268954
0.00268021
0.00267188
0.0026643
0.00265765
0.00265161
0.00264642
0.00264167
0.00263776
0.00263419
0.00263156
0.00262898
0.00262671
0.00262441
0.002622
0.00261994
0.00261703
0.00261491
0.00261209
0.00260844
0.00260512
0.00260082
0.00259521
0.0025889
0.00258171
0.0025731
0.00255984
0.00255704
0.00248543
0.000131808
0.00856081
0.00809436
0.00915568
0.00977766
0.00958119
0.00909516
0.00869651
0.00836694
0.00806043
0.00775841
0.00745799
0.007149
0.00686099
0.00656271
0.00630161
0.00604553
0.00582391
0.00562239
0.00543839
0.00527365
0.0051171
0.00497742
0.00484484
0.00472429
0.00461272
0.00450845
0.00441352
0.00432304
0.00424054
0.00416261
0.00409047
0.0040231
0.0039603
0.00390209
0.00384796
0.00379811
0.00375222
0.00371035
0.00367234
0.00363822
0.00360727
0.00358463
0.00354447
0.00349682
0.00346094
0.00343345
0.00341003
0.00338897
0.00336988
0.00335248
0.00333673
0.00332239
0.00330944
0.00329773
0.00328725
0.00327777
0.0032694
0.00326186
0.00325532
0.00324942
0.00324447
0.00324003
0.00323672
0.00323367
0.00323101
0.00322841
0.00322574
0.00322347
0.0032204
0.00321809
0.00321522
0.00321145
0.00320796
0.00320359
0.00319781
0.00319125
0.00318366
0.003175
0.00316032
0.00316146
0.00307568
0.000155913
0.010959
0.0101754
0.0110103
0.0116677
0.0114102
0.0108486
0.0103986
0.0100364
0.00970374
0.00937513
0.00904541
0.0087037
0.0083812
0.008045
0.00774543
0.00744906
0.00718699
0.00694553
0.00672216
0.00652012
0.00632722
0.00615347
0.00598849
0.00583747
0.00569761
0.00556665
0.00544719
0.0053336
0.00522966
0.00513172
0.00504094
0.00495623
0.00487724
0.00480406
0.00473596
0.00467324
0.00461541
0.00456263
0.00451458
0.00447143
0.00443213
0.00440283
0.00435703
0.00430016
0.00425466
0.00421936
0.00418956
0.00416298
0.00413896
0.00411709
0.00409732
0.00407933
0.00406309
0.00404841
0.00403527
0.00402342
0.00401292
0.00400352
0.0039953
0.00398797
0.00398174
0.00397624
0.00397206
0.00396845
0.00396533
0.00396243
0.00395951
0.00395708
0.00395395
0.00395151
0.00394873
0.00394501
0.00394151
0.00393728
0.00393159
0.00392506
0.00391735
0.00390907
0.00389312
0.00389939
0.00380455
0.000183655
0.0139457
0.0127553
0.0132037
0.0138181
0.0134835
0.012848
0.0123525
0.0119685
0.0116206
0.0112737
0.0109204
0.0105493
0.010194
0.00981966
0.00948012
0.0091408
0.00883474
0.00854921
0.00828166
0.00803718
0.00780232
0.0075886
0.00738526
0.00719769
0.00702365
0.00686019
0.00671068
0.00656868
0.00643827
0.00631557
0.00620165
0.0060954
0.00599626
0.00590439
0.00581884
0.00574002
0.00566721
0.00560072
0.00554001
0.00548542
0.00543554
0.00539751
0.00534525
0.00527838
0.0052215
0.00517644
0.00513856
0.00510502
0.00507482
0.00504737
0.00502256
0.00500002
0.00497967
0.00496128
0.00494481
0.00493
0.00491684
0.00490512
0.00489482
0.00488573
0.00487791
0.00487106
0.0048658
0.00486148
0.00485783
0.0048546
0.00485146
0.00484892
0.00484584
0.00484338
0.00484084
0.00483741
0.00483412
0.00483032
0.00482506
0.00481894
0.00481147
0.00480413
0.0047872
0.00479963
0.00470437
0.000383456
0.0176494
0.0159489
0.0158075
0.0162239
0.0157602
0.0150506
0.0145242
0.0141425
0.0138066
0.0134653
0.0131062
0.0127182
0.0123378
0.0119297
0.0115516
0.0111688
0.0108166
0.0104839
0.0101681
0.00987652
0.00959441
0.00933486
0.00908705
0.0088565
0.0086418
0.00843934
0.00825349
0.00807698
0.00791419
0.0077611
0.00761864
0.00748577
0.00736166
0.00724658
0.0071393
0.00704038
0.00694883
0.00686513
0.0067885
0.00671944
0.00665618
0.00660669
0.00654669
0.00646909
0.00639906
0.006342
0.00629398
0.00625168
0.00621372
0.00617929
0.00614818
0.00611994
0.00609444
0.00607142
0.00605079
0.00603228
0.00601579
0.00600117
0.00598826
0.00597696
0.00596716
0.00595864
0.00595199
0.00594675
0.00594243
0.00593883
0.00593549
0.00593288
0.00593
0.00592767
0.00592558
0.00592271
0.00591994
0.0059169
0.00591251
0.00590731
0.00590053
0.0058948
0.00587729
0.00589671
0.00580965
0.000749086
0.0222244
0.0198936
0.0189073
0.0188875
0.0182033
0.0174068
0.0168616
0.0165064
0.0162157
0.015917
0.0155873
0.0152118
0.014829
0.0144029
0.0139963
0.0135757
0.0131796
0.0127998
0.0124339
0.0120925
0.0117593
0.011449
0.0111513
0.0108716
0.0106098
0.0103615
0.0101326
0.0099149
0.00971311
0.00952323
0.00934603
0.0091806
0.00902583
0.00888215
0.00874803
0.00862419
0.00850934
0.00840416
0.00830757
0.00822031
0.00814018
0.00807582
0.00800615
0.00791701
0.00783215
0.00776067
0.00770004
0.00764679
0.00759912
0.00755597
0.00751698
0.00748163
0.00744969
0.00742089
0.00739502
0.00737188
0.00735122
0.00733297
0.00731679
0.00730273
0.00729046
0.00727984
0.00727139
0.00726494
0.00725976
0.00725569
0.00725213
0.00724952
0.00724698
0.00724494
0.00724351
0.00724155
0.00723965
0.00723778
0.00723477
0.00723107
0.00722555
0.0072222
0.0072046
0.0072317
0.00714824
0.00347766
0.0278584
0.0247502
0.022598
0.0218216
0.0207914
0.0198821
0.0193234
0.0190117
0.0187927
0.0185708
0.0183099
0.0179882
0.0176415
0.0172306
0.0168209
0.0163815
0.0159539
0.0155351
0.0151236
0.0147345
0.0143501
0.0139872
0.0136363
0.013303
0.0129888
0.0126888
0.0124104
0.0121449
0.0118973
0.0116639
0.0114453
0.0112407
0.0110489
0.0108705
0.0107037
0.0105493
0.0104059
0.0102741
0.0101528
0.0100428
0.0099416
0.00985817
0.00977606
0.00967439
0.00957321
0.00948484
0.00940885
0.00934204
0.00928233
0.00922834
0.00917956
0.00913536
0.00909541
0.00905938
0.00902699
0.00899806
0.00897218
0.00894937
0.00892912
0.00891158
0.00889624
0.00888297
0.00887221
0.00886413
0.00885779
0.00885306
0.00884924
0.00884662
0.00884454
0.00884299
0.00884245
0.00884174
0.0088411
0.00884086
0.00883977
0.00883821
0.00883457
0.00883438
0.00881722
0.00885258
0.00877297
0.00556721
0.0347718
0.0307009
0.0269651
0.0250431
0.0235128
0.0224524
0.0218804
0.0216228
0.0214927
0.0213724
0.021212
0.0209822
0.0207137
0.0203607
0.0199877
0.0195644
0.0191336
0.0186975
0.0182566
0.0178316
0.0174041
0.0169934
0.0165915
0.0162046
0.0158362
0.0154811
0.0151489
0.0148306
0.0145316
0.0142485
0.013982
0.013732
0.0134967
0.0132772
0.0130714
0.0128804
0.0127024
0.0125384
0.0123869
0.012249
0.0121219
0.0120145
0.0119163
0.0118007
0.0116819
0.0115744
0.0114802
0.0113969
0.0113225
0.0112552
0.0111944
0.0111393
0.0110894
0.0110445
0.011004
0.0109678
0.0109355
0.010907
0.0108817
0.0108598
0.0108406
0.010824
0.0108103
0.0108
0.0107921
0.0107864
0.0107822
0.0107795
0.0107779
0.010777
0.0107776
0.0107784
0.0107794
0.0107813
0.0107826
0.0107838
0.0107826
0.0107863
0.01077
0.0108141
0.0107309
0.00808441
0.0429909
0.0379173
0.0320374
0.0285564
0.0263545
0.0250946
0.0245064
0.0243102
0.0242808
0.0242779
0.0242396
0.0241306
0.023975
0.0237192
0.023425
0.0230602
0.0226667
0.0222492
0.0218095
0.0213742
0.0209245
0.0204819
0.0200413
0.0196092
0.0191921
0.0187847
0.0183994
0.0180272
0.0176742
0.017338
0.0170194
0.0167189
0.0164348
0.0161686
0.0159181
0.0156847
0.0154664
0.0152645
0.0150772
0.0149059
0.0147476
0.0146109
0.0144921
0.0143608
0.0142234
0.0140949
0.0139799
0.0138773
0.0137852
0.013702
0.0136266
0.0135582
0.0134963
0.0134405
0.0133902
0.0133452
0.0133049
0.0132694
0.0132378
0.0132106
0.0131867
0.013166
0.0131486
0.0131354
0.0131252
0.0131181
0.0131131
0.0131102
0.0131091
0.0131089
0.0131107
0.0131133
0.0131163
0.0131205
0.0131248
0.0131292
0.0131309
0.0131389
0.0131237
0.0131766
0.0130804
0.0110097
0.0520077
0.0462876
0.03772
0.032323
0.0292877
0.0277767
0.0271697
0.0270419
0.0271224
0.0272479
0.0273463
0.0273785
0.0273611
0.0272329
0.0270525
0.0267852
0.026471
0.0261133
0.0257147
0.025306
0.0248671
0.0244216
0.023967
0.0235105
0.023061
0.022614
0.0221851
0.0217656
0.021363
0.0209757
0.0206055
0.0202536
0.0199187
0.0196029
0.0193041
0.0190243
0.0187613
0.0185167
0.0182889
0.0180793
0.017885
0.017714
0.0175698
0.0174206
0.0172639
0.0171135
0.0169758
0.0168514
0.016739
0.0166372
0.0165447
0.0164609
0.0163847
0.016316
0.0162539
0.0161984
0.0161485
0.0161046
0.0160655
0.0160317
0.0160022
0.0159765
0.0159545
0.0159376
0.0159244
0.0159153
0.0159091
0.0159055
0.0159047
0.0159051
0.015908
0.0159125
0.0159176
0.0159244
0.0159317
0.0159396
0.0159443
0.0159566
0.0159419
0.0160031
0.0158858
0.0143749
0.061382
0.0552803
0.0437412
0.0362056
0.0322414
0.0304459
0.0298263
0.0297762
0.0299753
0.0302372
0.0304823
0.0306718
0.0308117
0.0308335
0.0307937
0.030655
0.0304564
0.0301964
0.0298789
0.0295369
0.0291478
0.0287364
0.0283024
0.0278533
0.0273995
0.0269373
0.0264855
0.026036
0.0255975
0.0251703
0.0247568
0.0243597
0.0239781
0.0236153
0.0232694
0.0229431
0.0226345
0.0223457
0.022075
0.0218243
0.0215909
0.021382
0.0212085
0.0210392
0.020863
0.020691
0.0205301
0.0203827
0.0202484
0.020126
0.0200145
0.0199132
0.0198209
0.0197375
0.0196619
0.0195943
0.0195334
0.0194798
0.0194319
0.0193906
0.0193544
0.019323
0.0192955
0.019274
0.019257
0.0192451
0.019237
0.0192323
0.0192314
0.019232
0.019236
0.0192421
0.0192491
0.0192584
0.0192685
0.0192796
0.0192868
0.0193028
0.0192876
0.0193553
0.0192117
0.0182021
0.0708174
0.0643801
0.0495579
0.039856
0.0350545
0.0330111
0.0324153
0.0324579
0.0327852
0.0331881
0.0335862
0.0339466
0.0342587
0.0344482
0.0345699
0.0345853
0.0345326
0.0344021
0.0342012
0.0339631
0.0336613
0.033322
0.0329467
0.0325421
0.032119
0.0316748
0.0312307
0.0307784
0.0303285
0.0298824
0.0294439
0.029017
0.0286016
0.0282022
0.0278177
0.0274516
0.0271024
0.0267729
0.0264618
0.0261712
0.0258993
0.0256523
0.0254478
0.0252575
0.0250628
0.0248711
0.0246888
0.0245192
0.024363
0.0242198
0.0240885
0.0239689
0.0238595
0.0237605
0.0236704
0.0235898
0.0235169
0.0234528
0.0233954
0.0233458
0.0233024
0.0232647
0.0232312
0.0232044
0.0231829
0.0231675
0.0231568
0.0231504
0.0231489
0.0231492
0.0231537
0.0231611
0.0231697
0.0231809
0.0231932
0.0232068
0.0232156
0.0232338
0.0232162
0.0232873
0.0231159
0.0224963
0.0800348
0.0729542
0.0551427
0.0431399
0.0377113
0.0355175
0.034959
0.0350702
0.0354893
0.0360302
0.0365819
0.0371246
0.0376186
0.0379879
0.0382881
0.0384794
0.0385995
0.0386255
0.0385736
0.038473
0.0382924
0.0380603
0.0377806
0.0374578
0.037102
0.0367124
0.0363112
0.0358897
0.0354598
0.0350242
0.0345877
0.0341552
0.0337278
0.0333112
0.0329049
0.0325137
0.0321366
0.0317771
0.0314346
0.0311118
0.0308073
0.0305272
0.0302944
0.0300849
0.0298745
0.0296671
0.0294677
0.0292798
0.0291046
0.0289427
0.0287933
0.0286566
0.0285311
0.0284171
0.028313
0.0282197
0.0281351
0.0280606
0.0279938
0.0279361
0.0278856
0.0278418
0.0278023
0.0277702
0.0277439
0.0277247
0.027711
0.0277025
0.0276999
0.0276997
0.0277043
0.0277124
0.0277218
0.0277343
0.027748
0.027763
0.0277719
0.0277903
0.0277679
0.0278381
0.0276411
0.0272645
0.0886901
0.0805083
0.0616181
0.0473642
0.0408747
0.0384645
0.0378564
0.0379412
0.038354
0.0389289
0.0395461
0.0401861
0.040798
0.0413464
0.0418356
0.0422198
0.0425368
0.0427408
0.0428689
0.0429378
0.0429088
0.0428166
0.0426683
0.0424633
0.0422101
0.0419122
0.0415907
0.0412355
0.0408605
0.0404691
0.0400669
0.0396593
0.0392485
0.0388412
0.0384377
0.0380437
0.0376589
0.0372877
0.0369302
0.0365895
0.0362654
0.0359634
0.0357107
0.0354877
0.0352673
0.035051
0.0348417
0.0346425
0.0344546
0.0342796
0.0341168
0.0339671
0.0338289
0.0337031
0.0335878
0.0334841
0.03339
0.0333069
0.0332325
0.0331682
0.033112
0.0330634
0.0330193
0.0329829
0.0329527
0.0329302
0.0329139
0.0329035
0.0328999
0.032899
0.0329037
0.0329123
0.0329223
0.0329355
0.0329498
0.0329651
0.0329727
0.0329893
0.0329601
0.0330244
0.0328074
0.0325299
0.0963435
0.087038
0.0691322
0.0540671
0.0462531
0.0431088
0.0419927
0.0417518
0.0419329
0.0423484
0.0428748
0.0434654
0.0440738
0.0446693
0.0452432
0.0457344
0.04621
0.0465975
0.0469368
0.0472027
0.0473496
0.0474287
0.047448
0.0473943
0.0472778
0.0471096
0.0469048
0.0466521
0.0463684
0.0460574
0.0457248
0.0453762
0.045015
0.0446486
0.0442778
0.0439091
0.0435431
0.043185
0.0428353
0.042498
0.0421736
0.0418675
0.0416091
0.0413832
0.0411625
0.0409468
0.0407377
0.0405372
0.0403465
0.0401674
0.0399995
0.0398442
0.0397001
0.0395686
0.0394475
0.0393386
0.0392395
0.0391521
0.0390738
0.0390065
0.0389479
0.0388976
0.0388517
0.0388137
0.0387818
0.0387581
0.038741
0.03873
0.0387267
0.0387262
0.0387317
0.0387415
0.0387526
0.0387667
0.0387817
0.0387969
0.0388029
0.0388165
0.0387801
0.0388337
0.0386063
0.038323
0.102526
0.0930923
0.0774349
0.0629932
0.0544892
0.0502173
0.0480827
0.0471232
0.046786
0.0468086
0.0470471
0.0474016
0.0478479
0.0483266
0.0488432
0.0493221
0.0498195
0.0502722
0.0507075
0.0511005
0.051427
0.0517054
0.0519275
0.0520518
0.0521027
0.0521039
0.0520521
0.0519373
0.0517828
0.0515903
0.0513646
0.0511118
0.0508367
0.0505464
0.0502424
0.049932
0.0496163
0.0493011
0.0489877
0.0486805
0.0483811
0.0480945
0.0478502
0.0476369
0.0474296
0.0472276
0.0470315
0.0468428
0.046662
0.046491
0.0463295
0.0461795
0.0460396
0.0459116
0.0457934
0.0456873
0.0455906
0.0455058
0.0454301
0.0453655
0.0453101
0.0452632
0.0452205
0.0451857
0.0451565
0.0451356
0.0451212
0.0451131
0.045113
0.0451156
0.0451244
0.0451375
0.0451516
0.0451685
0.0451858
0.0452023
0.0452081
0.0452193
0.0451779
0.0452179
0.0449941
0.0446486
0.107144
0.0992879
0.0862016
0.073125
0.064227
0.0587433
0.0554999
0.0537164
0.0527744
0.052321
0.0521711
0.0521826
0.0523547
0.0525941
0.0529254
0.0532696
0.053656
0.0540475
0.0544511
0.0548518
0.0552284
0.0555904
0.0559166
0.0562117
0.0564531
0.0566649
0.0567924
0.0568459
0.0568581
0.0568224
0.056741
0.0566221
0.0564717
0.0562958
0.0560961
0.0558806
0.0556509
0.0554132
0.0551693
0.0549242
0.0546803
0.0544424
0.0542372
0.0540568
0.053881
0.0537096
0.0535426
0.0533815
0.0532261
0.0530785
0.0529381
0.0528073
0.0526848
0.0525728
0.0524694
0.052377
0.0522932
0.0522207
0.0521567
0.0521036
0.0520592
0.0520234
0.0519912
0.0519666
0.051947
0.0519352
0.0519296
0.05193
0.0519382
0.0519488
0.0519655
0.0519863
0.0520077
0.0520314
0.0520548
0.0520765
0.0520862
0.0520986
0.0520583
0.0520847
0.0518821
0.05146
0.111533
0.105436
0.0949737
0.0833085
0.0733499
0.0665397
0.0626191
0.0603625
0.0590505
0.0582663
0.0577889
0.0574982
0.057408
0.0573992
0.0575011
0.0576449
0.0578451
0.0580872
0.0583603
0.0586646
0.0589775
0.059308
0.0596338
0.0599661
0.0602826
0.0605913
0.0608728
0.0611106
0.0613244
0.0614741
0.0615658
0.0616155
0.0616274
0.0616028
0.0615451
0.0614627
0.0613571
0.0612343
0.0610968
0.0609499
0.0607966
0.0606413
0.0605048
0.0603821
0.0602606
0.0601407
0.0600227
0.0599081
0.0597967
0.0596904
0.0595887
0.0594941
0.0594054
0.059325
0.0592513
0.0591869
0.0591295
0.059082
0.0590419
0.0590115
0.0589891
0.0589746
0.0589629
0.0589582
0.0589575
0.0589638
0.0589756
0.0589927
0.0590171
0.0590433
0.0590753
0.0591108
0.0591464
0.0591837
0.0592201
0.0592538
0.0592748
0.0592957
0.0592666
0.0592848
0.0591223
0.058643
0.116332
0.111628
0.103316
0.0932924
0.0837911
0.0761277
0.0704114
0.0669843
0.0650579
0.0638986
0.0632047
0.0627738
0.0625547
0.0623885
0.0622995
0.0622554
0.0622771
0.0623524
0.0624577
0.0626081
0.0627837
0.0629978
0.0632354
0.0635026
0.0637879
0.0640891
0.0643993
0.0647021
0.0650056
0.0652904
0.0655552
0.0657963
0.0659948
0.0661449
0.0662578
0.066341
0.0663932
0.0664199
0.0664244
0.0664119
0.0663855
0.0663489
0.0663133
0.0662759
0.0662347
0.0661906
0.0661445
0.0660982
0.0660519
0.0660075
0.0659646
0.0659257
0.0658899
0.0658596
0.0658334
0.065814
0.0657995
0.0657927
0.0657914
0.0657982
0.0658112
0.065831
0.0658526
0.06588
0.0659103
0.0659465
0.0659871
0.066032
0.0660832
0.0661356
0.066193
0.0662533
0.0663131
0.0663742
0.0664337
0.0664897
0.0665333
0.066574
0.0665705
0.0665927
0.0664891
0.0659976
0.120469
0.117181
0.110862
0.102877
0.0947785
0.0875482
0.08145
0.0766667
0.0730404
0.0706224
0.0692308
0.0683455
0.0677465
0.0672913
0.0670156
0.0668454
0.0667733
0.0667182
0.0666631
0.0666481
0.0666618
0.0667212
0.0668196
0.0669586
0.0671348
0.0673416
0.0675793
0.0678376
0.0681206
0.0684174
0.0687275
0.0690422
0.0693557
0.0696572
0.0699453
0.0702049
0.0704261
0.0706191
0.070788
0.0709355
0.0710635
0.0711754
0.0712687
0.0713416
0.0714045
0.0714594
0.0715079
0.071552
0.0715922
0.0716308
0.0716675
0.0717047
0.0717419
0.0717814
0.0718221
0.0718665
0.0719131
0.0719645
0.0720192
0.0720793
0.0721436
0.0722127
0.0722825
0.0723565
0.0724322
0.0725122
0.0725954
0.0726816
0.0727728
0.0728645
0.0729604
0.0730582
0.0731554
0.0732533
0.0733494
0.0734416
0.0735228
0.073599
0.0736396
0.073686
0.0736589
0.0732203
0.123926
0.121717
0.117294
0.111472
0.10499
0.0985668
0.092838
0.0880157
0.0840332
0.0807907
0.0782312
0.076074
0.0743798
0.0731403
0.0723878
0.0718865
0.0715227