/*--------------------------------*- C++ -*----------------------------------*\
| =========                 |                                                 |
| \\      /  F ield         | OpenFOAM: The Open Source CFD Toolbox           |
|  \\    /   O peration     | Version:  5.x                                   |
|   \\  /    A nd           | Web:      www.OpenFOAM.org                      |
|    \\/     M anipulation  |                                                 |
\*---------------------------------------------------------------------------*/
FoamFile
{
    version     2.0;
    format      ascii;
    class       surfaceScalarField;
    location    "850";
    object      phi;
}
// * * * * * * * * * * * * * * * * * * * * * * * * * * * * * * * * * * * * * //

dimensions      [0 3 -1 0 0 0 0];

internalField   nonuniform List<scalar> 
83317
(
0.000496627
0.000106995
-0.000607455
0.0004019
9.47224e-05
0.000326797
7.51038e-05
0.000294884
3.1913e-05
0.000277334
1.75501e-05
0.000263272
1.40618e-05
0.000252783
1.04882e-05
0.000244926
7.85705e-06
0.000238547
6.37965e-06
0.0002329
5.64673e-06
0.000227916
4.95614e-06
0.000222718
5.22206e-06
0.000218641
4.04962e-06
0.000214595
4.07581e-06
0.000212111
2.45509e-06
0.000210269
1.86951e-06
0.000208369
1.87098e-06
0.000206915
1.48262e-06
0.000204922
1.9622e-06
0.000203303
1.64798e-06
0.000201626
1.67765e-06
0.000199809
1.8171e-06
0.000198455
1.35329e-06
0.00019679
1.66487e-06
0.000195487
1.30359e-06
0.000194203
1.28336e-06
0.000192646
1.55711e-06
0.000191381
1.26529e-06
0.000190327
1.05402e-06
0.000189162
1.16498e-06
0.000187706
1.45482e-06
0.000186373
1.29837e-06
0.00018562
7.81992e-07
0.000184765
8.3178e-07
0.000183959
8.26388e-07
0.000183365
5.76921e-07
0.000182638
7.45434e-07
0.000182349
2.66228e-07
0.00018243
-6.01037e-08
0.000182505
-9.39645e-08
0.000182558
-3.64248e-08
0.000178049
4.49568e-06
0.000174231
3.82974e-06
0.000173736
4.72669e-07
0.000173333
4.20474e-07
0.000173272
6.04033e-08
0.000172876
3.94451e-07
0.000172512
3.58268e-07
0.000172201
3.14929e-07
0.000171933
2.62024e-07
0.000171708
2.25028e-07
0.000171529
1.77265e-07
0.000171385
1.43582e-07
0.000171289
1.03675e-07
0.000170867
4.12935e-07
0.000170505
3.48253e-07
0.000170819
-3.01986e-07
0.000170866
-4.34532e-08
0.000170893
-3.16914e-08
0.000171294
-3.85507e-07
0.000171381
-1.03126e-07
0.000171142
2.44507e-07
0.000171108
2.60254e-08
0.00017104
8.51403e-08
0.000170921
1.00268e-07
0.00017071
2.39208e-07
0.000170234
4.46469e-07
0.000170086
1.83809e-07
0.000169983
6.50523e-08
0.000169242
7.83595e-07
0.00016842
7.78307e-07
0.000167928
5.6978e-07
0.000166684
1.16482e-06
0.000165042
1.73538e-06
0.000163704
1.24383e-06
0.000161938
1.93364e-06
0.00015932
2.44832e-06
0.000156423
3.15963e-06
0.000152545
3.6129e-06
0.000150692
2.22997e-06
7.77634e-05
7.2644e-05
-0.000360302
0.000438021
0.000750265
0.000251183
-0.000894507
0.000578289
0.000266696
0.000459312
0.000194081
0.000411981
7.92436e-05
0.000391582
3.79492e-05
0.000377512
2.81322e-05
0.000369938
1.80615e-05
0.000366042
1.17525e-05
0.000364065
8.35672e-06
0.000363293
6.41943e-06
0.000362958
5.27538e-06
0.000362665
5.52833e-06
0.000362792
3.90806e-06
0.000363007
3.87651e-06
0.000364847
5.99734e-07
0.000366464
2.66579e-07
0.000369039
-7.19253e-07
0.000371165
-6.28304e-07
0.000373448
-3.36819e-07
0.000375485
-3.74503e-07
0.000376732
4.30685e-07
0.000378183
3.66429e-07
0.000378699
8.37048e-07
0.000379196
1.16755e-06
0.000379146
1.35364e-06
0.00037862
1.80944e-06
0.000378397
1.77947e-06
0.000377442
2.22094e-06
0.000376252
2.24401e-06
0.000374912
2.50433e-06
0.000373772
2.59414e-06
0.000372429
2.62398e-06
0.000370511
2.71425e-06
0.000368699
2.63108e-06
0.000366796
2.73915e-06
0.000364817
2.54761e-06
0.000362943
2.62862e-06
0.000360831
2.36612e-06
0.000358425
2.35686e-06
0.000356219
2.10258e-06
0.000354028
2.16253e-06
0.000355624
2.89283e-06
0.000358218
1.24096e-06
0.000358421
2.57379e-07
0.000357863
9.87758e-07
0.00035695
9.71825e-07
0.000356266
1.07797e-06
0.000355604
1.01708e-06
0.00035494
9.80998e-07
0.000354301
8.9687e-07
0.000353678
8.47406e-07
0.000353085
7.69192e-07
0.000352513
7.14803e-07
0.000351963
6.57627e-07
0.000351677
6.9422e-07
0.000351409
6.09013e-07
0.000350686
4.2674e-07
0.000350222
4.22971e-07
0.000349786
4.00911e-07
0.000349152
2.57582e-07
0.000348756
2.83799e-07
0.000348524
4.78864e-07
0.000347956
5.89546e-07
0.000347334
7.15838e-07
0.000346625
7.99618e-07
0.000345873
1.00536e-06
0.000345195
1.10865e-06
0.000344065
1.33315e-06
0.000342794
1.31527e-06
0.000341674
1.92709e-06
0.000340341
2.08751e-06
0.000338516
2.43552e-06
0.000336747
2.89182e-06
0.000334806
3.72545e-06
0.000332115
3.88558e-06
0.000329053
5.0843e-06
0.000325463
5.9479e-06
0.000321293
7.46931e-06
0.000314944
9.82017e-06
0.000312294
5.08971e-06
0.000171591
0.000213206
-0.000727766
0.000538986
0.000994053
0.000430106
-0.00117292
0.000758863
0.000501884
0.00059613
0.000356815
0.000533867
0.000141507
0.000509255
6.25606e-05
0.000493867
4.35199e-05
0.000487753
2.41758e-05
0.000486465
1.30401e-05
0.000487627
7.19504e-06
0.000490422
3.6247e-06
0.000493514
2.17402e-06
0.000496626
2.42479e-06
0.000499621
9.03663e-07
0.000502179
1.32867e-06
0.000506315
-3.54645e-06
0.000509446
-2.85455e-06
0.000513801
-5.08387e-06
0.000517304
-4.12152e-06
0.000520946
-3.98884e-06
0.000524183
-3.60286e-06
0.000526445
-1.83119e-06
0.000528789
-1.97743e-06
0.000529861
-2.3462e-07
0.000530855
1.73429e-07
0.000531124
1.08492e-06
0.000530977
1.95577e-06
0.000530761
1.99582e-06
0.000529797
3.18488e-06
0.000528763
3.27834e-06
0.000527288
3.97901e-06
0.000525814
4.06756e-06
0.000524047
4.38125e-06
0.000521987
4.78336e-06
0.000519808
4.8031e-06
0.000517442
5.1114e-06
0.000514947
5.03654e-06
0.000512295
5.28671e-06
0.000509485
5.16896e-06
0.000506377
5.47137e-06
0.000503273
5.20067e-06
0.000499885
5.55582e-06
0.000503147
-3.72453e-07
0.000507763
-3.37223e-06
0.000507907
1.06958e-07
0.00050725
1.65014e-06
0.000506368
1.85356e-06
0.000505528
1.91835e-06
0.000504705
1.83813e-06
0.000503866
1.82141e-06
0.000503047
1.71365e-06
0.000502237
1.65787e-06
0.000501453
1.55293e-06
0.000500687
1.48008e-06
0.000499934
1.41322e-06
0.000499302
1.32365e-06
0.00049868
1.22668e-06
0.000497899
1.21208e-06
0.000497229
1.0934e-06
0.000496588
1.04123e-06
0.000495887
9.63392e-07
0.000495281
8.84437e-07
0.000494688
1.07412e-06
0.000493846
1.42917e-06
0.000492946
1.62078e-06
0.000491909
1.83095e-06
0.000490845
2.07801e-06
0.000489658
2.28678e-06
0.000488294
2.70878e-06
0.000486701
2.8957e-06
0.000484933
3.70916e-06
0.000483147
3.85982e-06
0.000480817
4.78997e-06
0.000478227
5.45723e-06
0.000475492
6.48968e-06
0.000472081
7.26665e-06
0.000467985
9.23427e-06
0.000463065
1.08147e-05
0.000457619
1.29985e-05
0.000449421
1.79336e-05
0.000446076
8.55443e-06
0.000265739
0.00039345
-0.00113467
0.00067258
0.00128984
0.000643634
-0.00150341
0.00098568
0.000806046
0.000768667
0.000573829
0.00068683
0.000223344
0.000656091
9.32991e-05
0.000638466
6.11453e-05
0.000632955
2.96863e-05
0.000633488
1.25071e-05
0.000637042
3.64076e-06
0.000642561
-1.89461e-06
0.000648517
-3.78918e-06
0.000654276
-3.3284e-06
0.000659767
-4.5935e-06
0.000663962
-2.85905e-06
0.000669356
-8.94798e-06
0.000673312
-6.80395e-06
0.000678332
-1.01104e-05
0.000682509
-8.29246e-06
0.00068659
-8.07627e-06
0.000690312
-7.3187e-06
0.000692967
-4.48613e-06
0.000695593
-4.60346e-06
0.000696937
-1.57935e-06
0.000698055
-9.44031e-07
0.000698461
6.78973e-07
0.000698403
2.01361e-06
0.000698114
2.28495e-06
0.000697095
4.20321e-06
0.000696052
4.32171e-06
0.000694457
5.57352e-06
0.000692729
5.7959e-06
0.000690688
6.41359e-06
0.000688496
6.98108e-06
0.00068609
7.20466e-06
0.00068345
7.75506e-06
0.000680678
7.80459e-06
0.000677618
8.3512e-06
0.000674469
8.31307e-06
0.000671048
8.89637e-06
0.00066754
8.70471e-06
0.000663589
9.50969e-06
0.000666582
-3.36864e-06
0.000671357
-8.14487e-06
0.000671528
-6.95115e-08
0.000670797
2.38444e-06
0.000669904
2.74633e-06
0.000668938
2.8842e-06
0.000667989
2.78582e-06
0.000667021
2.7897e-06
0.000666077
2.65584e-06
0.000665142
2.59291e-06
0.000664236
2.4579e-06
0.000663351
2.36448e-06
0.000662481
2.28464e-06
0.000661635
2.16808e-06
0.000660803
2.05521e-06
0.000660003
2.01416e-06
0.000659229
1.86871e-06
0.000658476
1.79244e-06
0.000657768
1.67496e-06
0.000657058
1.59112e-06
0.000656249
1.88438e-06
0.000655224
2.45163e-06
0.000654122
2.72619e-06
0.00065284
3.10816e-06
0.000651511
3.41421e-06
0.000649928
3.86262e-06
0.000648297
4.34759e-06
0.000646391
4.79292e-06
0.000644055
6.05507e-06
0.00064175
6.15475e-06
0.000638882
7.67573e-06
0.000635473
8.84703e-06
0.000631838
1.0147e-05
0.000627535
1.15478e-05
0.000622276
1.45329e-05
0.000615834
1.72158e-05
0.000608779
2.01154e-05
0.000598273
2.83771e-05
0.000594038
1.2886e-05
0.000386577
0.000600853
-0.00159448
0.000846309
0.00164385
0.000886393
-0.00188655
0.00126251
0.00118739
0.000981917
0.000854423
0.00087406
0.000331201
0.000834133
0.000133227
0.000812563
8.27143e-05
0.00080598
3.62694e-05
0.00080713
1.13572e-05
0.00081228
-1.50883e-06
0.000819957
-9.57144e-06
0.000828582
-1.24191e-05
0.000836948
-1.169e-05
0.000845247
-1.28968e-05
0.000851641
-9.24851e-06
0.00085881
-1.61218e-05
0.000864168
-1.21565e-05
0.000870314
-1.62615e-05
0.00087562
-1.35937e-05
0.000880599
-1.30598e-05
0.000885234
-1.19496e-05
0.000888602
-7.85357e-06
0.000891858
-7.85978e-06
0.000893743
-3.4648e-06
0.000895241
-2.44158e-06
0.000895981
-6.079e-08
0.000896097
1.89683e-06
0.000895956
2.42636e-06
0.000894987
5.17211e-06
0.000893937
5.3716e-06
0.000892279
7.232e-06
0.000890423
7.65165e-06
0.000888221
8.61042e-06
0.000885828
9.3785e-06
0.000883194
9.83538e-06
0.000880282
1.06706e-05
0.000877223
1.08603e-05
0.000873829
1.17482e-05
0.000870336
1.18028e-05
0.000866535
1.27009e-05
0.000862628
1.26085e-05
0.000858205
1.39356e-05
0.000860809
-5.97474e-06
0.00086566
-1.29946e-05
0.000865991
-4.0337e-07
0.000865212
3.16592e-06
0.00086423
3.72814e-06
0.000863146
3.96843e-06
0.000862077
3.85438e-06
0.000860988
3.87935e-06
0.000859922
3.72098e-06
0.000858868
3.64666e-06
0.000857848
3.47772e-06
0.000856852
3.36103e-06
0.000855872
3.26515e-06
0.000854904
3.13487e-06
0.000853957
3.00016e-06
0.000853065
2.9082e-06
0.000852196
2.73846e-06
0.000851345
2.64273e-06
0.000850561
2.46114e-06
0.000849759
2.3907e-06
0.000848819
2.82531e-06
0.000847611
3.65878e-06
0.000846294
4.04554e-06
0.000844751
4.64812e-06
0.000843129
5.04171e-06
0.000841192
5.79469e-06
0.000839173
6.37259e-06
0.00083683
7.12965e-06
0.000833928
8.96434e-06
0.000831014
9.06156e-06
0.000827439
1.12635e-05
0.000823149
1.31234e-05
0.000818521
1.47915e-05
0.000813069
1.69832e-05
0.00080642
2.12113e-05
0.000798233
2.53736e-05
0.000789228
2.9166e-05
0.000775849
4.17107e-05
0.000770508
1.82911e-05
0.00054356
0.000827749
-0.00211772
0.00106675
0.00206542
0.00115538
-0.00233443
0.00159456
0.00165824
0.00123818
0.0012108
0.00109844
0.000470947
0.00104667
0.000184997
0.00101999
0.00010939
0.00101181
4.44533e-05
0.00101355
9.60994e-06
0.00102059
-8.54069e-06
0.0010309
-1.98892e-05
0.00104278
-2.42947e-05
0.00105438
-2.32941e-05
0.00106619
-2.47056e-05
0.0010756
-1.86519e-05
0.00108546
-2.59945e-05
0.00109297
-1.96599e-05
0.00110089
-2.41858e-05
0.00110786
-2.05537e-05
0.0011142
-1.94121e-05
0.00112018
-1.79184e-05
0.0011246
-1.22807e-05
0.00112882
-1.20734e-05
0.00113151
-6.15512e-06
0.00113362
-4.55057e-06
0.00113488
-1.32698e-06
0.00113532
1.45827e-06
0.00113548
2.26939e-06
0.00113466
5.99374e-06
0.00113367
6.35338e-06
0.00113201
8.89818e-06
0.00113009
9.57391e-06
0.00112777
1.09226e-05
0.00112517
1.19759e-05
0.00112232
1.26887e-05
0.00111913
1.38618e-05
0.00111577
1.42128e-05
0.00111204
1.54818e-05
0.00110819
1.56562e-05
0.00110397
1.6922e-05
0.00109964
1.69339e-05
0.00109472
1.88531e-05
0.00109691
-8.16311e-06
0.00110186
-1.79387e-05
0.00110241
-9.62884e-07
0.00110162
3.96449e-06
0.00110054
4.8038e-06
0.00109934
5.16506e-06
0.00109816
5.03814e-06
0.00109695
5.0889e-06
0.00109577
4.90204e-06
0.0010946
4.8166e-06
0.00109346
4.60949e-06
0.00109236
4.46634e-06
0.00109127
4.35074e-06
0.00109021
4.20074e-06
0.00108917
4.03861e-06
0.00108816
3.91084e-06
0.0010872
3.69876e-06
0.00108626
3.58761e-06
0.00108539
3.33536e-06
0.0010845
3.27892e-06
0.00108344
3.8817e-06
0.00108203
5.06526e-06
0.00108048
5.60376e-06
0.00107864
6.48233e-06
0.00107668
7.00557e-06
0.00107435
8.11864e-06
0.00107186
8.86815e-06
0.00106899
9.99642e-06
0.00106543
1.2523e-05
0.00106179
1.26975e-05
0.00105736
1.57081e-05
0.00105203
1.84386e-05
0.00104622
2.06181e-05
0.00103937
2.38232e-05
0.00103104
2.95626e-05
0.00102076
3.56303e-05
0.00100938
4.05795e-05
0.0009925
5.85533e-05
0.000985774
2.50813e-05
0.000741398
0.00107209
-0.00271501
0.00133861
0.00256951
0.00144792
-0.00286199
0.00199506
0.00223268
0.00154698
0.00165888
0.00136895
0.000648975
0.00130273
0.000251219
0.00126992
0.000142204
0.00125998
5.43905e-05
0.0012626
6.98589e-06
0.00127205
-1.79842e-05
0.00128571
-3.35466e-05
0.00130159
-4.0186e-05
0.00131724
-3.8933e-05
0.00133337
-4.08461e-05
0.00134662
-3.19001e-05
0.00136012
-3.94954e-05
0.00137058
-3.01178e-05
0.00138099
-3.45973e-05
0.00139021
-2.97692e-05
0.00139845
-2.76564e-05
0.00140623
-2.56952e-05
0.00141212
-1.81734e-05
0.00141766
-1.76134e-05
0.00142146
-9.94915e-06
0.00142445
-7.53839e-06
0.00142647
-3.34652e-06
0.00142741
5.13051e-07
0.00142802
1.6559e-06
0.00142747
6.54612e-06
0.00142666
7.16421e-06
0.00142506
1.04962e-05
0.00142313
1.15081e-05
0.00142073
1.33165e-05
0.00141796
1.47482e-05
0.0014149
1.57527e-05
0.00141143
1.73316e-05
0.00140777
1.78688e-05
0.00140368
1.95728e-05
0.00139944
1.9895e-05
0.00139478
2.15882e-05
0.00139
2.17117e-05
0.00138455
2.43033e-05
0.00138629
-9.9097e-06
0.00139136
-2.30073e-05
0.0013922
-1.80498e-06
0.00139143
4.74459e-06
0.00139027
5.96042e-06
0.00138897
6.4639e-06
0.00138768
6.33262e-06
0.00138635
6.41223e-06
0.00138506
6.19777e-06
0.00138377
6.10169e-06
0.00138253
5.84869e-06
0.00138132
5.67881e-06
0.00138013
5.53881e-06
0.00137897
5.36484e-06
0.00137784
5.16714e-06
0.00137673
5.01933e-06
0.00137568
4.74678e-06
0.00137464
4.62659e-06
0.00137369
4.29173e-06
0.00137271
4.25242e-06
0.00137154
5.05807e-06
0.00136991
6.69491e-06
0.00136808
7.43101e-06
0.0013659
8.65818e-06
0.00136355
9.36193e-06
0.00136076
1.09049e-05
0.00135771
1.19189e-05
0.00135421
1.34921e-05
0.00134988
1.68578e-05
0.00134537
1.72115e-05
0.0013399
2.1181e-05
0.00133332
2.50103e-05
0.00132607
2.78764e-05
0.00131752
3.23663e-05
0.00130716
3.99431e-05
0.00129433
4.84422e-05
0.00128007
5.48681e-05
0.00125892
7.96707e-05
0.00125045
3.35935e-05
0.000985362
0.00133715
-0.00339751
0.00166783
0.00317396
0.00175978
-0.00348585
0.00248132
0.00292532
0.00192236
0.00221784
0.00169806
0.000873277
0.00161404
0.000335239
0.00157375
0.000182498
0.0015618
6.63405e-05
0.00156558
3.20006e-06
0.00157804
-3.04377e-05
0.00159584
-5.13478e-05
0.00161667
-6.10178e-05
0.00163729
-5.9554e-05
0.00165875
-6.23147e-05
0.0016768
-4.99448e-05
0.00169496
-5.76576e-05
0.0017093
-4.4454e-05
0.00172303
-4.83323e-05
0.00173522
-4.1955e-05
0.00174597
-3.84117e-05
0.00175613
-3.58501e-05
0.00176397
-2.60124e-05
0.00177127
-2.49164e-05
0.00177654
-1.5217e-05
0.00178073
-1.17268e-05
0.00178377
-6.39239e-06
0.00178546
-1.16883e-06
0.00178672
3.90853e-07
0.00178659
6.67796e-06
0.00178609
7.66624e-06
0.00178465
1.19317e-05
0.00178278
1.33816e-05
0.00178035
1.57389e-05
0.00177745
1.76553e-05
0.00177419
1.90044e-05
0.00177045
2.10721e-05
0.00176649
2.18292e-05
0.00176203
2.40376e-05
0.00175739
2.45352e-05
0.00175225
2.6724e-05
0.00174699
2.69683e-05
0.00174097
3.0329e-05
0.00174223
-1.11718e-05
0.00174744
-2.8219e-05
0.00174862
-2.98921e-06
0.00174791
5.45646e-06
0.00174671
7.16844e-06
0.00174532
7.85252e-06
0.00174392
7.72458e-06
0.00174249
7.84146e-06
0.00174109
7.59938e-06
0.0017397
7.49333e-06
0.00173836
7.18866e-06
0.00173705
6.99108e-06
0.00173576
6.82143e-06
0.0017345
6.62557e-06
0.00173329
6.38188e-06
0.00173208
6.22635e-06
0.00173095
5.87623e-06
0.00172983
5.7524e-06
0.0017288
5.32077e-06
0.00172774
5.30573e-06
0.00172644
6.36197e-06
0.00172456
8.57108e-06
0.00172243
9.56646e-06
0.00171986
1.12273e-05
0.00171704
1.21764e-05
0.00171371
1.42394e-05
0.00171
1.56289e-05
0.00170576
1.7729e-05
0.00170049
2.21294e-05
0.00169492
2.27814e-05
0.00168821
2.78934e-05
0.00168011
3.31004e-05
0.00167112
3.68837e-05
0.0016605
4.29736e-05
0.00164766
5.27956e-05
0.00163173
6.43599e-05
0.00161395
7.26773e-05
0.00158761
0.000105977
0.00157692
4.43366e-05
0.00128507
0.00162898
-0.00417716
0.00206465
0.00389997
0.00208628
-0.00422641
0.00307365
0.00375164
0.0023812
0.00291029
0.00210062
0.00115385
0.00199442
0.000441436
0.00194487
0.000232046
0.00193051
8.07094e-05
0.00193573
-2.02275e-06
0.00195187
-4.65829e-05
0.00197476
-7.42379e-05
0.00200164
-8.78951e-05
0.00202838
-8.62916e-05
0.00205638
-9.03182e-05
0.00208036
-7.39272e-05
0.0021044
-8.1692e-05
0.00212371
-6.37681e-05
0.00214178
-6.63966e-05
0.00215781
-5.79877e-05
0.00217183
-5.24379e-05
0.00218506
-4.90762e-05
0.00219544
-3.63906e-05
0.00220504
-3.45197e-05
0.00221225
-2.24193e-05
0.00221803
-1.75112e-05
0.00222245
-1.08131e-05
0.00222515
-3.86888e-06
0.00222732
-1.77511e-06
0.0022278
6.19314e-06
0.00222778
7.69095e-06
0.00222664
1.30737e-05
0.00222492
1.50947e-05
0.00222254
1.81157e-05
0.00221956
2.06433e-05
0.00221616
2.24032e-05
0.00221216
2.50665e-05
0.00220791
2.60814e-05
0.00220307
2.88839e-05
0.00219801
2.9588e-05
0.00219239
3.23482e-05
0.00218663
3.27289e-05
0.00217999
3.69665e-05
0.00218071
-1.18919e-05
0.00218606
-3.35697e-05
0.00218765
-4.57996e-06
0.00218707
6.03973e-06
0.00218585
8.39285e-06
0.00218439
9.3088e-06
0.00218292
9.19706e-06
0.00218139
9.36294e-06
0.0021799
9.09427e-06
0.00217841
8.97995e-06
0.00217698
8.61931e-06
0.00217558
8.39249e-06
0.00217422
8.18811e-06
0.00217287
7.97385e-06
0.00217157
7.6743e-06
0.00217028
7.52156e-06
0.00216908
7.07382e-06
0.00216787
6.95917e-06
0.00216679
6.40729e-06
0.00216566
6.42936e-06
0.00216423
7.79673e-06
0.00216208
1.07221e-05
0.00215959
1.20522e-05
0.00215657
1.42537e-05
0.00215321
1.553e-05
0.00214923
1.82246e-05
0.00214474
2.01191e-05
0.00213961
2.28545e-05
0.00213322
2.85236e-05
0.00212637
2.96298e-05
0.00211817
3.60996e-05
0.00210823
4.30347e-05
0.0020971
4.80141e-05
0.00208398
5.60938e-05
0.00206813
6.86524e-05
0.00204842
8.40662e-05
0.00202633
9.47747e-05
0.00199368
0.000138614
0.00198013
5.79106e-05
0.00165516
0.00195393
-0.00506593
0.00254393
0.00477294
0.00242141
-0.0051081
0.00379614
0.00472844
0.00294373
0.00376269
0.00259461
0.00150298
0.00246057
0.000575473
0.00239946
0.000293159
0.00238207
9.80972e-05
0.00238901
-8.96129e-06
0.00240963
-6.72098e-05
0.00243873
-0.000103331
0.00247298
-0.000122151
0.0025072
-0.000120511
0.00254321
-0.000126322
0.0025745
-0.000105217
0.00260584
-0.000113042
0.00263146
-8.93813e-05
0.00265508
-9.00219e-05
0.00267605
-7.89517e-05
0.00269428
-7.06732e-05
0.00271145
-6.62391e-05
0.0027251
-5.00416e-05
0.00273767
-4.70948e-05
0.00274738
-3.21266e-05
0.00275526
-2.53927e-05
0.00276149
-1.7043e-05
0.00276557
-7.94806e-06
0.00276896
-5.16175e-06
0.00277031
4.83949e-06
0.00277098
7.01778e-06
0.00277031
1.37517e-05
0.00276889
1.65069e-05
0.00276667
2.0338e-05
0.00276368
2.36291e-05
0.0027602
2.58893e-05
0.00275599
2.92756e-05
0.00275147
3.05975e-05
0.00274625
3.4105e-05
0.00274079
3.50487e-05
0.00273467
3.84704e-05
0.00272839
3.90041e-05
0.00272112
4.42398e-05
0.00272122
-1.1996e-05
0.00272669
-3.9036e-05
0.00272876
-6.64915e-06
0.00272838
6.41559e-06
0.00272719
9.58211e-06
0.0027257
1.07988e-05
0.00272417
1.07218e-05
0.00272258
1.0953e-05
0.00272102
1.06575e-05
0.00271946
1.05428e-05
0.00271796
1.01162e-05
0.00271649
9.86368e-06
0.00271506
9.61751e-06
0.00271364
9.3945e-06
0.00271229
9.02412e-06
0.00271092
8.88876e-06
0.00270967
8.32192e-06
0.0027084
8.22779e-06
0.00270728
7.5309e-06
0.0027061
7.60733e-06
0.00270454
9.35865e-06
0.00270208
1.31764e-05
0.0026992
1.49357e-05
0.00269564
1.78092e-05
0.00269166
1.95138e-05
0.00268691
2.29783e-05
0.00268149
2.55405e-05
0.0026753
2.90361e-05
0.00266756
3.62687e-05
0.00265917
3.80173e-05
0.00264916
4.61144e-05
0.00263699
5.51958e-05
0.00262328
6.17325e-05
0.00260711
7.22633e-05
0.0025876
8.81718e-05
0.00256328
0.000108375
0.00253595
0.000122118
0.00249562
0.000178932
0.00247836
7.52062e-05
0.00211479
0.00231749
-0.00607551
0.00312431
0.00582319
0.00275765
-0.00615937
0.00467772
0.00587391
0.00363463
0.00480578
0.00320211
0.0019355
0.00303295
0.000744633
0.00295725
0.000368851
0.00293602
0.000119331
0.00294494
-1.78812e-05
0.00297096
-9.32279e-05
0.00300757
-0.000139945
0.0030508
-0.000165373
0.00309413
-0.00016385
0.0031399
-0.000172087
0.00318015
-0.000145465
0.00322055
-0.000153447
0.00325406
-0.000122889
0.00328474
-0.000120701
0.00331197
-0.000106185
0.00333558
-9.42853e-05
0.00335776
-8.84099e-05
0.0033756
-6.78832e-05
0.00339198
-6.34751e-05
0.00340491
-4.506e-05
0.00341551
-3.59959e-05
0.00342411
-2.56354e-05
0.00343002
-1.38607e-05
0.00343503
-1.01754e-05
0.00343758
2.28958e-06
0.00343924
5.36019e-06
0.00343925
1.37401e-05
0.00343832
1.74349e-05
0.0034364
2.22578e-05
0.00343353
2.65009e-05
0.00343005
2.93721e-05
0.00342569
3.36379e-05
0.00342096
3.53282e-05
0.00341539
3.96728e-05
0.00340954
4.08966e-05
0.00340293
4.5086e-05
0.00339614
4.5791e-05
0.00338822
5.21587e-05
0.00338763
-1.14029e-05
0.00339316
-4.45717e-05
0.00339578
-9.26279e-06
0.00339571
6.48727e-06
0.00339462
1.06677e-05
0.00339314
1.22739e-05
0.00339161
1.22584e-05
0.00338999
1.25751e-05
0.00338839
1.22572e-05
0.00338678
1.21497e-05
0.00338525
1.1649e-05
0.00338374
1.1375e-05
0.00338227
1.10787e-05
0.00338081
1.08596e-05
0.00337943
1.04045e-05
0.00337802
1.03014e-05
0.00337675
9.59002e-06
0.00337544
9.53701e-06
0.00337431
8.66097e-06
0.0033731
8.81404e-06
0.00337142
1.10402e-05
0.00336864
1.59607e-05
0.00336531
1.82668e-05
0.00336114
2.1977e-05
0.00335642
2.42363e-05
0.00335075
2.864e-05
0.00334423
3.20681e-05
0.00333678
3.64815e-05
0.00332742
4.56316e-05
0.00331717
4.8264e-05
0.00330498
5.83105e-05
0.00329012
7.00545e-05
0.00327327
7.85854e-05
0.00325338
9.21459e-05
0.00322942
0.000112135
0.0031995
0.000138289
0.00316579
0.000155843
0.00311612
0.00022859
0.00309399
9.73537e-05
0.00268797
0.00272349
-0.00721581
0.00382828
0.00708705
0.00308425
-0.00741369
0.00575356
0.0072074
0.00448413
0.00607522
0.00395044
0.00246919
0.00373686
0.000958218
0.00364264
0.000463064
0.00361641
0.000145567
0.00362755
-2.90194e-05
0.00365999
-0.000125675
0.00370567
-0.000185627
0.00375976
-0.000219456
0.00381416
-0.000218258
0.00387181
-0.000229736
0.003923
-0.000196647
0.00397454
-0.000204992
0.00401786
-0.00016621
0.00405742
-0.000160257
0.00409256
-0.00014133
0.00412299
-0.000124714
0.0041515
-0.000116921
0.00417467
-9.10539e-05
0.0041959
-8.47033e-05
0.00421296
-6.21192e-05
0.00422707
-5.01104e-05
0.00423872
-3.72823e-05
0.00424704
-2.21818e-05
0.0042542
-1.73382e-05
0.00425837
-1.87342e-06
0.00426138
2.35052e-06
0.00426237
1.27443e-05
0.00426218
1.763e-05
0.00426076
2.36723e-05
0.00425816
2.91e-05
0.00425481
3.27186e-05
0.00425039
3.80602e-05
0.00424553
4.01914e-05
0.00423967
4.55347e-05
0.00423348
4.70842e-05
0.0042264
5.21689e-05
0.00421912
5.30652e-05
0.00421058
6.0705e-05
0.00420921
-1.00333e-05
0.00421474
-5.01083e-05
0.00421796
-1.24864e-05
0.00421832
6.13502e-06
0.00421743
1.15569e-05
0.00421604
1.36642e-05
0.00421455
1.37463e-05
0.00421295
1.41749e-05
0.00421136
1.38417e-05
0.00420976
1.37514e-05
0.00420824
1.31689e-05
0.00420674
1.288e-05
0.00420529
1.25259e-05
0.00420382
1.2328e-05
0.00420245
1.17679e-05
0.00420103
1.17217e-05
0.00419979
1.08334e-05
0.00419848
1.08461e-05
0.00419739
9.75547e-06
0.00419619
1.00105e-05
0.00419441
1.28187e-05
0.00419127
1.91001e-05
0.00418744
2.21014e-05
0.00418257
2.68468e-05
0.00417698
2.982e-05
0.00417025
3.53693e-05
0.00416241
3.99106e-05
0.00415346
4.54314e-05
0.00414216
5.6934e-05
0.00412968
6.07436e-05
0.00411485
7.3143e-05
0.00409673
8.81668e-05
0.00407608
9.92434e-05
0.00405169
0.000116529
0.00402233
0.000141503
0.00398562
0.000174995
0.00394412
0.000197351
0.00388316
0.000289543
0.00385454
0.000126003
0.00340489
0.00317314
-0.00849407
0.0046831
0.0086085
0.00338654
-0.00891074
0.00706676
0.00874914
0.00552944
0.00761253
0.00487359
0.00312505
0.00460373
0.00122807
0.00448582
0.000580977
0.00445298
0.000178411
0.00446649
-4.25345e-05
0.00450653
-0.000165717
0.00456308
-0.000242173
0.00463026
-0.000286637
0.00469806
-0.000286054
0.00477012
-0.000301798
0.00483459
-0.000261122
0.00489978
-0.000270174
0.00495521
-0.000221645
0.00500584
-0.000210885
0.00505091
-0.000186397
0.00508992
-0.00016373
0.00512642
-0.000153417
0.00515633
-0.000120963
0.0051837
-0.000112074
0.005206
-8.44243e-05
0.00522461
-6.87154e-05
0.00524018
-5.28585e-05
0.00525164
-3.36378e-05
0.00526161
-2.7304e-05
0.00526792
-8.18634e-06
0.00527275
-2.47913e-06
0.00527512
1.03778e-05
0.00527598
1.67703e-05
0.00527533
2.43161e-05
0.00527322
3.12123e-05
0.00527018
3.57533e-05
0.00526584
4.24035e-05
0.00526096
4.5069e-05
0.0052549
5.16021e-05
0.00524844
5.35359e-05
0.00524095
5.96606e-05
0.00523325
6.07713e-05
0.00522412
6.98303e-05
0.00522191
-7.81873e-06
0.00522735
-5.55536e-05
0.00523123
-1.63683e-05
0.00523215
5.22037e-06
0.00523158
1.21278e-05
0.00523037
1.4875e-05
0.00522901
1.51006e-05
0.00522751
1.568e-05
0.00522601
1.53362e-05
0.00522448
1.52843e-05
0.00522305
1.46057e-05
0.00522161
1.43156e-05
0.00522024
1.38918e-05
0.00521883
1.37389e-05
0.00521755
1.30539e-05
0.00521618
1.30913e-05
0.00521502
1.19906e-05
0.00521376
1.21019e-05
0.00521277
1.075e-05
0.00521164
1.11427e-05
0.0052098
1.46603e-05
0.00520628
2.26157e-05
0.00520189
2.64897e-05
0.00519622
3.25237e-05
0.00518963
3.64027e-05
0.00518165
4.33544e-05
0.00517225
4.93103e-05
0.00516151
5.61748e-05
0.00514789
7.05516e-05
0.00513272
7.59094e-05
0.00511472
9.1146e-05
0.00509268
0.000110208
0.00506742
0.000124499
0.00503758
0.00014637
0.00500167
0.000177415
0.00495672
0.000219946
0.00490577
0.000248302
0.00483116
0.00036415
0.00479382
0.00016335
0.00430355
0.00366341
-0.00991259
0.00572207
0.010441
0.00364314
-0.0106976
0.00867027
0.0105198
0.00681653
0.00946627
0.00601386
0.00392771
0.00567274
0.00156919
0.00552432
0.000729396
0.00548264
0.000220097
0.00549854
-5.84328e-05
0.00554745
-0.000214635
0.00561694
-0.000311659
0.00569985
-0.000369544
0.00578376
-0.000369967
0.00587325
-0.000391286
0.00595381
-0.000341684
0.00603561
-0.000351979
0.00610591
-0.00029194
0.00617025
-0.000275233
0.00622768
-0.000243817
0.00627744
-0.000213496
0.00632393
-0.00019991
0.00636232
-0.000159349
0.00639743
-0.000147183
0.00642637
-0.000113363
0.00645069
-9.30392e-05
0.00647128
-7.34453e-05
0.00648678
-4.91383e-05
0.00650038
-4.09015e-05
0.00650951
-1.73209e-05
0.00651676
-9.7325e-06
0.00652099
6.15278e-06
0.00652333
1.4434e-05
0.0065238
2.38391e-05
0.00652246
3.25513e-05
0.00651998
3.82308e-05
0.00651591
4.64753e-05
0.00651119
4.97902e-05
0.00650505
5.77431e-05
0.00649846
6.01274e-05
0.00649065
6.74661e-05
0.00648261
6.88152e-05
0.006473
7.94421e-05
0.0064699
-4.72016e-06
0.00647515
-6.0802e-05
0.00647972
-2.09431e-05
0.00648135
3.58772e-06
0.00648126
1.22239e-05
0.00648036
1.57732e-05
0.00647925
1.62066e-05
0.00647795
1.69847e-05
0.00647664
1.66379e-05
0.00647528
1.66508e-05
0.00647402
1.58625e-05
0.00647274
1.55909e-05
0.00647156
1.50805e-05
0.00647029
1.50084e-05
0.00646917
1.41689e-05
0.00646793
1.43313e-05
0.00646695
1.29717e-05
0.00646582
1.32256e-05
0.00646502
1.15585e-05
0.00646403
1.21322e-05
0.00646218
1.65114e-05
0.00645827
2.65166e-05
0.00645328
3.14842e-05
0.00644669
3.91146e-05
0.00643895
4.41386e-05
0.0064295
5.28074e-05
0.00641826
6.05479e-05
0.00640539
6.90452e-05
0.00638901
8.69326e-05
0.00637063
9.42886e-05
0.00634881
0.000112969
0.00632204
0.00013697
0.00629124
0.000155307
0.0062548
0.000182807
0.00621097
0.000221253
0.00615605
0.000274858
0.00609364
0.000310724
0.0060026
0.000455173
0.00595345
0.000212526
0.00543225
0.00418462
-0.0114667
0.00698629
0.0126496
0.00382362
-0.01283
0.0106293
0.01254
0.00840219
0.0116934
0.0074241
0.00490581
0.00699286
0.00200043
0.00680495
0.000917313
0.0067513
0.000273749
0.00676934
-7.64742e-05
0.0068285
-0.000273794
0.00691328
-0.000396443
0.00701497
-0.000471235
0.0071182
-0.000473193
0.00722867
-0.000501762
0.00732862
-0.000441633
0.00743059
-0.000453947
0.00751901
-0.000380355
0.00760023
-0.000356455
0.00767293
-0.000316518
0.00773606
-0.000276623
0.007795
-0.000258855
0.00784398
-0.000208331
0.00788879
-0.000191989
0.00792607
-0.00015064
0.00795761
-0.000124585
0.00798456
-0.000100389
0.00800523
-6.98155e-05
0.00802349
-5.91579e-05
0.00803629
-3.01247e-05
0.00804672
-2.01621e-05
0.00805343
-5.5549e-07
0.00805778
1.00857e-05
0.00805983
2.17903e-05
0.00805964
3.27457e-05
0.00805804
3.98306e-05
0.00805449
5.00173e-05
0.00805016
5.41213e-05
0.00804414
6.37706e-05
0.00803758
6.66823e-05
0.00802961
7.54382e-05
0.00802137
7.70526e-05
0.00801142
8.93919e-05
0.00800744
-7.42056e-07
0.00801238
-6.57408e-05
0.00801765
-2.62123e-05
0.00802017
1.0673e-06
0.00802075
1.16489e-05
0.00802033
1.61907e-05
0.00801963
1.6909e-05
0.00801867
1.79477e-05
0.00801769
1.7612e-05
0.00801662
1.77218e-05
0.00801567
1.68087e-05
0.00801469
1.65803e-05
0.0080138
1.59652e-05
0.00801279
1.60186e-05
0.00801197
1.49892e-05
0.00801097
1.53288e-05
0.00801029
1.36568e-05
0.00800941
1.41085e-05
0.0080089
1.2063e-05
0.00800816
1.28727e-05
0.00800638
1.82901e-05
0.0080021
3.07985e-05
0.00799646
3.71274e-05
0.00798883
4.67386e-05
0.00797977
5.31979e-05
0.00796861
6.39706e-05
0.00795521
7.39476e-05
0.00793982
8.44359e-05
0.00792015
0.000106599
0.00789793
0.000116508
0.00787154
0.000139366
0.0078391
0.00016941
0.00780161
0.000192795
0.00775721
0.000227207
0.00770381
0.000274655
0.00763686
0.000341803
0.00756057
0.000387015
0.00744985
0.000565896
0.00738467
0.000277704
0.00685321
0.00471607
-0.0131408
0.00852737
0.015314
0.00388345
-0.0153739
0.0130246
0.0148295
0.0103569
0.014361
0.00917039
0.00609234
0.00862549
0.00254533
0.00838621
0.00115659
0.00831624
0.000343724
0.00833576
-9.59935e-05
0.00840654
-0.00034458
0.00850926
-0.000499162
0.00863327
-0.000595241
0.00875952
-0.000599445