/*--------------------------------*- C++ -*----------------------------------*\
| =========                 |                                                 |
| \\      /  F ield         | OpenFOAM: The Open Source CFD Toolbox           |
|  \\    /   O peration     | Version:  5.x                                   |
|   \\  /    A nd           | Web:      www.OpenFOAM.org                      |
|    \\/     M anipulation  |                                                 |
\*---------------------------------------------------------------------------*/
FoamFile
{
    version     2.0;
    format      ascii;
    class       volVectorField;
    location    "850";
    object      U;
}
// * * * * * * * * * * * * * * * * * * * * * * * * * * * * * * * * * * * * * //

dimensions      [0 1 -1 0 0 0 0];

internalField   nonuniform List<vector> 
11040
(
(-3.52963 22.5312 0)
(-0.130557 28.3498 -1.72143e-19)
(5.88826 32.0308 1.67631e-17)
(11.6869 31.5814 1.96512e-17)
(16.369 29.212 4.34503e-17)
(19.8286 25.8821 -2.14032e-17)
(22.1831 22.1551 -2.13019e-17)
(23.6088 18.3939 2.17608e-17)
(24.2747 14.8311 4.95055e-17)
(24.2683 11.5547 1.61509e-18)
(23.2726 8.30514 2.44468e-17)
(21.6983 5.61156 -1.31859e-18)
(20.4052 3.92326 2.1049e-17)
(19.7059 3.00808 1.98927e-17)
(19.1032 2.28091 1.58331e-17)
(18.3169 1.57603 9.32214e-18)
(17.373 0.937012 -7.30624e-18)
(16.3627 0.389204 -6.01372e-19)
(15.3141 -0.0720995 6.25708e-19)
(14.2251 -0.452198 3.29942e-18)
(13.0849 -0.753739 2.18565e-18)
(12.0438 -0.950182 1.23922e-18)
(11.1006 -1.06885 3.81295e-19)
(10.1508 -1.14251 -1.56501e-19)
(9.18976 -1.1756 -6.74075e-20)
(8.21525 -1.17049 2.22437e-19)
(7.22313 -1.13005 -1.93366e-17)
(6.20789 -1.05848 4.38791e-19)
(5.15934 -0.956638 -3.46202e-17)
(4.08226 -0.817307 4.42314e-17)
(3.02277 -0.645156 8.67373e-19)
(1.98698 -0.456583 6.0566e-19)
(1.01825 -0.259973 -7.62274e-19)
(0.14148 -0.0679504 0)
(-0.586114 0.111056 2.80037e-16)
(-1.11089 0.278673 0)
(-1.76423 0.508179 0)
(-2.77122 0.755903 -3.25231e-19)
(-3.80153 0.799346 3.1332e-19)
(-4.14819 0.310278 -1.25996e-16)
(-2.60913 -0.450612 -1.54064e-16)
(0.135636 21.9581 0)
(4.0356 26.3623 0)
(11.3232 28.3535 -9.88624e-18)
(17.7257 27.6558 1.07683e-17)
(22.5234 25.8075 -2.69369e-17)
(26.0743 23.671 2.8393e-17)
(28.6051 21.2719 1.37278e-17)
(30.2077 18.6447 1.80784e-18)
(30.9968 15.8828 -1.06763e-18)
(31.112 13.1152 1.55507e-17)
(30.4619 10.2216 -1.75479e-18)
(28.8884 7.68148 0)
(26.9539 5.84341 0)
(25.2684 4.5366 -1.04911e-17)
(23.9063 3.38124 -1.06702e-17)
(22.6217 2.3823 -7.34948e-18)
(21.3447 1.55737 0)
(20.0782 0.872782 3.40454e-19)
(18.8095 0.301759 -9.19909e-19)
(17.5223 -0.166406 -4.46746e-19)
(16.2023 -0.538162 -1.36863e-18)
(14.9977 -0.792357 -6.71817e-19)
(13.9307 -0.957248 1.9525e-20)
(12.8727 -1.06903 -9.62702e-19)
(11.8133 -1.1332 1.93267e-18)
(10.7453 -1.15353 2.16499e-19)
(9.66137 -1.13394 9.30577e-18)
(8.55433 -1.07745 -2.05105e-19)
(7.42147 -0.986611 1.55257e-17)
(6.25991 -0.862462 -1.89142e-17)
(5.06352 -0.707322 -2.30488e-17)
(3.85423 -0.530026 2.78005e-17)
(2.66302 -0.342549 2.26237e-20)
(1.53594 -0.155194 -8.91366e-19)
(0.532058 0.0249398 -4.62956e-17)
(-0.279321 0.196311 0)
(-1.16993 0.447441 -3.75985e-19)
(-2.1447 0.743816 8.19375e-17)
(-2.69852 0.922961 7.24644e-17)
(-2.34266 0.537823 6.73661e-17)
(-1.8925 -0.782021 1.10559e-16)
(2.04515 21.222 0)
(5.7091 24.5868 0)
(10.8714 26.5216 2.72469e-18)
(15.8306 26.7992 -7.74089e-18)
(19.955 25.8206 8.26107e-18)
(23.4087 24.0614 -1.04971e-17)
(26.2513 21.819 -8.48314e-18)
(28.4405 19.3005 0)
(29.9631 16.6507 -1.3737e-17)
(30.8604 13.9757 -8.13734e-18)
(31.094 11.203 0)
(30.466 8.72979 0)
(29.2564 6.81986 -8.45098e-18)
(27.9334 5.35677 -7.66699e-18)
(26.6381 4.04835 -8.15525e-19)
(25.2977 2.91109 8.41916e-19)
(23.9133 1.9609 0)
(22.5258 1.1683 0)
(21.1429 0.508104 2.23372e-19)
(19.7519 -0.0328124 -2.73183e-19)
(18.3374 -0.463287 2.78245e-19)
(17.0509 -0.767815 -4.24947e-19)
(15.9139 -0.966708 -1.02013e-19)
(14.7926 -1.10412 -5.27151e-19)
(13.6765 -1.1881 -8.50431e-20)
(12.5577 -1.2236 -1.43981e-19)
(11.428 -1.21508 -9.04823e-20)
(10.2795 -1.16597 2.28266e-19)
(9.10632 -1.07931 0)
(7.90408 -0.95797 0)
(6.66962 -0.806128 2.76363e-17)
(5.41236 -0.632147 -3.16487e-17)
(4.15325 -0.447086 1.79927e-17)
(2.92936 -0.263136 0)
(1.78705 -0.0876159 2.40997e-17)
(0.806827 0.0919701 2.79713e-17)
(-0.128368 0.331416 0)
(-1.01423 0.542779 2.82067e-19)
(-1.52236 0.593139 -1.96296e-19)
(-1.32866 0.143869 0)
(-1.71054 -1.25532 -5.24453e-17)
(3.92898 20.3349 5.32587e-20)
(7.35589 22.9736 -4.93881e-20)
(11.3887 24.5984 7.86363e-19)
(15.6975 25.0249 0)
(19.5745 24.3301 -9.70902e-18)
(22.8387 22.9063 0)
(25.5041 21.0138 1.92986e-17)
(27.5704 18.8145 -6.30295e-20)
(29.0578 16.448 1.93523e-18)
(30.0214 14.0308 1.297e-17)
(30.4733 11.5317 1.91153e-18)
(30.2899 9.21907 5.26727e-18)
(29.6047 7.35299 1.49973e-17)
(28.7372 5.89465 6.09323e-18)
(27.8135 4.59273 0)
(26.7641 3.42136 -1.11858e-18)
(25.5769 2.40528 1.95809e-19)
(24.3021 1.53675 -7.57898e-19)
(22.9728 0.800694 -3.02443e-19)
(21.5987 0.188601 3.08028e-19)
(20.1788 -0.304962 6.70618e-19)
(18.8754 -0.658511 3.86146e-19)
(17.7158 -0.894485 0)
(16.569 -1.06297 1.02961e-18)
(15.427 -1.17279 -1.19717e-18)
(14.2833 -1.22952 1.72823e-18)
(13.1306 -1.23809 -4.72398e-18)
(11.9613 -1.20251 0)
(10.7688 -1.12634 0)
(9.5478 -1.01343 0)
(8.2952 -0.868938 -9.98045e-18)
(7.01415 -0.701205 1.17457e-17)
(5.71642 -0.521707 -4.12299e-19)
(4.42649 -0.343895 -1.49332e-17)
(3.17726 -0.175549 -1.5766e-17)
(2.04924 0.00331578 -1.86178e-17)
(1.0419 0.226954 -4.02109e-17)
(0.163734 0.383014 -4.12038e-17)
(-0.463527 0.366367 -1.61564e-19)
(-0.451217 -0.0808301 -3.7155e-17)
(-1.43608 -1.45726 2.16405e-17)
(5.7903 19.32 0)
(8.81551 21.3897 -4.51547e-20)
(12.0401 22.717 -4.73085e-19)
(15.5821 23.283 3.07303e-19)
(18.9644 22.988 7.17023e-18)
(21.9547 22.0104 -7.78261e-18)
(24.5218 20.5078 -1.89701e-18)
(26.6049 18.6144 -9.96071e-18)
(28.1617 16.4778 0)
(29.2135 14.2313 -1.20155e-17)
(29.7828 11.8909 0)
(29.8077 9.66584 -3.01796e-18)
(29.3776 7.80382 -7.94593e-18)
(28.7454 6.32176 0)
(28.0596 5.02349 4.2008e-18)
(27.2775 3.85011 0)
(26.3588 2.81576 0)
(25.3221 1.91631 7.86031e-19)
(24.1889 1.13867 6.39337e-19)
(22.9686 0.477254 0)
(21.6643 -0.0681133 -5.46496e-19)
(20.4382 -0.467808 0)
(19.3269 -0.74232 0)
(18.2142 -0.944823 -3.69966e-19)
(17.0968 -1.08415 0)
(15.9713 -1.16617 1.34594e-18)
(14.8327 -1.19613 3.67771e-18)
(13.6752 -1.17844 0)
(12.4929 -1.11721 0)
(11.2807 -1.01695 0)
(10.0354 -0.883568 8.15304e-18)
(8.75662 -0.725917 7.87323e-18)
(7.44898 -0.556084 -9.476e-18)
(6.1254 -0.387905 -3.25399e-19)
(4.80412 -0.230869 3.73659e-19)
(3.55056 -0.0658156 0)
(2.4308 0.132059 2.96007e-17)
(1.48934 0.251173 -3.15689e-17)
(0.695167 0.194229 3.34876e-17)
(0.46606 -0.198662 3.46784e-17)
(-0.871402 -1.47922 4.00245e-20)
(7.50322 18.2219 -1.36212e-19)
(10.0995 19.8391 6.61142e-20)
(12.7214 20.91 3.12265e-20)
(15.5999 21.5179 2.84116e-19)
(18.4933 21.4902 -1.149e-18)
(21.1784 20.8712 7.63035e-18)
(23.5827 19.7551 -9.4639e-18)
(25.6267 18.2289 8.15336e-18)
(27.2345 16.4067 3.99097e-18)
(28.3891 14.4078 -2.04989e-18)
(29.097 12.2718 0)
(29.3101 10.1622 0)
(29.0763 8.30519 1.85374e-18)
(28.5914 6.77189 -1.95506e-18)
(28.0186 5.44305 -6.67877e-18)
(27.3706 4.25403 1.40107e-18)
(26.6186 3.20348 -2.66093e-18)
(25.7687 2.28597 1.42806e-19)
(24.8313 1.48633 -7.88991e-19)
(23.806 0.796345 1.36696e-18)
(22.6865 0.216472 -1.17303e-18)
(21.6118 -0.218697 2.57182e-19)
(20.6186 -0.526047 -7.857e-20)
(19.6081 -0.760199 1.20207e-19)
(18.5796 -0.929276 -8.08933e-19)
(17.5319 -1.03873 -1.43294e-20)
(16.4623 -1.09343 -3.38545e-18)
(15.3667 -1.09773 -3.29098e-18)
(14.2409 -1.05587 0)
(13.0805 -0.972682 0)
(11.882 -0.854523 -5.66957e-18)
(10.6436 -0.710619 -1.40055e-17)
(9.3653 -0.553439 -4.83672e-19)
(8.05122 -0.397059 8.38602e-18)
(6.70671 -0.253201 9.82795e-18)
(5.37403 -0.109985 -1.058e-17)
(4.13544 0.050765 3.5016e-19)
(3.07482 0.137153 4.8667e-17)
(2.10708 0.0533302 -5.29834e-17)
(1.5586 -0.272892 1.15276e-19)
(0.0991228 -1.35388 2.08647e-17)
(9.04464 17.08 0)
(11.2398 18.3372 -2.46817e-19)
(13.3918 19.1968 -1.33702e-19)
(15.7247 19.7784 1.61817e-19)
(18.1439 19.9153 1.56548e-18)
(20.4835 19.5798 2.72638e-18)
(22.6658 18.8075 -6.2032e-18)
(24.61 17.6418 2.35351e-18)
(26.2246 16.1592 0)
(27.4644 14.454 2.99517e-18)
(28.3175 12.5724 -5.95974e-18)
(28.7328 10.6376 5.98451e-18)
(28.7143 8.83899 -2.47961e-19)
(28.3942 7.28081 0)
(27.9251 5.91711 1.44932e-18)
(27.3627 4.70036 1.68224e-19)
(26.7038 3.62157 1.13422e-18)
(25.9583 2.67728 9.08216e-19)
(25.1417 1.85391 -3.54827e-19)
(24.2571 1.14054 -3.85792e-19)
(23.2969 0.535113 5.62018e-19)
(22.3748 0.0741573 2.90922e-19)
(21.5195 -0.257734 0)
(20.6446 -0.516926 1.95736e-19)
(19.7482 -0.7113 7.15317e-19)
(18.8283 -0.845965 -9.89883e-19)
(17.8817 -0.925285 9.20068e-19)
(16.9047 -0.95322 3.01444e-18)
(15.893 -0.93375 -4.79449e-19)
(14.8419 -0.871586 -5.77821e-20)
(13.7473 -0.773064 -3.55197e-18)
(12.6053 -0.647267 -1.2773e-18)
(11.4126 -0.506485 -5.15884e-18)
(10.1673 -0.364699 0)
(8.86556 -0.235295 -7.1008e-18)
(7.52737 -0.116278 8.28129e-18)
(6.21564 0.00140743 -8.78093e-18)
(5.02494 0.0533051 -3.70871e-17)
(3.88879 -0.0491635 2.01407e-17)
(3.02494 -0.314072 9.0991e-20)
(1.4895 -1.14569 -4.40962e-17)
(10.4061 15.9272 8.94751e-19)
(12.249 16.9003 -2.43796e-19)
(14.0255 17.5872 -2.25307e-19)
(15.9207 18.1061 -3.41918e-19)
(17.9129 18.3243 -1.14045e-18)
(19.8996 18.1889 -3.38029e-18)
(21.8192 17.6979 3.6533e-18)
(23.6027 16.8601 4.97092e-18)
(25.1617 15.7148 -3.5312e-18)
(26.4374 14.3248 0)
(27.4041 12.7308 -2.14906e-18)
(28.0058 11.0223 3.74071e-20)
(28.2111 9.34657 -9.36358e-20)
(28.0902 7.81547 2.0151e-18)
(27.7636 6.43975 1.86528e-18)
(27.3056 5.20259 -1.93325e-18)
(26.7359 4.09607 0)
(26.0706 3.11961 0)
(25.3315 2.26559 1.2838e-18)
(24.5317 1.52418 -1.07723e-18)
(23.6722 0.892106 1.42591e-19)
(22.8553 0.407179 -3.04973e-19)
(22.1055 0.0539177 -2.67087e-20)
(21.346 -0.226119 0)
(20.5744 -0.44116 2.87612e-19)
(19.7878 -0.596702 -2.93926e-19)
(18.9824 -0.697212 -9.66941e-19)
(18.1534 -0.746618 0)
(17.2955 -0.748796 0)
(16.403 -0.708287 4.38055e-19)
(15.4694 -0.631164 3.8363e-18)
(14.4878 -0.525998 3.70969e-18)
(13.4507 -0.404386 8.59382e-18)
(12.3504 -0.279756 6.10268e-19)
(11.1756 -0.166088 0)
(9.92972 -0.0697257 -3.68879e-19)
(8.64367 0.00753333 6.76501e-18)
(7.38701 0.0238201 -3.09657e-20)
(6.12499 -0.0916062 1.55827e-17)
(5.00941 -0.323057 1.70984e-17)
(3.37139 -0.90497 2.03087e-17)
(11.5923 14.7919 -5.4967e-19)
(13.1358 15.5424 -5.79488e-21)
(14.6082 16.0883 4.80829e-19)
(16.1537 16.5308 -7.15919e-19)
(17.7809 16.7725 0)
(19.4347 16.7621 1.03627e-18)
(21.0771 16.4798 -1.92526e-18)
(22.6578 15.9138 -3.02166e-18)
(24.1032 15.0749 2.17968e-18)
(25.3546 13.9963 2.8589e-18)
(26.3798 12.7041 1.85631e-19)
(27.1217 11.2579 -5.81553e-18)
(27.5266 9.76304 0)
(27.6145 8.32001 1.32016e-18)
(27.4641 6.97367 -3.08681e-18)
(27.1454 5.73985 -1.2896e-18)
(26.6915 4.62038 -1.12995e-18)
(26.1238 3.61905 1.16754e-18)
(25.4664 2.73493 -4.18433e-19)
(24.7392 1.96241 0)
(23.9519 1.30005 4.4494e-19)
(23.2042 0.7884 -5.89859e-19)
(22.5222 0.411798 -4.22993e-20)
(21.8387 0.109965 -1.0967e-19)
(21.1539 -0.125563 4.6978e-19)
(20.4669 -0.300873 -4.79575e-19)
(19.7755 -0.420893 0)
(19.0764 -0.48988 2.44262e-18)
(18.3652 -0.51194 1.13502e-18)
(17.6365 -0.491679 6.24051e-19)
(16.8835 -0.434996 -2.95696e-18)
(16.0975 -0.349914 -8.50325e-19)
(15.2677 -0.247154 8.13277e-19)
(14.3807 -0.139368 -4.91691e-19)
(13.4187 -0.0404732 -3.07919e-18)
(12.3715 0.0381572 -5.45823e-19)
(11.2415 0.0861781 0)
(10.0571 0.0743238 1.0477e-17)
(8.78599 -0.0467197 -1.14247e-17)
(7.55255 -0.263471 -1.24806e-17)
(5.83604 -0.664106 0)
(12.6144 13.6969 0)
(13.9075 14.2741 0)
(15.132 14.7048 0)
(16.3978 15.0699 2.12064e-18)
(17.7229 15.3005 -7.34015e-19)
(19.0814 15.3564 1.44416e-19)
(20.4556 15.2147 -1.76956e-19)
(21.8143 14.8548 -4.25431e-19)
(23.1037 14.2713 1.19899e-18)
(24.2748 13.4741 1.81175e-18)
(25.2967 12.4743 -1.77118e-18)
(26.1163 11.3044 2.38542e-18)
(26.6709 10.032 -2.21583e-19)
(26.9461 8.73469 2.22394e-18)
(26.9805 7.46918 -3.97396e-18)
(26.8246 6.27515 3.16198e-18)
(26.5129 5.16879 1.6738e-18)
(26.0692 4.16078 -1.72533e-18)
(25.5174 3.25734 6.51131e-19)
(24.8799 2.45869 0)
(24.1712 1.76668 5.53857e-19)
(23.4884 1.22687 -4.13331e-19)
(22.8612 0.824684 6.619e-20)
(22.2329 0.49846 -1.51901e-19)
(21.6069 0.239804 5.47238e-19)
(20.9852 0.0422995 0)
(20.3689 -0.0993404 0)
(19.7579 -0.189682 -7.26269e-19)
(19.1511 -0.233075 -4.54422e-18)
(18.5464 -0.234212 -2.09612e-18)
(17.9401 -0.198781 2.39705e-18)
(17.3261 -0.134146 6.72982e-19)
(16.6948 -0.0499293 -3.52947e-18)
(16.0328 0.0423256 -7.68659e-19)
(15.3201 0.129327 4.80963e-18)
(14.5382 0.19762 -8.32082e-19)
(13.67 0.232702 -3.55569e-18)
(12.7105 0.211516 4.73852e-19)
(11.6061 0.100746 7.61738e-18)
(10.4578 -0.0918448 0)
(8.80917 -0.393345 0)
(13.4868 12.6594 0)
(14.5718 13.1021 0)
(15.5933 13.4388 -2.05059e-19)
(16.6343 13.7325 -1.87975e-18)
(17.7136 13.9346 0)
(18.8213 14.017 -8.98484e-19)
(19.9529 13.9605 2.66274e-19)
(21.0923 13.7445 0)
(22.2045 13.356 -1.59737e-18)
(23.2541 12.7919 1.85285e-19)
(24.217 12.0519 -4.01322e-19)
(25.049 11.1477 1.32206e-18)
(25.6894 10.1156 -1.66025e-18)
(26.1059 9.00654 0)
(26.3057 7.87215 -2.44402e-18)
(26.3147 6.76154 2.86994e-18)
(26.158 5.70311 0)
(25.8571 4.71565 0)
(25.4334 3.8127 3.47798e-19)
(24.9086 3.00128 -1.41227e-18)
(24.299 2.28771 5.84183e-19)
(23.6953 1.72351 0)
(23.1305 1.29673 1.34837e-19)
(22.5594 0.945604 2.40596e-19)
(21.9875 0.662171 -3.90935e-19)
(21.4191 0.440035 3.89179e-19)
(20.8579 0.273769 0)
(20.3063 0.158614 0)
(19.7664 0.0900499 -7.59263e-19)
(19.2396 0.0633636 3.38884e-18)
(18.726 0.0731704 -1.88021e-18)
(18.2243 0.112913 1.97051e-18)
(17.7304 0.174376 1.07936e-18)
(17.2361 0.247739 0)
(16.7267 0.321425 1.84777e-18)
(16.1853 0.382622 -1.9e-20)
(15.5893 0.4168 6.1705e-18)
(14.9195 0.406055 0)
(14.1086 0.325925 -6.03232e-18)
(13.2274 0.184336 6.52862e-18)
(11.8753 -0.0509246 0)
(14.225 11.6915 0)
(15.1372 12.03 -1.34285e-18)
(15.9917 12.2905 1.18453e-18)
(16.851 12.5216 0)
(17.7321 12.6889 1.28569e-18)
(18.6326 12.7738 -9.46162e-19)
(19.5551 12.7629 -2.51556e-18)
(20.4938 12.6391 1.13064e-18)
(21.4278 12.3882 9.86175e-20)
(22.3347 12.0022 1.58762e-18)
(23.1987 11.4747 -1.76052e-18)
(23.9874 10.8041 -5.64747e-19)
(24.6496 10.004 1.4928e-18)
(25.1479 9.10182 -7.14065e-19)
(25.4711 8.13515 2.868e-18)
(25.6234 7.14934 -1.81234e-18)
(25.6157 6.17749 -7.12466e-19)
(25.4618 5.24424 -3.18834e-19)
(25.1779 4.36922 -8.94083e-19)
(24.7823 3.56597 1.73587e-18)
(24.2905 2.8459 -7.45907e-19)
(23.7827 2.26684 -3.13709e-21)
(23.2942 1.82104 1.26829e-20)
(22.792 1.4483 0)
(22.2829 1.14166 -7.61278e-19)
(21.7729 0.895113 2.35455e-19)
(21.2667 0.703338 1.32529e-18)
(20.7685 0.561561 -9.23497e-19)
(20.2817 0.465214 2.44509e-18)
(19.8094 0.4096 -1.27042e-18)
(19.3542 0.389583 0)
(18.9177 0.399287 -2.4384e-18)
(18.5001 0.431794 -8.5598e-19)
(18.0988 0.479146 9.62843e-19)
(17.7068 0.532173 -5.94735e-18)
(17.3146 0.580726 -1.04127e-18)
(16.9057 0.613165 -2.17161e-18)
(16.464 0.61774 2.23495e-18)
(15.9314 0.576179 2.33462e-18)
(15.3516 0.499758 -4.75931e-18)
(14.4247 0.340011 -1.61728e-19)
(14.8444 10.8007 0)
(15.6126 11.0582 7.61356e-20)
(16.3292 11.2575 1.07264e-18)
(17.0411 11.4356 3.50839e-18)
(17.7625 11.5681 -2.34895e-18)
(18.4946 11.6432 4.63208e-19)
(19.243 11.6523 9.48795e-20)
(20.0075 11.5831 -2.96341e-18)
(20.7768 11.4233 2.23268e-20)
(21.5382 11.1639 -3.25244e-20)
(22.2835 10.797 7.53729e-19)
(22.9912 10.3151 -7.52925e-19)
(23.6224 9.71811 -4.4401e-19)
(24.1439 9.0162 6.16869e-19)
(24.5372 8.23174 0)
(24.7928 7.39873 0)
(24.9086 6.54703 2.40241e-18)
(24.8886 5.70219 -6.89493e-21)
(24.7414 4.88666 -1.58298e-18)
(24.4798 4.11849 8.12675e-20)
(24.1156 3.41337 -1.24103e-19)
(23.7153 2.83454 -2.36394e-20)
(23.3143 2.37977 1.41952e-19)
(22.8919 1.99271 0)
(22.4561 1.66795 -1.08155e-19)
(22.0137 1.40042 1.22041e-18)
(21.5703 1.18534 -1.58071e-18)
(21.1306 1.01817 1.76009e-18)
(20.6987 0.894446 -1.30756e-18)
(20.2782 0.809613 0)
(19.8723 0.758843 1.18864e-18)
(19.4833 0.736835 2.66906e-18)
(19.113 0.737672 -1.3602e-18)
(18.7615 0.754862 1.53102e-18)
(18.426 0.781303 8.55801e-19)
(18.1029 0.809702 -1.62165e-18)
(17.7839 0.832026 2.55191e-18)
(17.4603 0.841953 -1.7883e-18)
(17.0967 0.827849 -1.38178e-18)
(16.7169 0.801918 -2.30941e-19)
(16.1468 0.720568 3.76162e-18)
(15.3598 9.99034 -1.27213e-18)
(16.0077 10.1852 -4.4428e-18)
(16.6098 10.3356 4.33329e-18)
(17.2014 10.4699 0)
(17.7939 10.5708 -1.87265e-19)
(18.3902 10.6311 0)
(18.9966 10.6455 -6.90822e-18)
(19.6153 10.6057 5.11079e-18)
(20.2411 10.5025 2.54908e-18)
(20.8675 10.3278 -2.85131e-18)
(21.4912 10.0751 5.10588e-19)
(22.0998 9.73512 -2.96808e-19)
(22.6659 9.3014 3.8845e-19)
(23.164 8.77415 5.51886e-19)
(23.5759 8.16384 1.49994e-19)
(23.8871 7.49187 -7.05638e-19)
(24.0876 6.78014 6.40106e-19)
(24.1729 6.05027 -7.46841e-19)
(24.1442 5.32345 0)
(24.0073 4.61888 -1.39891e-19)
(23.7688 3.95424 3.70039e-19)
(23.4788 3.39536 -2.05129e-19)
(23.1705 2.94599 7.16964e-21)
(22.8341 2.55589 0)
(22.4781 2.22166 8.8733e-20)
(22.1098 1.93974 1.25515e-19)
(21.7352 1.70642 0)
(21.3598 1.51783 0)
(20.9879 1.36995 3.6636e-21)
(20.623 1.25861 0)
(20.2682 1.17946 -1.44596e-18)
(19.9259 1.12781 0)
(19.5981 1.09868 2.26602e-18)
(19.2851 1.08679 -2.34281e-18)
(18.9859 1.08659 0)
(18.6989 1.09285 1.32671e-18)
(18.4207 1.10026 -1.38063e-18)
(18.1466 1.10539 6.91765e-19)
(17.8597 1.1023 2.19106e-18)
(17.5716 1.1 -1.93767e-19)
(17.2025 1.0731 -4.539e-18)
(15.7853 9.26096 3.37947e-18)
(16.3322 9.40725 1.25804e-19)
(16.8388 9.51878 -1.9114e-18)
(17.3316 9.61778 -3.50102e-18)
(17.8198 9.69163 -7.65906e-18)
(18.3067 9.73604 8.89316e-18)
(18.7984 9.74817 -4.08659e-19)
(19.2979 9.72261 -4.11175e-18)
(19.8034 9.65276 7.67313e-18)
(20.3118 9.53259 -6.4352e-19)
(20.8228 9.3569 -3.37795e-18)
(21.3299 9.11762 8.98823e-19)
(21.8152 8.80657 -1.13658e-18)
(22.2607 8.4194 1.90258e-18)
(22.6523 7.95929 -2.9701e-19)
(22.9757 7.43766 0)
(23.2185 6.86797 -6.34173e-20)
(23.3721 6.2655 1.48772e-19)
(23.4317 5.64709 4.10201e-19)
(23.3974 5.02975 -1.01548e-18)
(23.2704 4.43028 7.36241e-19)
(23.0836 3.91263 -7.15174e-20)
(22.8657 3.48573 -5.9612e-21)
(22.6153 3.1071 -1.32912e-18)
(22.3405 2.7755 2.92719e-18)
(22.0482 2.48908 -1.71465e-18)
(21.7448 2.24553 2.02111e-18)
(21.4359 2.0421 -2.47288e-18)
(21.1259 1.87568 -3.02776e-18)
(20.8186 1.74284 2.73414e-18)
(20.517 1.63992 7.82168e-19)
(20.2234 1.56305 1.31457e-18)
(19.9395 1.5082 -4.05394e-18)
(19.6661 1.47123 3.82529e-18)
(19.4024 1.44784 -1.96292e-18)
(19.1478 1.43429 -1.04572e-18)
(18.9008 1.42702 0)
(18.6583 1.42365 -1.14412e-18)
(18.4131 1.42137 -1.18362e-18)
(18.1705 1.42483 -1.20797e-18)
(17.8964 1.42164 1.25561e-18)
(16.1334 8.61051 4.16936e-21)
(16.5952 8.71906 4.58653e-19)
(17.0218 8.80002 1.67728e-18)
(17.4331 8.87096 -3.00823e-18)
(17.8365 8.92259 1.18994e-17)
(18.2353 8.95242 -1.01762e-17)
(18.6347 8.95907 1.27957e-17)
(19.0381 8.93914 6.31124e-18)
(19.4451 8.88813 -3.14387e-18)
(19.8545 8.80174 -8.93536e-19)
(20.2676 8.67626 -7.22425e-18)
(20.681 8.50557 2.74724e-19)
(21.0836 8.28213 0)
(21.4638 8.00047 -6.77234e-19)
(21.8115 7.66016 8.21352e-19)
(22.1156 7.26629 -1.00777e-18)
(22.365 6.82582 0)
(22.55 6.34793 1.29572e-18)
(22.6636 5.84412 -2.88735e-18)
(22.7019 5.32729 1.02885e-18)
(22.6623 4.81111 -1.76296e-18)
(22.5625 4.3531 1.98437e-18)
(22.4251 3.9653 7.84095e-20)
(22.2539 3.6136 -3.50342e-20)
(22.0558 3.29858 3.04903e-18)
(21.8368 3.02003 -3.07729e-18)
(21.6029 2.77704 1.08515e-19)
(21.3593 2.56811 2.43608e-19)
(21.1104 2.39119 -2.28846e-18)
(20.86 2.24391 2.6098e-18)
(20.611 2.12357 -3.20342e-19)
(20.3658 2.02731 3.44037e-19)
(20.1262 1.9521 -1.49893e-18)
(19.8931 1.89482 7.03763e-19)
(19.6665 1.85228 3.23608e-18)
(19.4463 1.82187 -8.0677e-19)
(19.2321 1.80121 8.93681e-19)
(19.022 1.78833 -1.80054e-18)
(18.8128 1.78158 9.34339e-19)
(18.6072 1.78274 9.77511e-19)
(18.3898 1.78442 0)
(16.415 8.03414 -5.15128e-18)
(16.8048 8.11324 9.23743e-18)
(17.1639 8.17047 8.70297e-18)
(17.5075 8.21977 -2.29008e-17)
(17.8414 8.25395 8.49345e-18)
(18.1688 8.27166 -1.75417e-17)
(18.4942 8.27241 1.42242e-17)
(18.8205 8.25408 -2.06282e-17)
(19.148 8.21361 1.8866e-17)
(19.4767 8.14805 -6.13767e-19)
(19.808 8.05493 -7.69295e-18)
(20.1406 7.92969 -7.30641e-19)
(20.4676 7.76651 -5.85521e-18)
(20.7816 7.56048 5.77601e-18)
(21.0762 7.30992 -4.58378e-18)
(21.3437 7.01663 4.98707e-18)
(21.5753 6.68358 0)
(21.7629 6.31556 -3.45532e-18)
(21.8993 5.91942 4.25772e-18)
(21.9795 5.50379 -3.98161e-18)
(21.9987 5.07839 -2.32669e-19)
(21.9637 4.69124 6.68864e-18)
(21.8907 4.35503 1.03706e-19)
(21.7857 4.04346 -2.59708e-18)
(21.6541 3.75827 -4.97042e-24)
(21.5007 3.50041 0)
(21.3303 3.27011 -3.44946e-18)
(21.1476 3.06693 3.41049e-18)
(20.9564 2.8899 0)
(20.7602 2.73762 -2.50755e-19)
(20.5616 2.60838 0)
(20.3631 2.50029 2.35114e-18)
(20.1665 2.41133 -2.66033e-18)
(19.9732 2.33936 -2.57904e-18)
(19.7834 2.28213 5.27017e-18)
(19.5978 2.23788 -3.03394e-18)
(19.4167 2.205 -3.54316e-19)
(19.2393 2.18185 7.37044e-19)
(19.0643 2.16725 -7.59949e-19)
(18.8932 2.16161 0)
(18.7196 2.15968 -7.80834e-19)
(16.6311 7.54903 0)
(16.9624 7.60633 -1.25328e-17)
(17.2669 7.64644 5.66325e-19)
(17.5563 7.6801 1.67374e-17)
(17.8353 7.7016 1.02434e-17)
(18.107 7.71033 -1.05245e-17)
(18.3751 7.70631 9.57793e-18)
(18.6421 7.68819 9.15911e-18)
(18.9087 7.65385 1.71874e-17)
(19.1751 7.60127 -2.17378e-17)
(19.4427 7.52876 2.11822e-18)
(19.7111 7.43306 2.03212e-18)
(19.9759 7.3097 -7.00469e-18)
(20.2323 7.15478 5.08854e-18)
(20.4765 6.96658 7.08585e-18)
(20.703 6.74548 -5.38508e-18)
(20.9059 6.49255 -6.24358e-18)
(21.0787 6.21007 6.36986e-18)
(21.2157 5.90187 0)
(21.3119 5.57333 7.22311e-19)
(21.3624 5.23085 7.23039e-19)
(21.3676 4.91255 5.52073e-18)
(21.3385 4.63017 -1.11947e-17)
(21.2814 4.36365 5.79783e-18)
(21.2001 4.11515 3.12712e-18)
(21.0982 3.88614 4.56889e-20)
(20.9794 3.67749 -3.29806e-18)
(20.8474 3.48949 5.31869e-20)
(20.7054 3.32191 3.75981e-21)
(20.5562 3.17412 3.96592e-18)
(20.4022 3.04521 -4.00678e-18)
(20.2457 2.93404 -2.1766e-18)
(20.0883 2.83936 2.32104e-18)
(19.9314 2.7598 -2.34538e-18)
(19.7759 2.69377 2.0469e-18)
(19.6225 2.64017 1.86751e-18)
(19.472 2.59794 -9.33213e-19)
(19.3244 2.56576 3.25996e-19)
(19.1793 2.5427 0)
(19.0378 2.52867 0)
(18.8978 2.51999 8.06982e-21)
(16.7912 7.15874 -5.76659e-18)
(17.0765 7.20055 6.42489e-18)
(17.3383 7.22852 -2.6989e-18)
(17.5858 7.25095 -5.17976e-18)
(17.8229 7.26323 0)
(18.0523 7.26526 9.84811e-18)
(18.2772 7.25732 -2.3489e-17)
(18.4998 7.23853 1.44751e-17)
(18.7207 7.20739 -4.63686e-18)
(18.9405 7.1625 4.19313e-18)
(19.1602 7.10272 -2.01996e-18)
(19.3799 7.02574 -1.80511e-17)
(19.5966 6.92826 3.17707e-17)
(19.8073 6.80727 -1.36391e-17)
(20.0092 6.6613 -1.63564e-18)
(20.199 6.49018 -6.67278e-18)
(20.3723 6.29415 2.02046e-17)
(20.5244 6.07421 -8.79517e-18)
(20.6509 5.83246 -1.31913e-17)
(20.7478 5.57219 5.4386e-18)
(20.8106 5.29751 -1.49941e-18)
(20.8369 5.03813 0)
(20.8338 4.80412 0)
(20.8073 4.58009 -6.43388e-18)
(20.7599 4.36812 6.43686e-18)
(20.6942 4.16979 9.9484e-20)
(20.613 3.98622 0)
(20.5191 3.81803 3.65764e-18)
(20.4149 3.66545 -3.66439e-18)
(20.3028 3.52832 2.92654e-20)
(20.1848 3.40625 -3.17573e-20)
(20.0628 3.29865 0)
(19.9383 3.20479 2.03533e-18)
(19.8125 3.1238 -2.14891e-18)
(19.6864 3.05461 2.77951e-19)
(19.5609 2.99649 -2.85881e-19)
(19.437 2.94876 0)
(19.3148 2.91037 -3.00444e-19)
(19.1946 2.8806 -6.19804e-19)
(19.0772 2.85919 3.02975e-19)
(18.9625 2.8437 9.39206e-19)
(16.9122 6.84091 0)
(17.1609 6.87139 0)
(17.3887 6.89052 -1.00498e-17)
(17.603 6.90481 -1.95026e-17)
(17.8072 6.91042 2.96776e-17)
(18.0036 6.90761 -2.35762e-17)
(18.1951 6.8968 -8.95156e-18)
(18.3836 6.87737 1.87285e-17)
(18.5696 6.84827 -1.80107e-17)
(18.7537 6.80847 1.80047e-17)
(18.9369 6.7572 0)
(19.1192 6.69278 0)
(19.2987 6.61279 1.63131e-17)
(19.4732 6.51498 -3.21872e-17)
(19.6411 6.39818 3.07631e-17)
(19.7998 6.26212 -1.49583e-17)
(19.9465 6.10671 -1.86401e-18)
(20.0776 5.93237 1.63771e-17)
(20.1899 5.74025 -1.11067e-17)
(20.2803 5.53238 0)
(20.3451 5.31135 7.73104e-19)
(20.3807 5.10024 0)
(20.392 4.90734 -7.12024e-18)
(20.3841 4.72067 1.38884e-17)
(20.3588 4.54204 -6.76729e-18)
(20.3177 4.37292 0)
(20.263 4.21442 0)
(20.1967 4.06731 3.44119e-18)
(20.1208 3.93197 -3.67229e-18)
(20.0372 3.80856 -3.85273e-18)
(19.9473 3.69697 3.879e-18)
(19.8528 3.59694 4.03566e-18)
(19.755 3.50809 -4.04628e-18)
(19.6549 3.4299 0)
(19.5536 3.36162 -3.35759e-20)
(19.4517 3.30282 0)
(19.3504 3.25305 -8.68489e-21)
(19.2499 3.21146 -3.52664e-20)
(19.1506 3.17751 1.22275e-18)
(19.0532 3.15091 -1.7312e-18)
(18.9582 3.13009 5.71888e-19)
(17.0057 6.57729 0)
(17.2243 6.59933 -1.21146e-18)
(17.4242 6.61194 0)
(17.6116 6.62024 9.32785e-18)
(17.7892 6.62102 -9.20762e-18)
(17.9593 6.61473 0)
(18.1244 6.60187 8.97449e-18)
(18.2859 6.582 8.65833e-18)
(18.4445 6.55437 -2.27265e-17)
(18.6007 6.51821 0)
(18.7554 6.47299 1.71614e-17)
(18.9085 6.41749 -3.42567e-17)
(19.0588 6.34992 1.70422e-17)
(19.2047 6.2686 0)
(19.3451 6.17268 -1.58618e-17)
(19.4782 6.06189 1.76235e-17)
(19.6019 5.93607 1.66651e-17)
(19.7138 5.79539 -1.83847e-17)
(19.8114 5.64052 -1.70432e-18)
(19.8924 5.47272 0)
(19.954 5.29367 0)
(19.9923 5.12135 -9.01929e-19)
(20.0108 4.96243 4.12744e-19)
(20.0138 4.80745 7.03057e-18)
(20.0023 4.65792 5.36957e-19)
(19.9777 4.51508 -7.04544e-18)
(19.9414 4.37993 7.24299e-18)
(19.8951 4.25321 -7.00766e-18)
(19.8402 4.13538 -4.20746e-18)
(19.778 4.02667 3.72659e-18)
(19.71 3.92718 -3.85786e-18)
(19.6372 3.83681 3.84922e-18)
(19.5609 3.7554 0)
(19.4819 3.68264 -4.30009e-18)
(19.401 3.61801 4.06584e-18)
(19.3191 3.56126 0)
(19.2369 3.5121 8.11892e-21)
(19.1548 3.46987 1.10072e-18)
(19.0733 3.43416 -1.13054e-18)
(18.9929 3.40472 5.11643e-19)
(18.9143 3.38057 -5.33144e-19)
(17.079 6.35539 0)
(17.2725 6.37104 1.11558e-18)
(17.4492 6.37877 -8.93949e-18)
(17.6144 6.38264 1.74691e-17)
(17.7702 6.3799 -3.52514e-17)
(17.9188 6.37114 1.77707e-17)
(18.0623 6.35689 0)
(18.2021 6.33684 8.59774e-18)
(18.3387 6.31043 5.16684e-17)
(18.4726 6.27712 -3.4855e-17)
(18.6045 6.2365 0)
(18.7345 6.1877 -4.32143e-18)
(18.8615 6.12938 1.23442e-17)
(18.9845 6.0603 -3.09872e-19)
(19.1026 5.97984 -1.6473e-17)
(19.2147 5.8878 1.78401e-17)
(19.3192 5.78404 -1.55037e-17)
(19.4143 5.66863 1.48482e-17)
(19.4982 5.542 -1.48599e-17)
(19.5692 5.40499 -1.45692e-17)
(19.6251 5.2587 1.25586e-17)
(19.6625 5.11724 -6.28612e-18)
(19.6839 4.98594 7.97832e-18)
(19.6927 4.85726 -7.53582e-18)
(19.6897 4.73237 -1.39849e-18)
(19.6758 4.6123 7.11512e-18)
(19.6522 4.4979 0)
(19.62 4.38981 0)
(19.5804 4.28845 -6.93623e-18)
(19.5344 4.19412 7.36128e-18)
(19.483 4.10694 0)
(19.4273 4.02694 4.80598e-19)
(19.368 3.95405 4.85155e-19)
(19.306 3.8881 4.13688e-18)
(19.2419 3.82872 -4.13064e-18)
(19.1765 3.77578 -1.98876e-18)
(19.1103 3.72909 1.98103e-18)
(19.0438 3.68814 -7.59119e-19)
(18.9774 3.65262 2.02825e-18)
(18.9116 3.62233 -9.83781e-19)
(18.8467 3.59675 -1.26428e-19)
(17.1373 6.16629 8.23922e-18)
(17.3096 6.17707 1.00668e-17)
(17.4667 6.18113 -1.82063e-19)
(17.6131 6.18168 0)
(17.7507 6.17639 0)
(17.8814 6.16591 0)
(18.0071 6.15077 0)
(18.1291 6.13078 -3.32267e-17)
(18.2477 6.10549 5.88065e-17)
(18.3635 6.07452 -3.37891e-17)
(18.4769 6.03759 3.31603e-17)
(18.5882 5.99403 -2.10443e-17)
(18.6964 5.94287 3.68295e-17)
(18.8008 5.88318 -4.51208e-17)
(18.9009 5.81453 1.63824e-17)
(18.9957 5.73679 1.19363e-17)
(19.0842 5.64988 -1.55981e-17)
(19.1649 5.55382 1.8435e-18)
(19.2366 5.44893 -1.90972e-18)
(19.2981 5.33579 1.85067e-17)
(19.3476 5.21517 1.62683e-17)
(19.3823 5.09825 -2.69466e-17)
(19.404 4.98927 -8.64347e-19)
(19.4155 4.88213 0)
(19.4174 4.77776 8.6477e-19)
(19.4104 4.67697 -9.09358e-19)
(19.3953 4.58045 -6.27247e-18)
(19.3731 4.48873 7.15666e-18)
(19.3445 4.4022 -7.26441e-18)
(19.3104 4.32111 7.23711e-18)
(19.2716 4.2456 7.36241e-18)
(19.2289 4.17574 -7.78711e-18)
(19.183 4.11153 -4.57351e-19)
(19.1345 4.05285 3.76015e-18)
(19.084 3.99945 -3.03568e-18)
(19.0319 3.95125 0)
(18.979 3.90814 0)
(18.9254 3.86973 -2.37921e-19)
(18.8716 3.83577 4.84875e-19)
(18.818 3.80612 4.8674e-19)
(18.7648 3.78056 1.18424e-19)
(17.1842 6.00348 0)
(17.3382 6.01051 -1.90734e-18)
(17.4786 6.0118 1.53125e-17)
(17.609 6.00988 -1.56395e-17)
(17.7311 6.00275 -3.10295e-17)
(17.8468 5.9911 3.1843e-17)
(17.9576 5.97547 1.55625e-17)
(18.0647 5.95571 -3.2287e-17)
(18.1684 5.9315 -3.19576e-17)
(18.2691 5.90257 3.25314e-17)
(18.3674 5.8687 0)
(18.4633 5.82942 -1.61397e-17)
(18.5562 5.78399 3.20034e-17)
(18.6455 5.73174 -3.61779e-17)
(18.7307 5.67237 0)
(18.8114 5.60582 -4.00984e-18)
(18.8864 5.53204 3.91865e-18)
(18.9551 5.45108 0)
(19.0162 5.36318 1.81683e-18)
(19.0691 5.26879 -3.58924e-18)
(19.1123 5.16844 1.6343e-17)
(19.1435 5.07109 -1.6078e-17)
(19.1641 4.98011 1.80439e-18)
(19.1766 4.89055 1.32454e-17)
(19.1811 4.80311 -1.31747e-17)
(19.1783 4.71843 8.61477e-19)
(19.1689 4.63706 -7.93725e-18)
(19.1535 4.55942 7.04271e-18)
(19.1328 4.48583 8.98688e-19)
(19.1075 4.41651 0)
(19.0781 4.35159 0)
(19.0454 4.29114 0)
(19.0098 4.23517 -3.61076e-18)
(18.9718 4.18362 3.59433e-18)
(18.9319 4.13631 -4.48032e-19)
(18.8906 4.09318 -3.6538e-18)
(18.8483 4.05417 4.09562e-18)
(18.8053 4.01898 0)
(18.7619 3.98742 5.90844e-21)
(18.7184 3.95938 -9.1989e-19)
(18.675 3.93484 4.48657e-19)
(17.2223 5.86205 7.03648e-18)
(17.3604 5.8662 0)
(17.4863 5.86539 -3.5515e-17)
(17.6029 5.86163 2.91716e-17)
(17.7118 5.8532 0)
(17.8147 5.84081 2.95678e-17)
(17.9128 5.82497 -2.29073e-19)
(18.0073 5.80559 3.02769e-17)
(18.0985 5.78244 -4.64348e-17)
(18.1867 5.75532 -3.07659e-17)
(18.2723 5.72408 3.13121e-17)
(18.3555 5.68838 7.69927e-18)
(18.4357 5.64768 0)
(18.5124 5.60147 0)
(18.5855 5.54957 -7.84541e-18)
(18.6543 5.49196 3.45705e-17)
(18.7183 5.42864 -6.82709e-17)
(18.7767 5.35968 2.98906e-17)
(18.8289 5.28528 3.72395e-18)
(18.8741 5.20578 3.68336e-18)
(18.9115 5.12159 -1.75327e-18)
(18.939 5.03995 2.64447e-17)
(18.958 4.96355 -4.53627e-17)