/*--------------------------------*- C++ -*----------------------------------*\
| =========                 |                                                 |
| \\      /  F ield         | OpenFOAM: The Open Source CFD Toolbox           |
|  \\    /   O peration     | Version:  5.x                                   |
|   \\  /    A nd           | Web:      www.OpenFOAM.org                      |
|    \\/     M anipulation  |                                                 |
\*---------------------------------------------------------------------------*/
FoamFile
{
    version     2.0;
    format      ascii;
    class       volVectorField;
    location    "850";
    object      U;
}
// * * * * * * * * * * * * * * * * * * * * * * * * * * * * * * * * * * * * * //

dimensions      [0 1 -1 0 0 0 0];

internalField   nonuniform List<vector> 
41860
(
(164.418 250.923 0)
(244.528 188.388 4.38223e-16)
(282.533 114.872 1.43321e-16)
(255.277 85.7375 -3.89033e-16)
(240.984 67.6112 -9.64267e-22)
(225.222 54.5491 -2.73672e-16)
(209.949 44.7816 -3.30236e-16)
(196.898 37.5349 3.87804e-16)
(185.596 31.9558 0)
(175.643 27.4982 -4.99804e-16)
(166.67 23.8756 5.63597e-16)
(158.684 20.8608 6.00909e-16)
(151.125 18.2982 -5.19273e-21)
(145.224 16.2187 6.85073e-16)
(139.416 14.38 -7.77631e-16)
(135.798 12.9602 -7.70872e-16)
(131.923 11.6297 8.1757e-16)
(128.699 10.4882 -8.43543e-16)
(125.925 9.46491 -8.47293e-16)
(122.622 8.49224 9.0383e-16)
(120.556 7.67654 -8.82852e-16)
(117.705 6.865 -2.53439e-21)
(115.67 6.16504 -5.75311e-21)
(113.706 5.50854 3.50184e-21)
(111.54 4.88769 1.88046e-15)
(110.175 4.33728 -9.10269e-16)
(108.263 3.79587 0)
(106.663 3.30054 -4.56383e-16)
(105.292 2.83745 4.57079e-16)
(103.982 2.4 0)
(102.614 1.98527 3.39351e-21)
(101.054 1.58643 -3.36114e-21)
(99.8998 1.21895 -2.93206e-21)
(99.0276 0.866547 6.48166e-21)
(97.7836 0.532976 2.08583e-16)
(97.0273 0.213129 0)
(96.0048 -0.0887169 -2.49772e-17)
(95.1489 -0.380794 1.97016e-16)
(94.5849 -0.657066 -1.90141e-16)
(94.1183 -0.92895 3.69688e-16)
(93.5343 -1.18329 0)
(93.0376 -1.43317 -1.39503e-15)
(88.243 -1.56972 0)
(87.8283 -1.75043 3.94122e-21)
(86.8554 -1.90173 9.5057e-16)
(86.5526 -2.0629 -1.8115e-21)
(85.9318 -2.20611 1.80931e-21)
(85.309 -2.34022 9.58051e-16)
(84.7285 -2.47035 -1.92348e-15)
(84.1704 -2.58961 -9.66522e-16)
(83.6381 -2.70871 -1.85497e-21)
(83.132 -2.81592 9.7438e-16)
(82.6466 -2.92484 -9.77849e-16)
(82.1831 -3.02313 1.8757e-21)
(81.744 -3.12388 6.57562e-24)
(80.9769 -3.20109 6.59486e-24)
(80.5971 -3.2936 -1.90298e-21)
(80.4777 -3.3901 0)
(79.8385 -3.46378 -2.00513e-15)
(79.7099 -3.556 -1.91104e-21)
(79.4132 -3.63981 1.98814e-15)
(78.9962 -3.72484 -2.00879e-15)
(78.3972 -3.80695 2.01726e-15)
(78.1802 -3.90199 -4.03263e-15)
(77.5395 -3.97841 2.02944e-15)
(77.2878 -4.06886 -2.02207e-15)
(76.558 -4.13701 0)
(76.0746 -4.21219 9.77194e-22)
(75.6438 -4.29293 3.5702e-24)
(75.1943 -4.37128 -2.02814e-15)
(74.2149 -4.41623 -3.84485e-24)
(73.6897 -4.49008 9.91621e-22)
(73.0061 -4.55214 4.13117e-15)
(71.8442 -4.5831 -5.03934e-22)
(70.8204 -4.62225 4.30007e-15)
(69.9339 -4.67045 0)
(68.5557 -4.68357 -8.67079e-15)
(66.9704 -4.68084 -2.62437e-22)
(65.3857 -4.67501 4.50885e-15)
(62.9477 -4.60676 -4.50859e-15)
(63.2375 -4.72714 4.64412e-15)
(0.802407 -0.268053 -7.64963e-15)
(211.097 311.656 0)
(300.094 231.259 -1.88786e-16)
(329.3 134.122 -5.88509e-17)
(294.204 99.3049 1.58138e-16)
(280.496 78.8497 0)
(265.179 64.3704 4.45468e-22)
(252.164 53.9135 2.75928e-16)
(241.527 46.16 6.12485e-22)
(232.482 40.1386 1.92525e-16)
(224.703 35.2815 2.21052e-16)
(218.085 31.3379 -2.54458e-16)
(211.646 27.9146 -5.52526e-16)
(206.668 25.1118 5.18704e-23)
(201.189 22.5504 -2.45094e-21)
(198.044 20.5059 0)
(194.589 18.6431 0)
(192.393 17.0289 -3.91986e-16)
(190.464 15.5859 0)
(188.397 14.2202 4.06249e-16)
(187.284 13.0279 0)
(185.266 11.8495 8.44546e-16)
(183.996 10.7821 -4.46068e-16)
(182.421 9.7703 -4.4016e-16)
(180.659 8.79646 0)
(179.385 7.90271 -2.00216e-21)
(177.314 7.01854 -4.41325e-16)
(175.951 6.20621 0)
(174.262 5.42661 0)
(172.5 4.67998 -6.54905e-22)
(170.694 3.96956 0)
(168.983 3.29758 0)
(167.465 2.65574 0)
(165.66 2.04544 2.12615e-16)
(163.734 1.45546 0)
(162.079 0.904814 -1.03108e-16)
(160.151 0.371521 1.56547e-21)
(158.451 -0.127567 -1.51134e-21)
(156.679 -0.609813 -4.90959e-17)
(154.768 -1.05951 9.49297e-17)
(152.792 -1.49342 -2.09282e-22)
(151.047 -1.89709 -1.37391e-21)
(149.099 -2.28549 6.97631e-16)
(150.455 -2.66396 0)
(149.866 -2.97332 4.76178e-16)
(149.109 -3.25209 -4.80548e-16)
(147.907 -3.51367 1.84175e-21)
(146.878 -3.75933 4.85835e-16)
(145.89 -3.99125 -4.90223e-16)
(144.894 -4.21415 3.14333e-22)
(143.923 -4.4181 4.95481e-16)
(142.962 -4.62051 0)
(142.018 -4.80152 -5.00173e-16)
(141.09 -4.98453 1.91919e-21)
(140.176 -5.14816 6.83933e-24)
(139.271 -5.31411 -1.9241e-21)
(138.58 -5.47026 9.75033e-22)
(137.688 -5.6197 -1.94418e-21)
(136.654 -5.74958 9.73516e-22)
(135.962 -5.8921 1.02229e-15)
(134.967 -6.01507 9.81693e-22)
(134.116 -6.14102 -1.02066e-15)
(133.324 -6.28039 1.03113e-15)
(132.596 -6.43307 -9.78009e-22)
(131.564 -6.56072 1.03429e-15)
(130.788 -6.70491 -1.03299e-15)
(129.704 -6.82288 -9.86947e-22)
(128.898 -6.95968 0)
(127.874 -7.07526 1.04101e-15)
(126.75 -7.18826 -1.83088e-24)
(125.608 -7.29645 2.46906e-22)
(124.636 -7.41134 1.06153e-15)
(123.329 -7.50963 0)
(122.005 -7.60181 -2.12093e-15)
(120.776 -7.6989 -2.25299e-24)
(119.331 -7.783 -2.20108e-15)
(117.575 -7.8463 -2.21278e-15)
(115.893 -7.91129 2.22881e-15)
(113.799 -7.94741 -2.27907e-15)
(111.739 -7.98247 -2.3383e-15)
(108.104 -7.90363 0)
(108.786 -8.10953 -2.42012e-15)
(8.5377 -0.835772 1.24751e-14)
(232.196 341.177 -4.62534e-18)
(329.468 254.097 0)
(354.886 144.669 4.48923e-17)
(315.707 106.677 1.19885e-16)
(301.946 84.9288 0)
(286.701 69.6347 0)
(274.724 58.7686 -1.0039e-16)
(265.261 50.7224 0)
(257.345 44.4542 -1.34941e-16)
(250.667 39.378 -1.18056e-21)
(245.217 35.2545 1.72196e-16)
(239.552 31.6108 7.07403e-21)
(235.658 28.6487 2.09621e-16)
(230.342 25.8308 2.14125e-16)
(227.824 23.6007 0)
(224.212 21.4911 2.34937e-16)
(222.09 19.6659 0)
(220.125 18.0209 2.46586e-16)
(217.938 16.4567 2.4512e-16)
(216.831 15.0894 -2.53579e-16)
(214.645 13.7342 -2.47369e-16)
(213.443 12.5127 2.56689e-16)
(211.602 11.338 2.51226e-16)
(209.857 10.2223 2.53295e-16)
(208.306 9.18088 -1.18321e-21)
(206.247 8.1673 2.49513e-16)
(204.766 7.226 0)
(202.769 6.3176 -1.23032e-16)
(201.042 5.45715 -3.83887e-22)
(199.096 4.63286 0)
(197.247 3.85185 1.87631e-21)
(195.421 3.10175 1.20708e-16)
(193.464 2.39104 1.191e-16)
(191.539 1.70489 5.97426e-17)
(189.546 1.06033 0)
(187.585 0.437244 1.78716e-21)
(185.51 -0.147277 -7.08802e-18)
(183.517 -0.712358 -2.81698e-17)
(181.319 -1.2395 -5.49849e-17)
(179.171 -1.74944 -1.09316e-16)
(176.963 -2.2208 -3.23421e-21)
(174.64 -2.67622 2.93982e-21)
(176.913 -3.13191 9.15055e-24)
(176.259 -3.49566 -2.67615e-16)
(175.228 -3.82061 2.67667e-16)
(174.051 -4.13358 -2.72273e-16)
(172.886 -4.42376 -2.73729e-16)
(171.765 -4.69795 0)
(170.631 -4.96149 2.78086e-16)
(169.519 -5.20268 2.8004e-16)
(168.414 -5.44199 1.07712e-21)
(167.324 -5.65599 -9.2432e-22)
(166.248 -5.87226 2.85014e-16)
(165.184 -6.06554 -1.09545e-21)
(164.125 -6.26131 -5.75344e-16)
(163.154 -6.43936 -1.10131e-21)
(162.103 -6.61549 5.76893e-16)
(161.045 -6.77482 0)
(160.064 -6.9358 0)
(159.042 -7.08721 5.89694e-16)
(158.017 -7.23451 0)
(157.08 -7.39843 1.13415e-21)
(156.058 -7.57062 -1.68102e-21)
(154.985 -7.72773 5.6871e-22)
(153.918 -7.88992 0)
(152.778 -8.03569 6.00568e-16)
(151.694 -8.18967 -6.00397e-16)
(150.484 -8.32558 -1.2004e-15)
(149.313 -8.46694 -6.14387e-16)
(147.944 -8.59286 -4.4505e-22)
(146.715 -8.72343 -6.13541e-16)
(145.325 -8.84797 0)
(143.773 -8.9569 -2.95801e-22)
(142.27 -9.06803 1.25313e-15)
(140.635 -9.17154 -1.27346e-15)
(138.744 -9.2576 1.28976e-15)
(136.731 -9.3324 1.29008e-15)
(134.398 -9.38463 1.31642e-15)
(132.109 -9.43597 4.34373e-22)
(128.169 -9.36929 0)
(128.836 -9.57812 0)
(21.9893 -1.8623 -1.38495e-14)
(248.317 365.157 1.07417e-17)
(356.253 275.044 0)
(380.096 155.118 1.29761e-20)
(336.797 113.879 -1.11369e-16)
(322.203 90.6767 0)
(306.857 74.5666 5.81477e-22)
(295.214 63.1783 -6.26599e-22)
(286.09 54.7257 0)
(278.484 48.1219 -1.66079e-21)
(272.1 42.7579 1.76291e-21)
(266.907 38.3836 1.29733e-16)
(261.594 34.5284 1.38909e-16)
(257.788 31.3469 -1.53622e-16)
(252.762 28.3515 -3.17345e-16)
(249.793 25.8818 -2.611e-21)
(245.992 23.5836 -1.72027e-16)
(243.362 21.5531 0)
(240.987 19.7321 -1.78395e-16)
(238.503 18.0122 -1.77222e-16)
(236.879 16.4869 1.82218e-16)
(234.537 15.0092 -1.78194e-16)
(232.956 13.6585 -3.67002e-16)
(230.908 12.3745 -1.10184e-21)
(229 11.1566 -3.6252e-16)
(227.187 10.0149 -1.81373e-16)
(225.102 8.91562 0)
(223.406 7.88536 0)
(221.306 6.8968 1.77103e-16)
(219.498 5.95964 -8.98811e-17)
(217.499 5.06257 8.85752e-17)
(215.569 4.21105 0)
(213.615 3.39194 -8.7263e-17)
(211.613 2.61674 -8.62631e-17)
(209.69 1.8678 -4.32634e-17)
(207.609 1.16272 0)
(205.653 0.480685 2.60102e-21)
(203.501 -0.160252 -2.51625e-21)
(201.457 -0.780692 2.06699e-17)
(199.241 -1.3607 -4.05467e-17)
(197.093 -1.92311 0)
(194.806 -2.44338 0)
(192.426 -2.94888 -3.11647e-16)
(194.052 -3.43586 0)
(193.354 -3.83408 1.94403e-16)
(192.192 -4.1898 0)
(191.011 -4.53557 -1.35211e-21)
(189.778 -4.85519 1.51738e-21)
(188.585 -5.15717 -2.01384e-16)
(187.38 -5.44773 2.02775e-16)
(186.199 -5.71378 -2.04371e-16)
(185.024 -5.97789 0)
(183.863 -6.21426 2.07243e-16)
(182.717 -6.45319 -2.08577e-16)
(181.583 -6.66689 0)
(180.453 -6.88343 1.95352e-22)
(179.346 -7.07774 1.61761e-21)
(178.226 -7.27284 -8.48421e-16)
(177.154 -7.45171 8.21816e-22)
(176.044 -7.62761 -8.15032e-22)
(175.004 -7.7977 -4.34655e-16)
(173.91 -7.96138 8.28118e-22)
(172.893 -8.14243 -8.35122e-22)
(171.742 -8.3308 0)
(170.635 -8.50725 4.42164e-16)
(169.434 -8.68458 -2.86273e-24)
(168.254 -8.84886 -4.45427e-16)
(167.028 -9.01674 4.46031e-16)
(165.726 -9.16804 4.46376e-16)
(164.497 -9.32703 4.56469e-16)
(163.034 -9.46828 9.01599e-16)
(161.641 -9.61005 4.56941e-16)
(160.181 -9.75141 -4.41357e-22)
(158.513 -9.87402 9.22518e-16)
(156.83 -9.99499 -9.33984e-16)
(155.053 -10.1106 1.89712e-15)
(153.055 -10.2111 -4.56631e-22)
(150.838 -10.2938 -9.60613e-16)
(148.311 -10.3546 -9.78554e-16)
(145.827 -10.4138 9.99783e-16)
(141.63 -10.3522 1.0153e-15)
(142.309 -10.5463 1.03327e-15)
(39.7651 -3.31167 1.48185e-14)
(260.391 383.438 -5.80988e-18)
(378.579 292.65 -1.05e-16)
(403.032 164.709 -3.56404e-17)
(355.978 120.464 9.36648e-17)
(339.505 95.6102 5.28068e-17)
(323.826 78.736 5.91318e-17)
(311.74 66.7483 6.67833e-17)
(302.267 57.8455 -1.09985e-21)
(294.443 50.8996 8.13587e-17)
(287.943 45.2636 1.3317e-21)
(282.651 40.6612 -9.74849e-17)
(277.537 36.6441 3.22261e-21)
(273.638 33.2843 -3.47976e-21)
(269.019 30.1838 1.20059e-16)
(265.751 27.5431 4.05266e-21)
(261.983 25.1236 -8.09197e-21)
(259.066 22.9497 8.37247e-21)
(256.481 21.006 -4.22545e-21)
(253.867 19.177 0)
(251.961 17.5408 0)
(249.573 15.9753 2.83176e-16)
(247.763 14.5301 1.46098e-16)
(245.654 13.1681 -1.44586e-16)
(243.643 11.8731 1.45308e-16)
(241.73 10.659 -1.46387e-16)
(239.617 9.4933 2.209e-21)
(237.806 8.39624 -2.2406e-21)
(235.702 7.34798 -2.96616e-22)
(233.819 6.35087 -2.23394e-21)
(231.8 5.39778 -1.43987e-16)
(229.832 4.49187 0)
(227.848 3.62007 7.13634e-17)
(225.83 2.7946 1.40387e-23)
(223.877 1.99616 3.53392e-17)
(221.79 1.24407 3.47287e-17)
(219.808 0.515665 8.69433e-18)
(217.658 -0.169553 4.262e-18)
(215.592 -0.833645 0)
(213.382 -1.45545 3.33917e-17)
(211.219 -2.05916 -2.0335e-21)
(208.937 -2.61883 1.98394e-21)
(206.545 -3.16477 2.57677e-16)
(207.58 -3.67543 0)
(206.847 -4.10069 0)
(205.642 -4.48189 -1.61118e-16)
(204.417 -4.85274 1.63494e-16)
(203.14 -5.19586 0)
(201.897 -5.52006 1.66412e-16)
(200.645 -5.83224 1.1524e-21)
(199.416 -6.11824 -2.57946e-21)
(198.193 -6.40226 -4.86916e-24)
(196.985 -6.65665 -1.71594e-16)
(195.791 -6.91382 -1.31586e-21)
(194.608 -7.14403 0)
(193.43 -7.37738 3.49834e-16)
(192.267 -7.58663 -3.52124e-16)
(191.1 -7.79717 7.0605e-16)
(189.979 -7.99016 3.57147e-16)
(188.819 -8.18013 -3.56518e-16)
(187.727 -8.3636 1.38011e-21)
(186.589 -8.54075 4.47108e-24)
(185.513 -8.73577 -3.64753e-16)
(184.309 -8.93934 -1.38303e-21)
(183.141 -9.12966 -3.68042e-16)
(181.88 -9.32138 7.0174e-22)
(180.635 -9.49885 3.71019e-16)
(179.338 -9.68013 0)
(177.968 -9.84411 0)
(176.659 -10.0153 0)
(175.13 -10.1694 -3.75966e-16)
(173.642 -10.3223 -3.82024e-16)
(172.095 -10.4752 0)
(170.34 -10.6092 -7.69652e-16)
(168.545 -10.7401 0)
(166.653 -10.8654 -7.93024e-16)
(164.538 -10.9753 1.86041e-24)
(162.189 -11.0664 -7.65689e-22)
(159.502 -11.1338 8.17263e-16)
(156.857 -11.1986 8.34437e-16)
(152.415 -11.1389 -8.44141e-16)
(153.129 -11.3097 7.87312e-22)
(59.2972 -4.91425 0)
(269.403 397.116 1.06535e-17)
(396.458 306.926 1.77706e-16)
(421.519 172.555 0)
(371.573 125.879 -1.50815e-16)
(353.161 99.5387 -8.45014e-17)
(337.13 82.0293 -9.45552e-17)
(324.578 69.5402 -1.06701e-16)
(314.781 60.2736 3.60742e-21)
(306.785 53.0596 -1.30441e-16)
(300.219 47.2148 7.14622e-17)
(294.897 42.4409 2.43231e-21)
(289.963 38.2999 -2.54013e-21)
(286.07 34.81 0)
(281.809 31.6308 0)
(278.495 28.8745 3.33317e-21)
(274.87 26.369 -1.09923e-16)
(271.845 24.09 3.47189e-21)
(269.172 22.0528 -1.17141e-16)
(266.515 20.1388 1.17511e-16)
(264.451 18.4161 -3.75223e-21)
(262.063 16.7802 -1.20494e-16)
(260.119 15.2597 3.82272e-21)
(257.995 13.8343 -3.76148e-21)
(255.929 12.4761 1.24622e-16)
(253.97 11.2027 2.52069e-16)
(251.849 9.98174 1.24168e-16)
(249.972 8.8294 -1.27227e-16)
(247.885 7.73123 -6.22834e-17)
(245.955 6.68377 3.83902e-21)
(243.934 5.68344 6.23808e-17)
(241.948 4.73162 0)
(239.959 3.81533 -6.20565e-17)
(237.936 2.94714 3.73851e-21)
(235.962 2.10656 -3.07387e-17)
(233.886 1.31447 -3.02717e-17)
(231.884 0.546476 -7.56897e-18)
(229.751 -0.176557 0)
(227.675 -0.878001 0)
(225.478 -1.53563 2.91782e-17)
(223.307 -2.17473 -1.76572e-21)
(221.043 -2.76828 0)
(218.654 -3.3493 -1.6363e-22)
(219.201 -3.88079 -2.11292e-21)
(218.434 -4.32911 2.13759e-21)
(217.209 -4.73247 1.41439e-16)
(215.944 -5.12483 1.43402e-16)
(214.633 -5.4883 4.40778e-21)
(213.352 -5.83178 8.84419e-24)
(212.066 -6.16272 -1.47238e-16)
(210.8 -6.46605 -8.63724e-24)
(209.54 -6.76738 4.56943e-21)
(208.295 -7.03745 1.50859e-16)
(207.064 -7.31052 1.51954e-16)
(205.844 -7.55512 0)
(204.629 -7.80314 -3.07856e-16)
(203.43 -8.02576 3.1035e-16)
(202.227 -8.2498 -6.22477e-16)
(201.061 -8.45486 -1.60373e-22)
(199.868 -8.65746 3.14494e-16)
(198.728 -8.85237 0)
(197.554 -9.04135 0)
(196.432 -9.24861 3.21611e-16)
(195.193 -9.46582 2.44652e-21)
(193.969 -9.66798 -1.23636e-21)
(192.665 -9.87265 0)
(191.361 -10.0614 -9.58895e-23)
(190.012 -10.2547 0)
(188.586 -10.4299 3.29652e-16)
(187.204 -10.6115 3.35889e-16)
(185.621 -10.777 3.3199e-16)
(184.06 -10.9398 3.37699e-16)
(182.432 -11.1026 0)
(180.605 -11.2466 -6.49635e-22)
(178.721 -11.3865 6.90404e-16)
(176.732 -11.5203 0)
(174.511 -11.6381 0)
(172.056 -11.7369 0)
(169.231 -11.81 0)
(166.446 -11.8794 -7.36842e-16)
(161.787 -11.8218 7.43758e-16)
(162.523 -11.9623 -1.52594e-15)
(77.888 -6.45312 2.92129e-14)
(275.95 407.204 -9.33635e-18)
(411.111 318.832 -1.56007e-16)
(436.584 179.09 -3.76446e-22)
(384.419 130.404 6.30229e-17)
(364.404 102.812 8.04241e-21)
(348.069 84.7642 3.99204e-17)
(335.193 71.8686 9.05554e-17)
(325.18 62.3065 -5.0466e-17)
(317.084 54.8739 5.57415e-17)
(310.499 48.8581 -2.91466e-21)
(305.191 43.9448 6.7574e-17)
(300.413 39.6989 4.47351e-21)
(296.575 36.1047 -4.87022e-21)
(292.603 32.8567 5.17657e-21)
(289.343 30.0122 -1.14405e-20)
(285.896 27.4386 1.41585e-20)
(282.86 25.0764 8.75235e-23)
(280.167 22.9628 1.02877e-16)
(277.511 20.9779 -1.03555e-16)
(275.36 19.1831 6.56399e-21)
(272.994 17.4868 -1.0683e-16)
(270.975 15.9026 6.72846e-21)
(268.853 14.4223 1.10358e-16)
(266.767 13.0097 -9.23069e-22)
(264.785 11.6849 -1.46424e-20)
(262.674 10.4155 -2.22272e-16)
(260.76 9.21488 1.1406e-16)
(258.693 8.07256 3.42545e-21)
(256.74 6.98085 -3.44939e-21)
(254.724 5.93868 0)
(252.733 4.94617 -3.43614e-21)
(250.745 3.99032 5.59254e-17)
(248.726 3.08412 -5.54211e-17)
(246.742 2.20603 2.77233e-17)
(244.678 1.37823 0)
(242.666 0.574911 0)
(240.549 -0.181915 0)
(238.471 -0.916758 -3.28632e-21)
(236.289 -1.60643 -2.63861e-17)
(234.117 -2.27725 3.19385e-21)
(231.872 -2.90113 -3.15984e-21)
(229.493 -3.51382 -1.86432e-22)
(229.639 -4.0648 7.63853e-21)
(228.835 -4.53366 1.27339e-16)
(227.596 -4.95692 1.28419e-16)
(226.3 -5.36871 -1.30196e-16)
(224.963 -5.75056 -3.995e-21)
(223.653 -6.11147 -1.32725e-16)
(222.338 -6.45938 4.07529e-21)
(221.042 -6.77841 0)
(219.753 -7.09541 0)
(218.478 -7.37971 0)
(217.216 -7.66719 -2.76469e-16)
(215.965 -7.92486 2.78631e-16)
(214.719 -8.1862 5.60381e-16)
(213.49 -8.42093 0)
(212.256 -8.65725 -1.99716e-21)
(211.051 -8.87333 -2.86474e-16)
(209.831 -9.08737 2.86576e-16)
(208.651 -9.29275 -2.89991e-16)
(207.447 -9.49249 -2.89511e-16)
(206.286 -9.71089 2.93097e-16)
(205.015 -9.94043 0)
(203.744 -10.1535 0)
(202.403 -10.3698 0)
(201.049 -10.5689 -2.98515e-16)
(199.654 -10.7732 -1.14364e-21)
(198.18 -10.9586 -3.00728e-16)
(196.734 -11.1497 -3.06308e-16)
(195.105 -11.3255 -3.02798e-16)
(193.478 -11.4974 -3.08092e-16)
(191.78 -11.6692 0)
(189.89 -11.8223 0)
(187.927 -11.9705 -6.29824e-16)
(185.851 -12.1119 -1.21963e-21)
(183.538 -12.237 6.13058e-22)
(180.988 -12.3428 0)
(178.041 -12.4212 6.58076e-16)
(175.131 -12.4946 -6.40351e-22)
(170.282 -12.4399 -6.76777e-16)
(171.02 -12.5438 6.96234e-16)
(94.1213 -7.82718 -2.66869e-14)
(280.47 414.395 1.45381e-17)
(423.402 329.054 7.05373e-17)
(449.543 184.873 2.16068e-22)
(395.65 134.432 -5.53665e-17)
(374.279 105.73 3.16894e-17)
(357.656 87.1901 -3.55208e-17)
(344.538 73.9395 -7.37768e-21)
(334.363 64.1176 4.51652e-17)
(326.194 56.4912 4.9914e-17)
(319.602 50.3234 -1.09681e-16)
(314.32 45.2864 -6.0558e-17)
(309.668 40.9448 0)
(305.896 37.2591 4.45558e-21)
(302.155 33.9466 -4.53378e-21)
(298.984 31.0278 8.40136e-17)
(295.719 28.3954 8.57602e-17)
(292.726 25.9635 9.03562e-17)
(290.05 23.784 9.3052e-17)
(287.422 21.7369 0)
(285.225 19.8794 9.83784e-17)
(282.892 18.129 1.46509e-21)
(280.834 16.4887 0)
(278.725 14.9589 -1.009e-16)
(276.637 13.4976 -1.01826e-16)
(274.649 12.1263 -1.03369e-16)
(272.555 10.8131 1.02027e-16)
(270.623 9.56884 6.42258e-21)
(268.578 8.38617 -6.25442e-21)
(266.616 7.25426 0)
(264.611 6.17383 5.16838e-17)
(262.622 5.14411 6.33583e-21)
(260.638 4.15199 -5.15965e-17)
(258.626 3.21093 1.02308e-16)
(256.64 2.29843 -5.12007e-17)
(254.588 1.43782 -2.52382e-17)
(252.573 0.602041 -6.15134e-21)
(250.471 -0.185863 0)
(248.394 -0.951433 0)
(246.228 -1.67059 2.44118e-17)
(244.06 -2.37064 0)
(241.832 -3.02241 -4.77956e-17)
(239.466 -3.66445 -1.78024e-22)
(239.276 -4.23416 0)
(238.432 -4.72183 -1.1809e-16)
(237.182 -5.16342 -2.38341e-16)
(235.863 -5.59324 -3.69559e-21)
(234.504 -5.99212 -1.21787e-16)
(233.169 -6.36921 2.46509e-16)
(231.829 -6.73287 -1.24292e-16)
(230.509 -7.06647 1.25447e-16)
(229.194 -7.39804 -3.85386e-21)
(227.893 -7.69556 -3.89897e-21)
(226.605 -7.99644 1.28514e-16)
(225.327 -8.26627 -2.59079e-16)
(224.055 -8.54 -2.60562e-16)
(222.797 -8.78596 0)
(221.537 -9.0337 2.63752e-16)
(220.3 -9.26011 -4.07362e-21)
(219.054 -9.48475 -2.66682e-16)
(217.839 -9.69996 2.69865e-16)
(216.609 -9.90972 2.69462e-16)
(215.413 -10.1385 -5.45646e-16)
(214.114 -10.3794 -4.15389e-21)
(212.802 -10.6027 2.09844e-21)
(211.426 -10.8299 -2.10564e-21)
(210.028 -11.0387 2.77939e-16)
(208.591 -11.2531 -2.79654e-16)
(207.074 -11.4479 0)
(205.572 -11.6481 0)
(203.901 -11.8334 0)
(202.214 -12.0139 -2.86892e-16)
(200.454 -12.1941 -1.10849e-21)
(198.507 -12.3557 1.09869e-21)
(196.471 -12.5115 -5.86365e-16)
(194.316 -12.6601 0)
(191.92 -12.792 5.73315e-22)
(189.283 -12.9042 6.02025e-16)
(186.226 -12.9876 4.26451e-22)
(183.202 -13.0645 0)
(178.183 -13.0138 -3.01024e-22)
(178.901 -13.0739 3.07773e-22)
(108.071 -9.04551 -1.16195e-14)
(283.417 419.355 -1.27393e-17)
(433.82 337.989 6.5457e-17)
(461.171 190.238 -1.96613e-17)
(405.958 138.206 1.01482e-16)
(383.377 108.464 -1.87736e-21)
(366.46 89.4489 3.28251e-17)
(353.136 75.8675 -3.74159e-17)
(342.82 65.8027 -2.6086e-21)
(334.582 57.9939 -4.6159e-17)
(327.979 51.6824 5.06584e-17)
(322.716 46.5292 5.58667e-17)
(318.161 42.0953 0)
(314.45 38.3248 -8.19701e-21)
(310.89 34.9488 -6.88256e-17)
(307.816 31.9629 -7.71324e-17)
(304.72 29.2767 9.5357e-21)
(301.799 26.7834 -8.32158e-17)
(299.165 24.5449 -8.59156e-17)
(296.58 22.4415 -2.12003e-20)
(294.365 20.5273 9.21e-21)
(292.07 18.7272 1.59734e-21)
(289.996 17.0358 9.40744e-17)
(287.907 15.4602 0)
(285.829 13.954 9.49163e-17)
(283.843 12.5396 0)
(281.773 11.1857 1.16791e-20)
(279.833 9.90111 -1.19173e-20)
(277.812 8.68072 0)
(275.85 7.51142 0)
(273.858 6.39522 -9.68345e-17)
(271.875 5.33073 -5.89855e-21)
(269.899 4.30465 0)
(267.895 3.33094 -4.79901e-17)
(265.912 2.38621 2.40175e-17)
(263.872 1.49482 5.85962e-21)
(261.858 0.628605 0)
(259.77 -0.188458 -5.71895e-21)
(257.696 -0.982863 1.16727e-17)
(255.545 -1.72969 -2.29546e-17)
(253.384 -2.45719 5.558e-21)
(251.172 -3.13513 4.49536e-17)
(248.821 -3.80486 -8.89247e-17)
(248.345 -4.39286 5.45277e-17)
(247.457 -4.89811 6.80205e-21)
(246.196 -5.35687 2.24553e-16)
(244.859 -5.8037 0)
(243.481 -6.21866 1.14811e-16)
(242.124 -6.61102 -7.2721e-21)
(240.764 -6.98956 1.17215e-16)
(239.421 -7.33694 -1.18314e-16)
(238.084 -7.68227 0)
(236.76 -7.9923 0)
(235.449 -8.30586 3.70742e-21)
(234.146 -8.58719 -3.72401e-21)
(232.85 -8.87264 3.75933e-21)
(231.567 -9.1292 1.30853e-23)
(230.282 -9.38775 -2.49017e-16)
(229.017 -9.62398 -2.51646e-16)
(227.747 -9.85863 -2.51826e-16)
(226.502 -10.0832 -2.54852e-16)
(225.247 -10.3024 0)
(224.02 -10.541 2.57685e-16)
(222.694 -10.7927 0)
(221.345 -11.0256 0)
(219.937 -11.2631 0)
(218.5 -11.4811 -2.62546e-16)
(217.024 -11.705 2.64177e-16)
(215.466 -11.9089 -4.03675e-21)
(213.914 -12.1176 2.69401e-16)
(212.204 -12.312 -2.66352e-16)
(210.462 -12.5005 2.70976e-16)
(208.645 -12.6887 8.34959e-24)
(206.645 -12.8584 -2.07516e-21)
(204.542 -13.0214 5.53656e-16)
(202.314 -13.1768 0)
(199.842 -13.3153 -5.65969e-16)
(197.124 -13.4334 -5.68089e-16)
(193.966 -13.5218 -1.4359e-22)
(190.837 -13.6015 0)
(185.666 -13.5561 0)
(186.337 -13.5641 1.46095e-22)
(120.435 -10.1635 9.81067e-15)
(285.195 422.672 0)
(442.629 345.864 3.26521e-19)
(471.888 195.381 1.85075e-17)
(415.748 141.875 -4.78329e-17)
(392.04 111.12 -1.60293e-21)
(374.813 91.6264 -3.11133e-17)
(361.294 77.7222 -4.18157e-21)
(350.841 67.4201 0)
(342.527 59.4323 0)
(335.898 52.9794 -4.77966e-17)
(330.642 47.7122 -5.26372e-17)
(326.154 43.1863 6.74757e-21)
(322.492 39.3336 -6.23428e-17)
(319.073 35.8935 1.2868e-16)
(316.088 32.8442 0)
(313.144 30.1063 9.04583e-21)
(310.309 27.5568 1.3609e-22)
(307.728 25.2639 -1.96462e-20)
(305.196 23.1082 9.88558e-21)
(302.982 21.1414 -8.57298e-17)
(300.729 19.2945 8.50227e-17)
(298.654 17.5556 -8.86459e-17)
(296.589 15.9368 0)
(294.528 14.3884 -8.96077e-17)
(292.551 12.9334 -1.10792e-20)
(290.507 11.5409 -1.10454e-20)
(288.568 10.2182 1.12795e-20)
(286.57 8.96197 4.55676e-17)
(284.614 7.75726 -4.63406e-17)
(282.637 6.60707 2.49633e-22)
(280.664 5.50956 1.11905e-20)
(278.696 4.45119 1.12465e-20)
(276.703 3.44642 -1.1087e-20)
(274.724 2.47105 0)
(272.696 1.55035 2.25184e-17)
(270.686 0.65517 5.65061e-18)
(268.611 -0.189658 6.51716e-23)
(266.543 -1.01152 -1.11034e-17)
(264.405 -1.7847 0)
(262.252 -2.53833 0)
(260.055 -3.24116 0)
(257.721 -3.93739 0)
(256.997 -4.54345 -6.47519e-21)
(256.06 -5.06538 1.05868e-16)
(254.79 -5.54044 -2.21627e-22)
(253.437 -6.00351 -6.63685e-21)
(252.043 -6.43383 6.6641e-21)
(250.667 -6.8408 -1.79264e-22)
(249.287 -7.23358 -1.11732e-16)
(247.924 -7.59415 -1.1281e-16)
(246.567 -7.95266 6.93325e-21)
(245.222 -8.27466 0)
(243.889 -8.60035 -7.07202e-21)
(242.565 -8.89271 -2.33207e-16)
(241.246 -9.18938 2.51055e-23)
(239.939 -9.45611 -7.21299e-21)
(238.633 -9.72501 4.75179e-16)
(237.341 -9.97068 -7.14268e-21)
(236.049 -10.2149 2.40322e-16)
(234.776 -10.4484 2.43216e-16)
(233.498 -10.6768 3.7123e-21)
(232.242 -10.9248 1.20824e-23)
(230.891 -11.1867 -3.73908e-21)
(229.509 -11.4289 0)
(228.07 -11.6761 2.48424e-16)
(226.597 -11.9031 2.50596e-16)
(225.084 -12.1361 0)
(223.489 -12.3486 3.85978e-21)
(221.89 -12.5656 -2.57096e-16)
(220.143 -12.7685 5.08387e-16)
(218.349 -12.9648 -2.5857e-16)
(216.479 -13.1607 -7.96639e-24)
(214.43 -13.3381 3.96794e-21)
(212.265 -13.508 8.79612e-24)
(209.968 -13.6699 5.35807e-16)
(207.426 -13.8147 1.07917e-15)
(204.632 -13.9385 0)
(201.382 -14.0316 -5.50009e-16)
(198.155 -14.1138 0)
(192.845 -14.075 -5.39087e-22)
(193.44 -14.0212 8.32455e-22)
(131.866 -11.2331 8.20056e-15)
(286.097 424.778 -7.43665e-22)
(449.979 352.821 -5.72822e-17)
(481.916 200.422 1.79611e-17)
(425.264 145.539 0)
(400.488 113.768 -3.44508e-21)
(382.924 93.7803 3.00736e-17)
(369.209 79.5502 3.42481e-17)
(358.611 69.0092 0)
(350.209 60.8404 -1.04333e-20)
(343.537 54.2445 4.58355e-17)
(338.27 48.862 0)
(333.821 44.2425 -5.33854e-17)
(330.192 40.3076 5.92804e-17)
(326.876 36.8015 -6.0971e-17)
(323.968 33.69 0)
(321.156 30.9008 0)
(318.41 28.2981 -7.36486e-17)
(315.89 25.9537 7.62419e-17)
(313.416 23.7483 7.72836e-17)
(311.214 21.732 8.13878e-17)
(309.006 19.8403 0)
(306.939 18.0562 8.43067e-17)
(304.9 16.396 -1.9531e-22)
(302.862 14.8072 -8.5357e-17)
(300.898 13.3134 8.69152e-17)
(298.882 11.8839 8.60243e-17)
(296.949 10.5247 8.85691e-17)
(294.974 9.23398 -4.35706e-17)
(293.028 7.9953 4.43224e-17)
(291.066 6.81243 -2.11488e-20)
(289.105 5.68316 4.40338e-17)
(287.147 4.59373 -1.07651e-20)
(285.166 3.55906 -6.94118e-23)
(283.193 2.5542 -2.18474e-17)
(281.177 1.60528 0)
(279.171 0.682216 -5.39436e-18)
(277.11 -0.189345 -2.68119e-18)
(275.046 -1.03764 1.06364e-17)
(272.923 -1.83618 1.01904e-20)
(270.778 -2.61498 0)
(268.595 -3.34176 4.10301e-17)
(266.278 -4.06355 9.88551e-21)
(265.34 -4.68761 -4.97537e-17)
(264.348 -5.22558 -1.01597e-16)
(263.067 -5.71627 -1.02674e-16)
(261.701 -6.19497 0)
(260.291 -6.64011 -1.28552e-20)
(258.898 -7.0612 -2.12817e-16)
(257.501 -7.46773 -1.29478e-20)
(256.12 -7.84106 1.08413e-16)
(254.744 -8.21229 0)
(253.38 -8.54588 0)
(252.026 -8.8833 1.11177e-16)
(250.682 -9.18633 2.24204e-16)
(249.342 -9.49384 -2.2557e-16)
(248.013 -9.77041 6.93512e-21)
(246.685 -10.0493 -4.56917e-16)
(245.37 -10.3041 7.24559e-21)
(244.056 -10.5576 -2.31111e-16)
(242.757 -10.7999 -7.14945e-21)
(241.457 -11.0369 2.33614e-16)
(240.175 -11.2941 7.20733e-21)
(238.799 -11.5659 7.21669e-21)
(237.387 -11.8171 2.38906e-16)
(235.919 -12.0737 -2.38942e-16)
(234.412 -12.3093 -8.62155e-23)
(232.864 -12.5511 -2.4249e-16)
(231.234 -12.772 0)
(229.592 -12.9969 0)
(227.809 -13.2081 -2.44424e-16)
(225.967 -13.4119 2.48588e-16)
(224.047 -13.6153 -3.82513e-21)
(221.951 -13.8 0)
(219.728 -13.9767 0)
(217.367 -14.1449 -5.14728e-16)
(214.758 -14.2956 -5.18216e-16)
(211.894 -14.4248 1.97807e-21)
(208.557 -14.5227 1.00973e-21)
(205.238 -14.6069 5.37729e-16)
(199.804 -14.5762 0)
(200.285 -14.4497 5.59919e-16)
(142.837 -12.2927 -6.91098e-15)
(286.341 425.99 2.36522e-17)
(455.989 358.978 -5.45766e-17)
(491.366 205.443 -1.74567e-17)
(434.664 149.27 -1.81743e-21)
(408.871 116.464 0)
(390.939 95.9542 2.94365e-17)
(377.015 81.3867 -3.35094e-17)
(366.263 70.5995 0)
(357.755 62.2439 0)
(351.022 55.5 0)
(345.722 49.9988 -4.86576e-17)
(341.287 45.2818 5.1452e-17)
(337.671 41.263 -5.69525e-17)
(334.426 37.688 -1.4387e-20)
(331.579 34.5138 1.57621e-20)
(328.874 31.6726 0)
(326.215 29.0182 7.03008e-17)
(323.758 26.6239 -7.28149e-17)
(321.342 24.3704 -1.47676e-16)
(319.162 22.3065 -2.36562e-21)
(316.997 20.3712 -3.77523e-20)
(314.947 18.5437 -8.07614e-17)
(312.935 16.8433 8.08862e-17)
(310.922 15.2154 8.19271e-17)
(308.975 13.6841 -8.34564e-17)
(306.986 12.2186 -8.25923e-17)
(305.064 10.824 -8.5166e-17)
(303.111 9.49985 -4.18568e-17)
(301.178 8.22824 1.50662e-22)
(299.232 7.0136 4.22199e-17)
(297.283 5.8535 -4.23585e-17)
(295.336 4.7339 0)
(293.367 3.67019 -4.20402e-17)
(291.401 2.63669 1.33662e-22)
(289.397 1.66034 -2.08022e-17)
(287.397 0.710198 -5.233e-18)
(285.347 -0.187333 2.00012e-20)
(283.29 -1.06129 -2.01483e-20)
(281.179 -1.88446 1.9671e-20)
(279.043 -2.68771 -4.02056e-17)
(276.874 -3.4377 -3.9668e-17)
(274.574 -4.18437 1.90947e-20)
(273.449 -4.82648 -4.80059e-17)
(272.397 -5.38004 -9.8039e-17)
(271.104 -5.88581 -9.91692e-17)
(269.725 -6.37968 -1.22637e-20)
(268.302 -6.83923 -1.01545e-16)
(266.893 -7.27406 1.02831e-16)
(265.479 -7.69398 1.03754e-16)
(264.081 -8.07972 0)
(262.687 -8.46336 0)
(261.305 -8.80823 0)
(259.933 -9.15708 -1.07485e-16)
(258.569 -9.47049 0)
(257.21 -9.78857 2.18103e-16)
(255.859 -10.0747 0)
(254.511 -10.3634 2.20925e-16)
(253.174 -10.6271 2.25723e-22)
(251.839 -10.8896 1.93524e-22)
(250.516 -11.1404 -2.26222e-16)
(249.194 -11.386 -2.25949e-16)
(247.886 -11.6519 6.97104e-21)
(246.488 -11.9333 -2.28354e-16)
(245.047 -12.1933 -4.62132e-16)
(243.551 -12.4591 -7.0647e-21)
(242.013 -12.703 -4.66176e-16)
(240.431 -12.9534 2.34505e-16)
(238.768 -13.1824 -2.34806e-16)
(237.084 -13.4151 -2.39018e-16)
(235.267 -13.6344 0)
(233.381 -13.8455 0)
(231.414 -14.0561 0)
(229.272 -14.248 0)
(226.995 -14.4312 3.74883e-21)
(224.574 -14.6055 -7.58633e-21)
(221.902 -14.7621 3.80849e-21)
(218.971 -14.8964 0)
(215.553 -14.9989 -5.09151e-16)
(212.148 -15.0845 -5.18488e-16)
(206.603 -15.0637 -5.18941e-16)
(206.924 -14.8528 -5.39875e-16)
(153.701 -13.371 5.93002e-15)
(286.09 426.544 -2.17088e-17)
(460.778 364.461 5.13797e-17)
(500.285 210.501 0)
(444.048 153.125 4.38358e-17)
(417.296 119.255 -2.60622e-17)
(398.966 98.1848 -2.9113e-17)
(384.816 83.261 3.30494e-17)
(373.894 72.2155 -3.66488e-17)
(365.263 63.6637 0)
(358.446 56.7644 -4.34684e-17)
(353.094 51.1386 3.17921e-20)
(348.645 46.3192 -2.40726e-20)
(345.023 42.2131 5.51654e-17)
(341.819 38.5654 5.63673e-17)
(339.013 35.3268 6.26744e-17)
(336.392 32.4317 -4.93055e-22)
(333.81 29.7257 3.27154e-20)
(331.413 27.2822 3.43571e-20)
(329.055 24.9813 7.09359e-17)
(326.901 22.871 -1.49689e-16)
(324.779 20.8929 -7.44032e-17)
(322.749 19.0229 -7.77706e-17)
(320.765 17.2832 -7.78856e-17)
(318.777 15.6171 -3.83821e-20)
(316.849 14.0489 0)
(314.887 12.5482 0)