/*--------------------------------*- C++ -*----------------------------------*\
| =========                 |                                                 |
| \\      /  F ield         | OpenFOAM: The Open Source CFD Toolbox           |
|  \\    /   O peration     | Version:  5.x                                   |
|   \\  /    A nd           | Web:      www.OpenFOAM.org                      |
|    \\/     M anipulation  |                                                 |
\*---------------------------------------------------------------------------*/
FoamFile
{
    version     2.0;
    format      ascii;
    class       volVectorField;
    location    "850";
    object      wallShearStress;
}
// * * * * * * * * * * * * * * * * * * * * * * * * * * * * * * * * * * * * * //

dimensions      [0 2 -2 0 0 0 0];

internalField   uniform (0 0 0);

boundaryField
{
    inlet
    {
        type            calculated;
        value           uniform (0 0 0);
    }
    outlet
    {
        type            calculated;
        value           uniform (0 0 0);
    }
    walls
    {
        type            calculated;
        value           nonuniform List<vector> 
164
(
(-629.357 -973.401 1.44445e-34)
(-1113.36 -857.916 -1.99565e-15)
(-1622.22 -659.496 -8.22895e-16)
(-1453.58 -487.463 2.21506e-15)
(-1360.56 -381.573 5.45008e-21)
(-1237.31 -299.527 1.50345e-15)
(-1114.28 -237.541 1.75267e-15)
(-1007.21 -191.884 -1.98373e-15)
(-915.122 -157.454 -6.62038e-33)
(-836.078 -130.794 2.37909e-15)
(-767.261 -109.819 -2.59447e-15)
(-708.206 -93.0186 -2.68183e-15)
(-655.203 -79.2539 2.25128e-20)
(-613.37 -68.4312 -2.89346e-15)
(-574.729 -59.2135 3.20568e-15)
(-547.908 -52.2307 3.11024e-15)
(-521.833 -45.9468 -3.23395e-15)
(-499.964 -40.6933 3.27694e-15)
(-481.254 -36.1267 3.23813e-15)
(-461.457 -31.9157 -3.40132e-15)
(-447.538 -28.4592 3.27739e-15)
(-431.312 -25.1199 6.51923e-21)
(-418.921 -22.2947 1.83859e-20)
(-407.376 -19.7053 -1.25459e-20)
(-395.546 -17.3046 -6.66852e-15)
(-387.141 -15.2154 3.19857e-15)
(-377.048 -13.1959 3.00927e-36)
(-368.412 -11.378 1.57634e-15)
(-360.874 -9.70517 -1.56658e-15)
(-353.771 -8.14671 0)
(-346.644 -6.68904 -1.14638e-20)
(-339.007 -5.30561 1.12756e-20)
(-332.941 -4.0478 1.0173e-20)
(-327.982 -2.85628 -2.14675e-20)
(-321.808 -1.74117 -6.86451e-16)
(-317.409 -0.68535 -1.15198e-35)
(-312.144 0.299716 8.12093e-17)
(-307.508 1.24096 -6.36728e-16)
(-303.891 2.12044 6.10902e-16)
(-300.627 2.97603 -1.18083e-15)
(-296.97 3.76521 2.25695e-35)
(-293.618 4.52839 4.40259e-15)
(-276.255 4.92003 3.00927e-35)
(-273.581 5.46011 -1.18955e-20)
(-269.118 5.89926 -2.94531e-15)
(-266.876 6.36702 5.5856e-21)
(-263.632 6.77432 -5.55081e-21)
(-260.412 7.14947 -2.92452e-15)
(-257.359 7.50908 5.84248e-15)
(-254.399 7.83212 2.92125e-15)
(-251.55 8.15167 5.57902e-21)
(-248.799 8.43227 -2.91615e-15)
(-246.139 8.71525 2.91224e-15)
(-243.56 8.96372 -5.5589e-21)
(-241.079 9.21713 -1.9408e-23)
(-237.601 9.39645 -1.9365e-23)
(-235.337 9.62036 5.55653e-21)
(-233.875 9.85542 3.00927e-35)
(-230.846 10.0183 5.79766e-15)
(-229.375 10.2358 5.49927e-21)
(-227.406 10.4259 -5.69321e-15)
(-225.092 10.6166 5.72387e-15)
(-222.255 10.7952 -5.7189e-15)
(-220.562 11.0109 1.13769e-14)
(-217.631 11.1687 -5.69606e-15)
(-215.856 11.3663 5.64742e-15)
(-212.698 11.4961 -6.01853e-36)
(-210.274 11.6447 -2.70102e-21)
(-208.017 11.8076 -9.82416e-24)
(-205.72 11.9615 5.54868e-15)
(-201.926 12.0177 1.04673e-23)
(-199.449 12.1549 -2.68393e-21)
(-196.542 12.2572 -1.11217e-14)
(-192.318 12.2702 1.34897e-21)
(-188.515 12.3055 -1.14463e-14)
(-185.124 12.3653 1.72563e-31)
(-180.411 12.3271 2.28181e-14)
(-175.18 12.2457 6.86477e-22)
(-170.003 12.1565 -1.1723e-14)
(-162.589 11.9018 1.16454e-14)
(-162.537 12.1315 -1.19365e-14)
(-1.99652 0.90243 1.91075e-14)
(536.008 -1007.27 -3.85186e-34)
(-265.333 171.378 -1.2435e-14)
(-491.425 214.134 -1.92593e-34)
(-591.089 199.002 -1.89734e-32)
(-608.949 169.419 -2.1633e-31)
(-615.938 147.246 5.7978e-15)
(-621.902 130.339 2.18946e-20)
(-612.942 114.376 1.83671e-39)
(-594.229 99.8062 -3.45715e-20)
(-573.16 87.253 -5.59539e-15)
(-550.946 76.4947 -2.17581e-20)
(-535.381 67.9845 -5.47342e-15)
(-517.435 60.3172 2.16314e-20)
(-506.938 54.3085 -2.0111e-20)
(-491.156 48.424 -5.53964e-15)
(-481.016 43.7011 5.19866e-15)
(-468.06 39.1258 -1.99827e-20)
(-456.292 35.1047 5.1629e-15)
(-446.293 31.5172 -1.88812e-20)
(-433.425 28.0584 6.09733e-21)
(-425.802 25.1993 4.81406e-15)
(-414.654 22.3472 -6.01853e-35)
(-407.638 19.9357 -4.70303e-15)
(-399.365 17.6109 -4.61797e-15)
(-391.709 15.4812 -2.03526e-20)
(-386.755 13.5829 -4.30581e-15)
(-378.646 11.6956 -2.75288e-32)
(-373.709 10.0326 2.06408e-15)
(-368.675 8.45269 -4.04454e-15)
(-363.812 6.96021 -1.40629e-20)
(-357.774 5.54285 -1.90327e-15)
(-353.087 4.21615 -9.22701e-16)
(-349.829 2.98709 -1.34251e-20)
(-345.442 1.79193 4.28252e-16)
(-341.753 0.681483 2.04706e-16)
(-336.95 -0.387567 -2.4573e-20)
(-334.233 -1.38586 1.16803e-20)
(-330.989 -2.35125 7.42063e-16)
(-328.156 -3.25596 -1.41556e-15)
(-325.514 -4.13572 -1.04194e-20)
(-323.897 -4.96985 2.5834e-15)
(-321.459 -5.77097 -2.47725e-15)
(-304.86 -6.15286 1.6926e-32)
(-303.1 -6.72872 -3.23347e-15)
(-300.718 -7.22947 -3.20621e-15)
(-298.135 -7.70723 -3.20094e-15)
(-295.703 -8.14956 6.3479e-15)
(-293.271 -8.56025 -3.16319e-15)
(-290.979 -8.95736 -3.14088e-15)
(-288.759 -9.31547 3.1226e-15)
(-286.611 -9.67244 1.64569e-37)
(-284.558 -9.9885 3.08308e-15)
(-282.701 -10.3142 5.83705e-21)
(-280.862 -10.6008 6.08061e-15)
(-279.14 -10.8951 6.02633e-15)
(-277.387 -11.1547 -2.40741e-35)
(-275.842 -11.4241 2.02658e-31)
(-274.142 -11.6605 -5.63737e-21)
(-272.694 -11.9085 1.16562e-14)
(-270.976 -12.1193 5.648e-21)
(-268.993 -12.3213 -1.15304e-14)
(-267.386 -12.4798 -5.76058e-15)
(-266.454 -12.6558 -1.20371e-35)
(-264.474 -12.7676 -2.70334e-21)
(-263.622 -12.936 -5.56679e-15)
(-261.218 -13.0175 -5.57809e-15)
(-259.224 -13.1229 -5.59513e-15)
(-259.33 -13.3195 5.44525e-15)
(-257.876 -13.448 5.46838e-15)
(-255.632 -13.5327 2.57076e-21)
(-253.966 -13.6413 -9.5154e-32)
(-252.557 -13.7692 -1.30213e-21)
(-252.129 -13.9503 -5.22377e-15)
(-249.922 -14.0378 2.51061e-21)
(-248.339 -14.1616 5.25037e-15)
(-246.727 -14.2902 -2.472e-21)
(-244.828 -14.4047 1.21816e-21)
(-242.295 -14.4871 6.09773e-22)
(-239.656 -14.5668 -1.02415e-14)
(-235.505 -14.5592 1.01204e-14)
(-237.364 -14.8589 4.55293e-22)
(-27.1471 -2.09967 -1.93752e-14)
)
;
    }
    frontAndBack
    {
        type            empty;
    }
}


// ************************************************************************* //
