/*--------------------------------*- C++ -*----------------------------------*\
| =========                 |                                                 |
| \\      /  F ield         | OpenFOAM: The Open Source CFD Toolbox           |
|  \\    /   O peration     | Version:  5.x                                   |
|   \\  /    A nd           | Web:      www.OpenFOAM.org                      |
|    \\/     M anipulation  |                                                 |
\*---------------------------------------------------------------------------*/
FoamFile
{
    version     2.0;
    format      ascii;
    class       volScalarField;
    location    "500";
    object      p;
}
// * * * * * * * * * * * * * * * * * * * * * * * * * * * * * * * * * * * * * //

dimensions      [0 2 -2 0 0 0 0];

internalField   nonuniform List<scalar> 
107912
(
2.37311e-05
0.000102926
5.51416e-05
5.74613e-05
1.91092e-05
4.31626e-06
2.96031e-05
1.34742e-05
2.53579e-05
2.3796e-05
3.03789e-05
3.35471e-05
3.86782e-05
4.31171e-05
4.7774e-05
5.22425e-05
5.66893e-05
6.08627e-05
6.49954e-05
6.87554e-05
7.24485e-05
7.58848e-05
7.90802e-05
8.21022e-05
8.48742e-05
8.74408e-05
8.98051e-05
9.19349e-05
9.38987e-05
9.56592e-05
9.72246e-05
9.86506e-05
9.99059e-05
0.000101019
0.000102011
0.000102877
0.000103644
0.000104315
0.000104899
0.000105415
0.000105862
0.000106255
0.000106597
0.000106892
0.000107146
0.000107357
0.000107533
0.000107679
0.00010781
0.000107939
0.000108079
0.000108236
0.000108397
0.000108545
0.000108691
0.000108819
0.000108921
0.000108984
0.000108995
0.000108949
0.00010884
0.00010867
0.000108446
0.000108174
0.000107872
0.00010755
0.000107221
0.000106902
0.000106597
0.000106321
0.000106073
0.000105855
0.000105671
0.000105511
0.000105377
0.000105261
0.000105151
0.000105048
0.000104932
0.000104809
0.000104655
0.000104474
0.000104248
0.000103974
0.000103642
0.000103245
0.000102778
0.000102234
0.00010161
0.000100902
0.000100106
9.92103e-05
9.82453e-05
9.71547e-05
9.60656e-05
9.47734e-05
9.37032e-05
9.21154e-05
9.14153e-05
8.90952e-05
8.98733e-05
8.18154e-05
3.39409e-05
0.000102938
5.50202e-05
5.739e-05
1.92486e-05
4.44808e-06
2.96223e-05
1.35286e-05
2.53753e-05
2.38152e-05
3.03805e-05
3.35457e-05
3.86695e-05
4.31054e-05
4.77599e-05
5.2227e-05
5.66731e-05
6.08464e-05
6.49791e-05
6.87399e-05
7.24337e-05
7.58708e-05
7.90673e-05
8.20902e-05
8.48632e-05
8.74308e-05
8.97961e-05
9.19268e-05
9.38915e-05
9.56528e-05
9.72189e-05
9.86456e-05
9.99015e-05
0.000101015
0.000102008
0.000102875
0.000103642
0.000104313
0.000104897
0.000105414
0.000105861
0.000106254
0.000106596
0.000106891
0.000107145
0.000107356
0.000107532
0.000107679
0.00010781
0.000107938
0.000108078
0.000108236
0.000108397
0.000108544
0.000108691
0.000108818
0.00010892
0.000108984
0.000108995
0.000108949
0.00010884
0.00010867
0.000108446
0.000108175
0.000107872
0.00010755
0.000107221
0.000106903
0.000106598
0.000106321
0.000106073
0.000105855
0.000105671
0.000105511
0.000105377
0.000105262
0.000105151
0.000105048
0.000104933
0.000104809
0.000104655
0.000104475
0.000104249
0.000103975
0.000103643
0.000103246
0.00010278
0.000102235
0.000101611
0.000100904
0.000100108
9.92122e-05
9.82473e-05
9.71567e-05
9.60678e-05
9.47755e-05
9.37055e-05
9.21171e-05
9.14179e-05
8.90945e-05
8.98783e-05
8.20251e-05
3.575e-05
0.000102951
5.48816e-05
5.73094e-05
1.94066e-05
4.61055e-06
2.96521e-05
1.35927e-05
2.5402e-05
2.38414e-05
3.03881e-05
3.35487e-05
3.86642e-05
4.30962e-05
4.77479e-05
5.22127e-05
5.6658e-05
6.08309e-05
6.49634e-05
6.87248e-05
7.2419e-05
7.58569e-05
7.90543e-05
8.20782e-05
8.48521e-05
8.74207e-05
8.97869e-05
9.19186e-05
9.38841e-05
9.56462e-05
9.72131e-05
9.86404e-05
9.9897e-05
0.000101011
0.000102004
0.000102871
0.000103639
0.00010431
0.000104895
0.000105412
0.000105859
0.000106252
0.000106595
0.00010689
0.000107144
0.000107355
0.000107532
0.000107678
0.000107809
0.000107937
0.000108078
0.000108235
0.000108396
0.000108543
0.00010869
0.000108818
0.00010892
0.000108983
0.000108995
0.000108949
0.00010884
0.00010867
0.000108446
0.000108175
0.000107873
0.000107551
0.000107222
0.000106904
0.000106598
0.000106322
0.000106074
0.000105856
0.000105672
0.000105512
0.000105377
0.000105262
0.000105152
0.000105049
0.000104933
0.00010481
0.000104656
0.000104475
0.00010425
0.000103976
0.000103644
0.000103248
0.000102781
0.000102236
0.000101613
0.000100905
0.00010011
9.92141e-05
9.82494e-05
9.71589e-05
9.60701e-05
9.47776e-05
9.37079e-05
9.21188e-05
9.14206e-05
8.90935e-05
8.98828e-05
8.20615e-05
3.56226e-05
0.000102961
5.47441e-05
5.72261e-05
1.95669e-05
4.77876e-06
2.96842e-05
1.36597e-05
2.54299e-05
2.38692e-05
3.03964e-05
3.35524e-05
3.86594e-05
4.30874e-05
4.77359e-05
5.21986e-05
5.66427e-05
6.08152e-05
6.49475e-05
6.87095e-05
7.24041e-05
7.58429e-05
7.90412e-05
8.20659e-05
8.48409e-05
8.74105e-05
8.97776e-05
9.19102e-05
9.38766e-05
9.56395e-05
9.72072e-05
9.86352e-05
9.98923e-05
0.000101007
0.000102001
0.000102868
0.000103636
0.000104308
0.000104893
0.00010541
0.000105857
0.000106251
0.000106594
0.000106889
0.000107143
0.000107355
0.000107531
0.000107677
0.000107809
0.000107937
0.000108077
0.000108235
0.000108396
0.000108543
0.00010869
0.000108817
0.00010892
0.000108983
0.000108995
0.000108949
0.00010884
0.000108671
0.000108447
0.000108176
0.000107873
0.000107552
0.000107222
0.000106904
0.000106599
0.000106322
0.000106074
0.000105856
0.000105672
0.000105512
0.000105378
0.000105262
0.000105152
0.000105049
0.000104933
0.00010481
0.000104656
0.000104476
0.00010425
0.000103976
0.000103645
0.000103249
0.000102782
0.000102238
0.000101614
0.000100907
0.000100112
9.9216e-05
9.82516e-05
9.71609e-05
9.60724e-05
9.47797e-05
9.37102e-05
9.21205e-05
9.14232e-05
8.90923e-05
8.98871e-05
8.20729e-05
3.57913e-05
0.000102967
5.46056e-05
5.71383e-05
1.97349e-05
4.95584e-06
2.97189e-05
1.37315e-05
2.54592e-05
2.38989e-05
3.04053e-05
3.35564e-05
3.86543e-05
4.30779e-05
4.77233e-05
5.21835e-05
5.66265e-05
6.07986e-05
6.49306e-05
6.86933e-05
7.23883e-05
7.58279e-05
7.90273e-05
8.2053e-05
8.48288e-05
8.73996e-05
8.97676e-05
9.19013e-05
9.38686e-05
9.56324e-05
9.72009e-05
9.86296e-05
9.98874e-05
0.000101003
0.000101997
0.000102865
0.000103633
0.000104305
0.00010489
0.000105408
0.000105856
0.000106249
0.000106592
0.000106888
0.000107142
0.000107354
0.00010753
0.000107677
0.000107808
0.000107936
0.000108077
0.000108234
0.000108395
0.000108542
0.000108689
0.000108817
0.000108919
0.000108983
0.000108994
0.000108949
0.00010884
0.000108671
0.000108447
0.000108176
0.000107874
0.000107552
0.000107223
0.000106905
0.000106599
0.000106323
0.000106075
0.000105856
0.000105673
0.000105512
0.000105378
0.000105263
0.000105152
0.000105049
0.000104934
0.00010481
0.000104657
0.000104476
0.000104251
0.000103977
0.000103646
0.00010325
0.000102784
0.000102239
0.000101616
0.000100909
0.000100114
9.9218e-05
9.82539e-05
9.71633e-05
9.60749e-05
9.4782e-05
9.37127e-05
9.21224e-05
9.14262e-05
8.90913e-05
8.98917e-05
8.20948e-05
3.61899e-05
0.00010297
5.44641e-05
5.70456e-05
1.99135e-05
5.1449e-06
2.97569e-05
1.38092e-05
2.549e-05
2.39311e-05
3.04145e-05
3.35607e-05
3.86486e-05
4.30678e-05
4.77095e-05
5.21672e-05
5.66091e-05
6.07807e-05
6.49123e-05
6.86757e-05
7.23713e-05
7.58117e-05
7.90122e-05
8.20389e-05
8.48159e-05
8.73878e-05
8.97569e-05
9.18916e-05
9.386e-05
9.56247e-05
9.7194e-05
9.86235e-05
9.98821e-05
0.000100998
0.000101993
0.000102861
0.00010363
0.000104303
0.000104888
0.000105406
0.000105854
0.000106248
0.000106591
0.000106886
0.000107141
0.000107353
0.000107529
0.000107676
0.000107807
0.000107936
0.000108076
0.000108233
0.000108394
0.000108542
0.000108689
0.000108816
0.000108919
0.000108982
0.000108994
0.000108949
0.00010884
0.000108671
0.000108448
0.000108177
0.000107875
0.000107553
0.000107224
0.000106906
0.0001066
0.000106324
0.000106075
0.000105857
0.000105673
0.000105513
0.000105378
0.000105263
0.000105153
0.00010505
0.000104934
0.000104811
0.000104658
0.000104477
0.000104252
0.000103978
0.000103647
0.000103251
0.000102785
0.000102241
0.000101618
0.000100911
0.000100116
9.92202e-05
9.82564e-05
9.71657e-05
9.60775e-05
9.47844e-05
9.37154e-05
9.21243e-05
9.14292e-05
8.90901e-05
8.98966e-05
8.21222e-05
3.66236e-05
0.000102967
5.43217e-05
5.69486e-05
2.01049e-05
5.34808e-06
2.97989e-05
1.38938e-05
2.55232e-05
2.39663e-05
3.04247e-05
3.35658e-05
3.86429e-05
4.30572e-05
4.76951e-05
5.21499e-05
5.65905e-05
6.07615e-05
6.48929e-05
6.8657e-05
7.23531e-05
7.57945e-05
7.89961e-05
8.20239e-05
8.48021e-05
8.73752e-05
8.97455e-05
9.18813e-05
9.38508e-05
9.56165e-05
9.71867e-05
9.86171e-05
9.98764e-05
0.000100993
0.000101989
0.000102857
0.000103627
0.0001043
0.000104885
0.000105403
0.000105852
0.000106246
0.000106589
0.000106885
0.00010714
0.000107352
0.000107528
0.000107675
0.000107806
0.000107935
0.000108075
0.000108233
0.000108394
0.000108541
0.000108688
0.000108815
0.000108918
0.000108982
0.000108994
0.000108949
0.000108841
0.000108671
0.000108448
0.000108177
0.000107875
0.000107554
0.000107225
0.000106906
0.000106601
0.000106324
0.000106076
0.000105857
0.000105673
0.000105513
0.000105379
0.000105263
0.000105153
0.00010505
0.000104935
0.000104811
0.000104658
0.000104478
0.000104253
0.000103979
0.000103648
0.000103252
0.000102787
0.000102243
0.00010162
0.000100913
0.000100118
9.92225e-05
9.82591e-05
9.71684e-05
9.60804e-05
9.47871e-05
9.37183e-05
9.21265e-05
9.14326e-05
8.9089e-05
8.99017e-05
8.21515e-05
3.70682e-05
0.000102957
5.41794e-05
5.68485e-05
2.03104e-05
5.56646e-06
2.98447e-05
1.39857e-05
2.55583e-05
2.40045e-05
3.04356e-05
3.35715e-05
3.86367e-05
4.3046e-05
4.76795e-05
5.21315e-05
5.65706e-05
6.0741e-05
6.4872e-05
6.86368e-05
7.23335e-05
7.57759e-05
7.89787e-05
8.20078e-05
8.47872e-05
8.73617e-05
8.97332e-05
9.18703e-05
9.38408e-05
9.56077e-05
9.71789e-05
9.86101e-05
9.98703e-05
0.000100988
0.000101984
0.000102853
0.000103623
0.000104297
0.000104882
0.000105401
0.00010585
0.000106244
0.000106588
0.000106884
0.000107139
0.000107351
0.000107527
0.000107674
0.000107806
0.000107934
0.000108074
0.000108232
0.000108393
0.00010854
0.000108687
0.000108815
0.000108918
0.000108982
0.000108994
0.000108948
0.000108841
0.000108672
0.000108448
0.000108178
0.000107876
0.000107554
0.000107225
0.000106907
0.000106602
0.000106325
0.000106076
0.000105858
0.000105674
0.000105514
0.000105379
0.000105264
0.000105154
0.00010505
0.000104935
0.000104812
0.000104659
0.000104479
0.000104254
0.00010398
0.00010365
0.000103254
0.000102788
0.000102244
0.000101622
0.000100915
0.000100121
9.92251e-05
9.8262e-05
9.71712e-05
9.60835e-05
9.47899e-05
9.37214e-05
9.21288e-05
9.14362e-05
8.90877e-05
8.9907e-05
8.21826e-05
3.75369e-05
0.000102939
5.404e-05
5.67465e-05
2.05331e-05
5.80263e-06
2.98952e-05
1.40861e-05
2.55961e-05
2.40464e-05
3.04477e-05
3.35782e-05
3.86304e-05
4.30343e-05
4.76632e-05
5.2112e-05
5.65495e-05
6.07192e-05
6.48498e-05
6.86154e-05
7.23127e-05
7.57562e-05
7.89603e-05
8.19906e-05
8.47713e-05
8.73473e-05
8.972e-05
9.18585e-05
9.38303e-05
9.55982e-05
9.71705e-05
9.86027e-05
9.98637e-05
0.000100982
0.000101979
0.000102849
0.000103619
0.000104293
0.000104879
0.000105398
0.000105847
0.000106242
0.000106586
0.000106882
0.000107137
0.000107349
0.000107526
0.000107673
0.000107805
0.000107933
0.000108074
0.000108231
0.000108392
0.00010854
0.000108686
0.000108814
0.000108917
0.000108981
0.000108993
0.000108948
0.000108841
0.000108672
0.000108449
0.000108178
0.000107877
0.000107555
0.000107226
0.000106908
0.000106602
0.000106326
0.000106077
0.000105859
0.000105675
0.000105514
0.00010538
0.000105264
0.000105154
0.000105051
0.000104936
0.000104813
0.00010466
0.000104479
0.000104255
0.000103981
0.000103651
0.000103255
0.00010279
0.000102247
0.000101625
0.000100917
0.000100124
9.92279e-05
9.82651e-05
9.71743e-05
9.60868e-05
9.47929e-05
9.37248e-05
9.21313e-05
9.14401e-05
8.90866e-05
8.99126e-05
8.22163e-05
3.8044e-05
0.00010291
5.39054e-05
5.66442e-05
2.07757e-05
6.05852e-06
2.99503e-05
1.41958e-05
2.56364e-05
2.40921e-05
3.04607e-05
3.35856e-05
3.86239e-05
4.3022e-05
4.76457e-05
5.20912e-05
5.65269e-05
6.06959e-05
6.48261e-05
6.85925e-05
7.22904e-05
7.5735e-05
7.89405e-05
8.19721e-05
8.47543e-05
8.73317e-05
8.97059e-05
9.18458e-05
9.38189e-05
9.55881e-05
9.71615e-05
9.85947e-05
9.98567e-05
0.000100976
0.000101973
0.000102844
0.000103615
0.000104289
0.000104876
0.000105396
0.000105845
0.00010624
0.000106584
0.00010688
0.000107136
0.000107348
0.000107525
0.000107672
0.000107804
0.000107932
0.000108073
0.00010823
0.000108391
0.000108539
0.000108686
0.000108813
0.000108916
0.000108981
0.000108993
0.000108948
0.000108841
0.000108672
0.000108449
0.000108179
0.000107878
0.000107556
0.000107227
0.000106909
0.000106603
0.000106327
0.000106078
0.000105859
0.000105675
0.000105515
0.00010538
0.000105264
0.000105154
0.000105051
0.000104936
0.000104813
0.00010466
0.00010448
0.000104256
0.000103983
0.000103653
0.000103257
0.000102792
0.000102249
0.000101627
0.00010092
0.000100127
9.92308e-05
9.82684e-05
9.71775e-05
9.60903e-05
9.47962e-05
9.37284e-05
9.21339e-05
9.14441e-05
8.90853e-05
8.99183e-05
8.22526e-05
3.85957e-05
0.000102867
5.37793e-05
5.65438e-05
2.10427e-05
6.33794e-06
3.0011e-05
1.43164e-05
2.56801e-05
2.41425e-05
3.04753e-05
3.35945e-05
3.86173e-05
4.30093e-05
4.76275e-05
5.20692e-05
5.6503e-05
6.06712e-05
6.48009e-05
6.85681e-05
7.22666e-05
7.57124e-05
7.89194e-05
8.19525e-05
8.47362e-05
8.73152e-05
8.96909e-05
9.18323e-05
9.38068e-05
9.55773e-05
9.71519e-05
9.85862e-05
9.98492e-05
0.000100969
0.000101967
0.000102839
0.000103611
0.000104286
0.000104873
0.000105393
0.000105842
0.000106237
0.000106582
0.000106879
0.000107134
0.000107347
0.000107524
0.000107671
0.000107803
0.000107931
0.000108072
0.000108229
0.00010839
0.000108538
0.000108685
0.000108813
0.000108916
0.00010898
0.000108993
0.000108948
0.000108841
0.000108673
0.00010845
0.00010818
0.000107879
0.000107557
0.000107228
0.00010691
0.000106604
0.000106327
0.000106079
0.00010586
0.000105676
0.000105515
0.000105381
0.000105265
0.000105155
0.000105052
0.000104937
0.000104814
0.000104661
0.000104481
0.000104257
0.000103984
0.000103654
0.000103259
0.000102794
0.000102251
0.00010163
0.000100923
0.00010013
9.9234e-05
9.82719e-05
9.71811e-05
9.60942e-05
9.47997e-05
9.37323e-05
9.21367e-05
9.14486e-05
8.90842e-05
8.99243e-05
8.22919e-05
3.92031e-05
0.000102809
5.3665e-05
5.64478e-05
2.13382e-05
6.64403e-06
3.00774e-05
1.44491e-05
2.5727e-05
2.41979e-05
3.04911e-05
3.36046e-05
3.86106e-05
4.29961e-05
4.7608e-05
5.20459e-05
5.64775e-05
6.06448e-05
6.47739e-05
6.8542e-05
7.22412e-05
7.56883e-05
7.88968e-05
8.19313e-05
8.47168e-05
8.72975e-05
8.96748e-05
9.18177e-05
9.37938e-05
9.55656e-05
9.71416e-05
9.85771e-05
9.98412e-05
0.000100962
0.000101961
0.000102834
0.000103606
0.000104281
0.000104869
0.000105389
0.000105839
0.000106235
0.000106579
0.000106877
0.000107132
0.000107345
0.000107523
0.00010767
0.000107802
0.00010793
0.000108071
0.000108228
0.000108389
0.000108537
0.000108684
0.000108812
0.000108915
0.00010898
0.000108992
0.000108948
0.000108841
0.000108673
0.000108451
0.000108181
0.000107879
0.000107558
0.000107229
0.000106911
0.000106605
0.000106328
0.00010608
0.000105861
0.000105676
0.000105516
0.000105381
0.000105265
0.000105155
0.000105052
0.000104937
0.000104815
0.000104662
0.000104482
0.000104258
0.000103986
0.000103656
0.000103261
0.000102797
0.000102254
0.000101633
0.000100926
0.000100133
9.92375e-05
9.82757e-05
9.71848e-05
9.60982e-05
9.48034e-05
9.37365e-05
9.21397e-05
9.14533e-05
8.9083e-05
8.99304e-05
8.23344e-05
3.98757e-05
0.000102733
5.35679e-05
5.63597e-05
2.16688e-05
6.98211e-06
3.01509e-05
1.45962e-05
2.57782e-05
2.42593e-05
3.05092e-05
3.36166e-05
3.86041e-05
4.29827e-05
4.75879e-05
5.20215e-05
5.64507e-05
6.06169e-05
6.47454e-05
6.85143e-05
7.22142e-05
7.56626e-05
7.88729e-05
8.19089e-05
8.46961e-05
8.72786e-05
8.96575e-05
9.18023e-05
9.37799e-05
9.55533e-05
9.71306e-05
9.85673e-05
9.98326e-05
0.000100955
0.000101955
0.000102828
0.000103601
0.000104277
0.000104865
0.000105386
0.000105836
0.000106232
0.000106577
0.000106874
0.000107131
0.000107344
0.000107521
0.000107669
0.000107801
0.000107929
0.00010807
0.000108227
0.000108388
0.000108536
0.000108683
0.000108811
0.000108914
0.000108979
0.000108992
0.000108948
0.000108841
0.000108674
0.000108451
0.000108182
0.000107881
0.000107559
0.000107231
0.000106912
0.000106606
0.000106329
0.00010608
0.000105861
0.000105677
0.000105516
0.000105382
0.000105266
0.000105156
0.000105053
0.000104938
0.000104815
0.000104663
0.000104484
0.00010426
0.000103987
0.000103658
0.000103263
0.000102799
0.000102256
0.000101636
0.000100929
0.000100137
9.92412e-05
9.82798e-05
9.71889e-05
9.61026e-05
9.48075e-05
9.3741e-05
9.21429e-05
9.14584e-05
8.90819e-05
8.99367e-05
8.23802e-05
4.06274e-05
0.000102635
5.34927e-05
5.62827e-05
2.20404e-05
7.35696e-06
3.02318e-05
1.47593e-05
2.58339e-05
2.43274e-05
3.0529e-05
3.36304e-05
3.85977e-05
4.29689e-05
4.75665e-05
5.19956e-05
5.64222e-05
6.05872e-05
6.47149e-05
6.84848e-05
7.21853e-05
7.56352e-05
7.88471e-05
8.18849e-05
8.46739e-05
8.72584e-05
8.96392e-05
9.17857e-05
9.3765e-05
9.554e-05
9.71188e-05
9.85569e-05
9.98233e-05
0.000100947
0.000101947
0.000102821
0.000103595
0.000104272
0.000104861
0.000105382
0.000105833
0.000106229
0.000106574
0.000106872
0.000107129
0.000107342
0.00010752
0.000107668
0.000107799
0.000107928
0.000108068
0.000108226
0.000108387
0.000108534
0.000108682
0.00010881
0.000108913
0.000108978
0.000108991
0.000108948
0.000108841
0.000108674
0.000108452
0.000108183
0.000107882
0.000107561
0.000107232
0.000106913
0.000106608
0.00010633
0.000106081
0.000105862
0.000105678
0.000105517
0.000105382
0.000105266
0.000105157
0.000105054
0.000104939
0.000104816
0.000104664
0.000104485
0.000104261
0.000103989
0.00010366
0.000103266
0.000102802
0.000102259
0.000101639
0.000100933
0.000100141
9.92452e-05
9.82841e-05
9.71932e-05
9.61073e-05
9.48117e-05
9.37458e-05
9.21463e-05
9.14638e-05
8.90807e-05
8.99432e-05
8.24294e-05
4.1471e-05
0.000102514
5.3447e-05
5.62219e-05
2.24619e-05
7.77605e-06
3.03223e-05
1.49419e-05
2.58957e-05
2.44037e-05
3.0552e-05
3.36469e-05
3.85919e-05
4.29551e-05
4.75444e-05
5.19685e-05
5.63922e-05
6.05558e-05
6.46828e-05
6.84535e-05
7.21548e-05
7.56061e-05
7.88199e-05
8.18594e-05
8.46504e-05
8.72369e-05
8.96195e-05
9.1768e-05
9.37492e-05
9.55258e-05
9.71062e-05
9.85457e-05
9.98135e-05
0.000100938
0.00010194
0.000102815
0.000103589
0.000104267
0.000104856
0.000105378
0.000105829
0.000106226
0.000106572
0.00010687
0.000107126
0.00010734
0.000107518
0.000107666
0.000107798
0.000107927
0.000108067
0.000108225
0.000108386
0.000108533
0.00010868
0.000108809
0.000108912
0.000108978
0.000108991
0.000108948
0.000108842
0.000108674
0.000108453
0.000108184
0.000107883
0.000107562
0.000107233
0.000106915
0.000106609
0.000106332
0.000106083
0.000105863
0.000105679
0.000105518
0.000105383
0.000105267
0.000105157
0.000105054
0.00010494
0.000104817
0.000104665
0.000104486
0.000104263
0.000103991
0.000103662
0.000103268
0.000102805
0.000102263
0.000101643
0.000100936
0.000100145
9.92495e-05
9.82888e-05
9.71979e-05
9.61123e-05
9.48164e-05
9.37509e-05
9.21501e-05
9.14696e-05
8.90798e-05
8.99498e-05
8.24823e-05
4.24228e-05
0.000102365
5.34381e-05
5.6182e-05
2.29419e-05
8.24644e-06
3.04235e-05
1.51465e-05
2.59639e-05
2.4489e-05
3.05778e-05
3.36661e-05
3.85866e-05
4.29413e-05
4.75213e-05
5.19401e-05
5.63604e-05
6.05225e-05
6.46485e-05
6.84202e-05
7.21221e-05
7.5575e-05
7.87907e-05
8.18321e-05
8.46252e-05
8.72138e-05
8.95986e-05
9.17491e-05
9.37322e-05
9.55107e-05
9.70927e-05
9.85338e-05
9.98029e-05
0.000100929
0.000101932
0.000102807
0.000103583
0.000104261
0.000104851
0.000105374
0.000105826
0.000106223
0.000106569
0.000106867
0.000107124
0.000107338
0.000107516
0.000107665
0.000107797
0.000107925
0.000108066
0.000108223
0.000108384
0.000108532
0.000108679
0.000108808
0.000108911
0.000108977
0.00010899
0.000108947
0.000108842
0.000108675
0.000108454
0.000108185
0.000107884
0.000107563
0.000107235
0.000106916
0.00010661
0.000106333
0.000106084
0.000105864
0.00010568
0.000105518
0.000105384
0.000105268
0.000105158
0.000105055
0.00010494
0.000104818
0.000104666
0.000104487
0.000104264
0.000103993
0.000103665
0.000103271
0.000102808
0.000102266
0.000101647
0.00010094
0.000100149
9.92541e-05
9.82938e-05
9.72029e-05
9.61176e-05
9.48213e-05
9.37564e-05
9.2154e-05
9.14757e-05
8.90789e-05
8.99566e-05
8.2539e-05
4.34991e-05
0.000102188
5.3476e-05
5.61696e-05
2.34917e-05
8.77829e-06
3.05383e-05
1.53779e-05
2.60407e-05
2.45854e-05
3.0608e-05
3.36893e-05
3.85825e-05
4.29279e-05
4.74977e-05
5.19105e-05
5.63273e-05
6.04875e-05
6.46125e-05
6.8385e-05
7.20876e-05
7.55421e-05
7.87598e-05
8.18032e-05
8.45985e-05
8.71894e-05
8.95763e-05
9.1729e-05
9.37141e-05
9.54945e-05
9.70784e-05
9.8521e-05
9.97917e-05
0.000100919
0.000101923
0.0001028
0.000103576
0.000104255
0.000104846
0.000105369
0.000105822
0.000106219
0.000106566
0.000106864
0.000107122
0.000107336
0.000107514
0.000107663
0.000107795
0.000107924
0.000108064
0.000108222
0.000108383
0.00010853
0.000108678
0.000108806
0.00010891
0.000108976
0.00010899
0.000108947
0.000108842
0.000108675
0.000108454
0.000108186
0.000107885
0.000107565
0.000107236
0.000106918
0.000106612
0.000106334
0.000106085
0.000105865
0.000105681
0.000105519
0.000105385
0.000105268
0.000105159
0.000105056
0.000104941
0.000104819
0.000104668
0.000104489
0.000104266
0.000103995
0.000103667
0.000103274
0.000102811
0.00010227
0.000101651
0.000100945
0.000100154
9.9259e-05
9.82992e-05
9.72083e-05
9.61234e-05
9.48267e-05
9.37623e-05
9.21583e-05
9.14825e-05
8.90783e-05
8.99636e-05
8.25997e-05
4.47183e-05
0.000101979
5.35711e-05
5.61909e-05
2.41227e-05
9.38146e-06
3.06695e-05
1.56403e-05
2.61274e-05
2.46947e-05
3.06429e-05
3.37166e-05
3.85796e-05
4.2915e-05
4.74732e-05
5.18797e-05
5.62923e-05
6.04505e-05
6.45742e-05
6.83476e-05
7.20508e-05
7.55071e-05
7.87268e-05
8.17723e-05
8.457e-05
8.71633e-05
8.95525e-05
9.17075e-05
9.36948e-05
9.54773e-05
9.7063e-05
9.85074e-05
9.97797e-05
0.000100908
0.000101913
0.000102792
0.000103569
0.000104249
0.000104841
0.000105364
0.000105817
0.000106215
0.000106562
0.000106861
0.000107119
0.000107334
0.000107512
0.000107661
0.000107793
0.000107922
0.000108063
0.00010822
0.000108381
0.000108529
0.000108676
0.000108805
0.000108909
0.000108975
0.000108989
0.000108947
0.000108842
0.000108676
0.000108455
0.000108187
0.000107887
0.000107566
0.000107238
0.000106919
0.000106613
0.000106336
0.000106086
0.000105867
0.000105682
0.00010552
0.000105385
0.000105269
0.000105159
0.000105057
0.000104942
0.00010482
0.000104669
0.000104491
0.000104268
0.000103997
0.00010367
0.000103277
0.000102815
0.000102274
0.000101655
0.00010095
0.000100159
9.92643e-05
9.83049e-05
9.72139e-05
9.61295e-05
9.48323e-05
9.37686e-05
9.21628e-05
9.14894e-05
8.90778e-05
8.99707e-05
8.26644e-05
4.60991e-05
0.000101738
5.37367e-05
5.62546e-05
2.48491e-05
1.00694e-05
3.08216e-05
1.59402e-05
2.6227e-05
2.48198e-05
3.06844e-05
3.37498e-05
3.85788e-05
4.29031e-05
4.74486e-05
5.1848e-05
5.6256e-05
6.04118e-05
6.45341e-05
6.83081e-05
7.20121e-05
7.54701e-05
7.8692e-05
8.17396e-05
8.45398e-05
8.71356e-05
8.95272e-05
9.16847e-05
9.36743e-05
9.54589e-05
9.70466e-05
9.84929e-05
9.97668e-05
0.000100897
0.000101904
0.000102783
0.000103561
0.000104242
0.000104835
0.000105359
0.000105813
0.000106211
0.000106559
0.000106858
0.000107116
0.000107331
0.00010751
0.000107659
0.000107792
0.000107921
0.000108061
0.000108218
0.00010838
0.000108527
0.000108674
0.000108803
0.000108908
0.000108974
0.000108989
0.000108947
0.000108842
0.000108676
0.000108456
0.000108188
0.000107888
0.000107568
0.00010724
0.000106921
0.000106615
0.000106337
0.000106088
0.000105868
0.000105683
0.000105521
0.000105386
0.00010527
0.00010516
0.000105058
0.000104943
0.000104822
0.000104671
0.000104492
0.000104271
0.000104
0.000103673
0.00010328
0.000102819
0.000102278
0.00010166
0.000100955
0.000100165
9.927e-05
9.83111e-05
9.72202e-05
9.61361e-05
9.48384e-05
9.37754e-05
9.21678e-05
9.14971e-05
8.90777e-05
8.99781e-05
8.27333e-05
4.7661e-05
0.000101464
5.39866e-05
5.63687e-05
2.56846e-05
1.08552e-05
3.09993e-05
1.62841e-05
2.63418e-05
2.49633e-05
3.07334e-05
3.37893e-05
3.85806e-05
4.28927e-05
4.74236e-05
5.18152e-05
5.62178e-05
6.0371e-05
6.44917e-05
6.82664e-05
7.19709e-05
7.54307e-05
7.86548e-05
8.17047e-05
8.45076e-05
8.7106e-05
8.95002e-05
9.16604e-05
9.36524e-05
9.54393e-05
9.70292e-05
9.84774e-05
9.97531e-05
0.000100885
0.000101893
0.000102773
0.000103553
0.000104235
0.000104828
0.000105353
0.000105808
0.000106207
0.000106555
0.000106855
0.000107113
0.000107329
0.000107508
0.000107657
0.00010779
0.000107919
0.000108059
0.000108217
0.000108378
0.000108526
0.000108673
0.000108802
0.000108906
0.000108973
0.000108988
0.000108946
0.000108842
0.000108677
0.000108457
0.00010819
0.00010789
0.00010757
0.000107242
0.000106923
0.000106617
0.000106339
0.000106089
0.000105869
0.000105684
0.000105522
0.000105387
0.000105271
0.000105161
0.000105059
0.000104945
0.000104823
0.000104672
0.000104494
0.000104273
0.000104003
0.000103676
0.000103284
0.000102823
0.000102283
0.000101665
0.00010096
0.000100171
9.92761e-05
9.83176e-05
9.72267e-05
9.61431e-05
9.48449e-05
9.37827e-05
9.2173e-05
9.15051e-05
8.90778e-05
8.99856e-05
8.28064e-05
4.94233e-05
0.000101159
5.43376e-05
5.65439e-05
2.66458e-05
1.17558e-05
3.12102e-05
1.66815e-05
2.64766e-05
2.51294e-05
3.07927e-05
3.38376e-05
3.85862e-05
4.28845e-05
4.73991e-05
5.17821e-05
5.61787e-05
6.03285e-05
6.44473e-05
6.82226e-05
7.19277e-05
7.53893e-05
7.86157e-05
8.1668e-05
8.44735e-05
8.70748e-05
8.94716e-05
9.16346e-05
9.36291e-05
9.54185e-05
9.70106e-05
9.84609e-05
9.97385e-05
0.000100872
0.000101881
0.000102763
0.000103544
0.000104227
0.000104821
0.000105347
0.000105802
0.000106202
0.00010655
0.000106851
0.00010711
0.000107326
0.000107506
0.000107655
0.000107788
0.000107917
0.000108057
0.000108215
0.000108376
0.000108524
0.000108671
0.0001088
0.000108905
0.000108972
0.000108987
0.000108946
0.000108842
0.000108678
0.000108458
0.000108191
0.000107892
0.000107572
0.000107244
0.000106925
0.000106619
0.000106341
0.000106091
0.000105871
0.000105685
0.000105523
0.000105388
0.000105272
0.000105162
0.00010506
0.000104946
0.000104824
0.000104674
0.000104496
0.000104275
0.000104006
0.00010368
0.000103288
0.000102827
0.000102288
0.000101671
0.000100966
0.000100177
9.92827e-05
9.83248e-05
9.72338e-05
9.61507e-05
9.4852e-05
9.37905e-05
9.21787e-05
9.15138e-05
8.90785e-05
8.99935e-05
8.28841e-05
5.14044e-05
0.000100827
5.48072e-05
5.67906e-05
2.77485e-05
1.27876e-05
3.14618e-05
1.7142e-05
2.66353e-05
2.53224e-05
3.0864e-05
3.38959e-05
3.85964e-05
4.28793e-05
4.73752e-05
5.17483e-05
5.61379e-05
6.02841e-05
6.44007e-05
6.81764e-05
7.18818e-05
7.53454e-05
7.8574e-05
8.16288e-05
8.44373e-05
8.70415e-05
8.94412e-05
9.16071e-05
9.36044e-05
9.53963e-05
9.69908e-05
9.84433e-05
9.9723e-05
0.000100858
0.000101869
0.000102753
0.000103535
0.000104219
0.000104814
0.000105341
0.000105797
0.000106197
0.000106546
0.000106847
0.000107107
0.000107323
0.000107503
0.000107653
0.000107786
0.000107915
0.000108055
0.000108213
0.000108374
0.000108522
0.000108669
0.000108798
0.000108903
0.00010897
0.000108986
0.000108945
0.000108843
0.000108678
0.000108459
0.000108193
0.000107894
0.000107574
0.000107246
0.000106927
0.000106621
0.000106343
0.000106093
0.000105872
0.000105687
0.000105525
0.000105389
0.000105273
0.000105163
0.000105061
0.000104947
0.000104826
0.000104676
0.000104499
0.000104278
0.000104009
0.000103684
0.000103292
0.000102832
0.000102293
0.000101676
0.000100972
0.000100184
9.92898e-05
9.83322e-05
9.72413e-05
9.61587e-05
9.48594e-05
9.37988e-05
9.21849e-05
9.1523e-05
8.90795e-05
9.00016e-05
8.29664e-05
5.36211e-05
0.000100473
5.54152e-05
5.7122e-05
2.90103e-05
1.39707e-05
3.17655e-05
1.76786e-05
2.68253e-05
2.55484e-05
3.09516e-05
3.39673e-05
3.86132e-05
4.28781e-05
4.73528e-05
5.17148e-05
5.60966e-05
6.02382e-05
6.43523e-05
6.81281e-05
7.18338e-05
7.52992e-05
7.85303e-05
8.15876e-05
8.43991e-05
8.70063e-05
8.9409e-05
9.1578e-05
9.35781e-05
9.53728e-05
9.69698e-05
9.84246e-05
9.97064e-05
0.000100843
0.000101856
0.000102741
0.000103525
0.00010421
0.000104806
0.000105334
0.000105791
0.000106191
0.000106541
0.000106843
0.000107103
0.00010732
0.0001075
0.00010765
0.000107783
0.000107913
0.000108053
0.00010821
0.000108372
0.000108519
0.000108667
0.000108796
0.000108902
0.000108969
0.000108985
0.000108945
0.000108843
0.000108679
0.000108461
0.000108194
0.000107896
0.000107576
0.000107248
0.00010693
0.000106623
0.000106345
0.000106095
0.000105874
0.000105688
0.000105526
0.000105391
0.000105274
0.000105164
0.000105062
0.000104949
0.000104828
0.000104678
0.000104501
0.000104281
0.000104012
0.000103688
0.000103297
0.000102838
0.000102299
0.000101683
0.000100979
0.000100191
9.92974e-05
9.83404e-05
9.72494e-05
9.61674e-05
9.48676e-05
9.38077e-05
9.21916e-05
9.15329e-05
8.90814e-05
9.00101e-05
8.30535e-05
5.60869e-05
0.000100105
5.61815e-05
5.75506e-05
3.04473e-05
1.53241e-05
3.21329e-05
1.83051e-05
2.70533e-05
2.58137e-05
3.10588e-05
3.40544e-05
3.8638e-05
4.28822e-05
4.73325e-05
5.16817e-05
5.60542e-05
6.01907e-05
6.43016e-05
6.80774e-05
7.17831e-05
7.52505e-05
7.84839e-05
8.15439e-05
8.43586e-05
8.6969e-05
8.93749e-05
9.1547e-05
9.35502e-05
9.53478e-05
9.69475e-05
9.84047e-05
9.96888e-05
0.000100828
0.000101843
0.000102729
0.000103514
0.0001042
0.000104798
0.000105327
0.000105784
0.000106186
0.000106536
0.000106838
0.000107099
0.000107316
0.000107497
0.000107648
0.000107781
0.00010791
0.000108051
0.000108208
0.000108369
0.000108517
0.000108664
0.000108794
0.0001089
0.000108967
0.000108984
0.000108945
0.000108843
0.00010868
0.000108462
0.000108196
0.000107898
0.000107579
0.000107251
0.000106932
0.000106626
0.000106347
0.000106097
0.000105876
0.00010569
0.000105528
0.000105392
0.000105275
0.000105166
0.000105063
0.00010495
0.00010483
0.00010468
0.000104504
0.000104284
0.000104016
0.000103692
0.000103302
0.000102843
0.000102305
0.00010169
0.000100986
0.000100199
9.93054e-05
9.8349e-05
9.72581e-05
9.61766e-05
9.48762e-05
9.38173e-05
9.21988e-05
9.15434e-05
8.90839e-05
9.00191e-05