/*--------------------------------*- C++ -*----------------------------------*\
| =========                 |                                                 |
| \\      /  F ield         | OpenFOAM: The Open Source CFD Toolbox           |
|  \\    /   O peration     | Version:  5.x                                   |
|   \\  /    A nd           | Web:      www.OpenFOAM.org                      |
|    \\/     M anipulation  |                                                 |
\*---------------------------------------------------------------------------*/
FoamFile
{
    version     2.0;
    format      ascii;
    class       volScalarField;
    location    "500";
    object      p;
}
// * * * * * * * * * * * * * * * * * * * * * * * * * * * * * * * * * * * * * //

dimensions      [0 2 -2 0 0 0 0];

internalField   nonuniform List<scalar> 
107912
(
1.59556e-06
7.59362e-05
7.84734e-06
-2.68679e-06
-6.83073e-05
-0.000104343
-7.03816e-05
-0.000105587
-9.48668e-05
-0.000104241
-0.000100882
-0.000101398
-9.89106e-05
-9.63754e-05
-9.3267e-05
-8.9864e-05
-8.59369e-05
-8.21785e-05
-7.78749e-05
-7.37614e-05
-6.94485e-05
-6.49652e-05
-6.05814e-05
-5.606e-05
-5.14627e-05
-4.69175e-05
-4.2265e-05
-3.76102e-05
-3.29478e-05
-2.82074e-05
-2.3531e-05
-1.87972e-05
-1.40321e-05
-9.32004e-06
-4.57456e-06
1.55752e-07
4.84043e-06
9.51401e-06
1.41112e-05
1.86619e-05
2.31395e-05
2.74953e-05
3.17601e-05
3.58769e-05
3.98488e-05
4.36496e-05
4.72478e-05
5.06542e-05
5.38279e-05
5.67805e-05
5.94876e-05
6.19551e-05
6.39537e-05
6.55863e-05
6.7042e-05
6.83362e-05
6.9494e-05
7.05144e-05
7.14222e-05
7.22271e-05
7.29388e-05
7.35692e-05
7.41263e-05
7.46191e-05
7.50543e-05
7.54388e-05
7.57789e-05
7.60798e-05
7.63463e-05
7.65833e-05
7.67954e-05
7.69862e-05
7.71593e-05
7.73175e-05
7.74603e-05
7.75892e-05
7.76969e-05
7.77826e-05
7.7842e-05
7.78753e-05
7.78838e-05
7.78701e-05
7.78446e-05
7.78103e-05
7.77837e-05
7.77657e-05
7.77733e-05
7.78024e-05
7.78712e-05
7.79647e-05
7.81073e-05
7.82588e-05
7.84688e-05
7.86318e-05
7.88831e-05
7.8939e-05
7.91901e-05
7.88854e-05
7.91195e-05
7.78572e-05
7.84661e-05
7.14614e-05
2.37628e-06
7.59117e-05
7.64823e-06
-2.82958e-06
-6.81159e-05
-0.000104143
-7.03471e-05
-0.000105483
-9.48196e-05
-0.000104187
-0.000100855
-0.000101376
-9.89012e-05
-9.63726e-05
-9.32694e-05
-8.98712e-05
-8.5947e-05
-8.21907e-05
-7.78893e-05
-7.37764e-05
-6.94646e-05
-6.4982e-05
-6.05981e-05
-5.60771e-05
-5.14798e-05
-4.69344e-05
-4.22818e-05
-3.76268e-05
-3.29641e-05
-2.82235e-05
-2.35466e-05
-1.88124e-05
-1.40471e-05
-9.33449e-06
-4.58863e-06
1.42151e-07
4.82732e-06
9.50135e-06
1.40991e-05
1.86503e-05
2.31284e-05
2.74848e-05
3.17502e-05
3.58675e-05
3.984e-05
4.36415e-05
4.72403e-05
5.06473e-05
5.38217e-05
5.67749e-05
5.94826e-05
6.19507e-05
6.39498e-05
6.55828e-05
6.7039e-05
6.83335e-05
6.94916e-05
7.05122e-05
7.14203e-05
7.22255e-05
7.29374e-05
7.3568e-05
7.41252e-05
7.46182e-05
7.50534e-05
7.54381e-05
7.57782e-05
7.60792e-05
7.63458e-05
7.65829e-05
7.6795e-05
7.69858e-05
7.7159e-05
7.73172e-05
7.74601e-05
7.7589e-05
7.76967e-05
7.77824e-05
7.7842e-05
7.78753e-05
7.78839e-05
7.78702e-05
7.78447e-05
7.78104e-05
7.77838e-05
7.77658e-05
7.77734e-05
7.78023e-05
7.78711e-05
7.79646e-05
7.81071e-05
7.82585e-05
7.84685e-05
7.86315e-05
7.88829e-05
7.89387e-05
7.91902e-05
7.88851e-05
7.91202e-05
7.78555e-05
7.84697e-05
7.17167e-05
2.66707e-06
7.58852e-05
7.421e-06
-2.99095e-06
-6.79033e-05
-0.000103903
-7.0301e-05
-0.000105367
-9.47603e-05
-0.000104123
-0.00010082
-0.000101348
-9.88866e-05
-9.63659e-05
-9.32685e-05
-8.98758e-05
-8.5955e-05
-8.22013e-05
-7.79026e-05
-7.37904e-05
-6.948e-05
-6.49983e-05
-6.06145e-05
-5.6094e-05
-5.14969e-05
-4.69512e-05
-4.22988e-05
-3.76434e-05
-3.29804e-05
-2.82397e-05
-2.35624e-05
-1.88279e-05
-1.40622e-05
-9.34915e-06
-4.60287e-06
1.28277e-07
4.81401e-06
9.48845e-06
1.40867e-05
1.86385e-05
2.31171e-05
2.74741e-05
3.174e-05
3.5858e-05
3.98311e-05
4.36332e-05
4.72327e-05
5.06404e-05
5.38154e-05
5.67692e-05
5.94775e-05
6.19462e-05
6.39459e-05
6.55793e-05
6.70359e-05
6.83307e-05
6.94891e-05
7.05101e-05
7.14184e-05
7.22238e-05
7.2936e-05
7.35667e-05
7.41241e-05
7.46172e-05
7.50526e-05
7.54373e-05
7.57776e-05
7.60787e-05
7.63453e-05
7.65824e-05
7.67946e-05
7.69855e-05
7.71587e-05
7.7317e-05
7.74599e-05
7.75888e-05
7.76966e-05
7.77823e-05
7.7842e-05
7.78753e-05
7.78839e-05
7.78703e-05
7.78448e-05
7.78105e-05
7.77839e-05
7.77658e-05
7.77734e-05
7.78023e-05
7.78711e-05
7.79644e-05
7.81069e-05
7.82583e-05
7.84683e-05
7.86312e-05
7.88827e-05
7.89384e-05
7.91903e-05
7.88848e-05
7.91209e-05
7.78534e-05
7.84725e-05
7.17527e-05
2.79111e-06
7.58529e-05
7.1953e-06
-3.15656e-06
-6.7688e-05
-0.000103657
-7.02521e-05
-0.000105247
-9.46992e-05
-0.000104057
-0.000100784
-0.000101318
-9.88711e-05
-9.63583e-05
-9.32671e-05
-8.98801e-05
-8.59629e-05
-8.22117e-05
-7.79158e-05
-7.38046e-05
-6.94956e-05
-6.50148e-05
-6.06311e-05
-5.61111e-05
-5.15141e-05
-4.69683e-05
-4.2316e-05
-3.76604e-05
-3.29971e-05
-2.82562e-05
-2.35784e-05
-1.88436e-05
-1.40776e-05
-9.36409e-06
-4.61742e-06
1.14171e-07
4.80044e-06
9.47532e-06
1.40741e-05
1.86264e-05
2.31056e-05
2.74632e-05
3.17297e-05
3.58484e-05
3.98221e-05
4.36249e-05
4.7225e-05
5.06333e-05
5.3809e-05
5.67634e-05
5.94724e-05
6.19417e-05
6.39419e-05
6.55758e-05
6.70328e-05
6.8328e-05
6.94867e-05
7.05079e-05
7.14165e-05
7.22221e-05
7.29345e-05
7.35654e-05
7.4123e-05
7.46162e-05
7.50517e-05
7.54366e-05
7.57769e-05
7.60781e-05
7.63448e-05
7.6582e-05
7.67942e-05
7.69852e-05
7.71584e-05
7.73167e-05
7.74597e-05
7.75886e-05
7.76964e-05
7.77823e-05
7.78419e-05
7.78754e-05
7.7884e-05
7.78704e-05
7.78449e-05
7.78106e-05
7.7784e-05
7.77659e-05
7.77734e-05
7.78023e-05
7.7871e-05
7.79643e-05
7.81067e-05
7.8258e-05
7.8468e-05
7.86309e-05
7.88825e-05
7.89381e-05
7.91904e-05
7.88845e-05
7.91217e-05
7.78512e-05
7.84751e-05
7.17573e-05
2.99606e-06
7.58151e-05
6.96574e-06
-3.32918e-06
-6.74621e-05
-0.000103396
-7.01991e-05
-0.000105118
-9.46351e-05
-0.000103986
-0.000100745
-0.000101287
-9.88546e-05
-9.63503e-05
-9.32656e-05
-8.98847e-05
-8.59713e-05
-8.22229e-05
-7.793e-05
-7.38197e-05
-6.95122e-05
-6.50324e-05
-6.06488e-05
-5.61293e-05
-5.15326e-05
-4.69865e-05
-4.23344e-05
-3.76785e-05
-3.30149e-05
-2.82738e-05
-2.35956e-05
-1.88604e-05
-1.4094e-05
-9.38003e-06
-4.63291e-06
9.90707e-08
4.78598e-06
9.46129e-06
1.40607e-05
1.86136e-05
2.30933e-05
2.74516e-05
3.17188e-05
3.58381e-05
3.98124e-05
4.36159e-05
4.72167e-05
5.06258e-05
5.38021e-05
5.67573e-05
5.94669e-05
6.19369e-05
6.39376e-05
6.5572e-05
6.70294e-05
6.8325e-05
6.94841e-05
7.05056e-05
7.14144e-05
7.22203e-05
7.29329e-05
7.3564e-05
7.41218e-05
7.46152e-05
7.50508e-05
7.54358e-05
7.57763e-05
7.60775e-05
7.63443e-05
7.65816e-05
7.67938e-05
7.69848e-05
7.71581e-05
7.73164e-05
7.74595e-05
7.75884e-05
7.76963e-05
7.77821e-05
7.78419e-05
7.78754e-05
7.78841e-05
7.78705e-05
7.7845e-05
7.78108e-05
7.77841e-05
7.7766e-05
7.77735e-05
7.78023e-05
7.78709e-05
7.79641e-05
7.81065e-05
7.82577e-05
7.84678e-05
7.86305e-05
7.88824e-05
7.89378e-05
7.91906e-05
7.88842e-05
7.91225e-05
7.7849e-05
7.84779e-05
7.17746e-05
3.20631e-06
7.57693e-05
6.73083e-06
-3.51018e-06
-6.72205e-05
-0.000103118
-7.0141e-05
-0.000104978
-9.45668e-05
-0.00010391
-0.000100703
-0.000101253
-9.88369e-05
-9.63416e-05
-9.3264e-05
-8.98896e-05
-8.59803e-05
-8.2235e-05
-7.79452e-05
-7.3836e-05
-6.95301e-05
-6.50513e-05
-6.06679e-05
-5.61491e-05
-5.15525e-05
-4.70062e-05
-4.23542e-05
-3.76981e-05
-3.30341e-05
-2.82929e-05
-2.36141e-05
-1.88785e-05
-1.41118e-05
-9.39725e-06
-4.64968e-06
8.28074e-08
4.77034e-06
9.44616e-06
1.40462e-05
1.85997e-05
2.30801e-05
2.74391e-05
3.17069e-05
3.58269e-05
3.9802e-05
4.36063e-05
4.72078e-05
5.06176e-05
5.37947e-05
5.67506e-05
5.9461e-05
6.19316e-05
6.39331e-05
6.55679e-05
6.70258e-05
6.83218e-05
6.94813e-05
7.0503e-05
7.14122e-05
7.22184e-05
7.29312e-05
7.35625e-05
7.41205e-05
7.4614e-05
7.50498e-05
7.54349e-05
7.57755e-05
7.60769e-05
7.63437e-05
7.65811e-05
7.67934e-05
7.69844e-05
7.71578e-05
7.73161e-05
7.74592e-05
7.75882e-05
7.76961e-05
7.7782e-05
7.78418e-05
7.78754e-05
7.78841e-05
7.78706e-05
7.78452e-05
7.78109e-05
7.77842e-05
7.77661e-05
7.77735e-05
7.78022e-05
7.78708e-05
7.79639e-05
7.81063e-05
7.82574e-05
7.84675e-05
7.86301e-05
7.88821e-05
7.89375e-05
7.91907e-05
7.88839e-05
7.91234e-05
7.78467e-05
7.84808e-05
7.17986e-05
3.48265e-06
7.57154e-05
6.49169e-06
-3.69762e-06
-6.696e-05
-0.000102817
-7.0077e-05
-0.000104825
-9.44936e-05
-0.000103827
-0.000100658
-0.000101216
-9.88176e-05
-9.63319e-05
-9.32621e-05
-8.98947e-05
-8.59898e-05
-8.22478e-05
-7.79615e-05
-7.38534e-05
-6.95492e-05
-6.50716e-05
-6.06884e-05
-5.61701e-05
-5.15738e-05
-4.70273e-05
-4.23755e-05
-3.7719e-05
-3.30546e-05
-2.83132e-05
-2.36339e-05
-1.8898e-05
-1.41309e-05
-9.41573e-06
-4.66764e-06
6.53041e-08
4.75356e-06
9.4299e-06
1.40306e-05
1.85848e-05
2.30659e-05
2.74256e-05
3.16942e-05
3.5815e-05
3.97908e-05
4.35959e-05
4.71982e-05
5.06089e-05
5.37867e-05
5.67435e-05
5.94546e-05
6.1926e-05
6.39281e-05
6.55635e-05
6.7022e-05
6.83184e-05
6.94782e-05
7.05003e-05
7.14098e-05
7.22163e-05
7.29294e-05
7.35609e-05
7.41191e-05
7.46128e-05
7.50488e-05
7.5434e-05
7.57747e-05
7.60761e-05
7.63431e-05
7.65805e-05
7.67929e-05
7.6984e-05
7.71574e-05
7.73158e-05
7.7459e-05
7.75879e-05
7.76959e-05
7.77819e-05
7.78418e-05
7.78754e-05
7.78842e-05
7.78707e-05
7.78453e-05
7.7811e-05
7.77844e-05
7.77662e-05
7.77735e-05
7.78022e-05
7.78707e-05
7.79637e-05
7.8106e-05
7.82571e-05
7.84672e-05
7.86297e-05
7.88819e-05
7.89371e-05
7.91908e-05
7.88835e-05
7.91243e-05
7.78443e-05
7.84838e-05
7.18244e-05
3.76808e-06
7.56501e-05
6.25136e-06
-3.88984e-06
-6.6677e-05
-0.000102491
-7.00068e-05
-0.000104659
-9.44151e-05
-0.000103737
-0.00010061
-0.000101175
-9.87966e-05
-9.63212e-05
-9.32598e-05
-8.99e-05
-8.59999e-05
-8.22614e-05
-7.79789e-05
-7.3872e-05
-6.95697e-05
-6.50934e-05
-6.07103e-05
-5.61928e-05
-5.15967e-05
-4.70499e-05
-4.23983e-05
-3.77415e-05
-3.30768e-05
-2.83352e-05
-2.36553e-05
-1.89189e-05
-1.41514e-05
-9.43561e-06
-4.687e-06
4.65183e-08
4.7355e-06
9.41242e-06
1.40139e-05
1.85688e-05
2.30505e-05
2.74111e-05
3.16805e-05
3.58021e-05
3.97788e-05
4.35847e-05
4.7188e-05
5.05995e-05
5.37782e-05
5.67358e-05
5.94477e-05
6.19199e-05
6.39228e-05
6.55587e-05
6.70178e-05
6.83147e-05
6.9475e-05
7.04974e-05
7.14073e-05
7.2214e-05
7.29274e-05
7.35592e-05
7.41176e-05
7.46115e-05
7.50476e-05
7.5433e-05
7.57738e-05
7.60754e-05
7.63425e-05
7.65799e-05
7.67924e-05
7.69835e-05
7.7157e-05
7.73154e-05
7.74587e-05
7.75877e-05
7.76957e-05
7.77818e-05
7.78417e-05
7.78754e-05
7.78843e-05
7.78708e-05
7.78454e-05
7.78112e-05
7.77845e-05
7.77662e-05
7.77735e-05
7.78021e-05
7.78706e-05
7.79635e-05
7.81058e-05
7.82567e-05
7.84668e-05
7.86293e-05
7.88817e-05
7.89368e-05
7.9191e-05
7.88832e-05
7.91254e-05
7.78417e-05
7.84869e-05
7.18523e-05
4.12678e-06
7.55728e-05
6.01232e-06
-4.08371e-06
-6.63664e-05
-0.000102135
-6.99294e-05
-0.000104476
-9.43305e-05
-0.000103638
-0.000100557
-0.000101131
-9.87735e-05
-9.63092e-05
-9.3257e-05
-8.99052e-05
-8.60104e-05
-8.22758e-05
-7.79972e-05
-7.38918e-05
-6.95915e-05
-6.51165e-05
-6.07337e-05
-5.6217e-05
-5.16212e-05
-4.70741e-05
-4.24228e-05
-3.77656e-05
-3.31005e-05
-2.83587e-05
-2.36782e-05
-1.89413e-05
-1.41733e-05
-9.45691e-06
-4.70772e-06
2.63382e-08
4.71615e-06
9.39367e-06
1.39959e-05
1.85516e-05
2.30341e-05
2.73956e-05
3.16658e-05
3.57884e-05
3.97659e-05
4.35728e-05
4.71769e-05
5.05894e-05
5.3769e-05
5.67275e-05
5.94404e-05
6.19134e-05
6.39172e-05
6.55537e-05
6.70134e-05
6.83107e-05
6.94714e-05
7.04942e-05
7.14045e-05
7.22116e-05
7.29253e-05
7.35573e-05
7.41159e-05
7.461e-05
7.50464e-05
7.54319e-05
7.57729e-05
7.60745e-05
7.63418e-05
7.65793e-05
7.67919e-05
7.6983e-05
7.71566e-05
7.73151e-05
7.74583e-05
7.75874e-05
7.76955e-05
7.77816e-05
7.78417e-05
7.78754e-05
7.78844e-05
7.78709e-05
7.78456e-05
7.78113e-05
7.77846e-05
7.77663e-05
7.77736e-05
7.78021e-05
7.78705e-05
7.79633e-05
7.81055e-05
7.82563e-05
7.84665e-05
7.86288e-05
7.88814e-05
7.89363e-05
7.91912e-05
7.88828e-05
7.91265e-05
7.78391e-05
7.84899e-05
7.18827e-05
4.51678e-06
7.54796e-05
5.7786e-06
-4.27637e-06
-6.60219e-05
-0.000101744
-6.98441e-05
-0.000104276
-9.4239e-05
-0.00010353
-0.0001005
-0.000101083
-9.87482e-05
-9.62957e-05
-9.32536e-05
-8.99106e-05
-8.60215e-05
-8.22911e-05
-7.80168e-05
-7.39129e-05
-6.96148e-05
-6.51413e-05
-6.07588e-05
-5.62429e-05
-5.16474e-05
-4.71002e-05
-4.2449e-05
-3.77915e-05
-3.31259e-05
-2.83839e-05
-2.37028e-05
-1.89654e-05
-1.41969e-05
-9.47982e-06
-4.73004e-06
4.6751e-09
4.69531e-06
9.37351e-06
1.39766e-05
1.85331e-05
2.30164e-05
2.73789e-05
3.16499e-05
3.57735e-05
3.9752e-05
4.35598e-05
4.71651e-05
5.05785e-05
5.37592e-05
5.67186e-05
5.94325e-05
6.19064e-05
6.3911e-05
6.55482e-05
6.70086e-05
6.83064e-05
6.94677e-05
7.04908e-05
7.14016e-05
7.2209e-05
7.2923e-05
7.35553e-05
7.41142e-05
7.46085e-05
7.5045e-05
7.54307e-05
7.57719e-05
7.60736e-05
7.6341e-05
7.65786e-05
7.67912e-05
7.69825e-05
7.71561e-05
7.73146e-05
7.7458e-05
7.7587e-05
7.76952e-05
7.77814e-05
7.78416e-05
7.78754e-05
7.78844e-05
7.78711e-05
7.78457e-05
7.78115e-05
7.77848e-05
7.77664e-05
7.77736e-05
7.7802e-05
7.78703e-05
7.7963e-05
7.81051e-05
7.82559e-05
7.84661e-05
7.86283e-05
7.88811e-05
7.89359e-05
7.91913e-05
7.88824e-05
7.91277e-05
7.78364e-05
7.8493e-05
7.19162e-05
4.99527e-06
7.53695e-05
5.55439e-06
-4.46321e-06
-6.56359e-05
-0.000101311
-6.97496e-05
-0.000104055
-9.41393e-05
-0.000103412
-0.000100437
-0.000101029
-9.87201e-05
-9.62803e-05
-9.32493e-05
-8.99157e-05
-8.60328e-05
-8.23071e-05
-7.80375e-05
-7.39353e-05
-6.96396e-05
-6.51677e-05
-6.07856e-05
-5.62706e-05
-5.16755e-05
-4.7128e-05
-4.24771e-05
-3.78192e-05
-3.31531e-05
-2.84109e-05
-2.37291e-05
-1.89912e-05
-1.42222e-05
-9.50436e-06
-4.75392e-06
-1.85778e-08
4.67299e-06
9.35189e-06
1.39559e-05
1.85133e-05
2.29975e-05
2.7361e-05
3.1633e-05
3.57576e-05
3.97371e-05
4.3546e-05
4.71524e-05
5.05668e-05
5.37486e-05
5.67091e-05
5.9424e-05
6.18989e-05
6.39045e-05
6.55423e-05
6.70034e-05
6.83018e-05
6.94636e-05
7.04872e-05
7.13984e-05
7.22061e-05
7.29206e-05
7.35531e-05
7.41123e-05
7.46068e-05
7.50436e-05
7.54294e-05
7.57708e-05
7.60726e-05
7.63402e-05
7.65778e-05
7.67906e-05
7.69819e-05
7.71556e-05
7.73142e-05
7.74576e-05
7.75866e-05
7.76949e-05
7.77812e-05
7.78415e-05
7.78754e-05
7.78845e-05
7.78712e-05
7.78459e-05
7.78116e-05
7.77849e-05
7.77665e-05
7.77736e-05
7.78019e-05
7.78701e-05
7.79627e-05
7.81048e-05
7.82554e-05
7.84656e-05
7.86277e-05
7.88808e-05
7.89354e-05
7.91915e-05
7.88819e-05
7.9129e-05
7.78336e-05
7.84961e-05
7.1953e-05
5.53262e-06
7.52381e-05
5.34561e-06
-4.63956e-06
-6.5199e-05
-0.000100828
-6.96447e-05
-0.000103809
-9.40302e-05
-0.000103281
-0.000100368
-0.00010097
-9.86888e-05
-9.62628e-05
-9.3244e-05
-8.99206e-05
-8.60446e-05
-8.23238e-05
-7.80594e-05
-7.39591e-05
-6.96661e-05
-6.51959e-05
-6.08142e-05
-5.63002e-05
-5.17055e-05
-4.71578e-05
-4.25072e-05
-3.78489e-05
-3.31824e-05
-2.84399e-05
-2.37574e-05
-1.90189e-05
-1.42494e-05
-9.53073e-06
-4.77962e-06
-4.35315e-08
4.64897e-06
9.32867e-06
1.39336e-05
1.8492e-05
2.29772e-05
2.73417e-05
3.16147e-05
3.57405e-05
3.97211e-05
4.35311e-05
4.71387e-05
5.05543e-05
5.37372e-05
5.66988e-05
5.94148e-05
6.18908e-05
6.38974e-05
6.5536e-05
6.69979e-05
6.82968e-05
6.94592e-05
7.04832e-05
7.1395e-05
7.22031e-05
7.29179e-05
7.35508e-05
7.41103e-05
7.4605e-05
7.5042e-05
7.5428e-05
7.57696e-05
7.60716e-05
7.63392e-05
7.6577e-05
7.67899e-05
7.69813e-05
7.71551e-05
7.73136e-05
7.74572e-05
7.75862e-05
7.76946e-05
7.7781e-05
7.78414e-05
7.78754e-05
7.78846e-05
7.78713e-05
7.7846e-05
7.78118e-05
7.77851e-05
7.77665e-05
7.77736e-05
7.78018e-05
7.787e-05
7.79624e-05
7.81044e-05
7.82549e-05
7.84652e-05
7.86271e-05
7.88804e-05
7.89349e-05
7.91917e-05
7.88815e-05
7.91304e-05
7.78307e-05
7.84992e-05
7.19933e-05
6.18137e-06
7.50841e-05
5.15888e-06
-4.79888e-06
-6.47001e-05
-0.000100285
-6.95271e-05
-0.000103535
-9.39097e-05
-0.000103136
-0.000100292
-0.000100905
-9.86537e-05
-9.62426e-05
-9.32372e-05
-8.99249e-05
-8.60564e-05
-8.23412e-05
-7.80823e-05
-7.39842e-05
-6.9694e-05
-6.52258e-05
-6.08446e-05
-5.63318e-05
-5.17375e-05
-4.71896e-05
-4.25393e-05
-3.78806e-05
-3.32136e-05
-2.84708e-05
-2.37876e-05
-1.90486e-05
-1.42785e-05
-9.55894e-06
-4.80712e-06
-7.02914e-08
4.62326e-06
9.30377e-06
1.39098e-05
1.84692e-05
2.29553e-05
2.73211e-05
3.15952e-05
3.57221e-05
3.97039e-05
4.35152e-05
4.7124e-05
5.05408e-05
5.37249e-05
5.66878e-05
5.9405e-05
6.18821e-05
6.38898e-05
6.55292e-05
6.69919e-05
6.82914e-05
6.94545e-05
7.0479e-05
7.13913e-05
7.21998e-05
7.29151e-05
7.35482e-05
7.4108e-05
7.46031e-05
7.50403e-05
7.54265e-05
7.57683e-05
7.60704e-05
7.63382e-05
7.65761e-05
7.67891e-05
7.69805e-05
7.71544e-05
7.73131e-05
7.74567e-05
7.75858e-05
7.76943e-05
7.77807e-05
7.78413e-05
7.78753e-05
7.78846e-05
7.78714e-05
7.78462e-05
7.7812e-05
7.77852e-05
7.77666e-05
7.77736e-05
7.78017e-05
7.78697e-05
7.79621e-05
7.8104e-05
7.82544e-05
7.84646e-05
7.86265e-05
7.888e-05
7.89343e-05
7.91919e-05
7.8881e-05
7.91318e-05
7.78277e-05
7.85021e-05
7.20374e-05
6.92267e-06
7.49028e-05
5.00267e-06
-4.93432e-06
-6.4126e-05
-9.96699e-05
-6.93945e-05
-0.000103227
-9.37758e-05
-0.000102974
-0.000100207
-0.000100831
-9.86139e-05
-9.62191e-05
-9.32287e-05
-8.99284e-05
-8.60683e-05
-8.23593e-05
-7.81063e-05
-7.40107e-05
-6.97237e-05
-6.52576e-05
-6.0877e-05
-5.63655e-05
-5.17716e-05
-4.72236e-05
-4.25737e-05
-3.79146e-05
-3.32471e-05
-2.85041e-05
-2.382e-05
-1.90804e-05
-1.43097e-05
-9.58925e-06
-4.83668e-06
-9.90033e-08
4.59562e-06
9.27703e-06
1.38841e-05
1.84446e-05
2.29319e-05
2.72989e-05
3.15741e-05
3.57023e-05
3.96854e-05
4.3498e-05
4.71081e-05
5.05263e-05
5.37118e-05
5.66759e-05
5.93944e-05
6.18727e-05
6.38816e-05
6.55218e-05
6.69854e-05
6.82857e-05
6.94494e-05
7.04744e-05
7.13873e-05
7.21963e-05
7.2912e-05
7.35455e-05
7.41057e-05
7.4601e-05
7.50385e-05
7.54249e-05
7.57669e-05
7.60692e-05
7.63372e-05
7.65751e-05
7.67882e-05
7.69798e-05
7.71538e-05
7.73125e-05
7.74562e-05
7.75853e-05
7.76939e-05
7.77804e-05
7.78412e-05
7.78753e-05
7.78847e-05
7.78715e-05
7.78463e-05
7.78121e-05
7.77853e-05
7.77666e-05
7.77736e-05
7.78016e-05
7.78695e-05
7.79617e-05
7.81035e-05
7.82538e-05
7.84641e-05
7.86258e-05
7.88796e-05
7.89337e-05
7.91921e-05
7.88805e-05
7.91334e-05
7.78247e-05
7.85051e-05
7.20855e-05
7.80719e-06
7.46932e-05
4.88692e-06
-5.03701e-06
-6.34612e-05
-9.89682e-05
-6.92434e-05
-0.000102879
-9.36255e-05
-0.000102793
-0.000100111
-0.000100748
-9.85685e-05
-9.61916e-05
-9.32178e-05
-8.99307e-05
-8.60798e-05
-8.23776e-05
-7.81313e-05
-7.40384e-05
-6.9755e-05
-6.52912e-05
-6.09114e-05
-5.64013e-05
-5.1808e-05
-4.72598e-05
-4.26104e-05
-3.79509e-05
-3.32828e-05
-2.85396e-05
-2.38547e-05
-1.91144e-05
-1.43431e-05
-9.62166e-06
-4.86829e-06
-1.29766e-07
4.56603e-06
9.24837e-06
1.38567e-05
1.84183e-05
2.29068e-05
2.72751e-05
3.15516e-05
3.56811e-05
3.96656e-05
4.34796e-05
4.70912e-05
5.05107e-05
5.36976e-05
5.66632e-05
5.93831e-05
6.18627e-05
6.38728e-05
6.5514e-05
6.69785e-05
6.82795e-05
6.94439e-05
7.04695e-05
7.1383e-05
7.21925e-05
7.29086e-05
7.35426e-05
7.41031e-05
7.45987e-05
7.50365e-05
7.54231e-05
7.57654e-05
7.60678e-05
7.6336e-05
7.65741e-05
7.67873e-05
7.69789e-05
7.7153e-05
7.73118e-05
7.74556e-05
7.75848e-05
7.76935e-05
7.77801e-05
7.7841e-05
7.78752e-05
7.78847e-05
7.78716e-05
7.78465e-05
7.78123e-05
7.77854e-05
7.77667e-05
7.77735e-05
7.78014e-05
7.78692e-05
7.79612e-05
7.8103e-05
7.82531e-05
7.84635e-05
7.8625e-05
7.88792e-05
7.89331e-05
7.91923e-05
7.888e-05
7.91352e-05
7.78217e-05
7.85079e-05
7.21378e-05
8.82681e-06
7.44507e-05
4.82362e-06
-5.09752e-06
-6.26883e-05
-9.81633e-05
-6.90693e-05
-0.000102484
-9.34553e-05
-0.000102588
-0.000100002
-0.000100654
-9.85163e-05
-9.61591e-05
-9.3204e-05
-8.99315e-05
-8.60909e-05
-8.23963e-05
-7.81572e-05
-7.40675e-05
-6.9788e-05
-6.53268e-05
-6.09479e-05
-5.64393e-05
-5.18468e-05
-4.72985e-05
-4.26496e-05
-3.79896e-05
-3.33211e-05
-2.85776e-05
-2.38918e-05
-1.91509e-05
-1.43789e-05
-9.65644e-06
-4.90223e-06
-1.62751e-07
4.53425e-06
9.21762e-06
1.38271e-05
1.83901e-05
2.28797e-05
2.72495e-05
3.15273e-05
3.56583e-05
3.96442e-05
4.34598e-05
4.70729e-05
5.0494e-05
5.36824e-05
5.66495e-05
5.93709e-05
6.18519e-05
6.38633e-05
6.55055e-05
6.6971e-05
6.82728e-05
6.9438e-05
7.04643e-05
7.13784e-05
7.21884e-05
7.29051e-05
7.35394e-05
7.41003e-05
7.45962e-05
7.50344e-05
7.54212e-05
7.57637e-05
7.60663e-05
7.63347e-05
7.65729e-05
7.67862e-05
7.6978e-05
7.71522e-05
7.7311e-05
7.7455e-05
7.75842e-05
7.7693e-05
7.77798e-05
7.78408e-05
7.78751e-05
7.78848e-05
7.78717e-05
7.78467e-05
7.78124e-05
7.77856e-05
7.77667e-05
7.77735e-05
7.78012e-05
7.78689e-05
7.79608e-05
7.81024e-05
7.82524e-05
7.84628e-05
7.86242e-05
7.88787e-05
7.89324e-05
7.91926e-05
7.88794e-05
7.9137e-05
7.78187e-05
7.85106e-05
7.21946e-05
1.00306e-05
7.41753e-05
4.82692e-06
-5.10431e-06
-6.17871e-05
-9.72351e-05
-6.88662e-05
-0.000102031
-9.32608e-05
-0.000102354
-9.98784e-05
-0.000100546
-9.84556e-05
-9.61205e-05
-9.31864e-05
-8.99299e-05
-8.61009e-05
-8.24147e-05
-7.81837e-05
-7.40977e-05
-6.98225e-05
-6.53643e-05
-6.09865e-05
-5.64797e-05
-5.18879e-05
-4.73396e-05
-4.26913e-05
-3.80309e-05
-3.33619e-05
-2.86181e-05
-2.39315e-05
-1.91898e-05
-1.44171e-05
-9.69361e-06
-4.93851e-06
-1.98058e-07
4.50025e-06
9.1847e-06
1.37956e-05
1.83598e-05
2.28509e-05
2.72221e-05
3.15013e-05
3.56339e-05
3.96214e-05
4.34386e-05
4.70534e-05
5.04761e-05
5.36661e-05
5.66348e-05
5.93577e-05
6.18403e-05
6.38532e-05
6.54965e-05
6.69629e-05
6.82656e-05
6.94316e-05
7.04586e-05
7.13734e-05
7.2184e-05
7.29012e-05
7.3536e-05
7.40973e-05
7.45936e-05
7.5032e-05
7.54192e-05
7.57619e-05
7.60648e-05
7.63333e-05
7.65717e-05
7.67851e-05
7.6977e-05
7.71513e-05
7.73102e-05
7.74542e-05
7.75835e-05
7.76925e-05
7.77794e-05
7.78406e-05
7.7875e-05
7.78848e-05
7.78718e-05
7.78468e-05
7.78126e-05
7.77857e-05
7.77668e-05
7.77734e-05
7.7801e-05
7.78686e-05
7.79602e-05
7.81018e-05
7.82516e-05
7.84621e-05
7.86233e-05
7.88781e-05
7.89317e-05
7.91928e-05
7.88788e-05
7.9139e-05
7.78157e-05
7.85131e-05
7.22561e-05
1.14189e-05
7.38639e-05
4.91314e-06
-5.04507e-06
-6.07355e-05
-9.61614e-05
-6.86266e-05
-0.000101511
-9.30364e-05
-0.000102087
-9.97353e-05
-0.000100422
-9.83847e-05
-9.60742e-05
-9.31639e-05
-8.99254e-05
-8.61095e-05
-8.24328e-05
-7.82107e-05
-7.41289e-05
-6.98586e-05
-6.54036e-05
-6.10272e-05
-5.65224e-05
-5.19316e-05
-4.73834e-05
-4.27357e-05
-3.80749e-05
-3.34055e-05
-2.86614e-05
-2.39739e-05
-1.92315e-05
-1.44581e-05
-9.73344e-06
-4.97742e-06
-2.35895e-07
4.46376e-06
9.14938e-06
1.37617e-05
1.83273e-05
2.28198e-05
2.71927e-05
3.14734e-05
3.56077e-05
3.95968e-05
4.34158e-05
4.70323e-05
5.04567e-05
5.36486e-05
5.6619e-05
5.93436e-05
6.18278e-05
6.38422e-05
6.54867e-05
6.69542e-05
6.82579e-05
6.94248e-05
7.04525e-05
7.1368e-05
7.21792e-05
7.2897e-05
7.35323e-05
7.40941e-05
7.45907e-05
7.50295e-05
7.5417e-05
7.576e-05
7.6063e-05
7.63318e-05
7.65703e-05
7.67839e-05
7.69759e-05
7.71503e-05
7.73093e-05
7.74535e-05
7.75828e-05
7.76919e-05
7.7779e-05
7.78403e-05
7.78749e-05
7.78848e-05
7.78719e-05
7.78469e-05
7.78127e-05
7.77858e-05
7.77668e-05
7.77733e-05
7.78008e-05
7.78682e-05
7.79597e-05
7.81011e-05
7.82508e-05
7.84613e-05
7.86224e-05
7.88775e-05
7.89309e-05
7.91931e-05
7.88782e-05
7.91411e-05
7.78128e-05
7.85155e-05
7.23225e-05
1.30393e-05
7.35186e-05
5.10156e-06
-4.9053e-06
-5.9509e-05
-9.49161e-05
-6.83404e-05
-0.000100908
-9.27752e-05
-0.000101779
-9.95688e-05
-0.000100278
-9.83008e-05
-9.60183e-05
-9.31352e-05
-8.99167e-05
-8.61157e-05
-8.24499e-05
-7.82377e-05
-7.41609e-05
-6.9896e-05
-6.54447e-05
-6.107e-05
-5.65675e-05
-5.19777e-05
-4.74297e-05
-4.27828e-05
-3.81217e-05
-3.34519e-05
-2.87076e-05
-2.40191e-05
-1.9276e-05
-1.45018e-05
-9.77597e-06
-5.01899e-06
-2.76353e-07
4.42475e-06
9.11159e-06
1.37254e-05
1.82925e-05
2.27866e-05
2.71612e-05
3.14435e-05
3.55796e-05
3.95705e-05
4.33913e-05
4.70097e-05
5.04361e-05
5.36297e-05
5.6602e-05
5.93285e-05
6.18145e-05
6.38305e-05
6.54762e-05
6.69449e-05
6.82496e-05
6.94174e-05
7.04459e-05
7.13622e-05
7.21741e-05
7.28925e-05
7.35283e-05
7.40905e-05
7.45876e-05
7.50268e-05
7.54146e-05
7.57579e-05
7.60611e-05
7.63302e-05
7.65688e-05
7.67826e-05
7.69747e-05
7.71492e-05
7.73084e-05
7.74526e-05
7.7582e-05
7.76913e-05
7.77785e-05
7.784e-05
7.78747e-05
7.78848e-05
7.7872e-05
7.78471e-05
7.78129e-05
7.77859e-05
7.77668e-05
7.77732e-05
7.78005e-05
7.78678e-05
7.79591e-05
7.81004e-05
7.82499e-05
7.84604e-05
7.86214e-05
7.88769e-05
7.893e-05
7.91933e-05
7.88776e-05
7.91433e-05
7.78101e-05
7.85177e-05
7.23941e-05
1.48986e-05
7.31393e-05
5.41351e-06
-4.66955e-06
-5.80818e-05
-9.34708e-05
-6.79952e-05
-0.000100207
-9.24683e-05
-0.000101421
-9.93735e-05
-0.000100109
-9.8201e-05
-9.59506e-05
-9.30987e-05
-8.99028e-05
-8.61188e-05
-8.24653e-05
-7.82643e-05
-7.41933e-05
-6.99346e-05
-6.54876e-05
-6.11149e-05
-5.6615e-05
-5.20266e-05
-4.74789e-05
-4.28329e-05
-3.81716e-05
-3.35013e-05
-2.87568e-05
-2.40674e-05
-1.93235e-05
-1.45486e-05
-9.8215e-06
-5.06351e-06
-3.1967e-07
4.38293e-06
9.07109e-06
1.36865e-05
1.82552e-05
2.27509e-05
2.71273e-05
3.14114e-05
3.55494e-05
3.95423e-05
4.33651e-05
4.69855e-05
5.04138e-05
5.36095e-05
5.65838e-05
5.93122e-05
6.18001e-05
6.38178e-05
6.54648e-05
6.69348e-05
6.82406e-05
6.94095e-05
7.04388e-05
7.1356e-05
7.21686e-05
7.28876e-05
7.3524e-05
7.40868e-05
7.45843e-05
7.50239e-05
7.5412e-05
7.57556e-05
7.60591e-05
7.63284e-05
7.65672e-05
7.67811e-05
7.69734e-05
7.7148e-05
7.73073e-05
7.74517e-05
7.75811e-05
7.76906e-05
7.7778e-05
7.78397e-05
7.78745e-05
7.78848e-05
7.7872e-05
7.78472e-05
7.7813e-05
7.7786e-05
7.77668e-05
7.7773e-05
7.78002e-05
7.78673e-05
7.79584e-05
7.80996e-05
7.82489e-05
7.84595e-05
7.86203e-05
7.88762e-05
7.89292e-05
7.91936e-05
7.8877e-05
7.91457e-05
7.78075e-05
7.85198e-05
7.24709e-05
1.70407e-05
7.27318e-05
5.87359e-06
-4.32019e-06
-5.64264e-05
-9.17938e-05
-6.75754e-05
-9.93872e-05
-9.2105e-05
-0.000101004
-9.91423e-05
-9.99105e-05
-9.80813e-05
-9.58679e-05
-9.30519e-05
-8.98818e-05
-8.61174e-05
-8.24781e-05
-7.82898e-05
-7.42256e-05
-6.9974e-05
-6.55318e-05
-6.11616e-05
-5.66648e-05
-5.20779e-05
-4.75308e-05
-4.28859e-05
-3.82243e-05
-3.35538e-05
-2.88092e-05
-2.41188e-05
-1.93742e-05
-1.45984e-05
-9.87004e-06
-5.11103e-06
-3.65935e-07
4.33826e-06
9.02779e-06
1.36449e-05
1.82153e-05
2.27128e-05
2.70911e-05
3.1377e-05
3.55171e-05
3.9512e-05
4.33369e-05
4.69595e-05
5.039e-05
5.35878e-05
5.65642e-05
5.92947e-05
6.17847e-05
6.38042e-05
6.54527e-05
6.6924e-05
6.8231e-05
6.94009e-05
7.04312e-05
7.13493e-05
7.21626e-05
7.28824e-05
7.35194e-05
7.40827e-05
7.45807e-05
7.50207e-05
7.54092e-05
7.57531e-05
7.60569e-05
7.63264e-05
7.65655e-05
7.67796e-05
7.6972e-05
7.71467e-05
7.73062e-05
7.74506e-05
7.75802e-05
7.76898e-05
7.77774e-05
7.78393e-05
7.78743e-05
7.78847e-05
7.78721e-05
7.78473e-05
7.78131e-05
7.7786e-05
7.77667e-05
7.77729e-05
7.77999e-05
7.78668e-05
7.79577e-05
7.80988e-05
7.82479e-05
7.84585e-05
7.86191e-05
7.88755e-05
7.89282e-05
7.91939e-05
7.88764e-05
7.91483e-05
7.78053e-05
7.85218e-05
7.25534e-05
1.94737e-05
7.23011e-05
6.5078e-06
-3.83854e-06
-5.45155e-05
-8.98516e-05
-6.7062e-05
-9.84258e-05
-9.16717e-05
-0.000100514
-9.88666e-05
-9.96751e-05
-9.79366e-05
-9.57665e-05
-9.29923e-05
-8.98518e-05
-8.61102e-05
-8.24873e-05
-7.83135e-05
-7.42573e-05
-7.00139e-05
-6.55773e-05
-6.12102e-05
-5.67169e-05
-5.21319e-05
-4.75856e-05
-4.2942e-05
-3.82803e-05
-3.36095e-05
-2.88649e-05
-2.41735e-05
-1.94282e-05
-1.46516e-05
-9.92193e-06
-5.16183e-06
-4.15418e-07
4.29043e-06
8.98143e-06
1.36003e-05
1.81725e-05
2.26719e-05
2.70523e-05
3.13402e-05
3.54823e-05
3.94795e-05
4.33067e-05
4.69316e-05
5.03644e-05
5.35645e-05
5.65432e-05
5.9276e-05
6.1768e-05
6.37896e-05
6.54396e-05
6.69123e-05
6.82206e-05
6.93917e-05
7.0423e-05
7.1342e-05
7.21563e-05
7.28768e-05
7.35144e-05
7.40783e-05
7.45768e-05
7.50173e-05
7.54061e-05
7.57505e-05
7.60545e-05
7.63243e-05
7.65636e-05
7.67778e-05
7.69705e-05
7.71453e-05
7.73049e-05
7.74495e-05
7.75792e-05
7.7689e-05
7.77767e-05
7.78389e-05
7.78741e-05
7.78846e-05
7.78721e-05
7.78474e-05
7.78132e-05
7.77861e-05
7.77667e-05
7.77726e-05
7.77995e-05
7.78662e-05
7.79569e-05
7.80978e-05
7.82467e-05
7.84575e-05
7.86178e-05
7.88747e-05
7.89272e-05
7.91942e-05
7.88758e-05
7.91511e-05
7.78033e-05
7.85237e-05
7.26416e-05
2.2234e-05
7.18588e-05
7.34506e-06
-3.20386e-06
-5.23216e-05
-8.76087e-05
-6.64319e-05
-9.7295e-05
-9.11517e-05
-9.99363e-05
-9.85357e-05
-9.93941e-05
-9.77608e-05
-9.56415e-05
-9.29161e-05
-8.981e-05
-8.6095e-05
-8.24913e-05
-7.83341e-05
-7.42876e-05
-7.00536e-05
-6.56235e-05
-6.12602e-05
-5.6771e-05
-5.21883e-05
-4.76431e-05
-4.3001e-05
-3.83395e-05
-3.36686e-05
-2.8924e-05
-2.42317e-05
-1.94857e-05
-1.47083e-05
-9.9772e-06
-5.21601e-06
-4.68204e-07
4.23939e-06
8.93192e-06
1.35527e-05
1.81268e-05
2.26282e-05
2.70108e-05
3.13007e-05
3.54452e-05
3.94447e-05
4.32744e-05
4.69017e-05
5.03369e-05
5.35395e-05
5.65207e-05
5.92558e-05
6.17503e-05
6.37739e-05
6.54256e-05
6.68998e-05
6.82095e-05
6.93818e-05
7.04142e-05
7.13343e-05
7.21493e-05
7.28707e-05
7.35091e-05
7.40735e-05
7.45726e-05
7.50135e-05
7.54028e-05
7.57476e-05
7.60519e-05
7.6322e-05
7.65615e-05
7.6776e-05
7.69688e-05
7.71438e-05
7.73035e-05
7.74483e-05
7.75781e-05
7.7688e-05
7.7776e-05
7.78384e-05
7.78738e-05
7.78845e-05
7.78721e-05
7.78475e-05
7.78134e-05
7.77861e-05
7.77666e-05
7.77724e-05
7.77991e-05
7.78656e-05
7.7956e-05
7.80968e-05
7.82455e-05
7.84563e-05
7.86165e-05
7.88739e-05
7.89261e-05
7.91945e-05
7.88752e-05
7.9154e-05
7.78019e-05
7.85255e-05
7.27358e-05
2.53258e-05
7.14168e-05
8.41397e-06
-2.39453e-06
-4.98197e-05
-8.50298e-05
-6.56583e-05
-9.59637e-05
-9.05246e-05
-9.92528e-05
-9.81363e-05
-9.90572e-05
-9.75459e-05
-9.54872e-05
-9.2819e-05
-8.97531e-05
-8.60694e-05
-8.24882e-05
-7.83502e-05
-7.43153e-05
-7.00923e-05
-6.56699e-05
-6.13114e-05
-5.68269e-05
-5.22471e-05
-4.77033e-05
-4.30631e-05
-3.84019e-05
-3.37311e-05
-2.89866e-05
-2.42935e-05
-1.95468e-05
-1.47686e-05
-1.00361e-05
-5.27382e-06
-5.24582e-07
4.1848e-06
8.87896e-06