/*--------------------------------*- C++ -*----------------------------------*\
| =========                 |                                                 |
| \\      /  F ield         | OpenFOAM: The Open Source CFD Toolbox           |
|  \\    /   O peration     | Version:  5.x                                   |
|   \\  /    A nd           | Web:      www.OpenFOAM.org                      |
|    \\/     M anipulation  |                                                 |
\*---------------------------------------------------------------------------*/
FoamFile
{
    version     2.0;
    format      ascii;
    class       volScalarField;
    location    "500";
    object      p;
}
// * * * * * * * * * * * * * * * * * * * * * * * * * * * * * * * * * * * * * //

dimensions      [0 2 -2 0 0 0 0];

internalField   nonuniform List<scalar> 
107912
(
-1.52899e-10
3.61277e-07
1.3518e-07
2.37787e-07
4.27063e-08
-1.51715e-07
-2.09905e-08
-1.64116e-07
-1.22999e-07
-1.84377e-07
-1.74742e-07
-1.98036e-07
-1.97909e-07
-2.05292e-07
-2.04617e-07
-2.0701e-07
-2.034e-07
-2.03079e-07
-1.98786e-07
-1.95005e-07
-1.91227e-07
-1.85712e-07
-1.80604e-07
-1.75547e-07
-1.69048e-07
-1.63435e-07
-1.57398e-07
-1.50539e-07
-1.44581e-07
-1.37811e-07
-1.30947e-07
-1.2464e-07
-1.1753e-07
-1.10684e-07
-1.04022e-07
-9.67242e-08
-8.99073e-08
-8.29339e-08
-7.56601e-08
-6.88387e-08
-6.15557e-08
-5.44754e-08
-4.74444e-08
-4.01453e-08
-3.31364e-08
-2.58775e-08
-1.87619e-08
-1.16161e-08
-4.4383e-09
2.69895e-09
9.86228e-09
1.7074e-08
2.32518e-08
2.93257e-08
3.55914e-08
4.07701e-08
4.66356e-08
5.24092e-08
5.75527e-08
6.29478e-08
6.78945e-08
7.28608e-08
7.77412e-08
8.23286e-08
8.69864e-08
9.14652e-08
9.57505e-08
1.00135e-07
1.04172e-07
1.08281e-07
1.12296e-07
1.16049e-07
1.19979e-07
1.23536e-07
1.27193e-07
1.30746e-07
1.34046e-07
1.37579e-07
1.40613e-07
1.43993e-07
1.46898e-07
1.50005e-07
1.52874e-07
1.55655e-07
1.58478e-07
1.60924e-07
1.63683e-07
1.65734e-07
1.6849e-07
1.69893e-07
1.72979e-07
1.72895e-07
1.77454e-07
1.73471e-07
1.82751e-07
1.68671e-07
1.91286e-07
1.499e-07
2.09239e-07
8.60679e-08
2.61335e-07
-5.16076e-07
3.23679e-10
3.61243e-07
1.34028e-07
2.36411e-07
4.28281e-08
-1.5072e-07
-2.09241e-08
-1.63826e-07
-1.2282e-07
-1.84137e-07
-1.74599e-07
-1.97888e-07
-1.97813e-07
-2.05212e-07
-2.0456e-07
-2.0697e-07
-2.03373e-07
-2.03061e-07
-1.9878e-07
-1.95002e-07
-1.9123e-07
-1.85721e-07
-1.80614e-07
-1.7556e-07
-1.69064e-07
-1.6345e-07
-1.57415e-07
-1.50557e-07
-1.44599e-07
-1.37829e-07
-1.30965e-07
-1.24657e-07
-1.17547e-07
-1.107e-07
-1.04037e-07
-9.67397e-08
-8.99218e-08
-8.29479e-08
-7.56735e-08
-6.88512e-08
-6.15677e-08
-5.44866e-08
-4.74549e-08
-4.01552e-08
-3.31457e-08
-2.58862e-08
-1.877e-08
-1.16235e-08
-4.4452e-09
2.69261e-09
9.85652e-09
1.70683e-08
2.32484e-08
2.93224e-08
3.55874e-08
4.0768e-08
4.66329e-08
5.24058e-08
5.75498e-08
6.29451e-08
6.78926e-08
7.2859e-08
7.77398e-08
8.23277e-08
8.69857e-08
9.14648e-08
9.57505e-08
1.00135e-07
1.04172e-07
1.08282e-07
1.12298e-07
1.1605e-07
1.1998e-07
1.23538e-07
1.27195e-07
1.30748e-07
1.34048e-07
1.37582e-07
1.40617e-07
1.43996e-07
1.46902e-07
1.50009e-07
1.52878e-07
1.55659e-07
1.58483e-07
1.60928e-07
1.63688e-07
1.6574e-07
1.68496e-07
1.69898e-07
1.72986e-07
1.72899e-07
1.77464e-07
1.73472e-07
1.82767e-07
1.68662e-07
1.91316e-07
1.49851e-07
2.093e-07
8.57644e-08
2.61581e-07
-4.89671e-07
9.29294e-10
3.61194e-07
1.32663e-07
2.34793e-07
4.29351e-08
-1.49535e-07
-2.08206e-08
-1.63499e-07
-1.2259e-07
-1.83854e-07
-1.74414e-07
-1.97705e-07
-1.97686e-07
-2.05105e-07
-2.0448e-07
-2.06909e-07
-2.0333e-07
-2.03028e-07
-1.98761e-07
-1.94989e-07
-1.91224e-07
-1.85721e-07
-1.80616e-07
-1.75566e-07
-1.69073e-07
-1.6346e-07
-1.57426e-07
-1.5057e-07
-1.44612e-07
-1.37843e-07
-1.30978e-07
-1.2467e-07
-1.17561e-07
-1.10713e-07
-1.0405e-07
-9.67522e-08
-8.99333e-08
-8.29589e-08
-7.5684e-08
-6.88609e-08
-6.15769e-08
-5.44952e-08
-4.74627e-08
-4.01625e-08
-3.31523e-08
-2.58922e-08
-1.87755e-08
-1.16283e-08
-4.44952e-09
2.68885e-09
9.85335e-09
1.70653e-08
2.3248e-08
2.93219e-08
3.55859e-08
4.07686e-08
4.66327e-08
5.24046e-08
5.75491e-08
6.29445e-08
6.78927e-08
7.28593e-08
7.77404e-08
8.23289e-08
8.69869e-08
9.14665e-08
9.57525e-08
1.00137e-07
1.04175e-07
1.08284e-07
1.12301e-07
1.16053e-07
1.19984e-07
1.23542e-07
1.27199e-07
1.30753e-07
1.34053e-07
1.37586e-07
1.40622e-07
1.44001e-07
1.46907e-07
1.50015e-07
1.52884e-07
1.55665e-07
1.58489e-07
1.60935e-07
1.63695e-07
1.65747e-07
1.68504e-07
1.69905e-07
1.72995e-07
1.72905e-07
1.77477e-07
1.73475e-07
1.82786e-07
1.68653e-07
1.91349e-07
1.49796e-07
2.09364e-07
8.54121e-08
2.61738e-07
-4.85123e-07
1.63048e-09
3.61103e-07
1.31272e-07
2.33118e-07
4.30335e-08
-1.48304e-07
-2.07163e-08
-1.63156e-07
-1.22351e-07
-1.8356e-07
-1.7422e-07
-1.97513e-07
-1.97552e-07
-2.04993e-07
-2.04395e-07
-2.06844e-07
-2.03283e-07
-2.02993e-07
-1.98739e-07
-1.94973e-07
-1.91215e-07
-1.8572e-07
-1.80617e-07
-1.7557e-07
-1.69082e-07
-1.63469e-07
-1.57437e-07
-1.50582e-07
-1.44624e-07
-1.37856e-07
-1.30992e-07
-1.24683e-07
-1.17574e-07
-1.10726e-07
-1.04062e-07
-9.67645e-08
-8.99446e-08
-8.29696e-08
-7.56943e-08
-6.88703e-08
-6.15859e-08
-5.45034e-08
-4.74703e-08
-4.01695e-08
-3.31587e-08
-2.58979e-08
-1.87807e-08
-1.16329e-08
-4.45354e-09
2.68539e-09
9.85049e-09
1.70625e-08
2.32479e-08
2.93217e-08
3.55847e-08
4.07696e-08
4.66327e-08
5.24036e-08
5.75485e-08
6.29441e-08
6.7893e-08
7.28599e-08
7.77412e-08
8.23303e-08
8.69884e-08
9.14684e-08
9.57547e-08
1.0014e-07
1.04178e-07
1.08288e-07
1.12304e-07
1.16057e-07
1.19987e-07
1.23546e-07
1.27203e-07
1.30757e-07
1.34058e-07
1.37591e-07
1.40627e-07
1.44007e-07
1.46913e-07
1.50021e-07
1.5289e-07
1.55672e-07
1.58496e-07
1.60942e-07
1.63702e-07
1.65754e-07
1.68512e-07
1.69913e-07
1.73005e-07
1.72912e-07
1.7749e-07
1.73478e-07
1.82805e-07
1.68644e-07
1.91382e-07
1.49739e-07
2.09429e-07
8.50513e-08
2.6189e-07
-4.83668e-07
2.42862e-09
3.60966e-07
1.29826e-07
2.3135e-07
4.31291e-08
-1.47005e-07
-2.06118e-08
-1.62787e-07
-1.22101e-07
-1.83246e-07
-1.74016e-07
-1.97309e-07
-1.9741e-07
-2.04873e-07
-2.04304e-07
-2.06775e-07
-2.03233e-07
-2.02955e-07
-1.98717e-07
-1.94956e-07
-1.91206e-07
-1.85719e-07
-1.80619e-07
-1.75575e-07
-1.69092e-07
-1.63479e-07
-1.57449e-07
-1.50595e-07
-1.44637e-07
-1.37871e-07
-1.31006e-07
-1.24696e-07
-1.17588e-07
-1.10739e-07
-1.04075e-07
-9.67776e-08
-8.99567e-08
-8.29811e-08
-7.57054e-08
-6.88805e-08
-6.15956e-08
-5.45124e-08
-4.74785e-08
-4.01771e-08
-3.31657e-08
-2.59041e-08
-1.87865e-08
-1.16378e-08
-4.45801e-09
2.68152e-09
9.84725e-09
1.70593e-08
2.32476e-08
2.93213e-08
3.55832e-08
4.07704e-08
4.66326e-08
5.24023e-08
5.75477e-08
6.29435e-08
6.78931e-08
7.28602e-08
7.77418e-08
8.23316e-08
8.69898e-08
9.14702e-08
9.57569e-08
1.00142e-07
1.04181e-07
1.08291e-07
1.12307e-07
1.16061e-07
1.19991e-07
1.23551e-07
1.27208e-07
1.30762e-07
1.34063e-07
1.37597e-07
1.40632e-07
1.44013e-07
1.46919e-07
1.50027e-07
1.52896e-07
1.55679e-07
1.58503e-07
1.6095e-07
1.6371e-07
1.65762e-07
1.68521e-07
1.69921e-07
1.73016e-07
1.72919e-07
1.77504e-07
1.7348e-07
1.82826e-07
1.68634e-07
1.91418e-07
1.49679e-07
2.09499e-07
8.46737e-08
2.62056e-07
-4.80868e-07
3.30587e-09
3.60778e-07
1.28304e-07
2.29463e-07
4.32224e-08
-1.45617e-07
-2.05043e-08
-1.62385e-07
-1.21835e-07
-1.82907e-07
-1.73796e-07
-1.97088e-07
-1.97257e-07
-2.04743e-07
-2.04207e-07
-2.06701e-07
-2.0318e-07
-2.02914e-07
-1.98692e-07
-1.94938e-07
-1.91196e-07
-1.85718e-07
-1.8062e-07
-1.7558e-07
-1.69102e-07
-1.63489e-07
-1.57461e-07
-1.5061e-07
-1.44651e-07
-1.37886e-07
-1.31022e-07
-1.24711e-07
-1.17604e-07
-1.10754e-07
-1.04089e-07
-9.67917e-08
-8.99698e-08
-8.29935e-08
-7.57173e-08
-6.88915e-08
-6.16061e-08
-5.45221e-08
-4.74874e-08
-4.01854e-08
-3.31733e-08
-2.59109e-08
-1.87927e-08
-1.16433e-08
-4.4629e-09
2.67726e-09
9.84365e-09
1.70558e-08
2.32471e-08
2.93207e-08
3.55814e-08
4.07711e-08
4.66322e-08
5.24007e-08
5.75467e-08
6.29427e-08
6.78931e-08
7.28604e-08
7.77423e-08
8.23328e-08
8.69911e-08
9.14719e-08
9.57591e-08
1.00144e-07
1.04184e-07
1.08294e-07
1.12311e-07
1.16065e-07
1.19995e-07
1.23555e-07
1.27212e-07
1.30767e-07
1.34068e-07
1.37602e-07
1.40638e-07
1.44018e-07
1.46925e-07
1.50034e-07
1.52903e-07
1.55686e-07
1.5851e-07
1.60957e-07
1.63718e-07
1.65771e-07
1.6853e-07
1.69929e-07
1.73027e-07
1.72926e-07
1.77518e-07
1.73483e-07
1.82848e-07
1.68623e-07
1.91456e-07
1.49614e-07
2.09574e-07
8.42734e-08
2.62232e-07
-4.77336e-07
4.25732e-09
3.60531e-07
1.26703e-07
2.27448e-07
4.3312e-08
-1.44131e-07
-2.03931e-08
-1.61947e-07
-1.21552e-07
-1.82541e-07
-1.7356e-07
-1.9685e-07
-1.97092e-07
-2.04603e-07
-2.04101e-07
-2.06619e-07
-2.03121e-07
-2.02869e-07
-1.98664e-07
-1.94918e-07
-1.91185e-07
-1.85716e-07
-1.80621e-07
-1.75585e-07
-1.69112e-07
-1.635e-07
-1.57474e-07
-1.50625e-07
-1.44666e-07
-1.37902e-07
-1.31038e-07
-1.24726e-07
-1.1762e-07
-1.10769e-07
-1.04103e-07
-9.68068e-08
-8.99837e-08
-8.30067e-08
-7.573e-08
-6.89032e-08
-6.16173e-08
-5.45325e-08
-4.74968e-08
-4.01942e-08
-3.31814e-08
-2.59183e-08
-1.87994e-08
-1.16492e-08
-4.46821e-09
2.67263e-09
9.83973e-09
1.70519e-08
2.32466e-08
2.932e-08
3.55793e-08
4.07717e-08
4.66317e-08
5.23989e-08
5.75455e-08
6.29416e-08
6.78928e-08
7.28604e-08
7.77427e-08
8.2334e-08
8.69923e-08
9.14736e-08
9.57612e-08
1.00147e-07
1.04187e-07
1.08297e-07
1.12314e-07
1.16068e-07
1.19999e-07
1.2356e-07
1.27217e-07
1.30772e-07
1.34073e-07
1.37608e-07
1.40644e-07
1.44025e-07
1.46932e-07
1.5004e-07
1.5291e-07
1.55693e-07
1.58518e-07
1.60966e-07
1.63726e-07
1.65779e-07
1.68539e-07
1.69938e-07
1.73038e-07
1.72934e-07
1.77534e-07
1.73486e-07
1.82871e-07
1.68611e-07
1.91497e-07
1.49545e-07
2.09655e-07
8.38496e-08
2.62416e-07
-4.73552e-07
5.29206e-09
3.60213e-07
1.25027e-07
2.25304e-07
4.33973e-08
-1.42545e-07
-2.02783e-08
-1.61469e-07
-1.21249e-07
-1.82146e-07
-1.73305e-07
-1.96592e-07
-1.96913e-07
-2.0445e-07
-2.03986e-07
-2.06529e-07
-2.03057e-07
-2.02819e-07
-1.98633e-07
-1.94895e-07
-1.91172e-07
-1.85713e-07
-1.80621e-07
-1.7559e-07
-1.69123e-07
-1.63511e-07
-1.57488e-07
-1.50641e-07
-1.44681e-07
-1.3792e-07
-1.31055e-07
-1.24743e-07
-1.17637e-07
-1.10785e-07
-1.04119e-07
-9.68228e-08
-8.99984e-08
-8.30207e-08
-7.57436e-08
-6.89157e-08
-6.16293e-08
-5.45435e-08
-4.7507e-08
-4.02037e-08
-3.31901e-08
-2.59261e-08
-1.88067e-08
-1.16555e-08
-4.47395e-09
2.6676e-09
9.83544e-09
1.70477e-08
2.32459e-08
2.93191e-08
3.55769e-08
4.07722e-08
4.66309e-08
5.23967e-08
5.7544e-08
6.29402e-08
6.78924e-08
7.28602e-08
7.77428e-08
8.2335e-08
8.69934e-08
9.14752e-08
9.57633e-08
1.00149e-07
1.0419e-07
1.083e-07
1.12318e-07
1.16072e-07
1.20003e-07
1.23564e-07
1.27222e-07
1.30777e-07
1.34079e-07
1.37613e-07
1.4065e-07
1.44031e-07
1.46939e-07
1.50048e-07
1.52917e-07
1.55701e-07
1.58526e-07
1.60974e-07
1.63735e-07
1.65789e-07
1.68549e-07
1.69948e-07
1.7305e-07
1.72942e-07
1.7755e-07
1.73489e-07
1.82896e-07
1.68598e-07
1.9154e-07
1.49471e-07
2.09741e-07
8.34017e-08
2.62607e-07
-4.69522e-07
6.42264e-09
3.59816e-07
1.23276e-07
2.23025e-07
4.34774e-08
-1.40852e-07
-2.01597e-08
-1.60947e-07
-1.20926e-07
-1.81719e-07
-1.7303e-07
-1.96312e-07
-1.96718e-07
-2.04283e-07
-2.03861e-07
-2.06432e-07
-2.02986e-07
-2.02765e-07
-1.98599e-07
-1.9487e-07
-1.91157e-07
-1.85709e-07
-1.80621e-07
-1.75594e-07
-1.69134e-07
-1.63522e-07
-1.57502e-07
-1.50657e-07
-1.44697e-07
-1.37938e-07
-1.31074e-07
-1.2476e-07
-1.17656e-07
-1.10802e-07
-1.04135e-07
-9.68397e-08
-9.0014e-08
-8.30356e-08
-7.57581e-08
-6.89289e-08
-6.1642e-08
-5.45554e-08
-4.75178e-08
-4.02139e-08
-3.31994e-08
-2.59346e-08
-1.88145e-08
-1.16624e-08
-4.48019e-09
2.66211e-09
9.83073e-09
1.70431e-08
2.32449e-08
2.93179e-08
3.55742e-08
4.07725e-08
4.66298e-08
5.23941e-08
5.75421e-08
6.29385e-08
6.78917e-08
7.28597e-08
7.77428e-08
8.23358e-08
8.69943e-08
9.14767e-08
9.57652e-08
1.00151e-07
1.04193e-07
1.08303e-07
1.12321e-07
1.16076e-07
1.20007e-07
1.23569e-07
1.27227e-07
1.30782e-07
1.34085e-07
1.37619e-07
1.40657e-07
1.44038e-07
1.46946e-07
1.50055e-07
1.52925e-07
1.55709e-07
1.58534e-07
1.60983e-07
1.63745e-07
1.65798e-07
1.6856e-07
1.69957e-07
1.73063e-07
1.7295e-07
1.77568e-07
1.73492e-07
1.82922e-07
1.68585e-07
1.91586e-07
1.49392e-07
2.09833e-07
8.29293e-08
2.62804e-07
-4.65188e-07
7.65972e-09
3.59327e-07
1.21453e-07
2.20607e-07
4.35519e-08
-1.39047e-07
-2.0037e-08
-1.60375e-07
-1.20581e-07
-1.81256e-07
-1.72733e-07
-1.96008e-07
-1.96507e-07
-2.04101e-07
-2.03725e-07
-2.06324e-07
-2.02909e-07
-2.02704e-07
-1.98561e-07
-1.94841e-07
-1.91139e-07
-1.85703e-07
-1.80619e-07
-1.75598e-07
-1.69144e-07
-1.63533e-07
-1.57516e-07
-1.50674e-07
-1.44714e-07
-1.37956e-07
-1.31093e-07
-1.24778e-07
-1.17675e-07
-1.10821e-07
-1.04153e-07
-9.68577e-08
-9.00306e-08
-8.30515e-08
-7.57735e-08
-6.8943e-08
-6.16557e-08
-5.4568e-08
-4.75294e-08
-4.02248e-08
-3.32095e-08
-2.59438e-08
-1.8823e-08
-1.16699e-08
-4.48698e-09
2.65611e-09
9.82554e-09
1.7038e-08
2.32437e-08
2.93164e-08
3.55709e-08
4.07726e-08
4.66284e-08
5.2391e-08
5.75398e-08
6.29364e-08
6.78906e-08
7.2859e-08
7.77424e-08
8.23364e-08
8.69949e-08
9.14779e-08
9.5767e-08
1.00153e-07
1.04196e-07
1.08306e-07
1.12324e-07
1.1608e-07
1.20011e-07
1.23574e-07
1.27232e-07
1.30788e-07
1.3409e-07
1.37625e-07
1.40663e-07
1.44044e-07
1.46953e-07
1.50063e-07
1.52933e-07
1.55718e-07
1.58543e-07
1.60992e-07
1.63754e-07
1.65808e-07
1.68571e-07
1.69968e-07
1.73077e-07
1.72958e-07
1.77586e-07
1.73495e-07
1.82949e-07
1.6857e-07
1.91635e-07
1.49306e-07
2.09931e-07
8.24317e-08
2.63007e-07
-4.60517e-07
9.0128e-09
3.58733e-07
1.19561e-07
2.18045e-07
4.36199e-08
-1.37124e-07
-1.99102e-08
-1.59749e-07
-1.20212e-07
-1.80754e-07
-1.72413e-07
-1.95678e-07
-1.96278e-07
-2.03903e-07
-2.03576e-07
-2.06206e-07
-2.02824e-07
-2.02637e-07
-1.98518e-07
-1.94809e-07
-1.91119e-07
-1.85696e-07
-1.80617e-07
-1.75601e-07
-1.69155e-07
-1.63544e-07
-1.5753e-07
-1.50692e-07
-1.44731e-07
-1.37976e-07
-1.31113e-07
-1.24797e-07
-1.17695e-07
-1.1084e-07
-1.04171e-07
-9.68768e-08
-9.00482e-08
-8.30683e-08
-7.57899e-08
-6.89581e-08
-6.16702e-08
-5.45815e-08
-4.75418e-08
-4.02365e-08
-3.32203e-08
-2.59536e-08
-1.88321e-08
-1.1678e-08
-4.4944e-09
2.64953e-09
9.8198e-09
1.70324e-08
2.32423e-08
2.93145e-08
3.55672e-08
4.07724e-08
4.66266e-08
5.23874e-08
5.7537e-08
6.29338e-08
6.78892e-08
7.28578e-08
7.77416e-08
8.23366e-08
8.69953e-08
9.14789e-08
9.57686e-08
1.00155e-07
1.04199e-07
1.08309e-07
1.12328e-07
1.16084e-07
1.20015e-07
1.23579e-07
1.27236e-07
1.30793e-07
1.34096e-07
1.37631e-07
1.4067e-07
1.44051e-07
1.4696e-07
1.5007e-07
1.52941e-07
1.55726e-07
1.58552e-07
1.61002e-07
1.63764e-07
1.65818e-07
1.68582e-07
1.69978e-07
1.73091e-07
1.72967e-07
1.77605e-07
1.73498e-07
1.82978e-07
1.68553e-07
1.91687e-07
1.49215e-07
2.10035e-07
8.19085e-08
2.63214e-07
-4.55488e-07
1.0492e-08
3.58018e-07
1.17604e-07
2.15336e-07
4.36807e-08
-1.35076e-07
-1.97789e-08
-1.59063e-07
-1.19818e-07
-1.8021e-07
-1.72067e-07
-1.95319e-07
-1.96029e-07
-2.03686e-07
-2.03414e-07
-2.06076e-07
-2.02731e-07
-2.02563e-07
-1.98469e-07
-1.94773e-07
-1.91095e-07
-1.85687e-07
-1.80612e-07
-1.75602e-07
-1.69165e-07
-1.63555e-07
-1.57545e-07
-1.5071e-07
-1.44749e-07
-1.37997e-07
-1.31134e-07
-1.24816e-07
-1.17716e-07
-1.1086e-07
-1.04191e-07
-9.6897e-08
-9.00668e-08
-8.30862e-08
-7.58073e-08
-6.89741e-08
-6.16858e-08
-5.4596e-08
-4.75552e-08
-4.02491e-08
-3.32319e-08
-2.59643e-08
-1.8842e-08
-1.16868e-08
-4.5025e-09
2.64229e-09
9.81344e-09
1.70261e-08
2.32404e-08
2.93121e-08
3.55629e-08
4.07718e-08
4.66242e-08
5.23832e-08
5.75337e-08
6.29306e-08
6.78872e-08
7.28561e-08
7.77404e-08
8.23365e-08
8.69952e-08
9.14795e-08
9.57698e-08
1.00156e-07
1.04201e-07
1.08311e-07
1.12331e-07
1.16088e-07
1.20019e-07
1.23583e-07
1.27241e-07
1.30798e-07
1.34102e-07
1.37637e-07
1.40676e-07
1.44058e-07
1.46967e-07
1.50078e-07
1.52949e-07
1.55735e-07
1.58561e-07
1.61011e-07
1.63775e-07
1.65829e-07
1.68594e-07
1.69989e-07
1.73105e-07
1.72976e-07
1.77625e-07
1.735e-07
1.83009e-07
1.68535e-07
1.91741e-07
1.49118e-07
2.10145e-07
8.13595e-08
2.63422e-07
-4.5008e-07
1.21088e-08
3.57167e-07
1.15589e-07
2.12476e-07
4.37335e-08
-1.32898e-07
-1.96429e-08
-1.5831e-07
-1.19397e-07
-1.79619e-07
-1.71692e-07
-1.94929e-07
-1.95757e-07
-2.03448e-07
-2.03236e-07
-2.05933e-07
-2.02627e-07
-2.0248e-07
-1.98415e-07
-1.94732e-07
-1.91068e-07
-1.85675e-07
-1.80606e-07
-1.75603e-07
-1.69175e-07
-1.63566e-07
-1.5756e-07
-1.50729e-07
-1.44767e-07
-1.38018e-07
-1.31156e-07
-1.24837e-07
-1.17739e-07
-1.10882e-07
-1.04211e-07
-9.69183e-08
-9.00865e-08
-8.31051e-08
-7.58259e-08
-6.89911e-08
-6.17024e-08
-5.46115e-08
-4.75695e-08
-4.02627e-08
-3.32444e-08
-2.59759e-08
-1.88528e-08
-1.16964e-08
-4.51138e-09
2.63433e-09
9.80638e-09
1.70192e-08
2.3238e-08
2.93092e-08
3.55578e-08
4.07708e-08
4.66213e-08
5.23782e-08
5.75297e-08
6.29267e-08
6.78846e-08
7.28539e-08
7.77386e-08
8.23359e-08
8.69947e-08
9.14797e-08
9.57707e-08
1.00157e-07
1.04203e-07
1.08314e-07
1.12333e-07
1.16091e-07
1.20022e-07
1.23588e-07
1.27246e-07
1.30803e-07
1.34108e-07
1.37643e-07
1.40683e-07
1.44065e-07
1.46975e-07
1.50086e-07
1.52957e-07
1.55744e-07
1.5857e-07
1.61021e-07
1.63785e-07
1.6584e-07
1.68606e-07
1.7e-07
1.7312e-07
1.72985e-07
1.77646e-07
1.73503e-07
1.83041e-07
1.68515e-07
1.91798e-07
1.49013e-07
2.10262e-07
8.07847e-08
2.6363e-07
-4.44269e-07
1.38757e-08
3.5616e-07
1.13521e-07
2.09464e-07
4.37776e-08
-1.30584e-07
-1.9502e-08
-1.57483e-07
-1.18947e-07
-1.78978e-07
-1.71286e-07
-1.94504e-07
-1.95461e-07
-2.03187e-07
-2.03042e-07
-2.05774e-07
-2.02513e-07
-2.02388e-07
-1.98354e-07
-1.94686e-07
-1.91036e-07
-1.85661e-07
-1.80598e-07
-1.75602e-07
-1.69184e-07
-1.63576e-07
-1.57575e-07
-1.50748e-07
-1.44786e-07
-1.3804e-07
-1.31179e-07
-1.24858e-07
-1.17762e-07
-1.10904e-07
-1.04233e-07
-9.69409e-08
-9.01073e-08
-8.31252e-08
-7.58457e-08
-6.90092e-08
-6.17201e-08
-5.4628e-08
-4.75848e-08
-4.02773e-08
-3.32579e-08
-2.59884e-08
-1.88645e-08
-1.17069e-08
-4.52112e-09
2.62554e-09
9.79854e-09
1.70114e-08
2.32352e-08
2.93057e-08
3.5552e-08
4.07693e-08
4.66176e-08
5.23724e-08
5.7525e-08
6.29221e-08
6.78814e-08
7.2851e-08
7.77362e-08
8.23348e-08
8.69936e-08
9.14794e-08
9.57711e-08
1.00158e-07
1.04205e-07
1.08316e-07
1.12336e-07
1.16095e-07
1.20026e-07
1.23592e-07
1.2725e-07
1.30808e-07
1.34113e-07
1.37649e-07
1.40689e-07
1.44072e-07
1.46982e-07
1.50094e-07
1.52965e-07
1.55753e-07
1.5858e-07
1.61031e-07
1.63796e-07
1.65851e-07
1.68619e-07
1.70011e-07
1.73136e-07
1.72994e-07
1.77667e-07
1.73504e-07
1.83074e-07
1.68494e-07
1.91858e-07
1.48901e-07
2.10385e-07
8.01843e-08
2.63834e-07
-4.38035e-07
1.58058e-08
3.5498e-07
1.1141e-07
2.06297e-07
4.38121e-08
-1.28129e-07
-1.9356e-08
-1.56576e-07
-1.18465e-07
-1.7828e-07
-1.70847e-07
-1.9404e-07
-1.95138e-07
-2.02902e-07
-2.02828e-07
-2.05599e-07
-2.02386e-07
-2.02285e-07
-1.98284e-07
-1.94634e-07
-1.90999e-07
-1.85643e-07
-1.80588e-07
-1.75598e-07
-1.69193e-07
-1.63586e-07
-1.57589e-07
-1.50767e-07
-1.44805e-07
-1.38063e-07
-1.31202e-07
-1.24881e-07
-1.17787e-07
-1.10928e-07
-1.04255e-07
-9.69648e-08
-9.01293e-08
-8.31465e-08
-7.58667e-08
-6.90285e-08
-6.17391e-08
-5.46457e-08
-4.76012e-08
-4.02931e-08
-3.32725e-08
-2.60019e-08
-1.88772e-08
-1.17184e-08
-4.5318e-09
2.61586e-09
9.78982e-09
1.70028e-08
2.32317e-08
2.93014e-08
3.55453e-08
4.07671e-08
4.66132e-08
5.23657e-08
5.75194e-08
6.29166e-08
6.78773e-08
7.28473e-08
7.7733e-08
8.2333e-08
8.69918e-08
9.14785e-08
9.57709e-08
1.00158e-07
1.04206e-07
1.08317e-07
1.12338e-07
1.16097e-07
1.20029e-07
1.23596e-07
1.27254e-07
1.30813e-07
1.34119e-07
1.37654e-07
1.40696e-07
1.44078e-07
1.4699e-07
1.50102e-07
1.52974e-07
1.55762e-07
1.58589e-07
1.61042e-07
1.63806e-07
1.65862e-07
1.68631e-07
1.70022e-07
1.73152e-07
1.73004e-07
1.7769e-07
1.73506e-07
1.83109e-07
1.6847e-07
1.91921e-07
1.48782e-07
2.10515e-07
7.9559e-08
2.64032e-07
-4.31353e-07
1.79129e-08
3.53603e-07
1.09267e-07
2.02976e-07
4.38364e-08
-1.25528e-07
-1.92048e-08
-1.55579e-07
-1.17951e-07
-1.77522e-07
-1.70371e-07
-1.93534e-07
-1.94785e-07
-2.02588e-07
-2.02594e-07
-2.05406e-07
-2.02246e-07
-2.0217e-07
-1.98206e-07
-1.94574e-07
-1.90956e-07
-1.85621e-07
-1.80574e-07
-1.75593e-07
-1.692e-07
-1.63595e-07
-1.57603e-07
-1.50787e-07
-1.44824e-07
-1.38086e-07
-1.31227e-07
-1.24904e-07
-1.17812e-07
-1.10952e-07
-1.04279e-07
-9.699e-08
-9.01526e-08
-8.3169e-08
-7.5889e-08
-6.9049e-08
-6.17594e-08
-5.46647e-08
-4.76188e-08
-4.031e-08
-3.32882e-08
-2.60167e-08
-1.8891e-08
-1.17309e-08
-4.54353e-09
2.60517e-09
9.78011e-09
1.69933e-08
2.32274e-08
2.92963e-08
3.55375e-08
4.07642e-08
4.66078e-08
5.23579e-08
5.75128e-08
6.29101e-08
6.78724e-08
7.28427e-08
7.7729e-08
8.23304e-08
8.69893e-08
9.14769e-08
9.57701e-08
1.00157e-07
1.04207e-07
1.08318e-07
1.12339e-07
1.161e-07
1.20031e-07
1.236e-07
1.27258e-07
1.30817e-07
1.34124e-07
1.3766e-07
1.40702e-07
1.44085e-07
1.46997e-07
1.5011e-07
1.52982e-07
1.55771e-07
1.58598e-07
1.61052e-07
1.63817e-07
1.65873e-07
1.68644e-07
1.70034e-07
1.73168e-07
1.73013e-07
1.77713e-07
1.73506e-07
1.83145e-07
1.68444e-07
1.91987e-07
1.48654e-07
2.10651e-07
7.891e-08
2.64219e-07
-4.24204e-07
2.02113e-08
3.52006e-07
1.07102e-07
1.995e-07
4.38496e-08
-1.22777e-07
-1.90482e-08
-1.54484e-07
-1.17401e-07
-1.76697e-07
-1.69855e-07
-1.92983e-07
-1.944e-07
-2.02243e-07
-2.02336e-07
-2.05192e-07
-2.0209e-07
-2.02042e-07
-1.98118e-07
-1.94507e-07
-1.90907e-07
-1.85594e-07
-1.80557e-07
-1.75584e-07
-1.69205e-07
-1.63602e-07
-1.57616e-07
-1.50807e-07
-1.44844e-07
-1.3811e-07
-1.31252e-07
-1.24928e-07
-1.17839e-07
-1.10978e-07
-1.04304e-07
-9.70166e-08
-9.01771e-08
-8.31929e-08
-7.59128e-08
-6.90708e-08
-6.1781e-08
-5.4685e-08
-4.76378e-08
-4.03283e-08
-3.33052e-08
-2.60326e-08
-1.89061e-08
-1.17446e-08
-4.55642e-09
2.59336e-09
9.76932e-09
1.69826e-08
2.32223e-08
2.92902e-08
3.55286e-08
4.07605e-08
4.66014e-08
5.23489e-08
5.75052e-08
6.29024e-08
6.78665e-08
7.28372e-08
7.7724e-08
8.2327e-08
8.69859e-08
9.14744e-08
9.57685e-08
1.00156e-07
1.04207e-07
1.08318e-07
1.1234e-07
1.16102e-07
1.20033e-07
1.23603e-07
1.27261e-07
1.30821e-07
1.34128e-07
1.37665e-07
1.40708e-07
1.44091e-07
1.47004e-07
1.50117e-07
1.5299e-07
1.5578e-07
1.58608e-07
1.61062e-07
1.63828e-07
1.65884e-07
1.68657e-07
1.70046e-07
1.73185e-07
1.73022e-07
1.77737e-07
1.73506e-07
1.83182e-07
1.68415e-07
1.92055e-07
1.48517e-07
2.10794e-07
7.82387e-08
2.64391e-07
-4.16565e-07
2.27159e-08
3.50165e-07
1.04932e-07
1.95872e-07
4.38513e-08
-1.19872e-07
-1.88862e-08
-1.53282e-07
-1.16813e-07
-1.758e-07
-1.69295e-07
-1.9238e-07
-1.93979e-07
-2.01865e-07
-2.02053e-07
-2.04955e-07
-2.01918e-07
-2.01899e-07
-1.98018e-07
-1.94431e-07
-1.90851e-07
-1.85562e-07
-1.80535e-07
-1.75573e-07
-1.69209e-07
-1.63608e-07
-1.57628e-07
-1.50826e-07
-1.44863e-07
-1.38134e-07
-1.31279e-07
-1.24952e-07
-1.17867e-07
-1.11005e-07
-1.0433e-07
-9.70446e-08
-9.0203e-08
-8.32181e-08
-7.59381e-08
-6.9094e-08
-6.18041e-08
-5.47068e-08
-4.76581e-08
-4.0348e-08
-3.33235e-08
-2.60499e-08
-1.89224e-08
-1.17596e-08
-4.57058e-09
2.58032e-09
9.75732e-09
1.69707e-08
2.32163e-08
2.9283e-08
3.55184e-08
4.07558e-08
4.65939e-08
5.23386e-08
5.74963e-08
6.28936e-08
6.78594e-08
7.28305e-08
7.77179e-08
8.23225e-08
8.69815e-08
9.1471e-08
9.57661e-08
1.00153e-07
1.04207e-07
1.08318e-07
1.1234e-07
1.16103e-07
1.20034e-07
1.23605e-07
1.27264e-07
1.30825e-07
1.34133e-07
1.37669e-07
1.40713e-07
1.44097e-07
1.47011e-07
1.50124e-07
1.52998e-07
1.55788e-07
1.58617e-07
1.61072e-07
1.63839e-07
1.65896e-07
1.6867e-07
1.70057e-07
1.73201e-07
1.73031e-07
1.77761e-07
1.73505e-07
1.83221e-07
1.68384e-07
1.92126e-07
1.48372e-07
2.10943e-07
7.75473e-08
2.64544e-07
-4.08419e-07
2.54415e-08
3.48052e-07
1.02771e-07
1.92095e-07
4.38409e-08
-1.1681e-07
-1.87187e-08
-1.51963e-07
-1.16185e-07
-1.74823e-07
-1.68689e-07
-1.91723e-07
-1.93519e-07
-2.01448e-07
-2.01742e-07
-2.04692e-07
-2.01726e-07
-2.0174e-07
-1.97906e-07
-1.94344e-07
-1.90786e-07
-1.85524e-07
-1.80509e-07
-1.75557e-07
-1.6921e-07
-1.63612e-07
-1.57639e-07
-1.50845e-07
-1.44882e-07
-1.38158e-07
-1.31306e-07
-1.24977e-07
-1.17896e-07
-1.11033e-07
-1.04357e-07
-9.7074e-08
-9.02302e-08
-8.32448e-08
-7.59649e-08
-6.91186e-08
-6.18287e-08
-5.473e-08
-4.76799e-08
-4.03692e-08
-3.33433e-08
-2.60687e-08
-1.89402e-08
-1.17759e-08
-4.58614e-09
2.56593e-09
9.74397e-09
1.69575e-08
2.32092e-08
2.92746e-08
3.55067e-08
4.07501e-08
4.6585e-08
5.23268e-08
5.74861e-08
6.28833e-08
6.7851e-08
7.28226e-08
7.77106e-08
8.2317e-08
8.69759e-08
9.14665e-08
9.57626e-08
1.0015e-07
1.04205e-07
1.08316e-07
1.12339e-07
1.16103e-07
1.20034e-07
1.23607e-07
1.27266e-07
1.30827e-07
1.34136e-07
1.37673e-07
1.40719e-07
1.44102e-07
1.47017e-07
1.50131e-07
1.53005e-07
1.55797e-07
1.58626e-07
1.61082e-07
1.63849e-07
1.65907e-07
1.68683e-07
1.70068e-07
1.73219e-07
1.73039e-07
1.77786e-07
1.73504e-07
1.83261e-07
1.6835e-07
1.92199e-07
1.48218e-07
2.11097e-07
7.68387e-08
2.64672e-07
-3.99744e-07
2.84034e-08
3.45639e-07
1.00637e-07
1.88173e-07
4.38185e-08
-1.13589e-07
-1.85458e-08
-1.50517e-07
-1.15514e-07
-1.73761e-07
-1.68032e-07
-1.91005e-07
-1.93017e-07
-2.0099e-07
-2.014e-07
-2.04401e-07
-2.01513e-07
-2.01562e-07
-1.97779e-07
-1.94247e-07
-1.90711e-07
-1.85479e-07
-1.80477e-07
-1.75536e-07
-1.69208e-07
-1.63613e-07
-1.57649e-07
-1.50864e-07
-1.449e-07
-1.38183e-07
-1.31333e-07
-1.25003e-07
-1.17926e-07
-1.11062e-07
-1.04385e-07
-9.71049e-08
-9.02589e-08
-8.32729e-08
-7.59933e-08
-6.91448e-08
-6.1855e-08
-5.47549e-08
-4.77032e-08
-4.03921e-08
-3.33647e-08
-2.60891e-08
-1.89596e-08
-1.17939e-08
-4.60322e-09
2.55005e-09
9.72916e-09
1.69428e-08
2.32008e-08
2.92649e-08
3.54935e-08
4.0743e-08
4.65746e-08
5.23134e-08
5.74743e-08
6.28714e-08
6.78412e-08
7.28132e-08
7.77019e-08
8.23101e-08
8.69691e-08
9.14608e-08
9.5758e-08
1.00145e-07
1.04202e-07
1.08314e-07
1.12338e-07
1.16103e-07
1.20034e-07
1.23608e-07
1.27267e-07
1.30829e-07
1.34139e-07
1.37676e-07
1.40723e-07
1.44106e-07
1.47023e-07
1.50137e-07
1.53012e-07
1.55805e-07
1.58634e-07
1.61091e-07
1.6386e-07
1.65918e-07
1.68696e-07
1.70079e-07
1.73236e-07
1.73047e-07
1.77811e-07
1.73501e-07
1.83301e-07
1.68313e-07
1.92275e-07
1.48054e-07
2.11257e-07
7.61165e-08
2.64769e-07
-3.90525e-07
3.16166e-08
3.42898e-07
9.85517e-08
1.84112e-07
4.3784e-08
-1.10208e-07
-1.83674e-08
-1.48932e-07
-1.14798e-07
-1.72605e-07
-1.6732e-07
-1.90222e-07
-1.92467e-07
-2.00487e-07
-2.01024e-07
-2.04078e-07
-2.01276e-07
-2.01363e-07
-1.97636e-07
-1.94136e-07
-1.90625e-07
-1.85425e-07
-1.80438e-07
-1.75511e-07
-1.69203e-07
-1.63612e-07
-1.57656e-07
-1.50881e-07
-1.44918e-07
-1.38207e-07
-1.31361e-07
-1.25029e-07
-1.17957e-07
-1.11093e-07
-1.04414e-07
-9.71373e-08
-9.0289e-08
-8.33026e-08
-7.60234e-08
-6.91725e-08
-6.1883e-08
-5.47815e-08
-4.77283e-08
-4.04167e-08
-3.33877e-08
-2.61112e-08
-1.89807e-08
-1.18134e-08
-4.62196e-09
2.53256e-09
9.71273e-09
1.69265e-08
2.31911e-08
2.92536e-08
3.54785e-08
4.07347e-08
4.65627e-08
5.22982e-08
5.74609e-08
6.28578e-08
6.78298e-08
7.28023e-08
7.76916e-08
8.23018e-08
8.69608e-08
9.14538e-08
9.57522e-08
1.0014e-07
1.04199e-07
1.0831e-07
1.12335e-07
1.16101e-07
1.20032e-07
1.23608e-07
1.27268e-07
1.3083e-07
1.34141e-07
1.37678e-07
1.40727e-07
1.4411e-07
1.47028e-07
1.50143e-07
1.53019e-07
1.55812e-07
1.58642e-07
1.611e-07
1.6387e-07
1.65928e-07
1.68708e-07
1.7009e-07
1.73253e-07
1.73054e-07
1.77837e-07
1.73497e-07
1.83343e-07
1.68273e-07
1.92352e-07
1.4788e-07
2.11422e-07
7.53852e-08
2.64826e-07
-3.80744e-07
3.50958e-08
3.39799e-07
9.65364e-08
1.7992e-07
4.37382e-08
-1.06667e-07
-1.81837e-08
-1.47198e-07
-1.14034e-07
-1.71347e-07
-1.66549e-07
-1.89366e-07
-1.91867e-07
-1.99933e-07
-2.0061e-07
-2.03721e-07
-2.01013e-07
-2.0114e-07
-1.97474e-07
-1.9401e-07
-1.90527e-07
-1.85362e-07
-1.80392e-07
-1.75479e-07
-1.69193e-07
-1.63607e-07
-1.57661e-07
-1.50897e-07
-1.44934e-07
-1.38231e-07
-1.31389e-07
-1.25055e-07
-1.17988e-07
-1.11124e-07
-1.04445e-07
-9.71711e-08
-9.03205e-08
-8.33338e-08
-7.60553e-08
-6.92019e-08
-6.19129e-08
-5.48099e-08
-4.77551e-08
-4.04432e-08
-3.34126e-08
-2.61351e-08
-1.90036e-08
-1.18348e-08
-4.6425e-09
2.51329e-09
9.69453e-09
1.69084e-08
2.31799e-08
2.92405e-08
3.54615e-08
4.07247e-08
4.65489e-08
5.2281e-08
5.74457e-08
6.28424e-08
6.78166e-08
7.27896e-08
7.76796e-08
8.2292e-08
8.6951e-08
9.14452e-08
9.57448e-08
1.00132e-07
1.04194e-07
1.08305e-07
1.12331e-07
1.16098e-07
1.20029e-07
1.23607e-07
1.27267e-07
1.30831e-07
1.34143e-07
1.3768e-07
1.4073e-07
1.44113e-07
1.47032e-07
1.50148e-07
1.53024e-07
1.55819e-07
1.5865e-07
1.61109e-07
1.63879e-07
1.65938e-07
1.6872e-07
1.70101e-07
1.7327e-07
1.73061e-07
1.77863e-07
1.73492e-07
1.83385e-07
1.68229e-07
1.92432e-07
1.47697e-07
2.11591e-07
7.46503e-08
2.64838e-07
-3.70388e-07
3.88548e-08
3.36312e-07
9.46151e-08
1.75608e-07
4.36822e-08
-1.02968e-07
-1.79944e-08
-1.45303e-07
-1.13219e-07
-1.6998e-07
-1.65713e-07
-1.88432e-07
-1.9121e-07
-1.99323e-07
-2.00154e-07
-2.03325e-07
-2.00721e-07
-2.00892e-07
-1.97291e-07
-1.93868e-07
-1.90414e-07
-1.85288e-07
-1.80338e-07
-1.75439e-07
-1.69179e-07
-1.63599e-07
-1.57662e-07
-1.50912e-07
-1.44949e-07
-1.38255e-07
-1.31417e-07
-1.25082e-07
-1.18021e-07
-1.11156e-07
-1.04476e-07
-9.72065e-08
-9.03535e-08
-8.33666e-08
-7.6089e-08
-6.9233e-08
-6.19446e-08
-5.48402e-08
-4.77839e-08
-4.04717e-08
-3.34394e-08
-2.6161e-08
-1.90285e-08
-1.1858e-08
-4.66499e-09
2.4921e-09
9.67442e-09
1.68884e-08
2.3167e-08
2.92257e-08
3.54425e-08
4.0713e-08
4.65331e-08
5.22617e-08
5.74285e-08
6.28248e-08
6.78015e-08
7.2775e-08
7.76657e-08
8.22804e-08
8.69393e-08
9.14349e-08
9.57359e-08
1.00124e-07
1.04187e-07
1.08299e-07
1.12325e-07
1.16094e-07
1.20025e-07
1.23605e-07
1.27265e-07
1.3083e-07
1.34143e-07
1.3768e-07
1.40732e-07
1.44115e-07
1.47036e-07
1.50152e-07
1.53029e-07
1.55825e-07
1.58656e-07
1.61117e-07
1.63888e-07
1.65948e-07
1.68732e-07
1.7011e-07
1.73287e-07
1.73067e-07
1.77888e-07
1.73485e-07
1.83428e-07
1.68182e-07
1.92512e-07
1.47504e-07
2.11762e-07
7.39187e-08
2.64795e-07
-3.59445e-07
4.29062e-08
3.32409e-07
9.28139e-08
1.71186e-07
4.36182e-08
-9.91123e-08
-1.77995e-08
-1.43235e-07
-1.12349e-07
-1.68495e-07
-1.64807e-07
-1.87413e-07
-1.90492e-07
-1.98653e-07
-1.99652e-07
-2.02886e-07
-2.00396e-07