/*--------------------------------*- C++ -*----------------------------------*\
| =========                 |                                                 |
| \\      /  F ield         | OpenFOAM: The Open Source CFD Toolbox           |
|  \\    /   O peration     | Version:  5.x                                   |
|   \\  /    A nd           | Web:      www.OpenFOAM.org                      |
|    \\/     M anipulation  |                                                 |
\*---------------------------------------------------------------------------*/
FoamFile
{
    version     2.0;
    format      ascii;
    class       surfaceScalarField;
    location    "500";
    object      phi;
}
// * * * * * * * * * * * * * * * * * * * * * * * * * * * * * * * * * * * * * //

dimensions      [0 3 -1 0 0 0 0];

internalField   nonuniform List<scalar> 
215247
(
2.46832e-11
2.62381e-12
-2.55998e-11
2.49618e-11
-2.78528e-13
3.06698e-11
-5.70792e-12
3.66185e-11
-5.94869e-12
3.70103e-11
-3.89903e-13
3.22069e-11
4.80149e-12
3.15384e-11
6.68522e-13
3.07179e-11
8.20475e-13
2.93939e-11
1.32398e-12
2.83057e-11
1.0882e-12
2.72009e-11
1.10509e-12
2.63206e-11
8.80039e-13
2.54471e-11
8.73452e-13
2.47883e-11
6.5878e-13
2.41361e-11
6.52197e-13
2.35974e-11
5.38698e-13
2.31193e-11
4.78015e-13
2.26626e-11
4.56742e-13
2.22937e-11
3.68791e-13
2.19383e-11
3.55476e-13
2.16007e-11
3.37524e-13
2.13172e-11
2.83503e-13
2.1034e-11
2.83188e-13
2.07688e-11
2.64971e-13
2.05344e-11
2.34525e-13
2.02959e-11
2.3839e-13
2.00764e-11
2.19602e-13
1.98713e-11
2.05067e-13
1.96613e-11
2.1001e-13
1.94744e-11
1.86901e-13
1.92898e-11
1.84582e-13
1.91022e-11
1.87576e-13
1.89317e-11
1.70502e-13
1.87599e-11
1.7171e-13
1.85914e-11
1.6837e-13
1.84346e-11
1.56908e-13
1.82745e-11
1.5984e-13
1.81217e-11
1.52965e-13
1.79729e-11
1.48778e-13
1.7823e-11
1.49892e-13
1.76817e-11
1.41234e-13
1.75398e-11
1.41897e-13
1.74012e-11
1.38571e-13
1.72664e-11
1.34599e-13
1.71319e-11
1.34501e-13
1.7003e-11
1.28542e-13
1.68741e-11
1.29115e-13
1.67485e-11
1.25198e-13
1.66244e-11
1.24456e-13
1.65017e-11
1.22626e-13
1.63802e-11
1.21488e-13
1.62607e-11
1.19238e-13
1.61502e-11
1.10686e-13
1.60537e-11
9.60928e-14
1.59841e-11
6.98995e-14
1.59064e-11
7.7499e-14
1.58481e-11
5.86278e-14
1.58135e-11
3.4327e-14
1.57791e-11
3.46774e-14
1.57483e-11
3.06804e-14
1.57184e-11
3.01736e-14
1.56909e-11
2.72063e-14
1.5667e-11
2.41858e-14
1.5642e-11
2.48615e-14
1.56211e-11
2.11583e-14
1.56012e-11
1.97195e-14
1.55818e-11
1.9594e-14
1.55654e-11
1.62451e-14
1.55469e-11
1.87415e-14
1.55314e-11
1.53462e-14
1.55167e-11
1.49153e-14
1.55014e-11
1.50837e-14
1.54889e-11
1.27608e-14
1.54738e-11
1.49723e-14
1.54612e-11
1.29133e-14
1.54476e-11
1.34359e-14
1.54338e-11
1.39228e-14
1.54211e-11
1.26166e-14
1.54064e-11
1.49487e-14
1.53932e-11
1.31313e-14
1.53769e-11
1.64198e-14
1.53621e-11
1.47218e-14
1.53446e-11
1.76896e-14
1.53275e-11
1.71309e-14
1.53078e-11
1.98391e-14
1.52879e-11
1.97619e-14
1.5265e-11
2.31402e-14
1.5243e-11
2.19433e-14
1.52157e-11
2.7542e-14
1.51944e-11
2.11358e-14
1.51595e-11
3.50918e-14
1.51452e-11
1.41891e-14
1.51031e-11
4.22635e-14
1.51167e-11
-1.35276e-14
1.50692e-11
4.75427e-14
1.51781e-11
-1.08888e-13
1.51396e-11
4.04281e-14
1.56733e-11
-5.35688e-13
1.58795e-11
-2.06093e-13
1.96331e-11
-3.75382e-12
2.30691e-11
-3.43631e-12
-5.06742e-09
5.09049e-09
8.1785e-11
4.64315e-12
-8.38044e-11
8.24302e-11
-9.23635e-13
1.01359e-10
-2.46365e-11
1.20535e-10
-2.51243e-11
1.2192e-10
-1.77231e-12
1.06566e-10
2.01527e-11
1.04127e-10
3.10785e-12
1.01544e-10
3.40336e-12
9.71233e-11
5.74427e-12
9.35838e-11
4.62765e-12
8.99195e-11
4.76977e-12
8.70259e-11
3.77324e-12
8.41362e-11
3.76317e-12
8.19612e-11
2.8337e-12
7.98032e-11
2.81022e-12
7.80232e-11
2.31865e-12
7.64393e-11
2.06186e-12
7.49293e-11
1.96666e-12
7.37077e-11
1.59042e-12
7.25308e-11
1.53232e-12
7.1414e-11
1.45423e-12
7.04747e-11
1.22279e-12
6.95371e-11
1.22079e-12
6.86599e-11
1.14191e-12
6.78832e-11
1.01137e-12
6.70937e-11
1.02766e-12
6.63675e-11
9.45982e-13
6.56882e-11
8.84378e-13
6.49934e-11
9.04786e-13
6.43745e-11
8.05728e-13
6.37635e-11
7.95582e-13
6.31431e-11
8.07849e-13
6.25786e-11
7.35001e-13
6.20104e-11
7.39858e-13
6.14528e-11
7.25807e-13
6.0934e-11
6.75864e-13
6.04046e-11
6.88957e-13
5.9899e-11
6.58616e-13
5.94066e-11
6.4116e-13
5.89109e-11
6.45626e-13
5.84434e-11
6.08669e-13
5.79741e-11
6.11132e-13
5.75158e-11
5.96854e-13
5.70697e-11
5.80307e-13
5.66252e-11
5.7914e-13
5.61988e-11
5.54404e-13
5.57726e-11
5.55581e-13
5.53572e-11
5.40125e-13
5.49467e-11
5.35326e-13
5.45411e-11
5.28188e-13
5.41395e-11
5.2311e-13
5.37442e-11
5.14098e-13
5.3379e-11
4.76077e-13
5.30602e-11
4.14442e-13
5.283e-11
3.00534e-13
5.25731e-11
3.34075e-13
5.23803e-11
2.51774e-13
5.22656e-11
1.48787e-13
5.21518e-11
1.48753e-13
5.20497e-11
1.32676e-13
5.19509e-11
1.29333e-13
5.18601e-11
1.17681e-13
5.17809e-11
1.03724e-13
5.1698e-11
1.0751e-13
5.16289e-11
9.06253e-14
5.1563e-11
8.54334e-14
5.14989e-11
8.39355e-14
5.14446e-11
7.03376e-14
5.13834e-11
8.02461e-14
5.1332e-11
6.64905e-14
5.12834e-11
6.38446e-14
5.1233e-11
6.52487e-14
5.11913e-11
5.47217e-14
5.11415e-11
6.46801e-14
5.10997e-11
5.51035e-14
5.10548e-11
5.81691e-14
5.10093e-11
5.96175e-14
5.09671e-11
5.46443e-14
5.09184e-11
6.39357e-14
5.08748e-11
5.66927e-14
5.08211e-11
7.03494e-14
5.07721e-11
6.36304e-14
5.07142e-11
7.58261e-14
5.06574e-11
7.38616e-14
5.05923e-11
8.51761e-14
5.05267e-11
8.52149e-14
5.04508e-11
9.93898e-14
5.03782e-11
9.44285e-14
5.02875e-11
1.18511e-13
5.02177e-11
9.07775e-14
5.01016e-11
1.51451e-13
5.00554e-11
6.01977e-14
4.99144e-11
1.83576e-13
4.99627e-11
-6.18107e-14
4.97996e-11
2.10686e-13
5.01696e-11
-4.78824e-13
5.00248e-11
1.87721e-13
5.18146e-11
-2.32819e-12
5.24356e-11
-8.26853e-13
6.48439e-11
-1.61624e-11
7.06466e-11
-9.23961e-12
-1.04785e-08
5.48176e-09
1.51829e-10
7.47801e-12
-1.54664e-10
1.52972e-10
-2.06595e-12
1.87976e-10
-5.96406e-11
2.22978e-10
-6.01267e-11
2.2567e-10
-4.46204e-12
1.97808e-10
4.80133e-11
1.93059e-10
7.85646e-12
1.88348e-10
8.11405e-12
1.80135e-10
1.3958e-11
1.73607e-10
1.11547e-11
1.66803e-10
1.15746e-11
1.61441e-10
9.13517e-12
1.56075e-10
9.12897e-12
1.52035e-10
6.8731e-12
1.48026e-10
6.81972e-12
1.44719e-10
5.62572e-12
1.41773e-10
5.00754e-12
1.38968e-10
4.77222e-12
1.36695e-10
3.86272e-12
1.34507e-10
3.72028e-12
1.32432e-10
3.52973e-12
1.30685e-10
2.96992e-12
1.28942e-10
2.96374e-12
1.27312e-10
2.77166e-12
1.25867e-10
2.45585e-12
1.244e-10
2.4944e-12
1.23051e-10
2.29532e-12
1.21789e-10
2.14701e-12
1.20498e-10
2.19524e-12
1.19348e-10
1.9554e-12
1.18213e-10
1.9306e-12
1.17061e-10
1.95984e-12
1.16013e-10
1.78326e-12
1.14958e-10
1.79505e-12
1.13923e-10
1.76051e-12
1.12959e-10
1.63946e-12
1.11977e-10
1.6715e-12
1.11038e-10
1.59698e-12
1.10124e-10
1.55508e-12
1.09205e-10
1.56553e-12
1.08337e-10
1.47606e-12
1.07466e-10
1.4823e-12
1.06615e-10
1.44724e-12
1.05788e-10
1.40759e-12
1.04963e-10
1.40406e-12
1.04172e-10
1.34473e-12
1.03381e-10
1.34675e-12
1.02611e-10
1.31025e-12
1.01849e-10
1.2972e-12
1.01097e-10
1.28055e-12
1.00352e-10
1.26812e-12
9.96186e-11
1.24701e-12
9.89418e-11
1.153e-12
9.83508e-11
1.00509e-12
9.79231e-11
7.28588e-13
9.74472e-11
8.09715e-13
9.70894e-11
6.0991e-13
9.6876e-11
3.61971e-13
9.66647e-11
3.60347e-13
9.64751e-11
3.22148e-13
9.62916e-11
3.13103e-13
9.61232e-11
2.85828e-13
9.5976e-11
2.51222e-13
9.58222e-11
2.61066e-13
9.5694e-11
2.19187e-13
9.55715e-11
2.07677e-13
9.54527e-11
2.03063e-13
9.53517e-11
1.71121e-13
9.52383e-11
1.93925e-13
9.51429e-11
1.61662e-13
9.50527e-11
1.54296e-13
9.4959e-11
1.58838e-13
9.48817e-11
1.32195e-13
9.47893e-11
1.56977e-13
9.47117e-11
1.33096e-13
9.46283e-11
1.41438e-13
9.45439e-11
1.44097e-13
9.44657e-11
1.32813e-13
9.43753e-11
1.54511e-13
9.42944e-11
1.37608e-13
9.41948e-11
1.70153e-13
9.41038e-11
1.54507e-13
9.39965e-11
1.83379e-13
9.38912e-11
1.79123e-13
9.37705e-11
2.06095e-13
9.36489e-11
2.06686e-13
9.3508e-11
2.40528e-13
9.33736e-11
2.28729e-13
9.32053e-11
2.87087e-13
9.30764e-11
2.19592e-13
9.28608e-11
3.6728e-13
9.27762e-11
1.44604e-13
9.25136e-11
4.46456e-13
9.26061e-11
-1.54334e-13
9.23001e-11
5.16756e-13
9.29943e-11
-1.17296e-12
9.27146e-11
4.69502e-13
9.60528e-11
-5.66858e-12
9.71564e-11
-1.93036e-12
1.20114e-10
-3.91199e-11
1.29086e-10
-1.82122e-11
-1.62502e-08
5.90076e-09
2.36946e-10
1.10565e-11
-2.40524e-10
2.38993e-10
-4.11317e-12
2.93225e-10
-1.13873e-10
3.47099e-10
-1.14e-10
3.51471e-10
-8.83148e-12
3.08805e-10
9.06766e-11
3.01175e-10
1.54862e-11
2.93834e-10
1.5455e-11
2.81043e-10
2.6749e-11
2.70871e-10
2.13266e-11
2.60251e-10
2.21948e-11
2.51873e-10
1.75133e-11
2.43489e-10
1.7513e-11
2.37168e-10
1.31938e-11
2.30898e-10
1.30901e-11
2.25722e-10
1.08013e-11
2.21111e-10
9.61882e-12
2.1672e-10
9.16254e-12
2.13162e-10
7.42095e-12
2.09737e-10
7.14499e-12
2.0649e-10
6.77741e-12
2.03754e-10
5.70559e-12
2.01027e-10
5.69088e-12
1.98477e-10
5.32103e-12
1.96217e-10
4.71653e-12
1.93922e-10
4.78835e-12
1.91813e-10
4.40514e-12
1.89838e-10
4.12164e-12
1.87821e-10
4.21233e-12
1.86023e-10
3.75284e-12
1.84249e-10
3.70462e-12
1.8245e-10
3.75904e-12
1.80812e-10
3.4214e-12
1.79164e-10
3.44338e-12
1.77547e-10
3.37667e-12
1.76043e-10
3.14418e-12
1.74508e-10
3.20566e-12
1.73043e-10
3.06187e-12
1.71616e-10
2.98222e-12
1.7018e-10
3.0016e-12
1.68826e-10
2.82996e-12
1.67466e-10
2.84204e-12
1.66139e-10
2.77406e-12
1.64848e-10
2.69861e-12
1.63561e-10
2.69134e-12
1.62327e-10
2.57827e-12
1.61093e-10
2.58079e-12
1.59891e-10
2.51204e-12
1.58703e-10
2.48532e-12
1.57529e-10
2.45444e-12
1.56367e-10
2.42976e-12
1.55223e-10
2.39077e-12
1.54169e-10
2.20766e-12
1.53247e-10
1.9261e-12
1.52579e-10
1.39691e-12
1.51838e-10
1.55119e-12
1.51279e-10
1.16883e-12
1.50945e-10
6.9574e-13
1.50615e-10
6.90601e-13
1.50319e-10
6.18222e-13
1.50032e-10
5.99917e-13
1.49769e-10
5.48526e-13
1.4954e-10
4.81267e-13
1.493e-10
5.00734e-13
1.49099e-10
4.19997e-13
1.48908e-10
3.98389e-13
1.48723e-10
3.88979e-13
1.48565e-10
3.28384e-13
1.48388e-10
3.71455e-13
1.4824e-10
3.10031e-13
1.48098e-10
2.95737e-13
1.47952e-10
3.04649e-13
1.47832e-10
2.532e-13
1.47688e-10
3.01008e-13
1.47566e-10
2.54707e-13
1.47436e-10
2.71395e-13
1.47305e-10
2.75814e-13
1.47182e-10
2.54946e-13
1.47042e-10
2.95618e-13
1.46915e-10
2.63928e-13
1.4676e-10
3.25684e-13
1.46618e-10
2.96209e-13
1.46451e-10
3.51017e-13
1.46287e-10
3.43222e-13
1.46098e-10
3.94566e-13
1.45909e-10
3.95922e-13
1.45689e-10
4.60483e-13
1.4548e-10
4.37812e-13
1.45218e-10
5.49681e-13
1.45017e-10
4.1995e-13
1.44682e-10
7.03358e-13
1.44551e-10
2.75169e-13
1.44142e-10
8.55697e-13
1.44289e-10
-3.01357e-13
1.43812e-10
9.93752e-13
1.44901e-10
-2.2623e-12
1.44464e-10
9.09752e-13
1.49683e-10
-1.08906e-11
1.51376e-10
-3.62319e-12
1.87036e-10
-7.47801e-11
1.99735e-10
-3.09123e-11
-2.23993e-08
6.34885e-09
3.39727e-10
1.52469e-11
-3.43917e-10
3.43222e-10
-7.60828e-12
4.2028e-10
-1.90931e-10
4.96483e-10
-1.90202e-10
5.0298e-10
-1.53276e-11
4.42919e-10
1.50736e-10
4.31715e-10
2.66906e-11
4.21134e-10
2.60362e-11
4.02849e-10
4.50341e-11
3.88252e-10
3.59232e-11
3.73021e-10
3.74257e-11
3.60976e-10
2.95584e-11
3.48932e-10
2.9557e-11
3.39834e-10
2.22917e-11
3.30817e-10
2.21072e-11
3.23367e-10
1.82517e-11
3.16728e-10
1.62569e-11
3.1041e-10
1.5481e-11
3.05286e-10
1.2545e-11
3.00357e-10
1.20743e-11
2.95684e-10
1.14505e-11
2.91745e-10
9.64438e-12
2.87821e-10
9.6142e-12
2.84155e-10
8.98777e-12
2.80902e-10
7.96917e-12
2.77604e-10
8.08631e-12
2.74572e-10
7.43762e-12
2.71733e-10
6.9606e-12
2.68835e-10
7.11004e-12
2.66252e-10
6.33513e-12
2.63704e-10
6.2532e-12
2.61121e-10
6.34201e-12
2.58768e-10
5.77388e-12
2.56403e-10
5.80881e-12
2.54083e-10
5.69604e-12
2.51923e-10
5.30417e-12
2.49722e-10
5.40677e-12
2.47621e-10
5.16317e-12
2.45574e-10
5.02923e-12
2.43515e-10
5.06045e-12
2.41573e-10
4.77195e-12
2.39624e-10
4.79123e-12
2.37721e-10
4.67672e-12
2.3587e-10
4.54948e-12
2.34025e-10
4.53622e-12
2.32256e-10
4.34702e-12
2.30488e-10
4.34902e-12
2.28765e-10
4.23442e-12
2.27063e-10
4.18785e-12
2.25381e-10
4.13627e-12
2.23716e-10
4.09436e-12
2.22078e-10
4.02922e-12
2.20568e-10
3.71746e-12
2.19248e-10
3.2458e-12
2.18291e-10
2.35459e-12
2.17228e-10
2.61326e-12
2.16427e-10
1.97012e-12
2.15947e-10
1.1758e-12
2.15474e-10
1.16405e-12
2.15049e-10
1.04339e-12
2.14638e-10
1.01088e-12
2.14261e-10
9.25254e-13
2.13932e-10
8.10898e-13
2.13588e-10
8.44481e-13
2.133e-10
7.07882e-13
2.13026e-10
6.72244e-13
2.1276e-10
6.54982e-13
2.12534e-10
5.54582e-13
2.1228e-10
6.25214e-13
2.12067e-10
5.23503e-13
2.11865e-10
4.9785e-13
2.11656e-10
5.13846e-13
2.11482e-10
4.26673e-13
2.11276e-10
5.07347e-13
2.11102e-10
4.28894e-13
2.10916e-10
4.57787e-13
2.10727e-10
4.64356e-13
2.10552e-10
4.30019e-13
2.1035e-10
4.97531e-13
2.10169e-10
4.45002e-13
2.09947e-10
5.4817e-13
2.09744e-10
4.99269e-13
2.09504e-10
5.90916e-13
2.09269e-10
5.78046e-13
2.09e-10
6.64206e-13
2.08729e-10
6.66692e-13
2.08415e-10
7.74917e-13
2.08116e-10
7.36818e-13
2.07741e-10
9.24937e-13
2.07455e-10
7.05887e-13
2.06975e-10
1.18335e-12
2.0679e-10
4.60347e-13
2.06206e-10
1.43929e-12
2.06421e-10
-5.15803e-13
2.05742e-10
1.67264e-12
2.07311e-10
-3.83165e-12
2.06692e-10
1.53063e-12
2.14185e-10
-1.83855e-11
2.166e-10
-6.0381e-12
2.6746e-10
-1.2564e-10
2.8454e-10
-4.79927e-11
-2.89424e-08
6.82761e-09
4.63169e-10
1.98382e-11
-4.67761e-10
4.68825e-10
-1.32638e-11
5.72801e-10
-2.94906e-10
6.75241e-10
-2.92643e-10
6.84395e-10
-2.44793e-11
6.04027e-10
2.31102e-10
5.88409e-10
4.23082e-11
5.73848e-10
4.05969e-11
5.48999e-10
6.98834e-11
5.29054e-10
5.58683e-11
5.08276e-10
5.82042e-11
4.91792e-10
4.60418e-11
4.7533e-10
4.60193e-11
4.62865e-10
3.47561e-11
4.50526e-10
3.44464e-11
4.40318e-10
2.84591e-11
4.31225e-10
2.53503e-11
4.22571e-10
2.4135e-11
4.15549e-10
1.9567e-11
4.08797e-10
1.88258e-11
4.02399e-10
1.78488e-11
3.97003e-10
1.50406e-11
3.91632e-10
1.49844e-11
3.86615e-10
1.4005e-11
3.82163e-10
1.24218e-11
3.77652e-10
1.25967e-11
3.73505e-10
1.15842e-11
3.69623e-10
1.08425e-11
3.65664e-10
1.10695e-11
3.62135e-10
9.86407e-12
3.58654e-10
9.73449e-12
3.55126e-10
9.86907e-12
3.51915e-10
8.98555e-12
3.48685e-10
9.03828e-12
3.45521e-10
8.86015e-12
3.42573e-10
8.2519e-12
3.3957e-10
8.40959e-12
3.36704e-10
8.02903e-12
3.33913e-10
7.82083e-12
3.31105e-10
7.86802e-12
3.28458e-10
7.41913e-12
3.25801e-10
7.44801e-12
3.23208e-10
7.26964e-12
3.20685e-10
7.07204e-12
3.18171e-10
7.04999e-12
3.15761e-10
6.7567e-12
3.13352e-10
6.75796e-12
3.11006e-10
6.58086e-12
3.08687e-10
6.50665e-12
3.06396e-10
6.42684e-12
3.0413e-10
6.36049e-12
3.01898e-10
6.26128e-12
2.99845e-10
5.77079e-12
2.98048e-10
5.042e-12
2.96742e-10
3.66126e-12
2.95296e-10
4.05856e-12
2.94204e-10
3.06218e-12
2.93548e-10
1.83191e-12
2.92902e-10
1.81006e-12
2.92322e-10
1.62335e-12
2.91763e-10
1.57067e-12
2.91249e-10
1.43915e-12
2.90799e-10
1.26088e-12
2.9033e-10
1.31288e-12
2.89939e-10
1.0998e-12
2.89565e-10
1.04599e-12
2.89203e-10
1.01741e-12
2.88894e-10
8.62844e-13
2.88549e-10
9.70834e-13
2.88258e-10
8.14247e-13
2.87982e-10
7.73799e-13
2.87697e-10
7.98688e-13
2.87461e-10
6.63133e-13
2.8718e-10
7.88459e-13
2.86943e-10
6.66129e-13
2.86689e-10
7.11674e-13
2.86433e-10
7.21114e-13
2.86194e-10
6.6858e-13
2.85919e-10
7.72329e-13
2.85673e-10
6.91487e-13
2.8537e-10
8.50976e-13
2.85094e-10
7.75563e-13
2.84768e-10
9.17247e-13
2.84448e-10
8.97542e-13
2.84082e-10
1.03072e-12
2.83714e-10
1.03479e-12
2.83287e-10
1.20231e-12
2.82881e-10
1.14272e-12
2.82372e-10
1.43453e-12
2.81984e-10
1.09346e-12
2.81333e-10
1.8342e-12
2.81084e-10
7.0945e-13
2.80295e-10
2.22903e-12
2.80593e-10
-8.14101e-13
2.79678e-10
2.58738e-12
2.81829e-10
-5.98211e-12
2.81006e-10
2.35529e-12
2.91235e-10
-2.86167e-11
2.94536e-10
-9.3388e-12
3.63485e-10
-1.94589e-10
3.85752e-10
-7.02605e-11
-3.58953e-08
7.33868e-09
6.10733e-10
2.45169e-11
-6.15412e-10
6.19473e-10
-2.20038e-11
7.55e-10
-4.30433e-10
8.88082e-10
-4.25724e-10
9.00522e-10
-3.69187e-11
7.96589e-10
3.35034e-10
7.75549e-10
6.33487e-11
7.56114e-10
6.00309e-11
7.23454e-10
1.02544e-10
6.97068e-10
8.22544e-11
6.69642e-10
8.56305e-11
6.47806e-10
6.78777e-11
6.2603e-10
6.77953e-11
6.09499e-10
5.12864e-11
5.93157e-10
5.07885e-11
5.7962e-10
4.19961e-11
5.67563e-10
3.74075e-11
5.56091e-10
3.56075e-11
5.46776e-10
2.88814e-11
5.37826e-10
2.77759e-11
5.29348e-10
2.63271e-11
5.22193e-10
2.21957e-11
5.15079e-10
2.20978e-11
5.08436e-10
2.06484e-11
5.02538e-10
1.83196e-11
4.96569e-10
1.85656e-11
4.91083e-10
1.70698e-11
4.85948e-10
1.59781e-11
4.80714e-10
1.63035e-11
4.76048e-10
1.45297e-11
4.71448e-10
1.43348e-11
4.6679e-10
1.45271e-11
4.62548e-10
1.32276e-11
4.58285e-10
1.33009e-11
4.54108e-10
1.30369e-11
4.50218e-10
1.21418e-11
4.46257e-10
1.2371e-11
4.42478e-10
1.18083e-11
4.38796e-10
1.15024e-11
4.35095e-10
1.15688e-11
4.31605e-10
1.09095e-11
4.28103e-10
1.095e-11
4.24686e-10
1.06862e-11
4.21362e-10
1.03964e-11
4.1805e-10
1.03613e-11
4.14876e-10
9.93112e-12
4.11702e-10
9.93125e-12
4.08612e-10
9.67094e-12
4.05559e-10
9.56011e-12
4.02543e-10
9.44279e-12
3.99559e-10
9.34426e-12
3.9662e-10
9.20023e-12
3.93919e-10
8.47118e-12
3.91555e-10
7.40597e-12
3.89834e-10
5.38269e-12
3.87931e-10
5.96104e-12
3.86493e-10
4.5011e-12
3.85625e-10
2.69948e-12
3.84773e-10
2.66201e-12
3.84008e-10
2.38807e-12
3.83271e-10
2.30872e-12
3.82593e-10
2.11641e-12
3.82e-10
1.85385e-12
3.81383e-10
1.92972e-12
3.80866e-10
1.61731e-12
3.80374e-10
1.53769e-12
3.79897e-10
1.49522e-12
3.7949e-10
1.26959e-12
3.79035e-10
1.4256e-12
3.78652e-10
1.1974e-12
3.78289e-10
1.13725e-12
3.77913e-10
1.17403e-12
3.77602e-10
9.74692e-13
3.77232e-10
1.15854e-12
3.7692e-10
9.78413e-13
3.76585e-10
1.04629e-12
3.76247e-10
1.05887e-12
3.75933e-10
9.82738e-13
3.75572e-10
1.13376e-12
3.75248e-10
1.01599e-12
3.7485e-10
1.24887e-12
3.74486e-10
1.13924e-12
3.74057e-10
1.34607e-12
3.73638e-10
1.31742e-12
3.73156e-10
1.51222e-12
3.72673e-10
1.51823e-12
3.72112e-10
1.76319e-12
3.7158e-10
1.67527e-12
3.70911e-10
2.10282e-12
3.70404e-10
1.60076e-12
3.69552e-10
2.68648e-12
3.69229e-10
1.03221e-12
3.68198e-10
3.2601e-12
3.68601e-10
-1.21637e-12
3.67414e-10
3.7745e-12
3.70266e-10
-8.83436e-12
3.6922e-10
3.40215e-12
3.82728e-10
-4.21259e-11
3.87117e-10
-1.37275e-11
4.77483e-10
-2.84956e-10
5.05908e-10
-9.86852e-11
-4.32732e-08
7.88375e-09
7.86408e-10
2.88369e-11
-7.90728e-10
7.99419e-10
-3.50141e-11
9.71726e-10
-6.0274e-10
1.14038e-09
-5.94381e-10
1.15686e-09
-5.33912e-11
1.02574e-09
4.66152e-10
9.98064e-10
9.10226e-11
9.72679e-10
8.54161e-11
9.30757e-10
1.44465e-10
8.9664e-10
1.16371e-10
8.61275e-10
1.20996e-10
8.33005e-10
9.61466e-11
8.0486e-10
9.59403e-11
7.83435e-10
7.27118e-11
7.62285e-10
7.19388e-11
7.4474e-10
5.95411e-11
7.29117e-10
5.30304e-11
7.14254e-10
5.04702e-11
7.0218e-10
4.09553e-11
6.90586e-10
3.937e-11
6.79608e-10
3.73046e-11
6.70338e-10
3.14663e-11
6.61131e-10
3.13039e-11
6.52537e-10
2.92426e-11
6.44904e-10
2.59524e-11
6.37188e-10
2.62813e-11
6.30099e-10
2.4159e-11
6.23462e-10
2.2615e-11
6.16704e-10
2.30617e-11
6.1068e-10
2.05538e-11
6.04742e-10
2.02726e-11
5.98735e-10
2.05335e-11
5.93263e-10
1.87e-11
5.87768e-10
1.87963e-11
5.82386e-10
1.84185e-11
5.77372e-10
1.71553e-11
5.7227e-10
1.74726e-11
5.67403e-10
1.66756e-11
5.62662e-10
1.62434e-11
5.57899e-10
1.63322e-11
5.53407e-10
1.54013e-11
5.48901e-10
1.54561e-11
5.44505e-10
1.50815e-11
5.40229e-10
1.46721e-11
5.3597e-10
1.46204e-11
5.31888e-10
1.4013e-11
5.27808e-10
1.40108e-11
5.23835e-10
1.36439e-11
5.1991e-10
1.34851e-11
5.16034e-10
1.33188e-11
5.12201e-10
1.31779e-11
5.08423e-10
1.29771e-11
5.04957e-10
1.19372e-11
5.0192e-10
1.04425e-11
4.99704e-10
7.59902e-12
4.97262e-10
8.40337e-12
4.95411e-10
6.35252e-12
4.9429e-10
3.82017e-12
4.93193e-10
3.75892e-12
4.92208e-10
3.3729e-12
4.91259e-10
3.25848e-12
4.90387e-10
2.98836e-12
4.89625e-10
2.61643e-12
4.88831e-10
2.7235e-12
4.88166e-10
2.28242e-12
4.87532e-10
2.17144e-12
4.86918e-10
2.1092e-12
4.86395e-10
1.79288e-12
4.8581e-10
2.01041e-12
4.85317e-10
1.69057e-12
4.8485e-10
1.6049e-12
4.84367e-10
1.65662e-12
4.83966e-10
1.37536e-12
4.83491e-10
1.63384e-12
4.8309e-10
1.38021e-12
4.8266e-10
1.47612e-12
4.82226e-10
1.49285e-12
4.81822e-10
1.38654e-12
4.81358e-10
1.59771e-12
4.80941e-10
1.43294e-12
4.80431e-10
1.75966e-12
4.79964e-10
1.60576e-12
4.79414e-10
1.89633e-12
4.78876e-10
1.85599e-12
4.78259e-10
2.12959e-12
4.77639e-10
2.13756e-12
4.76921e-10
2.48187e-12
4.7624e-10
2.35649e-12
4.75385e-10
2.95802e-12
4.74738e-10
2.24768e-12
4.7365e-10
3.77491e-12
4.73243e-10
1.43911e-12
4.71931e-10
4.57196e-12
4.72463e-10
-1.74843e-12
4.70964e-10
5.27333e-12
4.74662e-10
-1.25316e-11
4.73378e-10
4.68784e-12
4.90802e-10
-5.95519e-11
4.96528e-10
-1.9453e-11
6.1214e-10
-4.00569e-10
6.47874e-10
-1.3442e-10
-5.10898e-08
8.46454e-09
9.94792e-10
3.21822e-11
-9.98137e-10
1.01358e-09
-5.38033e-11
1.22854e-09
-8.17703e-10
1.43829e-09
-8.04125e-10
1.45968e-09
-7.47838e-11
1.29737e-09
6.28464e-10
1.26162e-09
1.26775e-10
1.22898e-09
1.18049e-10
1.17612e-09
1.97331e-10
1.13275e-09
1.5974e-10
1.08793e-09
1.65813e-10
1.05195e-09
1.32126e-10
1.01619e-09
1.31697e-10
9.88892e-10
1.00014e-10
9.61983e-10
9.88475e-11
9.39627e-10
8.18976e-11
9.19725e-10
7.29318e-11
9.00796e-10
6.93993e-11
8.85409e-10
5.63426e-11
8.70644e-10
5.41348e-11
8.56672e-10
5.12768e-11
8.44864e-10
4.32742e-11
8.33152e-10
4.30155e-11
8.22224e-10
4.01704e-11
8.12515e-10
3.56615e-11
8.02712e-10
3.60842e-11
7.93709e-10
3.31625e-11
7.8528e-10
3.10437e-11
7.76706e-10
3.16362e-11
7.69062e-10
2.81978e-11
7.61533e-10
2.78016e-11
7.53921e-10
2.8145e-11
7.46987e-10
2.56343e-11
7.40027e-10
2.57561e-11
7.33213e-10
2.5232e-11
7.26866e-10
2.35024e-11
7.20411e-10
2.39283e-11
7.14254e-10
2.28317e-11
7.08259e-10
2.22386e-11
7.02237e-10
2.23549e-11
6.96558e-10
2.10795e-11
6.90863e-10
2.11512e-11
6.8531e-10
2.06348e-11
6.79909e-10
2.00732e-11
6.74529e-10
2.00003e-11
6.69373e-10
1.91683e-11
6.64222e-10
1.91624e-11
6.59206e-10
1.86593e-11
6.54252e-10
1.84394e-11
6.49359e-10
1.82117e-11
6.44521e-10
1.80153e-11
6.39755e-10
1.77431e-11
6.35387e-10
1.63055e-11
6.31557e-10
1.4272e-11
6.28757e-10
1.03997e-11
6.25676e-10
1.14834e-11
6.23337e-10
8.69188e-12
6.21916e-10
5.24124e-12
6.20528e-10
5.14703e-12
6.19283e-10
4.61845e-12
6.18083e-10
4.4583e-12
6.16981e-10
4.09032e-12
6.16016e-10
3.58138e-12
6.15014e-10
3.7256e-12
6.14173e-10
3.12328e-12
6.13374e-10
2.97106e-12
6.12597e-10
2.88594e-12
6.11936e-10
2.45397e-12
6.11199e-10
2.74777e-12
6.10575e-10
2.31397e-12
6.09984e-10
2.19582e-12
6.09375e-10
2.26553e-12
6.08869e-10
1.88174e-12
6.08269e-10
2.23366e-12
6.07763e-10
1.88716e-12
6.0722e-10
2.0188e-12
6.06673e-10
2.0402e-12
6.06163e-10
1.89611e-12
6.05578e-10
2.18256e-12
6.05053e-10
1.95855e-12
6.0441e-10
2.40304e-12
6.03822e-10
2.19364e-12
6.03129e-10
2.5893e-12
6.02451e-10
2.53386e-12
6.01675e-10
2.90626e-12
6.00896e-10
2.91639e-12
5.99993e-10
3.385e-12
5.99137e-10
3.21196e-12
5.98064e-10
4.03112e-12
5.97255e-10
3.05737e-12
5.95892e-10
5.13777e-12
5.9539e-10
1.9411e-12
5.93755e-10
6.20746e-12
5.94448e-10
-2.44189e-12
5.92596e-10
7.12539e-12
5.97309e-10
-1.72448e-11
5.95778e-10
6.21986e-12
6.17865e-10
-8.16393e-11
6.25232e-10
-2.68205e-11
7.70478e-10
-5.45815e-10
8.14892e-10
-1.78834e-10
-5.93577e-08
9.08277e-09
1.24117e-09
3.37214e-11
-1.24271e-09
1.26764e-09
-8.02747e-11
1.53184e-09
-1.0819e-09
1.78879e-09
-1.06108e-09
1.81615e-09
-1.0214e-10
1.61824e-09
8.26371e-10
1.57269e-09
1.72323e-10
1.53126e-09
1.59485e-10
1.4655e-09
2.63092e-10
1.41109e-09
2.14148e-10
1.35505e-09
2.21852e-10
1.30985e-09
1.77322e-10
1.26502e-09
1.76527e-10
1.23068e-09
1.34355e-10
1.19689e-09
1.32636e-10
1.16878e-09
1.10016e-10
1.14375e-09
9.79546e-11
1.11996e-09
9.31941e-11
1.1006e-09
7.5698e-11
1.08205e-09
7.26926e-11
1.06449e-09
6.88281e-11
1.04965e-09
5.81177e-11
1.03495e-09
5.77185e-11
1.02124e-09
5.3882e-11
1.00905e-09
4.7849e-11
9.96759e-10
4.83731e-11
9.85476e-10
4.44454e-11
9.74915e-10
4.16049e-11
9.64182e-10
4.23688e-11
9.54614e-10
3.77655e-11
9.45194e-10
3.72221e-11
9.35681e-10
3.76578e-11
9.27013e-10
3.4302e-11
9.18318e-10
3.44507e-11
9.09811e-10
3.37389e-11
9.01886e-10
3.14279e-11
8.9383e-10
3.19835e-11
8.86149e-10
3.05125e-11
8.78672e-10
2.97158e-11
8.71164e-10
2.98629e-11
8.64086e-10
2.8158e-11
8.56989e-10
2.82476e-11
8.5007e-10
2.75536e-11
8.43341e-10
2.68023e-11
8.36641e-10
2.66994e-11
8.30221e-10
2.55883e-11
8.23809e-10
2.55743e-11
8.17565e-10
2.4903e-11
8.11399e-10
2.46055e-11
8.05311e-10
2.42993e-11
7.99293e-10
2.40337e-11
7.93362e-10
2.36733e-11
7.87936e-10
2.17316e-11
7.83173e-10
1.90347e-11
7.79684e-10
1.38894e-11
7.75854e-10
1.53133e-11
7.72939e-10
1.1607e-11
7.71161e-10
7.019e-12
7.69429e-10
6.87918e-12
7.67877e-10
6.1709e-12
7.66381e-10
5.95412e-12
7.65008e-10
5.46348e-12
7.63805e-10
4.78443e-12
7.62558e-10
4.97245e-12
7.6151e-10
4.17196e-12
7.60512e-10
3.96865e-12
7.59546e-10
3.85177e-12
7.58722e-10
3.27825e-12
7.57804e-10
3.66624e-12
7.57027e-10
3.0904e-12
7.56292e-10
2.93096e-12
7.55534e-10
3.02326e-12
7.54903e-10
2.51316e-12
7.54157e-10
2.97953e-12
7.53526e-10
2.51845e-12
7.52851e-10
2.69382e-12
7.52171e-10
2.72091e-12
7.51537e-10
2.52993e-12
7.5081e-10
2.90934e-12
7.50157e-10
2.61188e-12
7.49358e-10
3.20215e-12
7.48628e-10
2.92387e-12
7.47768e-10
3.44919e-12
7.46928e-10
3.37481e-12
7.45964e-10
3.86965e-12
7.44999e-10
3.88145e-12
7.43881e-10
4.50346e-12
7.42823e-10
4.27004e-12
7.41496e-10
5.35817e-12
7.40499e-10
4.05477e-12
7.38818e-10
6.81868e-12
7.38211e-10
2.54872e-12
7.36204e-10
8.2145e-12
7.37098e-10
-3.33618e-12
7.34851e-10
9.37287e-12
7.40782e-10
-2.31756e-11
7.39005e-10
7.99808e-12
7.66627e-10
-1.09263e-10
7.76009e-10
-3.6203e-11
9.55902e-10
-7.25708e-10
1.01062e-09
-2.33558e-10
-6.80873e-08
9.74017e-09
1.53163e-09
3.23518e-11
-1.53026e-09
1.56817e-09
-1.16813e-10
1.88893e-09
-1.40266e-09
2.19986e-09
-1.37201e-09
2.23442e-09
-1.36698e-10
1.99611e-09
1.06468e-09
1.93874e-09
2.29697e-10
1.88664e-09
2.11585e-10
1.80573e-09
3.44003e-10
1.73818e-09
2.81696e-10
1.66885e-09
2.91179e-10
1.61266e-09
2.33509e-10
1.55705e-09
2.32146e-10
1.51429e-09
1.77107e-10
1.4723e-09
1.74626e-10
1.4373e-09
1.4502e-10
1.40616e-09
1.29095e-10
1.37655e-09
1.22799e-10
1.35246e-09
9.97966e-11
1.32937e-09
9.57786e-11
1.30755e-09
9.0648e-11
1.28908e-09
7.65853e-11
1.27081e-09
7.59859e-11
1.25379e-09
7.09076e-11
1.23865e-09
6.29886e-11
1.22341e-09
6.3617e-11
1.20942e-09
5.84352e-11
1.19632e-09
5.46989e-11
1.18303e-09
5.56593e-11
1.17118e-09
4.96149e-11
1.15953e-09
4.88794e-11
1.14776e-09
4.94212e-11
1.13704e-09
4.5019e-11
1.1263e-09
4.51947e-11
1.11579e-09
4.42446e-11
1.10601e-09
4.1216e-11
1.09606e-09
4.19252e-11
1.08659e-09
3.99874e-11
1.07737e-09
3.89389e-11
1.06811e-09
3.912e-11
1.05938e-09
3.68842e-11
1.05064e-09
3.69928e-11
1.04211e-09
3.60769e-11
1.03383e-09
3.50903e-11
1.02558e-09
3.49506e-11
1.01767e-09
3.34917e-11
1.00978e-09
3.34686e-11
1.00209e-09
3.25867e-11
9.94506e-10
3.21929e-11
9.87016e-10
3.17895e-11
9.79614e-10
3.14355e-11
9.7232e-10
3.09676e-11
9.65655e-10
2.83968e-11
9.598e-10
2.48892e-11
9.555e-10
1.81901e-11
9.50791e-10
2.00213e-11
9.472e-10
1.51983e-11
9.45001e-10
9.21802e-12
9.42865e-10
9.01553e-12
9.40949e-10
8.08715e-12
9.39106e-10
7.79716e-12
9.37414e-10
7.15511e-12
9.35932e-10
6.26689e-12
9.34395e-10
6.50894e-12
9.33103e-10
5.46425e-12
9.31876e-10
5.19627e-12
9.30686e-10
5.04155e-12
9.2967e-10
4.29464e-12
9.28541e-10
4.79532e-12
9.27584e-10
4.04706e-12
9.26678e-10
3.83682e-12
9.25745e-10
3.95622e-12
9.24968e-10
3.2901e-12
9.24051e-10
3.89662e-12
9.23275e-10
3.29548e-12
9.22444e-10
3.52414e-12
9.21608e-10
3.55743e-12
9.20828e-10
3.30965e-12
9.19936e-10
3.80182e-12
9.19133e-10
3.41462e-12
9.18153e-10
4.18286e-12
9.17257e-10
3.81991e-12
9.16202e-10
4.50417e-12
9.15171e-10
4.40569e-12
9.13991e-10
5.04977e-12
9.1281e-10
5.06284e-12
9.11441e-10
5.87235e-12
9.10149e-10
5.56233e-12
9.08528e-10
6.97902e-12
9.07315e-10
5.26756e-12
9.05269e-10
8.86538e-12
9.04544e-10
3.27282e-12
9.02114e-10
1.06446e-11
9.03259e-10
-4.48021e-12
9.00572e-10
1.20591e-11
9.07961e-10
-3.05646e-11
9.05953e-10
1.00065e-11
9.40129e-10
-1.43438e-10
9.51982e-10
-4.8056e-11
1.17223e-09
-9.45959e-10
1.2392e-09
-3.00522e-10
-7.72866e-08
1.04385e-08
1.87314e-09
2.66321e-11
-1.86742e-09
1.92271e-09
-1.66384e-10
2.30818e-09
-1.78813e-09
2.68056e-09
-1.74438e-09
2.72377e-09
-1.79912e-10
2.43985e-09
1.3486e-09
2.36826e-09
3.01281e-10
2.30328e-09
2.76565e-10
2.20462e-09
4.4267e-10
2.12146e-09
3.64848e-10
2.03644e-09
3.76204e-10
1.96718e-09
3.02773e-10
1.89875e-09
3.00569e-10
1.84597e-09
2.2989e-10
1.79422e-09
2.26373e-10
1.75101e-09
1.88236e-10
1.71257e-09
1.67528e-10
1.67604e-09
1.59328e-10
1.64629e-09
1.29554e-10
1.6178e-09
1.2426e-10
1.5909e-09
1.17549e-10
1.56812e-09
9.93722e-11
1.54561e-09
9.84917e-11
1.52465e-09
9.187e-11
1.506e-09
8.16369e-11
1.48725e-09
8.23649e-11
1.47005e-09
7.56335e-11
1.45396e-09
7.07938e-11
1.43764e-09
7.19749e-11
1.4231e-09
6.41627e-11
1.40879e-09
6.31814e-11
1.39438e-09
6.38363e-11
1.38124e-09
5.81559e-11
1.36808e-09
5.83517e-11
1.35523e-09
5.71032e-11
1.34324e-09
5.31977e-11
1.33108e-09
5.40837e-11
1.3195e-09
5.15724e-11
1.30822e-09
5.02135e-11
1.29692e-09
5.04289e-11
1.28626e-09
4.75434e-11
1.27558e-09
4.76713e-11
1.26517e-09
4.64809e-11
1.25506e-09
4.52057e-11
1.24499e-09
4.50172e-11
1.23535e-09
4.31334e-11
1.22572e-09
4.30958e-11
1.21635e-09
4.19563e-11
1.2071e-09
4.14425e-11
1.19797e-09
4.092e-11
1.18895e-09
4.04541e-11
1.18006e-09
3.98573e-11
1.17195e-09
3.65054e-11
1.16482e-09
3.20191e-11
1.15957e-09
2.34406e-11
1.15384e-09
2.57539e-11
1.14946e-09
1.95811e-11
1.14676e-09
1.19164e-11
1.14415e-09
1.16285e-11
1.14181e-09
1.04286e-11
1.13956e-09
1.00465e-11
1.13749e-09
9.22191e-12
1.13568e-09
8.07816e-12
1.13381e-09
8.38229e-12
1.13223e-09
7.04248e-12
1.13073e-09
6.69528e-12
1.12928e-09
6.4933e-12
1.12804e-09
5.53583e-12
1.12666e-09
6.17177e-12
1.12549e-09
5.21425e-12
1.12439e-09
4.94194e-12
1.12325e-09
5.09396e-12
1.1223e-09
4.23886e-12
1.12118e-09
5.0135e-12
1.12024e-09
4.24256e-12
1.11923e-09
4.53586e-12
1.11821e-09
4.5765e-12
1.11726e-09
4.25904e-12
1.11617e-09
4.88784e-12
1.1152e-09
4.39169e-12
1.114e-09
5.37489e-12
1.11291e-09
4.90921e-12
1.11163e-09
5.78569e-12
1.11038e-09
5.65735e-12
1.10895e-09
6.4817e-12
1.10752e-09
6.49474e-12
1.10586e-09
7.53054e-12
1.1043e-09
7.12527e-12
1.10234e-09
8.93866e-12
1.10088e-09
6.72605e-12
1.09841e-09
1.13317e-11