/*--------------------------------*- C++ -*----------------------------------*\
| =========                 |                                                 |
| \\      /  F ield         | OpenFOAM: The Open Source CFD Toolbox           |
|  \\    /   O peration     | Version:  5.x                                   |
|   \\  /    A nd           | Web:      www.OpenFOAM.org                      |
|    \\/     M anipulation  |                                                 |
\*---------------------------------------------------------------------------*/
FoamFile
{
    version     2.0;
    format      ascii;
    class       surfaceScalarField;
    location    "500";
    object      phi;
}
// * * * * * * * * * * * * * * * * * * * * * * * * * * * * * * * * * * * * * //

dimensions      [0 3 -1 0 0 0 0];

internalField   nonuniform List<scalar> 
215247
(
2.58977e-09
-6.73964e-08
-3.24453e-09
2.52648e-09
6.217e-11
3.03649e-09
-5.10002e-10
3.28981e-09
-2.54651e-10
2.75491e-09
5.3447e-10
1.94859e-09
8.04439e-10
1.71495e-09
2.32675e-10
1.46245e-09
2.51424e-10
1.19817e-09
2.63168e-10
1.0021e-09
1.95075e-10
8.23378e-10
1.76136e-10
6.88338e-10
1.35029e-10
5.6757e-10
1.18379e-10
4.78361e-10
9.02278e-11
3.99742e-10
7.65783e-11
3.37966e-10
6.2132e-11
2.87876e-10
4.91577e-11
2.45006e-10
4.21979e-11
2.12869e-10
3.13639e-11
1.85763e-10
2.65993e-11
1.63602e-10
2.13356e-11
1.47069e-10
1.60335e-11
1.33387e-10
1.29483e-11
1.23033e-10
8.44525e-12
1.15555e-10
8.19306e-12
1.09887e-10
3.8052e-12
1.06237e-10
4.92369e-12
1.0409e-10
1.77193e-12
1.03083e-10
6.04063e-13
1.03201e-10
-6.16545e-13
1.041e-10
-1.23153e-12
1.05658e-10
-1.89862e-12
1.07753e-10
-2.28369e-12
1.10254e-10
-2.78638e-12
1.13064e-10
-3.73402e-12
1.16109e-10
-2.71141e-12
1.19342e-10
-4.09663e-12
1.22632e-10
-3.19232e-12
1.26004e-10
-3.63243e-12
1.29424e-10
-3.64278e-12
1.32798e-10
-3.6977e-12
1.3619e-10
-3.70927e-12
1.39528e-10
-3.60531e-12
1.42832e-10
-3.80914e-12
1.46119e-10
-3.54148e-12
1.4932e-10
-3.73263e-12
1.5248e-10
-3.35496e-12
1.55523e-10
-3.5161e-12
1.58447e-10
-3.12674e-12
1.61219e-10
-3.0678e-12
1.63814e-10
-2.84207e-12
1.66307e-10
-3.05174e-12
1.68177e-10
-1.96278e-12
1.70114e-10
-2.37782e-12
1.72282e-10
-2.28967e-12
1.74497e-10
-2.47661e-12
1.76988e-10
-2.72522e-12
1.798e-10
-2.90475e-12
1.8276e-10
-3.4293e-12
1.85828e-10
-3.08023e-12
1.88928e-10
-3.75908e-12
1.92009e-10
-3.07659e-12
1.94994e-10
-3.67239e-12
1.97791e-10
-2.97897e-12
2.00401e-10
-3.20116e-12
2.02786e-10
-2.73913e-12
2.04939e-10
-2.52598e-12
2.06901e-10
-2.3764e-12
2.08657e-10
-2.09011e-12
2.1028e-10
-1.88729e-12
2.11784e-10
-1.91953e-12
2.13167e-10
-1.40748e-12
2.1447e-10
-2.00916e-12
2.15646e-10
-9.27705e-13
2.16728e-10
-2.58732e-12
2.17687e-10
3.10454e-13
2.18499e-10
-2.16758e-12
2.19169e-10
8.7509e-13
2.19651e-10
-3.015e-12
2.1997e-10
9.02401e-13
2.20081e-10
-3.77398e-12
2.20029e-10
2.28181e-12
2.1978e-10
-3.72809e-12
2.19388e-10
2.13258e-12
2.18851e-10
-4.56322e-12
2.18259e-10
3.56592e-12
2.17655e-10
-4.88229e-12
2.17194e-10
2.86704e-12
2.16972e-10
-6.68201e-12
2.17219e-10
3.98586e-12
2.18012e-10
-7.42229e-12
2.19681e-10
2.7866e-12
2.22114e-10
-8.81319e-12
2.25933e-10
-4.7985e-12
2.3048e-10
-6.19403e-12
2.37038e-10
-7.92263e-12
2.43804e-10
-2.80994e-12
2.55089e-10
-1.69827e-11
2.64305e-10
-1.10727e-11
2.99835e-10
-3.7739e-11
3.10002e-10
-1.15654e-11
-6.43598e-08
6.46676e-08
8.61052e-09
-6.54609e-08
-1.05373e-08
8.31033e-09
3.60616e-10
9.99648e-09
-2.1975e-09
1.07881e-08
-1.04753e-09
9.07764e-09
2.24326e-09
6.481e-09
3.39812e-09
5.66745e-09
1.04446e-09
4.85372e-09
1.06298e-09
3.97373e-09
1.14117e-09
3.32976e-09
8.37159e-10
2.7366e-09
7.65248e-10
2.28988e-09
5.81091e-10
1.88916e-09
5.15671e-10
1.59299e-09
3.87186e-10
1.33178e-09
3.34193e-10
1.1264e-09
2.67679e-10
9.59574e-10
2.14466e-10
8.16884e-10
1.83674e-10
7.09628e-10
1.3746e-10
6.19187e-10
1.16187e-10
5.45134e-10
9.417e-11
4.89761e-10
7.05677e-11
4.43905e-10
5.76351e-11
4.09108e-10
4.04618e-11
3.83875e-10
3.41706e-11
3.64693e-10
2.06339e-11
3.5223e-10
1.88138e-11
3.44786e-10
8.64698e-12
3.41152e-10
3.48333e-12
3.41286e-10
-1.46665e-12
3.44036e-10
-4.53402e-12
3.48997e-10
-7.34662e-12
3.55767e-10
-9.40354e-12
3.63905e-10
-1.12798e-11
3.73088e-10
-1.41563e-11
3.8307e-10
-1.2246e-11
3.93688e-10
-1.60426e-11
4.04513e-10
-1.39731e-11
4.15624e-10
-1.50545e-11
4.269e-10
-1.52529e-11
4.38035e-10
-1.52108e-11
4.49236e-10
-1.53796e-11
4.60266e-10
-1.51014e-11
4.71185e-10
-1.55377e-11
4.82052e-10
-1.47175e-11
4.92639e-10
-1.50441e-11
5.03095e-10
-1.41609e-11
5.13167e-10
-1.42052e-11
5.22853e-10
-1.31206e-11
5.32043e-10
-1.26415e-11
5.40646e-10
-1.17681e-11
5.48909e-10
-1.20317e-11
5.55106e-10
-8.25827e-12
5.61522e-10
-9.31318e-12
5.68689e-10
-9.6501e-12
5.76011e-10
-1.00901e-11
5.8424e-10
-1.12236e-11
5.93523e-10
-1.22729e-11
6.03297e-10
-1.37472e-11
6.13428e-10
-1.32315e-11
6.23671e-10
-1.48163e-11
6.3385e-10
-1.32606e-11
6.43716e-10
-1.43925e-11
6.52967e-10
-1.24848e-11
6.61602e-10
-1.25718e-11
6.69495e-10
-1.1085e-11
6.76627e-10
-1.01161e-11
6.83129e-10
-9.40892e-12
6.88951e-10
-8.26174e-12
6.94332e-10
-7.60987e-12
6.9932e-10
-7.35646e-12
7.03906e-10
-6.01764e-12
7.0822e-10
-7.15308e-12
7.12117e-10
-4.67466e-12
7.15699e-10
-7.82673e-12
7.18865e-10
-1.39839e-12
7.21543e-10
-6.43614e-12
7.23742e-10
2.31125e-13
7.25317e-10
-7.34177e-12
7.26345e-10
9.66215e-13
7.26678e-10
-8.68802e-12
7.26465e-10
4.72903e-12
7.25592e-10
-7.70092e-12
7.2424e-10
4.95e-12
7.22403e-10
-9.42051e-12
7.2038e-10
8.29773e-12
7.18308e-10
-9.70771e-12
7.16714e-10
6.42198e-12
7.15903e-10
-1.48014e-11
7.16651e-10
7.28259e-12
7.19205e-10
-1.82555e-11
7.2467e-10
2.18993e-12
7.32664e-10
-2.46141e-11
7.45281e-10
-1.96361e-11
7.60272e-10
-2.40612e-11
7.82045e-10
-3.18128e-11
8.04324e-10
-2.06536e-11
8.41913e-10
-6.1711e-11
8.71946e-10
-4.48235e-11
9.89688e-10
-1.59175e-10
9.5489e-10
2.10224e-11
-1.32891e-07
6.94829e-08
1.59732e-08
-6.21072e-08
-1.93308e-08
1.53743e-08
9.58121e-10
1.84673e-08
-5.29038e-09
1.98933e-08
-2.47536e-09
1.68048e-08
5.33116e-09
1.20778e-08
8.12299e-09
1.05256e-08
2.59565e-09
9.03161e-09
2.55596e-09
7.39783e-09
2.77383e-09
6.20437e-09
2.0296e-09
5.10197e-09
1.86491e-09
4.27117e-09
1.41175e-09
3.52539e-09
1.25901e-09
2.97341e-09
9.40199e-10
2.48648e-09
8.19103e-10
2.10329e-09
6.51055e-10
1.79168e-09
5.25046e-10
1.52516e-09
4.49517e-10
1.32447e-09
3.37243e-10
1.15522e-09
2.84902e-10
1.01648e-09
2.31934e-10
9.1255e-10
1.73972e-10
8.26424e-10
1.42834e-10
7.60927e-10
1.03973e-10
7.13283e-10
8.24095e-11
6.76969e-10
5.49255e-11
6.53217e-10
4.3881e-11
6.38861e-10
2.25283e-11
6.31643e-10
1.02714e-11
6.31496e-10
-1.95455e-12
6.36265e-10
-9.68769e-12
6.45182e-10
-1.67078e-11
6.57516e-10
-2.19433e-11
6.72426e-10
-2.65886e-11
6.89316e-10
-3.20346e-11
7.0772e-10
-3.04011e-11
7.27334e-10
-3.65608e-11
7.47354e-10
-3.39632e-11
7.67928e-10
-3.59912e-11
7.88823e-10
-3.64255e-11
8.09472e-10
-3.63103e-11
8.3025e-10
-3.65535e-11
8.5072e-10
-3.58736e-11
8.70994e-10
-3.63621e-11
8.91171e-10
-3.52572e-11
9.1084e-10
-3.53292e-11
9.30264e-10
-3.3839e-11
9.48987e-10
-3.34933e-11
9.66996e-10
-3.14038e-11
9.84092e-10
-3.01276e-11
1.00009e-09
-2.8097e-11
1.01546e-09
-2.80496e-11
1.02699e-09
-1.99692e-11
1.03891e-09
-2.17727e-11
1.05221e-09
-2.31273e-11
1.06581e-09
-2.40265e-11
1.08107e-09
-2.67978e-11
1.09829e-09
-2.9659e-11
1.11642e-09
-3.24486e-11
1.13522e-09
-3.21248e-11
1.15423e-09
-3.4603e-11
1.17313e-09
-3.22339e-11
1.19144e-09
-3.3521e-11
1.20863e-09
-2.99444e-11
1.22467e-09
-2.9339e-11
1.23933e-09
-2.62014e-11
1.25258e-09
-2.38575e-11
1.26466e-09
-2.20013e-11
1.27548e-09
-1.95527e-11
1.28548e-09
-1.79546e-11
1.29474e-09
-1.71669e-11
1.30325e-09
-1.46538e-11
1.31126e-09
-1.60024e-11
1.31849e-09
-1.17402e-11
1.32512e-09
-1.62658e-11
1.33098e-09
-5.93375e-12
1.33592e-09
-1.2801e-11
1.33997e-09
-2.19958e-12
1.34285e-09
-1.31664e-11
1.3447e-09
2.09329e-13
1.34525e-09
-1.33525e-11
1.34478e-09
7.47261e-12
1.34307e-09
-1.04757e-11
1.34047e-09
9.15836e-12
1.33695e-09
-1.1515e-11
1.33309e-09
1.52865e-11
1.32912e-09
-1.18439e-11
1.32605e-09
1.1767e-11
1.32443e-09
-2.0939e-11
1.32572e-09
1.05893e-11
1.33037e-09
-3.02804e-11
1.34045e-09
-3.3055e-12
1.35525e-09
-4.65892e-11
1.37867e-09
-4.39551e-11
1.40651e-09
-5.37785e-11
1.44704e-09
-7.40964e-11
1.48841e-09
-5.8113e-11
1.55845e-09
-1.37922e-10
1.61393e-09
-1.02216e-10
1.8323e-09
-3.80147e-10
1.74667e-09
1.04895e-10
-2.0572e-07
7.45724e-08
2.48858e-08
-5.70734e-08
-2.99112e-08
2.39441e-08
1.89769e-09
2.86804e-08
-1.00286e-08
3.08634e-08
-4.65985e-09
2.6173e-08
1.00192e-08
1.89264e-08
1.53662e-08
1.64578e-08
5.06211e-09
1.41354e-08
4.87584e-09
1.15921e-08
5.31472e-09
9.72682e-09
3.89271e-09
8.00494e-09
3.58254e-09
6.70361e-09
2.71181e-09
5.53583e-09
2.42347e-09
4.6697e-09
1.80666e-09
3.90568e-09
1.5793e-09
3.30367e-09
1.2528e-09
2.8137e-09
1.0132e-09
2.39443e-09
8.67352e-10
2.07827e-09
6.5202e-10
1.81149e-09
5.50704e-10
1.59259e-09
4.4937e-10
1.42829e-09
3.37295e-10
1.29203e-09
2.77643e-10
1.18818e-09
2.05039e-10
1.1124e-09
1.58594e-10
1.05448e-09
1.10583e-10
1.01635e-09
8.32001e-11
9.93034e-10
4.51677e-11
9.80981e-10
2.14274e-11
9.80106e-10
-1.90943e-12
9.87008e-10
-1.72347e-11
1.00048e-09
-3.07498e-11
1.01937e-09
-4.12539e-11
1.04236e-09
-5.00106e-11
1.06851e-09
-5.93661e-11
1.09707e-09
-5.86568e-11
1.12757e-09
-6.84284e-11
1.15874e-09
-6.52448e-11
1.19081e-09
-6.84115e-11
1.22341e-09
-6.9407e-11
1.25565e-09
-6.8978e-11
1.2881e-09
-6.95567e-11
1.32009e-09
-6.84213e-11
1.35178e-09
-6.89178e-11
1.38333e-09
-6.71983e-11
1.41409e-09
-6.68535e-11
1.44448e-09
-6.46704e-11
1.47378e-09
-6.34423e-11
1.50197e-09
-5.99739e-11
1.52873e-09
-5.73224e-11
1.55378e-09
-5.35204e-11
1.57783e-09
-5.2815e-11
1.59587e-09
-3.81857e-11
1.61453e-09
-4.09548e-11
1.6353e-09
-4.41499e-11
1.65654e-09
-4.55772e-11
1.68038e-09
-5.09297e-11
1.70726e-09
-5.66645e-11
1.73558e-09
-6.1312e-11
1.76496e-09
-6.16025e-11
1.79467e-09
-6.51354e-11
1.82422e-09
-6.18695e-11
1.85287e-09
-6.30291e-11
1.87974e-09
-5.71508e-11
1.90483e-09
-5.51924e-11
1.92776e-09
-4.96286e-11
1.94847e-09
-4.50777e-11
1.96734e-09
-4.14391e-11
1.98424e-09
-3.68389e-11
1.99985e-09
-3.39465e-11
2.0143e-09
-3.20831e-11
2.02757e-09
-2.80398e-11
2.04004e-09
-2.92931e-11
2.0513e-09
-2.30394e-11
2.06162e-09
-2.81811e-11
2.0707e-09
-1.37953e-11
2.07836e-09
-2.18308e-11
2.0846e-09
-7.24345e-12
2.089e-09
-2.01043e-11
2.09179e-09
-2.06384e-12
2.09252e-09
-1.85383e-11
2.09165e-09
9.95427e-12
2.08883e-09
-1.232e-11
2.08459e-09
1.39959e-11
2.07891e-09
-1.24067e-11
2.07268e-09
2.33159e-11
2.06629e-09
-1.21458e-11
2.0613e-09
1.75644e-11
2.05859e-09
-2.71232e-11
2.06045e-09
1.17847e-11
2.06761e-09
-4.54653e-11
2.08329e-09
-1.50971e-11
2.1064e-09
-7.72366e-11
2.14304e-09
-8.33663e-11
2.18664e-09
-1.00843e-10
2.25015e-09
-1.40242e-10
2.315e-09
-1.19416e-10
2.42468e-09
-2.54367e-10
2.51138e-09
-1.93486e-10
2.85141e-09
-7.24629e-10
2.7062e-09
2.47382e-10
-2.82958e-07
7.99405e-08
3.56005e-08
-5.01536e-08
-4.25256e-08
3.42666e-08
3.23023e-09
4.09043e-08
-1.66661e-08
4.39843e-08
-7.7415e-09
3.74511e-08
1.65518e-08
2.72511e-08
2.55644e-08
2.36548e-08
8.65757e-09
2.03302e-08
8.19949e-09
1.66974e-08
8.94637e-09
1.4016e-08
6.57317e-09
1.15454e-08
6.05108e-09
9.6712e-09
4.58583e-09
7.99041e-09
4.1025e-09
6.74072e-09
3.05706e-09
5.63842e-09
2.68016e-09
4.76862e-09
2.12252e-09
4.06004e-09
1.72068e-09
3.45336e-09
1.47338e-09
2.99519e-09
1.10919e-09
2.60831e-09
9.37067e-10
2.29055e-09
7.66038e-10
2.05154e-09
5.75789e-10
1.85316e-09
4.7514e-10
1.70162e-09
3.5509e-10
1.59068e-09
2.69774e-10
1.50565e-09
1.93979e-10
1.44929e-09
1.40461e-10
1.41443e-09
7.94887e-11
1.39592e-09
3.95068e-11
1.39368e-09
-3.78622e-13
1.40275e-09
-2.67084e-11
1.4214e-09
-4.99141e-11
1.44797e-09
-6.80358e-11
1.48054e-09
-8.30679e-11
1.51773e-09
-9.73782e-11
1.55847e-09
-9.93545e-11
1.60207e-09
-1.1276e-10
1.6467e-09
-1.09949e-10
1.69267e-09
-1.14806e-10
1.73944e-09
-1.16478e-10
1.78571e-09
-1.15787e-10
1.83233e-09
-1.16618e-10
1.8783e-09
-1.14703e-10
1.92386e-09
-1.14983e-10
1.96922e-09
-1.12969e-10
2.01346e-09
-1.11667e-10
2.05718e-09
-1.08685e-10
2.09934e-09
-1.06153e-10
2.13991e-09
-1.00865e-10
2.17842e-09
-9.62783e-11
2.21447e-09
-8.99421e-11
2.24907e-09
-8.80253e-11
2.27503e-09
-6.44344e-11
2.30185e-09
-6.82975e-11
2.33168e-09
-7.42175e-11
2.3622e-09
-7.6472e-11
2.39644e-09
-8.55139e-11
2.43503e-09
-9.55146e-11
2.47571e-09
-1.02568e-10
2.51794e-09
-1.04037e-10
2.56067e-09
-1.08591e-10
2.60316e-09
-1.04563e-10
2.64437e-09
-1.04989e-10
2.68302e-09
-9.61621e-11
2.71909e-09
-9.19694e-11
2.75204e-09
-8.30592e-11
2.78179e-09
-7.53623e-11
2.80887e-09
-6.90546e-11
2.83312e-09
-6.16309e-11
2.85547e-09
-5.66878e-11
2.87617e-09
-5.33656e-11
2.89516e-09
-4.72872e-11
2.91298e-09
-4.79229e-11
2.92905e-09
-3.91903e-11
2.94376e-09
-4.45823e-11
2.95669e-09
-2.575e-11
2.96755e-09
-3.3737e-11
2.97636e-09
-1.49146e-11
2.98252e-09
-2.88433e-11
2.98632e-09
-5.40101e-12
2.98718e-09
-2.29188e-11
2.98569e-09
1.299e-11
2.98137e-09
-1.18125e-11
2.97501e-09
2.11643e-11
2.96656e-09
-8.63377e-12
2.95731e-09
3.48174e-11
2.94783e-09
-7.72819e-12
2.94037e-09
2.62373e-11
2.93623e-09
-2.96021e-11
2.93869e-09
1.28594e-11
2.94883e-09
-6.16802e-11
2.97129e-09
-3.4262e-11
3.00454e-09
-1.16514e-10
3.05731e-09
-1.36939e-10
3.12019e-09
-1.65707e-10
3.21175e-09
-2.3369e-10
3.30534e-09
-2.10391e-10
3.46324e-09
-4.17162e-10
3.58804e-09
-3.20175e-10
4.07424e-09
-1.21364e-09
3.86043e-09
4.59333e-10
-3.6469e-07
8.55899e-08
4.83995e-08
-4.10871e-08
-5.74584e-08
4.66232e-08
5.00378e-09
5.54413e-08
-2.54868e-08
5.95771e-08
-1.1879e-08
5.09461e-08
2.51796e-08
3.73127e-08
3.9194e-08
3.23381e-08
1.36297e-08
2.78082e-08
1.27264e-08
2.28784e-08
1.38733e-08
1.92113e-08
1.02377e-08
1.58408e-08
9.41722e-09
1.32727e-08
7.15193e-09
1.09714e-08
6.40066e-09
9.25571e-09
4.7726e-09
7.74238e-09
4.18947e-09
6.54634e-09
3.31775e-09
5.57103e-09
2.69372e-09
4.73537e-09
2.30734e-09
4.10328e-09
1.73957e-09
3.56912e-09
1.4701e-09
3.12991e-09
1.20342e-09
2.79882e-09
9.05725e-10
2.52376e-09
7.48371e-10
2.31316e-09
5.62964e-10
2.15844e-09
4.24448e-10
2.03951e-09
3.10779e-10
1.96016e-09
2.20691e-10
1.91049e-09
1.28349e-10
1.88345e-09
6.54768e-11
1.87893e-09
3.16877e-12
1.89011e-09
-3.86447e-11
1.91458e-09
-7.50576e-11
1.95007e-09
-1.04032e-10
1.99392e-09
-1.27449e-10
2.04423e-09
-1.48803e-10
2.09951e-09
-1.54513e-10
2.1588e-09
-1.73449e-10
2.21958e-09
-1.71035e-10
2.28227e-09
-1.7789e-10
2.34611e-09
-1.8076e-10
2.40932e-09
-1.79505e-10
2.47305e-09
-1.80994e-10
2.53591e-09
-1.78236e-10
2.59823e-09
-1.78223e-10
2.66031e-09
-1.75549e-10
2.72086e-09
-1.73029e-10
2.78071e-09
-1.69091e-10
2.83844e-09
-1.6457e-10
2.89399e-09
-1.56882e-10
2.94673e-09
-1.49508e-10
2.99608e-09
-1.39725e-10
3.0434e-09
-1.36066e-10
3.07896e-09
-1.00251e-10
3.11564e-09
-1.05515e-10
3.15637e-09
-1.15267e-10
3.19809e-09
-1.18521e-10
3.24488e-09
-1.3262e-10
3.2976e-09
-1.48422e-10
3.35323e-09
-1.58742e-10
3.411e-09
-1.62008e-10
3.46949e-09
-1.67893e-10
3.52767e-09
-1.62935e-10
3.58407e-09
-1.62251e-10
3.63698e-09
-1.49493e-10
3.68633e-09
-1.42116e-10
3.73136e-09
-1.28646e-10
3.77201e-09
-1.16567e-10
3.80896e-09
-1.06601e-10
3.842e-09
-9.51062e-11
3.87243e-09
-8.75533e-11
3.90056e-09
-8.19817e-11
3.92636e-09
-7.33017e-11
3.95054e-09
-7.29026e-11
3.97231e-09
-6.12486e-11
3.99222e-09
-6.6e-11
4.00967e-09
-4.22727e-11
4.02428e-09
-4.94328e-11
4.03606e-09
-2.59449e-11
4.0442e-09
-3.92341e-11
4.0491e-09
-1.05068e-11
4.04993e-09
-2.79718e-11
4.04753e-09
1.62028e-11
4.04124e-09
-9.93103e-12
4.03213e-09
2.98053e-11
4.02015e-09
-2.95404e-12
4.00706e-09
4.85929e-11
3.99365e-09
-6.73002e-13
3.98305e-09
3.61999e-11
3.97702e-09
-3.23146e-11
3.98011e-09
1.16251e-11
3.99381e-09
-8.30015e-11
4.02448e-09
-6.23207e-11
4.07006e-09
-1.69262e-10
4.14246e-09
-2.12748e-10
4.22887e-09
-2.56265e-10
4.35455e-09
-3.62669e-10
4.48322e-09
-3.36646e-10
4.69952e-09
-6.397e-10
4.87063e-09
-4.96888e-10
5.53145e-09
-1.87984e-09
5.2403e-09
7.47113e-10
-4.50977e-07
9.15227e-08
6.3602e-08
-2.96641e-08
-7.50307e-08
6.13341e-08
7.27001e-09
7.26307e-08
-3.67834e-08
7.8002e-08
-1.72521e-08
6.70067e-08
3.61741e-08
4.94132e-08
5.67858e-08
4.27653e-08
2.0277e-08
3.6793e-08
1.86981e-08
3.03277e-08
2.03378e-08
2.5476e-08
1.50887e-08
2.1029e-08
1.38625e-08
1.76243e-08
1.05563e-08
1.45759e-08
9.44785e-09
1.22962e-08
7.05267e-09
1.02855e-08
6.19914e-09
8.69351e-09
4.9093e-09
7.39395e-09
3.99232e-09
6.27956e-09
3.42128e-09
5.43521e-09
2.58295e-09
4.72102e-09
2.18388e-09
4.13314e-09
1.79023e-09
3.6889e-09
1.34957e-09
3.3195e-09
1.11677e-09
3.03598e-09
8.45383e-10
2.82693e-09
6.33323e-10
2.66576e-09
4.7061e-10
2.5575e-09
3.29484e-10
2.48892e-09
1.96336e-10
2.45068e-09
1.03321e-10
2.44265e-09
1.04171e-11
2.45569e-09
-5.21072e-11
2.48663e-09
-1.06565e-10
2.53241e-09
-1.50032e-10
2.58947e-09
-1.85124e-10
2.65528e-09
-2.15314e-10
2.72783e-09
-2.27214e-10
2.80584e-09
-2.52071e-10
2.88594e-09
-2.51342e-10
2.96866e-09
-2.61116e-10
3.05299e-09
-2.65437e-10
3.13656e-09
-2.63692e-10
3.22086e-09
-2.65775e-10
3.30406e-09
-2.61752e-10
3.38658e-09
-2.61227e-10
3.46879e-09
-2.58238e-10
3.54901e-09
-2.53811e-10
3.62831e-09
-2.48748e-10
3.70481e-09
-2.4163e-10
3.77842e-09
-2.30875e-10
3.84828e-09
-2.1987e-10
3.91364e-09
-2.05514e-10
3.97627e-09
-1.99305e-10
4.02336e-09
-1.47729e-10
4.07189e-09
-1.54579e-10
4.12572e-09
-1.69393e-10
4.1809e-09
-1.7412e-10
4.24278e-09
-1.9489e-10
4.3125e-09
-2.18488e-10
4.38613e-09
-2.32956e-10
4.46266e-09
-2.38864e-10
4.54016e-09
-2.46106e-10
4.61728e-09
-2.40369e-10
4.69203e-09
-2.37729e-10
4.76213e-09
-2.20048e-10
4.82743e-09
-2.08153e-10
4.88701e-09
-1.8875e-10
4.94069e-09
-1.70831e-10
4.98942e-09
-1.55902e-10
5.03295e-09
-1.39264e-10
5.07297e-09
-1.28012e-10
5.10992e-09
-1.19566e-10
5.14375e-09
-1.07527e-10
5.17542e-09
-1.05372e-10
5.2039e-09
-9.00625e-11
5.2299e-09
-9.36175e-11
5.25263e-09
-6.43307e-11
5.27158e-09
-6.90692e-11
5.28675e-09
-4.04557e-11
5.29709e-09
-5.18788e-11
5.30311e-09
-1.66796e-11
5.30371e-09
-3.16754e-11
5.30001e-09
2.07265e-11
5.29111e-09
-4.36281e-12
5.27846e-09
4.24449e-11
5.26197e-09
9.55968e-12
5.24402e-09
6.79195e-11
5.22566e-09
1.33884e-11
5.21107e-09
5.08634e-11
5.20261e-09
-2.97277e-11
5.20634e-09
1.03969e-11
5.22429e-09
-1.06062e-10
5.26488e-09
-1.00926e-10
5.32547e-09
-2.35123e-10
5.4217e-09
-3.09462e-10
5.53676e-09
-3.73187e-10
5.70381e-09
-5.31995e-10
5.87517e-09
-5.0667e-10
6.16193e-09
-9.30451e-10
6.38912e-09
-7.25645e-10
7.25755e-09
-2.75104e-09
6.88081e-09
1.12165e-09
-5.41839e-07
9.77394e-08
8.15682e-08
-1.56291e-08
-9.55968e-08
7.87617e-08
1.0073e-08
9.28517e-08
-5.08767e-08
9.96609e-08
-2.40636e-08
8.60286e-08
4.9802e-08
6.39024e-08
7.89075e-08
5.52353e-08
2.89412e-08
4.75444e-08
2.63857e-08
3.92703e-08
2.86086e-08
3.30012e-08
2.1355e-08
2.72721e-08
1.95869e-08
2.28627e-08
1.49629e-08
1.89179e-08
1.33897e-08
1.59584e-08
1.00116e-08
1.33478e-08
8.80549e-09
1.12769e-08
6.97872e-09
9.58438e-09
5.68201e-09
8.1317e-09
4.872e-09
7.02906e-09
3.68347e-09
6.09549e-09
3.11618e-09
5.32608e-09
2.55735e-09
4.74321e-09
1.93109e-09
4.25803e-09
1.59958e-09
3.88471e-09
1.21597e-09
3.60842e-09
9.09057e-10
3.39476e-09
6.82199e-10
3.25025e-09
4.74598e-10
3.15762e-09
2.87981e-10
3.10476e-09
1.54925e-10
3.09154e-09
2.25062e-11
3.10599e-09
-6.74487e-11
3.144e-09
-1.45362e-10
3.20155e-09
-2.0819e-10
3.27401e-09
-2.58249e-10
3.35806e-09
-3.00429e-10
3.45104e-09
-3.20264e-10
3.55128e-09
-3.53778e-10
3.6544e-09
-3.54984e-10
3.76104e-09
-3.68211e-10
3.86988e-09
-3.74792e-10
3.97782e-09
-3.72226e-10
4.08678e-09
-3.75506e-10
4.19438e-09
-3.70146e-10
4.30113e-09
-3.68967e-10
4.40753e-09
-3.65282e-10
4.51137e-09
-3.58534e-10
4.61405e-09
-3.52105e-10
4.7131e-09
-3.4143e-10
4.8084e-09
-3.26731e-10
4.8988e-09
-3.10849e-10
4.98336e-09
-2.90564e-10
5.06432e-09
-2.81003e-10
5.12524e-09
-2.09017e-10
5.18797e-09
-2.17869e-10
5.25742e-09
-2.39236e-10
5.32875e-09
-2.45809e-10
5.40871e-09
-2.75206e-10
5.49879e-09
-3.08803e-10
5.59405e-09
-3.28772e-10
5.69312e-09
-3.38245e-10
5.79353e-09
-3.47338e-10
5.89343e-09
-3.40575e-10
5.99026e-09
-3.35443e-10
6.08102e-09
-3.11327e-10
6.1655e-09
-2.93495e-10
6.24244e-09
-2.66308e-10
6.31169e-09
-2.40711e-10
6.37443e-09
-2.19283e-10
6.43036e-09
-1.95692e-10
6.4817e-09
-1.79839e-10
6.52902e-09
-1.67393e-10
6.57228e-09
-1.51121e-10
6.61272e-09
-1.46617e-10
6.64904e-09
-1.26897e-10
6.6821e-09
-1.28159e-10
6.71094e-09
-9.24972e-11
6.73487e-09
-9.38221e-11
6.75388e-09
-5.91291e-11
6.76661e-09
-6.66903e-11
6.77372e-09
-2.46977e-11
6.77378e-09
-3.58598e-11
6.76824e-09
2.63107e-11
6.75592e-09
3.62866e-12
6.73873e-09
5.80975e-11
6.71653e-09
2.55474e-11
6.69246e-09
9.16104e-11
6.66787e-09
3.17498e-11
6.64824e-09
6.83435e-11
6.63667e-09
-2.70515e-11
6.64107e-09
6.7568e-12
6.6641e-09
-1.36591e-10
6.71668e-09
-1.52186e-10
6.79549e-09
-3.21067e-10
6.9206e-09
-4.38664e-10
7.07046e-09
-5.27932e-10
7.28757e-09
-7.53268e-10
7.51074e-09
-7.28539e-10
7.88224e-09
-1.30794e-09
8.17712e-09
-1.02726e-09
9.29122e-09
-3.87154e-09
8.82153e-09
1.58718e-09
-6.37262e-07
1.04239e-07
1.02702e-07
1.20798e-09
-1.19546e-07
9.93154e-08
1.34582e-08
1.16527e-07
-6.80881e-08
1.25001e-07
-3.25389e-08
1.08459e-07
6.6343e-08
8.11836e-08
1.06182e-07
7.00942e-08
4.00301e-08
6.03638e-08
3.61156e-08
4.99689e-08
3.90029e-08
4.20108e-08
2.93124e-08
3.47606e-08
2.68361e-08
2.91488e-08
2.05745e-08
2.41323e-08
1.84055e-08
2.03555e-08
1.37886e-08
1.70236e-08
1.21368e-08
1.43751e-08
9.62665e-09
1.22077e-08
7.84831e-09
1.03456e-08
6.7338e-09
8.9294e-09
5.09853e-09
7.7291e-09
4.31616e-09
6.73858e-09
3.54662e-09
5.98625e-09
2.68311e-09
5.3593e-09
2.22562e-09
4.87565e-09
1.69902e-09
4.51631e-09
1.26797e-09
4.23756e-09
9.59949e-10
4.04773e-09
6.64615e-10
3.9246e-09
4.10389e-10
3.85278e-09
2.2636e-10
3.8321e-09
4.22804e-11
3.84719e-09
-8.29772e-11
3.89277e-09
-1.91628e-10
3.96371e-09
-2.79363e-10
4.05401e-09
-3.49268e-10
4.15941e-09
-4.06448e-10
4.27645e-09
-4.3763e-10
4.40301e-09
-4.80841e-10
4.53346e-09
-4.85722e-10
4.66856e-09
-5.03922e-10
4.80662e-09
-5.13241e-10
4.94365e-09
-5.09993e-10
5.08208e-09
-5.1448e-10
5.21885e-09
-5.07258e-10
5.35462e-09
-5.05229e-10
5.48998e-09
-5.01156e-10
5.6221e-09
-4.91229e-10
5.75279e-09
-4.83197e-10
5.87885e-09
-4.68064e-10
6.0001e-09
-4.48428e-10
6.11506e-09
-4.2639e-10
6.22254e-09
-3.98536e-10
6.32537e-09
-3.84467e-10
6.40281e-09
-2.86951e-10
6.48247e-09
-2.98089e-10
6.57054e-09
-3.27682e-10
6.66116e-09
-3.36898e-10
6.76273e-09
-3.77229e-10
6.87715e-09
-4.23673e-10
6.99831e-09
-4.50545e-10
7.12444e-09
-4.64837e-10
7.25234e-09
-4.75945e-10
7.37963e-09
-4.68301e-10
7.50293e-09
-4.59472e-10
7.61846e-09
-4.27413e-10
7.72585e-09
-4.01644e-10
7.82353e-09
-3.64573e-10
7.91125e-09
-3.29077e-10
7.99058e-09
-2.99242e-10
8.06116e-09
-2.67015e-10
8.12578e-09
-2.44952e-10
8.18522e-09
-2.27535e-10
8.23948e-09
-2.05917e-10
8.29011e-09
-1.98055e-10
8.3355e-09
-1.72851e-10
8.37673e-09
-1.70988e-10
8.41257e-09
-1.27886e-10
8.44215e-09
-1.2381e-10
8.46544e-09
-8.21513e-11
8.48073e-09
-8.4099e-11
8.48882e-09
-3.34549e-11
8.4879e-09
-3.7694e-11
8.47981e-09
3.46355e-11
8.46305e-09
1.74831e-11
8.44005e-09
8.04837e-11
8.41066e-09
5.15961e-11
8.37888e-09
1.24118e-10
8.3465e-09
6.05451e-11
8.32055e-09
9.35038e-11
8.30504e-09
-1.66979e-11
8.3101e-09
3.40598e-12
8.33924e-09
-1.69925e-10
8.40629e-09
-2.18272e-10
8.50723e-09
-4.26556e-10
8.66729e-09
-5.99051e-10
8.85933e-09
-7.2191e-10
9.13686e-09
-1.03327e-09
9.42273e-09
-1.01422e-09
9.89585e-09
-1.7841e-09
1.02722e-08
-1.4051e-09
1.16758e-08
-5.27818e-09
1.11072e-08
2.15342e-09
-7.37177e-07
1.11019e-07
1.27455e-07
2.10611e-08
-1.47303e-07
1.23455e-07
1.74532e-08
1.44125e-07
-8.87617e-08
1.54516e-07
-4.29326e-08
1.34801e-07
8.60527e-08
1.01721e-07
1.39256e-07
8.77429e-08
5.40048e-08
7.56011e-08
4.82535e-08
6.273e-08
5.18701e-08
5.27668e-08
3.92725e-08
4.3718e-08
3.58798e-08
3.66719e-08
2.76171e-08
3.03778e-08
2.46968e-08
2.56215e-08
1.85438e-08
2.14246e-08
1.63292e-08
1.8081e-08
1.2968e-08
1.53411e-08
1.05847e-08
1.29844e-08
9.08823e-09
1.11885e-08
6.89173e-09
9.66455e-09
5.83866e-09
8.40527e-09
4.80296e-09
7.44614e-09
3.64067e-09
6.64594e-09
3.0228e-09
6.02697e-09
2.3152e-09
5.56526e-09
1.72858e-09
5.20595e-09
1.31718e-09
4.95955e-09
9.1138e-10
4.79788e-09
5.70848e-10
4.70154e-09
3.21229e-10
4.67042e-09
7.20598e-11
4.68493e-09
-9.85143e-11
4.73846e-09
-2.46124e-10
4.82445e-09
-3.66066e-10
4.9353e-09
-4.60941e-10
5.0656e-09
-5.37808e-10
5.21089e-09
-5.83184e-10
5.3685e-09
-6.40011e-10
5.53128e-09
-6.49253e-10
5.70014e-09
-6.73332e-10
5.87293e-09
-6.86615e-10
6.04457e-09
-6.82358e-10
6.21811e-09
-6.88938e-10
6.38968e-09
-6.7976e-10
6.56005e-09
-6.76671e-10
6.72999e-09
-6.71899e-10
6.89591e-09
-6.58127e-10
7.06005e-09
-6.48149e-10
7.21836e-09
-6.27205e-10
7.37058e-09
-6.01314e-10
7.51482e-09
-5.71297e-10
7.64958e-09
-5.33864e-10
7.7784e-09
-5.14058e-10
7.87552e-09
-3.84563e-10
7.97531e-09
-3.98486e-10
8.08549e-09
-4.38325e-10
8.19906e-09
-4.50876e-10
8.32639e-09
-5.04955e-10
8.46983e-09
-5.67414e-10
8.62195e-09
-6.03251e-10
8.78049e-09
-6.23798e-10
8.94135e-09
-6.37672e-10
9.10145e-09
-6.28812e-10
9.25647e-09
-6.15436e-10
9.40164e-09
-5.73205e-10
9.53635e-09
-5.37303e-10
9.65866e-09
-4.87577e-10
9.76828e-09
-4.39425e-10
9.86715e-09
-3.988e-10
9.95489e-09
-3.55319e-10
1.0035e-08
-3.25641e-10
1.01086e-08
-3.01644e-10
1.01756e-08
-2.73373e-10
1.0238e-08
-2.61284e-10
1.02938e-08
-2.29424e-10
1.03444e-08
-2.2308e-10
1.03882e-08
-1.71243e-10
1.04242e-08
-1.60319e-10
1.04522e-08
-1.10205e-10
1.04701e-08
-1.04052e-10
1.0479e-08
-4.38816e-11
1.04765e-08
-3.93447e-11
1.04649e-08
4.55185e-11
1.04424e-08
3.55898e-11
1.0412e-08
1.08307e-10
1.03736e-08
8.37764e-11
1.03322e-08
1.64166e-10
1.02901e-08
9.63204e-11
1.02562e-08
1.23699e-10
1.02358e-08
-5.58768e-12
1.02415e-08
-2.52345e-12
1.0278e-08
-2.1402e-10
1.03625e-08
-3.02737e-10
1.04903e-08
-5.61744e-10
1.06925e-08
-8.06211e-10
1.09357e-08
-9.70832e-10
1.12859e-08
-1.38871e-09
1.16475e-08
-1.37558e-09
1.22422e-08
-2.38477e-09
1.27162e-08
-1.88722e-09
1.44597e-08
-7.02935e-09
1.37885e-08
2.8196e-09
-8.4147e-07
1.18076e-07
1.56327e-07
4.40571e-08
-1.7933e-07
1.51698e-07
2.20812e-08
1.76164e-07
-1.13228e-07
1.88751e-07
-5.55216e-08
1.65618e-07
1.09185e-07
1.26047e-07
1.78826e-07
1.08644e-07
7.14072e-08
9.36614e-08
6.32365e-08
7.79107e-08
6.76208e-08
6.55756e-08
5.16074e-08
5.44069e-08
4.70479e-08
4.56548e-08
3.63692e-08
3.78418e-08
3.25095e-08
3.19145e-08
2.44712e-08
2.66825e-08
2.15608e-08
2.25044e-08
1.71451e-08
1.90756e-08
1.40127e-08
1.61228e-08
1.2041e-08
1.38678e-08
9.14579e-09
1.19519e-08
7.75447e-09
1.03664e-08
6.38731e-09
9.15537e-09
4.85165e-09
8.14376e-09
4.03338e-09
7.35909e-09
3.09958e-09
6.77137e-09
2.31554e-09
6.31253e-09
1.77525e-09
5.99566e-09
1.22813e-09
5.78535e-09
7.80424e-10
5.65748e-09
4.48764e-10
5.61194e-09
1.16635e-10
5.6241e-09
-1.11101e-10
5.68569e-09
-3.08472e-10
5.78846e-09
-4.69064e-10
5.92284e-09
-5.96201e-10
6.08204e-09
-6.97592e-10
6.26034e-09
-7.61975e-10
6.45444e-09
-8.34563e-10
6.65538e-09
-8.50576e-10
6.86417e-09
-8.82836e-10
7.07811e-09
-9.00997e-10
7.29082e-09
-8.95906e-10
7.50608e-09
-9.04772e-10
7.71903e-09
-8.93059e-10
7.9306e-09
-8.88771e-10
8.14172e-09
-8.83596e-10
8.3479e-09
-8.64906e-10
8.5519e-09
-8.52627e-10
8.74862e-09
-8.24546e-10
8.93769e-09
-7.90907e-10
9.11672e-09
-7.51e-10
9.28385e-09
-7.01579e-10
9.44347e-09
-6.74364e-10
9.56393e-09
-5.05642e-10
9.6876e-09
-5.22754e-10
9.82392e-09
-5.75101e-10
9.96479e-09
-5.92288e-10
1.01228e-08
-6.63432e-10
1.03007e-08
-7.45943e-10
1.04898e-08
-7.92995e-10
1.06871e-08
-8.21647e-10
1.08874e-08
-8.38705e-10
1.10867e-08
-8.28745e-10
1.12797e-08
-8.09142e-10
1.14602e-08
-7.54378e-10
1.16274e-08
-7.0536e-10
1.17789e-08
-6.39774e-10
1.19144e-08
-5.75625e-10
1.20362e-08
-5.2132e-10
1.2144e-08
-4.64003e-10
1.22422e-08
-4.24371e-10
1.23321e-08
-3.92298e-10
1.24137e-08
-3.55727e-10
1.24896e-08
-3.38044e-10
1.25574e-08
-2.97992e-10
1.26187e-08
-2.85968e-10
1.26715e-08
-2.23743e-10
1.27145e-08
-2.03494e-10
1.27477e-08
-1.43434e-10
1.27683e-08
-1.26761e-10
1.27775e-08
-5.42755e-11
1.27726e-08
-3.70691e-11
1.27564e-08
6.14423e-11
1.27265e-08
6.27291e-11
1.26868e-08
1.46858e-10
1.2637e-08
1.30526e-10
1.25836e-08
2.17737e-10
1.25294e-08
1.47204e-10
1.24858e-08
1.65654e-10
1.24591e-08
1.60781e-11
1.24656e-08
-7.9378e-12
1.25109e-08
-2.63107e-10
1.26165e-08
-4.08415e-10
1.27768e-08
-7.26388e-10
1.303e-08
-1.05932e-09
1.33348e-08
-1.2775e-09
1.37725e-08
-1.82936e-09
1.42254e-08
-1.82935e-09
1.49649e-08
-3.12697e-09
1.55559e-08
-2.47925e-09
1.76969e-08
-9.17334e-09
1.69222e-08
3.59154e-09
-9.49958e-07
1.25406e-07
1.89873e-07
7.03132e-08
-2.16126e-07
1.84617e-07
2.73317e-08
2.13213e-07
-1.41829e-07
2.28304e-07
-7.06165e-08
2.01539e-07
1.35944e-07
1.54769e-07
2.25589e-07
1.33333e-07
9.28391e-08
1.15013e-07
8.15517e-08
9.59269e-08
8.67027e-08
8.07955e-08
6.67353e-08
6.71358e-08
6.07019e-08
5.63602e-08
4.71405e-08
4.67456e-08
4.21211e-08
3.94214e-08
3.17942e-08
3.29534e-08
2.80236e-08
2.77755e-08
2.23199e-08
2.35193e-08
1.82646e-08
1.9849e-08
1.57087e-08
1.70399e-08
1.19516e-08
1.46499e-08
1.01429e-08
1.26692e-08
8.36429e-09
1.11517e-08
6.36736e-09
9.88241e-09
5.29877e-09
8.89509e-09
4.08395e-09
8.15248e-09
3.05639e-09
7.57081e-09
2.35478e-09
7.16629e-09
1.63278e-09
6.89473e-09
1.05047e-09
6.72643e-09
6.15394e-10
6.66128e-09
1.80179e-10
6.6685e-09
-1.19482e-10
6.73792e-09
-3.7909e-10
6.85917e-09
-5.91135e-10
7.02032e-09
-7.58388e-10
7.21289e-09
-8.91264e-10
7.42965e-09
-9.79197e-10
7.66651e-09
-1.07314e-09
7.91231e-09
-1.09737e-09
8.16817e-09
-1.13937e-09
8.43075e-09
-1.16425e-09
8.69208e-09
-1.15814e-09
8.95679e-09
-1.17056e-09
9.21882e-09
-1.15618e-09
9.4793e-09
-1.15043e-09
9.73935e-09
-1.14462e-09
9.99337e-09
-1.12004e-09
1.02447e-08
-1.10496e-09
1.04871e-08
-1.06785e-09
1.07199e-08
-1.02451e-09
1.09402e-08
-9.72007e-10
1.11456e-08
-9.07684e-10
1.13416e-08
-8.71178e-10
1.14897e-08
-6.54376e-10
1.16416e-08
-6.75303e-10
1.18088e-08
-7.42847e-10
1.1982e-08
-7.65974e-10
1.21763e-08
-8.58214e-10
1.23953e-08
-9.65289e-10
1.26284e-08
-1.02671e-09
1.28719e-08
-1.06567e-09
1.31193e-08
-1.08707e-09
1.33655e-08
-1.07554e-09
1.36037e-08
-1.04836e-09
1.38264e-08
-9.7776e-10