/*--------------------------------*- C++ -*----------------------------------*\
| =========                 |                                                 |
| \\      /  F ield         | OpenFOAM: The Open Source CFD Toolbox           |
|  \\    /   O peration     | Version:  5.x                                   |
|   \\  /    A nd           | Web:      www.OpenFOAM.org                      |
|    \\/     M anipulation  |                                                 |
\*---------------------------------------------------------------------------*/
FoamFile
{
    version     2.0;
    format      ascii;
    class       surfaceScalarField;
    location    "500";
    object      phi;
}
// * * * * * * * * * * * * * * * * * * * * * * * * * * * * * * * * * * * * * //

dimensions      [0 3 -1 0 0 0 0];

internalField   nonuniform List<scalar> 
215247
(
3.14546e-09
-4.16951e-09
-3.76086e-09
3.2253e-09
-8.042e-11
4.01612e-09
-7.9049e-10
4.50347e-09
-4.88046e-10
3.89634e-09
6.07888e-10
2.87008e-09
1.02447e-09
2.64588e-09
2.2393e-10
2.37405e-09
2.71418e-10
2.05341e-09
3.20277e-10
1.81649e-09
2.36505e-10
1.59091e-09
2.2474e-10
1.41665e-09
1.74076e-10
1.25576e-09
1.5987e-10
1.13346e-09
1.22587e-10
1.02177e-09
1.1094e-10
9.29892e-10
9.17555e-11
8.5265e-10
7.67749e-11
7.82017e-10
7.02252e-11
7.26183e-10
5.54194e-11
6.75687e-10
5.01612e-11
6.30162e-10
4.50209e-11
5.93079e-10
3.66993e-11
5.58511e-10
3.41693e-11
5.27887e-10
2.97749e-11
5.01904e-10
2.60494e-11
4.77206e-10
2.37729e-11
4.55637e-10
2.18051e-11
4.36497e-10
1.87403e-11
4.18055e-10
1.8064e-11
4.02281e-10
1.53277e-11
3.87565e-10
1.4345e-11
3.73397e-10
1.37143e-11
3.6104e-10
1.20287e-11
3.492e-10
1.14557e-11
3.3807e-10
1.01029e-11
3.28107e-10
1.02161e-11
3.1837e-10
8.51411e-12
3.09425e-10
9.24996e-12
3.01078e-10
8.02082e-12
2.92986e-10
7.9005e-12
2.85633e-10
6.74086e-12
2.78564e-10
6.57919e-12
2.71925e-10
6.30094e-12
2.65759e-10
4.25839e-12
2.59869e-10
6.658e-12
2.54477e-10
2.58825e-12
2.49365e-10
6.67061e-12
2.4463e-10
1.98212e-12
2.40224e-10
6.52701e-12
2.36104e-10
3.54634e-12
2.32249e-10
3.91225e-12
2.28543e-10
1.11454e-12
2.25478e-10
4.2979e-12
2.23027e-10
4.94411e-13
2.21359e-10
3.18336e-12
2.19798e-10
3.3245e-13
2.18831e-10
2.44871e-12
2.18476e-10
-8.42421e-13
2.18283e-10
1.52995e-12
2.18306e-10
-6.992e-13
2.18463e-10
1.14687e-12
2.18752e-10
-1.2416e-12
2.19174e-10
4.93846e-13
2.19648e-10
-1.17536e-12
2.20235e-10
2.63838e-13
2.20885e-10
-1.34305e-12
2.2158e-10
-1.12763e-13
2.22345e-10
-1.26993e-12
2.23116e-10
-2.33755e-13
2.23943e-10
-1.30042e-12
2.24807e-10
-5.50671e-13
2.25683e-10
-1.15652e-12
2.26604e-10
-6.96663e-13
2.27525e-10
-1.14119e-12
2.28487e-10
-6.61809e-13
2.29478e-10
-1.33393e-12
2.30496e-10
-9.13036e-13
2.31568e-10
-1.42784e-12
2.32667e-10
-8.2792e-13
2.33815e-10
-1.36871e-12
2.34987e-10
-8.5765e-13
2.36188e-10
-1.39147e-12
2.37402e-10
-1.00725e-12
2.38609e-10
-1.27236e-12
2.39794e-10
-1.04839e-12
2.40933e-10
-1.19565e-12
2.42007e-10
-1.01481e-12
2.42997e-10
-1.07678e-12
2.43873e-10
-7.84398e-13
2.44642e-10
-1.02742e-12
2.45212e-10
-4.34709e-13
2.45748e-10
-9.98241e-13
2.46015e-10
-3.42721e-14
2.46545e-10
-6.43593e-13
2.46827e-10
-2.87466e-13
2.48296e-10
-1.50468e-12
2.49683e-10
-2.47644e-12
2.56086e-10
-5.66204e-12
2.62773e-10
-6.70985e-12
2.99148e-10
-3.62494e-11
3.14047e-10
-1.48678e-11
-6.90404e-08
6.93543e-08
1.04239e-08
-2.36723e-09
-1.22239e-08
1.05868e-08
-2.44341e-10
1.31938e-08
-3.39697e-09
1.47377e-08
-2.03297e-09
1.28114e-08
2.53479e-09
9.53022e-09
4.30302e-09
8.72229e-09
1.03112e-09
7.85946e-09
1.13325e-09
6.79248e-09
1.38634e-09
6.01789e-09
1.01014e-09
5.27136e-09
9.69678e-10
4.69657e-09
7.48171e-10
4.16457e-09
6.90109e-10
3.75973e-09
5.27553e-10
3.38994e-09
4.79415e-10
3.08569e-09
3.95727e-10
2.82938e-09
3.32077e-10
2.59542e-09
3.03284e-10
2.41002e-09
2.39971e-10
2.24247e-09
2.16998e-10
2.09146e-09
1.95027e-10
1.96822e-09
1.59151e-10
1.85346e-09
1.48094e-10
1.75178e-09
1.29878e-10
1.66537e-09
1.12361e-10
1.58335e-09
1.04216e-10
1.51167e-09
9.37707e-11
1.448e-09
8.16595e-11
1.38674e-09
7.85642e-11
1.33426e-09
6.69176e-11
1.28531e-09
6.25211e-11
1.23822e-09
5.99415e-11
1.19708e-09
5.24843e-11
1.1577e-09
5.0149e-11
1.12067e-09
4.53987e-11
1.08748e-09
4.3778e-11
1.05508e-09
3.90762e-11
1.02529e-09
3.92389e-11
9.97478e-10
3.5236e-11
9.70519e-10
3.44045e-11
9.46001e-10
3.02313e-11
9.22437e-10
2.91385e-11
9.00289e-10
2.78185e-11
8.79706e-10
2.20447e-11
8.60045e-10
2.71242e-11
8.42031e-10
1.68365e-11
8.2495e-10
2.53195e-11
8.09118e-10
1.42596e-11
7.94382e-10
2.37352e-11
7.80602e-10
1.63735e-11
7.67708e-10
1.69115e-11
7.55318e-10
1.00332e-11
7.4509e-10
1.60263e-11
7.36885e-10
6.31693e-12
7.31282e-10
1.03243e-11
7.26043e-10
4.16022e-12
7.22775e-10
7.60521e-12
7.21532e-10
-9.48306e-13
7.20838e-10
3.84356e-12
7.20864e-10
-1.406e-12
7.21343e-10
2.38076e-12
7.22262e-10
-3.29483e-12
7.23626e-10
2.09589e-13
7.25168e-10
-3.50292e-12
7.27086e-10
-6.39906e-13
7.29214e-10
-4.31222e-12
7.31499e-10
-1.74683e-12
7.34015e-10
-4.37467e-12
7.36555e-10
-2.17819e-12
7.39283e-10
-4.61834e-12
7.42134e-10
-3.08438e-12
7.45029e-10
-4.35069e-12
7.48071e-10
-3.52182e-12
7.51114e-10
-4.43727e-12
7.54294e-10
-3.55841e-12
7.57565e-10
-5.02734e-12
7.60927e-10
-4.20637e-12
7.64461e-10
-5.39137e-12
7.68087e-10
-4.2144e-12
7.71876e-10
-5.42169e-12
7.75745e-10
-4.3526e-12
7.79717e-10
-5.58835e-12
7.83735e-10
-4.81607e-12
7.87735e-10
-5.34136e-12
7.91665e-10
-4.84526e-12
7.95452e-10
-5.03962e-12
7.99025e-10
-4.57384e-12
8.02323e-10
-4.48996e-12
8.05239e-10
-3.66105e-12
8.07809e-10
-3.90925e-12
8.09705e-10
-2.24942e-12
8.11497e-10
-3.41101e-12
8.12364e-10
-7.06999e-13
8.14125e-10
-2.58567e-12
8.14984e-10
-1.1853e-12
8.19853e-10
-6.42641e-12
8.24226e-10
-8.28949e-12
8.45442e-10
-2.60671e-11
8.66948e-10
-2.82186e-11
9.86917e-10
-1.56042e-10
9.6357e-10
8.52745e-12
-1.42648e-07
7.45711e-08
1.93254e-08
7.34917e-10
-2.24286e-08
1.95563e-08
-4.7596e-10
2.43369e-08
-8.17738e-09
2.71334e-08
-4.83017e-09
2.3681e-08
5.98789e-09
1.77355e-08
1.02467e-08
1.61688e-08
2.59757e-09
1.45959e-08
2.70585e-09
1.2619e-08
3.3629e-09
1.11874e-08
2.44141e-09
9.80341e-09
2.35286e-09
8.73692e-09
1.81453e-09
7.74945e-09
1.67659e-09
6.99681e-09
1.2805e-09
6.30943e-09
1.16599e-09
5.74353e-09
9.61396e-10
5.26629e-09
8.089e-10
4.831e-09
7.38199e-10
4.48555e-09
5.85034e-10
4.17345e-09
5.28779e-10
3.8922e-09
4.75787e-10
3.66236e-09
3.88628e-10
3.4485e-09
3.61548e-10
3.25899e-09
3.18574e-10
3.09776e-09
2.73611e-10
2.94485e-09
2.56189e-10
2.81115e-09
2.27625e-10
2.69233e-09
2.00059e-10
2.57808e-09
1.92421e-10
2.48014e-09
1.64403e-10
2.38878e-09
1.5351e-10
2.30094e-09
1.47294e-10
2.22413e-09
1.28964e-10
2.15061e-09
1.23214e-10
2.08151e-09
1.13458e-10
2.01952e-09
1.05904e-10
1.95903e-09
9.82334e-11
1.9034e-09
9.51314e-11
1.85145e-09
8.68303e-11
1.8011e-09
8.458e-11
1.75529e-09
7.53277e-11
1.71125e-09
7.2687e-11
1.66985e-09
6.88339e-11
1.63137e-09
5.85156e-11
1.59461e-09
6.45692e-11
1.56092e-09
4.74888e-11
1.52896e-09
5.88981e-11
1.49935e-09
4.09053e-11
1.47177e-09
5.35453e-11
1.44599e-09
4.14732e-11
1.42187e-09
4.10866e-11
1.3987e-09
3.03578e-11
1.37961e-09
3.62434e-11
1.36427e-09
1.95148e-11
1.35375e-09
2.25016e-11
1.34394e-09
1.26615e-11
1.33778e-09
1.53482e-11
1.33538e-09
1.4687e-13
1.33402e-09
6.66643e-12
1.334e-09
-2.08037e-12
1.33484e-09
2.99462e-12
1.3365e-09
-5.99551e-12
1.33899e-09
-1.28202e-12
1.34182e-09
-7.08951e-12
1.34536e-09
-3.22006e-12
1.34929e-09
-9.00299e-12
1.35351e-09
-5.33572e-12
1.35816e-09
-9.57582e-12
1.36287e-09
-6.27655e-12
1.36793e-09
-1.02051e-11
1.37322e-09
-8.03681e-12
1.37859e-09
-1.00301e-11
1.38424e-09
-8.92964e-12
1.38989e-09
-1.03234e-11
1.39579e-09
-9.10134e-12
1.40186e-09
-1.14923e-11
1.4081e-09
-1.03475e-11
1.41465e-09
-1.23402e-11
1.42137e-09
-1.06294e-11
1.4284e-09
-1.26721e-11
1.43558e-09
-1.11862e-11
1.44295e-09
-1.31658e-11
1.45042e-09
-1.20453e-11
1.45786e-09
-1.28452e-11
1.46517e-09
-1.20042e-11
1.47223e-09
-1.21594e-11
1.47889e-09
-1.11549e-11
1.48504e-09
-1.07312e-11
1.49048e-09
-8.97876e-12
1.49527e-09
-9.00175e-12
1.4988e-09
-5.62743e-12
1.50214e-09
-7.24598e-12
1.50372e-09
-2.04508e-12
1.50698e-09
-5.98059e-12
1.50849e-09
-2.68996e-12
1.51749e-09
-1.54704e-11
1.5254e-09
-1.73826e-11
1.5647e-09
-6.45777e-11
1.60402e-09
-6.75855e-11
1.82589e-09
-3.7775e-10
1.76109e-09
7.33655e-11
-2.20975e-07
8.00877e-08
3.00912e-08
5.3209e-09
-3.46747e-08
3.04187e-08
-8.04808e-10
3.7747e-08
-1.55053e-08
4.20367e-08
-9.12097e-09
3.68356e-08
1.11893e-08
2.77551e-08
1.93244e-08
2.52386e-08
5.11315e-09
2.28018e-08
5.14144e-09
1.97334e-08
6.43016e-09
1.75004e-08
4.67329e-09
1.53442e-08
4.50729e-09
1.36775e-08
3.48027e-09
1.21353e-08
3.217e-09
1.09573e-08
2.45838e-09
9.88183e-09
2.24e-09
8.99565e-09
1.84711e-09
8.24768e-09
1.55565e-09
7.56568e-09
1.41912e-09
7.0238e-09
1.12588e-09
6.53428e-09
1.01744e-09
6.09318e-09
9.15678e-10
5.73228e-09
7.48574e-10
5.39665e-09
6.96163e-10
5.09918e-09
6.14339e-10
4.84585e-09
5.26622e-10
4.60576e-09
4.9457e-10
4.39576e-09
4.37755e-10
4.209e-09
3.85883e-10
4.02956e-09
3.70907e-10
3.87561e-09
3.17251e-10
3.73201e-09
2.96134e-10
3.59402e-09
2.84216e-10
3.47326e-09
2.48869e-10
3.35771e-09
2.37892e-10
3.2491e-09
2.20218e-10
3.15162e-09
2.03608e-10
3.05655e-09
1.91343e-10
2.96909e-09
1.82588e-10
2.88738e-09
1.67796e-10
2.80822e-09
1.63154e-10
2.73617e-09
1.46114e-10
2.66691e-09
1.40685e-10
2.60181e-09
1.33138e-10
2.54128e-09
1.16201e-10
2.48345e-09
1.22873e-10
2.43045e-09
9.67475e-11
2.38018e-09
1.10335e-10
2.33358e-09
8.40587e-11
2.29021e-09
9.90839e-11
2.24966e-09
8.08835e-11
2.21175e-09
7.911e-11
2.17536e-09
6.33244e-11
2.14541e-09
6.733e-11
2.12131e-09
4.13564e-11
2.10473e-09
4.03267e-11
2.08931e-09
2.68593e-11
2.07956e-09
2.68792e-11
2.07569e-09
2.82849e-12
2.07347e-09
1.04149e-11
2.07336e-09
-2.46053e-12
2.07459e-09
3.47754e-12
2.07713e-09
-9.58168e-12
2.08097e-09
-4.13204e-12
2.08536e-09
-1.21631e-11
2.09085e-09
-7.736e-12
2.09697e-09
-1.59174e-11
2.10355e-09
-1.13423e-11
2.11081e-09
-1.73737e-11
2.11816e-09
-1.30746e-11
2.12606e-09
-1.86885e-11
2.13433e-09
-1.60432e-11
2.14273e-09
-1.86886e-11
2.15156e-09
-1.75937e-11
2.16039e-09
-1.93888e-11
2.16962e-09
-1.80821e-11
2.1791e-09
-2.1397e-11
2.18885e-09
-2.00852e-11
2.19908e-09
-2.29852e-11
2.20958e-09
-2.09515e-11
2.22055e-09
-2.38743e-11
2.23177e-09
-2.20579e-11
2.2433e-09
-2.49008e-11
2.25497e-09
-2.35438e-11
2.26662e-09
-2.4544e-11
2.27808e-09
-2.33526e-11
2.28913e-09
-2.32708e-11
2.29957e-09
-2.16052e-11
2.30922e-09
-2.04901e-11
2.31774e-09
-1.74907e-11
2.32525e-09
-1.68247e-11
2.33076e-09
-1.11161e-11
2.33596e-09
-1.30584e-11
2.3384e-09
-4.36372e-12
2.34342e-09
-1.12214e-11
2.34567e-09
-5.00406e-12
2.35961e-09
-2.94776e-11
2.37176e-09
-3.09518e-11
2.43291e-09
-1.25046e-10
2.49374e-09
-1.28418e-10
2.83845e-09
-7.22259e-10
2.72549e-09
1.86392e-10
-3.04158e-07
8.59079e-08
4.30242e-08
1.15603e-08
-4.92651e-08
4.34851e-08
-1.26629e-09
5.37733e-08
-2.57935e-08
5.98305e-08
-1.51787e-08
5.26493e-08
1.8371e-08
3.99127e-08
3.20596e-08
3.62168e-08
8.80895e-09
3.27355e-08
8.62252e-09
2.8367e-08
1.07985e-08
2.51627e-08
7.87725e-09
2.2077e-08
7.5925e-09
1.96822e-08
5.87502e-09
1.74682e-08
5.43036e-09
1.57732e-08
4.1536e-09
1.4226e-08
3.78651e-09
1.29499e-08
3.12294e-09
1.1872e-08
2.6332e-09
1.08893e-08
2.40153e-09
1.01076e-08
1.90721e-09
9.40147e-09
1.72335e-09
8.76517e-09
1.55155e-09
8.24393e-09
1.2695e-09
7.7594e-09
1.18041e-09
7.32988e-09
1.04334e-09
6.96374e-09
8.92728e-10
6.61696e-09
8.40684e-10
6.3135e-09
7.41211e-10
6.04348e-09
6.55471e-10
5.7842e-09
6.29809e-10
5.56159e-09
5.39404e-10
5.35395e-09
5.03426e-10
5.15453e-09
4.83138e-10
4.97985e-09
4.23225e-10
4.8128e-09
4.04538e-10
4.6558e-09
3.7646e-10
4.51477e-09
3.44575e-10
4.37733e-09
3.27716e-10
4.25087e-09
3.09163e-10
4.1327e-09
2.85581e-10
4.01827e-09
2.77433e-10
3.91406e-09
2.49528e-10
3.81393e-09
2.40349e-10
3.71981e-09
2.26847e-10
3.63228e-09
2.02181e-10
3.54868e-09
2.06807e-10
3.47204e-09
1.70984e-10
3.39939e-09
1.84147e-10
3.33205e-09
1.49065e-10
3.26938e-09
1.63409e-10
3.21082e-09
1.38706e-10
3.1561e-09
1.33867e-10
3.10362e-09
1.13461e-10
3.06052e-09
1.11013e-10
3.02576e-09
7.44092e-11
3.00179e-09
6.55873e-11
2.97954e-09
4.81333e-11
2.9654e-09
4.22181e-11
2.95968e-09
7.53728e-12
2.95637e-09
1.48743e-11
2.95611e-09
-2.66039e-12
2.9578e-09
2.97083e-12
2.96138e-09
-1.39734e-11
2.96685e-09
-8.82176e-12
2.97311e-09
-1.90012e-11
2.98096e-09
-1.4806e-11
2.98973e-09
-2.52834e-11
2.99918e-09
-2.02981e-11
3.00959e-09
-2.82072e-11
3.02016e-09
-2.3133e-11
3.03151e-09
-3.04744e-11
3.0434e-09
-2.76747e-11
3.05547e-09
-3.10135e-11
3.06817e-09
-3.01103e-11
3.08088e-09
-3.22674e-11
3.09414e-09
-3.1017e-11
3.10777e-09
-3.5375e-11
3.12178e-09
-3.40499e-11
3.13648e-09
-3.80003e-11
3.15156e-09
-3.57795e-11
3.16733e-09
-3.97864e-11
3.18345e-09
-3.78982e-11
3.20002e-09
-4.16241e-11
3.21682e-09
-4.01399e-11
3.23358e-09
-4.13392e-11
3.25008e-09
-3.97129e-11
3.266e-09
-3.92439e-11
3.28103e-09
-3.65592e-11
3.29492e-09
-3.44301e-11
3.30717e-09
-2.96234e-11
3.31795e-09
-2.78592e-11
3.32585e-09
-1.88922e-11
3.33325e-09
-2.08516e-11
3.33667e-09
-7.59759e-12
3.34376e-09
-1.84653e-11
3.34685e-09
-8.08587e-12
3.36667e-09
-4.93532e-11
3.38389e-09
-4.91109e-11
3.47128e-09
-2.11848e-10
3.558e-09
-2.15202e-10
4.04986e-09
-1.21394e-09
3.88218e-09
3.54122e-10
-3.92309e-07
9.20334e-08
5.84684e-08
1.96329e-08
-6.65387e-08
5.91104e-08
-1.9099e-09
7.28088e-08
-3.94918e-08
8.09448e-08
-2.33159e-08
7.15486e-08
2.77669e-08
5.4584e-08
4.90213e-08
4.94346e-08
1.39572e-08
4.4697e-08
1.33587e-08
3.87894e-08
1.67049e-08
3.44146e-08
1.22506e-08
3.02161e-08
1.17891e-08
2.69425e-08
9.14744e-09
2.39193e-08
8.45176e-09
2.15987e-08
6.47385e-09
1.94812e-08
5.90235e-09
1.77327e-08
4.87076e-09
1.62545e-08
4.10991e-09
1.49069e-08
3.74783e-09
1.38338e-08
2.97911e-09
1.28642e-08
2.69193e-09
1.19905e-08
2.42375e-09
1.12739e-08
1.98497e-09
1.06081e-08
1.84501e-09
1.00177e-08
1.63193e-09
9.51395e-09
1.39592e-09
9.03711e-09
1.31573e-09
8.61966e-09
1.15856e-09
8.24798e-09
1.026e-09
7.89131e-09
9.85296e-10
7.58486e-09
8.44484e-10
7.29902e-09
7.88063e-10
7.02464e-09
7.56199e-10
6.78414e-09
6.62647e-10
6.55419e-09
6.33394e-10
6.33815e-09
5.90584e-10
6.14396e-09
5.38749e-10
5.95481e-09
5.14806e-10
5.78077e-09
4.82928e-10
5.61811e-09
4.47312e-10
5.46067e-09
4.34136e-10
5.31727e-09
3.91352e-10
5.17952e-09
3.76543e-10
5.05005e-09
3.55319e-10
4.92964e-09
3.19778e-10
4.81469e-09
3.21772e-10
4.70931e-09
2.72738e-10
4.60944e-09
2.84662e-10
4.51692e-09
2.38375e-10
4.43084e-09
2.51213e-10
4.35046e-09
2.17733e-10
4.27541e-09
2.09021e-10
4.20351e-09
1.82075e-10
4.14458e-09
1.7056e-10
4.09698e-09
1.19935e-10
4.06404e-09
9.93925e-11
4.03356e-09
7.76468e-11
4.01411e-09
6.32762e-11
4.0061e-09
1.45846e-11
4.00143e-09
2.09108e-11
4.00096e-09
-2.40821e-12
4.00318e-09
2.42585e-12
4.008e-09
-1.97132e-11
4.01541e-09
-1.53614e-11
4.02395e-09
-2.80763e-11
4.03466e-09
-2.46076e-11
4.04661e-09
-3.79672e-11
4.05953e-09
-3.27393e-11
4.07377e-09
-4.29057e-11
4.08823e-09
-3.71033e-11
4.10377e-09
-4.65672e-11
4.12003e-09
-4.37606e-11
4.13656e-09
-4.77602e-11
4.15394e-09
-4.73878e-11
4.17135e-09
-4.98682e-11
4.1895e-09
-4.8971e-11
4.20815e-09
-5.4441e-11
4.22731e-09
-5.32807e-11
4.24741e-09
-5.84851e-11
4.26804e-09
-5.63069e-11
4.28959e-09
-6.15214e-11
4.31164e-09
-5.96518e-11
4.33432e-09
-6.44801e-11
4.35731e-09
-6.29934e-11
4.38026e-09
-6.43219e-11
4.40286e-09
-6.22311e-11
4.42467e-09
-6.11051e-11
4.44525e-09
-5.71825e-11
4.46425e-09
-5.35373e-11
4.48099e-09
-4.63921e-11
4.49569e-09
-4.28736e-11
4.50641e-09
-2.96503e-11
4.5164e-09
-3.14404e-11
4.52092e-09
-1.2088e-11
4.53038e-09
-2.81923e-11
4.53438e-09
-1.21736e-11
4.56116e-09
-7.62178e-11
4.58444e-09
-7.37441e-11
4.70323e-09
-3.30151e-10
4.821e-09
-3.32962e-10
5.48813e-09
-1.88084e-09
5.26007e-09
5.82253e-10
-4.85514e-07
9.84645e-08
7.68134e-08
2.96905e-08
-8.68728e-08
7.76978e-08
-2.79486e-09
9.52938e-08
-5.7088e-08
1.0586e-07
-3.38828e-08
9.4018e-08
3.96094e-08
7.2204e-08
7.08343e-08
6.52758e-08
2.08856e-08
5.9034e-08
1.96004e-08
5.13147e-08
2.44242e-08
4.55363e-08
1.80289e-08
4.00121e-08
1.7313e-08
3.56828e-08
1.34768e-08
3.1689e-08
1.24452e-08
2.86148e-08
9.54812e-09
2.58104e-08
8.70625e-09
2.34917e-08
7.18906e-09
2.15298e-08
6.07161e-09
1.97412e-08
5.5363e-09
1.83151e-08
4.405e-09
1.70264e-08
3.98047e-09
1.58652e-08
3.58471e-09
1.49114e-08
2.93854e-09
1.40256e-08
2.73062e-09
1.324e-08
2.41731e-09
1.25688e-08
2.06695e-09
1.19339e-08
1.95016e-09
1.13779e-08
1.71438e-09
1.08825e-08
1.52103e-09
1.04074e-08
1.46007e-09
9.99893e-09
1.25262e-09
9.6179e-09
1.16883e-09
9.25238e-09
1.12129e-09
8.93174e-09
9.83047e-10
8.6253e-09
9.39399e-10
8.33744e-09
8.77908e-10
8.07855e-09
7.97346e-10
7.82655e-09
7.65901e-10
7.59469e-09
7.14709e-10
7.37795e-09
6.63701e-10
7.16829e-09
6.43699e-10
6.97728e-09
5.81596e-10
6.79385e-09
5.59621e-10
6.62153e-09
5.27248e-10
6.46125e-09
4.7887e-10
6.30833e-09
4.7464e-10
6.16816e-09
4.1101e-10
6.03538e-09
4.18131e-10
5.91243e-09
3.59523e-10
5.7981e-09
3.66646e-10
5.69144e-09
3.23659e-10
5.59194e-09
3.08516e-10
5.49675e-09
2.75314e-10
5.4189e-09
2.48378e-10
5.35593e-09
1.81603e-10
5.31222e-09
1.44033e-10
5.27189e-09
1.17291e-10
5.24605e-09
8.99959e-11
5.23522e-09
2.46611e-11
5.2289e-09
2.81082e-11
5.22815e-09
-1.87351e-12
5.23099e-09
5.59608e-13
5.23731e-09
-2.66356e-11
5.24706e-09
-2.45234e-11
5.25834e-09
-3.97463e-11
5.27248e-09
-3.80975e-11
5.28831e-09
-5.42679e-11
5.3054e-09
-4.94697e-11
5.32426e-09
-6.20552e-11
5.34343e-09
-5.5849e-11
5.36402e-09
-6.75191e-11
5.38557e-09
-6.51393e-11
5.40749e-09
-6.9878e-11
5.43052e-09
-7.02978e-11
5.45359e-09
-7.30469e-11
5.47764e-09
-7.27188e-11
5.50235e-09
-7.94578e-11
5.52772e-09
-7.86844e-11
5.55433e-09
-8.53368e-11
5.58164e-09
-8.34148e-11
5.61017e-09
-9.01366e-11
5.63937e-09
-8.86385e-11
5.6694e-09
-9.4614e-11
5.69987e-09
-9.32927e-11
5.73028e-09
-9.47403e-11
5.76023e-09
-9.20627e-11
5.78911e-09
-9.00365e-11
5.81637e-09
-8.43623e-11
5.84149e-09
-7.86877e-11
5.86359e-09
-6.83686e-11
5.88292e-09
-6.24337e-11
5.89696e-09
-4.35985e-11
5.90994e-09
-4.47264e-11
5.91567e-09
-1.7689e-11
5.92781e-09
-4.05073e-11
5.93279e-09
-1.713e-11
5.96776e-09
-1.11257e-10
5.99827e-09
-1.04973e-10
6.15447e-09
-4.85963e-10
6.30936e-09
-4.87932e-10
7.18422e-09
-2.75551e-09
6.89138e-09
8.75149e-10
-5.83822e-07
1.05199e-07
9.8499e-08
4.18784e-08
-1.10685e-07
9.97042e-08
-4.00212e-09
1.2172e-07
-7.9104e-08
1.35112e-07
-4.72764e-08
1.20606e-07
5.41152e-08
9.3275e-08
9.81618e-08
8.41843e-08
2.99752e-08
7.61489e-08
2.76341e-08
6.63083e-08
3.42635e-08
5.88542e-08
2.54814e-08
5.17577e-08
2.44075e-08
4.6165e-08
1.90681e-08
4.10117e-08
1.75967e-08
3.70331e-08
1.35262e-08
3.34043e-08
1.23331e-08
3.03999e-08
1.01924e-08
2.78555e-08
8.61433e-09
2.55356e-08
7.8548e-09
2.36834e-08
6.25568e-09
2.20094e-08
5.65339e-09
2.05008e-08
5.09156e-09
1.926e-08
4.1781e-09
1.8108e-08
3.88111e-09
1.7086e-08
3.43743e-09
1.62119e-08
2.94016e-09
1.53856e-08
2.77457e-09
1.46615e-08
2.43803e-09
1.4016e-08
2.1652e-09
1.33974e-08
2.07728e-09
1.2865e-08
1.78333e-09
1.23684e-08
1.66396e-09
1.18924e-08
1.59571e-09
1.14745e-08
1.39969e-09
1.10752e-08
1.33728e-09
1.07003e-08
1.25081e-09
1.03629e-08
1.13445e-09
1.00347e-08
1.09186e-09
9.73279e-09
1.01606e-09
9.4505e-09
9.44866e-10
9.17764e-09
9.15669e-10
8.929e-09
8.28313e-10
8.69033e-09
7.96409e-10
8.46621e-09
7.50145e-10
8.25777e-09
6.84491e-10
8.05902e-09
6.72879e-10
7.8769e-09
5.89557e-10
7.7045e-09
5.90659e-10
7.54495e-09
5.16014e-10
7.3967e-09
5.16194e-10
7.25853e-09
4.60238e-10
7.1298e-09
4.37327e-10
7.00683e-09
3.95065e-10
6.90651e-09
3.48714e-10
6.82522e-09
2.60964e-10
6.76863e-09
2.01133e-10
6.71662e-09
1.68573e-10
6.68313e-09
1.24934e-10
6.66888e-09
3.81531e-11
6.66056e-09
3.76682e-11
6.65946e-09
-7.14495e-13
6.66306e-09
-1.35081e-12
6.67117e-09
-3.55498e-11
6.68374e-09
-3.63265e-11
6.69832e-09
-5.47251e-11
6.71661e-09
-5.5506e-11
6.73709e-09
-7.54174e-11
6.75923e-09
-7.1236e-11
6.78365e-09
-8.68536e-11
6.8085e-09
-8.02491e-11
6.83518e-09
-9.47444e-11
6.8631e-09
-9.29645e-11
6.89152e-09
-9.84545e-11
6.92134e-09
-1.00089e-10
6.95124e-09
-1.03119e-10
6.98238e-09
-1.03695e-10
7.01437e-09
-1.11865e-10
7.04721e-09
-1.1169e-10
7.08163e-09
-1.2013e-10
7.11697e-09
-1.18733e-10
7.15389e-09
-1.27185e-10
7.19169e-09
-1.26189e-10
7.23056e-09
-1.33643e-10
7.27001e-09
-1.32633e-10
7.30937e-09
-1.34128e-10
7.34814e-09
-1.30781e-10
7.38552e-09
-1.27477e-10
7.42075e-09
-1.19661e-10
7.45317e-09
-1.11223e-10
7.48162e-09
-9.68727e-11
7.50642e-09
-8.75726e-11
7.52429e-09
-6.15692e-11
7.54069e-09
-6.17219e-11
7.54769e-09
-2.47396e-11
7.56285e-09
-5.59927e-11
7.56882e-09
-2.32259e-11
7.61339e-09
-1.55925e-10
7.65248e-09
-1.45367e-10
7.85312e-09
-6.86296e-10
8.05229e-09
-6.87107e-10
9.17221e-09
-3.87518e-09
8.81192e-09
1.23553e-09
-6.87243e-07
1.12233e-07
1.24019e-07
5.6293e-08
-1.38436e-07
1.25645e-07
-5.62887e-09
1.52633e-07
-1.06093e-07
1.69293e-07
-6.39367e-08
1.51929e-07
7.14797e-08
1.18375e-07
1.31715e-07
1.06673e-07
4.16776e-08
9.65071e-08
3.78003e-08
8.41946e-08
4.65761e-08
7.47485e-08
3.49274e-08
6.57943e-08
3.33617e-08
5.86956e-08
2.6167e-08
5.2162e-08
2.41302e-08
4.71014e-08
1.85869e-08
4.24865e-08
1.69476e-08
3.866e-08
1.40184e-08
3.54161e-08
1.18583e-08
3.24578e-08
1.0813e-08
3.00928e-08
8.62059e-09
2.79546e-08
7.79152e-09
2.60276e-08
7.01833e-09
2.44402e-08
5.76547e-09
2.2967e-08
5.35427e-09
2.16596e-08
4.74481e-09
2.054e-08
4.05967e-09
1.94824e-08
3.83207e-09
1.85551e-08
3.36492e-09
1.77278e-08
2.99219e-09
1.69355e-08
2.86928e-09
1.62532e-08
2.46537e-09
1.56167e-08
2.30024e-09
1.5007e-08
2.20498e-09
1.44712e-08
1.93527e-09
1.39596e-08
1.84848e-09
1.34794e-08
1.73073e-09
1.30469e-08
1.56648e-09
1.26266e-08
1.51146e-09
1.224e-08
1.40251e-09
1.18785e-08
1.306e-09
1.15293e-08
1.26481e-09
1.12111e-08
1.14568e-09
1.09058e-08
1.10144e-09
1.06192e-08
1.03624e-09
1.03528e-08
9.50089e-10
1.00989e-08
9.26424e-10
9.86639e-09
8.2071e-10
9.64641e-09
8.10954e-10
9.44303e-09
7.18104e-10
9.25418e-09
7.05652e-10
9.07838e-09
6.35238e-10
8.91484e-09
6.00812e-10
8.7589e-09
5.49364e-10
8.63202e-09
4.75139e-10
8.52905e-09
3.62971e-10
8.45714e-09
2.7371e-10
8.39132e-09
2.33952e-10
8.34876e-09
1.68058e-10
8.33039e-09
5.60057e-11
8.31968e-09
4.89943e-11
8.31816e-09
7.6368e-13
8.32268e-09
-5.11102e-12
8.33296e-09
-4.62477e-11
8.34891e-09
-5.18636e-11
8.36749e-09
-7.35457e-11
8.39076e-09
-7.82733e-11
8.41686e-09
-1.0185e-10
8.44507e-09
-9.92011e-11
8.47618e-09
-1.18143e-10
8.50789e-09
-1.11612e-10
8.54189e-09
-1.29024e-10
8.57746e-09
-1.28444e-10
8.61368e-09
-1.3482e-10
8.65167e-09
-1.38006e-10
8.68976e-09
-1.41255e-10
8.7294e-09
-1.43051e-10
8.77012e-09
-1.52861e-10
8.81192e-09
-1.53568e-10
8.85571e-09
-1.64096e-10
8.90068e-09
-1.63535e-10
8.94764e-09
-1.74166e-10
8.99575e-09
-1.74138e-10
9.04522e-09
-1.83164e-10
9.09543e-09
-1.82701e-10
9.14553e-09
-1.84209e-10
9.19485e-09
-1.80006e-10
9.24236e-09
-1.75019e-10
9.28709e-09
-1.64318e-10
9.32817e-09
-1.52296e-10
9.36411e-09
-1.32678e-10
9.39528e-09
-1.18934e-10
9.41757e-09
-8.37946e-11
9.43783e-09
-8.21822e-11
9.44611e-09
-3.295e-11
9.46457e-09
-7.46475e-11
9.47152e-09
-3.0161e-11
9.52728e-09
-2.11747e-10
9.57656e-09
-1.95179e-10
9.82979e-09
-9.3928e-10
1.00816e-08
-9.39085e-10
1.14895e-08
-5.28279e-09
1.10616e-08
1.6635e-09
-7.95741e-07
1.19559e-07
1.53924e-07
7.29972e-08
-1.70627e-07
1.56099e-07
-7.80627e-09
1.88638e-07
-1.38632e-07
2.09057e-07
-8.43569e-08
1.88681e-07
9.18542e-08
1.48168e-07
1.72225e-07
1.33334e-07
5.65099e-08
1.20645e-07
5.04874e-08
1.05466e-07
6.1754e-08
9.36613e-08
4.67302e-08
8.25205e-08
4.45004e-08
7.36324e-08
3.50535e-08
6.54607e-08
3.23002e-08
5.91096e-08
2.49372e-08
5.33185e-08
2.27366e-08
4.8509e-08
1.88264e-08
4.44272e-08
1.59382e-08
4.07041e-08
1.45345e-08
3.77232e-08
1.15998e-08
3.50273e-08
1.04861e-08
3.25975e-08
9.44612e-09
3.05924e-08
7.76906e-09
2.87324e-08
7.21251e-09
2.70813e-08
6.39403e-09
2.56653e-08
5.47442e-09
2.43286e-08
5.16682e-09
2.31561e-08
4.53669e-09
2.21091e-08
4.03758e-09
2.11072e-08
3.86947e-09
2.02436e-08
3.32706e-09
1.9438e-08
3.10418e-09
1.86669e-08
2.97413e-09
1.79887e-08
2.61193e-09
1.73414e-08
2.49408e-09
1.67341e-08
2.33597e-09
1.61867e-08
2.11319e-09
1.56553e-08
2.04049e-09
1.51664e-08
1.89044e-09
1.47093e-08
1.76171e-09
1.42682e-08
1.70487e-09
1.38662e-08
1.54537e-09
1.34807e-08
1.4847e-09
1.31191e-08
1.39629e-09
1.2783e-08
1.28335e-09
1.2463e-08
1.24535e-09
1.217e-08
1.11008e-09
1.18932e-08
1.08745e-09
1.16374e-08
9.70897e-10
1.14001e-08
9.438e-10
1.11796e-08
8.5389e-10
1.09748e-08
8.05703e-10
1.07798e-08
7.41048e-10
1.06217e-08
6.32643e-10
1.04931e-08
4.89711e-10
1.04031e-08
3.63931e-10
1.03211e-08
3.15476e-10
1.02678e-08
2.22661e-10
1.02445e-08
7.87391e-11
1.02309e-08
6.36979e-11
1.02289e-08
3.07392e-12
1.02346e-08
-9.01201e-12
1.02475e-08
-5.98808e-11
1.02675e-08
-7.11875e-11
1.02909e-08
-9.72387e-11
1.03202e-08
-1.06644e-10
1.0353e-08
-1.35316e-10
1.03886e-08
-1.34435e-10
1.04277e-08
-1.57592e-10
1.04676e-08
-1.51106e-10
1.05104e-08
-1.72366e-10
1.05552e-08
-1.73192e-10
1.06008e-08
-1.80533e-10
1.06485e-08
-1.85773e-10
1.06964e-08
-1.89333e-10
1.07463e-08
-1.92733e-10
1.07974e-08
-2.04467e-10
1.08499e-08
-2.06343e-10
1.09049e-08
-2.19446e-10
1.09614e-08
-2.2007e-10
1.10204e-08
-2.3324e-10
1.10808e-08
-2.34379e-10
1.1143e-08
-2.45436e-10
1.12061e-08
-2.45708e-10
1.1269e-08
-2.47135e-10
1.13309e-08
-2.419e-10
1.13905e-08
-2.34675e-10
1.14465e-08
-2.2043e-10
1.14978e-08
-2.0372e-10
1.15425e-08
-1.77479e-10
1.15811e-08
-1.57886e-10
1.16084e-08
-1.11251e-10
1.16329e-08
-1.07318e-10
1.16424e-08
-4.25928e-11
1.16644e-08
-9.70726e-11
1.16723e-08
-3.81715e-11
1.1741e-08
-2.80587e-10
1.18024e-08
-2.57825e-10
1.21177e-08
-1.25443e-09
1.24321e-08
-1.25354e-09
1.41768e-08
-7.0272e-09
1.36846e-08
2.15582e-09
-9.09224e-07
1.27167e-07
1.88828e-07
9.19751e-08
-2.07808e-07
1.91714e-07
-1.0693e-08
2.30398e-07
-1.77316e-07
2.55117e-07
-1.09076e-07
2.31632e-07
1.15339e-07
1.83409e-07
2.20447e-07
1.64848e-07
7.50721e-08
1.49182e-07
6.61535e-08
1.30692e-07
8.0244e-08
1.16106e-07
6.13163e-08
1.02401e-07
5.82064e-08
9.13933e-08
4.60611e-08
8.12833e-08
4.24104e-08
7.33972e-08
3.28233e-08
6.62066e-08
2.99269e-08
6.02247e-08
2.48078e-08
5.51416e-08
2.10215e-08
5.05039e-08
1.91723e-08
4.6785e-08
1.53188e-08
4.34203e-08
1.38509e-08
4.03874e-08
1.24791e-08
3.78803e-08
1.02763e-08
3.55553e-08
9.53753e-09
3.34908e-08
8.45887e-09
3.17177e-08
7.24741e-09
3.0045e-08
6.83957e-09
2.8577e-08
6.00413e-09
2.7265e-08
5.34941e-09
2.60106e-08
5.1238e-09
2.49282e-08
4.4093e-09
2.39184e-08
4.11384e-09
2.29529e-08
3.93945e-09
2.21028e-08
3.46196e-09
2.12918e-08
3.30463e-09
2.05313e-08
3.09641e-09
1.98453e-08
2.79846e-09
1.918e-08
2.70522e-09
1.85681e-08
2.50197e-09
1.79959e-08
2.3336e-09
1.74442e-08
2.2566e-09
1.69414e-08
2.04747e-09
1.64596e-08
1.96643e-09
1.6008e-08
1.84743e-09
1.55884e-08
1.70241e-09
1.51892e-08
1.64388e-09
1.4824e-08
1.47423e-09
1.44792e-08
1.43228e-09
1.4161e-08
1.2881e-09
1.38662e-08
1.23881e-09
1.35926e-08
1.1267e-09
1.33389e-08
1.05926e-09
1.3098e-08
9.80365e-10
1.29032e-08
8.26475e-10
1.27447e-08
6.47615e-10
1.26332e-08
4.75829e-10
1.25322e-08
4.1626e-10
1.24663e-08
2.88861e-10
1.24371e-08
1.07595e-10
1.24202e-08
8.09945e-11
1.24177e-08
5.72946e-12
1.24248e-08
-1.54271e-11
1.24409e-08
-7.62735e-11
1.24658e-08
-9.58413e-11
1.24951e-08
-1.2659e-10
1.25315e-08
-1.42684e-10
1.25725e-08
-1.76498e-10
1.26168e-08
-1.78601e-10
1.26656e-08
-2.0643e-10
1.27154e-08
-2.00637e-10
1.27687e-08
-2.25916e-10
1.28245e-08
-2.28926e-10
1.28813e-08
-2.37438e-10
1.29407e-08
-2.45187e-10
1.30004e-08
-2.48988e-10
1.30623e-08
-2.54409e-10
1.3126e-08
-2.68381e-10
1.31913e-08
-2.71793e-10
1.32596e-08
-2.87911e-10
1.33299e-08
-2.90168e-10
1.34032e-08
-3.06521e-10
1.34783e-08
-3.09443e-10
1.35556e-08
-3.22705e-10
1.3634e-08
-3.24025e-10
1.37122e-08
-3.25291e-10
1.37891e-08
-3.18723e-10
1.3863e-08
-3.08603e-10
1.39324e-08
-2.89704e-10
1.39957e-08
-2.67028e-10
1.40507e-08
-2.32296e-10
1.40978e-08
-2.05171e-10
1.41307e-08
-1.44151e-10
1.41599e-08
-1.36678e-10
1.41705e-08
-5.31116e-11
1.41963e-08
-1.23038e-10
1.42048e-08
-4.66829e-11
1.42885e-08
-3.64371e-10
1.43642e-08
-3.33868e-10
1.47525e-08
-1.64262e-09
1.5141e-08
-1.64225e-09
1.72785e-08
-9.16441e-09
1.67298e-08
2.70456e-09
-1.02754e-06
1.35046e-07
2.29404e-07
1.1314e-07
-2.50568e-07
2.33209e-07
-1.45002e-08
2.7864e-07
-2.22749e-07
3.08251e-07
-1.38689e-07
2.81639e-07
1.41948e-07
2.24961e-07
2.77123e-07
2.01995e-07
9.80358e-08
1.82828e-07
8.53187e-08
1.60533e-07
1.02537e-07
1.4268e-07
7.91679e-08
1.25975e-07
7.49085e-08
1.12466e-07
5.95688e-08
1.00069e-07
5.48058e-08
9.03615e-08
4.25295e-08
8.15097e-08
3.87763e-08
7.41323e-08
3.21831e-08
6.78552e-08
2.72965e-08
6.21263e-08
2.48994e-08
5.75246e-08
1.99185e-08
5.33594e-08
1.80146e-08
4.96044e-08
1.62319e-08
4.64945e-08
1.33846e-08
4.36117e-08
1.24183e-08
4.10507e-08
1.10179e-08
3.8848e-08
9.44857e-09
3.67714e-08
8.91412e-09
3.4948e-08
7.82648e-09
3.33167e-08
6.97881e-09
3.17583e-08
6.68028e-09
3.04123e-08
5.75303e-09
2.91566e-08
5.36755e-09
2.79569e-08
5.13692e-09
2.68996e-08
4.51747e-09
2.58916e-08
4.31061e-09
2.49467e-08
4.03911e-09
2.40938e-08
3.65031e-09
2.32674e-08
3.52893e-09
2.25074e-08
3.26056e-09
2.17969e-08
3.04254e-09
2.11125e-08
2.93979e-09
2.04886e-08
2.66846e-09
1.98913e-08
2.56119e-09
1.9332e-08
2.40497e-09
1.88123e-08
2.21908e-09
1.83185e-08
2.13599e-09
1.78671e-08
1.92192e-09
1.74413e-08
1.85722e-09
1.70489e-08
1.67746e-09
1.66858e-08
1.60246e-09
1.63493e-08
1.46093e-09
1.60381e-08
1.37052e-09
1.57433e-08
1.27175e-09
1.55057e-08
1.06268e-09
1.53119e-08
8.39659e-10
1.51754e-08
6.1228e-10
1.50522e-08
5.39059e-10
1.49716e-08
3.70705e-10
1.49354e-08
1.43369e-10
1.49146e-08
1.02875e-10
1.49115e-08
9.42067e-12
1.49204e-08
-2.23777e-11
1.49404e-08
-9.69256e-11
1.49712e-08
-1.26031e-10
1.50075e-08
-1.63036e-10
1.50526e-08
-1.86857e-10
1.51033e-08
-2.27792e-10
1.51582e-08
-2.33217e-10
1.52185e-08
-2.66966e-10
1.52802e-08
-2.61875e-10
1.53461e-08
-2.92422e-10
1.5415e-08
-2.97881e-10
1.54852e-08
-3.07729e-10
1.55585e-08
-3.18617e-10
1.56322e-08
-3.2284e-10
1.57087e-08
-3.30738e-10
1.57872e-08