/*--------------------------------*- C++ -*----------------------------------*\
| =========                 |                                                 |
| \\      /  F ield         | OpenFOAM: The Open Source CFD Toolbox           |
|  \\    /   O peration     | Version:  5.x                                   |
|   \\  /    A nd           | Web:      www.OpenFOAM.org                      |
|    \\/     M anipulation  |                                                 |
\*---------------------------------------------------------------------------*/
FoamFile
{
    version     2.0;
    format      ascii;
    class       volVectorField;
    location    "500";
    object      U;
}
// * * * * * * * * * * * * * * * * * * * * * * * * * * * * * * * * * * * * * //

dimensions      [0 1 -1 0 0 0 0];

internalField   nonuniform List<vector> 
107912
(
(6.81309e-06 0.000179939 -3.10382e-28)
(2.49366e-06 0.000125167 2.96345e-28)
(7.17543e-06 0.000178884 2.59174e-25)
(2.18857e-05 0.000200456 -2.07948e-25)
(6.52724e-05 0.00021488 -3.33292e-23)
(7.09188e-05 0.000133467 5.60198e-23)
(6.21904e-05 0.000109077 3.54616e-23)
(7.15753e-05 0.000105891 7.14929e-28)
(6.40226e-05 8.19393e-05 -5.72187e-27)
(6.39284e-05 7.2504e-05 -5.47893e-27)
(5.82136e-05 5.92109e-05 -5.23562e-27)
(5.52368e-05 5.11267e-05 4.23299e-23)
(5.08172e-05 4.30635e-05 7.77417e-23)
(4.74429e-05 3.71418e-05 9.80644e-27)
(4.41591e-05 3.21227e-05 -6.95014e-23)
(4.1111e-05 2.78618e-05 6.64501e-23)
(3.85264e-05 2.44771e-05 7.71898e-27)
(3.61169e-05 2.15168e-05 0)
(3.39459e-05 1.90255e-05 -1.07896e-22)
(3.21756e-05 1.70245e-05 -4.81363e-23)
(3.04004e-05 1.51602e-05 0)
(2.89033e-05 1.36294e-05 0)
(2.76127e-05 1.23168e-05 -3.60856e-23)
(2.63324e-05 1.10932e-05 3.28447e-23)
(2.52589e-05 1.00783e-05 2.96054e-23)
(2.42964e-05 9.1641e-06 5.11687e-23)
(2.33455e-05 8.31407e-06 -2.30116e-23)
(2.2556e-05 7.59839e-06 1.97851e-23)
(2.17968e-05 6.92032e-06 -1.64803e-23)
(2.10762e-05 6.30358e-06 -1.42522e-23)
(2.04719e-05 5.76861e-06 1.13424e-23)
(1.98547e-05 5.24444e-06 0)
(1.92847e-05 4.77314e-06 -6.50073e-24)
(1.87852e-05 4.34612e-06 3.75742e-28)
(1.82692e-05 3.92998e-06 -3.6787e-28)
(1.78079e-05 3.55824e-06 -2.7789e-27)
(1.73793e-05 3.2054e-06 -1.96545e-24)
(1.69427e-05 2.86729e-06 2.45684e-27)
(1.65561e-05 2.56087e-06 7.77122e-28)
(1.61717e-05 2.26202e-06 7.02193e-24)
(1.58023e-05 1.98319e-06 -9.50088e-28)
(1.54653e-05 1.72175e-06 0)
(1.51246e-05 1.46797e-06 0)
(1.48119e-05 1.23219e-06 6.13772e-24)
(1.45089e-05 1.00471e-06 0)
(1.42196e-05 7.88117e-07 1.42646e-23)
(1.39492e-05 5.83184e-07 3.72231e-24)
(1.36875e-05 3.83548e-07 3.92401e-24)
(1.34418e-05 1.95051e-07 0)
(1.32081e-05 1.14704e-08 0)
(1.29844e-05 -1.65121e-07 2.13403e-24)
(1.27686e-05 -3.35541e-07 2.10938e-27)
(1.25788e-05 -4.94225e-07 5.43031e-24)
(1.23854e-05 -6.14254e-07 5.54682e-24)
(1.22647e-05 -7.12796e-07 1.13413e-23)
(1.21519e-05 -8.2142e-07 -1.15559e-23)
(1.20376e-05 -9.08434e-07 2.34435e-23)
(1.1978e-05 -9.85066e-07 1.46285e-27)
(1.19266e-05 -1.06695e-06 -1.20271e-23)
(1.1884e-05 -1.14575e-06 1.21457e-23)
(1.18534e-05 -1.22537e-06 0)
(1.1823e-05 -1.30305e-06 2.47287e-23)
(1.18036e-05 -1.37811e-06 -1.51497e-27)
(1.17852e-05 -1.45541e-06 -2.50626e-23)
(1.1769e-05 -1.52819e-06 -1.53545e-27)
(1.17596e-05 -1.60159e-06 2.53077e-23)
(1.17482e-05 -1.67475e-06 7.74904e-28)
(1.17411e-05 -1.74508e-06 0)
(1.17347e-05 -1.81764e-06 2.55937e-23)
(1.17263e-05 -1.88721e-06 0)
(1.1723e-05 -1.95576e-06 2.57375e-23)
(1.17168e-05 -2.02609e-06 5.17195e-23)
(1.17124e-05 -2.09239e-06 0)
(1.17088e-05 -2.16183e-06 -7.91167e-28)
(1.17027e-05 -2.2283e-06 7.97319e-28)
(1.17008e-05 -2.29486e-06 7.9364e-28)
(1.16962e-05 -2.36285e-06 -5.23419e-23)
(1.1695e-05 -2.4277e-06 1.04775e-22)
(1.16939e-05 -2.49627e-06 0)
(1.16938e-05 -2.56149e-06 0)
(1.16955e-05 -2.62982e-06 -5.21689e-23)
(1.16962e-05 -2.69657e-06 5.2941e-23)
(1.16988e-05 -2.76371e-06 -5.21145e-23)
(1.16992e-05 -2.83204e-06 -8.06791e-28)
(1.16992e-05 -2.89837e-06 3.98554e-28)
(1.16958e-05 -2.96697e-06 -5.2876e-23)
(1.16896e-05 -3.03219e-06 -7.93197e-28)
(1.16784e-05 -3.09952e-06 -2.52587e-31)
(1.16624e-05 -3.16316e-06 3.99049e-28)
(1.16392e-05 -3.22721e-06 5.35104e-23)
(1.16113e-05 -3.28996e-06 0)
(1.15688e-05 -3.34814e-06 4.07916e-28)
(1.15367e-05 -3.41217e-06 -6.0896e-28)
(1.14667e-05 -3.46195e-06 2.02521e-28)
(1.14619e-05 -3.53367e-06 2.75295e-28)
(1.13627e-05 -3.57792e-06 5.38541e-23)
(1.14758e-05 -3.68816e-06 -5.35091e-23)
(1.13525e-05 -3.72451e-06 1.07183e-22)
(1.19429e-05 -3.9997e-06 2.04653e-28)
(1.18001e-05 -4.03484e-06 -5.33398e-23)
(1.51548e-05 -5.28767e-06 1.1663e-27)
(1.28969e-05 -1.29351e-05 -9.94027e-23)
(1.86717e-05 0.000547638 0)
(7.5784e-06 0.000385371 0)
(2.28304e-05 0.000545321 -1.1212e-26)
(6.71728e-05 0.000610429 6.80273e-25)
(0.000197985 0.000653924 2.66296e-23)
(0.000216668 0.000410939 0)
(0.000190839 0.000335668 -8.56302e-27)
(0.000219151 0.00032467 -7.76779e-23)
(0.000196563 0.000252394 -7.07197e-23)
(0.000196223 0.000222999 -1.74567e-26)
(0.000178941 0.000182493 1.7156e-26)
(0.000169817 0.000157531 -6.74659e-23)
(0.000156345 0.00013281 -1.23876e-22)
(0.000146001 0.00011456 6.14875e-23)
(0.00013594 9.91139e-05 -1.3753e-26)
(0.000126591 8.59899e-05 0)
(0.00011865 7.55523e-05 9.85573e-23)
(0.000111247 6.64267e-05 -8.83027e-23)
(0.000104573 5.87439e-05 8.60005e-23)
(9.91215e-05 5.25654e-05 7.67571e-23)
(9.36625e-05 4.68171e-05 -6.96432e-23)
(8.90507e-05 4.20896e-05 -7.70956e-27)
(8.50726e-05 3.80365e-05 -1.68954e-27)
(8.11307e-05 3.42615e-05 -6.65126e-27)
(7.78199e-05 3.11259e-05 -4.72031e-23)
(7.48509e-05 2.83026e-05 -8.15827e-23)
(7.19203e-05 2.56793e-05 -4.72496e-27)
(6.94826e-05 2.34676e-05 0)
(6.71401e-05 2.13742e-05 2.97603e-27)
(6.49167e-05 1.94699e-05 2.27219e-23)
(6.30493e-05 1.7817e-05 1.20547e-26)
(6.11446e-05 1.61993e-05 1.39493e-23)
(5.93842e-05 1.47438e-05 2.07401e-23)
(5.78399e-05 1.3425e-05 0)
(5.62464e-05 1.21407e-05 0)
(5.48198e-05 1.09927e-05 -1.01122e-25)
(5.34945e-05 9.90335e-06 -3.73159e-28)
(5.21449e-05 8.85993e-06 6.10907e-24)
(5.09483e-05 7.91376e-06 -1.23818e-27)
(4.9759e-05 6.99155e-06 1.1969e-27)
(4.86155e-05 6.13096e-06 0)
(4.75716e-05 5.32407e-06 7.84021e-24)
(4.65165e-05 4.54115e-06 2.86103e-28)
(4.55473e-05 3.81355e-06 -2.25008e-27)
(4.46077e-05 3.11199e-06 0)
(4.37107e-05 2.44387e-06 -1.13691e-23)
(4.28718e-05 1.81203e-06 -5.93958e-24)
(4.20595e-05 1.19662e-06 1.47567e-27)
(4.12969e-05 6.15796e-07 3.22914e-24)
(4.05714e-05 5.02276e-08 0)
(3.98771e-05 -4.93503e-07 -2.87896e-28)
(3.92073e-05 -1.01812e-06 -6.89612e-24)
(3.86186e-05 -1.50608e-06 -1.73191e-23)
(3.80207e-05 -1.87568e-06 -8.84674e-24)
(3.76452e-05 -2.17913e-06 -1.80863e-23)
(3.72948e-05 -2.51308e-06 3.68542e-23)
(3.69408e-05 -2.78084e-06 -1.86884e-23)
(3.67544e-05 -3.01671e-06 0)
(3.65936e-05 -3.26831e-06 -1.91725e-23)
(3.64605e-05 -3.51045e-06 1.9364e-23)
(3.63644e-05 -3.75495e-06 -2.40012e-27)
(3.62694e-05 -3.99357e-06 -3.94232e-23)
(3.62084e-05 -4.22402e-06 -2.41568e-27)
(3.61509e-05 -4.46132e-06 0)
(3.61002e-05 -4.68473e-06 -4.02304e-23)
(3.60705e-05 -4.91005e-06 -4.03555e-23)
(3.6035e-05 -5.13454e-06 0)
(3.60125e-05 -5.35041e-06 4.07644e-23)
(3.59929e-05 -5.57306e-06 4.08108e-23)
(3.59669e-05 -5.78658e-06 0)
(3.59567e-05 -5.99694e-06 4.10415e-23)
(3.59377e-05 -6.21276e-06 -1.4372e-27)
(3.59245e-05 -6.41621e-06 4.1423e-23)
(3.59133e-05 -6.6293e-06 -1.25912e-27)
(3.5895e-05 -6.83327e-06 0)
(3.58892e-05 -7.03754e-06 -8.28813e-23)
(3.58752e-05 -7.24621e-06 8.34625e-23)
(3.58714e-05 -7.44521e-06 -1.67072e-22)
(3.58679e-05 -7.65566e-06 0)
(3.58674e-05 -7.85579e-06 8.41382e-23)
(3.58729e-05 -8.06549e-06 -1.32239e-27)
(3.5875e-05 -8.27035e-06 8.94498e-29)
(3.58835e-05 -8.47641e-06 8.31026e-23)
(3.58851e-05 -8.6861e-06 -8.43109e-23)
(3.5886e-05 -8.8897e-06 8.32868e-23)
(3.58764e-05 -9.10028e-06 -6.43319e-28)
(3.58586e-05 -9.30052e-06 -1.66795e-22)
(3.58256e-05 -9.50718e-06 -8.45927e-23)
(3.57777e-05 -9.70257e-06 0)
(3.57078e-05 -9.89915e-06 -6.51588e-28)
(3.56232e-05 -1.00917e-05 1.27291e-27)
(3.54938e-05 -1.02703e-05 8.51434e-23)
(3.53954e-05 -1.04666e-05 6.48396e-28)
(3.51809e-05 -1.06194e-05 -6.45883e-28)
(3.51644e-05 -1.08391e-05 8.6111e-23)
(3.48595e-05 -1.09752e-05 -8.58765e-23)
(3.52022e-05 -1.13128e-05 2.34797e-28)
(3.48218e-05 -1.1426e-05 -8.5458e-23)
(3.66227e-05 -1.22689e-05 -1.63706e-28)
(3.61797e-05 -1.23877e-05 8.50566e-23)
(4.63846e-05 -1.61875e-05 3.43519e-27)
(3.37452e-05 -3.99186e-05 2.37539e-22)
(2.79557e-05 0.000937187 -3.12703e-25)
(1.304e-05 0.000665676 -4.18717e-24)
(4.08622e-05 0.000934052 -4.29346e-25)
(0.000116067 0.00104495 -3.75605e-25)
(0.000337392 0.00111896 2.8463e-23)
(0.00037179 0.000710388 1.9641e-26)
(0.000328798 0.000579789 -9.23847e-27)
(0.000376668 0.000559155 1.67041e-22)
(0.000338817 0.00043633 1.52083e-22)
(0.000338092 0.00038505 1.81987e-26)
(0.000308756 0.000315621 0)
(0.000293038 0.000272375 1.75027e-26)
(0.000269976 0.000229786 2.66516e-22)
(0.000252166 0.000198211 0)
(0.000234853 0.000171518 -1.42826e-26)
(0.000218747 0.000148822 1.41765e-26)
(0.000205045 0.000130755 -1.0603e-22)
(0.000192268 0.000114964 9.50002e-23)
(0.000180746 0.000101665 0)
(0.000171316 9.09611e-05 -8.26005e-23)
(0.000161886 8.10134e-05 7.49467e-23)
(0.000153906 7.28224e-05 7.02999e-23)
(0.000147019 6.58015e-05 1.23832e-22)
(0.000140201 5.92668e-05 1.37594e-26)
(0.000134465 5.38332e-05 -1.24157e-26)
(0.00012932 4.89438e-05 4.39134e-23)
(0.000124247 4.44024e-05 0)
(0.000120019 4.05706e-05 3.89552e-27)
(0.000115959 3.69472e-05 -3.70411e-27)
(0.000112105 3.36506e-05 -2.74513e-27)
(0.000108864 3.07886e-05 1.57794e-26)
(0.000105562 2.799e-05 -3.00349e-23)
(0.000102508 2.54712e-05 -1.11644e-23)
(9.98268e-05 2.31893e-05 -1.088e-27)
(9.70632e-05 2.09684e-05 2.04184e-28)
(9.45864e-05 1.89826e-05 -2.00148e-28)
(9.22849e-05 1.70993e-05 0)
(8.99431e-05 1.52959e-05 -9.92136e-28)
(8.78641e-05 1.36604e-05 2.28992e-27)
(8.5799e-05 1.20673e-05 -1.20312e-23)
(8.3813e-05 1.05807e-05 -1.9706e-27)
(8.19987e-05 9.18722e-06 -8.43346e-24)
(8.01661e-05 7.83572e-06 0)
(7.84813e-05 6.57984e-06 0)
(7.68484e-05 5.36944e-06 1.13152e-23)
(7.5289e-05 4.21708e-06 -2.85644e-27)
(7.38304e-05 3.12764e-06 -3.23e-27)
(7.24183e-05 2.067e-06 3.17581e-27)
(7.10926e-05 1.06626e-06 -3.47876e-24)
(6.98312e-05 9.22098e-08 3.39994e-27)
(6.86247e-05 -8.43848e-07 -3.66372e-24)
(6.74615e-05 -1.7467e-06 7.42552e-24)
(6.64395e-05 -2.58599e-06 9.31602e-24)
(6.54044e-05 -3.22213e-06 -9.51543e-24)
(6.47511e-05 -3.74444e-06 -1.94656e-23)
(6.41426e-05 -4.31858e-06 -1.98326e-23)
(6.35289e-05 -4.7793e-06 0)
(6.32033e-05 -5.18509e-06 -2.04325e-23)
(6.29229e-05 -5.61758e-06 2.06366e-23)
(6.26908e-05 -6.03383e-06 -2.08454e-23)
(6.25229e-05 -6.45408e-06 2.10718e-23)
(6.23575e-05 -6.86428e-06 4.24367e-23)
(6.22511e-05 -7.26041e-06 -5.21813e-27)
(6.2151e-05 -7.6683e-06 -4.30122e-23)
(6.2063e-05 -8.05238e-06 8.65976e-23)
(6.20113e-05 -8.43973e-06 4.34325e-23)
(6.19501e-05 -8.82568e-06 0)
(6.19114e-05 -9.19684e-06 -4.38726e-23)
(6.18778e-05 -9.57964e-06 -8.78449e-23)
(6.18336e-05 -9.94683e-06 0)
(6.18167e-05 -1.03086e-05 -4.41711e-23)
(6.17846e-05 -1.06798e-05 -4.43818e-23)
(6.17627e-05 -1.10297e-05 2.55299e-27)
(6.17443e-05 -1.13962e-05 -1.35778e-27)
(6.17138e-05 -1.17471e-05 2.73908e-27)
(6.17046e-05 -1.20984e-05 8.92003e-23)
(6.16812e-05 -1.24574e-05 -8.983e-23)
(6.16753e-05 -1.27997e-05 8.99086e-23)
(6.16698e-05 -1.31617e-05 8.97518e-23)
(6.16696e-05 -1.35059e-05 -9.05547e-23)
(6.16797e-05 -1.38666e-05 8.95301e-23)
(6.16842e-05 -1.42191e-05 -9.08537e-23)
(6.17e-05 -1.45737e-05 -1.36498e-27)
(6.17041e-05 -1.49345e-05 9.07408e-23)
(6.17073e-05 -1.5285e-05 -8.96374e-23)
(6.16928e-05 -1.56475e-05 -1.38486e-27)
(6.16642e-05 -1.59923e-05 8.97597e-23)
(6.16094e-05 -1.63481e-05 9.10423e-23)
(6.15289e-05 -1.66845e-05 6.84859e-28)
(6.14103e-05 -1.70229e-05 0)
(6.12661e-05 -1.73543e-05 8.97824e-23)
(6.10442e-05 -1.76616e-05 -1.00028e-27)
(6.08751e-05 -1.7999e-05 0)
(6.05058e-05 -1.8262e-05 0)
(6.04756e-05 -1.86389e-05 0)
(5.99497e-05 -1.88735e-05 9.24262e-23)
(6.05347e-05 -1.94526e-05 9.18343e-23)
(5.98783e-05 -1.96506e-05 0)
(6.2967e-05 -2.10973e-05 0)
(6.21993e-05 -2.13228e-05 -9.15395e-23)
(7.96853e-05 -2.77915e-05 -9.14377e-23)
(5.64681e-05 -6.77179e-05 2.56244e-22)
(3.6635e-05 0.00134912 3.39687e-25)
(1.8901e-05 0.000967483 4.499e-24)
(6.15773e-05 0.00134578 -2.67648e-27)
(0.000168823 0.00150477 2.36424e-28)
(0.00048354 0.00161071 0)
(0.000536675 0.00103347 1.02438e-22)
(0.000476642 0.000842793 -6.5235e-23)
(0.00054469 0.000810362 -8.97703e-23)
(0.000491428 0.000634826 -8.17804e-23)
(0.000490168 0.000559537 0)
(0.000448298 0.000459406 0)
(0.000425513 0.000396345 0)
(0.000392297 0.000334592 -1.43364e-22)
(0.000366489 0.000288607 0)
(0.000341411 0.00024978 -1.53668e-26)
(0.000318056 0.000216741 1.52528e-26)
(0.000298149 0.000190414 1.14088e-22)
(0.000279584 0.000167414 1.27718e-26)
(0.000262833 0.000148034 -9.9615e-23)
(0.000249096 0.000132424 0)
(0.000235379 0.000117933 -8.06877e-23)
(0.00022375 0.000105986 -7.56234e-23)
(0.000213704 9.57489e-05 -6.66356e-23)
(0.000203773 8.62276e-05 -6.06838e-23)
(0.000195402 7.83023e-05 6.38843e-27)
(0.000187891 7.11758e-05 -5.72316e-28)
(0.000180492 6.45596e-05 4.25294e-23)
(0.000174314 5.89729e-05 0)
(0.000168384 5.36953e-05 -3.04755e-23)
(0.000162758 4.88936e-05 -3.48431e-27)
(0.000158017 4.47241e-05 -4.19609e-23)
(0.000153194 4.06513e-05 3.23522e-23)
(0.000148732 3.69846e-05 -1.71735e-27)
(0.000144809 3.36638e-05 7.65004e-24)
(0.000140772 3.04341e-05 -9.04614e-28)
(0.00013715 2.75453e-05 2.16757e-28)
(0.000133783 2.48077e-05 0)
(0.00013036 2.21871e-05 -1.06653e-27)
(0.000127318 1.98107e-05 1.03027e-27)
(0.000124299 1.74974e-05 1.0404e-26)
(0.000121395 1.53391e-05 -1.75157e-27)
(0.00011874 1.33168e-05 0)
(0.000116061 1.13564e-05 0)
(0.000113596 9.53522e-06 -2.91621e-27)
(0.000111208 7.78068e-06 -1.21714e-23)
(0.000108928 6.11121e-06 0)
(0.000106794 4.53315e-06 0)
(0.00010473 2.998e-06 3.64667e-27)
(0.000102792 1.54965e-06 2.08299e-28)
(0.000100949 1.4088e-07 -3.65868e-27)
(9.91864e-05 -1.21246e-06 3.9423e-24)
(9.74889e-05 -2.51719e-06 -7.98641e-24)
(9.59984e-05 -3.72964e-06 1.00247e-23)
(9.4493e-05 -4.64896e-06 1.02482e-23)
(9.35381e-05 -5.40417e-06 4.18925e-23)
(9.26509e-05 -6.23298e-06 -2.13479e-23)
(9.17575e-05 -6.89889e-06 5.24078e-27)
(9.12803e-05 -7.48509e-06 2.199e-23)
(9.08701e-05 -8.1096e-06 2.72632e-27)
(9.05308e-05 -8.71049e-06 2.8794e-29)
(9.02853e-05 -9.3173e-06 -2.26782e-23)
(9.00444e-05 -9.90949e-06 0)
(8.9889e-05 -1.04816e-05 4.60149e-23)
(8.97437e-05 -1.10704e-05 6.293e-28)
(8.96163e-05 -1.16252e-05 -5.49398e-28)
(8.95419e-05 -1.21845e-05 0)
(8.94543e-05 -1.2742e-05 -2.87457e-27)
(8.93992e-05 -1.32781e-05 5.76314e-27)
(8.9352e-05 -1.38311e-05 -2.56943e-27)
(8.92899e-05 -1.43616e-05 0)
(8.92671e-05 -1.48844e-05 0)
(8.92227e-05 -1.54206e-05 -4.77655e-23)
(8.91931e-05 -1.59264e-05 -9.59528e-23)
(8.91689e-05 -1.6456e-05 0)
(8.91271e-05 -1.69632e-05 4.83041e-23)
(8.91157e-05 -1.74711e-05 -5.85908e-27)
(8.90841e-05 -1.799e-05 9.66797e-23)
(8.90775e-05 -1.84848e-05 -9.67616e-23)
(8.90716e-05 -1.9008e-05 -9.65961e-23)
(8.90732e-05 -1.95057e-05 9.74588e-23)
(8.90899e-05 -2.00272e-05 9.63578e-23)
(8.90989e-05 -2.05368e-05 1.49222e-27)
(8.91243e-05 -2.10497e-05 0)
(8.91333e-05 -2.15716e-05 0)
(8.91412e-05 -2.20787e-05 0)
(8.91237e-05 -2.26031e-05 0)
(8.90857e-05 -2.3102e-05 1.47433e-27)
(8.90097e-05 -2.36167e-05 -1.4949e-27)
(8.88963e-05 -2.41034e-05 9.66548e-23)
(8.87272e-05 -2.45927e-05 0)
(8.85205e-05 -2.50718e-05 -9.66291e-23)
(8.82005e-05 -2.55158e-05 -9.86275e-23)
(8.79558e-05 -2.60029e-05 7.49285e-28)
(8.7421e-05 -2.63828e-05 7.50141e-28)
(8.73746e-05 -2.69262e-05 -7.598e-28)
(8.66123e-05 -2.72659e-05 3.8007e-28)
(8.74537e-05 -2.81009e-05 -9.88397e-23)
(8.6503e-05 -2.83926e-05 7.56538e-28)
(9.09623e-05 -3.04813e-05 -5.67656e-28)
(8.98479e-05 -3.08419e-05 9.85217e-23)
(0.000115063 -4.01057e-05 -8.98037e-29)
(8.07607e-05 -9.739e-05 -3.67692e-22)
(4.47912e-05 0.00178394 1.25063e-27)
(2.52004e-05 0.00129225 2.41684e-24)
(8.52418e-05 0.00178114 4.51135e-25)
(0.000225689 0.00199052 5.09936e-25)
(0.000636463 0.0021298 -2.0508e-26)
(0.000711786 0.00138187 -1.10113e-22)
(0.00063499 0.00112611 7.00949e-23)
(0.000723795 0.00107936 1.95095e-26)
(0.000655099 0.00084902 -2.24915e-26)
(0.000653128 0.000747396 4.27295e-26)
(0.000598269 0.000614708 -2.13264e-26)
(0.000567909 0.000530171 8.39044e-23)
(0.00052395 0.000447868 -3.71592e-26)
(0.000489571 0.000386299 -7.64892e-23)
(0.000456177 0.000334373 0)
(0.00042504 0.000290154 -3.15208e-26)
(0.000398444 0.000254882 -1.22731e-22)
(0.000373637 0.000224078 2.6143e-26)
(0.000351242 0.000198111 1.07176e-22)
(0.000332834 0.000177178 9.56484e-23)
(0.000314478 0.000157768 8.67968e-23)
(0.00029889 0.000141746 0)
(0.000285408 0.000128021 0)
(0.000272098 0.000115266 1.3063e-22)
(0.000260857 0.000104638 -5.88996e-23)
(0.000250766 9.5088e-05 0)
(0.000240838 8.62268e-05 -9.15591e-23)
(0.000232528 7.87389e-05 -3.93753e-23)
(0.00022456 7.16731e-05 6.56047e-23)
(0.000217001 6.52447e-05 2.8385e-23)
(0.000210618 5.9662e-05 2.25885e-23)
(0.000204136 5.42152e-05 -1.74173e-23)
(0.000198135 4.93102e-05 0)
(0.000192853 4.48698e-05 1.30387e-26)
(0.000187426 4.0555e-05 3.99206e-24)
(0.000182552 3.66945e-05 7.16592e-28)
(0.00017802 3.30394e-05 3.85533e-24)
(0.000173418 2.95419e-05 7.56995e-24)
(0.000169323 2.63708e-05 1.53965e-27)
(0.000165262 2.32865e-05 1.39195e-23)
(0.000161356 2.04093e-05 1.88385e-27)
(0.000157784 1.7715e-05 -9.75739e-24)
(0.000154182 1.51048e-05 -1.10771e-23)
(0.000150867 1.26807e-05 0)
(0.000147656 1.03465e-05 -1.30921e-23)
(0.000144591 8.12699e-06 1.41604e-23)
(0.000141724 6.02936e-06 -3.73988e-27)
(0.000138951 3.99073e-06 7.60119e-27)
(0.000136348 2.06735e-06 4.01988e-24)
(0.000133874 1.98129e-07 0)
(0.000131511 -1.59691e-06 -8.48515e-24)
(0.000129237 -3.32655e-06 1.71896e-23)
(0.000127242 -4.9334e-06 -1.0794e-23)
(0.000125233 -6.1521e-06 5.44215e-27)
(0.000123952 -7.15401e-06 -2.25477e-23)
(0.000122765 -8.25148e-06 2.29694e-23)
(0.000121572 -9.13459e-06 0)
(0.000120931 -9.91141e-06 0)
(0.000120381 -1.07388e-05 0)
(0.000119927 -1.15346e-05 -5.92268e-27)
(0.000119598 -1.23385e-05 1.19123e-26)
(0.000119277 -1.31228e-05 -5.97377e-27)
(0.00011907 -1.38809e-05 -4.95259e-23)
(0.000118878 -1.46609e-05 9.96419e-23)
(0.00011871 -1.53962e-05 -6.3415e-28)
(0.000118613 -1.61373e-05 0)
(0.000118499 -1.68763e-05 0)
(0.000118428 -1.75868e-05 0)
(0.000118369 -1.83199e-05 5.0875e-23)
(0.00011829 -1.90233e-05 0)
(0.000118263 -1.97165e-05 0)
(0.000118209 -2.04276e-05 1.02812e-22)
(0.000118173 -2.10986e-05 5.16328e-23)
(0.000118145 -2.1801e-05 0)
(0.000118094 -2.24739e-05 -1.03968e-22)
(0.000118083 -2.31476e-05 -3.15533e-27)
(0.000118046 -2.3836e-05 -2.21501e-28)
(0.000118041 -2.44925e-05 2.08286e-22)
(0.000118037 -2.51868e-05 1.0396e-22)
(0.000118043 -2.58472e-05 -1.04894e-22)
(0.00011807 -2.65394e-05 -1.03704e-22)
(0.000118086 -2.72158e-05 -1.05244e-22)
(0.000118125 -2.78968e-05 1.58111e-27)
(0.000118142 -2.85897e-05 0)
(0.000118158 -2.92632e-05 0)
(0.00011814 -2.99595e-05 0)
(0.000118095 -3.06222e-05 0)
(0.000117999 -3.13055e-05 0)
(0.000117853 -3.19517e-05 -1.04026e-22)
(0.000117632 -3.26009e-05 0)
(0.00011736 -3.32363e-05 1.58843e-27)
(0.000116936 -3.38248e-05 -8.0721e-28)
(0.00011661 -3.44699e-05 -8.06428e-28)
(0.000115899 -3.49732e-05 0)
(0.000115834 -3.56919e-05 -1.07355e-22)
(0.000114819 -3.61431e-05 1.63464e-27)
(0.000115932 -3.72489e-05 1.06377e-22)
(0.00011467 -3.7644e-05 -4.07033e-28)
(0.000120588 -4.04148e-05 1.07168e-22)
(0.000119108 -4.0944e-05 0)
(0.000152517 -5.31279e-05 0)
(0.000106673 -0.000128991 1.97894e-22)
(5.20819e-05 0.00224208 0)
(3.198e-05 0.00164145 -2.59682e-24)
(0.000112177 0.0022407 -1.68601e-26)
(0.000286945 0.00250274 -5.48381e-25)
(0.000796119 0.00267674 -3.49273e-23)
(0.000897544 0.00175736 0)
(0.000804473 0.00143128 2.28232e-26)
(0.000914561 0.00136729 -2.09593e-26)
(0.000830563 0.00108014 -2.41729e-26)
(0.000827682 0.000949641 6.92571e-26)
(0.000759412 0.000782461 -4.58538e-26)
(0.000720936 0.000674649 -1.80482e-22)
(0.000665625 0.000570314 1.6583e-22)
(0.000622062 0.000491883 8.22857e-23)
(0.000579761 0.000425815 -1.48367e-22)
(0.000540266 0.000369507 0)
(0.000506455 0.00032454 0)
(0.000474909 0.000285284 1.18388e-22)
(0.000446411 0.000252176 0)
(0.00042293 0.000225464 -1.02936e-22)
(0.000399552 0.000200726 -2.20688e-26)
(0.000379656 0.000180279 2.21257e-26)
(0.000362431 0.000162769 0)
(0.000345448 0.000146512 -1.40571e-22)
(0.000331073 0.00013295 6.33432e-23)
(0.000318164 0.000120774 1.27091e-26)
(0.000305478 0.000109484 9.85527e-23)
(0.000294835 9.99355e-05 4.23788e-23)
(0.000284636 9.09366e-05 -3.53195e-23)
(0.000274964 8.27505e-05 -3.05358e-23)
(0.00026678 7.56405e-05 5.35239e-27)
(0.000258483 6.8713e-05 1.87681e-23)
(0.000250798 6.24733e-05 0)
(0.000244025 5.68274e-05 -8.87529e-24)
(0.000237079 5.13465e-05 -4.29323e-24)
(0.000230832 4.64419e-05 0)
(0.000225022 4.18027e-05 -8.28563e-24)
(0.000219133 3.73661e-05 -8.14478e-24)
(0.000213884 3.33444e-05 0)
(0.000208683 2.94365e-05 4.09318e-27)
(0.000203684 2.57923e-05 -4.05199e-27)
(0.000199108 2.23818e-05 1.05006e-23)
(0.0001945 1.90801e-05 1.19209e-23)
(0.000190257 1.60153e-05 0)
(0.00018615 1.30657e-05 1.40932e-23)
(0.000182231 1.02635e-05 -3.49636e-27)
(0.000178566 7.61565e-06 0)
(0.000175024 5.04503e-06 0)
(0.000171702 2.61986e-06 -4.33466e-24)
(0.000168546 2.65155e-07 4.23657e-27)
(0.000165534 -1.9952e-06 9.13094e-24)
(0.000162639 -4.17193e-06 -9.24953e-24)
(0.000160102 -6.19351e-06 0)
(0.000157556 -7.72725e-06 1.18678e-23)
(0.000155924 -8.98916e-06 -2.42575e-23)
(0.000154416 -1.03687e-05 -1.20634e-26)
(0.000152905 -1.14806e-05 6.06961e-27)
(0.000152086 -1.24579e-05 -6.25774e-27)
(0.000151387 -1.34986e-05 6.23975e-27)
(0.00015081 -1.44991e-05 -2.59792e-23)
(0.000150393 -1.55103e-05 2.62624e-23)
(0.000149988 -1.64966e-05 0)
(0.000149728 -1.74504e-05 5.3296e-23)
(0.000149488 -1.84313e-05 -5.36168e-23)
(0.000149279 -1.93568e-05 -5.39659e-23)
(0.00014916 -2.02892e-05 -6.59207e-27)
(0.000149021 -2.12194e-05 -5.44423e-23)
(0.000148938 -2.21137e-05 0)
(0.000148868 -2.30367e-05 0)
(0.000148776 -2.39222e-05 -5.51422e-23)
(0.000148748 -2.47953e-05 3.35615e-27)
(0.000148686 -2.56908e-05 -5.53233e-23)
(0.000148648 -2.65361e-05 0)
(0.00014862 -2.74208e-05 3.38527e-27)
(0.000148563 -2.82687e-05 5.59441e-23)
(0.000148556 -2.91176e-05 -3.39591e-27)
(0.000148515 -2.99851e-05 -1.11979e-22)
(0.000148516 -3.08125e-05 -1.12086e-22)
(0.000148518 -3.16877e-05 3.35356e-27)
(0.000148533 -3.25201e-05 -3.44529e-27)
(0.000148574 -3.3393e-05 1.11619e-22)
(0.000148603 -3.42459e-05 1.13264e-22)
(0.000148659 -3.51048e-05 1.31478e-30)
(0.00014869 -3.59787e-05 -1.13121e-22)
(0.000148718 -3.68284e-05 -1.70498e-27)
(0.000148704 -3.77067e-05 3.45283e-27)
(0.000148655 -3.85427e-05 -1.70737e-27)
(0.000148541 -3.94043e-05 0)
(0.000148363 -4.0219e-05 -1.11959e-22)
(0.000148088 -4.10368e-05 -1.14489e-22)
(0.000147747 -4.1837e-05 -1.11929e-22)
(0.000147213 -4.25774e-05 1.14243e-22)
(0.000146801 -4.33883e-05 0)
(0.0001459 -4.40211e-05 8.68919e-28)
(0.000145814 -4.49236e-05 2.31082e-22)
(0.00014453 -4.54926e-05 0)
(0.000145932 -4.6884e-05 -1.14491e-22)
(0.000144341 -4.73934e-05 -1.14666e-22)
(0.000151814 -5.08881e-05 1.78023e-27)
(0.000149953 -5.16258e-05 0)
(0.000192037 -6.68518e-05 1.04058e-28)
(0.000134275 -0.000162511 1.06566e-22)
(5.83156e-05 0.0027238 0)
(3.92874e-05 0.00201659 0)
(0.000142736 0.00272489 -5.05986e-25)
(0.000352894 0.00304182 -1.07927e-26)
(0.000962407 0.00325187 7.49367e-23)
(0.00109433 0.00216174 -2.32314e-28)
(0.000985732 0.00175994 1.35509e-29)
(0.00111757 0.00167535 2.25128e-26)
(0.00101858 0.00132948 1.01453e-22)
(0.00101457 0.00116736 0)
(0.000932513 0.000963679 0)
(0.000885353 0.000830646 9.70503e-23)
(0.000818061 0.00070269 -1.78341e-22)
(0.000764661 0.000606016 -8.86271e-23)
(0.000712818 0.000524673 1.59649e-22)
(0.000664345 0.000455287 -1.52713e-22)
(0.000622746 0.000399806 1.42166e-22)
(0.000583919 0.000351392 -1.2737e-22)
(0.00054882 0.000310541 -3.11185e-26)
(0.000519821 0.000277548 0)
(0.000490996 0.000247036 2.37509e-26)
(0.000466411 0.000221782 -4.60801e-26)
(0.000445098 0.000200161 2.10364e-26)
(0.000424117 0.000180108 7.56465e-23)
(0.000406315 0.000163359 1.59357e-26)
(0.000390318 0.000148337 5.89522e-23)
(0.000374622 0.000134416 -5.30148e-23)
(0.000361418 0.000122635 -1.37124e-27)
(0.000348774 0.000111546 -3.80449e-23)
(0.000336788 0.000101461 -8.6988e-27)
(0.000326622 9.27004e-05 5.76475e-27)
(0.000316336 8.41775e-05 -2.02111e-23)
(0.000306803 7.64999e-05 1.50683e-23)
(0.00029839 6.95568e-05 -9.58818e-24)
(0.000289779 6.28243e-05 1.15267e-27)
(0.000282025 5.67987e-05 -1.19691e-29)
(0.000274812 5.11057e-05 4.45031e-24)
(0.000267513 4.56648e-05 8.73886e-24)
(0.000260998 4.07345e-05 -1.25671e-23)
(0.00025455 3.59487e-05 -1.60832e-23)
(0.000248354 3.14878e-05 5.2757e-27)
(0.000242679 2.7316e-05 8.723e-28)
(0.000236974 2.32808e-05 -1.28243e-23)
(0.000231718 1.9537e-05 0)
(0.000226635 1.59366e-05 -7.75506e-27)
(0.000221787 1.25191e-05 3.61082e-27)
(0.000217255 9.29095e-06 -8.55074e-24)
(0.000212879 6.1605e-06 -9.03276e-24)
(0.000208778 3.20755e-06 4.6738e-27)
(0.000204885 3.43249e-07 2.34075e-28)
(0.000201174 -2.40506e-06 -4.91783e-24)
(0.000197613 -5.05002e-06 0)
(0.000194497 -7.50553e-06 0)
(0.000191379 -9.36924e-06 -2.55308e-23)
(0.000189371 -1.09039e-05 1.55445e-27)
(0.000187521 -1.25781e-05 0)
(0.000185671 -1.39299e-05 2.69861e-23)
(0.000184662 -1.51172e-05 -6.64282e-27)
(0.000183804 -1.6381e-05 6.7963e-27)
(0.000183098 -1.75958e-05 5.59109e-23)
(0.000182589 -1.88239e-05 -5.65345e-23)
(0.000182097 -2.00215e-05 6.91886e-27)
(0.000181782 -2.11804e-05 -5.73584e-23)
(0.000181494 -2.23717e-05 -7.0643e-27)
(0.000181246 -2.34966e-05 7.0699e-27)
(0.000181107 -2.46294e-05 -7.12873e-27)
(0.000180946 -2.57603e-05 5.86068e-23)
(0.000180853 -2.68473e-05 -5.8873e-23)
(0.000180777 -2.79696e-05 7.18059e-27)
(0.000180674 -2.90466e-05 5.93424e-23)
(0.00018065 -3.01087e-05 0)
(0.000180586 -3.11979e-05 0)
(0.00018055 -3.22266e-05 0)
(0.000180526 -3.3303e-05 -3.64336e-27)
(0.000180468 -3.43351e-05 3.67171e-27)
(0.000180469 -3.53683e-05 0)
(0.000180431 -3.64244e-05 1.20516e-22)
(0.000180442 -3.74318e-05 -1.20624e-22)
(0.000180455 -3.84976e-05 -1.20419e-22)
(0.000180485 -3.95114e-05 -1.21496e-22)
(0.000180545 -4.05747e-05 -3.54931e-27)
(0.000180592 -4.16138e-05 -1.21901e-22)
(0.000180673 -4.26606e-05 0)
(0.000180723 -4.37257e-05 -2.23002e-28)
(0.000180769 -4.47613e-05 0)
(0.000180764 -4.58317e-05 1.2176e-22)
(0.000180715 -4.68505e-05 0)
(0.000180586 -4.78999e-05 1.8648e-27)
(0.000180376 -4.88921e-05 1.20495e-22)
(0.000180046 -4.98869e-05 1.23218e-22)
(0.000179635 -5.08599e-05 1.20468e-22)
(0.000178982 -5.17591e-05 -1.22957e-22)
(0.000178479 -5.27432e-05 0)
(0.000177375 -5.35109e-05 0)
(0.000177265 -5.46053e-05 -2.48705e-22)
(0.000175695 -5.52981e-05 -1.24013e-22)
(0.000177403 -5.69902e-05 2.46446e-22)
(0.00017547 -5.76259e-05 5.57054e-28)
(0.000184599 -6.18881e-05 -2.48279e-22)
(0.000182343 -6.28816e-05 -2.35206e-28)
(0.000233599 -8.12672e-05 1.22713e-22)
(0.000163618 -0.000197969 -4.58621e-22)
(6.33127e-05 0.00322923 0)
(4.71769e-05 0.00241914 2.99322e-24)
(0.000177287 0.00323406 -2.92408e-28)
(0.000423845 0.00360795 3.29753e-28)
(0.00113517 0.00385536 -1.5304e-25)
(0.00130248 0.00259683 1.35263e-22)
(0.00117941 0.00211381 -5.26387e-26)
(0.0013334 0.00200478 -7.02848e-27)
(0.00121994 0.00159845 -1.08987e-22)
(0.00121457 0.00140173 1.68258e-27)
(0.00111841 0.00115946 1.06761e-22)
(0.00106197 0.000999102 -1.04302e-22)
(0.000982052 0.00084583 0)
(0.000918119 0.000729413 9.52394e-23)
(0.00085606 0.000631568 1.71728e-22)
(0.000797941 0.000548029 1.64359e-22)
(0.000747931 0.000481143 -1.52902e-22)
(0.000701234 0.000422799 1.37035e-22)
(0.000658987 0.000373544 0)
(0.000623983 0.000333722 2.82687e-26)
(0.000589245 0.000296948 -2.72434e-26)
(0.000559546 0.000266466 0)
(0.000533764 0.000240379 0)
(0.000508422 0.00021621 0)
(0.000486866 0.000195999 0)
(0.000467484 0.000177888 -6.34612e-23)
(0.000448493 0.000161119 0)
(0.000432473 0.000146916 0)
(0.000417145 0.000133567 8.19079e-23)
(0.000402619 0.000121429 -9.36672e-27)
(0.000390269 0.000110886 6.20919e-27)
(0.000377798 0.000100645 2.17795e-23)
(0.000366235 9.14181e-05 -1.62097e-23)
(0.000356015 8.30798e-05 -2.25077e-26)
(0.000345577 7.50049e-05 5.03322e-24)
(0.000336165 6.77769e-05 -6.02195e-28)
(0.000327408 6.09565e-05 -4.74981e-24)
(0.000318562 5.44434e-05 -9.40281e-24)
(0.000310656 4.85437e-05 1.35133e-23)
(0.000302841 4.28239e-05 1.73102e-23)
(0.000295334 3.74952e-05 4.6857e-27)
(0.000288456 3.2516e-05 -6.38946e-27)
(0.000281552 2.77047e-05 1.24525e-26)
(0.00027519 2.32436e-05 0)
(0.000269043 1.89569e-05 0)
(0.000263184 1.4892e-05 -3.52856e-23)
(0.000257709 1.1054e-05 -7.2415e-27)
(0.00025243 7.33666e-06 9.7209e-24)
(0.000247485 3.83089e-06 0)
(0.000242797 4.33963e-07 0)
(0.000238336 -2.82374e-06 0)
(0.000234061 -5.95679e-06 0)
(0.000230326 -8.86417e-06 -1.34502e-23)
(0.000226603 -1.10719e-05 2.74741e-23)
(0.000224191 -1.28914e-05 2.80937e-23)
(0.000221978 -1.48721e-05 2.86253e-23)
(0.000219771 -1.64742e-05 -2.90354e-23)
(0.00021856 -1.78805e-05 2.94945e-23)
(0.000217533 -1.93767e-05 -7.31399e-27)
(0.000216692 -2.08145e-05 -3.00818e-23)
(0.000216086 -2.22687e-05 3.04249e-23)
(0.000215506 -2.36865e-05 -6.12678e-23)
(0.000215137 -2.50593e-05 -7.56026e-27)
(0.000214802 -2.647e-05 -4.72621e-29)
(0.000214517 -2.78031e-05 7.60865e-27)
(0.000214362 -2.91452e-05 7.67201e-27)
(0.000214183 -3.04857e-05 3.26249e-29)
(0.000214084 -3.17743e-05 1.26682e-22)
(0.000214008 -3.3105e-05 6.341e-23)
(0.0002139 -3.43822e-05 6.38729e-23)
(0.000213885 -3.56422e-05 -7.79511e-27)
(0.000213824 -3.69344e-05 -1.85237e-29)
(0.000213797 -3.81552e-05 7.84863e-27)
(0.000213783 -3.94324e-05 0)
(0.000213729 -4.06578e-05 -7.91708e-27)
(0.000213746 -4.18842e-05 7.85484e-27)
(0.000213716 -4.31384e-05 3.59911e-27)
(0.000213744 -4.43347e-05 2.59645e-22)
(0.000213775 -4.56007e-05 0)
(0.000213826 -4.68053e-05 1.3076e-22)
(0.000213914 -4.80688e-05 -1.29286e-22)