/*--------------------------------*- C++ -*----------------------------------*\
| =========                 |                                                 |
| \\      /  F ield         | OpenFOAM: The Open Source CFD Toolbox           |
|  \\    /   O peration     | Version:  5.x                                   |
|   \\  /    A nd           | Web:      www.OpenFOAM.org                      |
|    \\/     M anipulation  |                                                 |
\*---------------------------------------------------------------------------*/
FoamFile
{
    version     2.0;
    format      ascii;
    class       volVectorField;
    location    "500";
    object      U;
}
// * * * * * * * * * * * * * * * * * * * * * * * * * * * * * * * * * * * * * //

dimensions      [0 1 -1 0 0 0 0];

internalField   nonuniform List<vector> 
107912
(
(3.14397e-05 0.000151189 -5.11903e-28)
(1.95721e-06 9.88631e-05 4.88811e-28)
(5.55554e-06 0.000139063 1.84305e-24)
(1.61668e-05 0.000148251 4.32989e-24)
(4.70202e-05 0.000154775 9.36937e-24)
(4.89849e-05 9.21548e-05 -2.31733e-24)
(4.12105e-05 7.22656e-05 -1.49145e-23)
(4.53484e-05 6.70639e-05 1.26938e-28)
(3.81133e-05 4.87574e-05 1.11619e-27)
(3.64446e-05 4.13148e-05 1.44774e-27)
(3.08939e-05 3.14035e-05 1.93284e-27)
(2.77747e-05 2.56923e-05 -1.40055e-23)
(2.36942e-05 2.00624e-05 -3.04001e-23)
(2.07247e-05 1.6211e-05 -6.68127e-27)
(1.78872e-05 1.29974e-05 3.56003e-23)
(1.54731e-05 1.04739e-05 -3.86306e-23)
(1.34647e-05 8.54231e-06 -4.78093e-27)
(1.17149e-05 6.96786e-06 0)
(1.02576e-05 5.73848e-06 9.00423e-23)
(9.11568e-06 4.81366e-06 4.48694e-23)
(8.08869e-06 4.02485e-06 0)
(7.31735e-06 3.44267e-06 0)
(6.69741e-06 2.98037e-06 4.70948e-23)
(6.19284e-06 2.60243e-06 -4.81021e-23)
(5.83721e-06 2.32406e-06 -4.88156e-23)
(5.57708e-06 2.0988e-06 -9.53533e-23)
(5.39853e-06 1.91931e-06 4.88949e-23)
(5.30904e-06 1.78557e-06 -4.8363e-23)
(5.27457e-06 1.67244e-06 4.69675e-23)
(5.29794e-06 1.58301e-06 4.83177e-23)
(5.36744e-06 1.51154e-06 -4.68485e-23)
(5.46993e-06 1.44449e-06 0)
(5.60547e-06 1.38762e-06 4.62592e-23)
(5.76323e-06 1.33401e-06 -5.47777e-27)
(5.93872e-06 1.27848e-06 5.36301e-27)
(6.12881e-06 1.22612e-06 -5.99897e-28)
(6.32929e-06 1.16903e-06 -4.20845e-23)
(6.53587e-06 1.1081e-06 4.36582e-28)
(6.74453e-06 1.04544e-06 4.99632e-27)
(6.95662e-06 9.75444e-07 3.96635e-23)
(7.16725e-06 9.02031e-07 -4.80306e-27)
(7.37503e-06 8.23669e-07 0)
(7.58136e-06 7.38524e-07 0)
(7.78215e-06 6.50184e-07 1.82868e-23)
(7.9803e-06 5.55247e-07 0)
(8.17343e-06 4.5587e-07 3.50856e-23)
(8.35987e-06 3.51938e-07 8.47236e-24)
(8.5405e-06 2.4203e-07 8.34154e-24)
(8.71028e-06 1.28546e-07 0)
(8.87034e-06 9.91072e-09 0)
(9.01722e-06 -1.12696e-07 3.87735e-24)
(9.15066e-06 -2.38529e-07 3.68974e-27)
(9.26872e-06 -3.62777e-07 9.20425e-24)
(9.3512e-06 -4.62181e-07 9.18014e-24)
(9.45065e-06 -5.48223e-07 1.83873e-23)
(9.55247e-06 -6.44439e-07 -1.84019e-23)
(9.65181e-06 -7.27527e-07 3.67442e-23)
(9.77185e-06 -8.02488e-07 2.2466e-27)
(9.90146e-06 -8.85081e-07 -1.83543e-23)
(1.00346e-05 -9.66422e-07 1.83208e-23)
(1.01715e-05 -1.05082e-06 0)
(1.03044e-05 -1.13464e-06 3.6527e-23)
(1.0434e-05 -1.21749e-06 -2.22705e-27)
(1.05526e-05 -1.30219e-06 -3.63328e-23)
(1.06578e-05 -1.38318e-06 -2.21635e-27)
(1.0752e-05 -1.46344e-06 3.608e-23)
(1.08295e-05 -1.54307e-06 1.10058e-27)
(1.08956e-05 -1.61861e-06 0)
(1.09496e-05 -1.69542e-06 3.57347e-23)
(1.0991e-05 -1.76819e-06 0)
(1.10277e-05 -1.83928e-06 3.55496e-23)
(1.10542e-05 -1.91098e-06 7.11137e-23)
(1.10757e-05 -1.97833e-06 0)
(1.10914e-05 -2.04741e-06 -1.07798e-27)
(1.1098e-05 -2.11307e-06 1.08636e-27)
(1.11015e-05 -2.17683e-06 1.07538e-27)
(1.10937e-05 -2.24111e-06 -7.0837e-23)
(1.10804e-05 -2.29966e-06 1.41502e-22)
(1.10566e-05 -2.36046e-06 0)
(1.10234e-05 -2.4143e-06 0)
(1.09812e-05 -2.46958e-06 -7.01011e-23)
(1.09278e-05 -2.51888e-06 7.10281e-23)
(1.08668e-05 -2.56748e-06 -6.97911e-23)
(1.07956e-05 -2.61272e-06 -1.0779e-27)
(1.07182e-05 -2.6556e-06 5.31814e-28)
(1.06348e-05 -2.69686e-06 -7.02006e-23)
(1.05501e-05 -2.73669e-06 -6.71835e-28)
(1.04677e-05 -2.77702e-06 3.01781e-30)
(1.0395e-05 -2.81936e-06 5.22543e-28)
(1.03377e-05 -2.86459e-06 6.92532e-23)
(1.03074e-05 -2.92013e-06 0)
(1.03024e-05 -2.9795e-06 5.13934e-28)
(1.03536e-05 -3.06154e-06 -7.6396e-28)
(1.04168e-05 -3.14338e-06 2.51899e-28)
(1.05951e-05 -3.26489e-06 -4.81606e-28)
(1.07195e-05 -3.37381e-06 6.46567e-23)
(1.10867e-05 -3.56073e-06 -6.33164e-23)
(1.12037e-05 -3.67513e-06 1.2516e-22)
(1.20047e-05 -4.01925e-06 2.36528e-28)
(1.18719e-05 -4.05911e-06 -6.10393e-23)
(1.51571e-05 -5.28767e-06 1.64992e-27)
(1.25247e-05 -1.23358e-05 -1.13723e-22)
(7.11421e-05 0.000461376 0)
(5.81444e-06 0.000305796 0)
(1.76019e-05 0.000424648 -3.97988e-27)
(4.95921e-05 0.000452462 -1.37942e-23)
(0.000142754 0.000471984 -7.40626e-24)
(0.000149746 0.000284344 0)
(0.000126582 0.000222911 2.13773e-27)
(0.000139028 0.000206167 9.98962e-24)
(0.000117194 0.000150651 1.89412e-23)
(0.000112041 0.000127453 4.61635e-27)
(9.5153e-05 9.71514e-05 -4.53682e-27)
(8.55632e-05 7.94581e-05 2.23229e-23)
(7.30759e-05 6.2148e-05 4.84348e-23)
(6.39418e-05 5.02314e-05 -2.75061e-23)
(5.52222e-05 4.03097e-05 6.57758e-27)
(4.77904e-05 3.25025e-05 0)
(4.16005e-05 2.65208e-05 -6.49777e-23)
(3.62036e-05 2.16425e-05 6.53588e-23)
(3.17047e-05 1.78293e-05 -7.17623e-23)
(2.81728e-05 1.49556e-05 -7.15032e-23)
(2.4997e-05 1.25058e-05 7.26052e-23)
(2.26049e-05 1.06921e-05 9.49974e-27)
(2.06801e-05 9.25145e-06 -3.06003e-26)
(1.91111e-05 8.07255e-06 9.18565e-27)
(1.80003e-05 7.20176e-06 7.78324e-23)
(1.71846e-05 6.4967e-06 1.51976e-22)
(1.6621e-05 5.93423e-06 9.38866e-27)
(1.63322e-05 5.51386e-06 0)
(1.62141e-05 5.15858e-06 -9.22654e-27)
(1.62747e-05 4.87732e-06 -7.70336e-23)
(1.64787e-05 4.65256e-06 4.41484e-27)
(1.67851e-05 4.44243e-06 -7.31145e-23)
(1.71941e-05 4.26435e-06 -1.47505e-22)
(1.76726e-05 4.09719e-06 0)
(1.82065e-05 3.9247e-06 0)
(1.87861e-05 3.76251e-06 -6.95941e-23)
(1.93985e-05 3.58623e-06 -5.73811e-29)
(2.00302e-05 3.39861e-06 6.70265e-23)
(2.0669e-05 3.20591e-06 -7.96622e-27)
(2.13189e-05 2.99093e-06 7.70063e-27)
(2.19646e-05 2.76565e-06 0)
(2.26021e-05 2.52529e-06 3.03144e-23)
(2.32354e-05 2.26421e-06 2.1772e-29)
(2.38519e-05 1.99336e-06 -7.10871e-27)
(2.44604e-05 1.70232e-06 0)
(2.50537e-05 1.39766e-06 -2.79653e-23)
(2.56267e-05 1.07906e-06 -1.35192e-23)
(2.6182e-05 7.42176e-07 3.24503e-27)
(2.67044e-05 3.94361e-07 6.46861e-24)
(2.71971e-05 3.07645e-08 0)
(2.76495e-05 -3.45015e-07 -3.05141e-29)
(2.80606e-05 -7.30757e-07 -1.20488e-23)
(2.8424e-05 -1.11165e-06 -2.93565e-23)
(2.86784e-05 -1.41662e-06 -1.46416e-23)
(2.89842e-05 -1.68069e-06 -2.93229e-23)
(2.92971e-05 -1.97594e-06 5.86887e-23)
(2.96023e-05 -2.23111e-06 -2.92916e-23)
(2.99707e-05 -2.46139e-06 0)
(3.03683e-05 -2.71503e-06 -2.92596e-23)
(3.07768e-05 -2.96483e-06 2.921e-23)
(3.11971e-05 -3.22401e-06 -3.56339e-27)
(3.16052e-05 -3.48136e-06 -5.82341e-23)
(3.20032e-05 -3.73573e-06 -3.55119e-27)
(3.23679e-05 -3.99568e-06 0)
(3.26914e-05 -4.24423e-06 -5.78224e-23)
(3.29814e-05 -4.49047e-06 -5.75344e-23)
(3.32202e-05 -4.73476e-06 0)
(3.3424e-05 -4.9665e-06 5.72805e-23)
(3.35907e-05 -5.20207e-06 5.69823e-23)
(3.37189e-05 -5.42531e-06 0)
(3.38325e-05 -5.64336e-06 5.66889e-23)
(3.39147e-05 -5.86327e-06 -1.50725e-27)
(3.39814e-05 -6.06987e-06 5.67301e-23)
(3.40301e-05 -6.28172e-06 -1.72134e-27)
(3.40506e-05 -6.48312e-06 0)
(3.40615e-05 -6.67862e-06 -1.12442e-22)
(3.40376e-05 -6.87574e-06 1.12955e-22)
(3.39963e-05 -7.05522e-06 -2.25638e-22)
(3.39225e-05 -7.24155e-06 0)
(3.38198e-05 -7.40651e-06 1.13238e-22)
(3.36889e-05 -7.57587e-06 -2.22561e-27)
(3.35231e-05 -7.72675e-06 6.13717e-28)
(3.3334e-05 -7.87549e-06 1.1129e-22)
(3.3113e-05 -8.01381e-06 -1.12661e-22)
(3.28727e-05 -8.14493e-06 1.10976e-22)
(3.2614e-05 -8.2709e-06 -8.52151e-28)
(3.23509e-05 -8.39259e-06 -2.20424e-22)
(3.20949e-05 -8.51573e-06 -1.11158e-22)
(3.18685e-05 -8.64524e-06 0)
(3.16895e-05 -8.78346e-06 -8.39267e-28)
(3.15939e-05 -8.95369e-06 1.63103e-27)
(3.15762e-05 -9.1357e-06 1.07942e-22)
(3.17314e-05 -9.3876e-06 8.06508e-28)
(3.19249e-05 -9.63931e-06 -8.03381e-28)
(3.24715e-05 -1.00126e-05 1.04869e-22)
(3.2856e-05 -1.03483e-05 -1.03106e-22)
(3.3983e-05 -1.09223e-05 -2.1445e-27)
(3.43495e-05 -1.12769e-05 -9.97913e-23)
(3.68037e-05 -1.23323e-05 -1.90157e-28)
(3.64101e-05 -1.24676e-05 9.73344e-23)
(4.64067e-05 -1.61939e-05 5.14351e-27)
(3.29812e-05 -3.77172e-05 2.71826e-22)
(7.63892e-05 0.000791526 -4.11631e-24)
(9.73434e-06 0.0005294 -5.6842e-24)
(3.13201e-05 0.000728272 -3.14214e-24)
(8.55639e-05 0.000775873 7.40967e-24)
(0.00024344 0.000808902 -8.08872e-24)
(0.000257096 0.000492326 -3.16514e-27)
(0.000218274 0.00038572 1.76224e-27)
(0.000239238 0.000355785 -2.15481e-23)
(0.000202295 0.000261062 -4.07686e-23)
(0.000193326 0.000220575 -4.51354e-27)
(0.000164487 0.000168502 0)
(0.000147925 0.000137768 -6.30196e-27)
(0.000126468 0.000107878 -1.04209e-22)
(0.000110692 8.71964e-05 0)
(9.56445e-05 7.00068e-05 7.79786e-27)
(8.27975e-05 5.6458e-05 -7.7399e-27)
(7.20845e-05 4.60698e-05 6.99045e-23)
(6.27372e-05 3.75951e-05 -7.03169e-23)
(5.49378e-05 3.09651e-05 0)
(4.88033e-05 2.5963e-05 7.69475e-23)
(4.32884e-05 2.17008e-05 -7.8134e-23)
(3.9123e-05 1.85387e-05 -8.20273e-23)
(3.57671e-05 1.60272e-05 -1.61504e-22)
(3.30278e-05 1.39712e-05 -2.01208e-26)
(3.10801e-05 1.24499e-05 2.04243e-26)
(2.96446e-05 1.12186e-05 -8.17842e-23)
(2.86466e-05 1.02359e-05 0)
(2.81249e-05 9.5007e-06 -1.02326e-26)
(2.79002e-05 8.8802e-06 9.72977e-27)
(2.79861e-05 8.38906e-06 1.02006e-26)
(2.83216e-05 7.99712e-06 -4.86859e-27)
(2.8836e-05 7.63182e-06 1.57357e-22)
(2.95293e-05 7.3228e-06 7.93557e-23)
(3.03443e-05 7.03369e-06 9.29974e-27)
(3.12564e-05 6.73617e-06 -9.28557e-27)
(3.22489e-05 6.45696e-06 9.10204e-27)
(3.32993e-05 6.15405e-06 0)
(3.43841e-05 5.83202e-06 -8.82808e-27)
(3.54823e-05 5.50148e-06 1.71008e-26)
(3.66003e-05 5.13281e-06 -6.8065e-23)
(3.7712e-05 4.7465e-06 -8.27405e-27)
(3.88101e-05 4.33432e-06 -3.26083e-23)
(3.99013e-05 3.88651e-06 0)
(4.09641e-05 3.42183e-06 0)
(4.20135e-05 2.92242e-06 3.04402e-23)
(4.30367e-05 2.39949e-06 -7.34224e-27)
(4.40255e-05 1.85254e-06 -7.10385e-27)
(4.4984e-05 1.27409e-06 6.98467e-27)
(4.58861e-05 6.7675e-07 -6.96847e-24)
(4.67374e-05 5.21881e-08 6.63498e-27)
(4.75191e-05 -5.93414e-07 -6.65714e-24)
(4.823e-05 -1.25631e-06 1.29737e-23)
(4.88575e-05 -1.91089e-06 1.57913e-23)
(4.9298e-05 -2.43528e-06 -1.57499e-23)
(4.98256e-05 -2.88951e-06 -3.15617e-23)
(5.03655e-05 -3.3972e-06 -3.15832e-23)
(5.08925e-05 -3.83626e-06 0)
(5.15275e-05 -4.23256e-06 -3.15817e-23)
(5.22131e-05 -4.6689e-06 3.14941e-23)
(5.29178e-05 -5.09869e-06 -3.14446e-23)
(5.36429e-05 -5.5446e-06 3.14452e-23)
(5.43473e-05 -5.98737e-06 6.26854e-23)
(5.50344e-05 -6.42501e-06 -7.63518e-27)
(5.56643e-05 -6.87221e-06 -6.23567e-23)
(5.62235e-05 -7.29984e-06 1.24466e-22)
(5.67247e-05 -7.72347e-06 6.19212e-23)
(5.71378e-05 -8.14376e-06 0)
(5.74903e-05 -8.54247e-06 -6.16481e-23)
(5.7779e-05 -8.94775e-06 -1.22655e-22)
(5.80011e-05 -9.33186e-06 0)
(5.8198e-05 -9.70704e-06 -6.10116e-23)
(5.83405e-05 -1.00854e-05 -6.1025e-23)
(5.84561e-05 -1.04408e-05 3.95581e-27)
(5.85404e-05 -1.08052e-05 -1.85002e-27)
(5.85761e-05 -1.11516e-05 3.72661e-27)
(5.85947e-05 -1.14878e-05 1.21015e-22)
(5.85531e-05 -1.18266e-05 -1.21572e-22)
(5.84811e-05 -1.21351e-05 1.21425e-22)
(5.83528e-05 -1.24551e-05 1.20988e-22)
(5.81741e-05 -1.27384e-05 -1.21874e-22)
(5.79465e-05 -1.30289e-05 1.20305e-22)
(5.76583e-05 -1.32876e-05 -1.21894e-22)
(5.73294e-05 -1.35424e-05 -1.82967e-27)
(5.69451e-05 -1.37792e-05 1.21253e-22)
(5.65272e-05 -1.40034e-05 -1.19438e-22)
(5.60773e-05 -1.42187e-05 -1.84194e-27)
(5.56196e-05 -1.44266e-05 1.1862e-22)
(5.51741e-05 -1.4637e-05 1.19634e-22)
(5.47798e-05 -1.48585e-05 8.96829e-28)
(5.44677e-05 -1.50952e-05 0)
(5.42998e-05 -1.53873e-05 1.15076e-22)
(5.42672e-05 -1.57002e-05 1.32073e-27)
(5.45337e-05 -1.61336e-05 0)
(5.48682e-05 -1.65679e-05 0)
(5.58112e-05 -1.72111e-05 0)
(5.64797e-05 -1.77921e-05 1.1097e-22)
(5.84243e-05 -1.87812e-05 1.08668e-22)
(5.90683e-05 -1.9399e-05 0)
(6.32943e-05 -2.12138e-05 0)
(6.26357e-05 -2.14735e-05 -1.04756e-22)
(7.97702e-05 -2.78166e-05 -1.04732e-22)
(5.52429e-05 -6.40011e-05 2.93074e-22)
(8.00909e-05 0.00114102 4.43202e-24)
(1.36974e-05 0.000770697 6.10613e-24)
(4.69077e-05 0.00105041 -1.14603e-26)
(0.000124222 0.001119 7.60373e-27)
(0.000349048 0.00116602 0)
(0.000371241 0.00071726 -4.81288e-24)
(0.000316632 0.000561629 2.75872e-23)
(0.000346314 0.000516612 1.16126e-23)
(0.000293796 0.000380703 2.19415e-23)
(0.000280662 0.000321238 0)
(0.000239249 0.00024595 0)
(0.00021518 0.000201015 0)
(0.000184158 0.00015758 5.60564e-23)
(0.000161223 0.000127366 0)
(0.000139365 0.000102298 8.38754e-27)
(0.000120669 8.2504e-05 -8.32528e-27)
(0.000105058 6.7316e-05 -7.51618e-23)
(9.14254e-05 5.49219e-05 -8.90732e-27)
(8.00385e-05 4.52172e-05 8.30183e-23)
(7.10635e-05 3.7887e-05 0)
(6.29967e-05 3.16448e-05 8.40481e-23)
(5.68856e-05 2.70039e-05 8.82405e-23)
(5.19555e-05 2.33187e-05 8.68895e-23)
(4.79253e-05 2.03016e-05 8.87338e-23)
(4.50469e-05 1.80652e-05 -1.1159e-26)
(4.29169e-05 1.62566e-05 -3.07308e-28)
(4.14267e-05 1.48128e-05 -9.02079e-23)
(4.06318e-05 1.37322e-05 0)
(4.02722e-05 1.28219e-05 8.66761e-23)
(4.03674e-05 1.2102e-05 1.07892e-26)
(4.08289e-05 1.15287e-05 1.72995e-22)
(4.15534e-05 1.09963e-05 -1.69346e-22)
(4.25407e-05 1.05471e-05 1.03594e-26)
(4.37078e-05 1.01283e-05 -8.2452e-23)
(4.50184e-05 9.6987e-06 1.98936e-26)
(4.6448e-05 9.29621e-06 -9.79479e-27)
(4.79637e-05 8.86041e-06 0)
(4.95313e-05 8.39736e-06 -9.50021e-27)
(5.11199e-05 7.92232e-06 9.17729e-27)
(5.27386e-05 7.39242e-06 1.02908e-26)
(5.43493e-05 6.83707e-06 -8.86916e-27)
(5.59413e-05 6.2443e-06 0)
(5.75241e-05 5.59999e-06 0)
(5.90663e-05 4.93116e-06 -8.25434e-27)
(6.05895e-05 4.21195e-06 -3.27438e-23)
(6.20753e-05 3.45863e-06 0)
(6.35115e-05 2.67038e-06 0)
(6.49043e-05 1.83646e-06 7.52663e-27)
(6.62158e-05 9.75042e-07 8.81431e-30)
(6.74536e-05 7.40972e-08 -7.14068e-27)
(6.85907e-05 -8.5744e-07 7.16451e-24)
(6.96249e-05 -1.81424e-06 -1.39557e-23)
(7.0537e-05 -2.75913e-06 1.69947e-23)
(7.11792e-05 -3.51654e-06 1.69628e-23)
(7.19455e-05 -4.17292e-06 6.79264e-23)
(7.273e-05 -4.90633e-06 -3.39986e-23)
(7.34964e-05 -5.54107e-06 8.28015e-27)
(7.44184e-05 -6.11417e-06 3.39892e-23)
(7.54143e-05 -6.74498e-06 4.13669e-27)
(7.64384e-05 -7.36647e-06 -2.92583e-30)
(7.74925e-05 -8.01124e-06 -3.38424e-23)
(7.85173e-05 -8.65159e-06 0)
(7.95169e-05 -9.28447e-06 6.73235e-23)
(8.04338e-05 -9.93117e-06 -3.05785e-28)
(8.12479e-05 -1.05496e-05 3.5748e-28)
(8.19776e-05 -1.11622e-05 0)
(8.25792e-05 -1.17699e-05 -4.05336e-27)
(8.30926e-05 -1.23464e-05 8.09952e-27)
(8.3513e-05 -1.29324e-05 -4.41598e-27)
(8.38366e-05 -1.34878e-05 0)
(8.4123e-05 -1.40302e-05 0)
(8.43306e-05 -1.45772e-05 -6.56787e-23)
(8.44985e-05 -1.5091e-05 -1.31412e-22)
(8.46209e-05 -1.56177e-05 0)
(8.46726e-05 -1.61182e-05 6.5714e-23)
(8.46989e-05 -1.66039e-05 -7.94951e-27)
(8.46376e-05 -1.70931e-05 1.30844e-22)
(8.45316e-05 -1.75385e-05 -1.30682e-22)
(8.43435e-05 -1.80001e-05 -1.30214e-22)
(8.40817e-05 -1.84087e-05 1.31167e-22)
(8.37485e-05 -1.88272e-05 1.29481e-22)
(8.33266e-05 -1.91998e-05 2.0036e-27)
(8.28452e-05 -1.95661e-05 0)
(8.22827e-05 -1.99067e-05 0)
(8.16711e-05 -2.02283e-05 0)
(8.10125e-05 -2.05374e-05 0)
(8.03427e-05 -2.08351e-05 1.94287e-27)
(7.96904e-05 -2.11372e-05 -1.96997e-27)
(7.91132e-05 -2.1455e-05 1.26127e-22)
(7.86558e-05 -2.17959e-05 0)
(7.84094e-05 -2.22168e-05 -1.23851e-22)
(7.83607e-05 -2.26696e-05 -1.25039e-22)
(7.8748e-05 -2.32967e-05 9.44091e-28)
(7.92376e-05 -2.39277e-05 9.20223e-28)
(8.06098e-05 -2.48607e-05 -9.32072e-28)
(8.15912e-05 -2.57073e-05 4.53066e-28)
(8.44185e-05 -2.71421e-05 -1.16964e-22)
(8.5374e-05 -2.80484e-05 8.84093e-28)
(9.15012e-05 -3.06748e-05 -6.57208e-28)
(9.0577e-05 -3.10925e-05 1.12747e-22)
(0.000115295 -4.01761e-05 -1.02791e-28)
(7.91109e-05 -9.20431e-05 -4.20549e-22)
(8.54079e-05 0.00151004 2.22962e-27)
(1.76845e-05 0.00103083 3.28439e-24)
(6.45312e-05 0.00139149 3.61226e-24)
(0.000165705 0.00148232 -8.53463e-24)
(0.000459547 0.00154377 2.78969e-27)
(0.000492447 0.000960325 5.16826e-24)
(0.000422043 0.000751626 -2.9655e-23)
(0.000460614 0.000689383 -4.91771e-27)
(0.000392128 0.000510324 5.59873e-27)
(0.000374446 0.000430033 -1.09936e-26)
(0.000319835 0.000330017 5.65968e-27)
(0.000287683 0.000269619 -2.78047e-23)
(0.000246468 0.000211601 1.55783e-26)
(0.000215816 0.000171017 3.41977e-23)
(0.000186625 0.000137403 0)
(0.000161606 0.000110812 1.94957e-26)
(0.000140683 9.03919e-05 8.08578e-23)
(0.000122395 7.37221e-05 -2.05493e-26)
(0.000107101 6.06578e-05 -8.9323e-23)
(9.50197e-05 5.07784e-05 -8.89884e-23)
(8.41628e-05 4.23707e-05 -9.04109e-23)
(7.59114e-05 3.61067e-05 0)
(6.92446e-05 3.11341e-05 0)
(6.37861e-05 2.70629e-05 -1.90965e-22)
(5.98692e-05 2.40402e-05 9.69304e-23)
(5.69579e-05 2.15984e-05 0)
(5.49083e-05 1.96492e-05 1.94148e-22)
(5.37917e-05 1.81904e-05 9.60102e-23)
(5.32628e-05 1.69643e-05 -1.86532e-22)
(5.33467e-05 1.59961e-05 -9.59745e-23)
(5.3925e-05 1.5227e-05 -9.30933e-23)
(5.48596e-05 1.4516e-05 9.11251e-23)
(5.61493e-05 1.3918e-05 0)
(5.76835e-05 1.33629e-05 2.57183e-26)
(5.94131e-05 1.27953e-05 -8.77119e-23)
(6.13049e-05 1.22645e-05 -1.04564e-26)
(6.33145e-05 1.16909e-05 8.36073e-23)
(6.53962e-05 1.10816e-05 8.35181e-23)
(6.75082e-05 1.04568e-05 9.92806e-27)
(6.96624e-05 9.75947e-06 7.87984e-23)
(7.18076e-05 9.02837e-06 9.54454e-27)
(7.39294e-05 8.2475e-06 -3.77733e-23)
(7.60399e-05 7.39815e-06 -3.72316e-23)
(7.80974e-05 6.51593e-06 0)
(8.01302e-05 5.56659e-06 -3.5238e-23)
(8.21139e-05 4.57172e-06 3.48569e-23)
(8.40322e-05 3.53009e-06 -8.22771e-27)
(8.58929e-05 2.42766e-06 1.61899e-26)
(8.76459e-05 1.28835e-06 8.05527e-24)
(8.93007e-05 9.62963e-08 0)
(9.08212e-05 -1.13665e-06 -1.54211e-23)
(9.22043e-05 -2.40354e-06 3.00388e-23)
(9.3423e-05 -3.65485e-06 -1.82989e-23)
(9.42841e-05 -4.65853e-06 8.91549e-27)
(9.53075e-05 -5.52885e-06 -3.65607e-23)
(9.63557e-05 -6.50103e-06 3.65811e-23)
(9.73811e-05 -7.34318e-06 0)
(9.86127e-05 -8.1039e-06 0)
(9.99436e-05 -8.94099e-06 0)
(0.000101314 -9.76602e-06 -8.88644e-27)
(0.000102724 -1.06219e-05 1.77796e-26)
(0.000104096 -1.14722e-05 -8.86963e-27)
(0.000105435 -1.23125e-05 -7.24602e-23)
(0.000106663 -1.31712e-05 1.44459e-22)
(0.000107754 -1.39923e-05 4.11609e-28)
(0.000108731 -1.48055e-05 0)
(0.000109537 -1.56122e-05 0)
(0.000110224 -1.63775e-05 0)
(0.000110786 -1.71551e-05 7.10363e-23)
(0.000111219 -1.78921e-05 0)
(0.000111602 -1.86119e-05 0)
(0.000111879 -1.93376e-05 1.41369e-22)
(0.000112103 -2.00191e-05 7.07139e-23)
(0.000112265 -2.07178e-05 0)
(0.000112334 -2.13814e-05 -1.41441e-22)
(0.000112367 -2.20254e-05 -4.27555e-27)
(0.000112284 -2.26735e-05 4.61841e-28)
(0.00011214 -2.32636e-05 2.81303e-22)
(0.000111886 -2.38744e-05 1.40143e-22)
(0.000111533 -2.44151e-05 -1.41174e-22)
(0.000111084 -2.4968e-05 -1.39352e-22)
(0.000110516 -2.54604e-05 -1.41203e-22)
(0.000109868 -2.59432e-05 2.11941e-27)
(0.000109111 -2.63923e-05 0)
(0.000108288 -2.6815e-05 0)
(0.000107402 -2.7222e-05 0)
(0.000106501 -2.76127e-05 0)
(0.000105623 -2.80107e-05 0)
(0.000104847 -2.84287e-05 -1.35746e-22)
(0.000104232 -2.88794e-05 0)
(0.000103901 -2.94362e-05 2.02484e-27)
(0.000103836 -3.00386e-05 -1.04092e-27)
(0.000104357 -3.08722e-05 -1.01612e-27)
(0.000105019 -3.17152e-05 0)
(0.000106858 -3.29595e-05 -1.30755e-22)
(0.000108187 -3.40941e-05 1.96274e-27)
(0.00011197 -3.60078e-05 1.25883e-22)
(0.000113278 -3.72306e-05 -4.7283e-28)
(0.000121447 -4.07243e-05 1.23834e-22)
(0.00012026 -4.13389e-05 0)
(0.000153029 -5.32864e-05 0)
(0.00010467 -0.000121905 2.26354e-22)
(9.01928e-05 0.00189884 0)
(2.16676e-05 0.00131095 -3.52803e-24)
(8.43891e-05 0.00175188 -1.00993e-26)
(0.000210165 0.00186621 9.16565e-24)
(0.000574851 0.0019425 1.04151e-23)
(0.00062095 0.00122277 0)
(0.000534901 0.000956777 -5.77447e-27)
(0.000582498 0.000874885 5.30288e-27)
(0.00049774 0.000650739 6.02946e-27)
(0.0004751 0.000547607 -1.80358e-26)
(0.000406673 0.000421279 1.21853e-26)
(0.00036582 0.000344041 5.98246e-23)
(0.000313751 0.000270324 -6.48494e-23)
(0.000274776 0.000218453 -3.67874e-23)
(0.000237687 0.000175566 7.58912e-23)
(0.000205827 0.000141573 0)
(0.000179139 0.000115443 0)
(0.000155786 9.41044e-05 -8.74843e-23)
(0.000136232 7.73657e-05 0)
(0.000120746 6.46917e-05 9.57677e-23)
(0.000106833 5.39137e-05 2.43093e-26)
(9.62212e-05 4.58662e-05 -2.43719e-26)
(8.76335e-05 3.94802e-05 0)
(8.05909e-05 3.42526e-05 2.0539e-22)
(7.55114e-05 3.0365e-05 -1.04247e-22)
(7.17186e-05 2.72287e-05 -2.52013e-26)
(6.90311e-05 2.4726e-05 -2.08858e-22)
(6.75356e-05 2.28534e-05 -1.03336e-22)
(6.67957e-05 2.12841e-05 1.00392e-22)
(6.68421e-05 2.00472e-05 1.03249e-22)
(6.7524e-05 1.9068e-05 -2.46256e-26)
(6.86656e-05 1.81674e-05 -9.79989e-23)
(7.02646e-05 1.7413e-05 0)
(7.218e-05 1.67158e-05 9.54882e-23)
(7.43492e-05 1.60057e-05 9.43652e-23)
(7.6729e-05 1.5343e-05 0)
(7.92621e-05 1.46283e-05 -1.79986e-22)
(8.1891e-05 1.38692e-05 -8.98549e-23)
(8.45615e-05 1.30909e-05 0)
(8.72881e-05 1.22216e-05 2.07513e-26)
(9.00059e-05 1.13096e-05 -2.05425e-26)
(9.26958e-05 1.03346e-05 4.06504e-23)
(9.53731e-05 9.27305e-06 4.00676e-23)
(9.79846e-05 8.16954e-06 0)
(0.000100566 6.98096e-06 3.79318e-23)
(0.000103086 5.73456e-06 -3.5167e-28)
(0.000105524 4.42857e-06 0)
(0.000107889 3.04559e-06 0)
(0.000110118 1.61548e-06 -8.68608e-24)
(0.000112223 1.18444e-07 8.27048e-27)
(0.000114157 -1.43061e-06 1.65964e-23)
(0.000115917 -3.02304e-06 -1.61641e-23)
(0.000117466 -4.59621e-06 0)
(0.000118565 -5.85903e-06 1.96466e-23)
(0.000119865 -6.95477e-06 -3.9337e-23)
(0.000121198 -8.17847e-06 -1.92219e-26)
(0.000122504 -9.23962e-06 9.59038e-27)
(0.00012407 -1.01987e-05 -9.61179e-27)
(0.000125764 -1.12539e-05 9.58416e-27)
(0.000127509 -1.22944e-05 -3.91927e-23)
(0.000129306 -1.33738e-05 3.91938e-23)
(0.000131056 -1.44466e-05 0)
(0.000132764 -1.55067e-05 7.79796e-23)
(0.00013433 -1.65899e-05 -7.77337e-23)
(0.000135722 -1.76257e-05 -7.75685e-23)
(0.000136968 -1.86514e-05 -9.43701e-27)
(0.000137995 -1.96687e-05 -7.70377e-23)
(0.00013887 -2.06335e-05 0)
(0.000139586 -2.16137e-05 0)
(0.000140136 -2.25427e-05 -7.65589e-23)
(0.000140621 -2.34498e-05 4.64776e-27)
(0.000140973 -2.43642e-05 -7.60715e-23)
(0.000141255 -2.52228e-05 0)
(0.00014146 -2.61028e-05 4.61263e-27)
(0.000141545 -2.69383e-05 7.61082e-23)
(0.000141585 -2.77492e-05 -4.60157e-27)
(0.000141476 -2.85644e-05 -1.5155e-22)
(0.00014129 -2.93069e-05 -1.51379e-22)
(0.000140964 -3.00742e-05 5.23731e-27)
(0.000140511 -3.07536e-05 -4.63331e-27)
(0.000139935 -3.14468e-05 1.49989e-22)
(0.000139208 -3.20643e-05 1.51963e-22)
(0.000138377 -3.26681e-05 1.09851e-29)
(0.000137408 -3.32301e-05 -1.51163e-22)
(0.000136354 -3.37572e-05 -2.26778e-27)
(0.00013522 -3.42654e-05 4.58324e-27)
(0.000134066 -3.47517e-05 -2.26172e-27)
(0.000132943 -3.5249e-05 0)
(0.000131952 -3.57708e-05 -1.46103e-22)
(0.000131165 -3.63368e-05 -1.48188e-22)
(0.000130745 -3.70368e-05 -1.43472e-22)
(0.000130666 -3.77987e-05 1.44847e-22)
(0.000131334 -3.88526e-05 0)
(0.00013219 -3.99243e-05 1.06599e-27)
(0.000134541 -4.15031e-05 2.81455e-22)
(0.000136258 -4.29503e-05 0)
(0.000141078 -4.53789e-05 -1.35492e-22)
(0.000142786 -4.69495e-05 -1.33914e-22)
(0.00015315 -5.13699e-05 5.21875e-27)
(0.000151709 -5.22266e-05 0)
(0.000193012 -6.7159e-05 1.1911e-28)
(0.000132022 -0.000153593 1.21894e-22)
(9.34753e-05 0.00230752 0)
(2.56159e-05 0.00161221 0)
(0.000106697 0.0021319 -4.16096e-24)
(0.000257764 0.002271 1.36314e-26)
(0.000694825 0.0023625 -2.25147e-23)
(0.000756956 0.00150587 1.49888e-27)
(0.000655603 0.00117823 1.38432e-27)
(0.00071233 0.00107396 -5.71917e-27)
(0.000611104 0.000802828 -2.74344e-23)
(0.000583067 0.000674666 0)
(0.000500217 0.000520363 0)
(0.000450005 0.000424791 -3.2178e-23)
(0.00038639 0.000334173 6.97422e-23)
(0.000338439 0.000270012 3.96129e-23)
(0.00029284 0.000217057 -8.16598e-23)
(0.000253576 0.000174996 8.85802e-23)
(0.000220623 0.000142631 -9.35447e-23)
(0.000191755 0.000116191 9.41198e-23)
(0.000167549 9.54299e-05 2.44375e-26)
(0.000148325 7.96891e-05 0)
(0.000131057 6.6314e-05 -2.61485e-26)
(0.000117839 5.63049e-05 5.359e-26)
(0.000107122 4.83655e-05 -2.58602e-26)
(9.83181e-05 4.18683e-05 -1.105e-22)
(9.19343e-05 3.70287e-05 -2.77909e-26)
(8.71445e-05 3.31306e-05 -1.095e-22)
(8.37281e-05 3.00218e-05 1.12317e-22)
(8.17859e-05 2.76968e-05 -6.04385e-28)
(8.07849e-05 2.5755e-05 1.07977e-22)
(8.07614e-05 2.42284e-05 2.6879e-26)
(8.15287e-05 2.30245e-05 -2.64967e-26)
(8.28711e-05 2.19237e-05 1.05531e-22)
(8.47841e-05 2.1006e-05 -1.06422e-22)
(8.70937e-05 2.01625e-05 1.02743e-22)
(8.97229e-05 1.93069e-05 2.26749e-28)
(9.26167e-05 1.85104e-05 -4.9013e-26)
(9.57043e-05 1.7653e-05 9.68531e-23)
(9.8915e-05 1.67423e-05 9.67366e-23)
(0.000102181 1.58085e-05 -9.39985e-23)
(0.00010552 1.47645e-05 -9.12503e-23)
(0.00010885 1.36681e-05 2.21938e-26)
(0.00011215 1.24946e-05 7.45933e-29)
(0.000115436 1.12154e-05 -4.3139e-23)
(0.000118643 9.88421e-06 0)
(0.000121815 8.44875e-06 -1.99516e-26)
(0.000124912 6.94216e-06 1.92903e-26)
(0.00012791 5.3621e-06 -1.94832e-23)
(0.00013082 3.68768e-06 -1.92204e-23)
(0.000133564 1.95498e-06 9.12522e-27)
(0.000136154 1.40096e-07 1.10898e-29)
(0.000138534 -1.7388e-06 -8.93926e-24)
(0.0001407 -3.67137e-06 0)
(0.000142605 -5.58105e-06 0)
(0.000143962 -7.11531e-06 -4.22666e-23)
(0.000145561 -8.4476e-06 2.72952e-28)
(0.000147201 -9.93517e-06 0)
(0.000148813 -1.12267e-05 4.23059e-23)
(0.000150741 -1.2395e-05 -1.03407e-26)
(0.000152828 -1.368e-05 1.0313e-26)
(0.000154981 -1.49478e-05 8.43495e-23)
(0.0001572 -1.62633e-05 -8.43726e-23)
(0.000159362 -1.75712e-05 1.02734e-26)
(0.000161471 -1.88635e-05 -8.39235e-23)
(0.000163407 -2.0184e-05 -1.01981e-26)
(0.000165127 -2.14466e-05 1.02062e-26)
(0.000166664 -2.26966e-05 -1.01258e-26)
(0.000167932 -2.3936e-05 8.29306e-23)
(0.00016901 -2.51113e-05 -8.27323e-23)
(0.00016989 -2.6305e-05 1.00586e-26)
(0.000170567 -2.74362e-05 8.23904e-23)
(0.000171161 -2.85403e-05 0)
(0.000171591 -2.96533e-05 0)
(0.000171935 -3.0698e-05 0)
(0.000172184 -3.17686e-05 -4.96433e-27)
(0.000172285 -3.27846e-05 5.00295e-27)
(0.00017233 -3.37707e-05 0)
(0.000172193 -3.47609e-05 1.63106e-22)
(0.000171958 -3.56629e-05 -1.62912e-22)
(0.000171552 -3.65937e-05 -1.6233e-22)
(0.000170989 -3.74178e-05 -1.63521e-22)
(0.000170274 -3.8257e-05 -3.90581e-27)
(0.000169372 -3.90045e-05 -1.63553e-22)
(0.000168343 -3.97333e-05 0)
(0.000167141 -4.04117e-05 -1.66144e-27)
(0.000165836 -4.10457e-05 0)
(0.00016443 -4.1658e-05 1.61666e-22)
(0.000163002 -4.22418e-05 0)
(0.000161612 -4.28413e-05 2.44215e-27)
(0.000160386 -4.34701e-05 1.57242e-22)
(0.000159416 -4.41565e-05 1.59486e-22)
(0.000158901 -4.5007e-05 1.54418e-22)
(0.000158811 -4.5939e-05 -1.55895e-22)
(0.000159646 -4.72278e-05 0)
(0.000160723 -4.85465e-05 0)
(0.000163634 -5.04849e-05 -3.0293e-22)
(0.000165786 -5.2272e-05 -1.48916e-22)
(0.000171734 -5.52542e-05 2.91656e-22)
(0.000173898 -5.72075e-05 -3.46164e-27)
(0.000186624 -6.26177e-05 -2.86901e-22)
(0.00018494 -6.37691e-05 -2.69302e-28)
(0.000235284 -8.18038e-05 1.40567e-22)
(0.000161263 -0.000187138 -5.24591e-22)
(9.50694e-05 0.00273603 0)
(2.94976e-05 0.00193575 4.07557e-24)
(0.000131675 0.00253174 -1.78512e-26)
(0.000308666 0.00269687 2.01319e-26)
(0.000819293 0.00280391 -1.32296e-25)
(0.000900637 0.00181095 -7.50818e-24)
(0.000784547 0.00141719 1.34319e-26)
(0.000850478 0.0012875 -1.26252e-27)
(0.000732715 0.000967542 2.94779e-23)
(0.000698816 0.000811977 -1.28398e-27)
(0.000600956 0.000627962 -3.23161e-23)
(0.000540687 0.000512429 3.46229e-23)
(0.0004648 0.000403619 0)
(0.000407171 0.000326073 -4.25693e-23)
(0.000352404 0.000262182 -8.77898e-23)
(0.00030512 0.000211323 -9.53374e-23)
(0.000265357 0.000172143 1.00607e-22)
(0.000230475 0.000140123 -1.01166e-22)
(0.000201182 0.000114953 0)
(0.000177852 9.58426e-05 -2.77641e-26)
(0.000156897 7.96188e-05 2.6757e-26)
(0.000140793 6.74498e-05 0)
(0.000127712 5.78015e-05 0)
(0.000116946 4.99089e-05 0)
(0.000109096 4.40208e-05 0)
(0.000103176 3.92863e-05 1.17877e-22)
(9.89255e-05 3.55137e-05 0)
(9.64575e-05 3.26943e-05 0)
(9.51356e-05 3.03484e-05 -2.32386e-22)
(9.50022e-05 2.85099e-05 2.89194e-26)
(9.58314e-05 2.70662e-05 -2.85092e-26)
(9.73642e-05 2.57553e-05 -1.13457e-22)
(9.95931e-05 2.46684e-05 1.14488e-22)
(0.000102308 2.36754e-05 -6.08806e-27)
(0.000105417 2.26729e-05 -1.09284e-22)
(0.000108852 2.17424e-05 -2.64747e-26)
(0.000112526 2.07426e-05 -1.0414e-22)
(0.000116355 1.96806e-05 -1.04099e-22)
(0.000120255 1.85914e-05 1.0108e-22)
(0.000124247 1.73719e-05 9.82209e-23)
(0.000128235 1.60896e-05 2.37888e-26)
(0.000132188 1.47151e-05 -2.30229e-26)
(0.000136127 1.32145e-05 2.3379e-26)
(0.000139975 1.1651e-05 0)
(0.000143782 9.96262e-06 0)
(0.000147502 8.18875e-06 -8.69101e-23)
(0.000151105 6.32633e-06 -2.03114e-26)
(0.000154603 4.35096e-06 2.06847e-23)
(0.000157902 2.30511e-06 0)
(0.000161015 1.60709e-07 0)
(0.000163877 -2.06066e-06 0)
(0.000166481 -4.34692e-06 0)
(0.000168768 -6.60679e-06 -2.28082e-23)
(0.000170406 -8.42418e-06 4.54868e-23)
(0.000172326 -1.00037e-05 4.55602e-23)
(0.000174299 -1.1767e-05 4.55969e-23)
(0.000176243 -1.33e-05 -4.55187e-23)
(0.000178563 -1.4688e-05 4.55964e-23)
(0.000181078 -1.62145e-05 -1.10989e-26)
(0.000183676 -1.77217e-05 -4.53834e-23)
(0.000186355 -1.92857e-05 4.5407e-23)
(0.000188968 -2.08415e-05 -9.05145e-23)
(0.000191516 -2.23787e-05 -1.10117e-26)
(0.000193855 -2.39492e-05 2.90871e-29)
(0.000195932 -2.54509e-05 1.09842e-26)
(0.000197787 -2.6937e-05 1.08977e-26)
(0.000199316 -2.84102e-05 -3.28722e-29)
(0.000200613 -2.98067e-05 1.78024e-22)
(0.000201671 -3.12245e-05 8.8544e-23)
(0.000202482 -3.25678e-05 8.8683e-23)
(0.000203192 -3.38786e-05 -1.07433e-26)
(0.000203704 -3.51996e-05 2.04473e-29)
(0.000204113 -3.64393e-05 1.07709e-26)
(0.000204406 -3.77095e-05 0)
(0.000204523 -3.89142e-05 -1.07561e-26)
(0.000204571 -4.00834e-05 1.06715e-26)
(0.000204401 -4.12563e-05 6.03984e-27)
(0.000204112 -4.23247e-05 3.50671e-22)
(0.000203618 -4.34255e-05 0)
(0.000202933 -4.43999e-05 1.75988e-22)
(0.000202067 -4.53899e-05 -1.7373e-22)