/*--------------------------------*- C++ -*----------------------------------*\
| =========                 |                                                 |
| \\      /  F ield         | OpenFOAM: The Open Source CFD Toolbox           |
|  \\    /   O peration     | Version:  5.x                                   |
|   \\  /    A nd           | Web:      www.OpenFOAM.org                      |
|    \\/     M anipulation  |                                                 |
\*---------------------------------------------------------------------------*/
FoamFile
{
    version     2.0;
    format      ascii;
    class       volVectorField;
    location    "500";
    object      U;
}
// * * * * * * * * * * * * * * * * * * * * * * * * * * * * * * * * * * * * * //

dimensions      [0 1 -1 0 0 0 0];

internalField   nonuniform List<vector> 
107912
(
(3.94651e-08 1.3678e-06 -1.44393e-30)
(1.98085e-08 1.01294e-06 1.37862e-30)
(5.3874e-08 1.3493e-06 4.50618e-27)
(1.68475e-07 1.54314e-06 1.78805e-26)
(5.64837e-07 1.85606e-06 2.08947e-26)
(7.5569e-07 1.4208e-06 8.14537e-26)
(7.37606e-07 1.29388e-06 1.058e-26)
(8.65246e-07 1.27879e-06 2.97746e-30)
(8.90782e-07 1.13987e-06 -8.18132e-30)
(9.4744e-07 1.07405e-06 -9.59191e-30)
(9.58599e-07 9.7492e-07 -1.01404e-29)
(9.84573e-07 9.11221e-07 8.26504e-26)
(9.89892e-07 8.38924e-07 1.55553e-25)
(1.00155e-06 7.8423e-07 3.55023e-29)
(1.00517e-06 7.31404e-07 -1.52478e-25)
(1.00982e-06 6.84661e-07 1.53074e-25)
(1.01211e-06 6.43365e-07 1.80185e-29)
(1.01415e-06 6.0456e-07 0)
(1.01507e-06 5.69345e-07 -2.75406e-25)
(1.01625e-06 5.38157e-07 -1.27259e-25)
(1.01618e-06 5.07232e-07 0)
(1.01602e-06 4.79608e-07 0)
(1.01618e-06 4.53787e-07 -1.07566e-25)
(1.01523e-06 4.2823e-07 1.0285e-25)
(1.01424e-06 4.05223e-07 9.72387e-26)
(1.01365e-06 3.82878e-07 1.78233e-25)
(1.01193e-06 3.60933e-07 -8.56964e-26)
(1.01047e-06 3.40954e-07 7.9192e-26)
(1.00885e-06 3.20862e-07 -7.23187e-26)
(1.0066e-06 3.01622e-07 -6.96155e-26)
(1.00471e-06 2.83663e-07 6.31035e-26)
(1.00228e-06 2.65296e-07 0)
(9.99378e-07 2.47904e-07 -5.44246e-26)
(9.96808e-07 2.31161e-07 5.79416e-30)
(9.93491e-07 2.14255e-07 -5.67277e-30)
(9.90091e-07 1.98354e-07 -3.1703e-30)
(9.86806e-07 1.82525e-07 3.65067e-26)
(9.82817e-07 1.66822e-07 2.6996e-30)
(9.7888e-07 1.51899e-07 -3.43512e-30)
(9.74653e-07 1.36802e-07 -2.59009e-26)
(9.7004e-07 1.222e-07 2.96465e-30)
(9.65456e-07 1.07923e-07 0)
(9.60389e-07 9.36347e-08 0)
(9.55173e-07 7.98725e-08 -6.86796e-27)
(9.49721e-07 6.61333e-08 0)
(9.44005e-07 5.26984e-08 -8.45779e-27)
(9.38086e-07 3.95272e-08 -1.47853e-27)
(9.31922e-07 2.64413e-08 -8.99862e-28)
(9.25448e-07 1.36834e-08 0)
(9.18805e-07 1.05111e-09 0)
(9.11805e-07 -1.13716e-08 3.5365e-28)
(9.04532e-07 -2.35496e-08 5.77687e-31)
(8.98145e-07 -3.51295e-08 1.97428e-27)
(8.89875e-07 -4.39546e-08 2.48009e-27)
(8.84419e-07 -5.12822e-08 6.02063e-27)
(8.7863e-07 -5.92539e-08 -6.89438e-27)
(8.71888e-07 -6.57047e-08 1.57322e-26)
(8.67339e-07 -7.12192e-08 1.13321e-30)
(8.62878e-07 -7.71251e-08 -9.69155e-27)
(8.58315e-07 -8.26694e-08 1.05853e-26)
(8.54054e-07 -8.82388e-08 0)
(8.49448e-07 -9.35544e-08 2.44906e-26)
(8.45265e-07 -9.86494e-08 -1.54474e-30)
(8.40907e-07 -1.03797e-07 -2.76519e-26)
(8.36475e-07 -1.08588e-07 -1.73692e-30)
(8.32383e-07 -1.13327e-07 3.0684e-26)
(8.27983e-07 -1.18011e-07 9.5936e-31)
(8.23811e-07 -1.22414e-07 0)
(8.19619e-07 -1.26939e-07 3.49217e-26)
(8.15173e-07 -1.31169e-07 0)
(8.11124e-07 -1.35308e-07 3.76354e-26)
(8.06741e-07 -1.39486e-07 7.79621e-26)
(8.02534e-07 -1.4336e-07 0)
(7.98335e-07 -1.47386e-07 -1.28167e-30)
(7.93872e-07 -1.51153e-07 1.29164e-30)
(7.89764e-07 -1.54883e-07 1.35332e-30)
(7.85241e-07 -1.58628e-07 -9.03024e-26)
(7.81008e-07 -1.62117e-07 1.85323e-25)
(7.76549e-07 -1.65771e-07 0)
(7.72115e-07 -1.69128e-07 0)
(7.67686e-07 -1.72625e-07 -9.8398e-26)
(7.63043e-07 -1.75923e-07 1.01984e-25)
(7.58573e-07 -1.79211e-07 -1.02345e-25)
(7.53802e-07 -1.82478e-07 -1.61399e-30)
(7.49197e-07 -1.85611e-07 8.04594e-31)
(7.44295e-07 -1.88813e-07 -1.09418e-25)
(7.39544e-07 -1.91833e-07 -6.58815e-32)
(7.34447e-07 -1.94922e-07 -1.24109e-32)
(7.29666e-07 -1.979e-07 8.56679e-31)
(7.24189e-07 -2.00784e-07 1.16604e-25)
(7.19842e-07 -2.03949e-07 0)
(7.13211e-07 -2.06392e-07 9.11806e-31)
(7.10785e-07 -2.10211e-07 -1.36091e-30)
(7.01351e-07 -2.11731e-07 4.52404e-31)
(7.04574e-07 -2.172e-07 -4.83397e-30)
(6.88718e-07 -2.1686e-07 1.15072e-25)
(7.07722e-07 -2.2743e-07 -1.29263e-25)
(6.76086e-07 -2.21843e-07 2.03657e-25)
(7.50411e-07 -2.51314e-07 4.25118e-31)
(6.83228e-07 -2.33751e-07 -5.88655e-26)
(1.08984e-06 -3.80229e-07 8.03182e-29)
(9.66481e-07 -9.36382e-07 6.89573e-25)
(1.20542e-07 4.17753e-06 0)
(6.05764e-08 3.12284e-06 0)
(1.72881e-07 4.14077e-06 -5.70321e-29)
(5.24147e-07 4.72764e-06 -5.68161e-26)
(1.72593e-06 5.67149e-06 -1.66013e-26)
(2.31198e-06 4.36313e-06 0)
(2.26372e-06 3.97577e-06 -8.84226e-30)
(2.6531e-06 3.924e-06 -1.20596e-25)
(2.73313e-06 3.50206e-06 -9.15504e-26)
(2.90711e-06 3.2987e-06 -3.05413e-29)
(2.94257e-06 2.99592e-06 3.00151e-29)
(3.02242e-06 2.79969e-06 -1.31733e-25)
(3.03942e-06 2.57817e-06 -2.47709e-25)
(3.0753e-06 2.40987e-06 1.30955e-25)
(3.0867e-06 2.2477e-06 -2.97053e-29)
(3.10108e-06 2.10399e-06 0)
(3.10823e-06 1.97707e-06 2.3318e-25)
(3.11455e-06 1.85778e-06 -2.18131e-25)
(3.11743e-06 1.74954e-06 2.19506e-25)
(3.12106e-06 1.65365e-06 2.02856e-25)
(3.12086e-06 1.55861e-06 -1.91699e-25)
(3.12036e-06 1.47368e-06 -2.24791e-29)
(3.12085e-06 1.39431e-06 3.5724e-29)
(3.11793e-06 1.31577e-06 -2.0303e-29)
(3.11488e-06 1.24505e-06 -1.55039e-25)
(3.11304e-06 1.17638e-06 -2.84114e-25)
(3.10774e-06 1.10895e-06 -1.69957e-29)
(3.10325e-06 1.04754e-06 0)
(3.09827e-06 9.85803e-07 1.37436e-29)
(3.09134e-06 9.26687e-07 1.10988e-25)
(3.08549e-06 8.715e-07 1.21364e-29)
(3.07802e-06 8.15077e-07 9.24006e-26)
(3.0691e-06 7.61643e-07 1.73557e-25)
(3.06119e-06 7.10202e-07 0)
(3.05099e-06 6.58271e-07 0)
(3.04053e-06 6.0942e-07 6.54372e-26)
(3.03043e-06 5.60796e-07 -5.4983e-31)
(3.01817e-06 5.12562e-07 -5.32934e-26)
(3.00607e-06 4.66719e-07 5.47808e-30)
(2.99308e-06 4.20349e-07 -5.29545e-30)
(2.9789e-06 3.75499e-07 0)
(2.96481e-06 3.31646e-07 -1.55462e-26)
(2.94924e-06 2.87762e-07 4.8898e-31)
(2.93321e-06 2.45492e-07 2.91993e-30)
(2.91646e-06 2.03295e-07 0)
(2.8989e-06 1.62033e-07 6.74213e-27)
(2.88072e-06 1.2158e-07 2.35939e-27)
(2.86178e-06 8.1392e-08 -4.58961e-31)
(2.84189e-06 4.22102e-08 -2.66839e-28)
(2.82149e-06 3.41525e-09 0)
(2.79998e-06 -3.47354e-08 -2.58258e-31)
(2.77765e-06 -7.21351e-08 -1.89989e-27)
(2.75802e-06 -1.07688e-07 -6.29634e-27)
(2.73266e-06 -1.34799e-07 -3.95546e-27)
(2.71589e-06 -1.57317e-07 -9.60139e-27)
(2.69811e-06 -1.81795e-07 2.19876e-26)
(2.67742e-06 -2.01617e-07 -1.25413e-26)
(2.66343e-06 -2.18564e-07 0)
(2.64973e-06 -2.36701e-07 -1.5449e-26)
(2.63571e-06 -2.53729e-07 1.68761e-26)
(2.62262e-06 -2.70833e-07 -2.30574e-30)
(2.60847e-06 -2.87158e-07 -3.90438e-26)
(2.59562e-06 -3.02806e-07 -2.46314e-30)
(2.58224e-06 -3.18613e-07 0)
(2.56863e-06 -3.33327e-07 -4.66269e-26)
(2.55606e-06 -3.47881e-07 -4.89297e-26)
(2.54254e-06 -3.62265e-07 0)
(2.52973e-06 -3.75788e-07 5.36547e-26)
(2.51685e-06 -3.89683e-07 5.56865e-26)
(2.5032e-06 -4.02675e-07 0)
(2.49076e-06 -4.15384e-07 6.00161e-26)
(2.47731e-06 -4.28215e-07 -6.62047e-31)
(2.46438e-06 -4.40113e-07 6.44126e-26)
(2.45149e-06 -4.52473e-07 -1.98479e-30)
(2.43778e-06 -4.64043e-07 0)
(2.42516e-06 -4.75497e-07 -1.39669e-25)
(2.41128e-06 -4.86998e-07 1.43999e-25)
(2.39827e-06 -4.97711e-07 -2.95519e-25)
(2.38458e-06 -5.0893e-07 0)
(2.37096e-06 -5.19241e-07 1.55579e-25)
(2.35736e-06 -5.29978e-07 -7.10912e-30)
(2.34311e-06 -5.40105e-07 5.12524e-30)
(2.32938e-06 -5.50201e-07 1.63202e-25)
(2.31473e-06 -5.60233e-07 -1.68666e-25)
(2.30058e-06 -5.69854e-07 1.69698e-25)
(2.28553e-06 -5.79685e-07 -1.34255e-30)
(2.27094e-06 -5.88958e-07 -3.5105e-25)
(2.25529e-06 -5.98445e-07 -1.80209e-25)
(2.24061e-06 -6.07589e-07 0)
(2.22379e-06 -6.16447e-07 -1.43135e-30)
(2.21043e-06 -6.2616e-07 2.80597e-30)
(2.19009e-06 -6.33673e-07 1.88114e-25)
(2.18261e-06 -6.45385e-07 1.44848e-30)
(2.15369e-06 -6.50086e-07 -1.44287e-30)
(2.16349e-06 -6.66845e-07 1.99505e-25)
(2.11496e-06 -6.6589e-07 -1.83481e-25)
(2.17305e-06 -6.98256e-07 -3.27427e-29)
(2.07627e-06 -6.81398e-07 -1.62365e-25)
(2.30366e-06 -7.71639e-07 -3.72093e-31)
(2.09775e-06 -7.19184e-07 9.3868e-26)
(3.33539e-06 -1.16529e-06 2.19707e-28)
(2.53205e-06 -2.95564e-06 -1.6705e-24)
(2.05703e-07 7.17141e-06 -1.3638e-28)
(1.04372e-07 5.40084e-06 -1.9935e-26)
(3.10632e-07 7.13412e-06 -7.62332e-27)
(9.16019e-07 8.13576e-06 3.04454e-26)
(2.96296e-06 9.7383e-06 -1.7958e-26)
(3.97198e-06 7.52296e-06 1.65888e-29)
(3.89977e-06 6.85611e-06 -9.20084e-30)
(4.56637e-06 6.75929e-06 2.59211e-25)
(4.70687e-06 6.03816e-06 1.96753e-25)
(5.00612e-06 5.68566e-06 2.79512e-29)
(5.0689e-06 5.16572e-06 0)
(5.20627e-06 4.82647e-06 3.45541e-29)
(5.23639e-06 4.44517e-06 5.32811e-25)
(5.29808e-06 4.15449e-06 0)
(5.31798e-06 3.87495e-06 -3.20866e-29)
(5.34272e-06 3.62694e-06 3.1848e-29)
(5.35502e-06 3.40799e-06 -2.50862e-25)
(5.36585e-06 3.20221e-06 2.34678e-25)
(5.37073e-06 3.01548e-06 0)
(5.37686e-06 2.85006e-06 -2.18301e-25)
(5.37645e-06 2.68617e-06 2.06298e-25)
(5.37548e-06 2.53968e-06 2.00846e-25)
(5.37619e-06 2.40279e-06 3.6899e-25)
(5.37107e-06 2.2674e-06 4.2988e-29)
(5.36571e-06 2.14544e-06 -4.07916e-29)
(5.36243e-06 2.02704e-06 1.52908e-25)
(5.35324e-06 1.91082e-06 0)
(5.34541e-06 1.80495e-06 1.62666e-29)
(5.33674e-06 1.69855e-06 -1.54673e-29)
(5.32473e-06 1.59667e-06 -1.42277e-29)
(5.31458e-06 1.50155e-06 2.4848e-29)
(5.30165e-06 1.40433e-06 -1.9888e-25)
(5.28623e-06 1.31225e-06 -9.33801e-26)
(5.27253e-06 1.22361e-06 -1.05737e-29)
(5.25491e-06 1.13414e-06 9.10331e-30)
(5.23685e-06 1.04997e-06 -8.92338e-30)
(5.21939e-06 9.662e-07 0)
(5.19823e-06 8.83109e-07 6.69903e-30)
(5.17734e-06 8.0413e-07 -1.23675e-29)
(5.15492e-06 7.24253e-07 4.44676e-26)
(5.13046e-06 6.46995e-07 4.53264e-30)
(5.10616e-06 5.71454e-07 1.67226e-26)
(5.07931e-06 4.95866e-07 0)
(5.05168e-06 4.23057e-07 0)
(5.02279e-06 3.50374e-07 -9.41942e-27)
(4.99252e-06 2.79306e-07 2.02207e-30)
(4.96117e-06 2.09632e-07 1.00508e-30)
(4.92853e-06 1.40415e-07 -9.8822e-31)
(4.89426e-06 7.29316e-08 2.87236e-28)
(4.85909e-06 6.11624e-09 -5.64631e-32)
(4.82204e-06 -5.95878e-08 -6.07026e-28)
(4.78355e-06 -1.24e-07 2.04592e-27)
(4.74972e-06 -1.85213e-07 3.38701e-27)
(4.7061e-06 -2.31919e-07 -4.25456e-27)
(4.67715e-06 -2.70718e-07 -1.03333e-26)
(4.64653e-06 -3.12866e-07 -1.18326e-26)
(4.61092e-06 -3.47022e-07 0)
(4.58679e-06 -3.76225e-07 -1.51859e-26)
(4.56316e-06 -4.07458e-07 1.6629e-26)
(4.53901e-06 -4.36785e-07 -1.81671e-26)
(4.51645e-06 -4.66239e-07 1.96149e-26)
(4.49209e-06 -4.94356e-07 4.20283e-26)
(4.46994e-06 -5.21305e-07 -5.46857e-30)
(4.44689e-06 -5.48525e-07 -4.74584e-26)
(4.42344e-06 -5.73867e-07 1.00368e-25)
(4.40178e-06 -5.9893e-07 5.26605e-26)
(4.37851e-06 -6.23701e-07 0)
(4.35644e-06 -6.46991e-07 -5.77459e-26)
(4.33426e-06 -6.70916e-07 -1.19867e-25)
(4.31075e-06 -6.93292e-07 0)
(4.28932e-06 -7.15178e-07 -6.45925e-26)
(4.26615e-06 -7.37274e-07 -6.69032e-26)
(4.24388e-06 -7.57764e-07 6.25731e-30)
(4.22167e-06 -7.79047e-07 -2.1997e-30)
(4.19807e-06 -7.98973e-07 4.49711e-30)
(4.17633e-06 -8.18696e-07 1.50318e-25)
(4.15241e-06 -8.38501e-07 -1.54985e-25)
(4.13002e-06 -8.5695e-07 1.59033e-25)
(4.10644e-06 -8.76268e-07 1.6214e-25)
(4.08299e-06 -8.94024e-07 -1.67444e-25)
(4.05956e-06 -9.12512e-07 1.68872e-25)
(4.03501e-06 -9.2995e-07 -1.75023e-25)
(4.01136e-06 -9.47336e-07 -2.65493e-30)
(3.98613e-06 -9.6461e-07 1.8153e-25)
(3.96177e-06 -9.81178e-07 -1.82638e-25)
(3.93585e-06 -9.98105e-07 -2.84394e-30)
(3.91073e-06 -1.01407e-06 1.88919e-25)
(3.88377e-06 -1.03041e-06 1.93949e-25)
(3.85849e-06 -1.04615e-06 1.47037e-30)
(3.82953e-06 -1.06141e-06 0)
(3.80653e-06 -1.07813e-06 1.98861e-25)
(3.77151e-06 -1.09109e-06 6.04039e-30)
(3.75861e-06 -1.11123e-06 0)
(3.70889e-06 -1.11939e-06 0)
(3.72569e-06 -1.14818e-06 0)
(3.6423e-06 -1.14672e-06 1.97475e-25)
(3.74214e-06 -1.20227e-06 2.21881e-25)
(3.57592e-06 -1.17385e-06 0)
(3.96676e-06 -1.32871e-06 0)
(3.61254e-06 -1.24129e-06 -1.00224e-25)
(5.7328e-06 -2.00333e-06 -3.04894e-25)
(4.23793e-06 -5.00973e-06 -1.73028e-24)
(2.94828e-07 1.03594e-05 1.62653e-28)
(1.51535e-07 7.8596e-06 2.1421e-26)
(4.70016e-07 1.03418e-05 -3.69427e-29)
(1.34794e-06 1.17798e-05 2.5088e-29)
(4.27941e-06 1.40676e-05 0)
(5.73988e-06 1.09129e-05 1.46142e-25)
(5.65131e-06 9.94622e-06 -1.92134e-26)
(6.61094e-06 9.79432e-06 -1.39254e-25)
(6.81804e-06 8.75731e-06 -1.0574e-25)
(7.25065e-06 8.24296e-06 0)
(7.34378e-06 7.49166e-06 0)
(7.54229e-06 6.99805e-06 0)
(7.58684e-06 6.44574e-06 -2.8654e-25)
(7.67581e-06 6.02329e-06 0)
(7.70476e-06 5.61785e-06 -3.45096e-29)
(7.74032e-06 5.25776e-06 3.42534e-29)
(7.75792e-06 4.93999e-06 2.69754e-25)
(7.77333e-06 4.64133e-06 3.0838e-29)
(7.78009e-06 4.37036e-06 -2.54055e-25)
(7.78864e-06 4.1303e-06 0)
(7.7878e-06 3.89259e-06 -2.21983e-25)
(7.78609e-06 3.68005e-06 -2.16058e-25)
(7.78682e-06 3.4815e-06 -1.98534e-25)
(7.77919e-06 3.28519e-06 -1.89853e-25)
(7.77118e-06 3.10831e-06 2.15587e-29)
(7.76616e-06 2.93666e-06 -7.24423e-31)
(7.75265e-06 2.7682e-06 1.58206e-25)
(7.74111e-06 2.61472e-06 0)
(7.72835e-06 2.46052e-06 -1.33543e-25)
(7.71079e-06 2.31287e-06 -1.60766e-29)
(7.6959e-06 2.17503e-06 -2.3312e-25)
(7.67704e-06 2.03418e-06 2.14067e-25)
(7.65456e-06 1.90077e-06 -1.26404e-29)
(7.63457e-06 1.77235e-06 9.03919e-26)
(7.60895e-06 1.64275e-06 -2.0276e-29)
(7.58267e-06 1.52081e-06 9.60401e-30)
(7.55727e-06 1.39948e-06 0)
(7.52654e-06 1.27914e-06 7.21018e-30)
(7.49618e-06 1.16475e-06 -6.9651e-30)
(7.46363e-06 1.04907e-06 1.27799e-30)
(7.42813e-06 9.37182e-07 5.47729e-30)
(7.39285e-06 8.27787e-07 0)
(7.35391e-06 7.18333e-07 0)
(7.31383e-06 6.129e-07 2.83178e-30)
(7.27194e-06 5.07657e-07 1.01323e-26)
(7.22804e-06 4.04754e-07 0)
(7.1826e-06 3.0387e-07 0)
(7.13527e-06 2.03654e-07 -5.65001e-31)
(7.0856e-06 1.05948e-07 4.86344e-31)
(7.03464e-06 9.21154e-09 6.10145e-32)
(6.98095e-06 -8.5913e-08 6.52895e-28)
(6.92519e-06 -1.79168e-07 -2.19983e-27)
(6.87614e-06 -2.67764e-07 3.64465e-27)
(6.81304e-06 -3.35403e-07 4.58209e-27)
(6.77106e-06 -3.91605e-07 2.22389e-26)
(6.7267e-06 -4.52609e-07 -1.27384e-26)
(6.67516e-06 -5.02084e-07 3.32341e-30)
(6.64016e-06 -5.44387e-07 1.63436e-26)
(6.60591e-06 -5.896e-07 2.28688e-30)
(6.57093e-06 -6.32059e-07 1.96213e-31)
(6.53825e-06 -6.74698e-07 -2.11103e-26)
(6.50297e-06 -7.15403e-07 0)
(6.47088e-06 -7.54418e-07 4.82617e-26)
(6.43749e-06 -7.93821e-07 -8.49147e-31)
(6.40354e-06 -8.30511e-07 8.90707e-31)
(6.37216e-06 -8.66792e-07 0)
(6.33846e-06 -9.02651e-07 -3.70814e-30)
(6.30649e-06 -9.36367e-07 7.57994e-30)
(6.27437e-06 -9.70998e-07 -5.68406e-30)
(6.24034e-06 -1.00339e-06 0)
(6.2093e-06 -1.03508e-06 0)
(6.17575e-06 -1.06706e-06 -7.20091e-26)
(6.14351e-06 -1.09672e-06 -1.49214e-25)
(6.11135e-06 -1.12753e-06 0)
(6.07719e-06 -1.15637e-06 7.93259e-26)
(6.0457e-06 -1.18492e-06 -9.86971e-30)
(6.01108e-06 -1.21359e-06 1.66815e-25)
(5.97865e-06 -1.2403e-06 -1.71168e-25)
(5.94451e-06 -1.26826e-06 -1.74504e-25)
(5.91056e-06 -1.29396e-06 1.80224e-25)
(5.87665e-06 -1.32073e-06 1.81764e-25)
(5.8411e-06 -1.34597e-06 2.84497e-30)
(5.80686e-06 -1.37113e-06 0)
(5.77034e-06 -1.39614e-06 0)
(5.73507e-06 -1.42012e-06 0)
(5.69755e-06 -1.44462e-06 0)
(5.66118e-06 -1.46774e-06 3.12224e-30)
(5.62216e-06 -1.49138e-06 -3.16579e-30)
(5.58556e-06 -1.51417e-06 2.09166e-25)
(5.54366e-06 -1.53627e-06 0)
(5.51036e-06 -1.56046e-06 -2.14026e-25)
(5.45971e-06 -1.57925e-06 -2.17914e-25)
(5.44103e-06 -1.60837e-06 1.67513e-30)
(5.36916e-06 -1.6203e-06 1.69695e-30)
(5.39345e-06 -1.66187e-06 -1.71881e-30)
(5.273e-06 -1.66006e-06 8.6499e-31)
(5.41743e-06 -1.74023e-06 -2.38891e-25)
(5.17744e-06 -1.70003e-06 1.67601e-30)
(5.74279e-06 -1.92358e-06 -1.21534e-30)
(5.23053e-06 -1.8016e-06 1.07869e-25)
(8.287e-06 -2.89677e-06 1.36721e-31)
(6.05288e-06 -7.2052e-06 2.48029e-24)
(3.87971e-07 1.37517e-05 5.7573e-30)
(2.0257e-07 1.05127e-05 1.15123e-26)
(6.53732e-07 1.37769e-05 8.55478e-27)
(1.82365e-06 1.56725e-05 -3.4448e-26)
(5.67873e-06 1.86708e-05 -1.39381e-29)
(7.62021e-06 1.4546e-05 -1.57134e-25)
(7.52426e-06 1.3258e-05 2.06e-26)
(8.79288e-06 1.30392e-05 2.00586e-29)
(9.07301e-06 1.1669e-05 -3.44692e-29)
(9.64718e-06 1.0979e-05 7.00969e-29)
(9.77376e-06 9.98135e-06 -3.7217e-29)
(1.00369e-05 9.32116e-06 1.63397e-25)
(1.00971e-05 8.58597e-06 -7.66278e-29)
(1.02146e-05 8.02168e-06 -1.6261e-25)
(1.0253e-05 7.48127e-06 0)
(1.02997e-05 7.00081e-06 -7.34871e-29)
(1.03225e-05 6.57701e-06 -2.90194e-25)
(1.03424e-05 6.17873e-06 6.55919e-29)
(1.03508e-05 5.81744e-06 2.73345e-25)
(1.03616e-05 5.49735e-06 2.52574e-25)
(1.03599e-05 5.18057e-06 2.38791e-25)
(1.03571e-05 4.89728e-06 0)
(1.03575e-05 4.63273e-06 0)
(1.03469e-05 4.37125e-06 4.08623e-25)
(1.03357e-05 4.13562e-06 -1.93236e-25)
(1.03286e-05 3.90703e-06 0)
(1.03103e-05 3.68274e-06 -3.40528e-25)
(1.02945e-05 3.47838e-06 -1.57345e-25)
(1.02772e-05 3.27313e-06 2.87416e-25)
(1.02535e-05 3.07661e-06 1.38377e-25)
(1.02334e-05 2.89315e-06 1.25458e-25)
(1.02081e-05 2.70574e-06 -1.152e-25)
(1.01779e-05 2.52822e-06 0)
(1.01511e-05 2.35736e-06 -1.07542e-29)
(1.01168e-05 2.18496e-06 8.9508e-26)
(1.00816e-05 2.02275e-06 1.10589e-29)
(1.00476e-05 1.86136e-06 -7.25795e-26)
(1.00066e-05 1.70131e-06 -6.64492e-26)
(9.96605e-06 1.54916e-06 -6.83047e-30)
(9.92261e-06 1.39533e-06 -5.14878e-26)
(9.87525e-06 1.24654e-06 -5.89539e-30)
(9.8282e-06 1.10107e-06 1.93819e-26)
(9.77629e-06 9.55536e-07 1.65854e-26)
(9.72287e-06 8.15346e-07 0)
(9.66706e-06 6.75416e-07 1.09094e-26)
(9.60858e-06 5.38603e-07 -8.4117e-27)
(9.54806e-06 4.04477e-07 1.16489e-30)
(9.48504e-06 2.71246e-07 -1.75377e-30)
(9.41892e-06 1.41352e-07 -3.33009e-28)
(9.35107e-06 1.27528e-08 0)
(9.27961e-06 -1.13699e-07 -1.40508e-27)
(9.20542e-06 -2.37668e-07 4.73456e-27)
(9.14011e-06 -3.55402e-07 -3.92459e-27)
(9.05629e-06 -4.45343e-07 2.66383e-30)
(9.00037e-06 -5.20093e-07 -1.19694e-26)
(8.94135e-06 -6.01165e-07 1.37057e-26)
(8.87284e-06 -6.66967e-07 0)
(8.82621e-06 -7.23234e-07 0)
(8.78062e-06 -7.8333e-07 0)
(8.73407e-06 -8.39771e-07 -5.33849e-30)
(8.69059e-06 -8.96443e-07 1.10926e-29)
(8.64367e-06 -9.50552e-07 -5.73927e-30)
(8.60098e-06 -1.00241e-06 -5.19442e-26)
(8.55658e-06 -1.05478e-06 1.09947e-25)
(8.51143e-06 -1.10355e-06 8.92217e-31)
(8.4697e-06 -1.15178e-06 0)
(8.42489e-06 -1.19944e-06 0)
(8.38238e-06 -1.24425e-06 0)
(8.33966e-06 -1.29028e-06 6.94241e-26)
(8.29442e-06 -1.33334e-06 0)
(8.25315e-06 -1.37545e-06 0)
(8.20854e-06 -1.41796e-06 1.54997e-25)
(8.16567e-06 -1.45739e-06 8.02948e-26)
(8.12291e-06 -1.49833e-06 0)
(8.0775e-06 -1.53667e-06 -1.70742e-25)
(8.03564e-06 -1.57462e-06 -5.38123e-30)
(7.98962e-06 -1.61272e-06 6.65794e-30)
(7.9465e-06 -1.64821e-06 3.68459e-25)
(7.90111e-06 -1.68538e-06 1.87823e-25)
(7.85598e-06 -1.71954e-06 -1.93974e-25)
(7.81089e-06 -1.7551e-06 -1.95622e-25)
(7.76365e-06 -1.78865e-06 -2.0277e-25)
(7.71813e-06 -1.8221e-06 3.07556e-30)
(7.66958e-06 -1.85533e-06 0)
(7.62271e-06 -1.8872e-06 0)
(7.57283e-06 -1.91976e-06 0)
(7.52449e-06 -1.95049e-06 0)
(7.47264e-06 -1.98192e-06 0)
(7.42401e-06 -2.0122e-06 -2.25118e-25)
(7.36832e-06 -2.04158e-06 0)
(7.3241e-06 -2.07373e-06 3.51417e-30)
(7.25682e-06 -2.09875e-06 -1.76683e-30)
(7.23203e-06 -2.13742e-06 -1.803e-30)
(7.13665e-06 -2.15342e-06 0)
(7.16898e-06 -2.20856e-06 -2.48832e-25)
(7.00925e-06 -2.20657e-06 3.6807e-30)
(7.20132e-06 -2.31288e-06 2.57108e-25)
(6.88318e-06 -2.26078e-06 -9.2522e-31)
(7.63479e-06 -2.55729e-06 2.83805e-25)
(6.95466e-06 -2.40164e-06 0)
(1.1003e-05 -3.84748e-06 0)
(7.98137e-06 -9.54878e-06 -1.32603e-24)
(4.85155e-07 1.7359e-05 0)
(2.58064e-07 1.33745e-05 -1.23671e-26)
(8.65015e-07 1.74532e-05 -1.11045e-28)
(2.34747e-06 1.98271e-05 3.70051e-26)
(7.16439e-06 2.35591e-05 2.25303e-26)
(9.6174e-06 1.84361e-05 0)
(9.52467e-06 1.6804e-05 2.34292e-29)
(1.11184e-05 1.65046e-05 -2.15151e-29)
(1.14783e-05 1.47834e-05 -3.70021e-29)
(1.22023e-05 1.39026e-05 1.15938e-28)
(1.23655e-05 1.26428e-05 -7.99447e-29)
(1.26967e-05 1.18029e-05 -3.51344e-25)
(1.27736e-05 1.08722e-05 3.30888e-25)
(1.29208e-05 1.01553e-05 1.74934e-25)
(1.29689e-05 9.47026e-06 -3.24803e-25)
(1.30267e-05 8.86061e-06 0)
(1.30546e-05 8.32311e-06 0)
(1.30786e-05 7.81807e-06 2.92081e-25)
(1.30882e-05 7.36001e-06 0)
(1.31007e-05 6.95422e-06 -2.71819e-25)
(1.30977e-05 6.55287e-06 -6.18168e-29)
(1.30932e-05 6.19387e-06 6.1976e-29)
(1.30928e-05 5.85876e-06 0)
(1.30786e-05 5.52769e-06 -4.39581e-25)
(1.30638e-05 5.22928e-06 2.07819e-25)
(1.3054e-05 4.93991e-06 4.56537e-29)
(1.30302e-05 4.65608e-06 3.664e-25)
(1.30097e-05 4.39743e-06 1.6935e-25)
(1.29873e-05 4.13776e-06 -1.54701e-25)
(1.29568e-05 3.88915e-06 -1.48864e-25)
(1.29309e-05 3.65708e-06 3.21745e-29)
(1.28984e-05 3.42009e-06 1.23932e-25)
(1.28599e-05 3.1956e-06 0)
(1.28256e-05 2.97956e-06 -1.04701e-25)
(1.27819e-05 2.76162e-06 -9.62949e-26)
(1.27371e-05 2.55653e-06 0)
(1.26938e-05 2.35254e-06 1.5626e-25)
(1.26417e-05 2.15025e-06 7.14902e-26)
(1.25902e-05 1.95796e-06 0)
(1.2535e-05 1.76356e-06 -1.28198e-29)
(1.2475e-05 1.57554e-06 1.26908e-29)
(1.24153e-05 1.39172e-06 -2.08582e-26)
(1.23495e-05 1.20783e-06 -1.78488e-26)
(1.22818e-05 1.0307e-06 0)
(1.22111e-05 8.53915e-07 -1.17431e-26)
(1.2137e-05 6.81073e-07 -2.46646e-30)
(1.20604e-05 5.11627e-07 0)
(1.19806e-05 3.43326e-07 0)
(1.1897e-05 1.79239e-07 3.59096e-28)
(1.18111e-05 1.67974e-08 -7.13397e-32)
(1.17207e-05 -1.42926e-07 1.51161e-27)
(1.16269e-05 -2.99514e-07 -2.54746e-27)
(1.15442e-05 -4.48173e-07 0)
(1.14384e-05 -5.61814e-07 5.30744e-27)
(1.13676e-05 -6.56284e-07 -1.2877e-26)
(1.1293e-05 -7.58655e-07 -7.23178e-30)
(1.12064e-05 -8.41813e-07 3.84938e-30)
(1.11474e-05 -9.12928e-07 -4.84774e-30)
(1.10897e-05 -9.88824e-07 4.83381e-30)
(1.10308e-05 -1.06011e-06 -2.26427e-26)
(1.09759e-05 -1.13168e-06 2.44486e-26)
(1.09166e-05 -1.20002e-06 0)
(1.08626e-05 -1.26552e-06 5.59012e-26)
(1.08065e-05 -1.33166e-06 -5.91628e-26)
(1.07494e-05 -1.39326e-06 -6.25517e-26)
(1.06967e-05 -1.45416e-06 -7.81732e-30)
(1.06401e-05 -1.51435e-06 -6.88013e-26)
(1.05863e-05 -1.57095e-06 0)
(1.05324e-05 -1.62907e-06 0)
(1.04752e-05 -1.68346e-06 -7.79787e-26)
(1.0423e-05 -1.73664e-06 4.827e-30)
(1.03667e-05 -1.79032e-06 -8.34062e-26)
(1.03125e-05 -1.84011e-06 0)
(1.02585e-05 -1.89181e-06 5.48502e-30)
(1.02011e-05 -1.94024e-06 9.18763e-26)
(1.01483e-05 -1.98815e-06 -5.79177e-30)
(1.00901e-05 -2.03627e-06 -1.93221e-25)
(1.00357e-05 -2.0811e-06 -1.98285e-25)
(9.97833e-06 -2.12802e-06 1.44883e-29)
(9.92132e-06 -2.17116e-06 -6.43501e-30)
(9.86437e-06 -2.21607e-06 2.1057e-25)
(9.8047e-06 -2.25844e-06 2.18223e-25)
(9.7472e-06 -2.30068e-06 -1.24479e-31)
(9.68589e-06 -2.34264e-06 -2.26341e-25)
(9.62669e-06 -2.38289e-06 -3.50181e-30)
(9.56371e-06 -2.42401e-06 7.14937e-30)
(9.50266e-06 -2.4628e-06 -3.56379e-30)
(9.43719e-06 -2.5025e-06 0)
(9.37579e-06 -2.54075e-06 -2.42312e-25)
(9.30548e-06 -2.57786e-06 -2.49548e-25)
(9.24969e-06 -2.61845e-06 -2.47963e-25)
(9.16478e-06 -2.65012e-06 2.5245e-25)
(9.13357e-06 -2.69891e-06 0)
(9.01329e-06 -2.71931e-06 1.96594e-30)
(9.0543e-06 -2.78885e-06 5.35647e-25)
(8.85304e-06 -2.78689e-06 0)
(9.09606e-06 -2.9209e-06 -2.7683e-25)
(8.69537e-06 -2.8569e-06 -2.17433e-25)
(9.6457e-06 -3.23081e-06 1.14301e-28)
(8.78777e-06 -3.04301e-06 0)
(1.38858e-05 -4.85726e-06 -1.53711e-31)
(1.00301e-05 -1.2041e-05 -7.00389e-25)
(5.86529e-07 2.11919e-05 0)
(3.18727e-07 1.64606e-05 0)
(1.10755e-06 2.13851e-05 -9.75949e-27)
(2.92417e-06 2.42573e-05 4.88807e-29)
(8.73986e-06 2.87441e-05 -4.85582e-26)
(1.17358e-05 2.25975e-05 -8.10512e-30)
(1.16588e-05 2.05974e-05 -1.34791e-30)
(1.35938e-05 2.02016e-05 2.30708e-29)
(1.40407e-05 1.81109e-05 1.30434e-25)
(1.49229e-05 1.7023e-05 0)
(1.51259e-05 1.54844e-05 0)
(1.55283e-05 1.44505e-05 1.88861e-25)
(1.5623e-05 1.3311e-05 -3.55865e-25)
(1.58008e-05 1.24299e-05 -1.88201e-25)
(1.58585e-05 1.159e-05 3.49509e-25)
(1.59274e-05 1.08418e-05 -3.50953e-25)
(1.59598e-05 1.01825e-05 3.35774e-25)
(1.59875e-05 9.56308e-06 -3.14243e-25)
(1.59975e-05 9.00145e-06 -7.80231e-29)
(1.60112e-05 8.50396e-06 0)
(1.60062e-05 8.01225e-06 6.65077e-29)
(1.59992e-05 7.57235e-06 -1.31517e-28)
(1.59973e-05 7.16188e-06 6.12515e-29)
(1.59789e-05 6.75659e-06 2.36518e-25)
(1.59596e-05 6.39121e-06 5.37238e-29)
(1.59466e-05 6.03706e-06 2.04924e-25)
(1.59166e-05 5.68982e-06 -1.9706e-25)
(1.58906e-05 5.37334e-06 -1.88661e-30)
(1.58623e-05 5.05576e-06 -1.6646e-25)
(1.58244e-05 4.75175e-06 -4.00745e-29)
(1.5792e-05 4.46796e-06 3.46259e-29)
(1.57516e-05 4.17829e-06 -1.33458e-25)
(1.5704e-05 3.90387e-06 1.25342e-25)
(1.56614e-05 3.63983e-06 -1.12699e-25)
(1.56076e-05 3.37353e-06 1.69698e-30)
(1.55524e-05 3.12292e-06 4.62202e-29)
(1.54991e-05 2.87369e-06 -8.40949e-26)
(1.54349e-05 2.62659e-06 -7.69944e-26)
(1.53716e-05 2.39168e-06 6.78766e-26)
(1.53039e-05 2.15424e-06 5.96565e-26)
(1.52302e-05 1.92461e-06 -1.2167e-29)
(1.5157e-05 1.70012e-06 1.42744e-30)
(1.50763e-05 1.47557e-06 1.92259e-26)
(1.49934e-05 1.25928e-06 0)
(1.49067e-05 1.04341e-06 5.50008e-30)
(1.4816e-05 8.32378e-07 -8.28415e-30)
(1.47223e-05 6.25498e-07 3.4076e-27)
(1.46246e-05 4.20031e-07 2.08061e-27)
(1.45222e-05 2.19712e-07 -7.91328e-32)
(1.44172e-05 2.14106e-08 5.90637e-31)
(1.43067e-05 -1.73563e-07 -8.13755e-28)
(1.41919e-05 -3.64709e-07 0)
(1.40908e-05 -5.46105e-07 0)
(1.39617e-05 -6.84867e-07 -1.14174e-26)
(1.3875e-05 -8.00254e-07 8.65098e-31)
(1.37838e-05 -9.25172e-07 0)
(1.36781e-05 -1.02674e-06 1.81129e-26)
(1.36058e-05 -1.1136e-06 -4.69957e-30)
(1.35353e-05 -1.20623e-06 5.7011e-30)
(1.34634e-05 -1.29324e-06 4.87308e-26)
(1.33961e-05 -1.38059e-06 -5.26307e-26)
(1.33237e-05 -1.46401e-06 6.64758e-30)
(1.32578e-05 -1.54395e-06 -6.01622e-26)
(1.31892e-05 -1.62466e-06 -7.99242e-30)
(1.31195e-05 -1.69985e-06 7.99875e-30)
(1.30551e-05 -1.77417e-06 -8.82712e-30)
(1.2986e-05 -1.84763e-06 7.40643e-26)
(1.29203e-05 -1.91672e-06 -7.75022e-26)
(1.28544e-05 -1.98764e-06 9.62595e-30)
(1.27846e-05 -2.05402e-06 8.39184e-26)
(1.27209e-05 -2.11892e-06 0)
(1.26522e-05 -2.18443e-06 0)
(1.2586e-05 -2.24521e-06 0)
(1.25201e-05 -2.30829e-06 -5.90344e-30)
(1.245e-05 -2.36739e-06 5.94937e-30)
(1.23854e-05 -2.42587e-06 0)
(1.23145e-05 -2.48459e-06 2.0797e-25)
(1.2248e-05 -2.53929e-06 -2.13408e-25)
(1.2178e-05 -2.59656e-06 -2.17568e-25)
(1.21084e-05 -2.6492e-06 -2.24705e-25)
(1.20389e-05 -2.70401e-06 3.25479e-30)
(1.19661e-05 -2.75571e-06 -2.34884e-25)
(1.18959e-05 -2.80725e-06 0)
(1.18211e-05 -2.85846e-06 -1.19823e-29)
(1.17488e-05 -2.90758e-06 0)
(1.16719e-05 -2.95776e-06 2.52036e-25)
(1.15974e-05 -3.0051e-06 0)
(1.15175e-05 -3.05355e-06 4.00453e-30)
(1.14426e-05 -3.10023e-06 2.60787e-25)
(1.13569e-05 -3.14554e-06 2.68574e-25)
(1.12889e-05 -3.19508e-06 2.66881e-25)
(1.11853e-05 -3.23381e-06 -2.71707e-25)
(1.11474e-05 -3.29332e-06 0)
(1.10009e-05 -3.31849e-06 0)
(1.10513e-05 -3.40324e-06 -5.76574e-25)
(1.08062e-05 -3.40158e-06 -2.64887e-25)
(1.11037e-05 -3.56491e-06 5.95951e-25)
(1.06161e-05 -3.48915e-06 1.12021e-28)
(1.17783e-05 -3.94509e-06 -6.57868e-25)
(1.07326e-05 -3.72744e-06 -5.19339e-31)
(1.69398e-05 -5.92789e-06 4.1044e-25)
(1.22044e-05 -1.46861e-05 3.02607e-24)
(6.92337e-07 2.52616e-05 0)
(3.85428e-07 1.97874e-05 1.42581e-26)
(1.38541e-06 2.55876e-05 -5.71447e-29)
(3.55898e-06 2.89772e-05 6.44462e-29)
(1.04087e-05 3.42372e-05 -3.32761e-29)
(1.39796e-05 2.70452e-05 1.87541e-25)
(1.3933e-05 2.46521e-05 -5.38514e-29)
(1.62254e-05 2.41416e-05 -2.90802e-29)
(1.67669e-05 2.16625e-05 -1.40116e-25)
(1.78157e-05 2.03497e-05 1.40632e-29)
(1.80619e-05 1.85149e-05 1.83855e-25)
(1.85388e-05 1.72718e-05 -2.02616e-25)
(1.86521e-05 1.59092e-05 0)
(1.8861e-05 1.48516e-05 2.02254e-25)
(1.89282e-05 1.3846e-05 3.75565e-25)
(1.90077e-05 1.29492e-05 3.77729e-25)
(1.90439e-05 1.21594e-05 -3.61138e-25)
(1.90745e-05 1.14176e-05 3.37826e-25)
(1.90841e-05 1.07452e-05 0)
(1.90982e-05 1.01497e-05 7.60707e-29)
(1.90901e-05 9.56152e-06 -7.33111e-29)
(1.90798e-05 9.03524e-06 0)
(1.90757e-05 8.54441e-06 0)
(1.9052e-05 8.06005e-06 0)
(1.90275e-05 7.62331e-06 0)
(1.90103e-05 7.20021e-06 -2.20601e-25)
(1.89733e-05 6.78555e-06 0)
(1.8941e-05 6.40757e-06 0)
(1.89061e-05 6.02847e-06 3.58287e-25)
(1.88598e-05 5.66561e-06 -4.31259e-29)
(1.88201e-05 5.32692e-06 3.72636e-29)
(1.87711e-05 4.98134e-06 1.43539e-25)
(1.87134e-05 4.65397e-06 -1.34842e-25)
(1.86618e-05 4.33902e-06 -1.83414e-29)
(1.85969e-05 4.02147e-06 1.11583e-25)
(1.85304e-05 3.7226e-06 2.39722e-29)
(1.84662e-05 3.42546e-06 9.04574e-26)
(1.83892e-05 3.13089e-06 8.28563e-26)
(1.83131e-05 2.85086e-06 -7.29907e-26)
(1.82319e-05 2.56787e-06 -6.42163e-26)
(1.81435e-05 2.29418e-06 -1.47024e-29)
(1.80558e-05 2.02665e-06 1.10439e-29)
(1.79593e-05 1.75908e-06 -6.29051e-30)
(1.786e-05 1.50135e-06 0)
(1.77564e-05 1.24415e-06 0)
(1.7648e-05 9.9273e-07 2.09897e-26)
(1.75359e-05 7.46263e-07 4.37651e-30)
(1.74192e-05 5.01501e-07 -2.23912e-27)
(1.7297e-05 2.62874e-07 0)
(1.71715e-05 2.66667e-08 0)
(1.70396e-05 -2.05564e-07 0)
(1.69027e-05 -4.33237e-07 0)
(1.67819e-05 -6.49204e-07 -4.89139e-27)
(1.66282e-05 -8.14535e-07 1.2287e-26)
(1.65246e-05 -9.52056e-07 1.49139e-26)
(1.64158e-05 -1.10079e-06 1.70851e-26)
(1.62898e-05 -1.22183e-06 -1.94882e-26)
(1.62034e-05 -1.32536e-06 2.19217e-26)
(1.61193e-05 -1.43566e-06 -6.13544e-30)
(1.60335e-05 -1.53929e-06 -2.6219e-26)
(1.59533e-05 -1.64331e-06 2.83245e-26)
(1.5867e-05 -1.74265e-06 -6.06865e-26)
(1.57883e-05 -1.83786e-06 -8.13695e-30)
(1.57066e-05 -1.93395e-06 -4.70057e-31)
(1.56235e-05 -2.02351e-06 8.60856e-30)
(1.55467e-05 -2.11201e-06 9.50016e-30)
(1.54643e-05 -2.19949e-06 4.4047e-31)
(1.53861e-05 -2.28176e-06 1.66771e-25)
(1.53076e-05 -2.3662e-06 8.65424e-26)
(1.52245e-05 -2.44526e-06 9.03317e-26)
(1.51485e-05 -2.52254e-06 -1.15774e-29)
(1.50666e-05 -2.60054e-06 -3.90434e-31)
(1.49878e-05 -2.67292e-06 1.20207e-29)
(1.49092e-05 -2.74803e-06 0)
(1.48258e-05 -2.81841e-06 -1.31733e-29)
(1.47488e-05 -2.88803e-06 1.30697e-29)
(1.46643e-05 -2.95795e-06 1.62749e-29)
(1.45851e-05 -3.02309e-06 4.59374e-25)
(1.45017e-05 -3.09127e-06 0)
(1.44188e-05 -3.15396e-06 2.41838e-25)