/*--------------------------------*- C++ -*----------------------------------*\
| =========                 |                                                 |
| \\      /  F ield         | OpenFOAM: The Open Source CFD Toolbox           |
|  \\    /   O peration     | Version:  5.x                                   |
|   \\  /    A nd           | Web:      www.OpenFOAM.org                      |
|    \\/     M anipulation  |                                                 |
\*---------------------------------------------------------------------------*/
FoamFile
{
    version     2.0;
    format      ascii;
    class       volVectorField;
    location    "500";
    object      wallShearStress;
}
// * * * * * * * * * * * * * * * * * * * * * * * * * * * * * * * * * * * * * //

dimensions      [0 2 -2 0 0 0 0];

internalField   uniform (0 0 0);

boundaryField
{
    inlet
    {
        type            calculated;
        value           uniform (0 0 0);
    }
    outlet
    {
        type            calculated;
        value           uniform (0 0 0);
    }
    walls
    {
        type            calculated;
        value           nonuniform List<vector> 
204
(
(-2.06581e-06 -5.1997e-05 8.99239e-29)
(-7.21051e-07 -3.59394e-05 -8.62929e-29)
(-2.11225e-06 -5.10231e-05 -7.58031e-26)
(-6.22963e-06 -5.6672e-05 5.58762e-26)
(-1.83722e-05 -6.06601e-05 9.4407e-24)
(-2.04124e-05 -3.85929e-05 -1.62142e-23)
(-1.78665e-05 -3.13732e-05 -1.02028e-23)
(-2.07438e-05 -3.07328e-05 -1.64332e-28)
(-1.8725e-05 -2.40034e-05 1.6984e-27)
(-1.88636e-05 -2.14215e-05 1.60744e-27)
(-1.73214e-05 -1.76402e-05 1.52911e-27)
(-1.65553e-05 -1.53397e-05 -1.27022e-23)
(-1.53374e-05 -1.301e-05 -2.34819e-23)
(-1.4405e-05 -1.12867e-05 -6.09386e-28)
(-1.34799e-05 -9.81305e-06 2.12273e-23)
(-1.26156e-05 -8.55539e-06 -2.04006e-23)
(-1.18737e-05 -7.54789e-06 -2.38615e-27)
(-1.11817e-05 -6.66473e-06 -1.23978e-39)
(-1.05525e-05 -5.91652e-06 3.35512e-23)
(-1.00377e-05 -5.31272e-06 1.50205e-23)
(-9.52143e-06 -4.74934e-06 -7.74862e-41)
(-9.0833e-06 -4.28392e-06 -2.86986e-42)
(-8.70674e-06 -3.88411e-06 1.13805e-23)
(-8.33267e-06 -3.51051e-06 -1.03948e-23)
(-8.01728e-06 -3.19882e-06 -9.39809e-24)
(-7.73673e-06 -2.91793e-06 -1.62955e-23)
(-7.45817e-06 -2.65578e-06 7.35224e-24)
(-7.22634e-06 -2.43389e-06 -6.33919e-24)
(-7.00486e-06 -2.22351e-06 5.29676e-24)
(-6.79307e-06 -2.03115e-06 4.59389e-24)
(-6.61573e-06 -1.8636e-06 -3.66561e-24)
(-6.43494e-06 -1.69912e-06 5.38099e-42)
(-6.26645e-06 -1.55036e-06 2.11244e-24)
(-6.11925e-06 -1.4151e-06 -1.21469e-28)
(-5.96638e-06 -1.2828e-06 1.20977e-28)
(-5.82853e-06 -1.16397e-06 7.57679e-28)
(-5.70091e-06 -1.05081e-06 6.44642e-25)
(-5.56959e-06 -9.41956e-07 -6.67854e-28)
(-5.45246e-06 -8.42768e-07 -2.56619e-28)
(-5.33585e-06 -7.4577e-07 -2.31686e-24)
(-5.22242e-06 -6.54843e-07 3.13431e-28)
(-5.11847e-06 -5.693e-07 -1.11384e-40)
(-5.01265e-06 -4.86011e-07 -1.79366e-43)
(-4.91441e-06 -4.08323e-07 -2.03645e-24)
(-4.81876e-06 -3.33259e-07 8.96831e-44)
(-4.72645e-06 -2.6151e-07 -4.74155e-24)
(-4.63933e-06 -1.93617e-07 -1.23803e-24)
(-4.55439e-06 -1.27243e-07 -1.30571e-24)
(-4.4736e-06 -6.46485e-08 6.2425e-41)
(-4.39608e-06 -3.54761e-09 -4.29148e-44)
(-4.32101e-06 5.51769e-08 -7.10193e-25)
(-4.24765e-06 1.11848e-07 -7.01751e-28)
(-4.18373e-06 1.64502e-07 -1.80618e-24)
(-4.11573e-06 2.04286e-07 -1.84329e-24)
(-4.06895e-06 2.36572e-07 -3.76268e-24)
(-4.02615e-06 2.72276e-07 3.82877e-24)
(-3.9803e-06 3.00451e-07 -7.75185e-24)
(-3.95065e-06 3.25015e-07 -4.826e-28)
(-3.92449e-06 3.51139e-07 3.95762e-24)
(-3.90065e-06 3.76148e-07 -3.98662e-24)
(-3.88079e-06 4.01223e-07 -8.96831e-44)
(-3.86065e-06 4.25559e-07 -8.07499e-24)
(-3.84367e-06 4.48786e-07 4.93249e-28)
(-3.82714e-06 4.72676e-07 8.13899e-24)
(-3.81075e-06 4.94834e-07 4.97097e-28)
(-3.79641e-06 5.17081e-07 -8.17035e-24)
(-3.78141e-06 5.39059e-07 -2.49382e-28)
(-3.76728e-06 5.59948e-07 -2.79094e-40)
(-3.75358e-06 5.81405e-07 -8.18677e-24)
(-3.73882e-06 6.01729e-07 -1.12104e-44)
(-3.72546e-06 6.21515e-07 -8.17924e-24)
(-3.71132e-06 6.41768e-07 -1.63825e-23)
(-3.69724e-06 6.60491e-07 -1.39188e-40)
(-3.68365e-06 6.80117e-07 2.48945e-28)
(-3.66897e-06 6.9859e-07 -2.49939e-28)
(-3.65546e-06 7.16933e-07 -2.47981e-28)
(-3.64128e-06 7.35589e-07 1.62954e-23)
(-3.6277e-06 7.53041e-07 -3.25008e-23)
(-3.6145e-06 7.7155e-07 1.43493e-42)
(-3.60117e-06 7.88802e-07 8.17192e-40)
(-3.58864e-06 8.06901e-07 1.60076e-23)
(-3.5756e-06 8.2433e-07 -1.61846e-23)
(-3.56311e-06 8.4171e-07 1.58727e-23)
(-3.55006e-06 8.59336e-07 2.44819e-28)
(-3.53668e-06 8.76146e-07 -1.20469e-28)
(-3.52254e-06 8.93561e-07 1.59254e-23)
(-3.50729e-06 9.09732e-07 2.58473e-28)
(-3.49087e-06 9.26472e-07 1.08122e-31)
(-3.47282e-06 9.41894e-07 -1.18814e-28)
(-3.45288e-06 9.57362e-07 -1.58746e-23)
(-3.43164e-06 9.72297e-07 7.17465e-43)
(-3.40612e-06 9.85756e-07 -1.20118e-28)
(-3.38408e-06 1.00087e-06 1.78621e-28)
(-3.35078e-06 1.01163e-06 -5.91733e-29)
(-3.33689e-06 1.02872e-06 -1.0266e-28)
(-3.2958e-06 1.03779e-06 -1.56209e-23)
(-3.31623e-06 1.06577e-06 1.5463e-23)
(-3.26851e-06 1.07242e-06 -3.08599e-23)
(-3.42601e-06 1.14741e-06 -5.87092e-29)
(-3.37249e-06 1.15406e-06 1.52466e-23)
(-4.31303e-06 1.50579e-06 -2.62526e-28)
(-3.90098e-06 5.99714e-06 3.12174e-23)
(1.54117e-05 -5.36253e-05 6.59382e-24)
(1.24156e-05 -3.59675e-05 -1.45692e-23)
(1.86938e-05 -3.60149e-05 1.66573e-27)
(1.61413e-05 -2.41247e-05 -2.66543e-23)
(1.57722e-05 -1.9072e-05 3.11741e-23)
(1.20583e-05 -1.20935e-05 -3.05095e-23)
(9.43142e-06 -8.01975e-06 3.85562e-27)
(5.95626e-06 -4.35771e-06 -1.68425e-39)
(3.23453e-06 -2.06731e-06 -1.72192e-41)
(6.29719e-07 -3.63033e-07 -3.03608e-23)
(-1.46865e-06 7.13192e-07 -1.58118e-27)
(-3.25186e-06 1.41693e-06 2.8916e-23)
(-4.68634e-06 1.82897e-06 5.33942e-23)
(-5.86692e-06 2.05583e-06 -2.67648e-23)
(-6.7996e-06 2.1431e-06 1.22983e-26)
(-7.56037e-06 2.14596e-06 -2.3932e-23)
(-8.166e-06 2.08721e-06 4.73807e-23)
(-8.63901e-06 1.9893e-06 0)
(-9.01734e-06 1.86957e-06 -1.08218e-23)
(-9.31381e-06 1.73444e-06 4.44111e-40)
(-9.53228e-06 1.59113e-06 3.03448e-28)
(-9.71219e-06 1.44816e-06 1.94752e-23)
(-9.83342e-06 1.30482e-06 -6.00027e-29)
(-9.91906e-06 1.16614e-06 -5.56531e-29)
(-9.98524e-06 1.03058e-06 -8.58755e-24)
(-1.00106e-05 9.00757e-07 -8.06933e-24)
(-1.00273e-05 7.79451e-07 7.90395e-24)
(-1.00266e-05 6.61253e-07 7.17465e-43)
(-1.00002e-05 5.51493e-07 3.48989e-27)
(-9.97927e-06 4.48655e-07 -3.51497e-27)
(-9.93695e-06 3.50395e-07 3.39581e-24)
(-9.88799e-06 2.61666e-07 -5.8294e-43)
(-9.84236e-06 1.75451e-07 1.60358e-24)
(-9.77594e-06 9.66749e-08 -7.60802e-25)
(-9.71938e-06 2.57043e-08 -1.86173e-25)
(-9.65523e-06 -4.4065e-08 3.56723e-25)
(-9.58189e-06 -1.04342e-07 2.69248e-27)
(-9.52102e-06 -1.62079e-07 -1.35564e-24)
(-9.44362e-06 -2.14796e-07 -2.53828e-27)
(-9.37629e-06 -2.59679e-07 2.52384e-24)
(-9.30733e-06 -3.04905e-07 -2.44874e-24)
(-9.23093e-06 -3.41083e-07 1.14122e-27)
(-9.16898e-06 -3.75984e-07 -4.61919e-24)
(-9.09308e-06 -4.06077e-07 4.42002e-24)
(-9.03153e-06 -4.30043e-07 8.63619e-24)
(-8.96551e-06 -4.5423e-07 -1.02198e-27)
(-8.90247e-06 -4.69878e-07 -8.07738e-24)
(-8.84788e-06 -4.86684e-07 7.8675e-24)
(-8.78845e-06 -4.95996e-07 -9.55243e-28)
(-8.74553e-06 -5.0489e-07 9.08151e-28)
(-8.695e-06 -5.08658e-07 8.66025e-28)
(-8.67089e-06 -5.0471e-07 -8.54688e-28)
(-8.67292e-06 -5.09625e-07 8.33242e-24)
(-8.65068e-06 -5.22271e-07 8.27342e-24)
(-8.62983e-06 -5.31183e-07 3.47214e-29)
(-8.61595e-06 -5.4708e-07 9.83656e-28)
(-8.57718e-06 -5.67393e-07 -1.96933e-27)
(-8.52882e-06 -5.83167e-07 9.76677e-28)
(-8.48573e-06 -5.94927e-07 7.90089e-24)
(-8.4448e-06 -6.07126e-07 0)
(-8.39826e-06 -6.17314e-07 1.5543e-23)
(-8.35894e-06 -6.24908e-07 -7.71057e-24)
(-8.31988e-06 -6.33605e-07 9.30624e-28)
(-8.2779e-06 -6.39417e-07 -1.85103e-27)
(-8.24439e-06 -6.44533e-07 -7.5114e-24)
(-8.20714e-06 -6.49755e-07 -9.07304e-28)
(-8.17319e-06 -6.52427e-07 1.35559e-27)
(-8.14342e-06 -6.55829e-07 -4.47719e-28)
(-8.11028e-06 -6.57855e-07 1.30758e-40)
(-8.08399e-06 -6.58757e-07 7.19592e-24)
(-8.05685e-06 -6.60237e-07 4.34183e-28)
(-8.03116e-06 -6.60037e-07 -7.09999e-24)
(-8.00983e-06 -6.6007e-07 6.98555e-24)
(-7.98688e-06 -6.59561e-07 4.2379e-28)
(-7.96904e-06 -6.58256e-07 -4.20965e-28)
(-7.95141e-06 -6.57316e-07 -8.96831e-44)
(-7.93627e-06 -6.55564e-07 -6.78012e-24)
(-7.92374e-06 -6.53956e-07 6.65227e-24)
(-7.91245e-06 -6.52106e-07 -8.96831e-43)
(-7.90468e-06 -6.50046e-07 -6.51311e-24)
(-7.89845e-06 -6.48149e-07 -1.29875e-23)
(-7.89567e-06 -6.46107e-07 -1.2792e-23)
(-7.89529e-06 -6.44225e-07 -6.32689e-24)
(-7.89847e-06 -6.42528e-07 6.26767e-24)
(-7.90478e-06 -6.40941e-07 6.15512e-24)
(-7.91517e-06 -6.39769e-07 1.22412e-23)
(-7.93002e-06 -6.38798e-07 6.02491e-40)
(-7.94935e-06 -6.38403e-07 -1.80445e-28)
(-7.97577e-06 -6.3843e-07 1.78401e-28)
(-8.00696e-06 -6.39236e-07 -5.74591e-24)
(-8.04944e-06 -6.40848e-07 -5.64572e-24)
(-8.0972e-06 -6.43337e-07 -2.7593e-30)
(-8.16406e-06 -6.47387e-07 -1.69168e-28)
(-8.23606e-06 -6.52228e-07 -5.23553e-24)
(-8.34815e-06 -6.6059e-07 5.17526e-24)
(-8.45252e-06 -6.68736e-07 5.08449e-24)
(-8.66391e-06 -6.85733e-07 9.76182e-24)
(-8.80877e-06 -6.98378e-07 -8.96831e-44)
(-9.30096e-06 -7.38709e-07 4.54343e-24)
(-9.51091e-06 -7.59219e-07 -1.76632e-29)
(-1.12788e-05 -9.03092e-07 4.05708e-24)
(-1.11454e-05 -5.70986e-06 7.239e-24)
)
;
    }
    frontAndBack
    {
        type            empty;
    }
}


// ************************************************************************* //
