/*--------------------------------*- C++ -*----------------------------------*\
| =========                 |                                                 |
| \\      /  F ield         | OpenFOAM: The Open Source CFD Toolbox           |
|  \\    /   O peration     | Version:  5.x                                   |
|   \\  /    A nd           | Web:      www.OpenFOAM.org                      |
|    \\/     M anipulation  |                                                 |
\*---------------------------------------------------------------------------*/
FoamFile
{
    version     2.0;
    format      ascii;
    class       volScalarField;
    location    "500";
    object      yPlus;
}
// * * * * * * * * * * * * * * * * * * * * * * * * * * * * * * * * * * * * * //

dimensions      [0 0 0 0 0 0 0];

internalField   uniform 0;

boundaryField
{
    inlet
    {
        type            calculated;
        value           uniform 0;
    }
    outlet
    {
        type            calculated;
        value           uniform 0;
    }
    walls
    {
        type            calculated;
        value           nonuniform List<scalar> 
204
(
0.0249442
0.0208807
0.0250477
0.026691
0.0281919
0.0228607
0.0208922
0.0209851
0.0188418
0.0180895
0.016697
0.0158409
0.0148509
0.0140831
0.0133718
0.0127192
0.0121678
0.0116514
0.0111872
0.0108011
0.0104137
0.0100832
0.00979171
0.00950201
0.009256
0.00903005
0.00880722
0.00861911
0.00843549
0.00826139
0.00811255
0.00795988
0.007819
0.00769347
0.00756431
0.00744866
0.00733984
0.00722988
0.0071322
0.00703481
0.00694185
0.00685678
0.00677115
0.00669295
0.00661729
0.00654556
0.00647896
0.00641487
0.00635543
0.00629943
0.00624655
0.00619637
0.00615203
0.00610868
0.00608523
0.00606302
0.00604219
0.00603639
0.00603235
0.00603107
0.00603299
0.00603538
0.00604099
0.00604699
0.00605405
0.00606314
0.00607191
0.00608225
0.00609285
0.00610333
0.00611542
0.0061269
0.00613925
0.0061519
0.00616421
0.00617788
0.00619096
0.00620529
0.00621972
0.00623476
0.00625038
0.006266
0.00628233
0.00629823
0.00631427
0.00632952
0.00634426
0.00635776
0.00637017
0.00638074
0.00639016
0.0063957
0.00640418
0.00640227
0.00641861
0.00640858
0.00645848
0.00644185
0.00662603
0.00660532
0.00750719
0.0080227
0.0249712
0.020784
0.0209161
0.0172972
0.0155677
0.0125871
0.0104404
0.00786786
0.00555526
0.00237352
0.00350348
0.00510066
0.00601591
0.00663855
0.00707038
0.00739483
0.00763769
0.00782204
0.00796895
0.00808397
0.00817166
0.00824798
0.00830471
0.00835155
0.00839166
0.00841917
0.00844662
0.00846674
0.00847992
0.00849677
0.00850525
0.00851439
0.00852371
0.00852642
0.00853571
0.00854011
0.00854401
0.00855302
0.00855556
0.00856553
0.00857302
0.00858055
0.00859447
0.00860301
0.00862082
0.00863541
0.008655
0.00867771
0.00870097
0.0087326
0.00876228
0.00880911
0.00886093
0.00889118
0.00892301
0.00895532
0.008972
0.00898467
0.00900122
0.00901837
0.00903267
0.0090515
0.00906976
0.00908695
0.0091089
0.0091284
0.00915031
0.00917423
0.00919637
0.00922268
0.00924819
0.00927487
0.009304
0.00933221
0.00936363
0.00939505
0.00942817
0.00946284
0.00949836
0.00953613
0.00957489
0.00961591
0.00965851
0.00970344
0.00975048
0.00980019
0.0098529
0.0099086
0.00996899
0.0100326
0.0101036
0.0101783
0.0102653
0.0103558
0.0104719
0.0105836
0.0107622
0.0108995
0.011249
0.0114253
0.0124985
0.0128728
)
;
    }
    frontAndBack
    {
        type            empty;
    }
}


// ************************************************************************* //
