/*--------------------------------*- C++ -*----------------------------------*\
| =========                 |                                                 |
| \\      /  F ield         | OpenFOAM: The Open Source CFD Toolbox           |
|  \\    /   O peration     | Version:  5.x                                   |
|   \\  /    A nd           | Web:      www.OpenFOAM.org                      |
|    \\/     M anipulation  |                                                 |
\*---------------------------------------------------------------------------*/
FoamFile
{
    version     2.0;
    format      ascii;
    class       volScalarField;
    location    "350";
    object      nut;
}
// * * * * * * * * * * * * * * * * * * * * * * * * * * * * * * * * * * * * * //

dimensions      [0 2 -1 0 0 0 0];

internalField   nonuniform List<scalar> 
11040
(
0.002368
0.00116968
0.000413614
0.000546985
0.000462675
0.000450306
0.000417633
0.000385071
0.000356404
0.000331836
0.00031508
0.000304253
0.000298216
0.000296413
0.00029784
0.000302375
0.000309441
0.00031845
0.000328691
0.000339261
0.000349098
0.000357348
0.00036503
0.000375249
0.000392363
0.000422298
0.00043658
0.000410229
0.000344711
0.000272288
0.00028609
0.000301394
0.000323505
0.000352394
0.000384315
0.000460518
0.000552475
0.000611142
0.000700471
0.000843632
0.000289251
0.00499548
0.00368248
0.00275842
0.00266678
0.00199768
0.00166346
0.00123017
0.00100102
0.000856262
0.000737406
0.000658677
0.000607318
0.000575756
0.000561223
0.000558394
0.000566497
0.000583414
0.000608588
0.000641702
0.00068266
0.000731422
0.00078614
0.00084441
0.000909252
0.000981448
0.00106116
0.00114178
0.00122005
0.00129927
0.00138126
0.0014756
0.00157747
0.0016849
0.00179966
0.00192521
0.00206026
0.00220293
0.00235423
0.00252814
0.00272328
0.0024171
0.0102939
0.00757678
0.00545111
0.0045711
0.00446288
0.00389162
0.00293785
0.00233168
0.00198872
0.00170461
0.00150991
0.00138227
0.00130087
0.0012644
0.00125538
0.00127476
0.00131687
0.00137965
0.00146195
0.00156315
0.00168174
0.00181179
0.00194906
0.00209839
0.00225882
0.00242898
0.00260673
0.00279096
0.00298337
0.00318759
0.00340791
0.0036437
0.00389431
0.00416442
0.00446041
0.00478768
0.00514702
0.00554617
0.00598875
0.00645576
0.00666707
0.0173123
0.0130174
0.00939051
0.00708087
0.00631815
0.00624199
0.00557802
0.00442409
0.00376852
0.00320941
0.00281061
0.00254809
0.00236808
0.00228707
0.00226042
0.00229038
0.00236526
0.00247912
0.00262841
0.00281248
0.00302727
0.0032636
0.00351449
0.00378646
0.0040771
0.00438386
0.00470504
0.0050402
0.00539129
0.00576403
0.00616158
0.00658682
0.00704027
0.00752999
0.00806702
0.00866227
0.0093196
0.010058
0.0108748
0.0117656
0.0126197
0.025285
0.020521
0.0150901
0.0111711
0.00888046
0.00823528
0.00830256
0.00783149
0.00669913
0.00563248
0.00480972
0.00430719
0.00393648
0.00376147
0.00368477
0.00371102
0.00381981
0.00399767
0.00423387
0.00452947
0.00487381
0.00525281
0.00565691
0.00609461
0.00656119
0.00705325
0.00756764
0.00810344
0.00866325
0.00925651
0.00988859
0.0105654
0.0112895
0.0120729
0.0129328
0.0138883
0.0149491
0.0161487
0.017482
0.018982
0.0207021
0.0339313
0.0293449
0.0230919
0.0176875
0.0135226
0.0111161
0.0105028
0.0107518
0.0105573
0.00957835
0.00808422
0.00713668
0.0063412
0.00590864
0.00567214
0.00565736
0.00578832
0.00604026
0.00638189
0.00682228
0.00733619
0.00790131
0.00850626
0.00916241
0.00986014
0.0105928
0.0113571
0.0121501
0.0129752
0.013847
0.0147762
0.015773
0.0168434
0.0180037
0.0192789
0.0206998
0.022287
0.0240922
0.0261161
0.0284428
0.0312599
0.0431246
0.0389013
0.0328407
0.026218
0.0206553
0.0163172
0.0137667
0.0131261
0.0135478
0.0136723
0.0129218
0.0116005
0.0101256
0.00924873
0.00864663
0.00843305
0.00846545
0.00874062
0.00919519
0.00981615
0.0105463
0.0113463
0.0122047
0.0131396
0.0141341
0.015177
0.0162635
0.0173863
0.0185382
0.0197492
0.0210402
0.0224287
0.0239258
0.025553
0.0273447
0.0293474
0.0315998
0.0341771
0.0370987
0.0404981
0.0446505
0.0526883
0.0488825
0.0434254
0.0368123
0.0299513
0.024216
0.0196555
0.0168722
0.0161081
0.0166603
0.0171378
0.0167585
0.0157151
0.0143466
0.0131262
0.0125435
0.0123221
0.0125137
0.0129821
0.0137277
0.0146765
0.0157633
0.0169302
0.0182095
0.019573
0.0210012
0.0224882
0.024026
0.0255857
0.0272058
0.0289188
0.0307666
0.0327688
0.0349529
0.037365
0.0400705
0.0431363
0.04667
0.0507241
0.0554629
0.061193
0.0623996
0.0590572
0.0542803
0.0483198
0.0414875
0.0344793
0.028514
0.0236386
0.0204989
0.0194767
0.0200685
0.0209482
0.0210814
0.0205339
0.0196132
0.0185865
0.0178781
0.0178591
0.0182335
0.0190598
0.0201906
0.0215684
0.0230774
0.0247368
0.0265146
0.0283764
0.0303137
0.0323129
0.0343625
0.0364737
0.0386749
0.0410327
0.0436034
0.0464209
0.049546
0.0530652
0.0570867
0.0617645
0.0671985
0.0735497
0.0811132
0.0720138
0.0691663
0.0650733
0.0599242
0.0538381
0.0469553
0.0398401
0.0336206
0.0283592
0.0247417
0.0232961
0.0237785
0.0250586
0.0259218
0.0260888
0.0259073
0.0256454
0.0254204
0.0255087
0.0263412
0.0275961
0.0292662
0.0311413
0.0332187
0.0354682
0.0378234
0.0402759
0.0428078
0.0453997
0.0480552
0.0507941
0.0536779
0.056829
0.0603053
0.0641869
0.0685908
0.0736749
0.0796568
0.086703
0.0949656
0.104661
0.0812886
0.0789279
0.0755118
0.0711702
0.065993
0.059984
0.0531995
0.0460575
0.0395967
0.0339236
0.029733
0.0276783
0.0278333
0.0294169
0.0311628
0.0323844
0.0333036
0.0341984
0.0351995
0.0362768
0.0375296
0.0394399
0.0416657
0.0441532
0.0469129
0.0497962
0.0528022
0.0559157
0.0590928
0.0623333
0.0656455
0.0690769
0.0727569
0.0768469
0.0814495
0.0867187
0.0928741
0.100219
0.109036
0.119474
0.131605
0.0899909
0.0880822
0.0853102
0.081744
0.0774537
0.0724524
0.0666728
0.0601083
0.053062
0.0464134
0.040382
0.0355789
0.0327611
0.0323348
0.0339592
0.0366004
0.039248
0.0417186
0.0442904
0.0470641
0.0500007
0.0528459
0.0554454
0.0582122
0.061483
0.064873
0.0683994
0.0720983
0.075853
0.0796715
0.0835498
0.0874961
0.0916225
0.0961523
0.101287
0.107215
0.114226
0.12275
0.133245
0.145964
0.159046
0.0979331
0.0964242
0.0942291
0.0913794
0.0879172
0.0838651
0.0791606
0.0737408
0.0675474
0.0607943
0.0537902
0.0475251
0.0422057
0.0385943
0.0373635
0.0386629
0.0419518
0.0462398
0.0508192
0.0556703
0.0608768
0.0661499
0.0711639
0.0758418
0.0800711
0.0839155
0.0877784
0.0920104
0.0962334
0.100521
0.104896
0.109259
0.113688
0.11839
0.123653
0.129751
0.137024
0.146018
0.157418
0.171031
0.183099
0.105001
0.103833
0.102127
0.0999025
0.0971806
0.0939769
0.0902465
0.0859509
0.0809956
0.0753304
0.0689511
0.0620974
0.0556598
0.0498577
0.0454138
0.0431554
0.0436641
0.0470141
0.0526982
0.0598042
0.0676503
0.0757429
0.0836698
0.091348
0.0986172
0.105309
0.111315
0.116536
0.12104
0.125518
0.130289
0.134882
0.139352
0.143981
0.148866
0.154356
0.16088
0.168926
0.179119
0.191575
0.202649
0.111155
0.110261
0.108957
0.107248
0.105153
0.10268
0.0997906
0.0964527
0.0926233
0.0882346
0.0832083
0.0774377
0.0710789
0.0643762
0.0583036
0.0531882
0.0498493
0.0491638
0.0517996
0.0580061
0.0673881
0.0784047
0.0896243
0.100711
0.111451
0.121671
0.131242
0.140039
0.14794
0.154836
0.16058
0.165138
0.16921
0.17366
0.177935
0.182148
0.186875
0.192621
0.199617
0.20825
0.218038
0.116416
0.115736
0.114746
0.113447
0.111852
0.109973
0.107779
0.105245
0.102343
0.0990339
0.0952657
0.0909372
0.0859364
0.0803457
0.0740516
0.0678838
0.0622275
0.0578191
0.0556374
0.0567467
0.0621306
0.0718906
0.0848804
0.0994381
0.114145
0.128413
0.142018
0.154796
0.16664
0.177456
0.187136
0.195558
0.202631
0.208242
0.21224
0.214952
0.218027
0.221326
0.224641
0.228229
0.232466
0.120858
0.120346
0.119598
0.118612
0.117402
0.115983
0.114331
0.112433
0.110269
0.107815
0.105038
0.101885
0.0982686
0.0941237
0.0894886
0.0843049
0.0782372
0.072376
0.0671848
0.0635381
0.0626324
0.06565
0.073229
0.0854547
0.101483
0.119539
0.137835
0.1554
0.171896
0.187176
0.201146
0.213745
0.224915
0.234615
0.242798
0.249437
0.254535
0.258019
0.259782
0.25999
0.26036
0.124413
0.124028
0.123448
0.122684
0.12175
0.120658
0.119397
0.117965
0.116341
0.114513
0.112463
0.110157
0.10755
0.104583
0.101226
0.0974433
0.0932358
0.0883458
0.0825304
0.0769836
0.0722885
0.0695297
0.0697804
0.0739935
0.0829587
0.0969139
0.115145
0.135916
0.157219
0.177689
0.196734
0.214155
0.229867
0.243863
0.256141
0.266687
0.275499
0.282639
0.288141
0.292081
0.294695
0.127144
0.126836
0.126375
0.125768
0.125036
0.124174
0.123184
0.122067
0.120811
0.119411
0.117856
0.116125
0.114193
0.112025
0.109581
0.106828
0.10375
0.100496
0.0965522
0.091855
0.0862661
0.0812001
0.0773219
0.0753662
0.0762678
0.0810551
0.090642
0.105437
0.124901
0.147411
0.170842
0.193497
0.21448
0.233506
0.250505
0.265449
0.278364
0.289389
0.2986
0.306077
0.311955
0.129274
0.12902
0.128643
0.128151
0.127558
0.126862
0.126072
0.125178
0.124184
0.123078
0.121859
0.120518
0.119037
0.117399
0.115577
0.11354
0.111258
0.108766
0.10614
0.103164
0.0994013
0.0950268
0.0901652
0.0858263
0.0824938
0.0808723
0.0818655
0.0865188
0.0958173
0.110302
0.129642
0.152464
0.176745
0.200651
0.222972
0.243114
0.260909
0.276504
0.28998
0.301423
0.310995
0.130973
0.130759
0.130445
0.130044
0.129554
0.12898
0.128331
0.127601
0.126793
0.125904
0.124927
0.123859
0.122692
0.121416
0.120015
0.118471
0.116757
0.114852
0.112796
0.110571
0.108276
0.105605
0.102387
0.0987052
0.0947458
0.09091
0.0878273
0.0861439
0.0866886
0.0904394
0.0983461
0.111005
0.128313
0.149364
0.172575
0.196147
0.218631
0.239301
0.257736
0.273794
0.287564
0.132353
0.132171
0.131909
0.131572
0.131161
0.130686
0.130145
0.129542
0.128872
0.12814
0.127344
0.126479
0.125538
0.124517
0.123409
0.122207
0.120893
0.119444
0.117847
0.116098
0.114253
0.112406
0.11053
0.108368
0.105806
0.102836
0.0995789
0.0961921
0.093252
0.0913015
0.0910207
0.0932127
0.0986671
0.10797
0.121247
0.138007
0.157229
0.177783
0.198377
0.217897
0.235553
0.133495
0.133339
0.13312
0.132832
0.132486
0.132083
0.131629
0.131121
0.130562
0.129953
0.12929
0.128575
0.127805
0.126975
0.126082
0.125121
0.124084
0.12296
0.121731
0.120382
0.118909
0.117384
0.11588
0.11447
0.11301
0.111352
0.109406
0.107113
0.104522
0.101762
0.0990225
0.096785
0.0955642
0.0959197
0.0984238
0.103518
0.111384
0.121985
0.13488
0.149342
0.164383
0.134453
0.134319
0.13413
0.133884
0.133588
0.133247
0.132859
0.132428
0.131954
0.131438
0.130882
0.130285
0.129646
0.128962
0.128228
0.127445
0.126609
0.125713
0.124751
0.123709
0.122574
0.121369
0.120136
0.118917
0.117729
0.116639
0.115547
0.114347
0.112958
0.11133
0.109435
0.107318
0.105089
0.102924
0.101009
0.099903
0.0998935
0.10126
0.104194
0.108744
0.11484
0.135266
0.135152
0.134989
0.134779
0.134526
0.134231
0.133897
0.133526
0.13312
0.132681
0.132209
0.131702
0.131161
0.130587
0.129979
0.129333
0.128649
0.127923
0.127151
0.126329
0.125447
0.124517
0.123558
0.122573
0.121578
0.120608
0.119682
0.1188
0.117996
0.11717
0.116255
0.115201
0.113974
0.112558
0.110955
0.10925
0.107559
0.106002
0.104728
0.103951
0.103819
0.135966
0.135868
0.135728
0.135545
0.135325
0.13507
0.13478
0.134459
0.134109
0.133732
0.133325
0.132892
0.132431
0.131945
0.131432
0.130892
0.130324
0.129725
0.129094
0.12843
0.127727
0.126998
0.126256
0.125495
0.124717
0.12393
0.123145
0.122376
0.121646
0.120961
0.120327
0.119747
0.119164
0.118533
0.117822
0.117008
0.116084
0.115043
0.113911
0.112733
0.111502
0.136573
0.13649
0.136369
0.136211
0.136018
0.135794
0.135542
0.135263
0.134959
0.134632
0.13428
0.133906
0.13351
0.133093
0.132657
0.132198
0.131718
0.131218
0.130695
0.13015
0.129579
0.128993
0.128405
0.12781
0.127209
0.126602
0.125989
0.125376
0.124766
0.12417
0.123597
0.123062
0.122564
0.122097
0.121657
0.121261
0.120864
0.120438
0.119973
0.119462
0.118863
0.137104
0.137036
0.136932
0.136795
0.136626
0.136429
0.136206
0.13596
0.135693
0.135405
0.135098
0.134773
0.134431
0.134072
0.133696
0.133303
0.132895
0.132472
0.132034
0.13158
0.131108
0.130627
0.130148
0.12967
0.129194
0.128719
0.128246
0.127773
0.127302
0.126834
0.126374
0.125927
0.125499
0.125091
0.124704
0.124346
0.124021
0.123722
0.123441
0.123171
0.122944
0.137574
0.137518
0.13743
0.137311
0.137163
0.13699
0.136793
0.136576
0.136339
0.136084
0.135813
0.135526
0.135226
0.134912
0.134585
0.134247
0.133897
0.133536
0.133163
0.13278
0.132386
0.131986
0.13159
0.131198
0.130811
0.130428
0.130051
0.12968
0.129315
0.128958
0.12861
0.128269
0.127937
0.127613
0.127309
0.127052
0.126832
0.126632
0.126449
0.126279
0.12614
0.137992
0.137947
0.137873
0.137771
0.137644
0.137492
0.137319
0.137126
0.136916
0.136689
0.136447
0.136192
0.135925
0.135647
0.13536
0.135063
0.134758
0.134446
0.134126
0.133799
0.133466
0.133131
0.1328
0.132473
0.132153
0.13184
0.131536
0.13124
0.130952
0.130673
0.130401
0.130138
0.129893
0.129683
0.129506
0.129349
0.129206
0.129074
0.128954
0.128844
0.12876
0.138365
0.138331
0.138272
0.138188
0.13808
0.137949
0.137796
0.137625
0.137438
0.137235
0.137019
0.13679
0.136551
0.136303
0.136047
0.135784
0.135514
0.135239
0.13496
0.134677
0.134391
0.134104
0.133825
0.133552
0.133286
0.133028
0.132778
0.132537
0.132301
0.132076
0.131878
0.131717
0.131578
0.131453
0.131341
0.131239
0.131147
0.131063
0.130986
0.130918
0.130873
0.138699
0.138678
0.138637
0.138572
0.138482
0.138369
0.138235
0.138083
0.137916
0.137734
0.137539
0.137334
0.137119
0.136896
0.136666
0.13643
0.136189
0.135945
0.135698
0.135449
0.135199
0.134951
0.134711
0.134479
0.134254
0.134037
0.133827
0.133623
0.133441
0.133297
0.133177
0.133073
0.132981
0.132898
0.132825
0.132759
0.132701
0.132649
0.132603
0.132563
0.132545
0.139001
0.138999
0.138977
0.138929
0.138855
0.138758
0.13864
0.138505
0.138355
0.138192
0.138017
0.137831
0.137637
0.137435
0.137228
0.137016
0.1368
0.13658
0.136359
0.136138
0.135917
0.1357
0.135491
0.13529
0.135096
0.134908
0.134727
0.134577
0.13446
0.134362
0.134277
0.134203
0.134137
0.13408
0.134029
0.133986
0.133948
0.133917
0.13389
0.133868
0.133865
0.13928
0.139299
0.139294
0.139261
0.1392
0.139117
0.139015
0.138895
0.138761
0.138615
0.138456
0.138289
0.138113
0.13793
0.137742
0.137551
0.137356
0.137158
0.136959
0.13676
0.136564
0.136372
0.136187
0.13601
0.135838
0.135673
0.135538
0.135434
0.135348
0.135274
0.135209
0.135152
0.135102
0.13506
0.135023
0.134993
0.134968
0.134947
0.134931
0.134919
0.134925
0.139542
0.139581
0.139588
0.139566
0.13952
0.139454
0.139368
0.139265
0.139146
0.139014
0.138871
0.138718
0.138557
0.13839
0.138218
0.138043
0.137866
0.137687
0.137506
0.137327
0.13715
0.136978
0.136814
0.136655
0.136501
0.136368
0.136269
0.136188
0.136118
0.136058
0.136005
0.13596
0.13592
0.135887
0.135859
0.135836
0.135817
0.135803
0.135792
0.135784
0.135794
0.139786
0.139835
0.13985
0.139842
0.139817
0.139774
0.139713
0.139632
0.139533
0.139416
0.139284
0.139141
0.13899
0.138834
0.138673
0.13851
0.138346
0.138181
0.138015
0.13785
0.137688
0.137532
0.137383
0.137238
0.137102
0.136998
0.136917
0.136849
0.13679
0.136739
0.136694
0.136656
0.136622
0.136594
0.136571
0.136552
0.136537
0.136525
0.136517
0.136511
0.13652
0.13998
0.140034
0.140056
0.140063
0.14006
0.140045
0.140019
0.139979
0.139924
0.139849
0.13974
0.139604
0.139454
0.139299
0.13914
0.138981
0.138821
0.138663
0.138505
0.138349
0.138197
0.13805
0.137912
0.137777
0.137656
0.137568
0.137497
0.137436
0.137383
0.137337
0.137297
0.137262
0.137232
0.137207
0.137186
0.137168
0.137154
0.137143
0.137135
0.137129
0.137137
0.140098
0.140137
0.140158
0.14017
0.140177
0.140177
0.140171
0.140158
0.140136
0.140105
0.14006
0.139992
0.139891
0.139757
0.13961
0.139459
0.139305
0.139152
0.139
0.138849
0.138701
0.138559
0.138425
0.138296
0.138182
0.138098
0.13803
0.137971
0.13792
0.137876
0.137836
0.137802
0.137773
0.137748
0.137726
0.137708
0.137693
0.137681
0.137671
0.137663
0.137668
0.14016
0.14019
0.140212
0.140229
0.140242
0.140251
0.140256
0.140255
0.140249
0.140237
0.140218
0.14019
0.14015
0.140091
0.140002
0.139882
0.139748
0.13961
0.139472
0.139333
0.139194
0.139058
0.138929
0.138805
0.138692
0.138607
0.138538
0.138478
0.138425
0.138378
0.138337
0.138301
0.138269
0.138241
0.138217
0.138196
0.138178
0.138163
0.13815
0.138138
0.138138
0.140191
0.14022
0.140245
0.140267
0.140285
0.1403
0.140312
0.14032
0.140324
0.140323
0.140316
0.140305
0.140287
0.140263
0.140228
0.140176
0.140101
0.139995
0.139877
0.139757
0.139636
0.139515
0.139397
0.139282
0.139173
0.139088
0.139019
0.138959
0.138905
0.138856
0.138812
0.138773
0.138738
0.138706
0.138678
0.138653
0.138631
0.138611
0.138593
0.138577
0.138571
0.140207
0.140237
0.140263
0.140288
0.140311
0.140332
0.14035
0.140365
0.140376
0.140383
0.140386
0.140384
0.140378
0.140366
0.140351
0.140329
0.140299
0.140256
0.140193
0.140102
0.140002
0.1399
0.139798
0.139698
0.1396
0.139517
0.139451
0.139393
0.139342
0.139295
0.139251
0.139212
0.139176
0.139142
0.139112
0.139084
0.139058
0.139034
0.139012
0.138991
0.13898
0.140211
0.140241
0.14027
0.140298
0.140325
0.140351
0.140374
0.140395
0.140413
0.140427
0.140437
0.140444
0.140445
0.140443
0.140436
0.140425
0.140411
0.140393
0.140368
0.140332
0.14028
0.140204
0.140121
0.140038
0.139956
0.139876
0.139812
0.139761
0.139715
0.139673
0.139633
0.139597
0.139563
0.139531
0.139502
0.139474
0.139447
0.139422
0.139399
0.139376
0.13936
0.140205
0.140235
0.140265
0.140296
0.140327
0.140357
0.140386
0.140412
0.140436
0.140457
0.140475
0.140488
0.140497
0.140502
0.140503
0.1405
0.140493
0.140483
0.140471
0.140455
0.140434
0.140405
0.140356
0.140294
0.140229
0.140164
0.1401
0.140053
0.140013
0.139978
0.139945
0.139914
0.139885
0.139857
0.139831
0.139806
0.139782
0.139759
0.139736
0.139714
0.139697
0.14019
0.14022
0.140251
0.140283
0.140317
0.140351
0.140385
0.140418
0.140448
0.140476
0.1405
0.14052
0.140536
0.140547
0.140555
0.140559
0.140559
0.140555
0.140549
0.14054
0.140529
0.140514
0.140496
0.140469
0.140425
0.140375
0.140325
0.140275
0.140239
0.140209
0.140182
0.140157
0.140133
0.140111
0.140089
0.140069
0.140048
0.140029
0.140009
0.13999
0.139975
0.140166
0.140194
0.140224
0.140257
0.140294
0.140332
0.140371
0.14041
0.140447
0.140482
0.140513
0.14054
0.140563
0.140582
0.140596
0.140606
0.140613
0.140616
0.140615
0.140611
0.140605
0.140596
0.140586
0.140572
0.140555
0.140532
0.140496
0.140456
0.140416
0.140386
0.140363
0.140341
0.140322
0.140303
0.140286
0.140269
0.140253
0.140236
0.14022
0.140205
0.140192
0.140133
0.140157
0.140184
0.140216
0.140253
0.140293
0.140337
0.140382
0.140427
0.140471
0.140511
0.140548
0.140579
0.140605
0.140627
0.140644
0.140656
0.140664
0.140668
0.140668
0.140666
0.14066
0.140652
0.140642
0.14063
0.140615
0.140598
0.140568
0.140536
0.140504
0.140481
0.140462
0.140445
0.14043
0.140415
0.140401
0.140387
0.140374
0.140361
0.140348
0.140337
0.140089
0.140106
0.140128
0.140154
0.140186
0.140223
0.140267
0.140316
0.14037
0.140425
0.140478
0.140527
0.140571
0.140611
0.140647
0.140677
0.140703
0.140725
0.140742
0.140754
0.140763
0.140767
0.140768
0.140766
0.140762
0.140754
0.140745
0.140734
0.140719
0.140703
0.140685
0.140666
0.140647
0.140626
0.140602
0.140578
0.14056
0.140543
0.140528
0.140513
0.140501
0.140033
0.14004
0.140049
0.140062
0.140078
0.140099
0.140126
0.140161
0.140205
0.140259
0.140335
0.140375
0.140405
0.140434
0.140461
0.140488
0.140513
0.140537
0.140558
0.140577
0.140593
0.140606
0.140615
0.140622
0.140626
0.140626
0.140624
0.140617
0.140602
0.140586
0.140576
0.140569
0.140562
0.140554
0.140546
0.140537
0.140527
0.140517
0.140506
0.140495
0.140483
0.0172276
0.0546407
0.0895376
0.111615
0.125643
0.138822
0.154241
0.170598
0.185402
0.197028
0.205052
0.209797
0.211805
0.211562
0.209448
0.205821
0.20109
0.195722
0.190189
0.184905
0.180177
0.176193
0.173026
0.170662
0.169017
0.167962
0.167354
0.16705
0.166925
0.166876
0.16683
0.166739
0.166583
0.166358
0.16607
0.165747
0.165422
0.165123
0.164873
0.164685
0.164565
0.164508
0.164502
0.164535
0.164591
0.164654
0.16471
0.164749
0.16476
0.164737
0.16468
0.164588
0.164463
0.164309
0.164131
0.163931
0.163713
0.163478
0.163229
0.16297
0.162705
0.16244
0.162181
0.161928
0.16168
0.161427
0.161152
0.160822
0.16041
0.159856
0.159123
0.158066
0.156441
0.154075
0.0210945
0.0601994
0.095319
0.117149
0.130912
0.143913
0.159219
0.175346
0.189744
0.200882
0.208447
0.212811
0.214525
0.214057
0.211773
0.208019
0.2032
0.19778
0.192231
0.186963
0.182278
0.178353
0.175254
0.172955
0.171361
0.170338
0.169737
0.169412
0.169236
0.169108
0.168954
0.16873
0.168419
0.168025
0.167563
0.167069
0.166579
0.166129
0.165742
0.165436
0.165214
0.165072
0.164997
0.164974
0.164984
0.16501
0.165034
0.165044
0.165028
0.164979
0.164895
0.164774
0.164619
0.164437
0.164231
0.164006
0.163767
0.163515
0.163254
0.162987
0.162718
0.162448
0.162182
0.161918
0.161653
0.161376
0.161071
0.160706
0.160258
0.159671
0.158917
0.157867
0.156303
0.154033
0.0256143
0.0665885
0.102008
0.123713
0.137223
0.149832
0.164694
0.180316
0.194163
0.204784
0.211925
0.215973
0.217458
0.216826
0.214424
0.210585
0.205708
0.200254
0.194694
0.189439
0.184787
0.180911
0.177869
0.175627
0.174083
0.173094
0.172506
0.172168
0.171951
0.171751
0.171495
0.17114
0.170673
0.170101
0.169452
0.168765
0.168086
0.167454
0.166902
0.166448
0.1661
0.165855
0.165698
0.165611
0.165572
0.165561
0.165557
0.165542
0.165504
0.165431
0.165319
0.165166
0.164976
0.164754
0.164508
0.164243
0.163968
0.163686
0.1634
0.163114
0.162828
0.162544
0.162262
0.16198
0.161691
0.161387
0.16105
0.160651
0.160168
0.159551
0.158777
0.157731
0.156217
0.154002
0.0321925
0.0741466
0.109697
0.131274
0.144523
0.156572
0.1707
0.185566
0.198727
0.208801
0.215552
0.219341
0.220661
0.219924
0.217454
0.213573
0.208669
0.203201
0.19764
0.192396
0.187769
0.183931
0.180936
0.178744
0.177247
0.176295
0.175725
0.175383
0.175134
0.174869
0.174516
0.174031
0.173403
0.172643
0.171786
0.170879
0.169976
0.169125
0.168368
0.167731
0.167226
0.166851
0.166592
0.166429
0.166335
0.166287
0.166257
0.166225
0.166171
0.166081
0.165946
0.165762
0.165533
0.165263
0.164964
0.164645
0.164316
0.163986
0.163659
0.163339
0.163025
0.162716
0.162409
0.162101
0.161784
0.161449
0.161079
0.160647
0.160132
0.159486
0.158693
0.157648
0.156171
0.153974
0.0409503
0.0831887
0.118489
0.139798
0.152746
0.164121
0.177285
0.191172
0.20352
0.213014
0.219398
0.222977
0.224188
0.2234
0.220912
0.21703
0.212133
0.206674
0.201122
0.195891
0.191283
0.187474
0.184517
0.182368
0.180914
0.179999
0.179452
0.179113
0.178838
0.178515
0.178069
0.177454
0.176657
0.175694
0.174604
0.173444
0.172276
0.171161
0.170151
0.169284
0.168581
0.168041
0.167654
0.167396
0.167238
0.167149
0.167099
0.167058
0.167
0.166904
0.166758
0.166552
0.166287
0.165967
0.165606
0.165217
0.164817
0.164417
0.164029
0.163657
0.163299
0.162953
0.162613
0.162272
0.161922
0.161554
0.16115
0.160686
0.16014
0.159467
0.158656
0.157606
0.156155
0.153939
0.0521464
0.094056
0.128494
0.149246
0.161816
0.172452
0.184493
0.197222
0.208642
0.217514
0.223541
0.226947
0.228093
0.227301
0.22484
0.220998
0.216143
0.210719
0.205191
0.199977
0.195386
0.191597
0.188668
0.186554
0.185138
0.184257
0.183735
0.183401
0.183105
0.18273
0.182193
0.181444
0.18047
0.179287
0.177938
0.176486
0.175006
0.173573
0.172253
0.171101
0.170146
0.169398
0.168845
0.168466
0.168228
0.168093
0.168024
0.167984
0.167939
0.167859
0.167722
0.167513
0.167225
0.166862
0.166438
0.165969
0.16548
0.16499
0.164517
0.16407
0.16365
0.163252
0.162867
0.162486
0.162099
0.161695
0.161258
0.160762
0.160187
0.159487
0.158658
0.157599
0.156161
0.153895
0.0661181
0.107062
0.139788
0.159577
0.171643
0.181517
0.192358
0.203809
0.214204
0.222406
0.228069
0.231319
0.232433
0.231673
0.229276
0.225513
0.220734
0.215372
0.209888
0.204701
0.200126
0.196352
0.193441
0.191352
0.189964
0.189113
0.188612
0.188283
0.187968
0.187541
0.186912
0.186027
0.184866
0.183445
0.181807
0.180024
0.178181
0.176369
0.174675
0.173171
0.171901
0.170885
0.17012
0.169582
0.169238
0.169045
0.168956
0.168927
0.168914
0.168875
0.168779
0.168599
0.168319
0.167935
0.16746
0.166912
0.166321
0.165719
0.165135
0.164587
0.164082
0.163614
0.163171
0.162741
0.162311
0.161868
0.161395
0.160868
0.160266
0.159541
0.158692
0.157619
0.156184
0.153837
0.0832124
0.122341
0.152358
0.17072
0.182124
0.19124
0.200887
0.211011
0.220317
0.227802
0.233078
0.23617
0.237263
0.236557
0.234254
0.230601
0.225932
0.220663
0.215248
0.210102
0.205549
0.201786
0.198884
0.196807
0.195436
0.194602
0.194114
0.193785
0.193446
0.192963
0.19224
0.191213
0.189856
0.188178
0.186224
0.184069
0.18181
0.179555
0.177414
0.175481
0.173821
0.172468
0.171427
0.17068
0.170193
0.169917
0.1698
0.169787
0.169825
0.169859
0.169844
0.169739
0.169513
0.169152
0.168657
0.168047
0.167356
0.166628
0.165906
0.165227
0.164607
0.164045
0.163528
0.163037
0.162556
0.16207
0.16156
0.161002
0.160373
0.159624
0.158754
0.157662
0.15622
0.153759
0.103752
0.139673
0.166038
0.182555
0.193138
0.201524
0.210054
0.218881
0.227081
0.233811
0.238664
0.241576
0.242639
0.241993
0.2398
0.236283
0.231754
0.226612
0.221294
0.216212
0.211692
0.20794
0.20504
0.202961
0.20159
0.200756
0.200265
0.199921
0.199548
0.199001
0.198176
0.196999
0.195435
0.193484
0.191186
0.18862
0.185894
0.183132
0.180468
0.178025
0.17589
0.174116
0.172722
0.171699
0.171014
0.170619
0.17045
0.170449
0.17055
0.170686
0.170797
0.170824
0.170719
0.170446
0.16999
0.169362
0.168594
0.167739
0.166861
0.166018
0.165247
0.16456
0.163945
0.163378
0.162836
0.1623
0.161751
0.161161
0.160505
0.159733
0.158841
0.157726
0.156268
0.15366
0.127689
0.158354
0.180473
0.194889
0.204544
0.212244
0.219788
0.227431
0.234564
0.240522
0.244914
0.247606
0.248611
0.24801
0.245929
0.242565
0.238206
0.233226
0.22804
0.223051
0.218583
0.214849
0.211944
0.209848
0.208455
0.207599
0.207081
0.2067
0.206273
0.205647
0.204707
0.203371
0.201589
0.199347
0.196681
0.19367
0.190427
0.187096
0.183836
0.1808
0.178101
0.175813
0.173977
0.172594
0.171639
0.171065
0.170804
0.17079
0.170952
0.171209
0.171487
0.17171
0.171805
0.171709
0.171382
0.170814
0.170025
0.169071
0.168032
0.166997
0.166036
0.165185
0.16444
0.163774
0.163157
0.162562
0.161968
0.161342
0.16066
0.159864
0.158951
0.157809
0.156319
0.153543
0.152533
0.177215
0.195153
0.207462
0.216171
0.223253
0.22998
0.23661
0.242774
0.24798
0.251879
0.254302
0.255206
0.254622
0.252643
0.249441
0.245277
0.240495
0.235484
0.230626
0.226237
0.222536
0.219624
0.217496
0.216057
0.215147
0.21457
0.214122
0.213613
0.212884
0.211812
0.210303
0.20829
0.205742
0.202686
0.1992
0.195397
0.191441
0.187517
0.183811
0.18046
0.177565
0.175187
0.173348
0.172033
0.1712
0.170782
0.170705
0.1709
0.171275
0.171743
0.172215
0.172593
0.172781
0.172703
0.172312
0.171603
0.170617
0.169445
0.168206
0.167017
0.165954
0.165037
0.16424
0.163527
0.162861
0.162212
0.161547
0.160837
0.160018
0.159083
0.157911
0.156368
0.153411
0.175945
0.195174
0.20952
0.219955
0.227813
0.23438
0.240475
0.246298
0.251635
0.256144
0.259541
0.261654
0.262408
0.261804
0.259911
0.256877
0.252934
0.248392
0.243604
0.238924
0.234653
0.231005
0.228091
0.225919
0.224408
0.223409
0.222735
0.222181
0.221555
0.220693
0.219466
0.21777
0.215513
0.212645
0.209179
0.205188
0.200786
0.196155
0.191513
0.187071
0.182991
0.179401
0.176386
0.173988
0.172208
0.171018
0.170352
0.170134
0.170299
0.17075
0.171396
0.172143
0.17287
0.17345
0.173761
0.173704
0.173226
0.172333
0.171104
0.169682
0.168238
0.166914
0.165772
0.164802
0.163962
0.163204
0.162489
0.161777
0.161035
0.160193
0.159237
0.158022
0.156413
0.153271
0.196516
0.21147
0.223068
0.232037
0.239234
0.245422
0.25107
0.256296
0.260971
0.264869
0.26778
0.269557
0.270124
0.269471
0.267653
0.264799
0.261111
0.25686
0.252355
0.247911
0.243806
0.240243
0.237339
0.235114
0.233506
0.232386
0.231577
0.230879
0.230098
0.22907
0.227662
0.225761
0.223255
0.220055
0.216157
0.211632
0.206591
0.201245
0.195838
0.190609
0.185741
0.181385
0.17765
0.174598
0.172249
0.170592
0.169568
0.169096
0.169127
0.169567
0.170323
0.171316
0.172417
0.17347
0.174306
0.174763
0.174717
0.174108
0.172969
0.171442
0.16975
0.168121
0.166692
0.165493
0.164484
0.163607
0.162807
0.162035
0.161255
0.16039
0.159411
0.15814
0.156454
0.153129
0.213715
0.225681
0.235395
0.243388
0.250171
0.256139
0.261513
0.266329
0.270503
0.27389
0.276354
0.277798
0.27817
0.277466
0.275738
0.273096
0.269715
0.265819
0.261669
0.257533
0.253653
0.250218
0.247345
0.245069
0.243348
0.242081
0.24111
0.240244
0.239285
0.238065
0.236452
0.234338
0.231591
0.228056
0.223707
0.21861
0.212878
0.206774
0.200555
0.194496
0.188793
0.183622
0.17911
0.175332
0.172324
0.170094
0.168592
0.167739
0.167491
0.167775
0.168501
0.169634
0.171055
0.172597
0.174054
0.175197
0.175812
0.175741
0.174924
0.173454
0.17158
0.169632
0.167856
0.166358
0.165125
0.164088
0.163177
0.162329
0.1615
0.160608
0.159597
0.158261
0.156495
0.152994
0.227596
0.237651
0.246248
0.253769
0.260439
0.266372
0.271612
0.276145
0.279919
0.282867
0.284937
0.286095
0.286321
0.285624
0.284049
0.281689
0.278685
0.27522
0.271504
0.267755
0.264173
0.26092
0.258115
0.255808
0.253979
0.252557
0.25143
0.250425
0.249307
0.247906
0.246083
0.243758
0.24082
0.236959
0.232128
0.22639
0.219889
0.212947
0.205834
0.198877
0.192277
0.186254
0.180933
0.17639
0.17267
0.169783
0.167689
0.166328
0.165656
0.165596
0.166081
0.167148
0.168723
0.170664
0.172745
0.174685
0.176177
0.176934
0.176754
0.175607
0.173713
0.171488
0.169324
0.167453
0.165923
0.164674
0.163617
0.162668
0.161773
0.160847
0.159793
0.158385
0.156539
0.15287
0.239082
0.247732
0.256081
0.26382
0.27068
0.276598
0.281605
0.285744
0.28905
0.291557
0.293308
0.29434
0.2946
0.294072
0.292777
0.290792
0.288236
0.285261
0.282037
0.278738
0.275521
0.272522
0.269852
0.267568
0.26568
0.264146
0.262928
0.261942
0.260788
0.259291
0.257299
0.25471
0.251711
0.247522
0.242121
0.235577
0.228124
0.220139
0.211966
0.203945
0.196325
0.189313
0.183048
0.177618
0.17307
0.169417
0.166637
0.164686
0.163519
0.163069
0.163277
0.164128
0.165572
0.167671
0.170232
0.172956
0.175456
0.177312
0.178131
0.177679
0.176048
0.173686
0.171145
0.168837
0.166929
0.165399
0.164147
0.163065
0.162081
0.161104
0.159998
0.158514
0.156589
0.152765
0.263727
0.26977
0.275392
0.280564
0.28522
0.28932
0.292847
0.295815
0.29828
0.300298
0.30207
0.303771
0.304502
0.3043
0.303309
0.301665
0.299505
0.296973
0.294215
0.291368
0.288557
0.285895
0.283475
0.281349
0.279547
0.27804