/*--------------------------------*- C++ -*----------------------------------*\
| =========                 |                                                 |
| \\      /  F ield         | OpenFOAM: The Open Source CFD Toolbox           |
|  \\    /   O peration     | Version:  5.x                                   |
|   \\  /    A nd           | Web:      www.OpenFOAM.org                      |
|    \\/     M anipulation  |                                                 |
\*---------------------------------------------------------------------------*/
FoamFile
{
    version     2.0;
    format      ascii;
    class       volScalarField;
    location    "350";
    object      nut;
}
// * * * * * * * * * * * * * * * * * * * * * * * * * * * * * * * * * * * * * //

dimensions      [0 2 -1 0 0 0 0];

internalField   nonuniform List<scalar> 
11040
(
0.00313482
0.00376619
0.00408972
0.00417219
0.00406637
0.00386656
0.00365084
0.00347422
0.00331483
0.00313922
0.00290372
0.00267027
0.00249338
0.00236808
0.00224922
0.00213154
0.00201492
0.0019031
0.00179603
0.00169171
0.00158796
0.00149568
0.00141333
0.00133131
0.00124838
0.00116346
0.00107558
0.000988563
0.000954801
0.000981668
0.000857581
0.000628974
0.000436835
0.000396269
0.000356984
0.000324756
0.000350302
0.000599221
0.00073864
0.000754918
0.000760624
0.00791411
0.00848186
0.00775068
0.00699814
0.00624513
0.00558928
0.00510219
0.00503825
0.00505155
0.00500479
0.0048774
0.00470232
0.00455717
0.00440654
0.00422144
0.00402915
0.00384896
0.00368604
0.00353901
0.00340529
0.00328329
0.00318184
0.0030944
0.00301295
0.00293716
0.00286559
0.00279698
0.0027332
0.00269515
0.00268421
0.00261896
0.00250769
0.00234954
0.00219127
0.00198769
0.00176197
0.00167681
0.00182235
0.00221397
0.00283885
0.00328856
0.0161135
0.0169813
0.015963
0.0146824
0.0132585
0.0118385
0.010529
0.0093694
0.00837818
0.0075262
0.00673333
0.00615591
0.00603728
0.00599168
0.00592566
0.00584567
0.00575308
0.00565419
0.00555639
0.00546398
0.00537802
0.00530897
0.00524736
0.0051857
0.00512392
0.00506205
0.00499957
0.0049371
0.00487993
0.00482934
0.0047661
0.00468949
0.0046006
0.00451595
0.004407
0.00419941
0.00407928
0.00434763
0.00484787
0.00546847
0.00628763
0.0254708
0.0264278
0.0253409
0.0236951
0.0217633
0.0197641
0.0178268
0.0159901
0.0142865
0.0127086
0.0111627
0.0098235
0.00884089
0.00810298
0.00778999
0.00765088
0.00755386
0.00748021
0.00742229
0.00737525
0.00733591
0.0073094
0.00728654
0.00726164
0.00723297
0.00719995
0.00716179
0.00711809
0.00706976
0.00701738
0.00695767
0.00689297
0.00683033
0.00678494
0.00675339
0.00665396
0.00655168
0.00681784
0.00750132
0.00858512
0.00963167
0.0356313
0.0365639
0.0355078
0.0336635
0.0313856
0.0289125
0.0264076
0.0239112
0.0215309
0.019284
0.017061
0.0150604
0.0134601
0.0121954
0.0111452
0.0102723
0.00978205
0.0095418
0.00940262
0.00931783
0.00926975
0.00925088
0.00924442
0.00924142
0.00923812
0.00923232
0.00922184
0.00920474
0.0091797
0.00914598
0.00910345
0.00905597
0.00901361
0.00899497
0.00901763
0.00902664
0.00900227
0.00926154
0.0100878
0.0115928
0.0133287
0.0462081
0.0470649
0.0460976
0.0442153
0.0417712
0.0389345
0.0359114
0.032862
0.0298996
0.0270477
0.0241858
0.0215304
0.0193085
0.0175141
0.0159705
0.0146243
0.0135039
0.0125455
0.0120017
0.0116933
0.0115086
0.0114038
0.0113415
0.0113004
0.0112752
0.0112606
0.0112515
0.0112431
0.0112317
0.0112148
0.0111913
0.0111639
0.011142
0.0111446
0.011201
0.0112974
0.0113867
0.0116598
0.0125015
0.014155
0.0169212
0.0568798
0.057617
0.0567645
0.0549701
0.0524987
0.0495343
0.0462859
0.0429055
0.0395242
0.0361836
0.0327667
0.0295043
0.0266718
0.024301
0.0222151
0.0203632
0.0187231
0.0172595
0.0159924
0.0150419
0.0144988
0.0141612
0.0139219
0.0137452
0.0136188
0.0135244
0.0134527
0.0133966
0.0133509
0.0133115
0.0132762
0.0132457
0.013227
0.0132353
0.0133002
0.013441
0.0136321
0.0139482
0.0147122
0.016236
0.0191194
0.0672918
0.0679156
0.0671922
0.0655673
0.0632233
0.0603508
0.0571218
0.0536582
0.050087
0.046456
0.042658
0.0389222
0.0355575
0.0326365
0.0300048
0.0276231
0.0254688
0.0235156
0.021737
0.0201356
0.0187838
0.0179108
0.0173581
0.016957
0.0166457
0.0163917
0.0161774
0.0159926
0.0158309
0.0156886
0.0155644
0.0154601
0.015382
0.0153423
0.0153645
0.0154808
0.0157014
0.0160491
0.0167095
0.0179441
0.0203556
0.0772038
0.0777104
0.0771068
0.075691
0.0735874
0.0709611
0.0679419
0.0646181
0.0610933
0.0574056
0.053457
0.0494552
0.0457148
0.042346
0.0392378
0.0363685
0.0337256
0.0312912
0.0290431
0.0269599
0.0250323
0.0234765
0.0223681
0.0215527
0.0209266
0.0204113
0.0199622
0.0195558
0.0191805
0.0188312
0.0185074
0.0182132
0.0179573
0.0177538
0.0176231
0.0175974
0.0177094
0.0179838
0.0185062
0.0194186
0.021126
0.0863768
0.0867779
0.0862839
0.0850891
0.0832798
0.0809877
0.0783046
0.0752857
0.0720052
0.0684616
0.0645859
0.0605489
0.0566428
0.0530063
0.0495929
0.0463658
0.0433273
0.0404773
0.0378052
0.0352963
0.0329326
0.030928
0.0293192
0.0279988
0.0269365
0.0260535
0.0252835
0.0245827
0.0239248
0.0232956
0.0226896
0.0221083
0.0215603
0.021061
0.0206315
0.0203045
0.0201209
0.0201196
0.0203577
0.0208997
0.021927
0.0946599
0.0949735
0.0945755
0.0935917
0.092084
0.0901544
0.087866
0.0852306
0.0823027
0.0790974
0.0755307
0.0717201
0.0679076
0.0642267
0.0606544
0.0572154
0.0539249
0.0508009
0.0478162
0.0449657
0.0422435
0.0399054
0.0379442
0.0361872
0.0346923
0.0334221
0.032308
0.0312935
0.0303399
0.0294216
0.0285234
0.0276387
0.0267692
0.0259244
0.0251197
0.0243852
0.0237619
0.0232919
0.023034
0.0230421
0.0233599
0.101987
0.10223
0.101911
0.101113
0.0998841
0.0983019
0.0964107
0.0941994
0.0917129
0.0889537
0.0858446
0.0824579
0.078972
0.0754935
0.0720107
0.0685644
0.0651865
0.0619027
0.0587246
0.055656
0.0526994
0.0501274
0.0479227
0.045849
0.0439336
0.0422741
0.0408307
0.0395327
0.0383241
0.0371667
0.0360344
0.0349111
0.0337885
0.0326656
0.031545
0.0304457
0.0293985
0.0284331
0.0276005
0.0269638
0.0264749
0.108363
0.108545
0.108285
0.107642
0.106653
0.105379
0.103851
0.10205
0.100012
0.0977336
0.0951474
0.0922916
0.0892728
0.0861766
0.083001
0.0797922
0.076566
0.0733485
0.0701625
0.0670249
0.063947
0.0612322
0.0588878
0.0566618
0.0545391
0.0525248
0.0506516
0.0489979
0.0475333
0.0461838
0.0448944
0.0436293
0.0423699
0.0410999
0.0398088
0.0385021
0.0371955
0.0358984
0.0346392
0.0334776
0.0322701
0.113829
0.113956
0.113739
0.113223
0.112434
0.11142
0.110203
0.108766
0.107136
0.105308
0.103229
0.100902
0.0984147
0.0958143
0.0930918
0.0902749
0.0873867
0.0844596
0.0814954
0.0785092
0.0755164
0.0728259
0.070468
0.0682089
0.066036
0.0639382
0.0619086
0.059955
0.0580947
0.0564005
0.0548846
0.0534794
0.0521277
0.0507933
0.0494489
0.0480853
0.0467026
0.0452921
0.0438584
0.0424457
0.0408426
0.118444
0.118534
0.118355
0.117942
0.117319
0.116517
0.115556
0.114421
0.113135
0.111695
0.110048
0.108212
0.106238
0.10415
0.101934
0.0996026
0.0971703
0.0946509
0.0920577
0.0894023
0.0867036
0.0842305
0.0820157
0.0798644
0.0777744
0.0757479
0.0737705
0.0718333
0.0699309
0.0680691
0.0662602
0.0645235
0.0629294
0.0614684
0.0600742
0.0587044
0.0573372
0.0559474
0.0545231
0.0530893
0.0514273
0.122329
0.122388
0.122238
0.121905
0.12142
0.120785
0.120024
0.119131
0.118124
0.117
0.11572
0.114298
0.112766
0.111136
0.109387
0.107532
0.105586
0.103546
0.101414
0.0991982
0.0969044
0.0947676
0.0928282
0.0909233
0.0890531
0.087217
0.0854126
0.083636
0.0818819
0.0801445
0.0784188
0.0767081
0.0750165
0.0733536
0.0717199
0.0701656
0.0687259
0.0673462
0.065979
0.0646203
0.0630757
0.125585
0.125622
0.125494
0.125225
0.124838
0.124334
0.123735
0.123036
0.122251
0.121377
0.120389
0.119297
0.118123
0.116866
0.11552
0.114088
0.112575
0.11098
0.109312
0.107562
0.105732
0.104001
0.102408
0.100828
0.0992646
0.0977158
0.0961818
0.0946614
0.0931527
0.0916529
0.0901582
0.088665
0.0871694
0.0856678
0.0841526
0.0826316
0.0811193
0.0796123
0.0781098
0.0766755
0.0751544
0.128183
0.128207
0.1281
0.127882
0.12757
0.127168
0.12669
0.126141
0.125518
0.124827
0.124052
0.123201
0.12229
0.121317
0.120278
0.119176
0.118011
0.116782
0.115489
0.114131
0.112707
0.11135
0.110089
0.108833
0.107582
0.106339
0.105101
0.103874
0.102652
0.101432
0.100213
0.0989935
0.0977702
0.0965397
0.0952936
0.0940312
0.0927535
0.0914503
0.0901196
0.0887767
0.0873439
0.130182
0.130197
0.130108
0.129929
0.129672
0.12935
0.128959
0.128512
0.128008
0.127451
0.126837
0.12616
0.125437
0.124667
0.123849
0.122984
0.122072
0.121114
0.120106
0.119049
0.11794
0.116878
0.115888
0.114899
0.113913
0.112932
0.111953
0.110979
0.110008
0.109039
0.108074
0.10711
0.106142
0.10517
0.104187
0.103193
0.102188
0.101162
0.100112
0.0990399
0.0978955
0.131752
0.131762
0.131688
0.131538
0.131323
0.131054
0.13073
0.130359
0.129948
0.129491
0.128988
0.128439
0.127854
0.127238
0.126582
0.12589
0.125164
0.124403
0.123605
0.122771
0.121899
0.121061
0.120278
0.119497
0.118719
0.117945
0.117174
0.116407
0.115643
0.114881
0.114121
0.113362
0.112603
0.111845
0.111081
0.110311
0.109535
0.108746
0.107942
0.107123
0.106262
0.133013
0.133022
0.13296
0.132833
0.132651
0.132422
0.132152
0.131841
0.131495
0.131113
0.130695
0.130245
0.129764
0.129258
0.128723
0.128161
0.127573
0.12696
0.126321
0.125654
0.12496
0.124292
0.123667
0.123045
0.122426
0.121812
0.121198
0.120588
0.119985
0.119387
0.118791
0.118197
0.117605
0.117016
0.116424
0.11583
0.115234
0.11463
0.114017
0.113396
0.112754
0.134049
0.134058
0.134005
0.133896
0.13374
0.133543
0.133312
0.133049
0.132755
0.132435
0.132082
0.131704
0.131302
0.130881
0.130441
0.129978
0.129496
0.128995
0.128474
0.127935
0.127376
0.126837
0.126333
0.125833
0.125334
0.124842
0.124352
0.123865
0.123384
0.12291
0.12244
0.121974
0.121511
0.121052
0.120592
0.120133
0.119674
0.119212
0.118745
0.118274
0.117793
0.134913
0.134921
0.134876
0.134782
0.134646
0.134476
0.134276
0.134049
0.133799
0.133524
0.133226
0.132904
0.132567
0.132212
0.131842
0.131458
0.131061
0.130646
0.130218
0.129775
0.129319
0.12888
0.128469
0.128062
0.127658
0.12726
0.126865
0.126474
0.126087
0.125707
0.125333
0.124966
0.124603
0.124243
0.123884
0.123527
0.123172
0.122816
0.122458
0.122099
0.121738
0.135643
0.135651
0.135611
0.135529
0.135411
0.135263
0.135088
0.134891
0.134673
0.134436
0.134179
0.133904
0.133615
0.133316
0.133003
0.132679
0.132345
0.132
0.131647
0.131281
0.130905
0.130544
0.130205
0.129871
0.129542
0.129218
0.128897
0.128579
0.128267
0.12796
0.127658
0.127362
0.127074
0.126789
0.126508
0.126228
0.125952
0.125676
0.125401
0.125127
0.124854
0.136266
0.136273
0.136239
0.136167
0.136064
0.135934
0.135781
0.135607
0.135417
0.135212
0.134989
0.134753
0.134505
0.134247
0.133981
0.133707
0.133423
0.133132
0.132835
0.13253
0.13222
0.13192
0.131638
0.131361
0.13109
0.130822
0.130558
0.130298
0.130044
0.129794
0.12955
0.129311
0.129078
0.128849
0.128625
0.128406
0.12819
0.127975
0.127762
0.127551
0.127343
0.136801
0.136809
0.136779
0.136717
0.136626
0.136512
0.136377
0.136224
0.136056
0.135876
0.135683
0.135477
0.135263
0.13504
0.134811
0.134575
0.134334
0.134089
0.133836
0.13358
0.133319
0.133069
0.132835
0.132604
0.132377
0.132155
0.131936
0.131722
0.131513
0.131309
0.131109
0.130915
0.130725
0.130541
0.13036
0.130184
0.130012
0.129844
0.129678
0.129514
0.129355
0.137266
0.137274
0.137249
0.137194
0.137114
0.137013
0.136893
0.136758
0.13661
0.13645
0.13628
0.136102
0.135914
0.135722
0.135524
0.135322
0.135115
0.134904
0.134689
0.134473
0.134253
0.134041
0.133843
0.13365
0.13346
0.133274
0.133092
0.132914
0.132741
0.132572
0.132408
0.132249
0.132094
0.131944
0.131797
0.131655
0.131517
0.131382
0.131249
0.13112
0.130997
0.137672
0.137681
0.13766
0.137612
0.137541
0.137451
0.137344
0.137224
0.137092
0.136951
0.1368
0.136642
0.136479
0.136312
0.136141
0.135965
0.135786
0.135605
0.135421
0.135236
0.13505
0.134871
0.134703
0.134539
0.134378
0.134221
0.134069
0.13392
0.133776
0.133636
0.1335
0.133368
0.133241
0.133118
0.132999
0.132883
0.132771
0.132662
0.132556
0.132453
0.132355
0.138029
0.138038
0.138021
0.137979
0.137916
0.137835
0.13774
0.137633
0.137515
0.137389
0.137256
0.137116
0.136972
0.136824
0.136673
0.136521
0.136366
0.13621
0.136052
0.135893
0.135734
0.135581
0.135437
0.135297
0.135161
0.135028
0.134899
0.134774
0.134653
0.134536
0.134424
0.134315
0.13421
0.134108
0.13401
0.133916
0.133825
0.133736
0.133651
0.133568
0.13349
0.138344
0.138355
0.13834
0.138303
0.138246
0.138174
0.138089
0.137993
0.137888
0.137776
0.137657
0.137533
0.137405
0.137275
0.137142
0.137007
0.136872
0.136736
0.1366
0.136463
0.136327
0.136196
0.136072
0.135952
0.135835
0.135722
0.135613
0.135507
0.135405
0.135307
0.135212
0.135122
0.135034
0.13495
0.13487
0.134792
0.134718
0.134646
0.134576
0.134509
0.134447
0.138624
0.138635
0.138623
0.13859
0.138539
0.138474
0.138398
0.138312
0.138218
0.138118
0.138013
0.137903
0.137789
0.137674
0.137556
0.137438
0.137319
0.1372
0.137081
0.136963
0.136846
0.136733
0.136626
0.136523
0.136422
0.136325
0.136232
0.136142
0.136056
0.135973
0.135893
0.135817
0.135744
0.135674
0.135607
0.135543
0.135482
0.135423
0.135366
0.135312
0.135262
0.138873
0.138885
0.138875
0.138845
0.138799
0.138741
0.138673
0.138597
0.138514
0.138425
0.138331
0.138234
0.138133
0.138031
0.137927
0.137823
0.137718
0.137613
0.137509
0.137406
0.137305
0.137206
0.137113
0.137024
0.136937
0.136854
0.136774
0.136697
0.136624
0.136553
0.136486
0.136422
0.13636
0.136302
0.136246
0.136193
0.136143
0.136094
0.136048
0.136004
0.135963
0.139096
0.139108
0.139099
0.139072
0.139031
0.13898
0.13892
0.138853
0.13878
0.138702
0.138619
0.138533
0.138444
0.138353
0.138262
0.138169
0.138077
0.137985
0.137893
0.137803
0.137715
0.137629
0.137548
0.137471
0.137396
0.137324
0.137255
0.137189
0.137126
0.137066
0.137009
0.136954
0.136903
0.136854
0.136807
0.136763
0.136721
0.136681
0.136643
0.136607
0.136575
0.139295
0.139308
0.139299
0.139275
0.13924
0.139196
0.139144
0.139086
0.139023
0.138955
0.138882
0.138806
0.138728
0.138648
0.138567
0.138485
0.138404
0.138323
0.138242
0.138163
0.138086
0.138011
0.137941
0.137873
0.137808
0.137746
0.137686
0.137629
0.137575
0.137524
0.137475
0.137429
0.137386
0.137344
0.137305
0.137268
0.137233
0.1372
0.137169
0.137139
0.137113
0.139475
0.139486
0.139478
0.139458
0.139428
0.139392
0.13935
0.139301
0.139247
0.139188
0.139125
0.139058
0.13899
0.138919
0.138848
0.138776
0.138704
0.138633
0.138563
0.138493
0.138426
0.138361
0.138299
0.13824
0.138183
0.138129
0.138078
0.138029
0.137982
0.137938
0.137896
0.137857
0.13782
0.137785
0.137752
0.137721
0.137692
0.137665
0.137639
0.137615
0.137594
0.139635
0.139645
0.139638
0.139623
0.139601
0.139573
0.13954
0.1395
0.139455
0.139406
0.139352
0.139295
0.139235
0.139174
0.139112
0.139049
0.138986
0.138923
0.138862
0.138801
0.138742
0.138685
0.138631
0.138579
0.13853
0.138483
0.138438
0.138396
0.138356
0.138318
0.138282
0.138249
0.138217
0.138188
0.13816
0.138134
0.13811
0.138087
0.138066
0.138046
0.13803
0.139778
0.139786
0.139781
0.139772
0.139759
0.13974
0.139716
0.139686
0.139651
0.139611
0.139568
0.13952
0.139471
0.139419
0.139365
0.139311
0.139257
0.139203
0.139149
0.139096
0.139045
0.138996
0.138949
0.138904
0.138861
0.13882
0.138781
0.138744
0.13871
0.138677
0.138647
0.138619
0.138592
0.138568
0.138545
0.138524
0.138505
0.138487
0.138471
0.138456
0.138445
0.139901
0.139907
0.139906
0.139904
0.139899
0.139889
0.139874
0.139855
0.139831
0.139804
0.139772
0.139738
0.1397
0.139661
0.139619
0.139576
0.139533
0.139489
0.139445
0.139402
0.139361
0.13932
0.139281
0.139243
0.139207
0.139173
0.139141
0.139112
0.139084
0.139059
0.139035
0.139014
0.138996
0.138979
0.138965
0.138953
0.138943
0.138935
0.138928
0.138924
0.138922
0.139991
0.139996
0.139998
0.139999
0.139998
0.139995
0.139988
0.139979
0.139968
0.139955
0.139939
0.139921
0.139901
0.13988
0.139857
0.139833
0.139809
0.139784
0.139758
0.139733
0.13971
0.139685
0.139661
0.139639
0.139617
0.139596
0.139576
0.139558
0.139541
0.139526
0.139513
0.139501
0.139491
0.139483
0.139475
0.139469
0.139465
0.139462
0.139459
0.139458
0.139459
0.140035
0.140039
0.140042
0.140044
0.140045
0.140045
0.140043
0.140039
0.140035
0.140029
0.140023
0.140015
0.140006
0.139996
0.139986
0.139975
0.139963
0.139951
0.139939
0.139927
0.139916
0.139904
0.139893
0.139882
0.139871
0.139861
0.139851
0.139842
0.139834
0.139826
0.139819
0.139813
0.139808
0.139804
0.1398
0.139797
0.139795
0.139794
0.139792
0.139792
0.139793
0.140057
0.140062
0.140065
0.140068
0.14007
0.140072
0.140072
0.140072
0.140072
0.140071
0.140069
0.140066
0.140063
0.140059
0.140054
0.14005
0.140045
0.140039
0.140034
0.140029
0.140023
0.140018
0.140013
0.140008
0.140003
0.139998
0.139994
0.13999
0.139986
0.139982
0.139979
0.139977
0.139974
0.139972
0.139971
0.13997
0.139969
0.139968
0.139968
0.139968
0.139969
0.140068
0.140072
0.140076
0.140079
0.140082
0.140085
0.140088
0.14009
0.140092
0.140093
0.140094
0.140095
0.140095
0.140095
0.140094
0.140093
0.140092
0.140091
0.140089
0.140087
0.140086
0.140084
0.140082
0.14008
0.140078
0.140077
0.140075
0.140074
0.140072
0.140071
0.14007
0.140069
0.140068
0.140068
0.140068
0.140067
0.140067
0.140068
0.140068
0.140069
0.140069
0.140071
0.140075
0.140078
0.140082
0.140086
0.140089
0.140093
0.140097
0.1401
0.140104
0.140107
0.140109
0.140112
0.140114
0.140116
0.140118
0.140119
0.14012
0.140121
0.140122
0.140123
0.140123
0.140124
0.140124
0.140124
0.140124
0.140124
0.140125
0.140125
0.140125
0.140125
0.140125
0.140126
0.140126
0.140127
0.140127
0.140128
0.140129
0.140129
0.14013
0.140131
0.140068
0.140071
0.140074
0.140078
0.140082
0.140086
0.140091
0.140095
0.1401
0.140104
0.140109
0.140113
0.140117
0.140121
0.140125
0.140128
0.140131
0.140134
0.140137
0.14014
0.140142
0.140144
0.140146
0.140148
0.14015
0.140151
0.140153
0.140154
0.140155
0.140157
0.140158
0.140159
0.14016
0.140161
0.140162
0.140163
0.140164
0.140165
0.140166
0.140168
0.140169
0.14006
0.140063
0.140065
0.140069
0.140073
0.140077
0.140082
0.140087
0.140092
0.140097
0.140102
0.140107
0.140112
0.140116
0.140121
0.140126
0.14013
0.140134
0.140138
0.140142
0.140146
0.140149
0.140153
0.140155
0.140158
0.140161
0.140163
0.140166
0.140168
0.14017
0.140172
0.140173
0.140175
0.140176
0.140178
0.140179
0.140181
0.140182
0.140183
0.140184
0.140186
0.140047
0.140049
0.140052
0.140055
0.140058
0.140062
0.140066
0.140071
0.140075
0.14008
0.140085
0.14009
0.140095
0.1401
0.140104
0.140109
0.140114
0.140119
0.140124
0.140128
0.140133
0.140137
0.140141
0.140145
0.140149
0.140152
0.140155
0.140158
0.140161
0.140164
0.140166
0.140168
0.14017
0.140172
0.140174
0.140176
0.140178
0.140179
0.140181
0.140182
0.140183
0.140031
0.140032
0.140034
0.140036
0.140039
0.140042
0.140045
0.140048
0.140051
0.140055
0.140058
0.140062
0.140065
0.140069
0.140072
0.140075
0.140079
0.140082
0.140085
0.140089
0.140093
0.140096
0.1401
0.140104
0.140109
0.140113
0.140116
0.14012
0.140124
0.140127
0.140131
0.140134
0.140137
0.14014
0.140142
0.140145
0.140147
0.140149
0.140151
0.140153
0.140154
0.140011
0.140012
0.140012
0.140013
0.140014
0.140015
0.140016
0.140018
0.140019
0.14002
0.140022
0.140023
0.140023
0.140024
0.140024
0.140023
0.140021
0.140018
0.140003
0.139997
0.139995
0.139993
0.139992
0.139991
0.139991
0.139991
0.139992
0.139993
0.139994
0.139995
0.139996
0.139997
0.139999
0.14
0.140001
0.140002
0.140004
0.140005
0.140006
0.140007
0.140008
0.00367235
0.00451081
0.0052062
0.00652523
0.00843863
0.0107206
0.0132281
0.0158937
0.0186739
0.0215517
0.02451
0.0275321
0.0306168
0.0337545
0.036935
0.0401493
0.0433923
0.0466561
0.0499324
0.0532129
0.0564906
0.0597578
0.0630059
0.0662269
0.0694132
0.0725576
0.0756532
0.0786933
0.0816718
0.0845827
0.0874207
0.090181
0.0928591
0.0954513
0.0979542
0.100365
0.102682
0.104903
0.107027
0.109054
0.110985
0.11282
0.114561
0.116209
0.117767
0.119238
0.120624
0.12193
0.123159
0.124314
0.125399
0.126419
0.127375
0.128273
0.129116
0.129906
0.130648
0.131345
0.132
0.132616
0.133196
0.133742
0.134256
0.134742
0.135201
0.135635
0.136047
0.136439
0.136813
0.137172
0.137516
0.137858
0.138147
0.138641
0.00777679
0.00832756
0.00779788
0.00764818
0.0084458
0.0100916
0.0122721
0.014761
0.0174384
0.0202507
0.0231674
0.0261644
0.0292333
0.0323634
0.0355424
0.0387597
0.0420126
0.045291
0.048585
0.051886
0.0551876
0.0584815
0.0617588
0.0650108
0.06823
0.071409
0.0745407
0.0776182
0.080635
0.0835851
0.0864629
0.0892634
0.0919821
0.094615
0.0971586
0.0996099
0.101967
0.104227
0.10639
0.108455
0.110423
0.112294
0.114069
0.115751
0.117341
0.118842
0.120257
0.121589
0.122843
0.124021
0.125129
0.126168
0.127144
0.128059
0.128918
0.129723
0.130479
0.131189
0.131855
0.132481
0.133071
0.133625
0.134148
0.134641
0.135107
0.135547
0.135965
0.136362
0.13674
0.137102
0.13745
0.137795
0.138086
0.138584
0.0118714
0.0130912
0.0123693
0.0111446
0.0104137
0.0106686
0.0119047
0.0138496
0.0162273
0.0188673
0.0216806
0.0246158
0.027647
0.0307566
0.0339284
0.0371484
0.0404101
0.0437033
0.0470165
0.0503405
0.0536703
0.0569964
0.0603088
0.0635983
0.0668572
0.0700781
0.0732534
0.0763758
0.0794387
0.0824356
0.085361
0.0882094
0.0909763
0.0936573
0.0962488
0.0987476
0.101151
0.103458
0.105666
0.107775
0.109786
0.111698
0.113514
0.115233
0.11686
0.118395
0.119843
0.121206
0.122488
0.123694
0.124826
0.125889
0.126886
0.127821
0.128698
0.12952
0.130292
0.131015
0.131695
0.132333
0.132933
0.133497
0.134029
0.13453
0.135004
0.135451
0.135875
0.136277
0.13666
0.137027
0.137378
0.137726
0.138019
0.138522
0.01465
0.0171582
0.0172362
0.0160579
0.0145694
0.0134797
0.0132373
0.0139699
0.0155326
0.0176785
0.0201999
0.022962
0.0258888
0.0289367
0.032076
0.0352841
0.0385473
0.0418529
0.0451875
0.0485397
0.0519022
0.0552651
0.0586181
0.0619513
0.0652573
0.0685282
0.0717557
0.0749321
0.0780501
0.0811032
0.0840853
0.086991
0.0898152
0.0925533
0.0952016
0.0977565
0.100215
0.102576
0.104837
0.106998
0.109059
0.111019
0.11288
0.114644
0.116313
0.117888
0.119374
0.120772
0.122088
0.123324
0.124485
0.125575
0.126596
0.127554
0.128452
0.129294
0.130083
0.130823
0.131517
0.132168
0.132781
0.133356
0.133898
0.134409
0.134891
0.135346
0.135776
0.136185
0.136574
0.136945
0.1373
0.137652
0.137947
0.138456
0.0164235
0.020118
0.0212235
0.0208198
0.0196019
0.018117
0.0168499
0.0161998
0.0163948
0.0174482
0.0192141
0.021495
0.0241248
0.0269912
0.0300226
0.0331717
0.0364078
0.039709
0.0430564
0.0464343
0.0498312
0.053236
0.0566371
0.0600235
0.0633861
0.0667164
0.0700058
0.0732461
0.0764296
0.0795496
0.0825995
0.0855733
0.0884657
0.0912718
0.0939874
0.0966088
0.099133
0.101558
0.103881
0.106103
0.108222
0.110239
0.112154
0.11397
0.115688
0.11731
0.118839
0.120279
0.121633
0.122905
0.1241
0.12522
0.12627
0.127254
0.128176
0.12904
0.129849
0.130607
0.131318
0.131986
0.132612
0.1332
0.133754
0.134275
0.134766
0.13523
0.135669
0.136084
0.136479
0.136856
0.137216
0.137572
0.13787
0.138384
0.0185728
0.022124
0.0238676
0.0243918
0.024031
0.0230528
0.0217549
0.020476
0.0195528
0.0192587
0.0197382
0.0209823
0.02287
0.0252428
0.0279597
0.0309156
0.0340387
0.0372808
0.0406071
0.0439909
0.0474128
0.0508567
0.0543081
0.0577535
0.0611815
0.064582
0.0679454
0.0712624
0.0745249
0.077725
0.080856
0.0839113
0.0868852
0.0897724
0.0925683
0.0952689
0.0978709
0.100372
0.102769
0.105062
0.107251
0.109334
0.111314
0.113191
0.114966
0.116643
0.118225
0.119713
0.121112
0.122426
0.12366
0.124816
0.1259
0.126914
0.127864
0.128754
0.129586
0.130366
0.131096
0.131781
0.132423
0.133027
0.133593
0.134127
0.134629
0.135102
0.13555
0.135973
0.136376
0.136759
0.137124
0.137484
0.137786
0.138306
0.021799
0.0238996
0.0253769
0.0264275
0.0269684
0.0269092
0.0263067
0.0253343
0.0242105
0.0231942
0.0225514
0.0224978
0.0231474
0.024497
0.0264538
0.0288863
0.0316678
0.0346975
0.0379015
0.041226
0.0446323
0.0480919
0.0515819
0.055083
0.0585794
0.0620575
0.0655054
0.0689121
0.0722679
0.0755639
0.0787922
0.0819455
0.0850174
0.0880021
0.0908945
0.0936902
0.0963856
0.0989775
0.101464
0.103843
0.106114
0.108277
0.110333
0.112283
0.114127
0.115869
0.117512
0.119058
0.120511
0.121875
0.123154
0.124353
0.125475
0.126526
0.127509
0.128428
0.129288
0.130093
0.130846
0.131551
0.132212
0.132832
0.133414
0.133961
0.134476
0.134961
0.135419
0.135851
0.136262
0.136652
0.137023
0.137389
0.137695
0.138222
0.023287
0.0255104
0.0269545
0.027532
0.0284253
0.0290783
0.0293143
0.0291513
0.0286031
0.0277898
0.0268931
0.0261248
0.0257028
0.0258105
0.026556
0.0279531
0.0299361
0.0323965
0.0352193
0.0383047
0.0415743
0.0449701
0.0484484
0.0519757
0.0555258
0.0590774
0.0626133
0.0661186
0.0695805
0.072988
0.076331
0.0796011
0.0827906
0.0858928
0.0889017
0.0918124
0.0946205
0.0973226
0.0999161
0.102399
0.10477
0.107029
0.109177
0.111213
0.113141
0.114961
0.116677
0.118292
0.119809
0.121232
0.122567
0.123816
0.124985
0.126079
0.127101
0.128056
0.128948
0.129782
0.130561
0.131291
0.131974
0.132613
0.133213
0.133776
0.134306
0.134804
0.135273
0.135716
0.136136
0.136535
0.136913
0.137286
0.137596
0.13813
0.0235505
0.0258175
0.0277615
0.0290846
0.029935
0.0303137
0.0307413
0.0312155
0.0313689
0.0312484
0.0308846
0.0303245
0.0296889
0.0291537
0.0289112
0.0291308
0.0299242
0.0313256
0.0332971
0.0357528
0.038589
0.0417074
0.045026
0.0484801
0.05202
0.055607
0.0592114
0.0628091
0.0663806
0.0699098
0.073383
0.0767886
0.0801168
0.0833589
0.0865079
0.0895574
0.0925022
0.0953381
0.0980617
0.100671
0.103164
0.105539
0.107798
0.109941
0.111969
0.113884
0.115689
0.117387
0.118982
0.120478
0.121878
0.123189
0.124414
0.125559
0.126628
0.127625
0.128556
0.129425
0.130236
0.130994
0.131702
0.132365
0.132986
0.133568
0.134114
0.134628
0.135111
0.135566
0.135997
0.136406
0.136792
0.137172
0.137488
0.13803
0.0235597
0.025341
0.0272516
0.0290897
0.0306666
0.0317919
0.0324761
0.032836
0.0326771
0.0329493
0.0332449
0.0333137
0.0331629
0.0328549
0.0324811
0.0321743
0.0320967
0.0324062
0.0332207
0.0345965
0.0365237
0.0389408
0.041759
0.044884
0.0482302
0.0517265
0.0553165
0.0589558
0.0626096
0.0662504
0.0698561
0.0734085
0.076893
0.0802974
0.0836114
0.0868266
0.0899362
0.0929343
0.0958167
0.0985798
0.101222
0.10374
0.106136
0.108409
0.11056
0.112592
0.114506
0.116307
0.117996
0.11958
0.121062
0.122447
0.123741
0.124948
0.126073
0.127122
0.1281
0.129011
0.12986
0.130652
0.131392
0.132082
0.132728
0.133332
0.133898
0.134429
0.134929
0.135399
0.135842
0.136262
0.136659
0.137047
0.137369
0.137921
0.0243352
0.0255053
0.0268581
0.0283665
0.0299766
0.0315801
0.0330241
0.0341693
0.0348438
0.0351952
0.0353189
0.03513
0.0351892
0.0353311
0.0353819
0.0353109
0.0351799
0.0350931
0.0351802
0.0355794
0.0364097
0.0377453
0.0396042
0.0419522
0.0447195
0.0478201
0.0511682
0.0546873
0.0583139
0.061997
0.0656958
0.0693781
0.0730184
0.0765962
0.0800949
0.0835015
0.0868053
0.0899977
0.093072
0.0960232
0.0988475
0.101543
0.104107
0.106541
0.108845
0.111021
0.113071
0.114998
0.116806
0.118498
0.120081
0.121559
0.122937
0.124221
0.125416
0.126529
0.127564
0.128526
0.129422
0.130255
0.131032
0.131756
0.132431
0.133062
0.133652
0.134205
0.134723
0.13521
0.135669
0.136102
0.13651
0.136909
0.13724
0.137802
0.0269133
0.0276101
0.028429
0.0293418
0.0303629
0.0315104
0.0327777
0.0341142
0.0354063
0.036527
0.0373794
0.037859
0.0380435
0.038012
0.0377591
0.0376069
0.0376168
0.0376775
0.0377365
0.037841
0.0380858
0.0385827
0.0394398
0.0407393
0.0425215
0.0447794
0.0474664
0.0505108
0.0538316
0.05735
0.0609964
0.0647126
0.0684511
0.0721739
0.0758508
0.0794581
0.0829769
0.0863923
0.0896928
0.0928695
0.0959159
0.0988273
0.101601
0.104235
0.10673
0.109086
0.111305
0.113391
0.115347
0.117177
0.118886
0.120479
0.121963
0.123344
0.124627
0.125818
0.126924
0.127951
0.128904
0.129789
0.130611
0.131376
0.132087
0.132751
0.13337
0.133948
0.134489
0.134996
0.135473
0.135922
0.136345
0.136756
0.137096
0.137671
0.03226
0.0325889
0.0330065
0.0334579
0.0339374
0.0344598
0.035052
0.035745
0.0365589
0.0374829
0.0384695
0.0394305
0.0402616
0.0408754
0.04119
0.0412222
0.0410408
0.0406828
0.0403018
0.040165
0.0402245
0.0404195
0.0407729
0.0413543
0.0422473
0.0435266
0.0452414
0.0474051
0.0499944
0.0529565
0.0562211
0.0597126
0.0633582
0.0670936
0.0708643
0.0746257
0.0783419
0.0819845
0.0855311
0.0889646
0.0922718
0.095443
0.0984716
0.101353
0.104086
0.106668
0.109102
0.111389
0.113532
0.115536
0.117406
0.119147
0.120766
0.122269
0.123664
0.124955
0.126151
0.127259
0.128284
0.129233
0.130112
0.130928
0.131684
0.132388
0.133042
0.133652
0.134221
0.134753
0.135251
0.13572
0.136159
0.136585
0.136937
0.137528
0.040504
0.0405445
0.0406537
0.0407697
0.0408767
0.0409727
0.0410643
0.0411666
0.0413043
0.0415089
0.0418112
0.0422306
0.0427606
0.0433649
0.0439756
0.0445045
0.0448673
0.0449902
0.0448415
0.04448
0.0439828
0.0433619
0.0430324
0.0430358
0.043331
0.0439075
0.0447994
0.0460547
0.0477129
0.0497923
0.0522838
0.0551518
0.05834
0.0617809
0.0654038
0.0691415
0.0729339
0.0767299
0.080487
0.0841709
0.0877547
0.0912175
0.0945438
0.0977226
0.100746
0.103611
0.106314
0.108856
0.111239
0.113467
0.115543
0.117475
0.119269
0.12093
0.122468
0.123889
0.125201
0.126412
0.12753
0.128561
0.129513
0.130392
0.131206
0.131959
0.132658
0.133306
0.13391
0.134472
0.134997
0.135489
0.135948
0.136393
0.136759
0.137369
0.0508961
0.0507327
0.0506205
0.050504
0.0503676
0.0502054
0.0500143
0.0497942
0.049549
0.0492883
0.0490295
0.0487979
0.0486238
0.048537
0.0485581
0.0486883
0.048903
0.0491511
0.049358
0.0494411
0.0493346
0.0489708
0.0483946
0.0476945
0.0469409
0.0463508
0.0461946
0.0464869
0.0472027
0.048339
0.0499017
0.0518905
0.0542905
0.057069
0.0601779
0.0635575
0.0671425
0.0708672
0.0746694
0.0784933
0.0822905
0.0860204
0.0896504
0.0931548
0.0965144
0.0997156
0.10275
0.105611
0.108299
0.110814
0.113159
0.115339
0.11736
0.119229
0.120955
0.122546
0.124011
0.125358
0.126596
0.127734
0.12878
0.129743
0.130629
0.131446
0.132201
0.132898
0.133545
0.134145
0.134703
0.135224
0.135709
0.136175
0.136559
0.137192
0.0624518
0.0621569
0.0618995
0.0616339
0.0613481
0.0610365
0.060695
0.0603198
0.0599077
0.0594564
0.0589662
0.0584405
0.0578885
0.057326
0.0567757
0.0562658
0.0558249
0.0554757
0.055227
0.0550649
0.0549522
0.0548273
0.0546122
0.0542387
0.0536521
0.0528499
0.0519155
0.0509682
0.050082
0.0496757
0.0498554
0.0506099
0.0519064
0.05371
0.0559788
0.058661
0.0616969