/*--------------------------------*- C++ -*----------------------------------*\
| =========                 |                                                 |
| \\      /  F ield         | OpenFOAM: The Open Source CFD Toolbox           |
|  \\    /   O peration     | Version:  5.x                                   |
|   \\  /    A nd           | Web:      www.OpenFOAM.org                      |
|    \\/     M anipulation  |                                                 |
\*---------------------------------------------------------------------------*/
FoamFile
{
    version     2.0;
    format      ascii;
    class       volScalarField;
    location    "350";
    object      nut;
}
// * * * * * * * * * * * * * * * * * * * * * * * * * * * * * * * * * * * * * //

dimensions      [0 2 -1 0 0 0 0];

internalField   nonuniform List<scalar> 
11040
(
0.00180844
0.00196057
0.00236415
0.00268074
0.00282511
0.00286736
0.00285478
0.0028088
0.00273329
0.0026299
0.00247712
0.00234804
0.00226607
0.00220744
0.00214376
0.00207869
0.0020142
0.00195311
0.00189852
0.00185025
0.00180538
0.00176723
0.00173408
0.00170298
0.00167375
0.00164594
0.00161899
0.00159256
0.0015664
0.00154018
0.00151344
0.00148557
0.00145586
0.00142342
0.00138677
0.0013443
0.00129319
0.00123035
0.00114287
0.00103864
0.000782226
0.00816672
0.00857712
0.00795395
0.00728059
0.0065739
0.0059058
0.00530344
0.00476449
0.00429
0.0038809
0.00348291
0.00333681
0.00327976
0.00314994
0.00298427
0.00282532
0.00268719
0.00256856
0.00248394
0.00242911
0.00238795
0.00235103
0.00231817
0.00228992
0.00226714
0.00224786
0.0022305
0.00221498
0.00220185
0.0021913
0.00218307
0.00217695
0.0021729
0.00217095
0.00217122
0.00217361
0.00217828
0.00218309
0.00218876
0.00218178
0.00211262
0.0163961
0.0170022
0.016261
0.0151871
0.0139386
0.0126683
0.0114557
0.0103223
0.0092788
0.00830374
0.00732965
0.00648659
0.00583954
0.00534507
0.0049103
0.00452801
0.00418947
0.00390368
0.00376043
0.00369385
0.00363794
0.00358261
0.00354317
0.00352104
0.00350988
0.0035012
0.00349275
0.00348673
0.0034847
0.0034858
0.00348838
0.00349136
0.00349419
0.00349623
0.00349609
0.00349205
0.00348321
0.0034622
0.00343383
0.00336655
0.00321999
0.0257837
0.0265194
0.0257684
0.0243979
0.022706
0.0208869
0.0190673
0.017292
0.015618
0.0140458
0.0124807
0.0110856
0.00997349
0.00909656
0.00832862
0.00765859
0.00707324
0.00655616
0.00610385
0.00571174
0.0053674
0.00511524
0.00500211
0.00495156
0.00491491
0.00487418
0.00484027
0.00482208
0.00481702
0.00481785
0.004821
0.0048263
0.00483352
0.00484114
0.00484647
0.00484625
0.00483801
0.00481063
0.00476483
0.00466248
0.00440162
0.0359167
0.0367389
0.036063
0.0345487
0.0325643
0.0302953
0.0279184
0.0254848
0.0231459
0.0209274
0.0187287
0.0167457
0.0151517
0.013883
0.0127589
0.0117673
0.0109018
0.0101314
0.00943654
0.00880968
0.00824529
0.00778809
0.00742864
0.00711585
0.00684053
0.00660632
0.00646822
0.00640247
0.00636251
0.00632544
0.00629586
0.00627909
0.00627188
0.00626818
0.00626354
0.00625417
0.00623673
0.00619875
0.00613677
0.00602153
0.00569174
0.0464465
0.0473162
0.046756
0.0452354
0.0431139
0.0405001
0.0376421
0.0347176
0.0318477
0.0290565
0.0262354
0.0236123
0.0214244
0.019668
0.0181569
0.0168375
0.0156969
0.0146471
0.0136829
0.0128077
0.0120165
0.0113679
0.010834
0.010347
0.00990562
0.00950468
0.0091449
0.0088263
0.00854275
0.00830257
0.00815506
0.00807502
0.00801785
0.00796563
0.00791819
0.00787186
0.00782021
0.0077483
0.00764858
0.00750346
0.00711889
0.0570556
0.0579239
0.057491
0.0560672
0.0539291
0.0512318
0.0482162
0.0450386
0.0418256
0.0386109
0.0352816
0.0320833
0.0293094
0.0269967
0.0249642
0.0231624
0.0215699
0.0201547
0.0188901
0.01776
0.0167358
0.0158758
0.0151317
0.014461
0.0138646
0.0133183
0.0128139
0.0123471
0.0119137
0.0115094
0.0111363
0.010795
0.0104804
0.0102329
0.0100695
0.0099404
0.00981462
0.0096714
0.009498
0.00928376
0.00880935
0.0674127
0.0682593
0.0679458
0.0666825
0.0646746
0.0621084
0.0591693
0.0559785
0.0526514
0.0492231
0.0455862
0.0419777
0.0387213
0.0358968
0.0333504
0.0310453
0.028966
0.0270924
0.0254035
0.0238817
0.0225135
0.0213683
0.020411
0.0195457
0.0187635
0.0180521
0.0173998
0.0167967
0.0162343
0.0157054
0.0152031
0.0147216
0.0142545
0.0137995
0.0133567
0.0129268
0.0125665
0.0122639
0.0119587
0.0116256
0.0110043
0.0772889
0.078063
0.0778413
0.076766
0.0749915
0.0726901
0.0699964
0.0669932
0.063772
0.0603533
0.0566447
0.0528488
0.0492883
0.0460796
0.0431173
0.0403791
0.0378584
0.0355448
0.0334247
0.0314846
0.0297142
0.0282446
0.0270406
0.0259513
0.0249599
0.0240526
0.0232172
0.0224427
0.0217194
0.021038
0.0203899
0.0197669
0.0191604
0.0185615
0.0179584
0.0173414
0.0167112
0.0160566
0.0154089
0.0148382
0.0140089
0.0864355
0.0871116
0.0869576
0.086072
0.0845724
0.0826021
0.0802539
0.077573
0.0746251
0.0713932
0.0678207
0.0640669
0.0604214
0.0570286
0.0538513
0.0508361
0.0479919
0.0453293
0.0428449
0.0405322
0.0383845
0.0365936
0.0351292
0.0337987
0.0325809
0.0314605
0.030424
0.0294595
0.0285559
0.0277029
0.0268907
0.0261094
0.0253495
0.0246004
0.0238474
0.0230792
0.022285
0.02144
0.020527
0.0195811
0.0183667
0.0946863
0.095259
0.0951528
0.0944412
0.0932144
0.0915864
0.0896193
0.0873133
0.0847226
0.0818582
0.078642
0.0751805
0.0717037
0.0683436
0.0650802
0.0619355
0.0589261
0.0560789
0.0533631
0.0507828
0.0483435
0.0462851
0.0445849
0.0430261
0.0415889
0.0402597
0.0390244
0.0378701
0.0367849
0.0357576
0.0347774
0.0338338
0.0329163
0.0320136
0.0311091
0.0301918
0.0292504
0.0282596
0.027192
0.0260764
0.0245252
0.101968
0.102441
0.102366
0.101803
0.100822
0.0995111
0.0979135
0.0960087
0.0938463
0.0914288
0.088686
0.0856812
0.0825794
0.0794815
0.0763767
0.0733007
0.0702838
0.0673536
0.0645272
0.061815
0.0592288
0.0570087
0.0551283
0.0533842
0.0517675
0.0502713
0.0488717
0.0475551
0.0463106
0.0451278
0.043996
0.0429047
0.0418438
0.0408015
0.03976
0.0387086
0.0376371
0.0365207
0.0353341
0.03411
0.0324492
0.108285
0.108662
0.108605
0.108163
0.107391
0.106354
0.105084
0.103557
0.101813
0.0998519
0.097614
0.0951316
0.0924987
0.0898014
0.087041
0.0842588
0.0814609
0.0786729
0.0759183
0.0732175
0.070587
0.0682924
0.066334
0.0645021
0.0627856
0.0611751
0.0596599
0.0582291
0.0568719
0.055578
0.0543367
0.053137
0.0519757
0.0508334
0.049692
0.0485424
0.0473764
0.0461709
0.0449049
0.0436067
0.0419264
0.113688
0.113975
0.113928
0.113584
0.112983
0.112173
0.111176
0.109974
0.108599
0.107048
0.105276
0.103281
0.101152
0.0989343
0.0966219
0.0942373
0.0917997
0.0893425
0.0868616
0.0843726
0.0818936
0.0796868
0.0777729
0.0759615
0.0742446
0.0726163
0.0710699
0.0695976
0.0681916
0.0668434
0.0655445
0.0642857
0.0630586
0.061853
0.0606526
0.0594496
0.0582369
0.0569928
0.0557006
0.0543804
0.0527449
0.118237
0.118461
0.118426
0.118162
0.117699
0.117069
0.116291
0.115351
0.11428
0.113073
0.111683
0.110133
0.10847
0.106721
0.104874
0.102942
0.100938
0.0988723
0.0967592
0.0946108
0.09245
0.0904896
0.0887481
0.0870747
0.0854696
0.0839398
0.0824725
0.0810615
0.079702
0.0783885
0.077115
0.0758753
0.0746626
0.0734686
0.0722794
0.0710897
0.0698947
0.0686755
0.0674196
0.0661403
0.0646157
0.12206
0.122234
0.122207
0.122002
0.121654
0.121158
0.120548
0.119818
0.118987
0.118056
0.116987
0.1158
0.114525
0.113178
0.111737
0.11022
0.108647
0.107011
0.105316
0.10357
0.101781
0.100132
0.0986528
0.0972172
0.0958259
0.0944788
0.0931747
0.0919116
0.0906864
0.0894956
0.0883348
0.0872058
0.0860974
0.0850025
0.0839099
0.0828164
0.0817197
0.080604
0.079461
0.0782984
0.0769583
0.125262
0.125398
0.125377
0.125216
0.124943
0.124556
0.124081
0.123516
0.122874
0.122156
0.121338
0.120435
0.119467
0.118434
0.117337
0.116181
0.114971
0.113708
0.112405
0.111055
0.109659
0.108356
0.107172
0.106013
0.104881
0.103776
0.102698
0.101646
0.100618
0.0996138
0.0986299
0.0976639
0.0967132
0.0957734
0.0948362
0.0938997
0.0929628
0.0920131
0.0910449
0.0900622
0.088963
0.12782
0.12793
0.127913
0.127786
0.127568
0.127264
0.126888
0.126449
0.125942
0.125379
0.124743
0.124045
0.1233
0.122507
0.121666
0.120781
0.119856
0.11889
0.117885
0.116842
0.115765
0.114752
0.113826
0.112916
0.112024
0.111151
0.110295
0.109463
0.108648
0.107849
0.107063
0.10629
0.105527
0.104772
0.10402
0.103269
0.102519
0.101761
0.100991
0.100213
0.099364
0.12979
0.129879
0.129867
0.129763
0.129585
0.129344
0.129038
0.128681
0.128274
0.127822
0.127322
0.12677
0.126183
0.12556
0.124902
0.124212
0.123493
0.122744
0.121966
0.12116
0.120326
0.119539
0.118815
0.118103
0.117405
0.11672
0.11605
0.115393
0.114749
0.114117
0.113501
0.112896
0.112299
0.11171
0.111123
0.110539
0.109958
0.109373
0.108782
0.108187
0.107551
0.131336
0.13141
0.1314
0.131314
0.131165
0.130964
0.130712
0.130418
0.130089
0.129719
0.129311
0.128864
0.128391
0.127897
0.127371
0.126822
0.126252
0.12566
0.125048
0.124416
0.123764
0.123146
0.122577
0.122017
0.121469
0.120931
0.120405
0.119889
0.119384
0.11889
0.118405
0.117929
0.117462
0.117005
0.116552
0.116103
0.115658
0.115212
0.114764
0.114314
0.113845
0.132579
0.132642
0.132633
0.13256
0.132434
0.132263
0.132055
0.131808
0.131532
0.131224
0.130886
0.130523
0.130135
0.12973
0.129303
0.128859
0.128399
0.127924
0.127435
0.126931
0.126415
0.125924
0.125472
0.125028
0.124593
0.124168
0.123748
0.123338
0.12294
0.122552
0.122173
0.121801
0.121437
0.121083
0.120733
0.120388
0.120048
0.119709
0.11937
0.119031
0.118685
0.133597
0.133651
0.133643
0.133581
0.133472
0.133326
0.133147
0.132941
0.132706
0.132449
0.132165
0.131861
0.131537
0.131201
0.130852
0.130487
0.130111
0.129724
0.129328
0.128921
0.128507
0.128112
0.127748
0.127392
0.127041
0.126701
0.126366
0.126039
0.12572
0.125413
0.125114
0.124823
0.124539
0.124263
0.123992
0.123725
0.123464
0.123205
0.122947
0.122692
0.122435
0.134446
0.134492
0.134484
0.13443
0.134336
0.134209
0.134054
0.133876
0.133678
0.133457
0.133218
0.132959
0.132689
0.132406
0.132113
0.131812
0.131504
0.131184
0.130858
0.130526
0.130189
0.129868
0.129572
0.129282
0.128998
0.128724
0.128454
0.128191
0.127935
0.127688
0.12745
0.127221
0.126999
0.126783
0.126572
0.126365
0.126163
0.125963
0.125766
0.125572
0.12538
0.135161
0.1352
0.135193
0.135146
0.135063
0.134952
0.134818
0.134662
0.13449
0.1343
0.134095
0.133874
0.133644
0.133407
0.13316
0.132906
0.132647
0.132383
0.132116
0.131841
0.131564
0.1313
0.131056
0.130819
0.130588
0.130365
0.130146
0.129932
0.129725
0.129525
0.129332
0.129146
0.12897
0.128799
0.128632
0.12847
0.128313
0.128159
0.128008
0.127861
0.127718
0.135771
0.135804
0.135798
0.135756
0.135683
0.135586
0.135468
0.135332
0.135181
0.135018
0.13484
0.134651
0.134453
0.134249
0.13404
0.133827
0.133607
0.133385
0.133159
0.132932
0.132704
0.132485
0.132283
0.132086
0.131896
0.131711
0.13153
0.131356
0.131187
0.131024
0.130868
0.130718
0.130574
0.130436
0.130303
0.130177
0.130054
0.129935
0.129819
0.129706
0.129597
0.136296
0.136324
0.136318
0.136281
0.136217
0.136131
0.136026
0.135907
0.135774
0.13563
0.135477
0.135313
0.135143
0.134967
0.134787
0.134604
0.134418
0.134231
0.134041
0.133849
0.133658
0.133476
0.133308
0.133144
0.132986
0.132832
0.132683
0.132539
0.1324
0.132266
0.132138
0.132016
0.131899
0.131787
0.13168
0.131577
0.13148
0.131387
0.131297
0.13121
0.131128
0.13675
0.136775
0.136769
0.136736
0.136679
0.136603
0.136511
0.136405
0.136287
0.136161
0.136025
0.135883
0.135735
0.135584
0.135429
0.135273
0.135113
0.134952
0.134791
0.13463
0.134469
0.134315
0.134173
0.134036
0.133903
0.133774
0.13365
0.13353
0.133415
0.133304
0.133199
0.133098
0.133002
0.132911
0.132824
0.132741
0.132662
0.132587
0.132515
0.132447
0.132384
0.137147
0.137168
0.137163
0.137134
0.137083
0.137016
0.136933
0.136839
0.136735
0.136623
0.136503
0.136378
0.136249
0.136118
0.135984
0.135848
0.135711
0.135573
0.135435
0.135297
0.13516
0.135031
0.13491
0.134793
0.134681
0.134572
0.134467
0.134367
0.134271
0.134179
0.134092
0.134009
0.13393
0.133855
0.133783
0.133716
0.133652
0.133591
0.133533
0.133478
0.133428
0.137496
0.137514
0.13751
0.137483
0.137439
0.137378
0.137305
0.137221
0.137128
0.137028
0.136922
0.136811
0.136698
0.136582
0.136464
0.136346
0.136228
0.136108
0.13599
0.135872
0.135756
0.135644
0.135541
0.135441
0.135346
0.135253
0.135165
0.13508
0.135
0.134923
0.13485
0.134781
0.134716
0.134654
0.134595
0.13454
0.134488
0.134438
0.134392
0.134347
0.134308
0.137803
0.13782
0.137816
0.137792
0.137752
0.137698
0.137633
0.137558
0.137475
0.137386
0.137292
0.137193
0.137092
0.13699
0.136886
0.136782
0.136679
0.136575
0.136474
0.136372
0.136272
0.136177
0.136087
0.136002
0.13592
0.135841
0.135766
0.135694
0.135626
0.135562
0.135501
0.135443
0.135388
0.135337
0.135289
0.135243
0.135201
0.13516
0.135122
0.135087
0.135055
0.138076
0.13809
0.138087
0.138066
0.138031
0.137982
0.137924
0.137856
0.137783
0.137703
0.137619
0.137532
0.137442
0.137351
0.13726
0.137168
0.137076
0.136986
0.136897
0.136809
0.136724
0.136641
0.136564
0.136491
0.13642
0.136352
0.136288
0.136227
0.136169
0.136115
0.136063
0.136015
0.135969
0.135926
0.135886
0.135849
0.135814
0.135781
0.13575
0.135721
0.135696
0.138319
0.138332
0.138329
0.138311
0.138279
0.138235
0.138183
0.138123
0.138057
0.137986
0.137911
0.137833
0.137753
0.137672
0.137591
0.13751
0.137429
0.13735
0.137272
0.137195
0.137121
0.137049
0.136982
0.136918
0.136858
0.136799
0.136744
0.136692
0.136643
0.136597
0.136553
0.136512
0.136474
0.136438
0.136405
0.136374
0.136345
0.136318
0.136293
0.136269
0.136249
0.138536
0.138547
0.138545
0.138529
0.138501
0.138462
0.138415
0.138361
0.138302
0.138238
0.138171
0.138102
0.138031
0.137959
0.137887
0.137815
0.137744
0.137674
0.137605
0.137538
0.137474
0.137411
0.137353
0.137297
0.137244
0.137194
0.137147
0.137102
0.13706
0.13702
0.136983
0.136949
0.136917
0.136887
0.136859
0.136833
0.136809
0.136787
0.136766
0.136747
0.136731
0.13873
0.138741
0.138739
0.138725
0.1387
0.138665
0.138623
0.138575
0.138522
0.138465
0.138405
0.138343
0.13828
0.138216
0.138152
0.138088
0.138025
0.137964
0.137903
0.137844
0.137788
0.137733
0.137683
0.137634
0.137588
0.137545
0.137504
0.137465
0.137429
0.137395
0.137364
0.137335
0.137307
0.137282
0.137259
0.137237
0.137217
0.137199
0.137182
0.137166
0.137154
0.138905
0.138915
0.138914
0.138902
0.138879
0.138848
0.138811
0.138768
0.138721
0.13867
0.138616
0.138561
0.138505
0.138448
0.138391
0.138334
0.138279
0.138224
0.138171
0.138119
0.13807
0.138022
0.137978
0.137935
0.137896
0.137858
0.137822
0.137789
0.137758
0.137729
0.137702
0.137677
0.137654
0.137633
0.137613
0.137595
0.137578
0.137563
0.137549
0.137536
0.137526
0.139062
0.139071
0.139071
0.139061
0.139041
0.139014
0.13898
0.138942
0.1389
0.138855
0.138807
0.138758
0.138708
0.138657
0.138607
0.138557
0.138508
0.138459
0.138412
0.138367
0.138324
0.138282
0.138243
0.138206
0.138171
0.138139
0.138108
0.138079
0.138052
0.138027
0.138004
0.137983
0.137963
0.137945
0.137928
0.137913
0.137899
0.137887
0.137875
0.137865
0.137857
0.139204
0.139213
0.139213
0.139204
0.139187
0.139163
0.139134
0.1391
0.139063
0.139023
0.138981
0.138937
0.138892
0.138848
0.138803
0.138759
0.138715
0.138673
0.138631
0.138591
0.138553
0.138517
0.138483
0.138451
0.138421
0.138392
0.138365
0.13834
0.138317
0.138296
0.138276
0.138257
0.13824
0.138225
0.138211
0.138198
0.138187
0.138176
0.138167
0.138158
0.138152
0.139332
0.139341
0.139342
0.139335
0.13932
0.139299
0.139274
0.139244
0.139211
0.139176
0.139139
0.1391
0.139061
0.139021
0.138982
0.138943
0.138904
0.138867
0.138831
0.138796
0.138762
0.138731
0.138701
0.138673
0.138646
0.138621
0.138598
0.138576
0.138556
0.138538
0.138521
0.138505
0.13849
0.138477
0.138465
0.138455
0.138445
0.138436
0.138428
0.138421
0.138416
0.139448
0.139457
0.139459
0.139453
0.139441
0.139423
0.139401
0.139375
0.139347
0.139316
0.139284
0.13925
0.139215
0.139181
0.139146
0.139112
0.139078
0.139045
0.139013
0.138983
0.138954
0.138926
0.1389
0.138875
0.138852
0.138831
0.13881
0.138792
0.138774
0.138758
0.138743
0.13873
0.138718
0.138706
0.138696
0.138687
0.138679
0.138672
0.138665
0.138659
0.138655
0.139553
0.139562
0.139565
0.13956
0.139551
0.139536
0.139518
0.139496
0.139472
0.139445
0.139417
0.139388
0.139358
0.139328
0.139298
0.139268
0.139238
0.13921
0.139182
0.139155
0.13913
0.139106
0.139083
0.139062
0.139042
0.139023
0.139005
0.138989
0.138974
0.13896
0.138947
0.138936
0.138925
0.138916
0.138907
0.138899
0.138892
0.138886
0.138881
0.138876
0.138873
0.139648
0.139657
0.139661
0.139658
0.139651
0.13964
0.139625
0.139607
0.139587
0.139565
0.139541
0.139516
0.139491
0.139465
0.139439
0.139413
0.139388
0.139363
0.139339
0.139316
0.139294
0.139273
0.139254
0.139235
0.139218
0.139202
0.139187
0.139173
0.13916
0.139148
0.139137
0.139127
0.139118
0.13911
0.139102
0.139096
0.13909
0.139085
0.139081
0.139077
0.139074
0.139734
0.139744
0.139748
0.139748
0.139743
0.139735
0.139724
0.13971
0.139694
0.139676
0.139657
0.139636
0.139615
0.139594
0.139572
0.139551
0.139529
0.139508
0.139488
0.139469
0.139451
0.139433
0.139416
0.139401
0.139386
0.139372
0.139359
0.139347
0.139336
0.139326
0.139317
0.139309
0.139302
0.139295
0.139289
0.139284
0.13928
0.139276
0.139273
0.13927
0.139269
0.139812
0.139822
0.139827
0.139828
0.139827
0.139822
0.139814
0.139805
0.139793
0.13978
0.139765
0.13975
0.139734
0.139717
0.1397
0.139683
0.139666
0.13965
0.139634
0.139619
0.139604
0.13959
0.139577
0.139564
0.139553
0.139542
0.139532
0.139522
0.139514
0.139506
0.139499
0.139493
0.139488
0.139483
0.13948
0.139476
0.139474
0.139472
0.139471
0.13947
0.13947
0.139881
0.139891
0.139897
0.1399
0.1399
0.139898
0.139894
0.139889
0.139882
0.139873
0.139864
0.139854
0.139844
0.139833
0.139821
0.13981
0.139799
0.139788
0.139777
0.139767
0.139758
0.139748
0.13974
0.139732
0.139724
0.139717
0.139711
0.139705
0.1397
0.139695
0.139691
0.139688
0.139685
0.139683
0.139681
0.13968
0.139679
0.139679
0.139679
0.139679
0.13968
0.139938
0.139946
0.13995
0.139953
0.139953
0.139953
0.139951
0.139948
0.139945
0.139941
0.139936
0.139931
0.139926
0.13992
0.139914
0.139908
0.139902
0.139896
0.13989
0.139885
0.13988
0.139875
0.13987
0.139865
0.139861
0.139857
0.139854
0.139851
0.139848
0.139845
0.139843
0.139841
0.139839
0.139837
0.139836
0.139835
0.139834
0.139834
0.139834
0.139833
0.139833
0.139973
0.139976
0.139978
0.139979
0.139979
0.139979
0.139978
0.139977
0.139975
0.139973
0.139971
0.139968
0.139965
0.139961
0.139958
0.139954
0.139951
0.139947
0.139943
0.139939
0.139936
0.139933
0.139929
0.139926
0.139923
0.13992
0.139918
0.139916
0.139913
0.139911
0.139909
0.139907
0.139906
0.139904
0.139903
0.139901
0.1399
0.139899
0.139898
0.139897
0.139897
0.139989
0.139991
0.139992
0.139993
0.139993
0.139993
0.139992
0.139992
0.139991
0.13999
0.139989
0.139987
0.139985
0.139983
0.139981
0.139978
0.139975
0.139972
0.139969
0.139965
0.139961
0.139957
0.139953
0.139949
0.139944
0.13994
0.139936
0.139933
0.139929
0.139926
0.139923
0.13992
0.139917
0.139915
0.139913
0.139911
0.13991
0.139908
0.139906
0.139905
0.139904
0.139998
0.139998
0.139999
0.139999
0.139999
0.139999
0.139999
0.139999
0.139999
0.139998
0.139998
0.139997
0.139997
0.139995
0.139994
0.139993
0.139991
0.139988
0.139985
0.13998
0.139975
0.139967
0.139958
0.13995
0.139942
0.139934
0.139927
0.13992
0.139914
0.139908
0.139902
0.139897
0.139892
0.139887
0.139883
0.139879
0.139875
0.139871
0.139868
0.139865
0.139862
0.00194702
0.00281482
0.00349111
0.0040794
0.00462901
0.00515824
0.00567804
0.00619916
0.00673059
0.00728467
0.00787311
0.00850462
0.00918534
0.00992005
0.0107119
0.0115643
0.0124809
0.0134636
0.0145127
0.0156275
0.0168061
0.018047
0.0193485
0.0207086
0.0221244
0.0235928
0.0251107
0.0266752
0.0282836
0.0299328
0.0316198
0.0333415
0.0350951
0.0368779
0.0386874
0.0405208
0.0423756
0.0442492
0.0461394
0.048044
0.0499608
0.0518876
0.0538225
0.0557633
0.0577083
0.0596555
0.0616032
0.0635498
0.0654935
0.0674328
0.0693659
0.0712916
0.0732082
0.0751144
0.0770087
0.0788898
0.0807564
0.0826072
0.084441
0.0862564
0.0880524
0.0898278
0.0915814
0.0933122
0.095019
0.0967009
0.0983569
0.0999862
0.101587
0.103163
0.104697
0.106254
0.107546
0.109866
0.0028857
0.00349225
0.00401641
0.00452995
0.00502512
0.00550249
0.0059683
0.00643178
0.00689948
0.00738869
0.00791101
0.008473
0.00907965
0.009736
0.0104455
0.0112146
0.0120493
0.0129523
0.0139243
0.0149643
0.0160709
0.0172436
0.018481
0.019781
0.0211406
0.0225561
0.0240244
0.0255426
0.0271079
0.0287169
0.0303663
0.0320527
0.0337732
0.0355251
0.0373056
0.0391119
0.0409413
0.042791
0.0446588
0.0465425
0.0484397
0.0503483
0.0522661
0.0541912
0.0561215
0.0580553
0.0599908
0.0619262
0.0638599
0.0657902
0.0677156
0.0696346
0.0715457
0.0734475
0.0753387
0.0772179
0.0790837
0.0809349
0.0827703
0.0845888
0.086389
0.0881699
0.0899304
0.0916694
0.0933858
0.0950787
0.096747
0.09839
0.100006
0.101598
0.103151
0.104728
0.106037
0.108395
0.00395429
0.00457945
0.00509725
0.00553562
0.00593231
0.00631266
0.00668744
0.00706375
0.00744284
0.00785606
0.00830398
0.00878605
0.00930513
0.00986646
0.0104731
0.0111387
0.0118708
0.012672
0.0135429
0.0144827
0.0154917
0.0165716
0.0177219
0.0189402
0.0202229
0.021566
0.0229667
0.0244224
0.0259299
0.0274854
0.0290849
0.0307249
0.0324023
0.0341143
0.0358579
0.0376298
0.0394271
0.041247
0.043087
0.044945
0.0468183
0.0487048
0.0506021
0.052508
0.0544208
0.0563385
0.0582593
0.0601814
0.062103
0.0640226
0.0659384
0.0678492
0.0697534
0.0716496
0.0735364
0.0754124
0.0772763
0.079127
0.0809632
0.0827837
0.0845874
0.0863731
0.0881398
0.0898863
0.0916117
0.0933149
0.094995
0.0966513
0.0982823
0.0998904
0.10146
0.103058
0.104384
0.10678
0.00501928
0.00562796
0.00618078
0.00666224
0.00708672
0.00747576
0.00784342
0.00819902
0.00854865
0.00890497
0.00927722
0.00967114
0.0100912
0.0105429
0.0110276
0.0115762
0.0121889
0.0128646
0.0136044
0.014409
0.0152838
0.0162348
0.0172624
0.0183634
0.0195339
0.0207705
0.022072
0.0234362
0.0248593
0.0263368
0.0278636
0.0294362
0.0310518
0.0327072
0.0343988
0.0361226
0.0378753
0.039654
0.0414563
0.0432795
0.0451209
0.0469778
0.0488478
0.0507286
0.0526183
0.054515
0.0564167
0.0583214
0.0602273
0.0621327
0.064036
0.0659357
0.0678304
0.0697186
0.0715987
0.0734696
0.0753298
0.0771782
0.0790135
0.0808347
0.0826404
0.0844296
0.0862012
0.0879541
0.0896874
0.0914
0.0930911
0.0947598
0.0964047
0.0980283
0.099615
0.101232
0.102574
0.105007
0.00620536
0.00676162
0.00730076
0.00780288
0.00826875
0.00870829
0.0091285
0.00953404
0.00992883
0.0103176
0.0107058
0.0110983
0.0114998
0.0119148
0.0123462
0.0128053
0.0133014
0.0138406
0.0144277
0.0150658
0.0157724
0.0165589
0.0174215
0.0183572
0.0193635
0.0204407
0.0215928
0.022818
0.0241112
0.0254668
0.0268795
0.0283468
0.0298663
0.031434
0.0330452
0.0346948
0.0363791
0.0380953
0.0398406
0.0416118
0.0434057
0.045219
0.0470488
0.0488929
0.0507493
0.0526157
0.0544898
0.0563694
0.0582524
0.0601372
0.0620222
0.0639057
0.0657861
0.0676619
0.0695314
0.0713934
0.0732465
0.0750895
0.0769211
0.0787402
0.0805455
0.0823359
0.0841103
0.0858677
0.087607
0.0893274
0.0910278
0.0927074
0.0943648
0.0960027
0.097605
0.0992403
0.100598
0.103065
0.00756786
0.00809353
0.00861827
0.00912334
0.00960834
0.0100824
0.0105512
0.0110164
0.0114785
0.0119382
0.012396
0.0128526
0.0133091
0.013767
0.0142277
0.0146945
0.0151722
0.0156658
0.0161808
0.0167214
0.0172966
0.0179174
0.0185912
0.0193226
0.0201139
0.0209759
0.0219231
0.0229491
0.0240483
0.0252161
0.0264489
0.0277498
0.0291165
0.030543
0.0320235
0.0335514
0.0351237
0.0367382
0.0383912
0.0400785
0.0417956
0.0435382
0.0453035
0.0470891
0.0488925
0.0507108
0.0525413
0.054381
0.0562279
0.0580801
0.0599358
0.0617932
0.0636504
0.0655055
0.067357
0.0692032
0.0710428
0.0728746
0.0746973
0.0765095
0.0783099
0.0800974
0.0818708
0.0836291
0.0853712
0.0870962
0.0888031
0.0904912
0.0921587
0.0938085
0.0954242
0.0970758
0.0984473
0.100946
0.00922705
0.00975918
0.010302
0.0108322
0.011346
0.0118519
0.012358
0.0128677
0.0133821
0.0139016
0.0144255
0.0149526
0.0154819
0.0160118
0.0165412
0.0170692
0.0175963
0.0181235
0.0186528
0.0191865
0.0197283
0.0202838
0.0208598
0.0214627
0.0220981
0.0227737
0.0235011
0.0242874
0.0251358
0.0260476
0.0270264
0.0280903
0.0292313
0.0304416
0.0317158
0.033047
0.0344378
0.0358866
0.037388
0.0389357
0.0405237
0.0421473
0.0438041
0.0454915
0.047206
0.0489437
0.0507004
0.0524729
0.0542586
0.0560556
0.0578618
0.0596747
0.0614918
0.0633109
0.06513
0.0669476
0.0687622
0.0705722
0.0723762
0.0741726
0.0759598
0.0777367
0.0795021
0.0812548
0.0829938
0.0847181
0.0864264
0.0881181
0.0897914
0.091449
0.0930744
0.0947386
0.0961213
0.0986464
0.0114078
0.0119803
0.0125788
0.0131692
0.0137414
0.0143001
0.0148535
0.0154062
0.0159612
0.0165205
0.0170854
0.0176558
0.0182312
0.0188105
0.0193924
0.0199751
0.0205567
0.021136
0.0217117
0.0222836
0.0228516
0.023417
0.0239822
0.0245503
0.0251252
0.0257116
0.0263163
0.0269467
0.0276097
0.0283111
0.0290562
0.0298564
0.0307179
0.0316424
0.0326307
0.033678
0.0348063
0.0360088
0.0372765
0.0386029
0.0399818
0.0414098
0.0428877
0.0444122
0.0459775
0.0475782
0.0492085
0.0508649
0.0525451
0.0542469
0.055967
0.057702
0.0594483
0.061203
0.0629639
0.0647293
0.0664974
0.0682662
0.0700337
0.0717978
0.0735568
0.0753091
0.0770536
0.078789
0.0805142
0.0822278
0.0839285
0.0856153
0.0872863
0.0889445
0.0905729
0.0922432
0.0936319
0.096175
0.0144203
0.0150639
0.0157453
0.0164177
0.017067
0.0176936
0.0183043
0.0189045
0.0194976
0.0200868
0.0206748
0.0212634
0.0218538
0.0224466
0.0230422
0.02364
0.0242396
0.0248396
0.0254387
0.0260355
0.0266285
0.0272167
0.0277993
0.0283763
0.0289483
0.0295166
0.0300837
0.030653
0.0312289
0.0318161
0.0324197
0.0330463
0.0337035
0.0343976
0.0351341
0.0359151
0.0367507
0.0376471
0.0386054
0.0396248
0.0407025
0.0418428
0.0430556
0.0443317
0.0456629
0.047043
0.0484657
0.0499294
0.0514339
0.0529756
0.0545494
0.0561499
0.0577725
0.0594135
0.061071
0.0627432
0.0644274
0.0661205
0.0678198
0.069522
0.0712252
0.0729279
0.0746288
0.0763261
0.0780182
0.0797033
0.0813797
0.0830462
0.0847009
0.0863466
0.0879658
0.0896309
0.0910164
0.0935622
0.0187102
0.0193856
0.020124
0.0208581
0.0215678
0.0222492
0.0229063
0.0235435
0.0241646
0.0247726
0.0253707
0.0259615
0.0265471
0.0271295
0.02771
0.0282898
0.0288697
0.0294501
0.0300311
0.0306123
0.031193
0.0317723
0.0323491
0.0329222
0.0334906
0.0340535
0.0346106
0.035162
0.0357086
0.0362523
0.036795
0.03734
0.0378913
0.0384537
0.0390322
0.0396313
0.0402569
0.0409157
0.0416135
0.0423546
0.0431418
0.0439784
0.0448716
0.045824
0.0468345
0.0479009
0.0490188
0.0501964
0.0514374
0.0527329
0.054075
0.0554579
0.0568759
0.0583266
0.0598104
0.0613245
0.0628643
0.064425
0.0660026
0.0675926
0.0691935
0.070804
0.0724222
0.0740454
0.075671
0.0772965
0.0789196
0.0805389
0.0821523
0.0837624
0.0853515
0.0869913
0.0883574
0.0908792
0.0246755
0.0252535
0.0259547
0.0266828
0.0274007
0.0280949
0.0287635
0.0294088
0.0300331
0.0306389
0.0312289
0.0318058
0.0323716
0.0329284
0.0334779
0.0340219
0.0345617
0.0350986
0.0356337
0.0361678
0.0367013
0.0372347
0.0377679
0.0383006
0.0388323
0.0393621
0.0398893
0.0404128
0.0409321
0.0414466
0.0419562
0.0424613
0.0429628
0.0434623
0.0439621
0.0444648
0.0449736
0.0454927
0.0460265
0.0465799
0.047157
0.047762
0.0484002
0.049077
0.049796
0.05056
0.0513695
0.0522282
0.053141
0.0541086
0.0551289
0.056199
0.0573145
0.0584804
0.0597034
0.0609745
0.062286
0.0636322
0.0650085
0.0664092
0.0678368
0.0692898
0.0707644
0.0722562
0.0737612
0.0752758
0.0767971
0.0783242
0.079855
0.0813913
0.082915
0.0844954
0.0858146
0.0882666
0.0324587
0.0328797
0.0333907
0.0339868
0.0346233
0.0352634
0.0358916
0.0365027
0.0370951
0.0376693
0.0382267
0.0387689
0.0392975
0.0398141
0.04032
0.0408168
0.0413058
0.0417882
0.0422652
0.0427381
0.0432078
0.0436753
0.0441414
0.0446066
0.0450715
0.0455364
0.0460012
0.0464658
0.0469296
0.0473922
0.0478528
0.0483109
0.048766
0.0492178
0.0496663
0.0501121
0.0505558
0.0509989
0.0514433
0.0518914
0.052346
0.05281
0.053287
0.0537809
0.0542959
0.0548358
0.0554038
0.0560034
0.0566387
0.0573136
0.0580305
0.0587908
0.0595941
0.0604422
0.0613395
0.0622864
0.0632808
0.0643191
0.0653985
0.0665133
0.0676819
0.0688952
0.070145
0.0714254
0.0727317
0.0740595
0.0754068
0.0767748
0.0781609
0.0795651
0.0809684
0.0824355
0.0836636
0.0859718
0.0418039
0.0420987
0.0424628
0.0428356
0.0432419
0.0437248
0.0442436
0.0447675
0.0452854
0.0457935
0.0462898
0.0467733
0.047244
0.0477027
0.0481503
0.0485877
0.0490158
0.0494354
0.0498475
0.0502529
0.0506525
0.0510473
0.0514382
0.0518262
0.0522119
0.0525962
0.0529798
0.0533632
0.0537468
0.0541309
0.0545157
0.0549011
0.0552866
0.0556719
0.0560567
0.0564405
0.0568231
0.0572042
0.0575839
0.0579628
0.0583415
0.0587211
0.059103
0.0594892
0.0598818
0.0602835
0.0606969
0.0611249
0.0615705
0.0620371
0.0625282
0.0630467
0.0635948
0.0641748
0.0647898
0.0654427
0.0661352
0.0668678
0.0676404
0.0684508
0.0693043
0.0702026
0.0711435
0.0721238
0.0731404
0.0741887
0.0752737
0.0764023
0.0775661
0.0787614
0.0799692
0.081247
0.0823204
0.0843781
0.0524884
0.0526442
0.0528662
0.0530954
0.0533261
0.053563
0.0538157
0.0541348
0.0545126
0.0549114
0.0553098
0.0557024
0.0560886
0.0564681
0.0568399
0.0572033
0.0575581
0.0579045
0.0582432
0.0585747
0.0588996
0.0592186
0.0595322
0.0598409
0.0601456
0.0604468
0.0607454
0.0610421
0.0613376
0.0616325
0.0619275
0.0622231
0.0625198
0.0628178
0.0631175
0.0634187
0.0637213
0.0640251
0.06433
0.0646356
0.0649419
0.0652488
0.0655563
0.0658648
0.0661749
0.0664874
0.0668034
0.0671243
0.0674517
0.0677875
0.068134
0.0684934
0.0688681
0.0692604
0.0696728
0.0701078
0.0705682
0.0710561
0.0715734
0.0721208
0.0727004
0.0733146
0.073965
0.0746518
0.0753746
0.0761317
0.0769235
0.0777536
0.0786214
0.0795271
0.0804562
0.081456
0.0822986
0.0839799
0.0642449
0.0642553
0.0643244
0.0644002
0.0644769
0.0645576
0.064646
0.0647459
0.0648605
0.0649908
0.0651632
0.0653971
0.0656648
0.065942
0.0662158
0.0664839
0.0667472
0.0670065
0.0672618
0.0675125
0.0677579
0.0679977
0.0682319
0.0684609
0.0686852
0.0689053
0.0691216
0.0693347
0.069545
0.0697531
0.0699595
0.0701649
0.07037
0.0705752
0.0707813
0.0709888
0.0711981
0.0714097
0.0716238
0.0718405
0.0720599
0.072282
0.0725066
0.0727337
0.0729632
0.0731952
0.0734298
0.0736672
0.0739078
0.0741522
0.0744012
0.0746559
0.0749174
0.0751872
0.0754666
0.0757576
0.0760618
0.0763814