/*--------------------------------*- C++ -*----------------------------------*\
| =========                 |                                                 |
| \\      /  F ield         | OpenFOAM: The Open Source CFD Toolbox           |
|  \\    /   O peration     | Version:  5.x                                   |
|   \\  /    A nd           | Web:      www.OpenFOAM.org                      |
|    \\/     M anipulation  |                                                 |
\*---------------------------------------------------------------------------*/
FoamFile
{
    version     2.0;
    format      ascii;
    class       volScalarField;
    location    "350";
    object      nut;
}
// * * * * * * * * * * * * * * * * * * * * * * * * * * * * * * * * * * * * * //

dimensions      [0 2 -1 0 0 0 0];

internalField   nonuniform List<scalar> 
41860
(
5.05219e-06
8.10559e-06
1.74805e-05
2.06245e-05
1.63305e-05
1.28401e-05
8.68784e-06
5.90278e-06
4.1172e-06
2.93117e-06
2.09712e-06
1.62183e-06
1.1944e-06
1.04407e-06
8.12978e-07
7.54899e-07
6.53946e-07
5.8979e-07
5.5166e-07
9.40432e-07
1.03849e-06
5.82253e-07
1.30593e-06
5.77539e-07
1.42644e-06
5.64572e-07
5.54357e-07
1.54941e-06
5.43203e-07
5.38007e-07
5.39765e-07
1.31099e-06
1.25138e-06
5.27244e-07
1.21954e-06
5.23465e-07
1.14797e-06
1.09007e-06
1.46118e-06
5.12405e-07
1.17516e-06
1.12762e-06
4.72398e-07
4.73131e-07
1.39767e-06
4.71614e-07
4.69853e-07
4.68539e-07
4.67857e-07
4.6899e-07
4.69101e-07
4.69421e-07
4.70007e-07
4.67729e-07
4.67549e-07
1.44139e-06
1.49456e-06
4.75678e-07
1.51475e-06
4.79547e-07
4.7241e-07
4.84141e-07
1.05307e-06
4.87717e-07
1.03826e-06
4.75266e-07
1.50168e-06
1.51104e-06
4.72813e-07
4.90869e-07
1.43502e-06
4.70193e-07
4.69783e-07
1.01579e-06
1.27611e-06
4.56509e-07
1.15662e-06
1.14076e-06
1.10514e-06
4.08759e-07
1.08061e-06
1.58774e-07
0.000179256
0.000215606
0.000282347
0.000300292
0.000276758
0.00025513
0.000224285
0.000197858
0.000175989
0.000157273
0.000140291
0.000128095
0.00011438
0.000108611
9.82301e-05
9.52352e-05
8.90237e-05
8.42961e-05
8.10351e-05
7.46115e-05
7.30147e-05
6.87721e-05
6.66472e-05
6.47842e-05
6.24391e-05
6.16773e-05
5.93742e-05
5.93987e-05
5.77337e-05
5.72994e-05
5.75026e-05
5.69281e-05
5.68561e-05
5.69921e-05
5.70327e-05
5.75845e-05
5.79408e-05
5.84303e-05
5.97099e-05
6.05232e-05
6.25258e-05
6.42418e-05
5.09377e-05
5.08337e-05
5.14602e-05
5.10314e-05
5.06874e-05
5.05925e-05
5.06319e-05
5.12108e-05
5.14149e-05
5.15984e-05
5.18365e-05
5.13057e-05
5.14565e-05
5.25942e-05
5.29669e-05
5.32529e-05
5.36234e-05
5.40415e-05
5.32973e-05
5.4903e-05
5.49508e-05
5.57415e-05
5.55896e-05
5.48939e-05
5.61648e-05
5.65487e-05
5.54484e-05
5.75988e-05
5.69896e-05
5.61726e-05
5.66991e-05
5.71e-05
5.68713e-05
5.62039e-05
5.65971e-05
5.59062e-05
5.51877e-05
5.35899e-05
5.55709e-05
3.35388e-07
0.000231735
0.000272154
0.000359742
0.000384803
0.000355654
0.000328295
0.000289307
0.000256143
0.000229057
0.00020634
0.0001866
0.000172397
0.000159202
0.000152949
0.000148034
0.000146544
0.00014583
0.000145516
0.000145075
0.000144866
0.000143987
0.000145813
0.000143231
0.000144608
0.000142106
0.000143003
0.000142582
0.000139208
0.000140429
0.000139196
0.000138055
0.000135233
0.000134153
0.000134751
0.000132173
0.000132827
0.000130598
0.000130006
0.000129306
0.000130551
0.0001292
0.000129391
0.000128133
0.000127781
0.000125936
0.00012712
0.000126796
0.000126511
0.000126265
0.000126084
0.000125925
0.000125805
0.000125723
0.000125633
0.000125615
0.000124165
0.000124202
0.000125805
0.000124401
0.000126055
0.000126196
0.000126416
0.000125435
0.000126746
0.000125733
0.000126913
0.000125569
0.000125701
0.000127056
0.000127441
0.000125749
0.000127018
0.000127051
0.000125621
0.000124982
0.000125837
0.00012413
0.000123153
0.000122198
0.000121249
0.000122263
7.02335e-07
0.000321837
0.00036642
0.000434167
0.000473151
0.000464465
0.000434917
0.000407223
0.000383713
0.000362237
0.000342175
0.000324483
0.000303034
0.000289791
0.000272317
0.000271005
0.000265813
0.000265236
0.000263472
0.000260894
0.000259577
0.000256238
0.000255902
0.000251774
0.000250721
0.000247086
0.000245622
0.000243731
0.000239409
0.000238652
0.000236055
0.000233574
0.000230015
0.000227732
0.000226836
0.000223627
0.000222898
0.000220111
0.000218624
0.000217365
0.000217272
0.000215442
0.000214879
0.000213678
0.000212648
0.000210778
0.000211071
0.000210426
0.000209794
0.000209214
0.000208621
0.00020816
0.000207773
0.00020744
0.000207293
0.0002071
0.000205871
0.000205783
0.000206593
0.000205721
0.000206567
0.000206872
0.000206714
0.000206041
0.000206841
0.000206161
0.000207148
0.00020616
0.000206207
0.000207012
0.000206974
0.000205883
0.000206562
0.000206411
0.000204982
0.000204331
0.000204505
0.00020286
0.000201493
0.000200136
0.000198047
0.000199585
1.45296e-06
0.00044855
0.000544039
0.000641748
0.000698617
0.000722253
0.000684251
0.000659603
0.000632569
0.000602032
0.000570042
0.000539816
0.000502961
0.00047774
0.000444181
0.000433424
0.000420152
0.000414972
0.000408928
0.00040245
0.000398142
0.000391425
0.000387646
0.000381382
0.000377
0.000371776
0.000367187
0.000363244
0.000357675
0.000354306
0.000349915
0.000345869
0.000341445
0.000337675
0.000334771
0.00033088
0.000328362
0.000325012
0.000322482
0.000320269
0.000318691
0.000316565
0.000315298
0.000312814
0.000310773
0.00030892
0.000308091
0.000306909
0.000305802
0.000304785
0.000303824
0.000303001
0.000302283
0.000301648
0.000301187
0.000300741
0.000299877
0.000299596
0.000299682
0.000299195
0.000299361
0.00029949
0.000299289
0.000298981
0.00029923
0.000298899
0.000299276
0.000298761
0.000298705
0.000298808
0.00029871
0.000297981
0.000297932
0.000297617
0.000296433
0.000295562
0.000294919
0.000293413
0.000291571
0.000289718
0.00028634
0.000288159
2.94938e-06
0.00061539
0.00078428
0.000990664
0.00108105
0.00111823
0.00105809
0.00101473
0.000967369
0.000915562
0.000862482
0.000812131
0.000755361
0.000712951
0.000661732
0.0006371
0.000612752
0.000600304
0.000588016
0.000576124
0.000567127
0.000555914
0.000547845
0.000538129
0.000529964
0.000521938
0.00051398
0.000507307
0.000499536
0.000493404
0.000486756
0.000480661
0.000474647
0.000469043
0.000464082
0.000458938
0.000454625
0.000450238
0.00044646
0.000443064
0.000440177
0.000437393
0.000435391
0.000430985
0.000427545
0.000425211
0.00042339
0.00042154
0.000419831
0.00041826
0.000416821
0.000415543
0.000414407
0.000413395
0.000412555
0.000411797
0.000410949
0.000410421
0.000410036
0.0004096
0.000409353
0.000409288
0.000409014
0.000408852
0.00040874
0.00040854
0.000408498
0.000408133
0.000407963
0.000407635
0.000407478
0.000406788
0.000406267
0.000405773
0.000404588
0.000403388
0.000402135
0.000400481
0.000398086
0.00039564
0.000391172
0.000392484
5.81612e-06
0.000847524
0.00108057
0.00143533
0.00156999
0.00160503
0.00151623
0.00144504
0.00137126
0.00129372
0.00121582
0.00114183
0.00106244
0.000999707
0.000928967
0.000887623
0.000849388
0.000827112
0.0008066
0.000787685
0.000772424
0.000755472
0.000742148
0.000727735
0.000715112
0.000703177
0.000691368
0.000681245
0.000670386
0.000661146
0.000651693
0.000643027
0.00063473
0.000626865
0.00061967
0.000612712
0.000606475
0.000600568
0.00059528
0.000590497
0.00058628
0.000582498
0.000579683
0.000572914
0.000567614
0.000564353
0.000561545
0.000558873
0.000556415
0.000554156
0.000552104
0.000550257
0.000548602
0.00054712
0.000545835
0.000544693
0.000543612
0.000542779
0.000542029
0.000541441
0.000540892
0.000540624
0.000540219
0.000540032
0.000539685
0.000539451
0.000539143
0.000538737
0.000538436
0.000537818
0.000537562
0.000536749
0.000535882
0.000535185
0.000533807
0.000532233
0.000530473
0.000528475
0.000525469
0.000522331
0.000516972
0.000516769
1.09927e-05
0.00118486
0.00143957
0.00196227
0.00214804
0.00217405
0.00205289
0.0019499
0.00184697
0.00174142
0.00163642
0.00153635
0.00143204
0.00134642
0.00125404
0.00119347
0.0011385
0.00110362
0.00107264
0.00104481
0.00102157
0.00099741
0.000977582
0.000957169
0.000939108
0.000922169
0.000905714
0.000891307
0.000876493
0.000863537
0.000850631
0.000838782
0.000827542
0.000816902
0.000807093
0.00079779
0.000789319
0.000781441
0.000774315
0.000767872
0.000762136
0.000757055
0.000753301
0.000743767
0.000736074
0.000731471
0.000727529
0.000723848
0.000720464
0.000717355
0.000714537
0.000711986
0.00070969
0.000707626
0.000705805
0.000704192
0.000702719
0.000701511
0.000700391
0.000699535
0.000698689
0.000698188
0.000697596
0.000697289
0.000696747
0.00069639
0.000695876
0.000695337
0.000694886
0.000694019
0.000693627
0.00069262
0.000691439
0.000690511
0.00068884
0.000686859
0.000684605
0.000682159
0.000678496
0.000674564
0.000668544
0.000665512
1.96071e-05
0.00163394
0.00187758
0.00257678
0.00281936
0.00283227
0.00267547
0.002538
0.00240413
0.00226891
0.00213495
0.00200666
0.00187522
0.00176423
0.00164787
0.00156555
0.0014909
0.00144035
0.00139624
0.00135722
0.00132399
0.00129081
0.0012629
0.00123499
0.0012102
0.00118701
0.00116484
0.00114514
0.0011254
0.0011079
0.00109074
0.00107496
0.00106006
0.00104601
0.00103303
0.00102081
0.00100964
0.000999308
0.000989932
0.000981464
0.000973904
0.000967196
0.000962315
0.000949657
0.000938953
0.000932551
0.000927217
0.00092229
0.000917763
0.000913609
0.000909839
0.00090642
0.000903334
0.000900552
0.000898079
0.000895884
0.000893892
0.00089222
0.000890668
0.000889453
0.000888264
0.00088748
0.000886644
0.000886155
0.000885413
0.000884882
0.000884169
0.000883446
0.000882823
0.000881706
0.000881142
0.000879913
0.000878409
0.000877221
0.000875209
0.00087279
0.000870021
0.000867065
0.000862721
0.000857881
0.000851542
0.000843929
3.25644e-05
0.00221633
0.00242233
0.00329171
0.00359626
0.00359257
0.00339663
0.00322233
0.00305598
0.00288968
0.0027251
0.00256659
0.00240575
0.00226694
0.00212409
0.00201736
0.00191998
0.00185033
0.00179
0.00173701
0.00169137
0.00164693
0.00160899
0.00157175
0.0015386
0.00150767
0.0014784
0.00145216
0.0014263
0.0014032
0.00138079
0.00136017
0.00134075
0.0013225
0.00130563
0.00128981
0.00127533
0.00126196
0.00124982
0.00123885
0.00122906
0.00122033
0.00121406
0.00119796
0.00118355
0.00117478
0.00116769
0.00116122
0.00115529
0.00114984
0.0011449
0.00114041
0.00113634
0.00113268
0.0011294
0.00112649
0.00112385
0.0011216
0.00111952
0.00111785
0.00111624
0.00111511
0.00111396
0.00111324
0.00111227
0.00111152
0.00111059
0.00110965
0.00110883
0.00110745
0.00110668
0.00110521
0.00110337
0.00110189
0.00109952
0.00109664
0.00109332
0.00108982
0.00108479
0.00107893
0.00107278
0.0010583
5.0063e-05
0.00296399
0.00311147
0.00412474
0.00449558
0.0044715
0.00423247
0.00401898
0.00381882
0.00362022
0.00342351
0.00323288
0.00304042
0.0028713
0.00269927
0.00256533
0.00244204
0.00234962
0.00226949
0.00219919
0.00213818
0.00207974
0.00202933
0.00198051
0.00193694
0.0018964
0.00185831
0.00182398
0.00179053
0.00176049
0.00173159
0.00170497
0.00167997
0.00165652
0.00163486
0.00161459
0.00159601
0.00157889
0.00156333
0.00154927
0.0015367
0.00152545
0.00151745
0.00149762
0.00147873
0.0014669
0.00145758
0.00144918
0.0014415
0.00143446
0.00142806
0.00142224
0.00141698
0.00141222
0.00140795
0.00140415
0.0014007
0.00139773
0.001395
0.00139276
0.00139065
0.00138907
0.00138753
0.00138651
0.00138527
0.00138427
0.0013831
0.0013819
0.00138086
0.0013792
0.00137818
0.00137648
0.00137428
0.00137249
0.00136975
0.00136639
0.00136253
0.00135845
0.00135277
0.00134575
0.00134056
0.00131633
7.15542e-05
0.00391762
0.00398044
0.00509779
0.00553801
0.00548886
0.0052022
0.00494714
0.004712
0.00448016
0.00425004
0.00402557
0.00379931
0.00359743
0.00339342
0.00322933
0.00307683
0.00295772
0.00285379
0.00276225
0.00268234
0.00260653
0.00254063
0.00247743
0.00242088
0.0023684
0.00231931
0.00227492
0.00223205
0.00219339
0.00215643
0.00212236
0.00209044
0.00206056
0.00203295
0.00200716
0.00198351
0.00196172
0.00194191
0.00192398
0.00190796
0.00189355
0.00188333
0.00185954
0.00183533
0.00181956
0.00180738
0.00179657
0.00178671
0.00177769
0.00176949
0.00176204
0.00175528
0.00174916
0.00174366
0.00173876
0.00173431
0.00173045
0.00172692
0.00172396
0.00172121
0.00171907
0.00171705
0.00171565
0.00171409
0.00171279
0.00171134
0.00170986
0.00170856
0.00170661
0.00170532
0.00170338
0.00170082
0.0016987
0.0016956
0.00169179
0.00168737
0.00168272
0.00167647
0.00166815
0.00166496
0.00162759
9.62685e-05
0.00512745
0.00506551
0.00623705
0.00674837
0.0066679
0.00632838
0.00602933
0.0057583
0.00549265
0.00522822
0.00496849
0.00470644
0.00446944
0.00423057
0.00403327
0.00384808
0.00369823
0.00356612
0.00344887
0.00334587
0.00324865
0.00316356
0.00308254
0.00300979
0.00294246
0.00287963
0.00282273
0.00276811
0.0027187
0.00267172
0.00262836
0.00258784
0.00254994
0.00251493
0.00248226
0.0024523
0.00242467
0.00239957
0.00237679
0.00235645
0.00233805
0.00232496
0.00229696
0.00226658
0.00224581
0.00222995
0.00221609
0.00220352
0.00219204
0.00218159
0.0021721
0.00216349
0.00215569
0.00214866
0.00214238
0.00213669
0.00213171
0.00212719
0.00212333
0.00211979
0.00211695
0.00211432
0.00211244
0.00211049
0.00210883
0.00210707
0.00210526
0.00210368
0.00210143
0.00209984
0.00209767
0.00209476
0.00209232
0.00208889
0.00208465
0.00207972
0.00207451
0.00206784
0.00205807
0.00205825
0.00200402
0.000123771
0.00665474
0.00641443
0.00757336
0.0081559
0.00803575
0.00763729
0.00729181
0.00698439
0.0066849
0.0063858
0.00608983
0.00579032
0.00551605
0.00523946
0.00500577
0.00478429
0.00459949
0.00443455
0.00428663
0.00415573
0.00403234
0.00392359
0.00382055
0.00372763
0.00364183
0.00356185
0.00348931
0.00342004
0.00335718
0.00329769
0.00324273
0.00319146
0.00314355
0.0030993
0.00305803
0.00302017
0.00298524
0.00295349
0.00292462
0.00289881
0.00287537
0.00285854
0.00282605
0.00278862
0.0027616
0.00274102
0.00272329
0.00270732
0.00269276
0.00267951
0.00266749
0.00265656
0.00264666
0.00263773
0.00262973
0.00262249
0.00261611
0.00261034
0.00260536
0.00260084
0.0025971
0.00259371
0.00259121
0.00258879
0.0025867
0.00258456
0.0025824
0.00258051
0.00257797
0.00257605
0.00257366
0.00257045
0.00256768
0.00256399
0.0025594
0.00255403
0.00254834
0.00254143
0.00253007
0.0025353
0.00246071
0.000154114
0.0085736
0.00808877
0.00914346
0.00979226
0.00962301
0.0091588
0.00876466
0.00842103
0.00808854
0.00775518
0.00742269
0.00708452
0.00677118
0.00645412
0.00618085
0.00591932
0.00569528
0.00549268
0.00530874
0.00514459
0.00498959
0.00485191
0.00472182
0.00460392
0.00449518
0.0043938
0.00430176
0.0042142
0.0041345
0.00405934
0.00398985
0.00392512
0.00386467
0.00380883
0.00375678
0.00370901
0.00366488
0.00362476
0.00358819
0.00355547
0.00352564
0.00350385
0.00346652
0.0034212
0.00338647
0.00335987
0.00333722
0.00331695
0.00329853
0.00328178
0.00326657
0.00325274
0.00324021
0.0032289
0.00321875
0.00320957
0.00320143
0.0031941
0.00318771
0.00318195
0.00317709
0.00317273
0.00316943
0.00316642
0.0031638
0.00316124
0.00315868
0.00315645
0.00315361
0.00315135
0.00314878
0.00314533
0.00314228
0.00313841
0.00313358
0.00312792
0.00312183
0.00311498
0.00310189
0.00311411
0.00301676
0.00018768
0.0109731
0.0101653
0.0109926
0.0116803
0.011455
0.0109204
0.0104774
0.0101005
0.00973831
0.00937292
0.00900491
0.00862783
0.00827424
0.0079143
0.00759838
0.00729302
0.00702537
0.00678019
0.00655467
0.00635153
0.00615893
0.00598631
0.00582333
0.00567471
0.00553764
0.0054097
0.00529335
0.00518298
0.00508222
0.00498747
0.00489975
0.00481814
0.00474194
0.00467155
0.00460594
0.00454568
0.00448997
0.00443927
0.00439294
0.00435142
0.00431345
0.00428511
0.00424236
0.00418835
0.00414433
0.00411008
0.00408116
0.00405545
0.00403218
0.00401101
0.00399181
0.00397435
0.00395851
0.0039442
0.00393133
0.00391972
0.00390937
0.00390008
0.0038919
0.00388459
0.0038783
0.00387271
0.00386837
0.00386461
0.00386133
0.00385827
0.00385525
0.00385264
0.00384953
0.00384693
0.00384422
0.00384061
0.00383735
0.00383342
0.00382852
0.00382275
0.00381643
0.00381002
0.00379507
0.00381628
0.00369648
0.000224951
0.0139599
0.0127383
0.0131775
0.0138214
0.0135209
0.0129179
0.0124355
0.0120404
0.0116621
0.0112738
0.0108756
0.010462
0.0100688
0.00966468
0.00930365
0.00895104
0.00863561
0.00834307
0.00807045
0.00782244
0.00758592
0.0073718
0.00716939
0.00698349
0.00681177
0.00665111
0.00650466
0.006366
0.00623895
0.00611973
0.00600919
0.00590641
0.00581046
0.00572177
0.00563909
0.0055631
0.00549275
0.00542864
0.00536994
0.00531721
0.00526885
0.00523183
0.00518277
0.00511928
0.00506427
0.00502044
0.00498355
0.00495095
0.00492154
0.00489482
0.00487058
0.00484854
0.00482855
0.00481045
0.00479416
0.00477947
0.00476632
0.00475456
0.00474411
0.00473484
0.00472674
0.00471959
0.0047139
0.00470914
0.00470505
0.00470135
0.00469781
0.00469477
0.00469139
0.00468846
0.00468564
0.004682
0.00467863
0.0046748
0.00467004
0.00466443
0.00465809
0.00465258
0.00463571
0.00466769
0.00453054
0.00026633
0.017661
0.0159215
0.0157689
0.0162097
0.0157779
0.0151037
0.0145977
0.0142131
0.0138519
0.0134691
0.0130604
0.0126224
0.0121963
0.0117506
0.0113445
0.0109428
0.0105764
0.0102326
0.0099079
0.00960953
0.00932293
0.00906063
0.00881189
0.00858154
0.00836809
0.00816767
0.00798435
0.00781089
0.00765133
0.00750172
0.00736276
0.00723355
0.00711286
0.00700122
0.00689711
0.00680129
0.00671248
0.0066314
0.00655699
0.00648996
0.00642836
0.00637989
0.00632307
0.00624931
0.00618158
0.00612595
0.00607898
0.00603764
0.00600048
0.00596675
0.00593616
0.00590834
0.00588308
0.00586022
0.00583959
0.005821
0.0058043
0.0057894
0.00577608
0.00576431
0.00575393
0.00574477
0.00573732
0.00573124
0.00572607
0.00572158
0.0057174
0.00571385
0.0057102
0.00570694
0.00570408
0.00570053
0.00569719
0.00569364
0.00568927
0.00568415
0.00567805
0.00567397
0.00565518
0.00569909
0.0055563
0.000312006
0.0222286
0.019851
0.0188514
0.0188487
0.0181925
0.017432
0.0169127
0.0165638
0.016257
0.0159227
0.0155439
0.0151141
0.0146778
0.0142051
0.0137616
0.0133145
0.0128977
0.0125012
0.0121216
0.0117689
0.0114272
0.0111108
0.0108091
0.0105272
0.0102647
0.0100169
0.00978927
0.00957371
0.00937446
0.00918758
0.00901356
0.0088516
0.0087002
0.00855994
0.00842905
0.00830837
0.00819637
0.00809387
0.00799959
0.00791438
0.00783592
0.00777245
0.00770572
0.00762071
0.00753856
0.00746868
0.00740912
0.00735678
0.00730983
0.00726726
0.00722865
0.00719353
0.00716164
0.00713274
0.00710662
0.00708309
0.00706189
0.00704298
0.00702603
0.00701106
0.00699778
0.00698604
0.0069763
0.00696846
0.00696186
0.0069563
0.0069513
0.00694712
0.00694317
0.00693957
0.00693668
0.00693335
0.0069302
0.00692713
0.00692342
0.00691915
0.0069136
0.0069115
0.00689088
0.00694697
0.00681377
0.000722596
0.0278462
0.0246858
0.0225185
0.0217527
0.0207469
0.0198722
0.0193431
0.0190457
0.0188208
0.0185728
0.0182689
0.0178939
0.01749
0.0170247
0.0165684
0.0160927
0.0156357
0.0151925
0.0147603
0.0143538
0.0139554
0.0135813
0.0132222
0.0128828
0.0125647
0.0122624
0.0119829
0.0117177
0.0114711
0.0112394
0.0110229
0.0108211
0.010632
0.0104565
0.0102926
0.010141
0.0100001
0.00987084
0.00975161
0.00964343
0.00954367
0.00946079
0.00938105
0.00928348
0.00918524
0.00909856
0.00902356
0.00895747
0.00889825
0.00884458
0.00879589
0.0087516
0.00871133
0.00867482
0.00864174
0.00861196
0.00858505
0.00856106
0.00853947
0.00852043
0.00850346
0.00848842
0.00847568
0.00846547
0.00845694
0.00844992
0.00844382
0.0084388
0.00843442
0.00843043
0.0084275
0.00842449
0.00842165
0.00841924
0.00841644
0.00841339
0.00840867
0.00840906
0.00838679
0.00845425
0.00834086
0.00160498
0.0347306
0.0306059
0.0268541
0.02494
0.0234315
0.0224031
0.0218623
0.0216253
0.0214991
0.0213631
0.021169
0.0208918
0.0205677
0.020157
0.0197303
0.0192611
0.018791
0.0183212
0.0178507
0.0174
0.0169509
0.016522
0.0161056
0.015707
0.0153296
0.0149679
0.0146307
0.0143093
0.0140083
0.0137245
0.0134581
0.0132089
0.0129748
0.0127569
0.0125528
0.0123637
0.0121874
0.0120251
0.011875
0.0117382
0.0116118
0.0115042
0.0114073
0.0112953
0.0111794
0.0110734
0.0109799
0.010897
0.0108225
0.0107551
0.0106938
0.0106381
0.0105873
0.0105412
0.0104994
0.0104617
0.0104276
0.0103972
0.0103697
0.0103455
0.0103239
0.0103046
0.010288
0.0102746
0.0102634
0.0102544
0.0102467
0.0102405
0.0102355
0.010231
0.0102279
0.0102252
0.0102227
0.0102211
0.0102194
0.0102178
0.0102141
0.0102173
0.0101935
0.0102709
0.0101607
0.00535948
0.042943
0.0377843
0.031888
0.0284164
0.0262345
0.0250031
0.0244455
0.0242745
0.0242574
0.0242494
0.0241879
0.0240399
0.0238343
0.0235225
0.0231719
0.0227552
0.0223142
0.0218541
0.0213756
0.0209053
0.0204247
0.019955
0.0194915
0.0190399
0.0186066
0.0181859
0.0177898
0.0174091
0.0170495
0.0167084
0.0163861
0.0160831
0.0157974
0.0155302
0.0152791
0.0150455
0.0148271
0.0146251
0.0144377
0.014266
0.0141071
0.0139689
0.0138497
0.0137206
0.0135853
0.0134578
0.0133428
0.0132398
0.0131469
0.0130626
0.0129858
0.012916
0.0128523
0.0127944
0.0127417
0.0126942
0.012651
0.0126125
0.0125777
0.0125469
0.0125194
0.0124948
0.0124732
0.0124555
0.0124408
0.0124289
0.0124191
0.0124111
0.012405
0.0123996
0.0123962
0.0123936
0.0123914
0.0123905
0.0123898
0.0123898
0.0123871
0.0123931
0.0123678
0.012453
0.0123416
0.00846114
0.051997
0.0461341
0.037531
0.0321447
0.0291278
0.0276407
0.0270618
0.0269618
0.0270616
0.0271917
0.0272775
0.0272806
0.027221
0.0270416
0.0268064
0.0264852
0.026119
0.0257126
0.0252679
0.0248161
0.0243375
0.0238557
0.0233688
0.0228834
0.0224088
0.0219399
0.0214921
0.0210567
0.0206404
0.0202419
0.0198622
0.0195025
0.0191611
0.01884
0.0185367
0.018253
0.0179866
0.017739
0.0175082
0.0172956
0.0170983
0.0169234
0.0167762
0.0166268
0.0164705
0.0163197
0.0161808
0.0160545
0.01594
0.0158356
0.0157404
0.0156536
0.0155742
0.0155019
0.015436
0.0153764
0.0153222
0.0152738
0.0152298
0.015191
0.0151561
0.0151249
0.015097
0.0150739
0.0150543
0.0150386
0.0150256
0.0150151
0.0150073
0.0150005
0.0149961
0.0149932
0.014991
0.0149904
0.0149905
0.0149917
0.0149896
0.0149979
0.0149706
0.0150612
0.0149339
0.0120339
0.0614203
0.0551252
0.0435151
0.0359892
0.0320414
0.0302642
0.0296682
0.029646
0.0298693
0.0301443
0.0303871
0.0305577
0.0306643
0.0306421
0.0305517
0.0303605
0.0301087
0.0297973
0.0294293
0.0290388
0.0286035
0.0281483
0.0276737
0.0271868
0.0266985
0.0262051
0.0257251
0.0252506
0.0247898
0.0243429
0.0239121
0.0234997
0.0231048
0.0227301
0.0223737
0.022038
0.0217208
0.0214241
0.021146
0.020888
0.0206476
0.0204311
0.0202507
0.0200776
0.0198987
0.0197238
0.0195594
0.0194079
0.0192691
0.019142
0.0190256
0.0189191
0.0188214
0.0187323
0.0186507
0.0185769
0.0185095
0.0184491
0.0183943
0.0183456
0.0183019
0.0182626
0.0182271
0.0181971
0.0181714
0.0181504
0.0181331
0.018119
0.0181085
0.0180994
0.0180933
0.0180895
0.0180865
0.0180856
0.0180857
0.0180872
0.0180848
0.0180941
0.0180636
0.0181566
0.0179996
0.0160361
0.0708935
0.0642182
0.049294
0.0396037
0.034815
0.0327834
0.032205
0.0322733
0.0326269
0.0330493
0.0334542
0.0338057
0.0340943
0.0342481
0.0343256
0.0342922
0.0341878
0.0340056
0.0337528
0.0334634
0.0331117
0.0327237
0.0323019
0.0318526
0.0313875
0.0309036
0.0304225
0.0299361
0.0294546
0.0289796
0.0285146
0.0280635
0.0276262
0.0272066
0.0268037
0.0264205
0.0260556
0.0257113
0.0253863
0.0250824
0.0247976
0.0245376
0.0243209
0.0241217
0.0239196
0.0237209
0.0235314
0.0233543
0.0231902
0.023039
0.0228995
0.0227715
0.0226536
0.0225458
0.0224467
0.0223568
0.0222745
0.0222005
0.0221331
0.0220732
0.0220192
0.0219707
0.0219262
0.0218879
0.0218547
0.0218272
0.0218042
0.0217852
0.0217708
0.0217583
0.0217495
0.0217435
0.0217387
0.0217363
0.0217352
0.0217358
0.0217314
0.0217397
0.021704
0.0217957
0.0216007
0.0204488
0.0801266
0.0727511
0.0548592
0.0428578
0.0374302
0.035241
0.0346948
0.0348288
0.0352743
0.0358377
0.0364026
0.036945
0.0374251
0.0377683
0.0380323
0.0381806
0.0382528
0.0382291
0.0381257
0.0379734
0.0377413
0.037458
0.0371283
0.0367564
0.0363532
0.0359177
0.0354725
0.0350092
0.0345396
0.0340665
0.0335945
0.0331288
0.0326702
0.0322243
0.0317906
0.0313734
0.0309719
0.0305893
0.0302247
0.0298806
0.0295557
0.0292553
0.0290035
0.0287784
0.0285543
0.0283342
0.0281224
0.027922
0.0277342
0.0275597
0.0273977
0.0272482
0.0271098
0.0269828
0.0268656
0.0267589
0.0266609
0.0265725
0.0264917
0.0264197
0.0263547
0.0262962
0.0262419
0.0261945
0.0261526
0.0261174
0.0260876
0.0260625
0.0260431
0.0260259
0.0260132
0.0260039
0.0259958
0.0259906
0.0259867
0.0259845
0.0259761
0.0259807
0.025937
0.0260228
0.0257898
0.0252318
0.0887723
0.0802201
0.0613252
0.0471022
0.0405494
0.0381292
0.0375318
0.0376376
0.0380753
0.0386738
0.0393086
0.0399558
0.040563
0.0410948
0.0415567
0.0419058
0.0421809
0.0423393
0.0424186
0.0424371
0.042357
0.0422131
0.0420132
0.0417566
0.0414527
0.0411047
0.0407342
0.0403316
0.0399104
0.0394745
0.0390293
0.0385803
0.03813
0.0376846
0.0372447
0.0368156
0.0363973
0.0359939
0.0356052
0.0352344
0.0348809
0.0345501
0.0342704
0.0340243
0.0337826
0.0335463
0.0333178
0.0330997
0.0328933
0.0326998
0.0325186
0.0323505
0.032194
0.0320498
0.031916
0.0317938
0.031681
0.031579
0.0314856
0.0314019
0.0313263
0.0312581
0.0311942
0.0311378
0.0310872
0.031044
0.0310067
0.030975
0.0309497
0.030927
0.0309094
0.0308957
0.0308833
0.0308739
0.0308656
0.0308588
0.0308443
0.0308423
0.0307881
0.0308626
0.0305995
0.0303665
0.0963895
0.0866968
0.0688322
0.0538259
0.045888
0.042709
0.0415997
0.0413778
0.0415817
0.0420202
0.0425662
0.0431697
0.0437818
0.0443707
0.0449278
0.0453935
0.0458354
0.0461837
0.0464789
0.0466981
0.0467963
0.046825
0.046793
0.0466872
0.0465184
0.0462977
0.0460407
0.0457366
0.0454021
0.0450413
0.0446596
0.0442631
0.0438552
0.0434431
0.0430278
0.0426158
0.0422077
0.0418084
0.0414186
0.0410419
0.040679
0.0403349
0.040041
0.039784
0.0395337
0.0392899
0.0390538
0.0388271
0.0386107
0.0384061
0.038213
0.0380327
0.0378638
0.0377074
0.0375615
0.0374278
0.0373038
0.0371914
0.0370881
0.0369954
0.0369115
0.0368356
0.0367641
0.0367004
0.0366424
0.0365923
0.0365485
0.0365105
0.0364798
0.0364517
0.0364292
0.0364109
0.0363936
0.0363793
0.0363659
0.0363533
0.0363315
0.0363208
0.0362548
0.0363125
0.0360331
0.0358949
0.102512
0.092907
0.077192
0.062777
0.0541159
0.049784
0.0476383
0.0466859
0.0463633
0.0464036
0.0466596
0.047029
0.0474844
0.0479656
0.048476
0.0489403
0.0494143
0.0498368
0.0502357
0.050588
0.0508703
0.0511018
0.0512752
0.0513487
0.0513477
0.0512957
0.0511903
0.0510219
0.0508134
0.0505673
0.0502882
0.0499824
0.0496547
0.0493124
0.0489572
0.0485961
0.0482306
0.0478662
0.0475043
0.0471491
0.0468022
0.0464687
0.0461805
0.0459282
0.0456831
0.0454446
0.0452133
0.0449903
0.0447759
0.0445719
0.0443778
0.0441954
0.0440233
0.0438633
0.0437133
0.0435752
0.0434467
0.04333
0.0432224
0.0431257
0.0430381
0.0429589
0.042884
0.0428167
0.042755
0.0427011
0.0426535
0.0426118
0.0425777
0.0425462
0.0425203
0.0424987
0.0424778
0.0424595
0.0424417
0.0424237
0.042395
0.0423754
0.0422987
0.0423351
0.0420574
0.0418761
0.107101
0.0992005
0.0860474
0.0729607
0.0639117
0.0583348
0.0550502
0.0532513
0.0523069
0.0518585
0.0517169
0.0517381
0.051919
0.0521651
0.0524974
0.0528362
0.0532097
0.0535814
0.0539584
0.0543272
0.0546672
0.0549884
0.0552703
0.055518
0.0557098
0.0558699
0.0559444
0.0559438
0.0559009
0.0558094
0.0556717
0.0554962
0.0552889
0.0550561
0.0547996
0.0545274
0.0542412
0.0539473
0.0536474
0.0533465
0.0530469
0.0527535
0.0524965
0.0522696
0.0520483
0.0518323
0.051622
0.0514184
0.0512214
0.0510328
0.0508519
0.050681
0.0505187
0.0503671
0.0502242
0.0500924
0.0499693
0.0498574
0.0497541
0.0496615
0.0495777
0.0495022
0.0494305
0.0493662
0.0493068
0.0492548
0.0492087
0.0491683
0.0491353
0.0491045
0.0490792
0.0490579
0.0490368
0.0490178
0.0489986
0.0489782
0.0489458
0.0489197
0.0488373
0.0488504
0.0485939
0.0483151
0.111549
0.105427
0.0949076
0.0832146
0.0732088
0.0662068
0.062208
0.0599107
0.0585788
0.057785
0.0573022
0.0570106
0.0569234
0.0569194
0.0570235
0.0571655
0.0573588
0.057589
0.0578452
0.0581275
0.0584131
0.0587112
0.0589999
0.0592904
0.0595619
0.0598223
0.0600532
0.0602387
0.0603981
0.060492
0.0605263
0.0605175
0.0604698
0.060385
0.0602664
0.0601226
0.0599554
0.0597705
0.0595706
0.059361
0.0591447
0.0589263
0.0587306
0.0585546
0.0583806
0.0582088
0.0580398
0.0578749
0.0577139
0.0575587
0.0574086
0.057266
0.0571297
0.0570019
0.056881
0.0567694
0.056665
0.0565705
0.0564833
0.0564059
0.0563363
0.0562745
0.0562156
0.0561634
0.0561152
0.0560737
0.0560374
0.0560059
0.0559814
0.0559584
0.0559404
0.0559258
0.055911
0.0558974
0.055883
0.0558662
0.0558367
0.0558101
0.055731
0.0557239
0.0555072
0.0551332
0.116347
0.111644
0.103309
0.0932568
0.0837407
0.0760231
0.0702377
0.0666355
0.0646369
0.0634447
0.0627284
0.062287
0.0620667
0.0619009
0.0618093
0.0617596
0.061774
0.0618407
0.0619352
0.0620713
0.0622279
0.0624177
0.0626258
0.0628586
0.0631057
0.0633646
0.0636292
0.0638835
0.0641353
0.0643659
0.0645743
0.064757
0.0648954
0.0649839
0.0650338
0.0650528
0.0650397
0.065
0.0649372
0.0648564
0.0647608
0.0646546
0.0645535
0.0644569
0.0643569
0.0642544
0.0641505
0.0640469
0.0639437
0.063843
0.0637441
0.0636497
0.0635585
0.0634732
0.0633921
0.063318
0.0632488
0.0631873
0.0631314
0.0630833
0.0630415
0.0630062
0.0629728
0.062945
0.0629199
0.0629003
0.0628848
0.0628732
0.0628674
0.0628625
0.0628617
0.0628636
0.0628645
0.062866
0.0628659
0.0628624
0.0628463
0.0628295
0.0627671
0.0627496
0.0625887
0.0621589
0.120477
0.117194
0.110876
0.102881
0.0947734
0.0875309
0.0814178
0.0765942
0.0729136
0.070351
0.0688565
0.067934
0.0673274
0.0668598
0.0665667
0.0663807
0.0662981
0.0662359
0.0661735
0.066148
0.066146
0.0661847
0.0662585
0.0663696
0.066515
0.0666873
0.0668868
0.0671026
0.0673391
0.0675858
0.0678423
0.0681007
0.0683555
0.0685963
0.0688217
0.0690166
0.0691711
0.0692955
0.0693941
0.0694696
0.0695242
0.0695616
0.0695847
0.0695937
0.069593
0.0695843
0.0695693
0.0695502
0.0695274
0.0695031
0.0694772
0.069452
0.069427
0.0694044
0.069383
0.0693655
0.0693502
0.0693398
0.0693325
0.0693305
0.0693326
0.0693392
0.0693465
0.0693576
0.0693701
0.0693865
0.0694057
0.0694275
0.0694537
0.0694799
0.0695093
0.0695403
0.0695698
0.0695993
0.0696266
0.0696498
0.0696613
0.0696693
0.0696406
0.069631
0.0695394
0.0691156
0.123929
0.121721
0.117304
0.111487
0.105005
0.0985792
0.092848
0.0880202
0.0840316
0.080769
0.0781786
0.0759879
0.0742384
0.0728921
0.0720577
0.0715161
0.07114
0.0708455