/*--------------------------------*- C++ -*----------------------------------*\
| =========                 |                                                 |
| \\      /  F ield         | OpenFOAM: The Open Source CFD Toolbox           |
|  \\    /   O peration     | Version:  5.x                                   |
|   \\  /    A nd           | Web:      www.OpenFOAM.org                      |
|    \\/     M anipulation  |                                                 |
\*---------------------------------------------------------------------------*/
FoamFile
{
    version     2.0;
    format      ascii;
    class       volScalarField;
    location    "350";
    object      nuTilda;
}
// * * * * * * * * * * * * * * * * * * * * * * * * * * * * * * * * * * * * * //

dimensions      [0 2 -1 0 0 0 0];

internalField   nonuniform List<scalar> 
11040
(
0.00235967
0.00283653
0.00306839
0.00311725
0.00302675
0.00287136
0.00270061
0.0025611
0.00244012
0.00230994
0.00213618
0.00196204
0.00182916
0.00173465
0.00164488
0.00155602
0.00146811
0.00138386
0.0013031
0.00122423
0.00114557
0.00107532
0.00101238
0.000949432
0.000885494
0.000819452
0.000747308
0.000639299
0.000469892
0.000411874
0.000365478
0.000333426
0.00030796
0.000280727
0.000255576
0.000238338
0.000246276
0.000294935
0.000346839
0.000387654
0.000566141
0.00622349
0.00666444
0.00607922
0.00547995
0.00488165
0.00436562
0.00392153
0.00382503
0.00382598
0.00378969
0.00369208
0.00354559
0.00342501
0.00330612
0.00316239
0.00301456
0.00287723
0.00275375
0.00264267
0.00254171
0.00244938
0.0023723
0.00230528
0.00224236
0.00218323
0.00212657
0.00206904
0.00199514
0.00188138
0.00179616
0.00173259
0.00170414
0.00161602
0.00151535
0.0013847
0.00126774
0.00122641
0.00132002
0.00150358
0.00181768
0.00245603
0.0128114
0.0134941
0.0126678
0.011632
0.0104876
0.00935385
0.00830988
0.00738164
0.00658536
0.00589779
0.00526259
0.00474414
0.00463095
0.004591
0.00452786
0.00445455
0.00437367
0.00429049
0.00421054
0.00413636
0.00406794
0.00401289
0.00396333
0.00391334
0.0038629
0.00381205
0.00375973
0.00370176
0.00363222
0.00356714
0.00350786
0.00346098
0.00340308
0.00334227
0.00323693
0.00306312
0.00301514
0.00323434
0.00352417
0.00386518
0.0047062
0.0204959
0.021263
0.0203591
0.0189961
0.017408
0.0157743
0.0141984
0.0127088
0.0113306
0.0100567
0.00881534
0.00773392
0.00693712
0.00634317
0.0060492
0.00592164
0.0058295
0.00575854
0.00570279
0.00565751
0.00561956
0.00559303
0.00556995
0.00554493
0.00551659
0.00548455
0.00544814
0.00540594
0.00535638
0.00530361
0.00525032
0.00520273
0.00516169
0.00513664
0.00510251
0.00500308
0.00495857
0.00521196
0.00567503
0.00637314
0.00721192
0.0290442
0.0298101
0.0289087
0.0273407
0.025419
0.0233448
0.021255
0.0191825
0.0172184
0.0153746
0.0135632
0.0119419
0.0106482
0.00962869
0.00877674
0.00807116
0.00763891
0.00743167
0.00731029
0.00723242
0.00718387
0.00715967
0.00714583
0.00713412
0.00712164
0.00710681
0.00708795
0.00706339
0.00703177
0.00699385
0.00695208
0.00691286
0.00688543
0.00688594
0.00691112
0.00690423
0.00690725
0.00718137
0.00783028
0.00891904
0.0100028
0.0381965
0.038921
0.0380707
0.0364209
0.034295
0.0318443
0.0292537
0.0266621
0.0241646
0.0217772
0.0194006
0.0172112
0.0153896
0.0139252
0.0126703
0.0115798
0.0106678
0.00988267
0.00942042
0.00915881
0.00900174
0.0089099
0.00885128
0.00880825
0.00877711
0.00875364
0.00873355
0.00871318
0.0086897
0.00866182
0.00863057
0.00860125
0.00858471
0.00860045
0.0086639
0.00874237
0.00882675
0.00911366
0.00984067
0.0111472
0.0131783
0.0477306
0.0483753
0.047601
0.0459718
0.0437466
0.0411009
0.038231
0.0352757
0.0323496
0.0294849
0.0265828
0.0238358
0.0214681
0.019498
0.0177741
0.0162504
0.0149054
0.013707
0.0126708
0.011868
0.0114183
0.0111399
0.0109404
0.0107918
0.0106834
0.0105996
0.0105322
0.0104757
0.0104256
0.0103793
0.0103364
0.0103001
0.0102798
0.0102932
0.0103651
0.0104948
0.010663
0.0109707
0.0116684
0.0129576
0.0152403
0.0573719
0.0579387
0.0572566
0.0557221
0.0535292
0.0508696
0.047914
0.044782
0.0415911
0.0383828
0.0350663
0.0318388
0.0289585
0.0264767
0.0242562
0.0222582
0.0204599
0.0188358
0.0173628
0.0160368
0.0149035
0.0141688
0.013711
0.0133835
0.0131308
0.0129243
0.0127485
0.0125944
0.0124568
0.0123328
0.0122223
0.0121284
0.012059
0.0120288
0.0120618
0.0121796
0.0123819
0.0127047
0.0133179
0.0144221
0.0164584
0.0669135
0.0673925
0.0667995
0.0654045
0.0633533
0.0608207
0.0579445
0.0548187
0.051548
0.0481694
0.0446019
0.0410332
0.0377357
0.0347946
0.0321059
0.0296429
0.0273888
0.0253238
0.023426
0.021675
0.0200574
0.0187394
0.0177901
0.0171071
0.0165946
0.0161777
0.0158151
0.0154862
0.0151811
0.0148958
0.0146306
0.0143899
0.0141827
0.0140231
0.0139321
0.0139379
0.0140634
0.0143298
0.0148209
0.0156659
0.0171939
0.0761124
0.0765071
0.0759997
0.0747693
0.0729269
0.0706188
0.0679493
0.0649846
0.0618065
0.058422
0.0547784
0.0510405
0.0474735
0.0441929
0.0411486
0.0382978
0.0356363
0.0331588
0.0308508
0.0286957
0.026675
0.0249637
0.0235749
0.0224314
0.0215294
0.0207947
0.0201616
0.0195879
0.0190497
0.0185351
0.0180402
0.0175677
0.0171265
0.0167311
0.0164012
0.0161661
0.0160601
0.0161141
0.0163771
0.0169117
0.0178828
0.0847695
0.0850894
0.0846617
0.0836033
0.0820001
0.0799697
0.0775882
0.0748801
0.0719124
0.06871
0.0652046
0.0615207
0.0578918
0.0544375
0.0511302
0.0479845
0.045007
0.0422073
0.0395543
0.0370392
0.0346529
0.0326145
0.0309078
0.0293701
0.0280653
0.0269711
0.0260235
0.0251682
0.0243681
0.0236001
0.0228514
0.0221175
0.021402
0.0207148
0.0200712
0.0194983
0.0190316
0.0187069
0.0185719
0.0186713
0.0190512
0.0927391
0.0929953
0.0926377
0.0917439
0.090382
0.0886454
0.086589
0.0842125
0.081574
0.0786851
0.0754812
0.0720484
0.0685716
0.0651549
0.0617856
0.0584984
0.0553185
0.0522635
0.0493385
0.0465412
0.0438686
0.0415596
0.0395918
0.0377484
0.0360561
0.0346002
0.0333398
0.0322116
0.0311658
0.0301679
0.0291956
0.0282357
0.0272829
0.0263382
0.0254067
0.0245068
0.0236668
0.0229139
0.0222917
0.0218503
0.0215576
0.0999343
0.100133
0.0998317
0.0990855
0.0979491
0.0964956
0.094765
0.0927469
0.0904876
0.0879904
0.0851954
0.0821552
0.0789915
0.0757964
0.0725708
0.0693605
0.066179
0.0630497
0.0599907
0.0570136
0.0541242
0.0515985
0.0494341
0.0473923
0.0454569
0.0436337
0.0419725
0.0405245
0.0392376
0.0380478
0.03691
0.0357957
0.0346909
0.0335837
0.0324677
0.0313507
0.0302486
0.0291726
0.0281499
0.027229
0.0263031
0.106317
0.106457
0.106199
0.105581
0.104646
0.10345
0.102022
0.100349
0.0984692
0.0963806
0.0940315
0.0914358
0.0887003
0.0858797
0.0829701
0.0800041
0.0770079
0.0740145
0.0710251
0.0680538
0.0651132
0.0624988
0.0602295
0.0580731
0.0560142
0.0540399
0.0521455
0.0503406
0.0486689
0.0471875
0.0458514
0.0445977
0.0433852
0.0421878
0.0409854
0.0397735
0.0385552
0.0373258
0.0360933
0.0348939
0.0335643
0.111864
0.111964
0.111747
0.11124
0.110481
0.109508
0.108344
0.106981
0.105447
0.103741
0.101808
0.099675
0.0974063
0.0950332
0.092546
0.0899639
0.087306
0.0845909
0.0818346
0.0790507
0.0762589
0.0737307
0.0714911
0.0693367
0.0672625
0.0652678
0.063336
0.0614575
0.0596307
0.0578655
0.0561785
0.0546316
0.0532355
0.051933
0.0506705
0.0494229
0.0481782
0.0469183
0.0456371
0.0443547
0.0428956
0.116647
0.116714
0.116528
0.116112
0.115507
0.114716
0.113773
0.112673
0.111437
0.110066
0.108515
0.106804
0.104977
0.103049
0.101
0.0988499
0.0966192
0.0943064
0.09192
0.0894696
0.0869652
0.0846594
0.0825897
0.0805772
0.0786201
0.0767161
0.0748611
0.0730494
0.0712746
0.0695306
0.0678138
0.066135
0.0645002
0.0629181
0.0614315
0.060065
0.0587778
0.0575177
0.0562569
0.0549972
0.0535825
0.120736
0.120777
0.120616
0.120274
0.119782
0.119144
0.118386
0.117506
0.11652
0.115429
0.114201
0.112851
0.111409
0.109873
0.10824
0.106518
0.104711
0.102824
0.100867
0.0988358
0.0967317
0.0947623
0.0929675
0.0912046
0.0894744
0.087776
0.086108
0.0844688
0.0828553
0.081264
0.0796905
0.0781306
0.0765817
0.0750416
0.073509
0.0719968
0.0705153
0.0690632
0.0676846
0.0664005
0.0650412
0.124049
0.124076
0.123939
0.123657
0.123253
0.122735
0.12212
0.121416
0.12062
0.119741
0.118759
0.117685
0.116541
0.115324
0.114032
0.112668
0.111234
0.109731
0.108159
0.10652
0.104814
0.1032
0.101714
0.100242
0.0987881
0.0973525
0.0959348
0.0945388
0.0931584
0.0917912
0.0904351
0.0890873
0.0877453
0.0864053
0.0850586
0.0837054
0.0823491
0.080981
0.079606
0.0782399
0.076815
0.126633
0.126649
0.126532
0.126297
0.125961
0.12554
0.125031
0.12445
0.123797
0.123079
0.122287
0.121419
0.120495
0.119515
0.118477
0.117385
0.116239
0.115038
0.113781
0.112469
0.111101
0.109797
0.108588
0.107387
0.106196
0.105016
0.103847
0.10269
0.101542
0.100404
0.0992776
0.0981574
0.0970411
0.0959261
0.0948057
0.0936796
0.0925486
0.0914023
0.0902373
0.0890566
0.0878161
0.12868
0.128689
0.128589
0.128391
0.128107
0.127751
0.127325
0.126839
0.126301
0.125704
0.12505
0.124336
0.123579
0.122784
0.121939
0.121051
0.120122
0.119152
0.118139
0.117083
0.115984
0.114931
0.113952
0.112978
0.112011
0.111053
0.110103
0.109161
0.108226
0.107298
0.106376
0.10546
0.104548
0.103641
0.102732
0.101819
0.100904
0.0999786
0.0990398
0.0980887
0.0970983
0.130336
0.130343
0.130258
0.130088
0.129845
0.129541
0.129183
0.12877
0.128314
0.127811
0.127263
0.126672
0.126044
0.125384
0.124687
0.123957
0.123196
0.122404
0.121579
0.120722
0.119832
0.118978
0.118182
0.117391
0.116607
0.11583
0.115056
0.11429
0.113534
0.112785
0.112043
0.111305
0.110571
0.109843
0.109114
0.108384
0.107655
0.106919
0.106175
0.105423
0.104651
0.131703
0.131709
0.131635
0.131488
0.131278
0.131015
0.130705
0.130356
0.129965
0.12954
0.129074
0.128575
0.128045
0.127492
0.126914
0.126307
0.125676
0.125022
0.124344
0.123642
0.122916
0.122218
0.121567
0.120921
0.120278
0.119646
0.119016
0.118393
0.117778
0.117174
0.116576
0.115984
0.115396
0.114815
0.114236
0.113657
0.11308
0.1125
0.111916
0.111328
0.110731
0.132848
0.132853
0.132789
0.13266
0.132477
0.132247
0.131978
0.131673
0.131339
0.130973
0.130576
0.130149
0.129701
0.129232
0.128743
0.128236
0.127712
0.127166
0.126603
0.126022
0.125424
0.12485
0.124313
0.123781
0.123254
0.122737
0.122222
0.121714
0.121213
0.12072
0.120237
0.119762
0.119293
0.118829
0.118367
0.117908
0.117452
0.116995
0.116537
0.116078
0.115617
0.133819
0.133823
0.133766
0.133653
0.133491
0.13329
0.133054
0.132787
0.132496
0.132177
0.131834
0.131466
0.131082
0.130683
0.130267
0.129837
0.129393
0.128938
0.128469
0.127985
0.127489
0.127012
0.126567
0.126127
0.125694
0.125268
0.124845
0.124429
0.124019
0.123617
0.123222
0.122835
0.122458
0.122086
0.121718
0.121353
0.120992
0.120633
0.120274
0.119917
0.119563
0.134649
0.134653
0.134602
0.134502
0.13436
0.134182
0.133974
0.133739
0.133482
0.133206
0.132906
0.13259
0.132257
0.131912
0.131557
0.131191
0.130813
0.130425
0.130029
0.129624
0.129212
0.128813
0.12844
0.128073
0.127713
0.127358
0.127009
0.126666
0.126329
0.125999
0.125677
0.125361
0.125053
0.124751
0.124456
0.124166
0.123881
0.123598
0.123317
0.123038
0.122763
0.135367
0.135369
0.135325
0.135236
0.135109
0.134952
0.134767
0.13456
0.134333
0.134089
0.133828
0.133551
0.133263
0.132964
0.132656
0.13234
0.132017
0.131688
0.131351
0.131008
0.13066
0.130326
0.130014
0.129705
0.129404
0.129107
0.128816
0.128531
0.128253
0.127981
0.127715
0.127457
0.127205
0.126959
0.126719
0.126484
0.126256
0.126032
0.125811
0.125592
0.12538
0.13599
0.135993
0.135953
0.135874
0.135762
0.135621
0.135457
0.135273
0.135071
0.134855
0.134625
0.134383
0.13413
0.133871
0.133604
0.133332
0.133053
0.13277
0.132482
0.132191
0.131896
0.131612
0.131346
0.131087
0.130833
0.130583
0.13034
0.130102
0.12987
0.129644
0.129425
0.129211
0.129004
0.128803
0.128607
0.128416
0.128231
0.12805
0.127872
0.127699
0.127534
0.136536
0.136538
0.136503
0.136433
0.136333
0.136208
0.136061
0.135896
0.135717
0.135525
0.13532
0.135106
0.134885
0.134659
0.134427
0.13419
0.133948
0.133704
0.133456
0.133206
0.132955
0.132714
0.132488
0.132267
0.132051
0.13184
0.131634
0.131434
0.13124
0.131051
0.130869
0.130692
0.130521
0.130355
0.130194
0.130038
0.129887
0.12974
0.129597
0.129458
0.129326
0.137016
0.137019
0.136988
0.136926
0.136836
0.136724
0.136593
0.136445
0.136285
0.136113
0.135931
0.135741
0.135545
0.135345
0.135141
0.134934
0.134725
0.134512
0.134299
0.134084
0.133869
0.133662
0.133467
0.133278
0.133094
0.132914
0.13274
0.132571
0.132408
0.13225
0.132097
0.13195
0.131807
0.13167
0.131538
0.13141
0.131286
0.131167
0.13105
0.130938
0.130832
0.137441
0.137444
0.137417
0.137361
0.137281
0.13718
0.137063
0.136931
0.136787
0.136634
0.136472
0.136302
0.136128
0.13595
0.13577
0.135587
0.135403
0.135218
0.135034
0.134848
0.134663
0.134484
0.134316
0.134154
0.133995
0.133842
0.133693
0.13355
0.133411
0.133278
0.13315
0.133026
0.132908
0.132794
0.132684
0.132578
0.132477
0.132379
0.132284
0.132193
0.132108
0.137818
0.137822
0.137799
0.137749
0.137677
0.137586
0.137481
0.137363
0.137234
0.137096
0.136951
0.1368
0.136645
0.136487
0.136327
0.136165
0.136003
0.13584
0.135678
0.135517
0.135358
0.135203
0.135058
0.134917
0.134781
0.134649
0.134522
0.134399
0.134281
0.134168
0.13406
0.133956
0.133856
0.133761
0.13367
0.133582
0.133498
0.133417
0.13334
0.133265
0.133197
0.138154
0.13816
0.138139
0.138094
0.13803
0.137949
0.137854
0.137748
0.137633
0.137509
0.13738
0.137245
0.137107
0.136966
0.136823
0.13668
0.136536
0.136393
0.136251
0.13611
0.135971
0.135836
0.13571
0.135587
0.135469
0.135356
0.135246
0.135141
0.13504
0.134944
0.134852
0.134764
0.13468
0.1346
0.134524
0.134451
0.134381
0.134315
0.134251
0.13419
0.134134
0.138455
0.138461
0.138443
0.138404
0.138346
0.138273
0.138189
0.138094
0.137991
0.137881
0.137765
0.137644
0.137521
0.137396
0.137269
0.137142
0.137014
0.136888
0.136762
0.136638
0.136517
0.136399
0.136289
0.136182
0.13608
0.135981
0.135887
0.135796
0.13571
0.135627
0.135549
0.135474
0.135403
0.135336
0.135272
0.13521
0.135153
0.135097
0.135045
0.134995
0.134949
0.138725
0.138732
0.138716
0.138681
0.13863
0.138565
0.13849
0.138406
0.138314
0.138216
0.138113
0.138006
0.137896
0.137784
0.137672
0.137558
0.137446
0.137334
0.137223
0.137114
0.137008
0.136904
0.136808
0.136714
0.136625
0.136539
0.136457
0.136379
0.136305
0.136234
0.136167
0.136103
0.136043
0.135986
0.135932
0.13588
0.135832
0.135786
0.135742
0.135701
0.135664
0.138968
0.138975
0.138962
0.138931
0.138886
0.13883
0.138764
0.13869
0.138609
0.138522
0.138431
0.138335
0.138238
0.138138
0.138038
0.137938
0.137838
0.137738
0.137641
0.137545
0.137451
0.137361
0.137276
0.137194
0.137116
0.137041
0.13697
0.136902
0.136838
0.136777
0.136719
0.136665
0.136614
0.136565
0.136519
0.136476
0.136436
0.136397
0.136361
0.136327
0.136297
0.139186
0.139194
0.139183
0.139156
0.139118
0.13907
0.139014
0.13895
0.138879
0.138803
0.138722
0.138638
0.138552
0.138464
0.138375
0.138286
0.138197
0.138109
0.138023
0.137938
0.137856
0.137777
0.137702
0.13763
0.137562
0.137497
0.137435
0.137376
0.13732
0.137267
0.137218
0.137171
0.137127
0.137086
0.137047
0.137011
0.136977
0.136945
0.136914
0.136886
0.136862
0.139383
0.139391
0.139382
0.139361
0.139331
0.139291
0.139244
0.13919
0.139129
0.139064
0.138993
0.13892
0.138844
0.138766
0.138687
0.138609
0.13853
0.138453
0.138377
0.138302
0.13823
0.13816
0.138095
0.138032
0.137972
0.137915
0.137861
0.137809
0.137761
0.137715
0.137673
0.137632
0.137595
0.13756
0.137527
0.137496
0.137467
0.13744
0.137415
0.137392
0.137372
0.13956
0.139568
0.139563
0.139548
0.139525
0.139495
0.139458
0.139414
0.139364
0.139308
0.139249
0.139185
0.13912
0.139052
0.138983
0.138914
0.138845
0.138777
0.13871
0.138645
0.138581
0.13852
0.138463
0.138407
0.138355
0.138305
0.138257
0.138213
0.138171
0.138131
0.138094
0.13806
0.138027
0.137997
0.137969
0.137943
0.137919
0.137897
0.137876
0.137857
0.13784
0.139718
0.139726
0.139725
0.139718
0.139704
0.139683
0.139656
0.139623
0.139584
0.139541
0.139493
0.139441
0.139387
0.139331
0.139273
0.139214
0.139155
0.139096
0.139038
0.138981
0.138926
0.138873
0.138822
0.138774
0.138728
0.138684
0.138643
0.138604
0.138568
0.138534
0.138503
0.138473
0.138446
0.138422
0.138399
0.138378
0.13836
0.138343
0.138329
0.138316
0.138306
0.139855
0.139862
0.139865
0.139865
0.139859
0.139848
0.139832
0.139811
0.139786
0.139757
0.139724
0.139689
0.13965
0.139609
0.139566
0.139522
0.139477
0.139432
0.139387
0.139343
0.1393
0.139259
0.139219
0.139181
0.139145
0.13911
0.139078
0.139048
0.139021
0.138996
0.138973
0.138953
0.138935
0.138919
0.138905
0.138894
0.138885
0.138878
0.138872
0.138868
0.138867
0.139952
0.139959
0.139962
0.139963
0.139961
0.139956
0.139948
0.139939
0.139927
0.139913
0.139898
0.13988
0.139861
0.13984
0.139818
0.139795
0.139771
0.139747
0.139722
0.139698
0.139675
0.139652
0.139629
0.139606
0.139585
0.139565
0.139545
0.139527
0.13951
0.139495
0.139482
0.13947
0.139459
0.13945
0.139443
0.139436
0.139431
0.139427
0.139425
0.139423
0.139423
0.14
0.140005
0.140008
0.140009
0.140009
0.140008
0.140005
0.140002
0.139997
0.139991
0.139984
0.139976
0.139967
0.139958
0.139947
0.139936
0.139925
0.139914
0.139902
0.13989
0.139879
0.139868
0.139856
0.139846
0.139835
0.139825
0.139816
0.139807
0.139798
0.139791
0.139784
0.139778
0.139772
0.139767
0.139763
0.13976
0.139757
0.139755
0.139754
0.139753
0.139753
0.140025
0.140029
0.140032
0.140034
0.140035
0.140036
0.140037
0.140036
0.140035
0.140034
0.140032
0.140029
0.140026
0.140022
0.140017
0.140013
0.140008
0.140003
0.139998
0.139992
0.139987
0.139982
0.139977
0.139972
0.139967
0.139962
0.139958
0.139954
0.13995
0.139946
0.139943
0.13994
0.139938
0.139935
0.139933
0.139932
0.139931
0.13993
0.139929
0.139929
0.139929
0.140036
0.14004
0.140043
0.140045
0.140047
0.14005
0.140052
0.140053
0.140055
0.140056
0.140056
0.140057
0.140057
0.140057
0.140056
0.140055
0.140054
0.140053
0.140051
0.14005
0.140048
0.140047
0.140045
0.140043
0.140041
0.14004
0.140038
0.140037
0.140035
0.140034
0.140033
0.140032
0.140031
0.14003
0.14003
0.140029
0.140029
0.140029
0.140029
0.140029
0.140029
0.140039
0.140042
0.140044
0.140047
0.14005
0.140053
0.140055
0.140058
0.140061
0.140063
0.140066
0.140068
0.14007
0.140072
0.140073
0.140075
0.140076
0.140077
0.140078
0.140079
0.14008
0.140081
0.140081
0.140082
0.140082
0.140082
0.140082
0.140083
0.140083
0.140083
0.140083
0.140083
0.140084
0.140084
0.140084
0.140084
0.140085
0.140085
0.140086
0.140086
0.140087
0.140035
0.140037
0.140039
0.140041
0.140044
0.140047
0.14005
0.140053
0.140056
0.140059
0.140062
0.140064
0.140067
0.14007
0.140072
0.140075
0.140078
0.14008
0.140083
0.140085
0.140087
0.140089
0.140092
0.140093
0.140095
0.140097
0.140099
0.1401
0.140101
0.140103
0.140104
0.140105
0.140106
0.140107
0.140108
0.140109
0.14011
0.14011
0.140111
0.140112
0.140113
0.140024
0.140026
0.140027
0.140029
0.140031
0.140033
0.140036
0.140038
0.14004
0.140043
0.140045
0.140047
0.140049
0.140051
0.140052
0.140054
0.140055
0.140056
0.140058
0.14006
0.140062
0.140064
0.140066
0.140069
0.140072
0.140074
0.140077
0.14008
0.140083
0.140085
0.140088
0.14009
0.140092
0.140095
0.140097
0.140098
0.1401
0.140102
0.140103
0.140105
0.140106
0.140009
0.14001
0.14001
0.140011
0.140012
0.140013
0.140014
0.140015
0.140016
0.140017
0.140017
0.140018
0.140018
0.140017
0.140015
0.140013
0.140008
0.14
0.13998
0.139967
0.139958
0.13995
0.139944
0.139939
0.139935
0.139932
0.13993
0.139928
0.139927
0.139927
0.139926
0.139926
0.139927
0.139927
0.139928
0.139928
0.139929
0.13993
0.13993
0.139931
0.139932
0.0028065
0.00352406
0.00420205
0.0054137
0.00711127
0.00911136
0.011312
0.0136561
0.0161114
0.0186609
0.0212873
0.0239828
0.0267434
0.02956
0.0324234
0.0353303
0.0382747
0.0412492
0.0442468
0.0472624
0.0502904
0.0533242
0.0563573
0.0593834
0.0623963
0.0653896
0.0683565
0.0712912
0.074188
0.0770416
0.0798465
0.0825977
0.0852907
0.0879212
0.0904852
0.092979
0.0953994
0.0977436
0.100009
0.102194
0.104296
0.106315
0.10825
0.1101
0.111865
0.113547
0.115147
0.116671
0.118119
0.119495
0.120798
0.122033
0.123201
0.124307
0.125352
0.12634
0.127273
0.128153
0.128982
0.129765
0.130503
0.1312
0.131858
0.132479
0.133066
0.133621
0.134146
0.134643
0.135114
0.13556
0.135982
0.136394
0.136736
0.137311
0.00591015
0.0063637
0.00604553
0.00611264
0.00697967
0.00852142
0.0104841
0.0126961
0.0150709
0.0175676
0.0201591
0.0228307
0.0255747
0.0283807
0.031237
0.0341432
0.0370914
0.0400726
0.0430791
0.0461069
0.0491495
0.0522
0.0552511
0.0582972
0.0613319
0.0643484
0.0673399
0.0703003
0.073224
0.0761053
0.0789389
0.0817196
0.0844426
0.0871036
0.0896986
0.0922237
0.0946756
0.0970513
0.0993483
0.101565
0.103698
0.105748
0.107713
0.109593
0.111387
0.113097
0.114725
0.116274
0.117748
0.119147
0.120473
0.121729
0.122917
0.124042
0.125106
0.12611
0.127059
0.127954
0.128798
0.129593
0.130344
0.131051
0.131719
0.13235
0.132946
0.133509
0.134042
0.134546
0.135023
0.135475
0.135902
0.136319
0.136665
0.137247
0.00905054
0.00998471
0.00945799
0.00861205
0.0082516
0.00874069
0.0100229
0.0118524
0.0140142
0.016385
0.0188991
0.0215214
0.0242333
0.0270201
0.0298673
0.03277
0.0357202
0.0387075
0.0417232
0.0447654
0.0478259
0.0508966
0.0539698
0.0570405
0.0601021
0.0631471
0.0661686
0.0691603
0.0721166
0.0750316
0.0778997
0.0807156
0.0834744
0.0861718
0.0888034
0.0913653
0.0938541
0.0962668
0.0986006
0.100853
0.103023
0.105109
0.107109
0.109023
0.11085
0.112593
0.114252
0.115831
0.117333
0.118759
0.120111
0.121391
0.122602
0.123748
0.124832
0.125856
0.126823
0.127735
0.128594
0.129404
0.130168
0.130888
0.131567
0.132209
0.132814
0.133387
0.133928
0.134439
0.134923
0.135382
0.135816
0.136238
0.136588
0.137176
0.0112399
0.013136
0.0132123
0.0123288
0.0112625
0.0106125
0.0107305
0.0116672
0.0132568
0.0152871
0.017599
0.0200982
0.022733
0.0254724
0.0282932
0.0311825
0.0341296
0.0371224
0.0401503
0.0432085
0.046289
0.0493825
0.0524813
0.0555813
0.0586753
0.0617549
0.0648124
0.0678419
0.0708375
0.0737932
0.0767028
0.0795609
0.0823625
0.085103
0.0877782
0.0903837
0.0929161
0.0953722
0.0977491
0.100044
0.102256
0.104383
0.106424
0.108378
0.110244
0.112024
0.113719
0.115332
0.116867
0.118324
0.119705
0.121013
0.12225
0.123421
0.124528
0.125574
0.126561
0.127492
0.128369
0.129195
0.129973
0.130707
0.1314
0.132053
0.13267
0.133252
0.133802
0.134322
0.134815
0.135281
0.135721
0.136149
0.136504
0.1371
0.0126543
0.015473
0.0164042
0.0160925
0.0151408
0.0140369
0.0132116
0.0129941
0.0135311
0.0147751
0.0165674
0.0187411
0.0211734
0.0237869
0.0265312
0.0293759
0.0323003
0.0352871
0.0383215
0.0413944
0.0444966
0.0476178
0.0507489
0.0538841
0.057016
0.0601359
0.0632358
0.0663101
0.0693528
0.0723571
0.0753163
0.0782248
0.0810775
0.0838697
0.0865966
0.089254
0.091838
0.0943453
0.096773
0.0991186
0.10138
0.103555
0.105643
0.107643
0.109555
0.111378
0.113115
0.114769
0.116341
0.117834
0.119249
0.120588
0.121856
0.123055
0.124188
0.125258
0.126269
0.127221
0.128118
0.128962
0.129758
0.130508
0.131214
0.131881
0.13251
0.133104
0.133664
0.134194
0.134695
0.13517
0.135617
0.136052
0.136413
0.137017
0.0141105
0.0170484
0.018659
0.0190715
0.018742
0.0179306
0.0169241
0.0160352
0.0155561
0.0156922
0.016511
0.0179496
0.0198771
0.0221605
0.0246948
0.0274083
0.0302538
0.0331983
0.0362166
0.0392913
0.0424087
0.045556
0.0487216
0.0518969
0.0550736
0.0582426
0.061395
0.0645238
0.0676227
0.0706846
0.0737025
0.0766708
0.0795842
0.0824377
0.0852263
0.0879452
0.0905905
0.0931587
0.0956465
0.0980514
0.100371
0.102603
0.104747
0.106802
0.108766
0.11064
0.112427
0.114127
0.115743
0.117277
0.118732
0.120108
0.121411
0.122642
0.123805
0.124904
0.125941
0.126918
0.127838
0.128703
0.129518
0.130286
0.131009
0.13169
0.132333
0.13294
0.133512
0.134053
0.134564
0.135048
0.135503
0.135946
0.136313
0.136926
0.0170845
0.0183277
0.0200698
0.0209158
0.0213185
0.0211854
0.0206334
0.0198365
0.0190073
0.0183839
0.0181867
0.0185638
0.0195584
0.0211183
0.0231381
0.0255047
0.0281244
0.0309278
0.0338645
0.0368988
0.040005
0.0431628
0.0463552
0.049569
0.0527932
0.0560169
0.0592299
0.0624234
0.0655899
0.0687218
0.0718115
0.0748526
0.0778392
0.0807661
0.0836279
0.0864199
0.089138
0.0917783
0.0943376
0.0968128
0.0992015
0.101502
0.103711
0.10583
0.107857
0.109791
0.111635
0.11339
0.115058
0.116641
0.118142
0.119562
0.120904
0.122173
0.123372
0.124504
0.125571
0.126576
0.127523
0.128413
0.12925
0.130038
0.13078
0.131478
0.132137
0.132758
0.133344
0.133897
0.134419
0.134913
0.135378
0.13583
0.136204
0.136827
0.0187172
0.0202898
0.0214457
0.0218768
0.0227561
0.0232053
0.0233245
0.02311
0.0226158
0.0219732
0.0213579
0.0209646
0.0209727
0.0215059
0.0226057
0.0242364
0.0263141
0.0287414
0.0314297
0.0343089
0.0373264
0.0404436
0.0436304
0.0468639
0.0501264
0.0534027
0.0566792
0.0599443
0.0631882
0.0664019
0.0695768
0.0727053
0.0757805
0.0787966
0.0817476
0.0846283
0.0874343
0.0901613
0.0928059
0.095365
0.0978359
0.100216
0.102505
0.104699
0.1068
0.108806
0.110718
0.112538
0.114267
0.115908
0.117463
0.118934
0.120324
0.121638
0.122878
0.124048
0.125151
0.12619
0.127166
0.128085
0.128948
0.129759
0.130523
0.131241
0.131918
0.132556
0.133157
0.133724
0.134259
0.134765
0.135241
0.135702
0.136084
0.136719
0.0192557
0.0210588
0.0225415
0.0234688
0.0240555
0.0242549
0.0247748
0.0251275
0.0252123
0.0250599
0.0247139
0.0242664
0.0238596
0.0236586
0.0238187
0.0244529
0.0256101
0.0272735
0.0293792
0.0318424
0.0345796
0.03752
0.040607
0.0437973
0.0470578
0.0503625
0.0536903
0.0570237
0.0603484
0.063652
0.0669236
0.0701536
0.0733335
0.076456
0.0795143
0.0825025
0.0854152
0.0882477
0.0909961
0.0936568
0.096227
0.0987042
0.101086
0.103372
0.105561
0.107652
0.109646
0.111543
0.113345
0.115056
0.116675
0.118207
0.119654
0.12102
0.122309
0.123525
0.12467
0.125748
0.126761
0.127712
0.128605
0.129445
0.130233
0.130975
0.131672
0.132329
0.132948
0.133531
0.134081
0.1346
0.135088
0.135561
0.135952
0.1366
0.0193749
0.0209504
0.0225642
0.0240166
0.0251694
0.0258945
0.0263219
0.0264748
0.0266671
0.0269307
0.0270638
0.0270233
0.0268485
0.0266076
0.0264048
0.0263751
0.0266565
0.0273588
0.0285413
0.0302067
0.0323114
0.0347848
0.0375492
0.0405327
0.0436754
0.0469292
0.0502563
0.0536263
0.0570152
0.0604033
0.0637745
0.0671149
0.0704129
0.0736586
0.0768432
0.0799593
0.0830002
0.0859603
0.0888346
0.0916191
0.0943102
0.0969052
0.0994018
0.101798
0.104093
0.106287
0.108378
0.110369
0.11226
0.114053
0.115751
0.117357
0.118872
0.120302
0.121649
0.122919
0.124115
0.125239
0.126295
0.127285
0.128215
0.129086
0.129905
0.130673
0.131395
0.132074
0.132714
0.133315
0.133882
0.134417
0.134919
0.135405
0.135806
0.136469
0.0199841
0.021085
0.0223437
0.0237092
0.0250989
0.0263829
0.0274431
0.0281755
0.0285988
0.0287886
0.0287475
0.0287846
0.0289123
0.0289917
0.0289804
0.0289253
0.0289095
0.0290381
0.0294276
0.0301823
0.0313711
0.033016
0.0350943
0.0375515
0.0403183
0.0433244
0.0465066
0.0498118
0.0531968
0.0566268
0.060074
0.0635157
0.0669332
0.0703114
0.0736375
0.0769008
0.0800922
0.083204
0.0862297
0.089164
0.0920024
0.0947411
0.0973774
0.0999091
0.102335
0.104653
0.106864
0.108968
0.110967
0.112862
0.114656
0.11635
0.117949
0.119456
0.120875
0.122211
0.123467
0.124647
0.125754
0.126792
0.127765
0.128675
0.129529
0.13033
0.131081
0.131786
0.132449
0.133073
0.133659
0.134212
0.13473
0.135231
0.135645
0.136325
0.0220215
0.0227046
0.0235064
0.0244031
0.0253986
0.026488
0.0276354
0.0287619
0.0297659
0.0305557
0.0310524
0.0312828
0.0313121
0.031155
0.031025
0.0310408
0.0311145
0.0311964
0.0313282
0.0315905
0.032077
0.0328788
0.0340673
0.0356793
0.0377119
0.0401291
0.0428734
0.0458789
0.0490813
0.0524233
0.0558563
0.0593405
0.0628434
0.0663384
0.0698042
0.0732235
0.0765817
0.0798672
0.0830702
0.0861826
0.0891982
0.0921115
0.0949184
0.0976159
0.100202
0.102674
0.105033
0.107277
0.109409
0.111429
0.113341
0.115145
0.116847
0.118449
0.119956
0.121373
0.122703
0.123952
0.125121
0.126217
0.127241
0.128199
0.129096
0.129935
0.130721
0.131457
0.132149
0.132798
0.133408
0.133981
0.134519
0.135037
0.135466
0.136166
0.0263672
0.0267192
0.0271572
0.0276369
0.0281559
0.0287275
0.0293712
0.0301011
0.0309118
0.0317685
0.0326044
0.033336
0.0338884
0.034196
0.0342596
0.0341369
0.0338676
0.0335456
0.0334341
0.0334971
0.0336858
0.0340233
0.0345732
0.0354084
0.0365926
0.0381674
0.0401444
0.0425044
0.0452041
0.0481858
0.0513874
0.0547492
0.0582184
0.0617495
0.0653051
0.0688541
0.0723716
0.075837
0.0792338
0.0825486
0.0857707
0.0888915
0.0919042
0.0948036
0.0975859
0.100248
0.10279
0.105209
0.107506
0.109683
0.111741
0.113683
0.115513
0.117234
0.118851
0.120368
0.121791
0.123124
0.124371
0.125537
0.126626
0.127642
0.128591
0.129477
0.130305
0.13108
0.131805
0.132485
0.133122
0.133721
0.134281
0.13482
0.135265
0.135989
0.033317
0.033402
0.0335538
0.0337192
0.0338858
0.0340538
0.0342312
0.0344335
0.0346819
0.0349984
0.0353974
0.0358747
0.036402
0.0369265
0.0373777
0.0376873
0.0377981
0.0376789
0.0373809
0.0369689
0.0364616
0.0361791
0.0361813
0.0364426
0.036961
0.0377732
0.0389247
0.0404502
0.0423642
0.0446573
0.0472976
0.0502369
0.0534181
0.0567823
0.060274
0.0638434
0.0674478
0.0710513
0.0746242
0.0781422
0.0815859
0.0849395
0.0881907
0.0913298
0.0943495
0.0972445
0.100011
0.102647
0.105151
0.107525
0.109768
0.111884
0.113876
0.115747
0.117502
0.119146
0.120686
0.122125
0.12347
0.124724
0.125893
0.126982
0.127996
0.12894
0.12982
0.130641
0.131408
0.132125
0.132796
0.133424
0.134011
0.134574
0.13504
0.135792
0.0424434
0.0423273
0.0422621
0.0421977
0.0421207
0.0420265
0.0419135
0.0417835
0.0416424
0.0415019
0.0413794
0.041297
0.0412762
0.0413316
0.0414634
0.0416512
0.041854
0.0420124
0.042061
0.0419481
0.041624
0.0411239
0.0405208
0.0398781
0.0393619
0.0392179
0.0394669
0.0400961
0.0411127
0.0425299
0.0443505
0.0465614
0.0491319
0.0520178
0.0551658
0.0585188
0.0620208
0.0656194
0.0692678
0.0729252
0.0765572
0.0801349
0.0836349
0.0870384
0.0903307
0.0935004
0.0965392
0.0994414
0.102203
0.104823
0.1073
0.109637
0.111834
0.113897
0.11583
0.117638
0.119326
0.120902
0.12237
0.123737
0.125008
0.126188
0.127284
0.128302
0.129247
0.130126
0.130945
0.131707
0.132419
0.133084
0.133703
0.134296
0.134786
0.135571
0.0530141
0.052758
0.0525398
0.0523167
0.0520777
0.0518181
0.0515346
0.0512243
0.0508853
0.0505172
0.0501226
0.0497078
0.0492842
0.0488687
0.0484818
0.0481443
0.047872
0.04767
0.0475253
0.047407
0.0472656
0.0470401
0.0466777