/*--------------------------------*- C++ -*----------------------------------*\
| =========                 |                                                 |
| \\      /  F ield         | OpenFOAM: The Open Source CFD Toolbox           |
|  \\    /   O peration     | Version:  5.x                                   |
|   \\  /    A nd           | Web:      www.OpenFOAM.org                      |
|    \\/     M anipulation  |                                                 |
\*---------------------------------------------------------------------------*/
FoamFile
{
    version     2.0;
    format      ascii;
    class       volScalarField;
    location    "350";
    object      nuTilda;
}
// * * * * * * * * * * * * * * * * * * * * * * * * * * * * * * * * * * * * * //

dimensions      [0 2 -1 0 0 0 0];

internalField   nonuniform List<scalar> 
11040
(
0.00333064
0.00391054
0.00420135
0.00424652
0.00406905
0.00380428
0.00357797
0.00338172
0.00317832
0.00294515
0.00265432
0.00237948
0.0021649
0.00199816
0.00182835
0.00164454
0.0014339
0.00106349
0.000773555
0.000630889
0.000547021
0.000466314
0.000405025
0.000451439
0.000547964
0.000550789
0.000498652
0.000434553
0.000418157
0.000416986
0.000424624
0.00044089
0.000466373
0.000499481
0.000534785
0.000558843
0.000541604
0.000458177
0.00044255
0.000529535
0.000892278
0.00771816
0.00824266
0.007496
0.00672172
0.00599162
0.0053628
0.00528791
0.00532144
0.00528621
0.00514471
0.00495389
0.00480411
0.00469746
0.00457625
0.00439593
0.00419223
0.00398358
0.00373489
0.00347738
0.003274
0.00297552
0.00255694
0.00214149
0.00192167
0.00169227
0.00148021
0.00131377
0.00116168
0.00105638
0.000978114
0.000936321
0.000932259
0.000971316
0.0010567
0.00119117
0.00137514
0.00159466
0.00182734
0.00212322
0.00274143
0.00433869
0.0157429
0.0165427
0.0154633
0.0141359
0.0126558
0.0111912
0.00987786
0.00875136
0.00781783
0.0069937
0.00649675
0.00632288
0.00626451
0.00625945
0.00622875
0.00615507
0.00604016
0.00588459
0.00570163
0.0055242
0.00532186
0.00511766
0.00488904
0.00452969
0.00399934
0.00350395
0.00314779
0.00282764
0.00259715
0.0024155
0.00229852
0.0022673
0.00233763
0.00251997
0.00281719
0.0032238
0.00371603
0.00425583
0.00486307
0.00595974
0.00890075
0.0249232
0.0257898
0.0246129
0.0228879
0.0208853
0.0188206
0.0168212
0.0149358
0.0132062
0.0116115
0.0101132
0.00887945
0.00821354
0.00797044
0.0078641
0.00780454
0.00774906
0.0076728
0.00756699
0.00744828
0.00733674
0.00728384
0.00725994
0.00717259
0.00694252
0.00651739
0.00591605
0.00533536
0.00491952
0.0045877
0.00435798
0.00426856
0.00435118
0.00463114
0.00511802
0.0058023
0.00663677
0.0075595
0.00856778
0.0102096
0.0143571
0.034933
0.0357502
0.0345737
0.032617
0.0302359
0.0276742
0.0250941
0.0225362
0.0201028
0.0178071
0.0155442
0.0135055
0.011912
0.0106969
0.0100638
0.00970405
0.00948312
0.00933505
0.00922071
0.00912914
0.00908316
0.00914326
0.00930628
0.00950414
0.00962204
0.00956151
0.0092851
0.00883527
0.00828696
0.00775552
0.0073583
0.00716377
0.00722446
0.0075884
0.00827829
0.009286
0.0105203
0.0118849
0.0133242
0.0154768
0.020473
0.0453889
0.0461099
0.044997
0.0429725
0.0403924
0.0374381
0.034317
0.0311816
0.0281413
0.0252167
0.0222864
0.0195541
0.0172413
0.0153281
0.0137257
0.0124955
0.0118171
0.0113527
0.0110097
0.0107696
0.0106585
0.0107318
0.0110037
0.011443
0.0119247
0.0122919
0.0124398
0.0123538
0.0120824
0.0117084
0.0113459
0.0111347
0.0112126
0.0116646
0.0125443
0.0138961
0.0155611
0.0174002
0.0192371
0.0217656
0.0271261
0.0559775
0.056565
0.0555485
0.0535889
0.0509547
0.0478398
0.0444507
0.0409402
0.0374388
0.0339867
0.0304669
0.027097
0.0241349
0.0215983
0.0193113
0.0172517
0.015461
0.0143251
0.0134981
0.0128483
0.0123988
0.0122436
0.0124163
0.0129243
0.013685
0.0145032
0.0151732
0.0155831
0.0157325
0.0156917
0.0155806
0.0155749
0.0158942
0.0167216
0.0181105
0.0199464
0.0220332
0.0243467
0.0264637
0.0291534
0.0341901
0.0663479
0.066815
0.0659181
0.0641143
0.0615877
0.0585343
0.0551241
0.051484
0.0477414
0.043946
0.0399917
0.0360993
0.0325609
0.0294341
0.0265542
0.0238706
0.0213384
0.0190448
0.0173927
0.0160677
0.0149732
0.0142504
0.0139725
0.0141684
0.0148663
0.0159455
0.0171436
0.0181891
0.018942
0.0194087
0.0196934
0.0199932
0.0206008
0.0218312
0.0238838
0.026721
0.0299839
0.0330419
0.0352403
0.0377821
0.0418198
0.0762597
0.0766104
0.0758332
0.0742343
0.0719377
0.069111
0.0658827
0.0623434
0.0586006
0.054695
0.0505295
0.0463086
0.0423365
0.0387092
0.0353033
0.0320819
0.0290046
0.0260077
0.023299
0.0211067
0.01919
0.0176656
0.0166107
0.0160299
0.016071
0.0167987
0.0181052
0.0196933
0.0212076
0.0224285
0.0233427
0.0241089
0.0250371
0.0265545
0.0290473
0.0326327
0.0370558
0.0417081
0.0456136
0.0479056
0.0506657
0.085471
0.085723
0.0850627
0.0836899
0.0816885
0.07919
0.0762851
0.073028
0.0694981
0.0656974
0.0615538
0.0572383
0.0530395
0.0490844
0.0453113
0.0416743
0.0381549
0.0347048
0.0313125
0.0282701
0.0255455
0.023231
0.0213396
0.0197706
0.018705
0.01834
0.0188091
0.0200859
0.0219282
0.0239427
0.0257798
0.0273318
0.0287914
0.0305971
0.0332956
0.0372605
0.0424393
0.0483395
0.0541135
0.058717
0.0613618
0.0938223
0.0939979
0.0934474
0.0922985
0.0906096
0.0884808
0.0859732
0.0830979
0.0799108
0.0764266
0.0725574
0.0684222
0.064264
0.0602095
0.0562245
0.0523221
0.0485002
0.0447466
0.0409812
0.0373309
0.0339778
0.0310769
0.0285639
0.0261959
0.0240835
0.0224109
0.0214014
0.0212575
0.0220751
0.023763
0.0260284
0.0284824
0.0308577
0.0332397
0.036113
0.0400847
0.045453
0.0519959
0.0590107
0.0654865
0.0704294
0.101237
0.101357
0.100903
0.0999586
0.0985662
0.0968019
0.094707
0.0922694
0.0895308
0.0864931
0.0830727
0.0793418
0.0754816
0.0715943
0.0676587
0.0637072
0.0597587
0.0558198
0.051865
0.0478595
0.0440329
0.0407706
0.0379229
0.0351364
0.0324203
0.0298559
0.0275919
0.0258364
0.0248205
0.0247371
0.0256671
0.0275254
0.0300753
0.0330551
0.0363988
0.0403798
0.0454668
0.0519146
0.059404
0.0670801
0.0738696
0.107709
0.107786
0.10741
0.106641
0.10551
0.104077
0.102369
0.100366
0.0981
0.0955641
0.0926834
0.0894945
0.0861065
0.0826004
0.0789646
0.0752373
0.0714253
0.0675401
0.0635847
0.0595339
0.055401
0.0517342
0.048676
0.0457629
0.0428903
0.0400299
0.0372153
0.0345401
0.0321573
0.0302679
0.0290891
0.0288045
0.0295115
0.0311963
0.0337821
0.0372339
0.0416754
0.0473755
0.0544258
0.0624097
0.0704517
0.113274
0.113312
0.112998
0.112375
0.111467
0.110317
0.108948
0.107338
0.105512
0.103462
0.101125
0.0985023
0.095681
0.0927027
0.0895496
0.0862431
0.0827974
0.0792307
0.0755312
0.0716922
0.0676933
0.0639675
0.0606286
0.0574927
0.0545787
0.0517483
0.048924
0.0460887
0.0432745
0.0405614
0.0380787
0.0359956
0.034498
0.0337537
0.0338869
0.034978
0.0370983
0.0403987
0.0450913
0.0512935
0.0588268
0.117982
0.117997
0.117738
0.117235
0.116512
0.115599
0.114512
0.113235
0.111788
0.110165
0.108305
0.106224
0.103969
0.101558
0.098971
0.0962134
0.0932906
0.0902066
0.0869615
0.083551
0.079969
0.0765713
0.0734254
0.0702949
0.0672196
0.064282
0.0615302
0.058853
0.0561782
0.0534833
0.0507841
0.048133
0.0456196
0.0433638
0.0414994
0.0401712
0.0395081
0.0396303
0.0406918
0.0428742
0.0464808
0.121949
0.121946
0.121729
0.121322
0.120755
0.120029
0.119166
0.11816
0.117024
0.115753
0.114305
0.112687
0.110931
0.109044
0.106998
0.104799
0.102456
0.0999537
0.0972867
0.0944479
0.0914288
0.0885342
0.0858286
0.0830898
0.0803227
0.0775496
0.0748068
0.0721088
0.0695118
0.067026
0.0645825
0.0621403
0.059686
0.0572361
0.0548271
0.0525331
0.0504465
0.0486489
0.0472425
0.046342
0.0460973
0.125274
0.125259
0.125075
0.124745
0.12429
0.123714
0.123033
0.122243
0.121356
0.120368
0.11925
0.118008
0.116662
0.115209
0.113636
0.111943
0.110128
0.108182
0.106106
0.103882
0.101497
0.0991848
0.097004
0.0947861
0.0925311
0.0902387
0.0879127
0.0855619
0.0832048
0.0808626
0.0785437
0.0762489
0.0739946
0.071794
0.0696266
0.0674754
0.0653395
0.0632207
0.0611515
0.0591945
0.0572906
0.127925
0.127905
0.127751
0.127481
0.127113
0.126651
0.126107
0.125485
0.124782
0.124002
0.123125
0.12216
0.12112
0.120001
0.118794
0.117499
0.116112
0.114626
0.113037
0.111336
0.109512
0.107735
0.10605
0.104332
0.102583
0.100804
0.098992
0.0971517
0.0952795
0.0933781
0.0914537
0.0895131
0.0875647
0.0856163
0.0836658
0.0817163
0.0797692
0.0778074
0.0758252
0.0739295
0.0719743
0.129965
0.12994
0.12981
0.129586
0.129283
0.12891
0.128465
0.127959
0.12739
0.126762
0.126067
0.125301
0.124479
0.123597
0.122652
0.121643
0.120567
0.119421
0.118198
0.116893
0.1155
0.11414
0.112847
0.111532
0.110195
0.108837
0.107458
0.106057
0.104633
0.103185
0.101716
0.100223
0.0987067
0.0971677
0.0956023
0.0940157
0.0924136
0.0907853
0.0891261
0.0874542
0.0856995
0.131563
0.131537
0.131426
0.131238
0.130984
0.130672
0.130303
0.129884
0.129419
0.128904
0.128337
0.127716
0.127052
0.126348
0.125594
0.124791
0.12394
0.123038
0.122082
0.121067
0.119989
0.118936
0.117937
0.116924
0.115898
0.114859
0.113808
0.112744
0.111667
0.110575
0.10947
0.108349
0.107213
0.10606
0.104885
0.103688
0.102472
0.101229
0.0999559
0.098657
0.0972896
0.132845
0.132822
0.132727
0.132567
0.132351
0.132087
0.131779
0.131426
0.131036
0.130606
0.130135
0.129626
0.129081
0.128505
0.127892
0.127243
0.126558
0.125837
0.125076
0.124274
0.123427
0.122601
0.121818
0.121028
0.120231
0.119428
0.118615
0.117797
0.116975
0.116147
0.115312
0.114469
0.113617
0.112758
0.111886
0.111
0.110102
0.109185
0.108246
0.107288
0.10629
0.133896
0.133875
0.133794
0.133657
0.133472
0.133244
0.13298
0.132683
0.132351
0.13199
0.131594
0.131167
0.130713
0.130235
0.129731
0.129199
0.128639
0.128053
0.127439
0.126794
0.126119
0.125461
0.124839
0.124213
0.123583
0.122953
0.122318
0.121681
0.121042
0.120405
0.119766
0.119125
0.11848
0.117833
0.117179
0.116519
0.115853
0.115175
0.114485
0.113784
0.113062
0.134771
0.134754
0.134683
0.134565
0.134404
0.134207
0.133978
0.133721
0.13344
0.13313
0.132795
0.132434
0.132053
0.131651
0.131229
0.130788
0.130328
0.129845
0.129342
0.128817
0.128271
0.127739
0.127237
0.126735
0.126231
0.125729
0.125226
0.124723
0.124221
0.12372
0.123224
0.122729
0.122235
0.121741
0.121244
0.120744
0.120242
0.119735
0.119222
0.118702
0.118175
0.13551
0.135495
0.135434
0.13533
0.13519
0.135018
0.134819
0.134596
0.134351
0.134084
0.133796
0.133486
0.133161
0.132822
0.132466
0.132095
0.13171
0.131311
0.130897
0.130465
0.130018
0.129584
0.129174
0.128765
0.128359
0.127955
0.127551
0.127149
0.126749
0.126352
0.125958
0.125568
0.125182
0.124799
0.124416
0.124032
0.12365
0.123265
0.122877
0.122488
0.122098
0.136141
0.136128
0.136075
0.135984
0.135861
0.13571
0.135536
0.13534
0.135127
0.134896
0.134646
0.13438
0.1341
0.133809
0.133507
0.133193
0.132868
0.132531
0.132184
0.131827
0.131459
0.131101
0.130762
0.130426
0.130093
0.129763
0.129435
0.12911
0.128788
0.128469
0.128155
0.127844
0.127537
0.127234
0.126934
0.126637
0.126342
0.126047
0.125751
0.125455
0.125162
0.136684
0.136673
0.136626
0.136547
0.136439
0.136307
0.136153
0.135982
0.135794
0.135591
0.135375
0.135144
0.134903
0.134651
0.13439
0.134122
0.133845
0.133561
0.133268
0.132968
0.13266
0.132362
0.132082
0.131803
0.131528
0.131256
0.130986
0.13072
0.130458
0.1302
0.129946
0.129696
0.12945
0.129208
0.128969
0.128734
0.128502
0.128273
0.128045
0.127818
0.127595
0.137155
0.137146
0.137105
0.137036
0.136941
0.136825
0.13669
0.136539
0.136373
0.136195
0.136004
0.135804
0.135593
0.135375
0.135151
0.13492
0.134683
0.134439
0.134191
0.133937
0.133678
0.133427
0.133191
0.132959
0.132729
0.132503
0.132279
0.13206
0.131844
0.131633
0.131426
0.131222
0.131023
0.130828
0.130637
0.130448
0.130264
0.130082
0.129902
0.129725
0.129554
0.137567
0.137559
0.137525
0.137465
0.137382
0.13728
0.137161
0.137026
0.13688
0.136722
0.136554
0.136377
0.136193
0.136004
0.13581
0.135609
0.135405
0.135196
0.134983
0.134766
0.134548
0.134336
0.134136
0.133939
0.133746
0.133556
0.133369
0.133187
0.133008
0.132833
0.132663
0.132496
0.132334
0.132175
0.13202
0.131868
0.13172
0.131574
0.131431
0.131291
0.131156
0.137928
0.137924
0.137895
0.137843
0.137771
0.137681
0.137575
0.137456
0.137326
0.137186
0.137037
0.13688
0.136718
0.136551
0.136381
0.136206
0.13603
0.135849
0.135666
0.135482
0.135295
0.135114
0.134943
0.134776
0.134612
0.134452
0.134295
0.134142
0.133993
0.133848
0.133706
0.133569
0.133435
0.133305
0.133179
0.133055
0.132936
0.132818
0.132703
0.132591
0.132485
0.138247
0.138246
0.138223
0.138179
0.138116
0.138037
0.137943
0.137837
0.13772
0.137596
0.137463
0.137324
0.13718
0.137033
0.136882
0.136729
0.136574
0.136418
0.13626
0.136101
0.135941
0.135786
0.13564
0.135497
0.135357
0.135221
0.135088
0.134959
0.134834
0.134712
0.134594
0.13448
0.134369
0.134262
0.134158
0.134057
0.13396
0.133865
0.133772
0.133682
0.133597
0.138531
0.138533
0.138516
0.138479
0.138424
0.138353
0.138269
0.138175
0.138071
0.137959
0.137841
0.137717
0.13759
0.137459
0.137326
0.137191
0.137054
0.136917
0.13678
0.136642
0.136505
0.136371
0.136245
0.136122
0.136002
0.135886
0.135773
0.135663
0.135557
0.135455
0.135356
0.13526
0.135168
0.135079
0.134993
0.13491
0.13483
0.134753
0.134678
0.134605
0.134537
0.138784
0.138791
0.138778
0.138747
0.138698
0.138635
0.138561
0.138476
0.138383
0.138284
0.138178
0.138068
0.137954
0.137838
0.13772
0.137601
0.137481
0.13736
0.137239
0.137119
0.137
0.136884
0.136775
0.136668
0.136565
0.136465
0.136368
0.136275
0.136185
0.136098
0.136015
0.135934
0.135857
0.135783
0.135712
0.135643
0.135577
0.135513
0.135452
0.135392
0.135338
0.139012
0.139022
0.139014
0.138987
0.138944
0.138888
0.138822
0.138746
0.138664
0.138575
0.138482
0.138384
0.138283
0.138179
0.138075
0.137969
0.137862
0.137756
0.13765
0.137545
0.137441
0.13734
0.137244
0.137152
0.137063
0.136976
0.136893
0.136813
0.136736
0.136662
0.136591
0.136523
0.136458
0.136396
0.136336
0.136279
0.136224
0.136172
0.136121
0.136073
0.136028
0.139216
0.139231
0.139226
0.139203
0.139165
0.139116
0.139057
0.138991
0.138919
0.138841
0.138758
0.138671
0.138581
0.13849
0.138397
0.138303
0.138209
0.138115
0.138021
0.137929
0.137838
0.137749
0.137666
0.137585
0.137507
0.137432
0.13736
0.137291
0.137225
0.137162
0.137101
0.137043
0.136988
0.136936
0.136886
0.136838
0.136792
0.136749
0.136707
0.136667
0.136631
0.139402
0.139419
0.139416
0.139396
0.139364
0.139322
0.139273
0.139217
0.139154
0.139086
0.139014
0.138937
0.138858
0.138777
0.138695
0.138611
0.138528
0.138445
0.138362
0.13828
0.138201
0.138123
0.138049
0.137979
0.137911
0.137845
0.137783
0.137723
0.137665
0.137611
0.137559
0.13751
0.137463
0.137418
0.137376
0.137336
0.137298
0.137261
0.137227
0.137194
0.137164
0.139569
0.139588
0.139586
0.139571
0.139546
0.139513
0.139474
0.139428
0.139376
0.139318
0.139256
0.13919
0.13912
0.139049
0.138976
0.138902
0.138828
0.138754
0.138681
0.138609
0.138539
0.13847
0.138405
0.138343
0.138283
0.138226
0.138171
0.138119
0.138069
0.138022
0.137977
0.137935
0.137895
0.137857
0.137821
0.137787
0.137755
0.137725
0.137696
0.137669
0.137645
0.139721
0.139739
0.139739
0.139729
0.139713
0.139692
0.139663
0.139629
0.139588
0.139542
0.139491
0.139435
0.139376
0.139314
0.13925
0.139185
0.13912
0.139054
0.138989
0.138925
0.138863
0.138803
0.138745
0.13869
0.138637
0.138586
0.138538
0.138492
0.138449
0.138408
0.138369
0.138332
0.138298
0.138265
0.138235
0.138206
0.13818
0.138155
0.138131
0.138109
0.13809
0.139855
0.139871
0.139873
0.139871
0.139866
0.139855
0.139839
0.139817
0.13979
0.139758
0.139721
0.139679
0.139633
0.139584
0.139532
0.139478
0.139423
0.139367
0.139311
0.139256
0.139202
0.13915
0.1391
0.139051
0.139005
0.13896
0.138919
0.138879
0.138842
0.138808
0.138776
0.138746
0.138719
0.138694
0.138671
0.138651
0.138633
0.138616
0.138602
0.138589
0.138579
0.139961
0.139973
0.139979
0.139982
0.139983
0.13998
0.139974
0.139965
0.139953
0.139937
0.139919
0.139897
0.139873
0.139847
0.139818
0.139787
0.139754
0.13972
0.139684
0.139648
0.139613
0.139577
0.13954
0.139506
0.139472
0.13944
0.139409
0.13938
0.139353
0.139328
0.139305
0.139284
0.139265
0.139248
0.139233
0.139219
0.139208
0.139198
0.13919
0.139183
0.139179
0.140018
0.140027
0.140032
0.140037
0.140039
0.14004
0.140039
0.140036
0.140032
0.140026
0.140018
0.140009
0.139999
0.139987
0.139973
0.139959
0.139943
0.139927
0.139911
0.139893
0.139876
0.139859
0.139841
0.139823
0.139806
0.139789
0.139772
0.139756
0.139741
0.139727
0.139714
0.139702
0.139691
0.139682
0.139673
0.139666
0.139659
0.139654
0.139649
0.139645
0.139644
0.140046
0.140054
0.14006
0.140065
0.14007
0.140073
0.140075
0.140076
0.140076
0.140075
0.140073
0.14007
0.140067
0.140062
0.140056
0.14005
0.140043
0.140036
0.140029
0.140021
0.140014
0.140006
0.139998
0.13999
0.139982
0.139975
0.139967
0.13996
0.139954
0.139947
0.139941
0.139936
0.139931
0.139927
0.139923
0.139919
0.139916
0.139914
0.139912
0.13991
0.13991
0.140061
0.140068
0.140074
0.14008
0.140085
0.14009
0.140094
0.140098
0.140101
0.140104
0.140105
0.140107
0.140107
0.140107
0.140106
0.140105
0.140103
0.1401
0.140098
0.140095
0.140092
0.140089
0.140086
0.140083
0.14008
0.140077
0.140074
0.140071
0.140068
0.140066
0.140063
0.140061
0.140059
0.140058
0.140056
0.140055
0.140054
0.140054
0.140053
0.140053
0.140053
0.140066
0.140073
0.140079
0.140085
0.140091
0.140097
0.140103
0.140108
0.140114
0.140119
0.140123
0.140127
0.140131
0.140134
0.140136
0.140138
0.14014
0.140141
0.140142
0.140142
0.140142
0.140142
0.140142
0.140142
0.140141
0.140141
0.14014
0.14014
0.140139
0.140138
0.140138
0.140138
0.140137
0.140137
0.140137
0.140137
0.140137
0.140138
0.140138
0.140139
0.140139
0.140065
0.140071
0.140077
0.140083
0.140089
0.140096
0.140103
0.14011
0.140117
0.140123
0.14013
0.140136
0.140142
0.140148
0.140153
0.140157
0.140161
0.140165
0.140168
0.140171
0.140174
0.140176
0.140178
0.14018
0.140181
0.140182
0.140184
0.140185
0.140186
0.140187
0.140187
0.140188
0.140189
0.14019
0.140191
0.140192
0.140193
0.140193
0.140194
0.140195
0.140197
0.140058
0.140063
0.140069
0.140074
0.140081
0.140088
0.140095
0.140103
0.14011
0.140118
0.140126
0.140134
0.140142
0.140149
0.140156
0.140163
0.140169
0.140175
0.14018
0.140185
0.14019
0.140194
0.140197
0.140201
0.140204
0.140207
0.14021
0.140212
0.140214
0.140216
0.140218
0.14022
0.140222
0.140223
0.140225
0.140226
0.140228
0.140229
0.14023
0.140232
0.140233
0.140047
0.140051
0.140055
0.14006
0.140066
0.140072
0.140079
0.140087
0.140095
0.140103
0.140111
0.14012
0.140129
0.140137
0.140146
0.140154
0.140162
0.140169
0.140177
0.140183
0.14019
0.140195
0.140201
0.140206
0.14021
0.140215
0.140218
0.140222
0.140225
0.140228
0.140231
0.140234
0.140236
0.140238
0.14024
0.140242
0.140244
0.140246
0.140248
0.140249
0.140251
0.140031
0.140034
0.140037
0.14004
0.140045
0.14005
0.140055
0.140061
0.140068
0.140075
0.140083
0.140091
0.140099
0.140108
0.140116
0.140125
0.140134
0.140142
0.140151
0.140159
0.140167
0.140175
0.140182
0.14019
0.140196
0.140203
0.140209
0.140215
0.14022
0.140225
0.14023
0.140234
0.140238
0.140242
0.140246
0.140249
0.140252
0.140255
0.140257
0.14026
0.140262
0.140011
0.140012
0.140013
0.140015
0.140017
0.140019
0.140021
0.140024
0.140027
0.140031
0.140035
0.140039
0.140044
0.140049
0.140055
0.140061
0.140064
0.140067
0.14007
0.140073
0.140077
0.14008
0.140085
0.140089
0.140093
0.140098
0.140102
0.140106
0.140111
0.140115
0.140119
0.140123
0.140126
0.14013
0.140133
0.140136
0.140139
0.140142
0.140144
0.140146
0.140149
0.00617417
0.00825389
0.00905435
0.0102677
0.0126804
0.01608
0.0200436
0.0243124
0.0287278
0.033198
0.0376689
0.0421013
0.0464663
0.0507427
0.0549158
0.0589758
0.0629164
0.0667336
0.0704255
0.0739913
0.0774308
0.0807446
0.0839336
0.0869987
0.0899413
0.0927627
0.0954645
0.0980484
0.100516
0.102869
0.105109
0.107238
0.109257
0.11117
0.112978
0.114684
0.116291
0.117802
0.119222
0.120555
0.121804
0.122974
0.12407
0.125096
0.126056
0.126955
0.127798
0.128591
0.129337
0.130042
0.130709
0.131341
0.13194
0.132508
0.133046
0.133557
0.134041
0.134499
0.134933
0.135342
0.135729
0.136094
0.136439
0.136764
0.137073
0.137366
0.137644
0.137909
0.138162
0.138404
0.138636
0.138858
0.139049
0.139322
0.0131352
0.0159809
0.0155562
0.0142432
0.0140845
0.0158729
0.0191132
0.0230935
0.0274059
0.0318482
0.0363257
0.0407806
0.0451774
0.0494907
0.0537037
0.0578057
0.0617891
0.0656496
0.0693849
0.0729939
0.0764765
0.0798331
0.0830643
0.0861713
0.0891551
0.0920171
0.0947589
0.097382
0.0998879
0.102278
0.104555
0.106719
0.108773
0.110719
0.112558
0.114294
0.11593
0.117468
0.118913
0.120269
0.12154
0.12273
0.123844
0.124887
0.125863
0.126776
0.127632
0.128434
0.12919
0.129903
0.130578
0.131217
0.131823
0.132397
0.132942
0.13346
0.13395
0.134414
0.134854
0.135269
0.135661
0.136031
0.136381
0.13671
0.137023
0.137318
0.137599
0.137867
0.138122
0.138366
0.138599
0.138823
0.139016
0.139296
0.0204039
0.0250119
0.0248285
0.0221347
0.0191816
0.0179263
0.0191109
0.0221149
0.0260433
0.0303382
0.0347775
0.0392371
0.0436615
0.0480138
0.0522725
0.056424
0.0604591
0.0643721
0.0681604
0.0718225
0.0753579
0.0787667
0.0820496
0.0852074
0.0882412
0.0911522
0.0939419
0.0966118
0.0991634
0.101598
0.103918
0.106124
0.108218
0.110203
0.112079
0.11385
0.115519
0.117089
0.118563
0.119946
0.121242
0.122455
0.123591
0.124653
0.125647
0.126576
0.127447
0.128262
0.129029
0.129751
0.130435
0.131083
0.131696
0.132278
0.13283
0.133354
0.133851
0.134322
0.134769
0.13519
0.135589
0.135964
0.136318
0.136652
0.136968
0.137267
0.137551
0.137822
0.138079
0.138326
0.138561
0.138787
0.138982
0.139268
0.0271498
0.0339885
0.0350485
0.0324446
0.0281176
0.0239946
0.0218525
0.0224109
0.0250747
0.0288454
0.0330852
0.0374744
0.0418986
0.0462798
0.0505841
0.0547908
0.0588856
0.0628609
0.0667129
0.0704392
0.0740389
0.0775114
0.0808573
0.084077
0.0871714
0.0901416
0.092989
0.095715
0.0983213
0.100809
0.10318
0.105436
0.107578
0.109608
0.111528
0.11334
0.115048
0.116654
0.118163
0.119578
0.120903
0.122144
0.123305
0.12439
0.125404
0.126353
0.12724
0.128071
0.128851
0.129584
0.130278
0.130935
0.131558
0.132148
0.132707
0.133239
0.133743
0.134222
0.134676
0.135105
0.135509
0.135891
0.13625
0.136589
0.13691
0.137213
0.1375
0.137773
0.138034
0.138282
0.13852
0.138748
0.138945
0.139238
0.0334646
0.0426084
0.045299
0.0436755
0.0394181
0.0339824
0.028992
0.0260372
0.0258677
0.0280154
0.0315126
0.0356066
0.0399252
0.0442802
0.0486098
0.0528676
0.0570249
0.0610699
0.0649961
0.0687989
0.0724757
0.0760253
0.0794476
0.0827425
0.0859105
0.0889524
0.0918695
0.0946631
0.0973348
0.0998861
0.102318
0.104633
0.106832
0.108916
0.110888
0.112749
0.114503
0.116153
0.117702
0.119155
0.120515
0.121788
0.122978
0.12409
0.125129
0.1261
0.127008
0.127857
0.128652
0.129399
0.130105
0.130773
0.131406
0.132005
0.132574
0.133113
0.133626
0.134113
0.134574
0.135011
0.135423
0.135811
0.136176
0.136521
0.136846
0.137153
0.137445
0.137721
0.137985
0.138236
0.138476
0.138707
0.138906
0.139205
0.0394455
0.0506974
0.055061
0.0548728
0.0515934
0.0463132
0.0401542
0.0344824
0.030712
0.0296447
0.0310547
0.0340806
0.0379253
0.0420981
0.0463749
0.0506439
0.0548444
0.0589551
0.0629612
0.0668508
0.0706175
0.0742586
0.0777724
0.081158
0.0844151
0.0875437
0.0905449
0.0934199
0.0961704
0.0987978
0.101304
0.103689
0.105956
0.108105
0.110138
0.112059
0.113868
0.11557
0.117167
0.118665
0.120067
0.121378
0.122603
0.123747
0.124815
0.125813
0.126744
0.127614
0.128428
0.129192
0.129913
0.130594
0.131238
0.131849
0.132427
0.132976
0.133497
0.133993
0.134463
0.134907
0.135328
0.135723
0.136096
0.136446
0.136777
0.137089
0.137385
0.137665
0.137932
0.138186
0.138429
0.138663
0.138864
0.139169
0.0451302
0.0579304
0.063855
0.0653188
0.0635369
0.0593572
0.0535375
0.046959
0.0407521
0.0361506
0.0340164
0.0344061
0.036697
0.0400963
0.0440287
0.04817
0.0523534
0.0565018
0.0605752
0.0645499
0.0684128
0.0721566
0.0757765
0.0792692
0.0826326
0.0858655
0.0889679
0.0919409
0.0947859
0.0975047
0.100099
0.102569
0.104918
0.107145
0.109253
0.111244
0.11312
0.114884
0.11654
0.118092
0.119543
0.1209
0.122168
0.12335
0.124453
0.125482
0.126442
0.127338
0.128175
0.128959
0.129697
0.130394
0.131052
0.131675
0.132265
0.132824
0.133355
0.13386
0.13434
0.134794
0.135223
0.135627
0.136007
0.136365
0.136701
0.137019
0.13732
0.137604
0.137875
0.138133
0.138378
0.138615
0.138818
0.139131
0.0503433
0.0638536
0.0711574
0.0743176
0.0743001
0.0717817
0.0672798
0.0613277
0.0546111
0.0480386
0.0426578
0.0393456
0.0384404
0.0396434
0.0423074
0.0458046
0.0497005
0.0537496
0.0578242
0.061856
0.0658076
0.0696578
0.0733943
0.077009
0.0804967
0.0838538
0.0870785
0.0901702
0.0931295
0.0959578
0.0986575
0.10123
0.103677
0.105999
0.108197
0.110273
0.11223
0.11407
0.115797
0.117414
0.118927
0.120339
0.121657
0.122886
0.124032
0.125099
0.126093
0.12702
0.127884
0.128692
0.129452
0.130168
0.130843
0.131481
0.132084
0.132656
0.133198
0.133714
0.134204
0.134668
0.135107
0.135521
0.13591
0.136275
0.136619
0.136943
0.137248
0.137538
0.137813
0.138075
0.138323
0.138564
0.13877
0.13909
0.0562968
0.0680522
0.0763966
0.0811392
0.0829324
0.0823722
0.0797727
0.0754259
0.0697179
0.0631696
0.0564787
0.0504913
0.0460364
0.043655
0.0434086
0.0449292
0.0476608
0.0510985
0.0548912
0.0588283
0.0627913
0.0667136
0.0705571
0.0742991
0.0779251
0.081426
0.0847958
0.0880313
0.0911307
0.094094
0.0969223
0.0996172
0.102182
0.104617
0.106925
0.109105
0.11116
0.113093
0.114906
0.116604
0.118191
0.119672
0.121053
0.122339
0.123535
0.124649
0.125685
0.126649
0.127547
0.128385
0.129171
0.129911
0.130607
0.131263
0.131882
0.132468
0.133023
0.133551
0.134053
0.134528
0.134978
0.135403
0.135802
0.136176
0.136527
0.136858
0.137171
0.137466
0.137746
0.138012
0.138264
0.138509
0.138717
0.139044
0.0638753
0.0706684
0.0791926
0.0851417
0.0884951
0.0899372
0.0895208
0.087323
0.0835565
0.0784876
0.0724733
0.0660097
0.059741
0.0543846
0.0505665
0.0486386
0.048584
0.0500825
0.052682
0.0559611
0.0596071
0.0634178
0.067271
0.0710944
0.0748441
0.0784932
0.0820244
0.085427
0.0886944
0.091823
0.0948112
0.0976591
0.100368
0.10294
0.105378
0.107685
0.109861
0.111908
0.113828
0.115625
0.117304
0.11887
0.120328
0.121684
0.122944
0.124115
0.125203
0.126214
0.127153
0.128028
0.128846
0.129615
0.130337
0.131015
0.131653
0.132256
0.132827
0.133369
0.133883
0.134372
0.134834
0.135271
0.135681
0.136066
0.136426
0.136765
0.137085
0.137387
0.137672
0.137943
0.1382
0.138449
0.13866
0.138995
0.0738409
0.0770025
0.0804035
0.0864763
0.0903866
0.0934881
0.0951776
0.09524
0.0938616
0.0911174
0.0871093
0.0820382
0.0762352
0.0701598
0.0643727
0.0594632
0.0559293
0.054055
0.0538486
0.0550805
0.0573943
0.0604264
0.0638804
0.0675465
0.0712884
0.0750203
0.0786886
0.0822595
0.0857119
0.0890325
0.0922134
0.0952502
0.0981411
0.100886
0.103487
0.105945
0.108267
0.110453
0.112505
0.114427
0.116221
0.117892
0.119447
0.120891
0.122231
0.123474
0.124627
0.125695
0.126686
0.127606
0.128466
0.12927
0.130024
0.130729
0.131392
0.132016
0.132605
0.133163
0.133693
0.134196
0.134672
0.135122
0.135546
0.135942
0.136314
0.136662
0.13699
0.137299
0.137591
0.137868
0.13813
0.138384
0.138599
0.138942
0.0787736
0.0823952
0.0854872
0.0881108
0.0895061
0.0932342
0.0961756
0.0978587
0.0987513
0.0986077
0.0972452
0.0946462
0.0909334
0.086298
0.0810149
0.0754627
0.0701091
0.0654525
0.0619309
0.0598301
0.0592278
0.0599996
0.0618834
0.0645682
0.0677676
0.0712561
0.0748741
0.0785154
0.0821112
0.0856176
0.0890069
0.092262
0.0953724
0.0983323
0.101139
0.103793
0.106297
0.108652
0.110866
0.112941
0.114878
0.116683
0.118361
0.119917
0.121358
0.122692
0.123926
0.125068
0.126124
0.127102
0.128013
0.128863
0.129656
0.130397
0.131089
0.131739
0.132351
0.132929
0.133477
0.133996
0.134489
0.134954
0.135393
0.135803
0.136187
0.136547
0.136885
0.137202
0.137502
0.137786
0.138054
0.138313
0.138532
0.138883
0.0765411
0.0809432
0.0848701
0.0882035
0.0908326
0.0932438
0.0949589
0.0958543
0.0978584
0.0997224
0.100711
0.10069
0.0997505
0.0978222
0.0948775
0.0910136
0.0864517
0.0815103
0.0765813
0.0720934
0.0684535
0.0659753
0.0648201
0.0649764
0.0662856
0.0685008
0.071354
0.0746059
0.0780689
0.0816087
0.0851344
0.0885866
0.0919272
0.0951326
0.0981884
0.101086
0.103824
0.1064
0.108818
0.111081
0.113196
0.115168
0.117002
0.118701
0.120272
0.121723
0.123063
0.124298
0.125437
0.12649
0.127468
0.128375
0.129219
0.130003
0.130734
0.131416
0.132056
0.132659
0.133229
0.133768
0.13428
0.134763
0.135218
0.135645
0.136044
0.136417
0.136766
0.137094
0.137403
0.137695
0.137969
0.138235
0.138459
0.138819
0.065174
0.0703286
0.0752623
0.0798904
0.0841124
0.0879163
0.0911835
0.0938211
0.0960375
0.0976696
0.098603
0.0993502
0.100611
0.101433
0.101357
0.100302
0.0983268
0.0954858
0.0918874
0.0877398
0.0833517
0.079097
0.0753636
0.072494
0.0707292
0.0701707
0.0707747
0.0723811
0.074764
0.0776852
0.0809329
0.08434
0.0877856
0.0911868
0.0944897
0.0976598
0.100677
0.103529
0.106211
0.108722
0.111067
0.11325
0.115278
0.117159
0.118898
0.120501
0.121978
0.123336
0.124585
0.125735
0.126798
0.12778
0.128689
0.12953
0.13031
0.131035
0.131711
0.132345
0.132942
0.133506
0.134039
0.134544
0.135019
0.135465
0.135881
0.13627
0.136633
0.136973
0.137293
0.137593
0.137877
0.13815
0.138379
0.13875
0.0498193
0.0530556
0.0567772
0.0610198
0.0657486
0.070872
0.0762142
0.0815138
0.086488
0.0908315
0.0942824
0.0967761
0.0985512
0.0996823
0.100154
0.100598
0.10119
0.101334
0.100645
0.0990339
0.0965845
0.0934458
0.0898338
0.0860401
0.0824092
0.0792924
0.0769921
0.0757129
0.0755325
0.076401
0.0781682
0.0806273
0.0835601
0.0867709
0.0901036
0.0934436
0.0967122
0.0998585
0.102851
0.105673
0.108316
0.110779
0.113065
0.115181
0.117135
0.118935
0.120591
0.122111
0.123505
0.124784
0.12596
0.127041
0.128035
0.128951
0.129795
0.130575
0.131299
0.131974
0.132605
0.133199
0.13376
0.134289
0.134788
0.135256
0.135694
0.136101
0.136481
0.136836
0.137168
0.13748
0.137773
0.138056
0.138292
0.138673
0.0466021
0.0474439
0.0486077
0.0501231
0.0520522
0.0544693
0.057453
0.0610691
0.065346
0.0702376
0.0755838
0.0811006
0.0864274
0.0911706
0.0949786
0.0977625
0.0996436
0.100702
0.100939
0.101026
0.101121
0.100796
0.0997386
0.097888
0.0953562
0.092354
0.0891603
0.0860985
0.0834948
0.0816288
0.0806898
0.0807517
0.0817722
0.0836162
0.0860939
0.0890014
0.0921524
0.0953956
0.0986189
0.101745
0.104727
0.107535
0.110156
0.112587
0.114831
0.116895
0.11879