/*--------------------------------*- C++ -*----------------------------------*\
| =========                 |                                                 |
| \\      /  F ield         | OpenFOAM: The Open Source CFD Toolbox           |
|  \\    /   O peration     | Version:  5.x                                   |
|   \\  /    A nd           | Web:      www.OpenFOAM.org                      |
|    \\/     M anipulation  |                                                 |
\*---------------------------------------------------------------------------*/
FoamFile
{
    version     2.0;
    format      ascii;
    class       volScalarField;
    location    "350";
    object      p;
}
// * * * * * * * * * * * * * * * * * * * * * * * * * * * * * * * * * * * * * //

dimensions      [0 2 -2 0 0 0 0];

internalField   nonuniform List<scalar> 
11040
(
0.0157243
-93.4186
-333.995
-377.693
-376.171
-369.242
-353.097
-326.501
-292.876
-253.666
-208.993
-150.925
-96.6946
-55.3599
-22.8872
10.0212
42.0632
71.2355
96.6084
116.872
130.678
137.31
140.397
142.312
143.663
144.687
145.455
145.999
146.354
146.549
146.601
146.525
146.344
146.117
146.018
146.413
147.569
149.413
153.163
159.547
155.232
52.6261
-40.9408
-191.642
-257.358
-281.721
-296.224
-299.59
-289.626
-268.713
-238.994
-201.6
-150.446
-99.1977
-57.8503
-24.7995
8.10816
40.205
69.6229
95.356
116.074
130.322
137.193
140.349
142.28
143.635
144.667
145.447
146.002
146.368
146.572
146.632
146.562
146.383
146.147
146.019
146.365
147.461
149.22
152.748
158.789
152.164
88.3488
-5.91113
-112.349
-196.757
-238.24
-259.771
-268.059
-263.032
-246.903
-221.904
-189.539
-145.329
-98.001
-57.5104
-24.6358
7.48808
39.1113
68.4185
94.256
115.289
129.95
137.126
140.38
142.309
143.644
144.67
145.452
146.013
146.387
146.598
146.667
146.605
146.429
146.19
146.038
146.324
147.337
149.003
152.308
158.211
150.114
115.134
30.3887
-48.3481
-126.959
-175.785
-205.291
-222.342
-226.334
-218.162
-200.021
-173.838
-136.914
-94.5994
-55.9464
-23.6008
7.49723
38.349
67.3165
93.1172
114.399
129.489
137.058
140.475
142.403
143.709
144.711
145.481
146.041
146.419
146.636
146.712
146.657
146.485
146.24
146.058
146.266
147.16
148.686
151.709
157.378
149.067
137.286
64.5934
3.56039
-64.4113
-116.427
-151.93
-175.419
-186.739
-185.999
-174.82
-155.149
-125.636
-89.2395
-53.3847
-21.9833
7.89026
37.6238
65.9463
91.5189
112.995
128.612
136.781
140.537
142.545
143.837
144.803
145.546
146.094
146.469
146.687
146.77
146.724
146.557
146.304
146.084
146.194
146.932
148.271
150.965
156.158
148.67
155.074
94.6282
45.8368
-10.8963
-60.6326
-98.5631
-126.347
-143.641
-149.838
-145.736
-132.931
-110.924
-81.1068
-49.0779
-19.3477
8.97072
37.1944
64.4803
89.5109
110.987
127.13
136.109
140.46
142.697
144.027
144.962
145.667
146.188
146.546
146.759
146.845
146.807
146.646
146.385
146.123
146.119
146.663
147.772
150.111
154.604
148.677
169.352
120.011
80.2665
33.6854
-10.5732
-47.559
-77.0902
-98.3573
-110.212
-112.68
-106.738
-92.2269
-69.5016
-42.3776
-15.2814
11.0295
37.3515
63.1702
87.2647
108.414
124.927
134.818
140.035
142.756
144.262
145.206
145.866
146.343
146.67
146.865
146.945
146.911
146.756
146.488
146.181
146.051
146.375
147.225
149.191
152.865
148.926
180.772
140.815
108.158
70.203
32.5346
-1.20082
-30.1302
-53.1583
-68.8347
-76.633
-76.8891
-69.4277
-53.9116
-32.583
-9.19089
14.4799
38.4697
62.3675
85.0815
105.472
122.032
132.693
138.907
142.451
144.425
145.532
146.18
146.593
146.866
147.025
147.086
147.048
146.896
146.622
146.271
146.013
146.104
146.686
148.279
151.162
149.236
189.831
157.501
130.566
99.7325
68.5063
39.2078
12.6604
-10.1046
-27.6268
-39.0729
-44.295
-42.9436
-34.2179
-19.1144
-0.376464
19.8784
41.0206
62.5349
83.4247
102.605
118.783
129.822
136.83
141.358
144.147
145.765
146.619
147.024
147.203
147.28
147.296
147.238
147.08
146.801
146.415
146.042
145.91
146.236
147.479
149.745
149.534
196.917
170.677
148.41
123.387
97.8839
73.2791
50.0794
29.0714
11.4716
-1.82017
-10.4052
-13.7878
-10.8975
-1.84212
11.6877
27.8062
45.5276
64.172
82.7958
100.351
115.714
126.692
134.071
139.352
142.997
145.399
146.847
147.577
147.822
147.796
147.669
147.52
147.332
147.047
146.641
146.191
145.886
145.989
146.922
148.791
149.842
202.369
180.963
162.516
142.199
121.526
101.291
81.7086
63.2929
46.9111
33.3414
23.0423
16.5367
14.9632
18.7559
27.1128
38.6867
52.5034
67.8055
83.7078
99.2188
113.336
123.894
131.295
136.923
141.103
144.15
146.296
147.677
148.404
148.62
148.495
148.19
147.818
147.423
146.986
146.512
146.121
146.077
146.788
148.426
150.245
206.487
188.924
173.609
157.085
140.377
123.933
107.783
92.2112
77.777
65.0449
54.4177
46.3411
41.8471
41.6075
45.4332
52.5588
62.2762
73.9133
86.6938
99.7363
112.149
121.932
129.097
134.774
139.166
142.518
145.071
146.976
148.302
149.087
149.395
149.323
148.986
148.475
147.857
147.232
146.745
146.624
147.216
148.794
150.986
209.538
195.049
182.306
168.834
155.33
142.041
128.903
116.044
103.806
92.5404
82.5404
74.1332
68.1448
65.26
65.6216
68.9162
74.7723
82.7283
92.1859
102.432
112.716
121.314
127.943
133.417
137.821
141.286
143.99
146.103
147.738
148.954
149.775
150.214
150.307
150.118
149.717
149.21
148.71
148.436
148.772
150.166
152.316
211.757
199.747
189.123
178.106
167.171
156.448
145.836
135.371
125.25
115.673
106.817
98.8992
92.5177
88.2456
86.343
86.7658
89.4106
94.0501
100.302
107.658
115.542
122.587
128.334
133.305
137.495
140.937
143.71
145.918
147.67
149.054
150.137
150.953
151.519
151.85
151.97
151.973
151.984
152.169
152.746
154.196
155.923
213.334
203.343
194.472
185.436
176.557
167.897
159.346
150.895
142.648
134.717
127.187
120.187
114.121
109.413
106.315
104.901
105.217
107.214
110.704
115.382
120.858
126.151
130.741
134.918
138.624
141.833
144.55
146.813
148.677
150.202
151.453
152.491
153.368
154.129
154.802
155.446
156.136
156.993
158.106
160.023
161.656
214.441
206.109
198.694
191.258
184.022
177.01
170.118
163.314
156.649
150.184
143.947
138.006
132.622
128.085
124.589
122.229
121.108
121.27
122.662
125.138
128.474
132.05
135.384
138.591
141.598
144.353
146.823
149.003
150.909
152.569
154.018
155.298
156.459
157.558
158.652
159.809
161.088
162.588
164.316
166.686
168.799
215.253
208.295
202.091
195.952
190.033
184.336
178.764
173.282
167.911
162.679
157.59
152.671
148.089
144.031
140.629
137.963
136.132
135.212
135.218
136.107
137.772
139.884
142.05
144.284
146.515
148.687
150.754
152.691
154.493
156.167
157.728
159.201
160.614
162.007
163.424
164.918
166.541
168.377
170.459
172.978
175.638
215.809
209.936
204.686
199.546
194.634
189.934
185.362
180.883
176.504
172.237
168.078
164.032
160.203
156.713
153.647
151.061
149.035
147.638
146.909
146.853
147.431
148.501
149.768
151.202
152.747
154.354
155.978
157.59
159.173
160.724
162.246
163.749
165.248
166.766
168.33
169.969
171.711
173.603
175.675
177.98
180.512
216.165
211.129
206.618
202.241
198.091
194.142
190.32
186.591
182.958
179.422
175.977
172.619
169.415
166.447
163.771
161.422
159.459
157.938
156.9
156.364
156.327
156.748
157.415
158.281
159.307
160.457
161.693
162.986
164.318
165.68
167.068
168.483
169.932
171.423
172.972
174.589
176.287
178.085
179.996
182.023
184.184
216.409
212.037
208.111
204.332
200.772
197.401
194.153
190.998
187.935
184.961
182.068
179.251
176.553
174.032
171.722
169.649
167.854
166.38
165.261
164.521
164.168
164.216
164.508
164.999
165.663
166.473
167.4
168.418
169.513
170.672
171.887
173.155
174.474
175.847
177.279
178.771
180.325
181.949
183.644
185.405
187.236
216.588
212.754
209.305
206.005
202.915
200.002
197.207
194.504
191.889
189.358
186.901
184.515
182.228
180.08
178.096
176.292
174.697
173.345
172.261
171.469
170.98
170.83
170.902
171.157
171.579
172.148
172.841
173.639
174.527
175.494
176.531
177.631
178.791
180.006
181.278
182.602
183.975
185.4
186.874
188.388
189.941
216.73
213.34
210.286
207.38
204.673
202.13
199.7
197.361
195.105
192.93
190.825
188.786
186.835
184.999
183.296
181.737
180.342
179.137
178.142
177.377
176.853
176.612
176.565
176.678
176.944
177.347
177.869
178.495
179.213
180.012
180.884
181.821
182.817
183.866
184.967
186.113
187.298
188.523
189.782
191.068
192.377
216.848
213.832
211.11
208.532
206.142
203.905
201.776
199.734
197.773
195.888
194.071
192.318
190.643
189.068
187.605
186.261
185.053
183.997
183.111
182.41
181.904
181.635
181.529
181.563
181.732
182.022
182.422
182.917
183.499
184.158
184.885
185.674
186.517
187.409
188.346
189.322
190.33
191.369
192.433
193.515
194.61
216.953
214.253
211.813
209.513
207.39
205.409
203.531
201.737
200.02
198.376
196.799
195.282
193.838
192.482
191.223
190.067
189.024
188.109
187.335
186.712
186.25
185.987
185.86
185.852
185.961
186.177
186.489
186.886
187.36
187.904
188.509
189.169
189.878
190.63
191.42
192.242
193.091
193.964
194.856
195.762
196.675
217.048
214.62
212.423
210.36
208.463
206.7
205.034
203.448
201.938
200.497
199.119
197.801
196.551
195.38
194.295
193.3
192.404
191.616
190.947
190.405
189.997
189.756
189.629
189.602
189.676
189.842
190.091
190.413
190.803
191.254
191.758
192.309
192.903
193.533
194.195
194.884
195.595
196.326
197.071
197.826
198.585
217.137
214.944
212.958
211.1
209.397
207.819
206.334
204.927
203.591
202.322
201.115
199.964
198.878
197.864
196.928
196.072
195.302
194.627
194.053
193.588
193.237
193.025
192.907
192.875
192.929
193.062
193.264
193.53
193.854
194.229
194.649
195.111
195.607
196.134
196.688
197.264
197.858
198.468
199.088
199.717
200.347
217.222
215.234
213.431
211.75
210.215
208.798
207.469
206.214
205.029
203.907
202.845
201.838
200.891
200.012
199.202
198.466
197.806
197.229
196.74
196.344
196.046
195.865
195.762
195.732
195.774
195.884
196.052
196.274
196.545
196.859
197.212
197.598
198.014
198.455
198.918
199.399
199.895
200.403
200.92
201.443
201.966
217.304
215.494
213.851
212.325
210.937
209.659
208.465
207.343
206.287
205.293
204.355
203.471
202.645
201.88
201.18
200.546
199.98
199.488
199.073
198.739
198.489
198.338
198.251
198.226
198.262
198.355
198.498
198.686
198.914
199.179
199.475
199.8
200.149
200.519
200.906
201.309
201.722
202.146
202.577
203.013
203.447
217.383
215.729
214.228
212.838
211.577
210.422
209.345
208.338
207.395
206.511
205.682
204.904
204.181
203.515
202.909
202.362
201.878
201.46
201.109
200.828
200.62
200.496
200.425
200.406
200.439
200.52
200.643
200.803
200.998
201.222
201.472
201.746
202.039
202.35
202.675
203.012
203.358
203.712
204.071
204.435
204.797
217.458
215.942
214.566
213.295
212.148
211.099
210.126
209.22
208.375
207.587
206.852
206.166
205.532
204.952
204.427
203.956
203.542
203.186
202.89
202.656
202.484
202.384
202.328
202.315
202.347
202.419
202.525
202.663
202.829
203.02
203.233
203.464
203.712
203.973
204.246
204.529
204.819
205.116
205.416
205.72
206.022
217.531
216.137
214.87
213.706
212.657
211.702
210.82
210.002
209.244
208.54
207.887
207.282
206.726
206.22
205.765
205.359
205.005
204.703
204.454
204.26
204.119
204.039
203.996
203.989
204.02
204.084
204.178
204.298
204.44
204.603
204.784
204.981
205.19
205.411
205.641
205.879
206.123
206.371
206.623
206.878
207.131
217.601
216.314
215.145
214.074
213.112
212.24
211.438
210.699
210.016
209.387
208.806
208.271
207.783
207.341
206.947
206.598
206.295
206.04
205.831
205.67
205.556
205.494
205.461
205.459
205.489
205.548
205.631
205.735
205.858
205.998
206.153
206.32
206.498
206.685
206.879
207.079
207.285
207.494
207.706
207.92
208.131
217.667
216.475
215.393
214.404
213.52
212.721
211.99
211.32
210.705
210.14
209.623
209.15
208.721
208.335
207.993
207.693
207.435
207.219
207.045
206.913
206.821
206.773
206.75
206.752
206.782
206.835
206.909
207
207.107
207.228
207.36
207.503
207.654
207.813
207.977
208.147
208.32
208.496
208.674
208.854
209.032
217.73
216.622
215.616
214.701
213.885
213.151
212.483
211.874
211.318
210.811
210.35
209.931
209.554
209.218
208.921
208.664
208.444
208.262
208.118
208.009
207.936
207.901
207.885
207.891
207.92
207.969
208.035
208.115
208.208
208.312
208.426
208.548
208.677
208.812
208.952
209.095
209.241
209.39
209.54
209.692
209.842
217.79
216.755
215.817
214.966
214.211
213.535
212.923
212.367
211.864
211.409
210.997
210.626
210.294
210.001
209.745
209.524
209.338
209.186
209.066
208.978
208.92
208.895
208.886
208.895
208.923
208.968
209.027
209.098
209.179
209.269
209.367
209.472
209.582
209.697
209.816
209.937
210.061
210.187
210.314
210.442
210.568
217.846
216.876
215.997
215.204
214.502
213.877
213.314
212.807
212.35
211.94
211.573
211.244
210.953
210.697
210.476
210.288
210.13
210.003
209.904
209.834
209.79
209.773
209.769
209.78
209.808
209.849
209.902
209.965
210.036
210.114
210.199
210.289
210.383
210.481
210.582
210.685
210.79
210.897
211.004
211.113
211.219
217.898
216.984
216.158
215.415
214.76
214.18
213.661
213.197
212.782
212.412
212.084
211.793
211.537
211.315
211.125
210.964
210.832
210.726
210.646
210.59
210.557
210.547
210.547
210.561
210.588
210.626
210.674
210.729
210.791
210.86
210.933
211.01
211.091
211.175
211.261
211.349
211.438
211.528
211.619
211.71
211.8
217.946
217.081
216.301
215.601
214.988
214.448
213.967
213.541
213.164
212.83
212.536
212.279
212.055
211.862
211.699
211.563
211.452
211.365
211.301
211.258
211.234
211.23
211.234
211.249
211.275
211.311
211.354
211.404
211.459
211.518
211.582
211.649
211.718
211.79
211.863
211.938
212.013
212.09
212.167
212.244
212.319
217.99
217.167
216.426
215.765
215.188
214.682
214.236
213.844
213.499
213.198
212.935
212.707
212.511
212.345
212.206
212.091
211.999
211.929
211.878
211.846
211.83
211.831
211.838
211.854
211.88
211.913
211.952
211.996
212.045
212.097
212.152
212.21
212.27
212.331
212.394
212.457
212.522
212.586
212.651
212.717
212.78
218.029
217.242
216.534
215.906
215.36
214.885
214.47
214.107
213.792
213.52
213.285
213.083
212.912
212.769
212.651
212.556
212.481
212.425
212.387
212.364
212.355
212.36
212.37
212.387
212.413
212.444
212.48
212.52
212.563
212.609
212.657
212.707
212.759
212.812
212.865
212.919
212.974
213.028
213.083
213.138
213.192
218.064
217.306
216.627
216.026
215.508
215.059
214.67
214.334
214.045
213.798
213.588
213.41
213.262
213.139
213.04
212.962
212.902
212.859
212.83
212.816
212.813
212.821
212.833
212.852
212.876
212.905
212.938
212.975
213.013
213.054
213.096
213.139
213.184
213.229
213.275
213.321
213.368
213.414
213.46
213.507
213.552
218.095
217.36
216.703
216.126
215.63
215.204
214.838
214.525
214.26
214.035
213.848
213.692
213.563
213.46
213.378
213.315
213.268
213.237
213.218
213.211
213.214
213.226
213.241
213.261
213.285
213.314
213.345
213.378
213.413
213.449
213.487
213.525
213.563
213.602
213.642
213.681
213.72
213.76
213.799
213.838
213.875
218.121
217.403
216.764
216.205
215.728
215.32
214.975
214.682
214.438
214.234
214.066
213.929
213.819
213.733
213.666
213.616
213.582
213.56
213.549
213.548
213.555
213.57
213.587
213.607
213.631
213.658
213.687
213.718
213.749
213.782
213.815
213.849
213.882
213.916
213.95
213.984
214.018
214.051
214.084
214.117
214.149
218.142
217.435
216.809
216.264
215.801
215.409
215.08
214.806
214.58
214.395
214.245
214.126
214.033
213.962
213.91
213.873
213.851
213.839
213.837
213.843
213.856
213.875
213.895
213.917
213.943
213.97
213.998
214.027
214.057
214.087
214.117
214.147
214.177
214.206
214.235
214.264
214.293
214.321
214.349
214.376
214.402
218.158
217.458
216.841
216.306
215.853
215.473
215.158
214.898
214.687
214.518
214.385
214.281
214.203
214.146
214.106
214.081
214.067
214.063
214.067
214.078
214.094
214.114
214.136
214.159
214.184
214.211
214.238
214.265
214.293
214.32
214.347
214.374
214.401
214.427
214.453
214.478
214.503
214.527
214.55
214.574
214.596
218.17
217.471
216.857
216.328
215.883
215.513
215.208
214.96
214.762
214.607
214.488
214.399
214.335
214.292
214.267
214.256
214.255
214.262
214.276
214.295
214.318
214.344
214.37
214.397
214.425
214.452
214.48
214.508
214.535
214.561
214.587
214.611
214.636
214.659
214.681
214.703
214.724
214.745
214.765
214.784
214.802
218.174
217.466
216.847
216.318
215.875
215.511
215.216
214.981
214.796
214.655
214.549
214.473
214.421
214.388
214.371
214.366
214.372
214.385
214.403
214.426
214.451
214.478
214.505
214.533
214.561
214.588
214.616
214.642
214.668
214.693
214.717
214.74
214.763
214.784
214.804
214.824
214.843
214.861
214.878
214.895
214.911
218.172
217.445
216.814
216.278
215.833
215.47
215.181
214.954
214.781
214.654
214.564
214.505
214.472
214.46
214.464
214.48
214.505
214.536
214.569
214.603
214.638
214.673
214.706
214.739
214.771
214.802
214.831
214.859
214.885
214.91
214.933
214.955
214.976
214.995
215.014
215.031
215.048
215.063
215.077
215.091
215.104
160.971
165.634
171.834
176.773
181.928
187.36
192.582
197.405
201.749
205.573
208.872
211.674
214.019
215.956
217.534
218.799
219.8
220.578
221.169
221.608
221.922
222.135
222.268
222.337
222.357
222.337
222.288
222.217
222.13
222.031
221.924
221.814
221.701
221.588
221.477
221.368
221.263
221.162
221.065
220.972
220.884
220.801
220.721
220.646
220.575
220.508
220.444
220.384
220.328
220.274
220.224
220.176
220.131
220.088
220.047
220.009
219.973
219.938
219.906
219.875
219.846
219.819
219.793
219.769
219.746
219.725
219.706
219.688
219.672
219.659
219.646
219.642
219.626
219.649
157.288
163.566
170.135
175.645
181.185
186.846
192.24
197.194
201.635
205.528
208.875
211.707
214.07
216.015
217.595
218.859
219.855
220.627
221.212
221.643
221.951
222.158
222.285
222.349
222.364
222.34
222.288
222.214
222.124
222.023
221.915
221.803
221.69
221.576
221.464
221.355
221.25
221.148
221.051
220.959
220.871
220.787
220.708
220.633
220.562
220.495
220.432
220.372
220.316
220.263
220.213
220.165
220.12
220.078
220.038
220
219.964
219.93
219.897
219.867
219.838
219.811
219.785
219.761
219.739
219.718
219.699
219.682
219.666
219.654
219.64
219.637
219.621
219.644
153.998
160.324
167.699
174.145
180.241
186.225
191.844
196.958
201.514
205.487
208.888
211.754
214.136
216.09
217.672
218.933
219.923
220.686
221.263
221.686
221.985
222.184
222.305
222.363
222.372
222.344
222.288
222.21
222.118
222.015
221.905
221.792
221.677
221.562
221.45
221.34
221.234
221.133
221.036
220.943
220.855
220.772
220.693
220.619
220.548
220.481
220.419
220.359
220.303
220.25
220.201
220.153
220.109
220.067
220.027
219.989
219.954
219.92
219.888
219.858
219.829
219.802
219.777
219.753
219.731
219.711
219.692
219.675
219.659
219.647
219.634
219.632
219.616
219.64
151.274
157.076
164.839
172.224
179.037
185.459
191.373
196.694
201.389
205.456
208.918
211.821
214.224
216.187
217.769
219.024
220.006
220.759
221.325
221.737
222.026
222.216
222.328
222.379
222.382
222.348
222.287
222.206
222.111
222.005
221.893
221.778
221.662
221.546
221.433
221.323
221.217
221.116
221.019
220.926
220.839
220.756
220.677
220.603
220.533
220.466
220.404
220.345
220.289
220.237
220.188
220.141
220.097
220.055
220.016
219.978
219.943
219.91
219.878
219.848
219.82
219.794
219.769
219.745
219.723
219.703
219.684
219.668
219.653
219.641
219.628
219.626
219.61
219.635
149.624
154.634
162.089
170.018
177.544
184.513
190.807
196.39
201.264
205.446
208.978
211.921
214.344
216.314
217.893
219.14
220.109
220.849
221.401
221.8
222.076
222.255
222.356
222.398
222.393
222.354
222.287
222.202
222.102
221.994
221.88
221.762
221.645
221.528
221.415
221.304
221.198
221.096
220.999
220.907
220.82
220.737
220.659
220.585
220.515
220.45
220.388
220.329
220.274
220.222
220.173
220.127
220.084
220.042
220.003
219.967
219.932
219.899
219.868
219.838
219.81
219.784
219.759
219.736
219.715
219.695
219.677
219.66
219.645
219.634
219.622
219.62
219.605
219.629
148.884
153.092
159.911
167.898
175.888
183.387
190.13
196.033
201.127
205.458
209.08
212.069
214.51
216.482
218.054
219.287
220.24
220.961
221.495
221.876
222.137
222.301
222.391
222.421
222.408
222.36
222.287
222.197
222.093
221.981
221.864
221.745
221.625
221.508
221.393
221.282
221.176
221.074
220.977
220.886
220.799
220.716
220.639
220.565
220.496
220.431
220.37
220.312
220.257
220.206
220.158
220.112
220.069
220.028
219.99
219.954
219.919
219.887
219.856
219.827
219.8
219.774
219.749
219.727
219.706
219.686
219.668
219.652
219.638
219.627
219.615
219.613
219.599
219.623
148.859
152.457
158.622
166.286
174.376
182.208
189.362
195.624
200.976
205.482
209.22
212.274
214.739
216.709
218.265
219.477
220.405
221.103
221.612
221.971
222.212
222.358
222.432
222.45
222.425
222.368
222.288
222.191
222.082
221.966
221.846
221.724
221.603
221.484
221.369
221.257
221.151
221.049
220.953
220.861
220.775
220.693
220.616
220.543
220.475
220.41
220.35
220.293
220.239
220.188
220.141
220.096
220.053
220.013
219.975
219.94
219.906
219.874
219.844
219.815
219.788
219.763
219.739
219.717
219.696
219.677
219.659
219.644
219.63
219.619
219.608
219.607
219.592
219.617
149.502
152.743
158.35
165.516
173.371
181.247
188.632
195.196
200.822
205.526
209.391
212.523
215.029
217.006
218.544
219.725
220.618
221.282
221.76
222.09
222.304
222.429
222.484
222.485
222.446
222.378
222.289
222.184
222.069
221.948
221.824
221.7
221.577
221.457
221.34
221.229
221.122
221.02
220.924
220.833
220.747
220.666
220.59
220.518
220.451
220.387
220.327
220.271
220.218
220.169
220.122
220.078
220.036
219.997
219.959
219.924
219.891
219.86
219.83
219.802
219.776
219.751
219.728
219.706
219.686
219.667
219.65
219.635
219.621
219.611
219.6
219.599
219.586
219.611
150.734
153.902
159.092
165.747
173.183
180.823
188.182
194.875
200.701
205.6
209.603
212.814
215.361
217.356
218.888
220.041
220.893
221.511
221.946
222.239
222.42
222.516
222.547
222.528
222.473
222.391
222.29
222.176
222.054
221.928
221.8
221.672
221.546
221.425
221.307
221.195
221.088
220.987
220.892
220.801
220.716
220.636
220.561
220.49
220.424
220.361
220.302
220.247
220.195
220.147
220.101
220.057
220.017
219.978
219.942
219.908
219.875
219.844
219.815
219.788
219.762
219.738
219.715
219.694
219.674
219.656
219.64
219.625
219.612
219.602
219.592
219.592
219.579
219.604
152.377
155.745
160.765
166.974
173.946
181.188
188.286
194.878
200.734
205.739
209.859
213.153
215.739
217.742
219.265
220.398
221.219
221.795
222.182
222.426
222.565
222.624
222.625
222.581
222.505
222.406
222.292
222.167
222.037
221.904
221.77
221.639
221.511
221.387
221.269
221.156
221.05
220.949
220.854
220.765
220.681
220.602
220.528
220.458
220.393
220.332
220.274
220.22
220.17
220.122
220.077
220.035
219.995
219.958
219.922
219.889
219.857
219.828
219.799
219.773
219.748
219.724
219.702
219.681
219.662
219.645
219.629
219.615
219.602
219.593
219.583
219.583
219.571
219.597
154.11
157.902
163.063
169.048
175.607
182.402
189.117
195.423
201.109
206.054
210.188
213.528
216.153
218.166
219.67
220.769
221.555
222.097
222.448
222.65
222.743
222.759
222.721
222.646
222.544
222.425
222.294
222.157
222.016
221.875
221.736
221.6
221.469
221.343
221.224
221.111
221.004
220.904
220.81
220.722
220.64
220.562
220.49
220.422
220.358
220.298
220.242
220.19
220.141
220.094
220.051
220.01
219.972
219.935
219.901
219.869
219.838
219.809
219.782
219.756
219.732
219.709
219.688
219.668
219.649
219.632
219.617
219.604
219.592
219.583
219.574
219.575
219.563
219.589
155.74
159.978
165.44
171.501
177.868
184.328
190.642
196.571
201.953
206.68
210.684
213.965
216.581
218.597
220.09
221.154
221.892
222.385
222.693
222.86
222.922
222.906
222.834
222.724
222.591
222.447
222.296
222.143
221.99
221.84
221.694
221.553
221.418
221.291
221.17
221.057
220.951
220.852
220.759
220.673
220.592
220.517
220.446
220.38
220.318
220.26
220.206
220.155
220.108
220.063
220.021
219.982
219.945
219.91
219.877
219.846
219.817
219.789
219.763
219.738
219.715
219.693
219.672
219.653
219.635
219.619
219.605
219.592
219.581
219.573
219.565
219.566
219.555
219.581
157.766
162.169
167.681
173.815
180.16
186.481
192.541
198.157
203.212
207.644
211.415
214.531
217.046
219.01
220.472
221.509
222.213
222.661
222.915
223.031
223.054
223.011
222.919
222.791
222.637
222.47
222.298
222.126
221.958
221.797
221.643
221.496
221.358
221.228
221.107
220.994
220.888
220.791
220.7
220.615
220.537
220.463
220.395
220.332
220.272
220.217
220.165
220.116
220.071
220.028
219.988
219.95
219.915
219.882
219.85
219.821
219.793
219.766
219.741
219.718
219.695
219.675
219.655
219.637
219.62
219.605
219.591
219.579
219.569
219.562
219.554
219.556
219.546
219.572
161.84
165.517
170.371
176.275
182.429
188.512
194.346
199.757
204.6
208.787
212.31
215.217
217.568
219.412
220.796
221.788
222.462
222.883
223.101
223.172
223.146
223.06
222.935
222.787
222.626
222.455
222.278
222.097
221.918
221.745
221.581
221.427
221.285
221.153
221.031
220.918
220.814
220.718
220.63
220.548
220.472
220.402
220.336
220.275
220.219
220.166
220.117
220.071
220.028
219.988
219.95
219.915
219.881
219.85
219.82
219.792
219.766
219.741
219.718
219.695
219.674
219.655
219.636
219.619
219.604
219.589
219.577
219.566
219.556
219.55
219.543
219.545
219.536
219.563
167.813
171.029
175.144
180.49
186.088
191.525
196.723
201.569
205.937
209.759
213.03
215.754
217.948
219.661
220.955
221.893
222.54
222.95
223.165
223.231
223.193
223.083
222.923
222.739
222.548
222.362
222.181
222.005
221.832
221.664
221.5
221.343
221.196
221.061
220.938
220.826
220.724
220.631
220.546
220.468
220.396
220.329
220.267
220.21
220.157
220.108
220.062
220.019
219.979
219.942
219.907
219.874
219.843
219.814
219.786
219.761
219.736
219.713
219.691
219.671
219.651
219.633
219.616
219.6
219.586
219.572
219.561
219.551
219.542
219.537
219.531
219.534
219.526
219.553
173.763
176.666
180.006
184.325
189.028
193.74
198.383
202.857
207.007
210.704
213.879
216.506
218.59
220.162
221.289
222.053
222.541
222.832
222.986
223.038
223.014
222.928
222.792
222.619
222.428
222.23
222.033
221.844
221.669
221.508
221.357
221.215
221.079
220.95
220.83
220.719
220.618
220.528
220.446
220.372
220.305
220.243
220.186
220.133
220.085
220.04
219.998
219.959
219.923
219.889
219.857
219.827
219.799
219.773
219.748
219.725
219.702
219.682
219.662
219.643
219.625
219.609
219.593
219.579
219.566
219.554
219.543
219.535
219.527
219.523
219.518
219.522
219.515
219.543
179.11
181.729
184.503
187.746
191.298
194.973
198.694
202.399
205.99
209.366
212.44
215.148
217.445
219.312
220.76
221.82
222.534
222.946
223.112
223.096
222.965
222.775
222.569
222.365
222.171
221.984
221.8
221.618
221.444
221.281
221.13
220.995
220.875
220.768
220.669
220.576
220.488
220.406
220.33
220.261
220.198
220.141
220.09
220.043
220
219.96
219.923
219.889
219.857
219.827
219.8
219.774
219.749
219.726
219.704
219.684
219.664
219.646
219.629
219.612
219.597
219.582
219.568
219.556
219.544
219.534
219.525
219.517
219.511
219.508
219.504
219.509
219.504
219.532
182.989
185.206
187.522
190.02
192.703
195.515
198.401
201.316
204.21
207.025
209.708
212.21
214.487
216.505
218.234
219.656
220.767
221.578
222.119
222.431
222.561
222.547
222.429
222.243
222.02
221.79
221.572
221.373
221.198
221.041
220.899
220.769
220.653
220.549
220.458
220.379
220.309
220.245
220.186
220.129
220.076
220.027
219.982
219.941
219.904
219.87
219.839
219.81
219.784
219.759
219.735
219.714
219.693
219.674
219.656
219.639
219.622
219.607
219.592
219.578
219.565
219.553
219.541
219.53
219.521
219.512
219.504
219.498
219.494
219.492
219.49
219.496
219.492
219.521
186.126
187.957
189.877
191.875
193.98
196.182
198.45
200.755
203.066
205.35
207.572
209.699
211.699
213.547
215.221
216.709
217.999
219.088
219.975
220.662
221.156
221.473
221.635
221.675
221.622
221.506
221.35
221.175
220.997
220.828
220.678
220.549
220.439
220.344
220.26
220.186
220.121
220.064
220.016
219.974
219.935
219.898
219.864
219.831
219.8
219.773
219.748
219.725
219.704
219.684
219.666
219.649
219.633
219.618
219.604
219.59
219.577
219.565
219.553
219.542
219.531
219.521
219.512
219.503
219.495
219.489
219.483
219.478
219.475
219.475
219.474
219.481
219.479
219.508
188.842
190.332
191.889
193.495
195.173
196.925
198.732
200.576
202.44
204.303
206.143
207.936
209.66
211.293
212.817
214.218
215.486
216.615
217.601
218.447
219.156
219.731
220.178
220.503
220.714
220.822
220.845
220.804
220.719
220.608
220.484
220.36
220.243
220.141
220.056
219.986
219.929
219.881
219.84
219.805
219.776
219.751
219.729
219.708
219.688
219.669
219.651
219.634
219.619
219.605
219.592
219.58
219.569
219.558
219.548
219.538
219.529
219.52
219.511
219.503
219.495
219.488
219.481
219.474
219.469
219.464
219.46
219.457
219.455
219.456
219.457
219.466
219.465
219.496
191.279
192.48
193.731
195.023
196.371
197.777
199.229
200.718
202.233
203.76
205.286
206.794
208.267
209.691
211.048
212.327
213.515
214.603
215.588
216.467
217.242
217.916
218.494
218.98
219.38
219.695
219.93
220.087
220.173
220.198
220.177
220.123
220.05
219.968
219.886
219.81
219.746
219.695
219.658
219.63
219.61
219.593
219.58
219.57
219.562
219.554
219.545
219.537
219.528
219.52
219.513
219.506
219.5
219.494
219.488
219.483
219.477
219.472
219.467
219.462
219.457
219.452
219.448
219.444
219.44
219.437
219.435
219.434
219.435
219.437
219.44
219.45
219.451
219.482
193.487
194.449
195.452
196.49
197.576
198.708
199.881
201.088
202.323
203.578
204.843
206.108
207.361
208.59
209.784
210.93
212.019
213.042
213.991
214.861
215.65
216.357
216.984
217.535
218.015
218.428
218.781
219.076
219.314
219.497
219.624
219.699
219.729
219.723
219.693
219.648
219.596
219.546
219.501
219.466
219.443
219.43
219.425
219.423
219.424
219.425
219.428
219.429
219.43
219.43
219.429
219.428
219.427
219.426
219.425
219.424
219.423
219.421
219.42
219.418
219.416
219.414
219.413
219.411
219.41
219.409
219.409
219.41
219.412
219.417
219.421
219.433
219.435
219.468
195.529
196.297
197.097
197.93
198.803
199.715
200.662
201.64
202.647
203.676
204.722
205.779
206.837
207.888
208.925
209.937
210.916
211.854
212.744
213.579
214.354
215.066
215.715
216.299
216.821
217.283
217.691
218.048
218.359
218.628
218.858
219.048
219.196
219.303
219.37
219.401
219.405
219.391
219.366
219.337
219.309
219.288
219.276
219.274
219.28
219.289
219.3
219.311
219.321
219.331
219.338
219.345
219.35
219.354
219.357
219.361
219.364
219.367
219.369
219.371
219.373
219.374
219.375
219.377
219.378
219.38
219.382
219.385
219.389
219.395
219.401
219.415
219.419
219.453
197.433
198.043
198.679
199.345
200.045
200.777
201.54
202.332
203.151
203.993
204.855