/*--------------------------------*- C++ -*----------------------------------*\
| =========                 |                                                 |
| \\      /  F ield         | OpenFOAM: The Open Source CFD Toolbox           |
|  \\    /   O peration     | Version:  5.x                                   |
|   \\  /    A nd           | Web:      www.OpenFOAM.org                      |
|    \\/     M anipulation  |                                                 |
\*---------------------------------------------------------------------------*/
FoamFile
{
    version     2.0;
    format      ascii;
    class       volScalarField;
    location    "350";
    object      p;
}
// * * * * * * * * * * * * * * * * * * * * * * * * * * * * * * * * * * * * * //

dimensions      [0 2 -2 0 0 0 0];

internalField   nonuniform List<scalar> 
11040
(
0.00722383
-99.7003
-337.019
-401.144
-422.34
-435.324
-436.786
-426.495
-407.833
-381.907
-348.229
-296.49
-246.682
-211.208
-186.419
-159.992
-133.15
-107.796
-83.7941
-60.6282
-38.2104
-18.8457
-2.66349
12.4811
26.6675
39.9195
52.2325
63.5949
73.945
83.183
91.1965
97.865
103.133
107.068
109.871
111.797
112.587
112.008
111.68
115.166
115.226
36.5775
-59.8926
-212.453
-290.454
-331.369
-361.446
-379.283
-383.47
-376.493
-360.061
-334.381
-291.496
-246.326
-211.498
-186.163
-160.046
-133.512
-108.29
-84.3674
-61.2654
-38.8887
-19.5718
-3.35928
11.815
26.0333
39.3229
51.6811
63.0949
73.5052
82.8147
90.9048
97.6538
103.001
106.997
109.835
111.81
112.669
112.072
111.331
113.792
113.33
61.2488
-32.493
-142.346
-234.001
-288.784
-325.021
-347.617
-356.289
-353.306
-340.65
-319.34
-283.761
-242.992
-208.988
-183.55
-158.426
-132.657
-107.83
-84.1794
-61.2971
-39.0798
-19.8421
-3.67231
11.4712
25.6706
38.953
51.3161
62.7451
73.1822
82.5317
90.6747
97.4884
102.902
106.956
109.834
111.848
112.771
112.229
111.345
113.006
112.193
78.6228
-5.1409
-87.3764
-171.029
-229.42
-270.856
-300.451
-317.073
-321.373
-315.185
-300.031
-272.197
-236.95
-204.894
-179.782
-155.769
-130.988
-106.758
-83.5332
-60.9947
-39.0328
-19.9616
-3.89048
11.1861
25.3391
38.5927
50.9443
62.3767
72.8328
82.2184
90.4151
97.2979
102.788
106.916
109.847
111.884
112.845
112.364
111.432
112.61
111.966
92.3103
20.5553
-43.332
-114.931
-173.766
-218.799
-253.054
-275.648
-286.321
-286.358
-277.355
-257.155
-228.308
-199.219
-174.853
-151.99
-128.429
-105.031
-82.4004
-60.3487
-38.7708
-19.9646
-4.05595
10.8995
24.9603
38.1467
50.4561
61.8687
72.3279
81.7418
89.9934
96.9575
102.55
106.786
109.803
111.877
112.875
112.482
111.549
112.55
112.409
102.724
42.9398
-8.04881
-67.4398
-121.979
-167.102
-203.674
-230.751
-247.199
-253.468
-250.835
-238.2
-216.335
-191.267
-168.392
-146.887
-124.798
-102.496
-80.6471
-59.2342
-38.178
-19.7367
-4.07248
10.6889
24.5941
37.658
49.8771
61.2295
71.6598
81.0793
89.3744
96.4231
102.136
106.513
109.659
111.804
112.87
112.631
111.787
112.773
113.181
110.608
61.6267
20.2164
-28.33
-76.0176
-118.376
-154.826
-184.228
-204.963
-216.709
-220.178
-214.78
-200.199
-180.244
-159.909
-140.189
-119.857
-98.9561
-78.1297
-57.5405
-37.1632
-19.2062
-3.88437
10.5993
24.2751
37.1488
49.216
60.4537
70.8087
80.1976
88.5132
95.6393
101.484
106.033
109.356
111.63
112.824
112.831
112.208
113.252
114.197
116.545
76.7053
42.7687
3.33402
-36.8292
-74.5242
-108.756
-138.293
-161.412
-177.248
-185.932
-186.991
-179.49
-165.399
-148.699
-131.41
-113.22
-94.0947
-74.6102
-55.0861
-35.5897
-18.2717
-3.41144
10.6932
24.0499
36.651
48.4891
59.5404
69.7553
79.0584
87.3528
94.5325
100.508
105.252
108.803
111.286
112.709
113.078
112.832
114.048
115.419
120.96
88.5814
60.6366
28.6602
-4.42128
-36.6373
-67.1965
-95.0042
-118.533
-136.705
-149.211
-155.511
-154.33
-146.284
-134.085
-119.976
-104.408
-87.497
-69.7519
-51.6044
-33.2429
-16.7553
-2.50298
11.0934
24.018
36.2462
47.7619
58.539
68.5312
77.6722
85.8793
93.0621
99.1408
104.082
107.902
110.683
112.462
113.339
113.638
115.195
116.816
124.17
97.7784
74.6948
48.7603
21.8434
-4.93498
-31.1413
-55.9817
-78.2657
-96.9923
-111.638
-121.604
-125.482
-123.011
-115.692
-105.398
-92.9567
-78.7121
-63.1502
-46.7609
-29.8479
-14.4237
-0.956657
11.9717
24.3258
36.0618
47.1488
57.5539
67.2318
76.124
84.1619
91.2733
97.3946
102.497
106.591
109.737
111.986
113.509
114.517
116.571
118.369
126.436
104.824
85.7038
64.6402
42.8657
20.9895
-0.839782
-22.1454
-42.0856
-59.8977
-75.0567
-86.9875
-94.3388
-96.3814
-93.682
-87.4662
-78.5321
-67.3468
-54.3948
-40.1767
-25.0786
-10.998
1.47117
13.5415
25.159
36.2616
46.7986
56.7258
65.9953
74.5532
82.3417
89.3044
95.3949
100.596
104.925
108.437
111.2
113.419
115.219
117.849
119.938
127.982
110.193
94.3157
77.1708
59.5883
41.8879
24.0509
6.31578
-10.78
-26.7257
-41.1199
-53.4876
-62.6773
-67.8157
-68.8818
-66.4764
-61.1117
-53.1982
-43.1725
-31.4967
-18.5841
-6.15601
5.07184
16.0667
26.7547
37.0574
46.9024
56.2307
64.9892
73.1255
80.5886
87.3333
93.3262
98.5606
103.062
106.889
110.114
112.946
115.469
118.601
121.159
129.002
114.29
101.076
87.0834
72.8777
58.6179
44.2074
29.7373
15.5205
1.87619
-10.9525
-22.6296
-32.263
-39.0454
-42.6802
-43.3254
-41.1628
-36.4206
-29.4119
-20.5035
-10.0715
0.416153
10.1556
19.8487
29.4002
38.7175
47.7086
56.2986
64.4271
72.0408
79.0924
85.5438
91.3699
96.5694
101.172
105.229
108.808
112.088
115.144
118.568
121.608
129.657
117.441
106.425
94.9742
83.4755
71.9999
60.4249
48.763
37.1843
25.8726
14.9517
4.62294
-4.47238
-11.6919
-16.6773
-19.3525
-19.6618
-17.6368
-13.4273
-7.26393
0.569322
8.92395
16.9744
25.1681
33.3924
41.5437
49.5143
57.2161
64.5815
71.5549
78.0897
84.151
89.7174
94.7883
99.3902
103.563
107.356
110.897
114.258
117.758
121.031
130.07
119.899
110.706
101.312
91.9823
82.7406
73.4642
64.1287
54.821
45.6381
36.6366
27.9133
19.9016
13.067
7.72065
4.01635
2.1204
2.13319
4.04726
7.7698
13.1333
19.3341
25.6048
32.1813
38.9452
45.7895
52.599
59.2765
65.7485
71.9572
77.856
83.4103
88.5977
93.4139
97.8774
102.012
105.846
109.46
112.906
116.331
119.568
130.35
121.869
114.194
106.467
98.8768
91.4203
83.9854
76.5342
69.1074
61.7528
54.4887
47.3524
40.6227
34.6174
29.5665
25.6174
22.9528
21.7239
22.0072
23.8118
27.0749
31.3083
35.8651
40.8338
46.1047
51.578
57.1425
62.7012
68.1788
73.5159
78.665
83.59
88.2664
92.6842
96.8512
100.775
104.466
107.967
111.31
114.553
117.612
130.612
123.535
117.127
110.759
104.569
98.5383
92.569
86.6212
80.712
74.8627
69.0721
63.3505
57.8702
52.8407
48.4187
44.7163
41.8858
40.0734
39.3826
39.8743
41.5549
44.178
47.2458
50.7624
54.638
58.7883
63.1165
67.5353
71.9745
76.3773
80.6969
84.8965
88.9483
92.8364
96.5589
100.112
103.491
106.718
109.806
112.772
115.578
130.848
124.885
119.478
114.161
109.045
104.098
99.236
94.4227
89.6641
84.9689
80.3297
75.747
71.3294
67.2114
63.4964
60.2624
57.6228
55.6949
54.5751
54.3363
55.0152
56.5146
58.4727
60.857
63.6014
66.6402
69.8957
73.2954
76.7795
80.2975
83.8068
87.2721
90.6653
93.967
97.1688
100.259
103.226
106.079
108.82
111.448
113.948
131.043
125.942
121.309
116.796
112.492
108.359
104.325
100.357
96.456
92.6237
88.8507
85.1334
81.5451
78.1751
75.0911
72.3471
70.0241
68.2099
66.9821
66.4067
66.5272
67.3245
68.5376
70.1256
72.0427
74.2397
76.6566
79.2366
81.931
84.6976
87.4997
90.3058
93.0896
95.8311
98.5187
101.138
103.674
106.129
108.499
110.776
112.953
131.225
126.805
122.786
118.902
115.226
111.72
108.317
104.991
101.738
98.5594
95.4442
92.3878
89.4413
86.6667
84.1088
81.805
79.8128
78.1962
77.0143
76.3206
76.1546
76.5335
77.2665
78.3154
79.6501
81.2338
83.0211
84.9687
87.0383
89.1959
91.4109
93.6566
95.9099
98.152
100.371
102.551
104.679
106.751
108.763
110.703
112.569
131.401
127.533
124.011
120.632
117.456
114.443
111.535
108.71
105.963
103.292
100.687
98.1443
95.6998
93.3984
91.2703
89.3411
87.6525
86.2507
85.1793
84.4798
84.184
84.3234
84.754
85.4448
86.3764
87.5212
88.845
90.3149
91.9013
93.5775
95.3188
97.1032
98.9111
100.726
102.537
104.33
106.091
107.817
109.501
111.134
112.713
131.576
128.163
125.051
122.084
119.314
116.698
114.188
111.763
109.417
107.147
104.946
102.808
100.761
98.8375
97.0585
95.4413
94.0166
92.8178
91.8768
91.2245
90.8855
90.8938
91.1377
91.5935
92.2488
93.0827
94.0689
95.1826
96.4012
97.7037
99.0705
100.484
101.928
103.388
104.856
106.318
107.763
109.188
110.585
111.946
113.268
131.748
128.715
125.948
123.324
120.887
118.598
116.413
114.311
112.29
110.344
108.466
106.654
104.926
103.306
101.811
100.452
99.2505
98.2322
97.4199
96.8362
96.4994
96.441
96.5717
96.8741
97.3407
97.9551
98.6967
99.5466
100.488
101.503
102.578
103.698
104.849
106.022
107.207
108.394
109.574
110.742
111.894
113.022
114.122
131.917
129.206
126.731
124.395
122.238
120.221
118.303
116.469
114.714
113.032
111.419
109.87
108.4
107.028
105.765
104.619
103.605
102.742
102.048
101.538
101.225
101.137
101.201
101.404
101.741
102.2
102.765
103.419
104.151
104.948
105.796
106.686
107.606
108.548
109.504
110.466
111.427
112.383
113.33
114.26
115.171
132.082
129.646
127.42
125.33
123.409
121.62
119.927
118.316
116.782
115.32
113.925
112.592
111.335
110.166
109.093
108.122
107.265
106.536
105.945
105.506
105.227
105.13
105.155
105.293
105.542
105.89
106.325
106.835
107.41
108.039
108.713
109.423
110.161
110.919
111.692
112.473
113.255
114.037
114.814
115.581
116.333
132.242
130.043
128.032
126.153
124.433
122.838
121.336
119.913
118.564
117.286
116.072
114.92
113.838
112.836
111.921
111.097
110.371
109.753
109.252
108.877
108.634
108.54
108.543
108.639
108.826
109.095
109.435
109.837
110.293
110.794
111.334
111.904
112.498
113.111
113.738
114.373
115.012
115.652
116.289
116.921
117.543
132.396
130.402
128.578
126.881
125.334
123.905
122.565
121.303
120.111
118.988
117.927
116.926
115.99
115.129
114.345
113.643
113.026
112.503
112.079
111.76
111.551
111.466
111.458
111.527
111.671
111.882
112.152
112.472
112.838
113.241
113.675
114.136
114.618
115.116
115.627
116.145
116.668
117.193
117.718
118.239
118.753
132.544
130.728
129.067
127.528
126.131
124.846
123.646
122.52
121.463
120.472
119.54
118.667
117.855
117.111
116.438
115.837
115.312
114.869
114.51
114.241
114.063
113.988
113.977
114.027
114.14
114.309
114.526
114.785
115.08
115.407
115.761
116.136
116.529
116.936
117.354
117.779
118.209
118.641
119.074
119.506
119.931
132.685
131.025
129.507
128.106
126.839
125.678
124.599
123.591
122.651
121.772
120.952
120.186
119.48
118.835
118.255
117.74
117.293
116.916
116.613
116.387
116.237
116.173
116.16
116.199
116.29
116.428
116.604
116.816
117.057
117.325
117.614
117.922
118.245
118.579
118.923
119.273
119.628
119.986
120.344
120.702
121.055
132.819
131.295
129.903
128.622
127.47
126.417
125.443
124.538
123.698
122.917
122.192
121.52
120.902
120.343
119.842
119.399
119.017
118.697
118.442
118.251
118.126
118.073
118.061
118.093
118.168
118.281
118.427
118.601
118.8
119.021
119.26
119.514
119.781
120.057
120.342
120.632
120.926
121.223
121.521
121.819
122.113
132.945
131.542
130.26
129.086
128.033
127.075
126.193
125.378
124.624
123.928
123.286
122.694
122.153
121.666
121.232
120.852
120.525
120.254
120.038
119.878
119.775
119.732
119.722
119.748
119.811
119.906
120.028
120.173
120.339
120.523
120.722
120.933
121.154
121.384
121.621
121.862
122.107
122.354
122.603
122.852
123.097
133.063
131.766
130.582
129.501
128.536
127.662
126.86
126.123
125.446
124.824
124.253
123.731
123.256
122.832
122.456
122.129
121.849
121.619
121.437
121.304
121.219
121.184
121.177
121.2
121.254
121.335
121.438
121.56
121.699
121.853
122.019
122.196
122.381
122.573
122.771
122.973
123.177
123.384
123.592
123.801
124.007
133.174
131.97
130.872
129.874
128.986
128.185
127.455
126.787
126.177
125.619
125.111
124.649
124.232
123.862
123.536
123.254
123.015
122.82
122.667
122.556
122.487
122.46
122.456
122.477
122.524
122.593
122.681
122.784
122.902
123.032
123.172
123.321
123.476
123.637
123.803
123.973
124.144
124.318
124.493
124.669
124.841
133.277
132.155
131.133
130.209
129.389
128.653
127.985
127.377
126.826
126.326
125.873
125.463
125.097
124.773
124.491
124.248
124.044
123.879
123.751
123.659
123.603
123.584
123.582
123.602
123.643
123.703
123.779
123.868
123.968
124.078
124.197
124.322
124.453
124.589
124.729
124.872
125.016
125.163
125.31
125.458
125.603
133.373
132.323
131.368
130.508
129.748
129.069
128.456
127.903
127.404
126.954
126.549
126.186
125.864
125.581
125.336
125.128
124.954
124.814
124.707
124.633
124.588
124.575
124.576
124.594
124.632
124.684
124.75
124.826
124.912
125.006
125.107
125.214
125.325
125.44
125.558
125.679
125.801
125.924
126.049
126.174
126.296
133.461
132.474
131.579
130.775
130.068
129.44
128.876
128.37
127.917
127.511
127.149
126.828
126.544
126.297
126.085
125.907
125.759
125.642
125.553
125.493
125.458
125.45
125.454
125.472
125.506
125.553
125.61
125.676
125.75
125.831
125.917
126.008
126.103
126.201
126.301
126.403
126.506
126.611
126.716
126.822
126.925
133.541
132.609
131.766
131.012
130.352
129.768
129.248
128.784
128.372
128.006
127.682
127.397
127.147
126.932
126.749
126.596
126.472
126.374
126.301
126.253
126.227
126.223
126.229
126.247
126.278
126.32
126.371
126.429
126.493
126.562
126.637
126.714
126.795
126.878
126.964
127.05
127.138
127.227
127.315
127.405
127.493
133.614
132.73
131.932
131.222
130.602
130.058
129.576
129.149
128.774
128.443
128.153
127.9
127.681
127.494
127.337
127.207
127.102
127.021
126.963
126.925
126.907
126.907
126.915
126.934
126.963
127.001
127.046
127.097
127.153
127.213
127.277
127.344
127.413
127.484
127.557
127.631
127.705
127.78
127.856
127.932
128.006
133.68
132.837
132.078
131.405
130.821
130.311
129.863
129.47
129.127
128.828
128.568
128.344
128.152
127.99
127.855
127.746
127.659
127.593
127.547
127.518
127.506
127.51
127.52
127.538
127.566
127.601
127.641
127.686
127.735
127.788
127.843
127.901
127.96
128.021
128.083
128.146
128.209
128.273
128.337
128.402
128.464
133.739
132.93
132.204
131.564
131.011
130.531
130.112
129.749
129.435
129.164
128.931
128.733
128.566
128.426
128.312
128.22
128.149
128.097
128.062
128.042
128.036
128.044
128.056
128.075
128.102
128.134
128.171
128.211
128.255
128.301
128.35
128.4
128.451
128.503
128.556
128.61
128.664
128.718
128.772
128.827
128.879
133.79
133.009
132.312
131.699
131.172
130.718
130.326
129.989
129.701
129.455
129.247
129.072
128.926
128.807
128.711
128.636
128.579
128.538
128.512
128.5
128.499
128.509
128.523
128.542
128.568
128.598
128.631
128.668
128.707
128.747
128.79
128.833
128.878
128.923
128.968
129.014
129.06
129.107
129.153
129.199
129.243
133.835
133.076
132.401
131.811
131.307
130.875
130.506
130.192
129.927
129.704
129.518
129.364
129.238
129.137
129.058
128.998
128.954
128.925
128.909
128.904
128.909
128.923
128.939
128.96
128.986
129.015
129.047
129.081
129.116
129.153
129.19
129.229
129.267
129.306
129.346
129.385
129.424
129.463
129.502
129.541
129.579
133.872
133.13
132.472
131.901
131.414
131.002
130.653
130.359
130.114
129.912
129.746
129.611
129.504
129.419
129.355
129.308
129.276
129.256
129.247
129.247
129.256
129.272
129.289
129.311
129.336
129.363
129.393
129.424
129.456
129.489
129.522
129.556
129.59
129.625
129.659
129.693
129.727
129.76
129.793
129.827
129.858
133.903
133.171
132.526
131.968
131.496
131.099
130.766
130.491
130.264
130.08
129.933
129.816
129.725
129.657
129.607
129.574
129.554
129.545
129.546
129.555
129.57
129.591
129.613
129.637
129.664
129.693
129.722
129.752
129.782
129.813
129.844
129.874
129.905
129.935
129.964
129.993
130.022
130.051
130.079
130.106
130.133
133.927
133.201
132.564
132.016
131.554
131.169
130.85
130.589
130.379
130.211
130.08
129.979
129.904
129.849
129.812
129.79
129.778
129.776
129.782
129.794
129.812
129.834
129.857
129.882
129.908
129.936
129.964
129.992
130.02
130.048
130.077
130.104
130.131
130.158
130.185
130.211
130.236
130.261
130.285
130.309
130.332
133.944
133.219
132.585
132.043
131.589
131.213
130.905
130.657
130.46
130.306
130.189
130.103
130.042
130.003
129.982
129.975
129.978
129.991
130.01
130.033
130.06
130.089
130.118
130.148
130.178
130.208
130.237
130.267
130.295
130.323
130.349
130.375
130.4
130.425
130.448
130.47
130.492
130.513
130.533
130.553
130.572
133.952
133.216
132.577
132.034
131.583
131.214
130.916
130.68
130.496
130.357
130.255
130.182
130.134
130.105
130.091
130.09
130.098
130.113
130.134
130.16
130.189
130.22
130.25
130.28
130.311
130.341
130.37
130.398
130.426
130.452
130.478
130.502
130.525
130.548
130.569
130.59
130.609
130.628
130.646
130.664
130.68
133.949
133.195
132.544
131.993
131.54
131.172
130.881
130.654
130.483
130.359
130.273
130.219
130.192
130.187
130.198
130.222
130.255
130.293
130.334
130.376
130.418
130.458
130.497
130.535
130.571
130.605
130.638
130.669
130.698
130.725
130.751
130.775
130.797
130.819
130.839
130.857
130.875
130.891
130.907
130.922
130.936
125.691
133.124
139.023
142.315
144.171
145.319
145.878
146.016
145.89
145.592
145.189
144.726
144.234
143.733
143.238
142.757
142.296
141.857
141.443
141.053
140.687
140.345
140.025
139.727
139.449
139.191
138.95
138.725
138.517
138.322
138.141
137.972
137.814
137.666
137.527
137.397
137.274
137.158
137.049
136.947
136.85
136.759
136.673
136.593
136.516
136.445
136.377
136.313
136.252
136.194
136.14
136.088
136.038
135.991
135.945
135.902
135.86
135.82
135.781
135.743
135.706
135.67
135.636
135.602
135.569
135.537
135.505
135.475
135.446
135.419
135.39
135.373
135.338
135.35
124.68
132.675
138.839
142.365
144.317
145.47
146.004
146.112
145.957
145.635
145.211
144.732
144.226
143.715
143.213
142.726
142.261
141.819
141.403
141.012
140.646
140.303
139.984
139.687
139.41
139.152
138.912
138.689
138.482
138.289
138.109
137.941
137.784
137.637
137.5
137.37
137.249
137.134
137.026
136.925
136.829
136.739
136.654
136.574
136.499
136.428
136.36
136.297
136.237
136.18
136.126
136.074
136.025
135.978
135.934
135.89
135.849
135.809
135.77
135.733
135.697
135.662
135.627
135.594
135.561
135.529
135.498
135.468
135.439
135.413
135.384
135.367
135.332
135.344
123.929
131.485
138.301
142.279
144.413
145.613
146.142
146.224
146.037
145.685
145.237
144.737
144.216
143.693
143.182
142.689
142.219
141.774
141.356
140.964
140.597
140.255
139.937
139.64
139.364
139.108
138.87
138.648
138.442
138.251
138.072
137.906
137.751
137.605
137.469
137.341
137.221
137.107
137.001
136.9
136.805
136.716
136.632
136.553
136.479
136.409
136.343
136.28
136.221
136.164
136.111
136.06
136.011
135.965
135.921
135.878
135.837
135.798
135.76
135.723
135.687
135.652
135.618
135.585
135.552
135.521
135.49
135.461
135.431
135.406
135.377
135.36
135.326
135.338
123.532
130.462
137.6
142.01
144.407
145.702
146.254
146.33
146.12
145.739
145.263
144.741
144.202
143.666
143.144
142.644
142.168
141.72
141.3
140.907
140.54
140.199
139.881
139.586
139.312
139.057
138.82
138.601
138.397
138.207
138.031
137.866
137.713
137.569
137.435
137.308
137.189
137.077
136.972
136.873
136.779
136.692
136.609
136.531
136.457
136.388
136.323
136.261
136.203
136.147
136.094
136.044
135.996
135.951
135.907
135.865
135.825
135.786
135.748
135.712
135.676
135.642
135.608
135.575
135.543
135.512
135.482
135.453
135.424
135.398
135.37
135.353
135.32
135.331
123.648
130.074
137.025
141.607
144.265
145.704
146.306
146.392
146.174
145.777
145.282
144.739
144.181
143.63
143.097
142.588
142.107
141.656
141.234
140.84
140.473
140.133
139.816
139.523
139.25
138.998
138.763
138.546
138.344
138.157
137.983
137.821
137.669
137.528
137.395
137.271
137.154
137.044
136.94
136.842
136.75
136.664
136.582
136.506
136.434
136.366
136.301
136.24
136.183
136.128
136.077
136.027
135.98
135.935
135.892
135.851
135.811
135.773
135.736
135.7
135.665
135.631
135.598
135.565
135.534
135.503
135.473
135.444
135.415
135.39
135.362
135.346
135.312
135.324
124.024
130.179
136.739
141.259
144.031
145.593
146.276
146.392
146.173
145.767
145.263
144.711
144.142
143.579
143.035
142.519
142.032
141.578
141.154
140.759
140.393
140.054
139.739
139.448
139.178
138.928
138.697
138.482
138.284
138.099
137.928
137.769
137.62
137.481
137.351
137.229
137.114
137.006
136.904
136.808
136.718
136.633
136.553
136.478
136.407
136.34
136.277
136.218
136.161
136.108
136.057
136.008
135.962
135.918
135.876
135.835
135.796
135.758
135.722
135.687
135.652
135.619
135.586
135.554
135.523
135.493
135.463
135.435
135.407
135.382
135.354
135.338
135.305
135.317
124.523
130.543
136.693
141.088
143.824
145.405
146.148
146.314
146.112
145.701
145.187
144.628
144.056
143.492
142.947
142.427
141.937
141.48
141.056
140.662
140.297
139.96
139.648
139.36
139.094
138.847
138.619
138.408
138.213
138.032
137.865
137.709
137.563
137.427
137.3
137.181
137.068
136.963
136.863
136.769
136.681
136.598
136.52
136.447
136.378
136.312
136.251
136.192
136.137
136.085
136.035
135.988
135.943
135.9
135.858
135.818
135.78
135.743
135.707
135.673
135.639
135.606
135.574
135.543
135.512
135.482
135.453
135.425
135.397
135.373
135.346
135.33
135.297
135.309
125.201
130.97
136.698
141.004
143.685
145.214
145.956
146.153
145.978
145.578
145.061
144.491
143.91
143.346
142.805
142.292
141.809
141.356
140.933
140.542
140.181
139.847
139.539
139.255
138.993
138.751
138.528
138.322
138.131
137.955
137.791
137.639
137.498
137.365
137.242
137.126
137.016
136.914
136.817
136.726
136.64
136.559
136.483
136.412
136.344
136.281
136.221
136.164
136.111
136.06
136.011
135.965
135.921
135.879
135.839
135.8
135.763
135.726
135.691
135.658
135.625
135.592
135.561
135.53
135.5
135.471
135.442
135.415
135.387
135.363
135.337
135.321
135.289
135.301
126.173
131.402
136.559
140.801
143.496
145.013
145.741
145.938
145.775
145.389
144.88
144.31
143.722
143.149
142.604
142.095
141.621
141.181
140.771
140.39
140.036
139.709
139.407
139.129
138.873
138.637
138.42
138.219
138.034
137.863
137.705
137.558
137.421
137.294
137.174
137.062
136.957
136.857
136.764
136.676
136.593
136.515
136.441
136.372
136.307
136.246
136.188
136.133
136.081
136.032
135.985
135.94
135.897
135.857
135.817
135.78
135.743
135.708
135.674
135.641
135.609
135.577
135.547
135.517
135.487
135.459
135.43
135.403
135.377
135.353
135.327
135.311
135.28
135.292
127.325
131.768
136.193
140.307
143.056
144.622
145.413
145.66
145.523
145.144
144.639
144.073
143.489
142.916
142.367
141.853
141.379
140.945
140.548
140.183
139.846
139.534
139.244
138.975
138.728
138.5
138.29
138.098
137.92
137.756
137.604
137.463
137.332
137.21
137.096
136.989
136.888
136.792
136.703
136.618
136.539
136.464
136.394
136.327
136.265
136.206
136.15
136.098
136.048
136
135.955
135.912
135.871
135.832
135.794
135.757
135.722
135.688
135.655
135.623
135.592
135.561
135.531
135.502
135.473
135.445
135.418
135.391
135.365
135.342
135.316
135.301
135.27
135.282
128.139
131.811
135.452
139.314
142.149
143.833
144.749
145.132
145.113
144.814
144.348
143.799
143.219
142.644
142.095
141.579
141.105
140.671
140.276
139.919
139.596
139.301
139.031
138.781
138.549
138.334
138.135
137.952
137.783
137.628
137.484
137.352
137.228
137.113
137.005
136.903
136.807
136.717
136.632
136.552
136.477
136.406
136.339
136.276
136.217
136.161
136.108
136.058
136.011
135.965
135.922
135.881
135.842
135.804
135.768
135.733
135.699
135.666
135.635
135.604
135.573
135.544
135.515
135.486
135.458
135.431
135.404
135.379
135.353
135.33
135.305
135.29
135.26
135.272
128.052
131.182
134.175
137.624
140.456
142.31
143.445
144.07
144.279
144.174
143.859
143.416
142.901
142.356
141.814
141.295
140.814
140.374
139.976
139.62
139.302
139.017
138.76
138.529
138.318
138.123
137.942
137.775
137.62
137.476
137.343
137.219
137.105
136.998
136.898
136.803
136.714
136.63
136.551
136.476
136.405
136.339
136.277
136.218
136.162
136.11
136.06
136.013
135.968
135.926
135.885
135.846
135.809
135.773
135.739
135.706
135.673
135.642
135.612
135.582
135.553
135.525
135.497
135.469
135.442
135.416
135.39
135.365
135.34
135.317
135.293
135.279
135.249
135.262
127.022
129.79
132.355
135.301
137.934
139.872
141.226
142.143
142.68
142.89
142.851
142.636
142.304
141.899
141.454
140.994
140.539
140.102
139.695
139.325
138.996
138.705
138.45
138.227
138.031
137.856
137.697
137.551
137.416
137.29
137.172
137.062
136.959
136.862
136.772
136.686
136.605
136.528
136.456
136.387
136.323
136.262
136.204
136.15
136.099
136.051
136.005
135.962
135.921
135.881
135.843
135.807
135.772
135.739
135.707
135.675
135.645
135.615
135.587
135.558
135.531
135.504
135.477
135.451
135.425
135.399
135.374
135.35
135.326
135.304
135.28
135.267
135.238
135.251
125.255
127.729
130.027
132.549
134.91
136.828
138.318
139.456
140.275
140.802
141.087
141.181
141.129
140.966
140.722
140.425
140.096
139.753
139.407
139.067
138.742
138.439
138.166
137.926
137.72
137.545
137.397
137.27
137.157
137.055
136.96
136.87
136.783
136.701
136.622
136.547
136.476
136.409
136.345
136.284
136.226
136.172
136.121
136.073
136.027
135.984
135.943
135.903
135.866
135.83
135.796
135.763
135.731
135.7
135.67
135.641
135.613
135.586
135.559
135.532
135.506
135.481
135.455
135.43
135.406
135.381
135.357
135.334
135.31
135.29
135.267
135.253
135.226
135.239
122.998
125.227
127.338
129.558
131.674
133.514
135.06
136.34
137.363
138.142
138.702
139.079
139.305
139.41
139.418
139.351
139.225
139.055
138.852
138.63
138.396
138.158
137.922
137.693
137.477
137.281
137.111
136.97
136.855
136.763
136.688
136.622
136.562
136.502
136.443
136.384
136.325
136.269
136.214
136.162
136.113
136.067
136.024
135.982
135.943
135.906
135.87
135.836
135.803
135.772
135.742
135.712
135.684
135.656
135.629
135.603
135.578
135.552
135.528
135.503
135.479
135.455
135.431
135.408
135.385
135.362
135.339
135.316
135.294
135.274
135.252
135.239
135.213
135.226
120.508
122.533
124.481
126.476
128.391
130.132
131.679
133.035
134.197
135.164
135.945
136.56
137.029
137.373
137.612
137.766
137.85
137.879
137.862
137.808
137.724
137.615
137.487
137.348
137.201
137.051
136.901
136.755
136.621
136.504
136.409
136.336
136.281
136.239
136.205
136.172
136.138
136.101
136.062
136.022
135.983
135.946
135.911
135.877
135.846
135.816
135.787
135.759
135.731
135.705
135.68
135.655
135.63
135.607
135.583
135.56
135.537
135.515
135.493
135.471
135.449
135.427
135.405
135.383
135.362
135.34
135.318
135.297
135.276
135.257
135.236
135.224
135.199
135.213
118.056
119.891
121.677
123.476
125.218
126.849
128.355
129.731
130.968
132.058
133.002
133.806
134.479
135.032
135.48
135.834
136.109
136.318
136.472
136.581
136.652
136.692
136.704
136.692
136.66
136.611
136.549
136.477
136.399
136.315
136.229
136.144
136.066
136
135.95
135.915
135.891
135.873
135.857
135.841
135.822
135.801
135.778
135.756
135.733
135.711
135.69
135.669
135.648
135.628
135.608
135.589
135.569
135.55
135.531
135.511
135.492
135.473
135.454
135.435
135.415
135.396
135.376
135.356
135.336
135.317
135.297
135.277
135.257
135.239
135.219
135.208
135.184
135.199
116.069
117.709
119.322
120.935
122.509
124.016
125.444
126.786
128.032
129.174
130.207
131.13
131.945
132.657
133.271
133.795
134.238
134.609
134.916
135.169
135.376
135.543
135.677
135.783
135.864
135.922
135.958
135.975
135.975
135.961
135.935
135.902
135.862
135.818
135.773
135.729
135.691
135.662
135.644
135.634
135.629
135.626
135.621
135.614
135.604
135.593
135.581
135.569
135.556
135.543
135.529
135.515
135.501
135.487
135.472
135.458
135.442
135.427
135.411
135.395
135.378
135.362
135.344
135.327
135.309
135.291
135.273
135.255
135.236
135.22
135.201
135.191
135.168
135.185
114.759
116.2
117.631
119.059
120.465
121.833
123.155
124.423
125.628
126.761
127.817
128.793
129.684
130.492
131.217
131.863
132.434
132.934
133.37
133.747
134.072
134.351
134.588
134.791
134.962
135.105
135.225
135.322
135.398
135.456
135.497
135.524
135.538
135.543
135.541
135.532
135.519
135.502
135.483
135.467
135.457
135.453
135.454
135.458
135.462
135.464
135.464
135.461
135.457
135.451
135.444
135.437
135.429
135.42
135.41
135.4
135.389
135.377
135.365
135.352
135.339
135.325
135.311
135.296
135.28
135.264
135.248
135.231
135.214
135.199
135.182
135.173
135.152
135.17
114.098
115.339
116.584
117.829
119.066
120.286
121.482
122.647
123.774
124.855
125.885
126.858
127.77
128.619
129.403
130.121
130.775
131.365
131.896
132.37
132.792
133.164
133.493
133.781
134.033
134.253
134.444
134.609
134.751
134.873
134.976
135.062
135.132
135.188
135.231
135.264
135.287
135.303
135.312
135.316
135.315
135.312
135.309
135.31
135.316
135.325
135.335
135.343
135.349
135.353
135.354
135.353
135.351
135.348
135.344
135.338
135.332
135.325
135.316
135.307
135.297
135.286
135.275
135.262
135.249
135.235
135.221
135.206
135.191
135.177
135.162
135.154
135.134
135.154
113.997
115.046
116.106
117.172
118.241
119.308
120.367
121.411
122.437
123.436
124.404
125.336
126.227
127.073
127.871
128.618
129.314
129.957
130.549
131.09
131.583
132.028
132.43
132.791
133.113
133.4
133.655
133.881
134.08
134.255
134.41
134.546
134.665
134.769
134.859
134.935
134.998
135.05
135.091
135.124
135.149
135.167
135.179
135.187
135.192
135.198
135.207
135.218
135.232
135.245
135.256
135.264
135.269
135.272
135.274
135.273
135.272
135.269
135.265
135.259
135.253
135.245
135.236
135.227
135.216
135.205
135.192
135.18
135.166
135.154
135.14
135.134
135.115
135.137
114.339
115.209
116.096
116.993
117.902
118.817
119.736
120.652
121.563
122.463
123.347
124.211
125.049
125.859
126.637
127.378
128.081
128.744
129.365
129.944
130.481
130.977
131.431
131.847
132.226
132.569
132.879
133.159
133.409
133.634
133.834
134.013
134.173
134.316
134.444
134.557
134.658
134.747
134.823
134.888
134.942
134.986
135.021
135.049
135.071
135.086
135.098
135.109
135.12
135.134
135.15
135.166
135.18
135.191
135.199
135.204
135.208
135.21
135.21
135.208
135.206
135.201
135.196
135.189
135.181
135.172
135.162
135.152
135.14
135.13
135.117
135.112
135.094
135.12
115.009
115.721
116.45
117.194
117.954
118.727
119.509
120.298
121.09
121.882
122.669
123.449
124.216
124.967
125.699
126.408
127.09
127.744
128.367
128.958
129.515
130.037
130.524
130.977
131.395
131.781
132.135
132.458
132.753
133.02
133.262
133.481
133.679
133.857
134.017
134.162
134.293
134.41
134.516
134.611
134.694
134.767
134.828
134.88
134.922
134.957
134.985
135.007
135.024
135.038
135.052
135.067
135.084
135.101
135.117
135.13
135.14
135.147
135.152
135.155
135.156