/*--------------------------------*- C++ -*----------------------------------*\
| =========                 |                                                 |
| \\      /  F ield         | OpenFOAM: The Open Source CFD Toolbox           |
|  \\    /   O peration     | Version:  5.x                                   |
|   \\  /    A nd           | Web:      www.OpenFOAM.org                      |
|    \\/     M anipulation  |                                                 |
\*---------------------------------------------------------------------------*/
FoamFile
{
    version     2.0;
    format      ascii;
    class       surfaceScalarField;
    location    "350";
    object      phi;
}
// * * * * * * * * * * * * * * * * * * * * * * * * * * * * * * * * * * * * * //

dimensions      [0 3 -1 0 0 0 0];

internalField   nonuniform List<scalar> 
83317
(
0.000490992
0.000120445
-0.000594625
0.000398602
9.24284e-05
0.000324262
7.4328e-05
0.000292296
3.19736e-05
0.000274525
1.77749e-05
0.00026053
1.40024e-05
0.000250417
1.01185e-05
0.000243125
7.29799e-06
0.000237339
5.79009e-06
0.000232224
5.1185e-06
0.00022774
4.81992e-06
0.000223026
4.41971e-06
0.000219528
3.86441e-06
0.000216321
2.82154e-06
0.000214702
2.02207e-06
0.000213673
6.35688e-07
0.000212434
1.63975e-06
0.000211553
4.84756e-07
0.000210089
1.88041e-06
0.000208943
7.44057e-07
0.000207688
1.24794e-06
0.000206269
1.41823e-06
0.000205279
9.90298e-07
0.000203965
1.31508e-06
0.000202997
9.68868e-07
0.000202028
9.71003e-07
0.000200806
1.22261e-06
0.000199803
1.00434e-06
0.000198962
8.41112e-07
0.000197893
1.06837e-06
0.000196502
1.39276e-06
0.000195333
1.54491e-06
0.000194745
2.4334e-07
0.000194076
1.05516e-06
0.000193432
2.71432e-07
0.000192993
7.96128e-07
0.000192404
2.08914e-07
0.000192566
1.65313e-07
0.000193036
-7.89393e-07
0.000193151
1.69716e-07
0.00019337
-4.97975e-07
0.000189167
4.42679e-06
0.000185588
3.34997e-06
0.000185272
5.02333e-07
0.000184938
1.51048e-07
0.000185003
1.12969e-07
0.000184862
-3.42916e-08
0.000184676
3.40693e-07
0.000184417
1.07032e-07
0.000184178
3.77708e-07
0.000184098
-4.32542e-08
0.000184073
1.25332e-07
0.00018426
-2.97092e-07
0.000184537
-1.94724e-07
0.000184354
9.90756e-08
0.000184252
1.73751e-07
0.000184506
-3.29329e-07
0.000184759
-2.08183e-07
0.000184962
-2.53403e-07
0.000185494
-5.1363e-07
0.000185769
-2.98416e-07
0.000185445
2.99299e-07
0.000185607
-1.44886e-07
0.000185756
-2.01055e-07
0.000186164
-3.53262e-07
0.00018657
-4.91603e-07
0.000186441
2.06496e-07
0.000186456
-1.60138e-07
0.000186247
3.52777e-07
0.000185832
1.62272e-07
0.000185516
5.47556e-07
0.000185184
-4.93209e-08
0.000184031
1.50428e-06
0.00018274
7.55346e-07
0.000181872
1.42836e-06
0.000180388
6.19498e-07
0.000178174
3.08491e-06
0.000175724
1.10065e-06
0.000172042
5.05738e-06
0.000171952
-2.71424e-06
8.87458e-05
8.60221e-05
-0.000421729
0.000510523
0.000742452
0.000255234
-0.000877182
0.00057378
0.000261114
0.000455743
0.000192354
0.000408297
7.94238e-05
0.000387517
3.85575e-05
0.000373475
2.80483e-05
0.000366395
1.72018e-05
0.000363311
1.03858e-05
0.0003623
6.80489e-06
0.000362514
4.90718e-06
0.000363095
4.42177e-06
0.000363634
3.72135e-06
0.000364562
3.13473e-06
0.000365781
1.38911e-06
0.00036872
-6.97575e-07
0.000371419
-2.27912e-06
0.000374907
-1.63106e-06
0.000377826
-2.64906e-06
0.000380817
-8.88102e-07
0.00038348
-2.13342e-06
0.000385299
-5.76503e-07
0.00038726
-5.42605e-07
0.00038825
-8.2252e-10
0.00038918
3.8555e-07
0.000389518
6.30978e-07
0.000389344
1.14577e-06
0.000389466
1.10143e-06
0.000388839
1.63193e-06
0.000387936
1.74337e-06
0.000386957
2.04596e-06
0.000386156
2.19436e-06
0.000385084
2.81664e-06
0.000383466
1.67729e-06
0.000381924
2.805e-06
0.000380299
1.69801e-06
0.000378593
2.69316e-06
0.000376972
1.62383e-06
0.000375094
2.22168e-06
0.000372926
1.20574e-06
0.000371042
2.21128e-06
0.000369192
1.20087e-06
0.000370941
2.80105e-06
0.000373614
5.5398e-07
0.000374022
1.94797e-07
0.000373714
3.61779e-07
0.000373006
9.18771e-07
0.000372498
3.77516e-07
0.000372052
8.73237e-07
0.000371667
4.09322e-07
0.000371323
7.98928e-07
0.000370949
2.62733e-07
0.000370606
5.25257e-07
0.00037021
3.97467e-08
0.000369823
2.37821e-07
0.000369812
6.23724e-08
0.000369831
1.94646e-07
0.000369444
1.62014e-08
0.000369252
9.70812e-09
0.000369108
-1.36607e-07
0.000368724
-1.20191e-07
0.00036863
-2.17514e-07
0.000368795
1.21833e-07
0.000368546
1.16297e-07
0.00036824
7.583e-08
0.000367719
2.00877e-07
0.000367239
-6.06515e-08
0.000366939
5.48795e-07
0.000366121
5.78504e-07
0.000365297
1.25924e-06
0.000364596
7.15005e-07
0.000363536
1.73387e-06
0.000362091
1.17535e-06
0.000360808
2.97856e-06
0.00035931
1.95808e-06
0.000357015
4.03678e-06
0.000354427
2.72898e-06
0.000351348
6.65422e-06
0.000347767
3.93398e-06
0.000341813
1.17752e-05
0.000341636
-4.10201e-06
0.000187106
0.000242111
-0.000861396
0.000626824
0.000983904
0.000421542
-0.00115043
0.000753049
0.000491992
0.000591516
0.000353884
0.000529081
0.000141863
0.000503947
6.36918e-05
0.000488555
4.3444e-05
0.00048305
2.2709e-05
0.000482812
1.06257e-05
0.00048529
4.32789e-06
0.000489496
7.028e-07
0.0004939
1.30303e-07
0.000498189
-6.66529e-07
0.000502216
-7.70227e-07
0.000505958
-2.48212e-06
0.000511436
-6.04556e-06
0.00051592
-6.88884e-06
0.000521445
-7.02976e-06
0.00052597
-7.29554e-06
0.000530529
-5.31981e-06
0.000534578
-6.29968e-06
0.000537588
-3.58789e-06
0.000540596
-3.55078e-06
0.000542287
-1.6915e-06
0.000543846
-1.17256e-06
0.000544632
-1.54681e-07
0.000544973
8.0598e-07
0.00054519
8.84144e-07
0.000544656
2.16677e-06
0.000544031
2.36828e-06
0.000542979
3.09855e-06
0.000541909
3.26527e-06
0.000540512
4.32006e-06
0.000538816
3.27716e-06
0.000536986
4.74618e-06
0.000534975
3.6029e-06
0.000532836
4.93612e-06
0.000530546
3.80323e-06
0.000528026
4.83678e-06
0.00052524
3.89602e-06
0.000522562
4.97466e-06
0.000519589
4.08791e-06
0.00052308
-6.20975e-07
0.000527831
-4.26407e-06
0.00052822
-1.39223e-07
0.000527861
6.67136e-07
0.000527267
1.56456e-06
0.000526684
9.09215e-07
0.000526146
1.45561e-06
0.000525637
8.73251e-07
0.000525161
1.31531e-06
0.000524667
7.21141e-07
0.000524202
1.01851e-06
0.000523711
4.98071e-07
0.000523225
7.47356e-07
0.000522912
3.51306e-07
0.000522613
5.13738e-07
0.000522252
3.55935e-07
0.000521934
3.40666e-07
0.000521663
1.19331e-07
0.000521348
1.9963e-07
0.00052113
-6.0183e-09
0.000521007
2.36886e-07
0.000520573
5.53839e-07
0.000520084
5.49304e-07
0.000519378
9.2199e-07
0.000518643
6.49196e-07
0.000517878
1.33707e-06
0.000516984
1.42803e-06
0.000515964
2.32182e-06
0.000514672
1.93558e-06
0.000513303
3.17207e-06
0.000511515
2.85033e-06
0.000509518
5.08625e-06
0.000507309
4.0057e-06
0.000504427
7.08615e-06
0.000500946
5.94598e-06
0.00049665
1.1209e-05
0.00049196
8.21557e-06
0.000484272
1.98792e-05
0.000484122
-4.81264e-06
0.000287949
0.000439136
-0.00135396
0.000780584
0.00127686
0.000619135
-0.00147452
0.00097822
0.000790641
0.000762757
0.000569337
0.000680661
0.000223962
0.000649196
9.51592e-05
0.000631493
6.11495e-05
0.000626728
2.74768e-05
0.000628632
8.72437e-06
0.000633967
-1.00434e-06
0.000641443
-6.77089e-06
0.000649245
-7.58104e-06
0.000656672
-8.17075e-06
0.000663522
-7.52753e-06
0.000669098
-8.16077e-06
0.000676063
-1.2909e-05
0.000681669
-1.25955e-05
0.000688162
-1.34244e-05
0.000693643
-1.28727e-05
0.0006989
-1.04783e-05
0.000703669
-1.1162e-05
0.000707289
-7.21129e-06
0.000710778
-7.04003e-06
0.000712928
-3.84152e-06
0.000714784
-3.02871e-06
0.000715871
-1.24161e-06
0.000716455
2.21969e-07
0.000716752
5.8818e-07
0.0007163
2.61917e-06
0.000715788
2.88005e-06
0.000714718
4.16756e-06
0.000713482
4.50116e-06
0.000711915
5.97357e-06
0.000710196
4.91672e-06
0.000708246
6.78662e-06
0.000706064
5.69878e-06
0.000703749
7.33391e-06
0.000701148
6.31253e-06
0.000698446
7.61862e-06
0.000695496
6.76799e-06
0.000692497
8.04583e-06
0.000689071
7.44502e-06
0.000692408
-3.90114e-06
0.000697401
-9.30927e-06
0.000697901
-5.95428e-07
0.000697538
9.87761e-07
0.000697015
2.1301e-06
0.000696412
1.4705e-06
0.00069584
2.06593e-06
0.000695272
1.40509e-06
0.000694737
1.88454e-06
0.000694206
1.22258e-06
0.000693711
1.53894e-06
0.000693224
9.58906e-07
0.000692755
1.23657e-06
0.000692335
7.50178e-07
0.000691938
9.28675e-07
0.000691618
6.57509e-07
0.000691301
6.6892e-07
0.000691022
3.85847e-07
0.000690799
4.27386e-07
0.000690584
2.02316e-07
0.000690305
5.11232e-07
0.000689802
1.06217e-06
0.000689229
1.10939e-06
0.000688457
1.70997e-06
0.00068765
1.43342e-06
0.000686635
2.37179e-06
0.000685596
2.43099e-06
0.000684335
3.62076e-06
0.000682627
3.57283e-06
0.000680929
4.92673e-06
0.000678736
4.93927e-06
0.000676041
7.86748e-06
0.000673102
6.80967e-06
0.000669528
1.08073e-05
0.000665056
1.0198e-05
0.00065944
1.7054e-05
0.00065338
1.39315e-05
0.000643523
3.00863e-05
0.000643433
-5.43818e-06
0.000418367
0.000664919
-0.00191524
0.000979697
0.0016274
0.000841368
-0.00184989
0.00125303
0.00116504
0.000974418
0.000847948
0.000866203
0.000332181
0.000825282
0.000136078
0.000803532
8.2903e-05
0.000797869
3.31414e-05
0.000800804
5.79076e-06
0.000808302
-8.50244e-06
0.000818577
-1.70443e-05
0.000829687
-1.86389e-05
0.000840329
-1.88593e-05
0.000850448
-1.7589e-05
0.000858509
-1.62826e-05
0.000867474
-2.18113e-05
0.000874787
-1.99699e-05
0.000882743
-2.1318e-05
0.000889675
-1.98643e-05
0.000896136
-1.68749e-05
0.000902095
-1.71792e-05
0.000906687
-1.18043e-05
0.000911044
-1.13965e-05
0.000913958
-6.755e-06
0.000916403
-5.47336e-06
0.000918019
-2.85743e-06
0.000918963
-7.20781e-07
0.000919585
-3.36023e-08
0.000919348
2.85619e-06
0.000918982
3.24656e-06
0.000917992
5.15771e-06
0.000916765
5.72885e-06
0.000915175
7.61985e-06
0.000913391
6.65156e-06
0.000911347
8.88772e-06
0.000909025
7.96506e-06
0.000906554
9.85916e-06
0.000903749
9.05915e-06
0.000900857
1.05602e-05
0.000897678
9.89683e-06
0.000894408
1.13595e-05
0.000890653
1.11537e-05
0.000893731
-6.94108e-06
0.000898893
-1.45074e-05
0.000899656
-1.32955e-06
0.000899345
1.2698e-06
0.000898837
2.66489e-06
0.000898232
2.04911e-06
0.000897651
2.66973e-06
0.000897067
1.96535e-06
0.000896514
2.45863e-06
0.000895978
1.74e-06
0.000895483
2.04769e-06
0.000895014
1.4104e-06
0.000894568
1.69459e-06
0.000894155
1.15104e-06
0.000893774
1.32016e-06
0.000893467
9.51902e-07
0.000893185
9.57372e-07
0.000892937
6.26121e-07
0.000892763
6.03724e-07
0.000892592
3.69576e-07
0.000892301
7.97526e-07
0.000891757
1.60798e-06
0.000891115
1.74295e-06
0.000890252
2.57937e-06
0.000889336
2.33707e-06
0.000888136
3.58359e-06
0.000886863
3.68003e-06
0.000885306
5.19968e-06
0.000883215
5.62765e-06
0.000881104
7.07591e-06
0.000878378
7.60624e-06
0.000874985
1.13196e-05
0.000871262
1.0447e-05
0.000866762
1.5397e-05
0.000861123
1.56928e-05
0.000854011
2.4304e-05
0.000846298
2.14237e-05
0.000833759
4.28492e-05
0.000833741
-5.8826e-06
0.000586328
0.000912794
-0.00255914
0.00123029
0.00204477
0.00108506
-0.00228856
0.00158264
0.00162717
0.00122881
0.00120177
0.00108862
0.000472373
0.00103556
0.000189143
0.00100857
0.000109891
0.0010015
4.02175e-05
0.00100549
1.79884e-06
0.00101552
-1.85215e-05
0.00102916
-3.06874e-05
0.00104425
-3.368e-05
0.00105884
-3.34932e-05
0.00107306
-3.17575e-05
0.00108456
-2.784e-05
0.00109652
-3.37092e-05
0.00110631
-2.98231e-05
0.00111642
-3.13696e-05
0.00112539
-2.8886e-05
0.00113358
-2.50061e-05
0.0011412
-2.486e-05
0.00114717
-1.77711e-05
0.00115277
-1.69964e-05
0.00115675
-1.07441e-05
0.00116006
-8.78296e-06
0.00116244
-5.2368e-06
0.00116393
-2.21144e-06
0.00116507
-1.16337e-06
0.00116518
2.7436e-06
0.00116507
3.35329e-06
0.00116425
5.97361e-06
0.00116314
6.84818e-06
0.0011616
9.20486e-06
0.00115978
8.42243e-06
0.00115768
1.10442e-05
0.00115525
1.03468e-05
0.00115264
1.25146e-05
0.00114967
1.19765e-05
0.00114658
1.36962e-05
0.00114316
1.32743e-05
0.00113963
1.49274e-05
0.00113556
1.51823e-05
0.00113838
-9.72434e-06
0.00114375
-1.99127e-05
0.00114487
-2.41627e-06
0.00114467
1.44433e-06
0.0011442
3.16259e-06
0.00114362
2.60399e-06
0.00114306
3.25411e-06
0.00114248
2.51414e-06
0.00114195
3.01523e-06
0.00114144
2.23476e-06
0.00114097
2.52865e-06
0.00114054
1.82418e-06
0.00114014
2.10583e-06
0.00113978
1.49986e-06
0.00113946
1.65426e-06
0.00113919
1.2086e-06
0.00113897
1.18158e-06
0.00113879
8.02594e-07
0.00113869
7.0736e-07
0.00113859
4.59019e-07
0.00113835
1.03798e-06
0.00113778
2.182e-06
0.00113708
2.43928e-06
0.00113611
3.55309e-06
0.00113505
3.38079e-06
0.00113366
4.9918e-06
0.00113211
5.20364e-06
0.00113022
7.11683e-06
0.00112769
8.10674e-06
0.00112508
9.72169e-06
0.00112172
1.08961e-05
0.00111753
1.55659e-05
0.00111287
1.50209e-05
0.00110723
2.11321e-05
0.00110019
2.25929e-05
0.00109129
3.33584e-05
0.00108157
3.09202e-05
0.00106577
5.8871e-05
0.00106582
-6.3821e-06
0.000795854
0.00118321
-0.00330027
0.00153703
0.00254377
0.00134629
-0.00280526
0.0019802
0.00219077
0.00153541
0.00164655
0.00135687
0.000650916
0.00128901
0.000257
0.00125572
0.000143185
0.00124709
4.88542e-05
0.00125247
-3.58336e-06
0.00126563
-3.16832e-05
0.00128346
-4.85124e-05
0.00130342
-5.36151e-05
0.00132289
-5.29821e-05
0.00134216
-5.10019e-05
0.00135808
-4.37902e-05
0.00137406
-4.96519e-05
0.0013872
-4.2999e-05
0.00140023
-4.43638e-05
0.00141189
-4.05785e-05
0.00142239
-3.54767e-05
0.00143222
-3.47193e-05
0.00144003
-2.55765e-05
0.0014473
-2.42669e-05
0.00145272
-1.61629e-05
0.00145721
-1.32775e-05
0.00146063
-8.65679e-06
0.0014629
-4.48397e-06
0.00146475
-3.00596e-06
0.00146538
2.11432e-06
0.00146568
3.05519e-06
0.00146515
6.49875e-06
0.00146424
7.76448e-06
0.00146284
1.06364e-05
0.00146105
1.01836e-05
0.00145894
1.31867e-05
0.00145643
1.28256e-05
0.00145372
1.52559e-05
0.00145059
1.50712e-05
0.00144732
1.69948e-05
0.00144365
1.69088e-05
0.00143989
1.8719e-05
0.0014355
1.95431e-05
0.00143808
-1.22782e-05
0.00144372
-2.55791e-05
0.00144527
-3.94947e-06
0.00144525
1.45002e-06
0.00144486
3.56748e-06
0.00144434
3.10417e-06
0.00144384
3.77156e-06
0.00144332
3.0172e-06
0.00144284
3.50864e-06
0.00144238
2.67971e-06
0.00144199
2.93463e-06
0.00144163
2.17015e-06
0.00144131
2.43262e-06
0.00144103
1.77181e-06
0.0014408
1.88949e-06
0.00144061
1.39092e-06
0.0014405
1.29938e-06
0.00144041
8.81955e-07
0.00144043
6.93208e-07
0.00144045
4.32657e-07
0.00144029
1.19355e-06
0.00143971
2.76237e-06
0.00143896
3.1911e-06
0.00143788
4.63168e-06
0.00143666
4.59679e-06
0.00143503
6.62178e-06
0.00143318
7.04656e-06
0.0014309
9.40125e-06
0.00142786
1.11316e-05
0.00142464
1.29609e-05
0.00142053
1.49749e-05
0.00141538
2.07571e-05
0.00140958
2.07611e-05
0.00140256
2.82045e-05
0.00139383
3.12372e-05
0.00138275
4.45269e-05
0.00137059
4.29369e-05
0.00135083
7.87664e-05
0.00135093
-6.75834e-06
0.00105309
0.00148134
-0.0041543
0.00190716
0.00314211
0.00162048
-0.0034164
0.00246289
0.00287
0.00190821
0.00220122
0.00168335
0.000875776
0.0015973
0.000343051
0.00155631
0.000184182
0.00154584
5.93212e-05
0.00155295
-1.06874e-05
0.00156995
-4.86782e-05
0.00159289
-7.14504e-05
0.00161879
-7.94873e-05
0.00164423
-7.84423e-05
0.00166971
-7.64504e-05
0.00169116
-6.52745e-05
0.00171232
-7.07804e-05
0.00172982
-6.05362e-05
0.00174668
-6.1188e-05
0.00176183
-5.57589e-05
0.00177535
-4.89644e-05
0.00178802
-4.74284e-05
0.00179823
-3.57819e-05
0.00180768
-3.37166e-05
0.00181496
-2.34516e-05
0.00182103
-1.93455e-05
0.00182583
-1.34527e-05
0.00182917
-7.82839e-06
0.00183198
-5.81087e-06
0.00183333
7.62875e-07
0.00183423
2.16064e-06
0.00183414
6.58413e-06
0.00183355
8.35351e-06
0.00183238
1.18384e-05
0.00183071
1.18244e-05
0.00182866
1.52705e-05
0.00182613
1.53275e-05
0.00182336
1.80565e-05
0.0018201
1.82875e-05
0.00181668
2.04529e-05
0.00181279
2.07615e-05
0.00180881
2.27381e-05
0.0018041
2.42178e-05
0.00180644
-1.45915e-05
0.00181241
-3.15704e-05
0.00181449
-6.01331e-06
0.00181473
1.19155e-06
0.00181449
3.82622e-06
0.00181409
3.49104e-06
0.00181369
4.18617e-06
0.00181327
3.42189e-06
0.00181289
3.9037e-06
0.00181254
3.02089e-06
0.00181225
3.23202e-06
0.00181201
2.40142e-06
0.00181182
2.63611e-06
0.00181166
1.91771e-06
0.00181157
1.98938e-06
0.00181151
1.44297e-06
0.00181154
1.26894e-06
0.00181161
8.11444e-07
0.00181179
5.10838e-07
0.00181198
2.38943e-07
0.00181195
1.22756e-06
0.00181138
3.3339e-06
0.00181058
3.98831e-06
0.00180938
5.83418e-06
0.00180798
5.9908e-06
0.00180609
8.51508e-06
0.00180387
9.252e-06
0.00180116
1.21293e-05
0.0017975
1.47627e-05
0.00179355
1.69245e-05
0.00178854
1.99381e-05
0.00178222
2.71052e-05
0.00177505
2.78779e-05
0.00176636
3.69643e-05
0.00175557
4.19331e-05
0.00174183
5.83705e-05
0.00172671
5.7909e-05
0.00170213
0.000103492
0.00170222
-7.14063e-06
0.0013692
0.00181466
-0.00513793
0.00235286
0.00386082
0.0019015
-0.00414206
0.0030509
0.00367995
0.00236401
0.00288812
0.00208287
0.00115691
0.0019742
0.000451724
0.00192366
0.000234727
0.00191093
7.20436e-05
0.00192009
-1.98381e-05
0.0019417
-7.02989e-05
0.00197085
-0.000100595
0.00200397
-0.000112588
0.00203669
-0.000111177
0.00206975
-0.000109496
0.00209805
-9.35973e-05
0.00212578
-9.84811e-05
0.00214886
-8.3637e-05
0.00217065
-8.29589e-05
0.00219025
-7.53782e-05
0.00220765
-6.63398e-05
0.00222395
-6.37532e-05
0.00223724
-4.90667e-05
0.00224949
-4.59674e-05
0.00225919
-3.3152e-05
0.00226731
-2.74603e-05
0.0022739
-2.00474e-05
0.00227867
-1.25991e-05
0.00228276
-9.89824e-06
0.0022851
-1.57497e-06
0.00228682
4.39598e-07
0.00228737
6.03836e-06
0.00228726
8.45704e-06
0.00228646
1.26595e-05
0.00228502
1.32506e-05
0.00228313
1.71795e-05
0.00228064
1.7795e-05
0.00227788
2.08361e-05
0.00227455
2.16018e-05
0.00227101
2.40053e-05
0.00226695
2.48092e-05
0.00226277
2.69333e-05
0.00225777
2.91939e-05
0.00225987
-1.66775e-05
0.00226621
-3.79223e-05
0.00226893
-8.72508e-06
0.00226955
5.6844e-07
0.00226953
3.84747e-06
0.00226931
3.70513e-06
0.00226908
4.42288e-06
0.00226882
3.6724e-06
0.0022686
4.12998e-06
0.00226841
3.20518e-06
0.00226829
3.35324e-06
0.00226823
2.46103e-06
0.00226821
2.65309e-06
0.00226824
1.88633e-06
0.00226834
1.88892e-06
0.00226847
1.30882e-06
0.00226872
1.02104e-06
0.002269
5.35926e-07
0.00226942
9.21263e-08
0.00226984
-1.83349e-07
0.00226997
1.08625e-06
0.00226945
3.86129e-06
0.00226861
4.8173e-06
0.00226729
7.155e-06
0.00226569
7.59363e-06
0.0022635
1.07059e-05
0.00226086
1.18834e-05
0.00225763
1.53633e-05
0.00225323
1.91567e-05
0.00224841
2.17612e-05
0.00224231
2.6018e-05
0.00223459
3.48482e-05
0.00222574
3.66931e-05
0.00221502
4.772e-05
0.00220173
5.51644e-05
0.00218476
7.53895e-05
0.00216602
7.65644e-05
0.00213558
0.000134011
0.00213554
-7.26361e-06
0.00176018
0.00219019
-0.00626847
0.00289076
0.0047251
0.00218253
-0.00500623
0.00376817
0.00463689
0.00292297
0.00373332
0.00257337
0.00150652
0.00243635
0.000588744
0.00237385
0.000297223
0.00235823
8.76694e-05
0.00236974
-3.13426e-05
0.00239687
-9.7432e-05
0.00243349
-0.000137212
0.00247534
-0.000154412
0.00251691
-0.000152766
0.00255923
-0.000151792
0.00259597
-0.000130365
0.00263188
-0.000134367
0.00266202
-0.000113801
0.0026901
-0.000111014
0.00271536
-0.000100658
0.00273768
-8.86384e-05
0.00275859
-8.46906e-05
0.0027758
-6.62784e-05
0.00279163
-6.17945e-05
0.00280441
-4.59358e-05
0.00281517
-3.82196e-05
0.00282409
-2.89665e-05
0.00283074
-1.92449e-05
0.00283651
-1.56691e-05
0.00284017
-5.23109e-06
0.00284301
-2.40827e-06
0.00284444
4.61276e-06
0.00284504
7.85927e-06
0.00284478
1.29418e-05
0.00284372
1.42893e-05
0.00284212
1.88067e-05
0.00283978
2.01036e-05
0.00283713
2.35138e-05
0.00283379
2.49152e-05
0.00283021
2.76028e-05
0.00282602
2.89776e-05
0.00282171
3.12693e-05
0.00281647
3.44146e-05
0.00281833
-1.85182e-05
0.00282506
-4.46732e-05
0.00282855
-1.21997e-05
0.00282967
-5.59486e-07
0.00282999
3.53691e-06
0.00283003
3.64917e-06
0.00283006
4.41198e-06
0.00283003
3.68473e-06
0.00283006
4.11853e-06
0.0028301
3.15233e-06
0.00283023
3.22836e-06
0.00283042
2.27206e-06
0.00283066
2.41078e-06
0.00283095
1.59715e-06
0.00283132
1.51595e-06
0.00283172
9.073e-07
0.00283226
4.8316e-07
0.00283282
-2.77943e-08
0.00283356
-6.44243e-07
0.00283429
-9.15812e-07
0.00283467
7.03109e-07
0.00283422
4.31401e-06
0.00283338
5.65538e-06
0.00283193
8.60921e-06
0.00283011
9.41235e-06
0.00282757
1.32437e-05
0.00282444
1.50078e-05
0.0028206
1.92122e-05
0.00281532
2.44147e-05
0.00280944
2.76499e-05
0.00280203
3.3384e-05
0.00279262
4.42849e-05
0.00278173
4.75404e-05
0.00276854
6.09631e-05
0.00275222
7.14241e-05
0.00273132
9.63633e-05
0.00270818
9.9607e-05
0.00267061
0.000171674
0.00267021
-7.05899e-06
0.00224642
0.00261419
-0.00756335
0.00354132
0.00576501
0.00245411
-0.0060368
0.00464345
0.00575848
0.00360968
0.0047671
0.00317686
0.00193933
0.00300417
0.00076143
0.0029266
0.000374795
0.00290718
0.000107093
0.00292132
-4.54816e-05
0.00295497
-0.000131089
0.00300055
-0.000182783
0.00305291
-0.000206765
0.0031052
-0.000205066
0.00315876
-0.000205341
0.00320584
-0.000177454
0.0032519
-0.000180417
0.00329089
-0.000152803
0.00332691
-0.000147019
0.0033593
-0.000133061
0.00338786
-0.000117181
0.00341458
-0.000111425
0.00343676
-8.846e-05
0.00345712
-8.21527e-05
0.00347383
-6.2641e-05
0.00348797
-5.23612e-05
0.00349987
-4.08715e-05
0.00350896
-2.83274e-05
0.00351692
-2.36321e-05
0.00352232
-1.06337e-05
0.00352668
-6.76035e-06
0.0035293
1.99212e-06
0.00353087
6.28985e-06
0.00353139
1.24324e-05
0.00353091
1.47593e-05
0.00352977
1.99603e-05
0.00352774
2.21228e-05
0.00352531
2.59482e-05
0.00352208
2.814e-05
0.00351857
3.11228e-05
0.00351434
3.31922e-05
0.00350998
3.56404e-05
0.00350457
3.9813e-05
0.00350619
-2.01314e-05
0.00351335
-5.18397e-05
0.00351773
-1.65766e-05
0.00351952
-2.35088e-06
0.00352031
2.74863e-06
0.00352074
3.21433e-06
0.00352112
4.03381e-06
0.00352144
3.35854e-06
0.00352181
3.75932e-06
0.00352219
2.76629e-06
0.00352267
2.74808e-06
0.0035232
1.73536e-06
0.00352381
1.80325e-06
0.00352445
9.57545e-07
0.0035252
7.65454e-07
0.00352596
1.43798e-07
0.0035269
-4.53692e-07
0.00352784
-9.73696e-07
0.003529
-1.80527e-06
0.00353015
-2.06003e-06
0.00353086
-1.05324e-08
0.00353054
4.62979e-06
0.00352972
6.47093e-06
0.00352815
1.01823e-05
0.00352608
1.14782e-05
0.00352316
1.61721e-05
0.00351944
1.87133e-05
0.00351489
2.37693e-05
0.00350856
3.07454e-05
0.00350141
3.48079e-05
0.00349243
4.23559e-05
0.00348096
5.57668e-05
0.00346761
6.08704e-05
0.00345142
7.71744e-05
0.00343141
9.13967e-05
0.00340573
0.000122064
0.00337723
0.000128066
0.00333103
0.000217921
0.00332985
-5.97974e-06
0.00285315
0.00309098
-0.00903913
0.00432895
0.00701661
0.00270404
-0.00726663
0.00571173
0.00706338
0.00445426
0.00602457
0.00392064
0.00247295
0.00370295
0.000979119
0.00360624
0.000471517
0.00358175
0.000131587
0.00359873
-6.2465e-05
0.00364002
-0.000172374
0.00369624
-0.000239004
0.00376123
-0.000271734
0.00382644
-0.000270286
0.00389362
-0.00027251
0.00395329
-0.00023714
0.00401185
-0.000238959
0.00406185
-0.000202818
0.00410782
-0.000192978
0.00414917
-0.000174425
0.00418557
-0.000153561
0.00421959
-0.000145466
0.00424804
-0.000116911
0.00427412
-0.000108233
0.00429579
-8.43117e-05
0.00431424
-7.08127e-05
0.00432996
-5.6586e-05
0.00434218
-4.05482e-05
0.00435298
-3.44287e-05
0.00436066
-1.83151e-05
0.004367
-1.31019e-05
0.00437122
-2.23125e-06
0.00437412
3.3901e-06
0.00437573
1.08429e-05
0.00437609
1.43821e-05
0.00437564
2.04247e-05
0.00437411
2.36442e-05
0.0043721
2.79692e-05
0.00436912
3.11011e-05
0.00436582
3.44401e-05
0.00436168
3.73137e-05
0.00435739
3.99428e-05
0.00435193
4.52599e-05
0.00435334
-2.15292e-05
0.00436094
-5.94409e-05
0.00436636
-2.19895e-05
0.00436901
-5.01063e-06
0.00437045
1.32016e-06
0.00437141
2.24301e-06
0.00437229
3.16006e-06
0.00437309
2.55505e-06
0.00437393
2.93048e-06
0.00437478
1.91224e-06
0.00437574
1.79226e-06
0.00437675
7.22143e-07
0.00437785
7.06339e-07
0.00437896
-1.64027e-07
0.00438022
-4.88657e-07
0.00438147
-1.11006e-06
0.00438294
-1.9165e-06
0.00438439
-2.43319e-06
0.00438611
-3.52222e-06
0.0043878
-3.74844e-06
0.00438895
-1.16839e-06
0.00438884
4.74545e-06
0.00438809
7.22017e-06
0.0043864
1.1876e-05
0.00438407
1.37988e-05
0.0043807
1.95498e-05
0.00437632
2.30907e-05
0.00437091
2.9182e-05
0.00436333
3.83068e-05
0.00435466
4.34832e-05
0.00434378
5.32023e-05
0.00432984
6.97176e-05
0.0043135
7.71849e-05
0.00429367
9.70477e-05
0.00426919
0.000115832
0.00423772
0.000153583
0.0042027
0.000163024
0.00414605
0.000274638
0.00414339
-3.45432e-06
0.00361135
0.00362316
-0.0107103
0.00528249
0.00852346
0.00291507
-0.00873467
0.00701586
0.008571
0.00549382
0.00754663
0.00483864
0.00312813
0.00456411
0.00125364
0.00444292
0.000592712
0.0044116
0.0001629
0.00443153
-8.23892e-05
0.00448166
-0.000222505
0.00455047
-0.000307821
0.00463053
-0.000351786
0.00471124
-0.000351004
0.00479486
-0.000356125
0.0048698
-0.000312082
0.00494365
-0.000312805
0.00500724
-0.000266415
0.00506562
-0.000251344
0.00511815
-0.00022696
0.00516436
-0.000199766
0.00520752
-0.00018863
0.00524383
-0.000153223
0.0052771
-0.000141503
0.00530503
-0.000112236
0.00532893
-9.47157e-05
0.00534949
-7.71403e-05
0.00536573
-5.67884e-05
0.00538016
-4.88593e-05
0.0053908
-2.89587e-05
0.00539973
-2.20328e-05
0.00540608
-8.57577e-06
0.00541076
-1.29019e-06
0.00541384
7.76427e-06
0.00541539
1.28327e-05
0.00541594
1.98856e-05
0.00541515
2.44195e-05
0.0054138
2.93304e-05
0.00541128
3.36113e-05
0.00540839
3.73406e-05
0.00540452
4.11746e-05
0.00540048
4.39812e-05
0.00539515
5.05905e-05
0.00539641
-2.27829e-05
0.00540444
-6.7481e-05
0.00541104
-2.85896e-05
0.0054148
-8.76943e-06
0.0054171
-9.7777e-07
0.00541879
5.48786e-07
0.00542035
1.59645e-06
0.0054218
1.10694e-06
0.00542328
1.44905e-06
0.00542476
4.31358e-07
0.00542637
1.81491e-07
0.00542802
-9.31588e-07
0.00542978
-1.05231e-06
0.00543154
-1.92466e-06
0.00543347
-2.4155e-06
0.00543537
-3.01312e-06
0.00543753
-4.07624e-06
0.00543966
-4.56511e-06
0.0054421
-5.96803e-06
0.0054445
-6.14502e-06
0.00544625
-2.91983e-06
0.00544643
4.55816e-06
0.00544582
7.83529e-06
0.00544403
1.36606e-05
0.00544143
1.63967e-05
0.00543755
2.34309e-05
0.00543239
2.82548e-05
0.00542598
3.55831e-05
0.00541692
4.73744e-05
0.00540642
5.39858e-05
0.00539326
6.63592e-05
0.00537634
8.66478e-05
0.0053564
9.71195e-05
0.00533215
0.000121297
0.00530226
0.000145703
0.00526378
0.000192071
0.00522084
0.000205944
0.00515161
0.000343895
0.0051463
1.79779e-06
0.00455898
0.00421054
-0.0125871
0.00643582
0.0103385
0.00306353
-0.0104871
0.00860849
0.010301
0.00677415
0.00938097
0.00597311
0.00392918
0.00562681
0.00159994
0.00547418
0.000745345
0.00543361
0.000203474
0.00545635
-0.000105131
0.0055166
-0.000282752
0.0056002
-0.000391415
0.00569816
-0.000449734
0.00579738
-0.00045023
0.00590076
-0.000459497
0.00599411
-0.00040544
0.00608657
-0.000405262
0.00616683
-0.000346686
0.00624054
-0.000325041
0.00630695
-0.000293375
0.00636538
-0.000258194
0.00641992
-0.000243174
0.00646606
-0.000199362
0.00650832
-0.000183769
0.00654409
-0.000148006
0.00657487
-0.000125495
0.00660153
-0.000103803
0.00662289
-7.81392e-05
0.00664195
-6.79249e-05
0.0066564
-4.34026e-05
0.00666869
-3.43268e-05
0.00667781
-1.76918e-05
0.00668485
-8.33224e-06
0.00668991
2.71057e-06
0.00669308
9.65977e-06
0.00669501
1.79668e-05
0.00669532
2.40968e-05
0.00669493
2.97254e-05
0.00669316
3.53719e-05
0.00669093
3.95754e-05
0.00668758
4.45233e-05
0.00668403
4.75355e-05
0.00667906
5.55573e-05
0.00668028
-2.39948e-05
0.00668877
-7.59813e-05
0.0066967
-3.65142e-05
0.00670183
-1.39013e-05
0.00670527
-4.40823e-06
0.00670793
-2.12451e-06
0.00671041
-8.76065e-07
0.00671273
-1.21047e-06
0.00671507
-8.94226e-07
0.0067174
-1.89386e-06
0.00671987
-2.28902e-06
0.00672237
-3.43388e-06
0.00672501
-3.68421e-06
0.00672761
-4.53388e-06
0.00673042
-5.2246e-06
0.00673318
-5.77068e-06
0.00673625
-7.14345e-06
0.00673925
-7.576e-06
0.00674264
-9.3574e-06
0.00674596
-9.45995e-06
0.00674849
-5.44904e-06
0.0067491
3.94782e-06
0.0067487
8.22865e-06
0.00674686
1.55121e-05
0.00674398
1.92676e-05
0.00673953
2.78811e-05
0.00673346
3.43218e-05
0.00672589
4.31644e-05
0.00671506
5.81802e-05
0.00670239
6.66585e-05
0.00668649
8.22314e-05
0.00666599
0.000107152
0.00664169
0.000121407
0.00661212
0.000150902
0.00657568
0.000182112
0.00652873
0.000239062
0.00647619
0.000258433
0.00639185
0.000428277
0.00638207
1.14914e-05
0.00574279
0.00484991
-0.0146731
0.0078288
0.0125262
0.00311568
-0.0125786
0.0105544
0.0122728
0.00835186
0.0115836
0.00737681
0.00490423
0.00694003
0.00203671
0.00674683
0.000938546
0.00669364
0.000256666
0.00671877
-0.000130264
0.00679043
-0.000354417
0.00689123
-0.00049222
0.00701034
-0.000568838
0.00713154
-0.000571431
0.00725856
-0.000586519
0.007374
-0.000520879
0.007489
-0.000520261
0.00758957
-0.000447253
0.00768211
-0.000417576
0.00776562
-0.000376893
0.00783919
-0.000331759
0.00790783
-0.000311809
0.00796617
-0.000257707
0.00801964
-0.000237237
0.0080652
-0.000193567
0.00810459
-0.000164885
0.00813893
-0.000138143
0.00816675
-0.000105953
0.00819169
-9.28612e-05
0.00821099
-6.27046e-05
0.00822759
-5.09262e-05
0.00824029
-3.0396e-05
0.00825042
-1.84575e-05
0.0082581
-4.96862e-06
0.00826344
4.32351e-06
0.00826725
1.41551e-05
0.00826909
2.2252e-05
0.00827008
2.87391e-05
0.00826941
3.60423e-05
0.00826821
4.07774e-05
0.00826568
4.70483e-05
0.00826295
5.02687e-05
0.00825866
5.98401e-05
0.00826004
-2.53685e-05
0.00826903
-8.49755e-05
0.00827843
-4.59106e-05
0.00828523
-2.07091e-05
0.00829014
-9.31611e-06
0.00829409
-6.08035e-06
0.00829778
-4.56474e-06
0.00830125
-4.67676e-06
0.00830474
-4.38432e-06
0.00830817
-5.33113e-06
0.00831178
-5.9011e-06
0.0083154
-7.05461e-06
0.00831918
-7.46336e-06
0.0083229
-8.24977e-06
0.00832686
-9.19104e-06
0.00833073
-9.64074e-06
0.00833498
-1.13909e-05
0.00833913
-1.17256e-05
0.00834373
-1.39608e-05
0.00834822
-1.39561e-05
0.00835177
-9e-06
0.00835298
2.73799e-06
0.00835293
8.27427e-06
0.00835108
1.73642e-05
0.00834793
2.24147e-05
0.00834286
3.2955e-05
0.00833575
4.14319e-05
0.0083268
5.21056e-05
0.0083139
7.10875e-05
0.00829864
8.19255e-05
0.00827946
0.000101413
0.00825466
0.000131956
0.00822513
0.000150933
0.00818913
0.0001869
0.00814479
0.00022644
0.00808762
0.000296233
0.00802348
0.000322568
0.00792112
0.000530646
0.00790405
2.85306e-05
0.00722103
0.00553296
-0.0169609
0.00950881
0.0151654
0.00302396
-0.0150738
0.0129338
0.0145045
0.0102972
0.0142202
0.00911576
0.00608563
0.0085652
0.00258727
0.00831945
0.0011843
0.00824899
0.000327134