/*--------------------------------*- C++ -*----------------------------------*\
| =========                 |                                                 |
| \\      /  F ield         | OpenFOAM: The Open Source CFD Toolbox           |
|  \\    /   O peration     | Version:  5.x                                   |
|   \\  /    A nd           | Web:      www.OpenFOAM.org                      |
|    \\/     M anipulation  |                                                 |
\*---------------------------------------------------------------------------*/
FoamFile
{
    version     2.0;
    format      ascii;
    class       surfaceScalarField;
    location    "350";
    object      phi;
}
// * * * * * * * * * * * * * * * * * * * * * * * * * * * * * * * * * * * * * //

dimensions      [0 3 -1 0 0 0 0];

internalField   nonuniform List<scalar> 
21876
(
0.0277895
-0.00471612
-0.0230737
0.0372646
-0.0094751
0.0381446
-0.000880066
0.039443
-0.00129837
0.0387824
0.000660573
0.0369872
0.00179523
0.0347162
0.00227103
0.0322783
0.00243783
0.0297979
0.00248039
0.0270607
0.00273729
0.0237833
0.00327732
0.0213061
0.00247725
0.0199679
0.00133825
0.0191991
0.000768743
0.0182781
0.000921044
0.0173345
0.000943574
0.0163517
0.000982751
0.0153486
0.0010031
0.0143361
0.0010125
0.0133106
0.00102556
0.012263
0.00104762
0.0114232
0.00083985
0.010572
0.000851151
0.00970655
0.000865519
0.00881811
0.000888337
0.00790035
0.000917714
0.00694349
0.000956382
0.00593812
0.00100492
0.00488198
0.00105565
0.00379728
0.0010839
0.00270778
0.00108974
0.00163972
0.00106788
0.000639059
0.00100122
-0.000236777
0.000876337
-0.000977537
0.000741063
-0.00165957
0.000682529
-0.00257175
0.000912035
-0.00378912
0.00121752
-0.00501112
0.00122272
-0.00382073
-0.0011905
-0.00932705
0.00550644
0.0335892
-0.0114341
-0.0268712
0.041532
-0.0174179
0.0443178
-0.00366588
0.0464504
-0.00343096
0.0474951
-0.000384088
0.0476575
0.00163285
0.0470326
0.00289588
0.0456921
0.00377831
0.0437824
0.00439009
0.041297
0.0052227
0.0380141
0.0065602
0.0347626
0.00572881
0.0320797
0.00402113
0.0299179
0.00293054
0.027948
0.00289092
0.0262137
0.00267786
0.0246175
0.002579
0.0230938
0.00252683
0.0216097
0.00249661
0.0201425
0.00249275
0.0186658
0.00252429
0.0174905
0.00201524
0.0163323
0.00200933
0.0151731
0.0020247
0.0139966
0.00206481
0.0127893
0.00212484
0.0115372
0.00220787
0.0102311
0.00230998
0.00886456
0.00242073
0.0074268
0.00252034
0.0059241
0.00259265
0.00438727
0.00260549
0.00286938
0.00252048
0.00144378
0.00230317
0.000180817
0.00200497
-0.00100997
0.00187408
-0.00229595
0.00219806
-0.00339134
0.00231276
-0.00382511
0.00165643
-0.00290161
-0.00211302
-0.0153146
0.00308634
0.0394621
-0.0190809
-0.0318153
0.0466815
-0.0246373
0.0514
-0.00838441
0.0542942
-0.00632517
0.0558658
-0.00195564
0.0563012
0.00119741
0.055924
0.00327308
0.054941
0.00476136
0.0534515
0.00587958
0.0514286
0.00724559
0.048674
0.00931482
0.0457176
0.00868524
0.0430161
0.00672262
0.0405518
0.00539487
0.0381053
0.00533734
0.0358067
0.00497649
0.0336517
0.00473398
0.031603
0.00457559
0.0296302
0.00446938
0.0277039
0.00441904
0.0257827
0.00444556
0.0242597
0.0035382
0.0227717
0.00349742
0.0212948
0.00350162
0.0198078
0.00355171
0.018293
0.00363968
0.0167321
0.00376869
0.0151103
0.00393192
0.0134148
0.00411658
0.0116337
0.00430157
0.00976714
0.00445926
0.00783427
0.00453798
0.00588156
0.00447292
0.00397865
0.00420582
0.00221355
0.00376984
0.000598814
0.00348872
-0.000922771
0.00371954
-0.00212616
0.00351629
-0.00264767
0.00217819
-0.00249825
-0.00226296
-0.0181696
0.000356666
0.0459555
-0.0275246
-0.0375118
0.0531529
-0.0318347
0.058911
-0.0141425
0.0626096
-0.0100237
0.0648696
-0.00421563
0.0658619
0.000205104
0.0658202
0.00331475
0.0649913
0.00559026
0.063577
0.00729387
0.0616452
0.00917739
0.0590813
0.0118788
0.0562918
0.0114747
0.0537369
0.00927746
0.0513915
0.00774036
0.0489776
0.00775118
0.046545
0.00740913
0.0441353
0.0071437
0.0417486
0.00696222
0.0393852
0.00683281
0.0370394
0.00676478
0.0346831
0.00680189
0.0328042
0.00541711
0.0309655
0.00533617
0.0291418
0.00532526
0.0273102
0.00538329
0.0254502
0.00549956
0.0235405
0.00567804
0.021562
0.00591009
0.0194968
0.0061813
0.0173297
0.00646825
0.0150543
0.0067345
0.0126786
0.00691379
0.010235
0.00691686
0.00778048
0.00666076
0.00541032
0.00614036
0.00324697
0.00565233
0.0013433
0.00562323
-0.00020999
0.00506956
-0.00109805
0.00306621
-0.00180375
-0.00155732
-0.0181534
-0.00181991
0.0530993
-0.036758
-0.043866
0.0606266
-0.0393619
0.0672505
-0.0207664
0.0720716
-0.0148448
0.0753335
-0.00747751
0.0771812
-0.00164262
0.0777584
0.00273758
0.0772797
0.00606894
0.0759835
0.00859008
0.0740118
0.011149
0.0713585
0.0145321
0.068396
0.0144372
0.0656465
0.012027
0.0631839
0.0102029
0.060757
0.0101781
0.0583133
0.00985281
0.0558639
0.00959305
0.0533826
0.00944358
0.0508516
0.0093638
0.0482671
0.00934927
0.0456137
0.00945528
0.0434563
0.00757452
0.0413189
0.0074736
0.0391816
0.00746253
0.0370236
0.00754126
0.034825
0.00769814
0.0325638
0.00793927
0.0302183
0.00825563
0.0277675
0.00863227
0.0251923
0.00904358
0.0224801
0.00944671
0.0196272
0.00976649
0.0166487
0.00989522
0.0135799
0.00972947
0.0104996
0.00922049
0.00761157
0.00854027
0.00510032
0.00813446
0.00295616
0.00721381
0.00141115
0.00461126
-0.000224266
7.78109e-05
-0.0155316
-0.0028462
0.0609748
-0.0468682
-0.0508646
0.0691247
-0.0475118
0.0765973
-0.0282389
0.082555
-0.0208025
0.0869253
-0.0118478
0.0898073
-0.00452465
0.0912722
0.00127274
0.0914699
0.00587124
0.0906031
0.00945688
0.0888395
0.0129126
0.0862334
0.0171382
0.0830993
0.0175713
0.0799994
0.0151269
0.0771589
0.0130434
0.0744521
0.0128849
0.0718002
0.0125047
0.0692057
0.0121875
0.0666301
0.0120192
0.0640214
0.0119725
0.0613448
0.0120258
0.0585685
0.0122316
0.0562737
0.00986929
0.0539692
0.00977809
0.0516367
0.009795
0.0492564
0.00992149
0.046809
0.0101455
0.0442724
0.0104757
0.0416241
0.0109039
0.0388403
0.0114159
0.0358983
0.0119854
0.0327792
0.0125657
0.0294687
0.0130769
0.0259638
0.0134002
0.022273
0.0134204
0.0184379
0.0130556
0.0146839
0.0122944
0.0113064
0.011512
0.0082984
0.0102219
0.00573397
0.00717567
0.00307792
0.00273371
-0.0107777
-0.00167599
0.0696899
-0.0580416
-0.0585166
0.0787508
-0.0565727
0.0871597
-0.0366479
0.094248
-0.0278908
0.0998056
-0.0174054
0.103846
-0.00856524
0.106384
-0.00126495
0.107508
0.00474731
0.107362
0.00960299
0.106113
0.0141612
0.103845
0.0194061
0.100782
0.0206341
0.0974551
0.0184542
0.0942111
0.0162875
0.09109
0.016006
0.0880454
0.0155494
0.085096
0.015137
0.0822341
0.0148811
0.0794137
0.014793
0.0765873
0.0148522
0.0737068
0.0151121
0.0713396
0.0122365
0.0689709
0.0121467
0.0665724
0.0121935
0.0641162
0.0123777
0.0615766
0.012685
0.0589266
0.0131256
0.0561381
0.0136924
0.0531818
0.0143723
0.0500276
0.0151396
0.046647
0.0159463
0.0430127
0.0167111
0.0391024
0.0173105
0.0348965
0.0176263
0.0303892
0.0175628
0.025764
0.0169196
0.0213438
0.0159321
0.0171934
0.0143724
0.0132846
0.0110844
0.00937622
0.00664202
-0.00432512
0.00292354
0.0793739
-0.0705625
-0.066853
0.08965
-0.0668488
0.0991656
-0.0461634
0.10742
-0.0361457
0.114205
-0.02419
0.119479
-0.013839
0.123225
-0.00501119
0.12547
0.00250212
0.126299
0.00877382
0.125859
0.0146021
0.124242
0.0210229
0.121579
0.0232969
0.118307
0.021726
0.114831
0.0197634
0.11135
0.0194868
0.10789
0.0190101
0.104491
0.0185352
0.101191
0.0181815
0.0979773
0.0180068
0.0948215
0.018008
0.0916857
0.018248
0.0891591
0.0147631
0.0866864
0.0146194
0.0842313
0.0146486
0.0817578
0.0148511
0.0792317
0.0152111
0.0766177
0.0157395
0.073879
0.016431
0.0709759
0.0172754
0.0678657
0.0182497
0.0645033
0.0193087
0.0608401
0.0203743
0.0568263
0.0213242
0.0524079
0.0220447
0.0475274
0.0224432
0.0422838
0.0221634
0.0369178
0.0212981
0.0315289
0.0197614
0.0260757
0.0165375
0.0205509
0.0121669
0.00354735
0.0126783
0.0901875
-0.0848073
-0.0759427
0.102022
-0.0786834
0.112886
-0.0570277
0.122416
-0.0456748
0.130472
-0.0322466
0.137021
-0.0203874
0.142046
-0.0100366
0.145539
-0.000991062
0.147539
0.0067739
0.148161
0.0139805
0.147492
0.0216921
0.145571
0.0252179
0.142709
0.0245874
0.139301
0.0231716
0.135662
0.0231257
0.13191
0.0227619
0.128123
0.0223224
0.124373
0.0219309
0.120693
0.0216874
0.117083
0.0216174
0.113533
0.0217982
0.110702
0.0175943
0.107986
0.0173351
0.105355
0.0172796
0.102776
0.0174303
0.100217
0.0177703
0.0976433
0.0183128
0.0950189
0.0190555
0.0923012
0.0199931
0.0894416
0.0211094
0.0863821
0.0223681
0.0830536
0.0237028
0.0793744
0.0250034
0.0752469
0.0261721
0.0705546
0.0271356
0.065289
0.0274289
0.0595303
0.0270569
0.0532914
0.0260002
0.0465126
0.0233163
0.0392423
0.0194371
0.0126507
0.0301389
0.102332
-0.101243
-0.085896
0.116127
-0.0924789
0.128651
-0.0695514
0.139644
-0.0566674
0.149065
-0.0416676
0.156931
-0.0282536
0.163262
-0.0163676
0.168066
-0.00579518
0.171347
0.00349278
0.17321
0.0121179
0.173728
0.021174
0.172858
0.026088
0.170776
0.0266695
0.16781
0.0261368
0.164326
0.0266101
0.160524
0.0265643
0.15653
0.0263158
0.152455
0.0260059
0.148372
0.0257709
0.144316
0.0256728
0.140306
0.025808
0.13709
0.020811
0.134024
0.0204008
0.131091
0.0202131
0.128268
0.0202526
0.125537
0.020502
0.122874
0.0209751
0.120258
0.0216721
0.117658
0.0225923
0.115041
0.023727
0.112357
0.0250519
0.109541
0.0265186
0.106504
0.0280409
0.103123
0.0295532
0.0992352
0.031023
0.0947322
0.0319318
0.0895195
0.0322696
0.083432
0.0320878
0.0762966
0.0304517
0.0680309
0.0277029
0.0226167
0.0580649
0.11606
-0.120436
-0.0968677
0.132296
-0.108715
0.146866
-0.0841211
0.159598
-0.069399
0.17055
-0.0526197
0.179817
-0.037521
0.187484
-0.0240343
0.193612
-0.0119237
0.198207
-0.00110192
0.20139
0.00893534
0.203235
0.0193288
0.203639
0.0256834
0.202656
0.0276525
0.200521
0.0282722
0.197573
0.0295579
0.194054
0.0300832
0.190139
0.0302315
0.185971
0.0301731
0.181666
0.0300759
0.177298
0.0300412
0.172916
0.0301899
0.169339
0.0243882
0.165917
0.0238229
0.162644
0.0234855
0.159513
0.0233839
0.156514
0.0235004
0.153641
0.0238484
0.150886
0.0244278
0.148239
0.0252391
0.145688
0.0262774
0.143214
0.0275267
0.140778
0.0289542
0.138321
0.0304979
0.135743
0.0321313
0.13289
0.0338763
0.129612
0.0352098
0.125712
0.0361692
0.120884
0.0369154
0.114805
0.0365308
0.107185
0.0353234
0.0322001
0.0976011
0.131691
-0.143064
-0.109063
0.150944
-0.127968
0.168035
-0.101212
0.182873
-0.084237
0.195612
-0.0653589
0.206435
-0.0483439
0.215508
-0.0331076
0.222969
-0.019384
0.228873
-0.00700583
0.23337
0.00443781
0.236571
0.0161279
0.23835
0.0239041
0.238673
0.0273303
0.237683
0.029262
0.235649
0.0315915
0.232796
0.0329369
0.229316
0.0337109
0.225381
0.0341088
0.221134
0.0343221
0.21669
0.0344859
0.212133
0.0347467
0.208312
0.028209
0.204623
0.0275121
0.201076
0.0270322
0.197676
0.0267841
0.194424
0.0267521
0.191323
0.0269494
0.188376
0.027375
0.185587
0.0280281
0.18296
0.0289043
0.180496
0.0299906
0.178188
0.0312622
0.176014
0.0326724
0.173919
0.0342256
0.171803
0.0359922
0.169554
0.0374597
0.166981
0.0387417
0.163775
0.040121
0.159563
0.0407429
0.153977
0.0409098
0.039792
0.146385
0.149622
-0.169943
-0.122743
0.172586
-0.150932
0.192781
-0.121407
0.210194
-0.10165
0.225075
-0.0802399
0.237698
-0.0609666
0.248321
-0.043731
0.25717
-0.0282331
0.26438
-0.0142153
0.270151
-0.00133346
0.274655
0.0116239
0.27779
0.0207697
0.279481
0.0256392
0.279814
0.0289287
0.278977
0.0324284
0.277136
0.0347778
0.274466
0.0363806
0.271136
0.0374389
0.267304
0.0381547
0.263106
0.0386836
0.258663
0.0391902
0.25479
0.0320821
0.250996
0.0313056
0.247314
0.0307139
0.243766
0.0303329
0.240364
0.0301538
0.23712
0.0301936
0.234043
0.0304516
0.231144
0.0309269
0.228434
0.0316148
0.225921
0.0325036
0.223611
0.0335722
0.221501
0.0347823
0.219568
0.0361584
0.217755
0.0378051
0.216008
0.0392074
0.214201
0.0405485
0.212118
0.0422043
0.209468
0.0433926
0.205988
0.0443901
0.0448099
0.20097
0.170348
-0.202052
-0.138239
0.197864
-0.178447
0.221873
-0.145416
0.242446
-0.122223
0.259931
-0.0977252
0.274699
-0.0757344
0.287106
-0.0561386
0.297476
-0.0386025
0.306032
-0.0227719
0.313057
-0.00835843
0.318787
0.00589423
0.323184
0.0163722
0.326188
0.0226357
0.327867
0.0272493
0.328355
0.0319409
0.327755
0.0353781
0.326198
0.0379376
0.323824
0.0398123
0.320779
0.0411999
0.317202
0.0422608
0.313228
0.0431641
0.309556
0.0357537
0.305882
0.0349796
0.302263
0.0343331
0.298741
0.0338553
0.295346
0.0335487
0.292101
0.0334377
0.289026
0.0335271
0.286134
0.0338187
0.283439
0.0343103
0.28095
0.0349921
0.278675
0.035847
0.276615
0.0368429
0.274753
0.0380203
0.273049
0.0395093
0.271479
0.0407768
0.26997
0.0420581
0.268387
0.0437874
0.266564
0.0452155
0.26438
0.0465737
0.0478447
0.261345
0.194485
-0.240578
-0.155959
0.22757
-0.211532
0.256257
-0.174104
0.280709
-0.146675
0.301383
-0.118399
0.318752
-0.0931038
0.333281
-0.0706672
0.345396
-0.050717
0.355424
-0.0327999
0.363735
-0.0166701
0.370644
-0.00101458
0.376203
0.010813
0.380403
0.0184364
0.383337
0.0243147
0.385125
0.0301536
0.385832
0.0346708
0.385549
0.0382205
0.384378
0.0409836
0.382431
0.0431468
0.379828
0.044864
0.376697
0.0462953
0.373516
0.0389345
0.370229
0.0382662
0.366917
0.0376457
0.363641
0.037131
0.360451
0.0367387
0.357385
0.0365039
0.354472
0.0364394
0.351737
0.0365539
0.349197
0.0368507
0.346864
0.0373254
0.344744
0.0379665
0.342838
0.0387485
0.341132
0.0397265
0.339589
0.041053
0.338196
0.0421695
0.336902
0.0433517
0.335615
0.0450743
0.334254
0.0465772
0.332771
0.0480562
0.0496839
0.330932
0.222786
-0.286957
-0.176407
0.262676
-0.251422
0.297096
-0.208524
0.326311
-0.17589
0.350898
-0.142987
0.371452
-0.113657
0.388553
-0.0877679
0.402742
-0.0649058
0.414459
-0.0445178
0.424171
-0.0263821
0.432285
-0.00912836
0.438948
0.00415018
0.444232
0.0131527
0.448286
0.0202603
0.451252
0.0271879
0.453196
0.0327263
0.454192
0.0372242
0.454315
0.0408613
0.453644
0.0438172
0.45227
0.046238
0.450295
0.0482702
0.44788
0.0413502
0.445253
0.0408928
0.442511
0.0403877
0.439732
0.0399103
0.436978
0.0394919
0.434303
0.0391796
0.431746
0.038996
0.429342
0.0389582
0.427115
0.0390773
0.425084
0.0393561
0.42326
0.0397903
0.421647
0.0403615
0.420235
0.0411393
0.418992
0.0422962
0.417915
0.0432459
0.41697
0.0442971
0.416085
0.0459595
0.415222
0.0474399
0.414359
0.0489188
0.0506531
0.41339
0.25615
-0.342928
-0.200179
0.304348
-0.29962
0.345788
-0.249963
0.380848
-0.210951
0.410249
-0.172387
0.434719
-0.138127
0.454974
-0.108024
0.471686
-0.0816176
0.485421
-0.058253
0.496751
-0.0377113
0.506183
-0.0185604
0.51397
-0.0036369
0.52028
0.00684216
0.525338
0.0152025
0.529335
0.0231906
0.532373
0.0296887
0.534537
0.0350596
0.535901
0.0394979
0.536529
0.0431885
0.53649
0.0462775
0.535857
0.0489029
0.534403
0.0428043
0.532657
0.0426384
0.53072
0.0423252
0.528676
0.0419547
0.526595
0.0415721
0.524539
0.0412357
0.522557
0.0409786
0.520688
0.0408268
0.518966
0.0407996
0.517414
0.0409076
0.516051
0.0411534
0.514887
0.0415254
0.513921
0.0421062
0.513131
0.0430856
0.512527
0.0438497
0.512089
0.0447351
0.511766
0.0462828
0.511544
0.0476615
0.511414
0.0490496
0.0507534
0.511313
0.268394
-0.404245
-0.207077
0.321242
-0.352467
0.366562
-0.295284
0.40482
-0.249209
0.436816
-0.204383
0.463359
-0.16467
0.48524
-0.129905
0.503203
-0.0995807
0.517892
-0.0729424
0.529934
-0.0497528
0.539888
-0.0285143
0.548086
-0.0118352
0.554769
0.000159048
0.560219
0.00975279
0.564671
0.0187387
0.568267
0.0260924
0.571122
0.0322043
0.573323
0.0372969
0.574939
0.0415732
0.576027
0.0451896
0.576643
0.0482861
0.576218
0.0432295
0.575491
0.0433657
0.57455
0.0432665
0.573471
0.0430332
0.572321
0.042722
0.571156
0.0424006
0.570024
0.0421107
0.568965
0.0418862
0.568011
0.0417538
0.567188
0.0417304
0.566517
0.0418246
0.566012
0.0420301
0.565679
0.0424393
0.565509
0.043255
0.565519
0.04384
0.565702
0.0445519
0.566029
0.0459565
0.566501
0.0471896
0.567118
0.0484326
0.0500256
0.567845
0.277448
-0.470125
-0.211568
0.334263
-0.409281
0.382895
-0.343916
0.423885
-0.290199
0.458099
-0.238598
0.486412
-0.192982
0.509678
-0.153171
0.528701
-0.118604
0.544187
-0.088429
0.556808
-0.0623731
0.567162
-0.0388688
0.575646
-0.0203187
0.582558
-0.00675336
0.588221
0.00409003
0.592908
0.0140519
0.596798
0.0222017
0.600038
0.028965
0.602735
0.0345993
0.604974
0.0393338
0.60682
0.0433438
0.608326
0.0467803
0.608677
0.0428781
0.60875
0.0432936
0.608618
0.0433977
0.608351
0.0433008
0.608004
0.0430686
0.607629
0.0427761
0.607267
0.0424724
0.606955
0.0421978
0.606724
0.0419852
0.606597
0.0418568
0.606596
0.0418261
0.606735
0.0418907
0.607025
0.0421501
0.607463
0.0428169
0.608067
0.0432358
0.608839
0.0437794
0.609764
0.0450321
0.610849
0.0461042
0.612101
0.0471807
0.0486248
0.613502
0.28864
-0.541
-0.217765
0.349786
-0.470428
0.40206
-0.39619
0.446071
-0.33421
0.482758
-0.275285
0.513063
-0.223287
0.537908
-0.178016
0.558159
-0.138854
0.574585
-0.104855
0.587902
-0.0756905
0.598753
-0.0497201
0.607588
-0.0291537
0.614761
-0.0139264
0.620629
-0.0017778
0.625501
0.00917975
0.629593
0.0181102
0.633079
0.0254793
0.636093
0.0315846
0.63874
0.0366867
0.641098
0.0409858
0.643229
0.0446502
0.64414
0.0419667
0.644805
0.042629
0.64529
0.042912
0.645656
0.0429352
0.645952
0.0427725
0.646223
0.0425055
0.646505
0.0421896
0.646832
0.041871
0.64723
0.0415875
0.647721
0.0413657
0.648324
0.041223
0.649054
0.0411603
0.649922
0.0412824
0.65093
0.0418087
0.652095
0.0420713
0.653421
0.0424533
0.6549
0.0435527
0.656544
0.0444609
0.658358
0.0453664
0.0466484
0.660335
0.301798
-0.617319
-0.225479
0.367663
-0.536292
0.42392
-0.452447
0.471251
-0.381541
0.510668
-0.314702
0.543187
-0.255806
0.569801
-0.20463
0.591442
-0.160496
0.608945
-0.122357
0.623076
-0.0898218
0.634523
-0.0611667
0.643786
-0.0384175
0.651271
-0.0214107
0.657368
-0.0078755
0.662421
0.00412741
0.666677
0.0138544
0.670339
0.0218164
0.67357
0.0283544
0.676492
0.0337643
0.679203
0.0382751
0.681776
0.0420772
0.683091
0.0406514
0.684194
0.0415259
0.685148
0.0419584
0.686006
0.0420772
0.686814
0.0419646
0.68761
0.0417087
0.688429
0.0413708
0.689298
0.041002
0.690241
0.0406447
0.691277
0.0403296
0.692423
0.040077
0.693693
0.0398907
0.695096
0.0398792
0.696638
0.0402671
0.698331
0.0403783
0.700181
0.0406029
0.702186
0.0415481
0.704353
0.0422931
0.706691
0.0430289
0.0441453
0.709194
0.316842
-0.699564
-0.234597
0.38784
-0.60729
0.448445
-0.513052
0.499408
-0.432504
0.541823
-0.357117
0.576784
-0.290767
0.605362
-0.233207
0.628558
-0.183692
0.647277
-0.141076
0.662339
-0.104884
0.67448
-0.0733078
0.684253
-0.0481905
0.692108
-0.0292658
0.698474
-0.0142417
0.703724
-0.00112249
0.708139
0.00943968
0.711949
0.018006
0.71534
0.0249632
0.718459
0.0306458
0.72142
0.0353144
0.724312
0.0391851
0.725917
0.0390456
0.727342
0.0401008
0.728648
0.040653
0.729885
0.0408405
0.731095
0.040754
0.732315
0.0404885
0.733575
0.040111
0.734899
0.0396778
0.736309
0.0392355
0.73782
0.0388181
0.739448
0.0384493
0.741204
0.0381349
0.743096
0.0379864
0.745132
0.0382315
0.747319
0.0381909
0.749664
0.0382582
0.752166
0.039046
0.754832
0.0396274
0.757666
0.0401944
0.0411441
0.760667
0.333752
-0.788251
-0.245064
0.41033
-0.683869
0.475672
-0.578393
0.530601
-0.487434
0.576299
-0.402814
0.613943
-0.328411
0.644686
-0.263951
0.669609
-0.208615
0.689685
-0.161152
0.705797
-0.120996
0.718732
-0.0862431
0.729096
-0.0585544
0.737386
-0.0375554
0.744066
-0.0209222
0.749543
-0.00659978
0.754129
0.00485437
0.75808
0.0140546
0.761607
0.0214367
0.764876
0.0273762
0.768023
0.0321682
0.771151
0.036057
0.772966
0.0372302
0.774627
0.03844
0.776194
0.0390856
0.777719
0.0393155
0.779243
0.0392304
0.780799
0.0389322
0.782416
0.0384941
0.784116
0.0379777
0.785918
0.0374337
0.787836
0.0368998
0.789883
0.0364022
0.792069
0.0359495
0.7944
0.0356549
0.796884
0.0357481
0.799525
0.03555
0.802327
0.0354558
0.805293
0.0360799
0.808426
0.0364943
0.81173
0.0368911
0.0376713
0.815202
0.35255
-0.883942
-0.256859
0.435194
-0.766513
0.505692
-0.648891
0.564947
-0.546689
0.614231
-0.452098
0.654815
-0.368995
0.687939
-0.297075
0.714767
-0.235442
0.73635
-0.182735
0.753635
-0.138281
0.767467
-0.100075
0.778506
-0.0695934
0.787297
-0.0463459
0.794342
-0.0279671
0.800082
-0.0123398
0.804858
7.80424e-05
0.808956
0.00995624
0.812609
0.0177839
0.816005
0.0239801
0.819297
0.0288767
0.822605
0.0327483
0.824573
0.0352622
0.826406
0.0366072
0.828168
0.037324
0.82991
0.0375735
0.831674
0.0374663
0.833494
0.0371125
0.835396
0.036592
0.837402
0.0359718
0.839528
0.035307
0.841789
0.0346391
0.844194
0.0339971
0.846752
0.0333919
0.849468
0.0329385
0.852349
0.0328671
0.855397
0.0325025
0.858614
0.0322389
0.862003
0.0326901
0.865567
0.0329311
0.869304
0.0331535
0.0337591
0.873216
0.373291
-0.987244
-0.26999
0.462528
-0.855749
0.538638
-0.725002
0.602608
-0.610659
0.655807
-0.505298
0.699606
-0.412794
0.735342
-0.33281
0.764266
-0.264366
0.787514
-0.205983
0.806102
-0.15687
0.820939
-0.114912
0.83274
-0.0813945
0.8421
-0.0557061
0.849563
-0.0354294
0.855604
-0.018381
0.860597
-0.00491514
0.864855
0.00569846
0.868634
0.0140051
0.872144
0.0204702
0.875555
0.0254653
0.879006
0.0292974
0.881085
0.0331835
0.883041
0.0346503
0.884944
0.0354213
0.886847
0.0356708
0.888792
0.0355208
0.890815
0.03509
0.892941
0.0344659
0.895192
0.0337211
0.897583
0.0329159
0.900127
0.0320952
0.902832
0.0312913
0.905707
0.0305178
0.908754
0.0298906
0.911982
0.0296399
0.915387
0.0290971
0.918972
0.0286541
0.922741
0.028921
0.926692
0.02898
0.930824
0.0290211
0.029445
0.935138
0.396058
-1.09882
-0.284483
0.492461
-0.952152
0.57468
-0.80722
0.643786
-0.679765
0.701258
-0.562769
0.748571
-0.460108
0.787167
-0.371406
0.818393
-0.295593
0.843475
-0.231065
0.863506
-0.176901
0.879461
-0.130867
0.892116
-0.0940494
0.902118
-0.0657083
0.910053
-0.0433647
0.916437
-0.0247645
0.921675
-0.0101534
0.926108
0.00126525
0.930018
0.0100955
0.933635
0.0168532
0.937148
0.0219518
0.940713
0.0257332
0.94287
0.0310261
0.944913
0.0326072
0.946914
0.0334202
0.948931
0.0336542
0.951008
0.0334435
0.953181
0.0329167
0.955478
0.0321692
0.957919
0.0312802
0.96052
0.0303148
0.963293
0.0293225
0.966245
0.0283389
0.969383
0.0273802
0.97271
0.0265632
0.976233
0.0261175
0.979946
0.0253834
0.983851
0.0247491
0.987953
0.0248189
0.992248
0.0246855
0.996732
0.0245369
0.0247703
1.00141
0.420953
-1.21939
-0.300385
0.52515
-1.05635
0.614018
-0.896088
0.688721
-0.754468
0.750854
-0.624902
0.802008
-0.511261
0.843734
-0.413133
0.877487
-0.329346
0.904586
-0.258164
0.926209
-0.198523
0.943403
-0.14806
0.957009
-0.107655
0.967729
-0.0764288
0.976196
-0.0518316
0.982965
-0.0315338
0.988478
-0.0156664
0.993105
-0.00336128
0.997152
0.0060486
1.00087
0.013133
1.00447
0.0183502
1.00813
0.0220795
1.01034
0.0288169
1.01243
0.0305103
1.0145
0.0313579
1.01659
0.0315646
1.01875
0.0312788
1.02103
0.0306393
1.02345
0.0297506
1.02603
0.0286988
1.02879
0.0275549
1.03174
0.0263727
1.03488
0.0251915
1.03823
0.0240305
1.04179
0.0230075
1.04556
0.0223504
1.04953
0.021411
1.05371
0.0205726
1.05809
0.0204317
1.06268
0.0200944
1.06748
0.0197461
0.0197791
1.07247
0.448104
-1.34974
-0.317753
0.56078
-1.16903
0.656887
-0.992195
0.737691
-0.835272
0.804909
-0.69212
0.860259
-0.566611
0.905412
-0.458286
0.941934
-0.365868
0.971251
-0.287481
0.994627
-0.2219
1.01319
-0.166624
1.02785
-0.122317
1.03937
-0.0879489
1.04843
-0.0608919
1.05563
-0.038734
1.06145
-0.0214851
1.06629
-0.00819962
1.07048
0.00185751
1.0743
0.00931309
1.07798
0.0146739
1.0817
0.0183592
1.08393
0.0265805
1.08605
0.0283899
1.08814
0.029269
1.09027
0.0294407
1.09248
0.0290683
1.09481
0.0283023
1.09731
0.0272566
1.09998
0.0260254
1.10285
0.0246856
1.10593
0.023296
1.10922
0.0219001
1.11273
0.0205202
1.11646
0.0192749
1.12042
0.0183902
1.1246
0.0172311
1.129
0.0161752
1.13362
0.0158094
1.13846
0.0152561
1.14351
0.0146974
0.0145193
1.14877
0.477655
-1.49073
-0.336659
0.599561
-1.29093
0.703555
-1.09619
0.791009
-0.922727
0.863779
-0.764889
0.923713
-0.626545
0.972616
-0.507189
1.01217
-0.405427
1.04393
-0.319232
1.06923
-0.247207
1.08931
-0.1867
1.10514
-0.138146
1.11755
-0.100356
1.12726
-0.0706113
1.13494
-0.0464129
1.1411
-0.0276413
1.14617
-0.0132679
1.15051
-0.00248402
1.15442
0.00539821
1.15816
0.0109378
1.16192
0.0145969
1.16416
0.0243423
1.16628
0.0262762
1.16836
0.0271885
1.17047
0.0273214
1.17269
0.0268542
1.17504
0.0259505
1.17756
0.0247345
1.18028
0.0233089
1.18321
0.0217575
1.18636
0.0201445
1.18974
0.0185175
1.19336
0.0169027
1.19721
0.0154192
1.20131
0.0142909
1.20565
0.0128978
1.21021
0.0116109
1.21501
0.011006
1.22005
0.0102241
1.2253
0.00944364
0.00904308
1.23078
0.509772
-1.64332
-0.357187
0.64173
-1.42289
0.75432
-1.20878
0.84903
-1.01744
0.92786
-0.84372
0.992807
-0.691492
1.04581
-0.560196
1.0887
-0.448315
1.12313
-0.353657
1.15056
-0.274637
1.1723
-0.208444
1.18942
-0.155267
1.20281
-0.113745
1.21326
-0.0810604
1.22147
-0.0546208
1.22799
-0.0341681
1.23331
-0.018584
1.23781
-0.00698063
1.24181
0.00139583
1.24559
0.00716001
1.24936
0.0108207
1.25158
0.0221298
1.25365
0.0242025
1.25568
0.0251542
1.25776
0.0252482
1.25993
0.0246816
1.26225
0.0236318
1.26475
0.0222346
1.26746
0.0206019
1.27039
0.0188248
1.27356
0.0169735
1.27698
0.0151002
1.28064
0.0132354
1.28456
0.0114986
1.28874
0.0101111
1.29317
0.00847016
1.29784
0.00693884
1.30277
0.00608066
1.30794
0.0050575
1.31334
0.00404373
0.00340929
1.31897
0.54464
-1.80853
-0.37943
0.687553
-1.5658
0.809518
-1.33074
0.912147
-1.12007
0.9976
-0.929173
1.06803
-0.761922
1.12553
-0.6177
1.17207
-0.494854
1.20943
-0.391018
1.2392
-0.304405
1.26278
-0.232025
1.28133
-0.173811
1.2958
-0.128217
1.30705
-0.0923152
1.31584
-0.063411
1.32278
-0.0410994
1.32836
-0.0241647
1.33301
-0.0116344
1.33709
-0.00268308
1.34089
0.00336368
1.34464
0.00706486
1.3468
0.0199746
1.34879
0.0222059
1.35074
0.0232082
1.35272
0.0232676
1.3548
0.0226005
1.35703
0.0213994
1.35946
0.0198127
1.3621
0.0179622
1.36497
0.0159472
1.3681
0.0138443
1.37149
0.0117111
1.37514
0.00958206
1.37907
0.00757774
1.38326
0.00591646
1.38772
0.00401406
1.39243
0.0022254
1.39741
0.00110005
1.40264
-0.000176828
1.40812
-0.00143532
-0.00231513
1.41385
0.582467
-1.9875
-0.403493
0.737327
-1.72066
0.869522
-1.46294
0.980802
-1.23135
1.07349
-1.02187
1.14992
-0.838352
1.21235
-0.680129
1.2629
-0.545399
1.30349
-0.431607
1.33583
-0.336744
1.36143
-0.257632
1.38155
-0.193927
1.39722
-0.143885
1.40936
-0.104458
1.41879
-0.0728404
1.42616
-0.04847
1.43202
-0.0300261
1.43683
-0.0164445
1.44097
-0.00682284
1.44476
-0.000421957
1.44845
0.00337091
1.45051
0.0179141
1.45239
0.0203302
1.4542
0.0213995
1.45603
0.021433
1.45796
0.0206682
1.46005
0.0193138
1.46233
0.017532
1.46484
0.0154557
1.46759
0.0131928
1.47061
0.0108269
1.4739
0.00842138
1.47746
0.00601547
1.48131
0.00373049
1.48545
0.00178161
1.48985
-0.000394897
1.49453
-0.00245322
1.49949
-0.00385907
1.50472
-0.0054017
1.5102
-0.00691604
-0.00805241
1.51593
0.623479
-2.18149
-0.42949
0.791379
-1.88856
0.934748
-1.60631
1.05548
-1.35208
1.1561
-1.12248
1.2391
-0.921354
1.30693
-0.74796
1.36187
-0.600342
1.40601
-0.475743
1.44118
-0.371913
1.46901
-0.28547
1.49086
-0.215776
1.50785
-0.160872
1.52097
-0.117578
1.5311
-0.0829698
1.53895
-0.056316
1.5451
-0.0361824
1.55006
-0.0214062
1.55424
-0.0110018
1.55798
-0.00416003
1.56156
-0.000210024
1.56348
0.0159929
1.56519
0.0186266
1.5668
0.0197852
1.56843
0.0198066
1.57014
0.0189511
1.57201
0.0174453
1.57408
0.0154663
1.57638
0.0131588
1.57893
0.0106403
1.58175
0.0080021
1.58486
0.00531376
1.58826
0.00261981
1.59194
4.24276e-05
1.59593
-0.00220665
1.60021
-0.00466889
1.60476
-0.00700829
1.60961
-0.00870715
1.61474
-0.0105269
1.62013
-0.0123076
-0.0137112
1.62579
0.66793
-2.39187
-0.457548
0.850072
-2.0707
1.00565
-1.76189
1.13673
-1.48316
1.24602
-1.23177
1.33622
-1.01156
1.40998
-0.821719
1.46976
-0.660117
1.5178
-0.523781
1.55608
-0.410199
1.58638
-0.315769
1.61014
-0.239537
1.62858
-0.179313
1.64278
-0.131772
1.65367
-0.0938644
1.66203
-0.0646745
1.66849
-0.0426464
1.6736
-0.0265103
1.67779
-0.0151913
1.68143
-0.00780424
1.68484
-0.00361535
1.68656
0.0142644
1.68803
0.0171564
1.68939
0.0184331
1.69073
0.0184619
1.69215
0.0175276
1.69372
0.0158765
1.69549
0.0137016
1.69749
0.0111608
1.69974
0.00838177
1.70228
0.00546445
1.70511
0.00248502
1.70824
-0.000506233
1.71167
-0.00338608
1.71541
-0.00594647
1.71944
-0.00870474
1.72377
-0.0113354
1.7284
-0.0133388
1.73332
-0.0154461
1.73851
-0.0175029
-0.0191836
1.74399
0.716097
-2.62017
-0.487802
0.913809
-2.26842
1.08275
-1.93083
1.22515
-1.62556
1.34394
-1.35056
1.44205
-1.10967
1.52232
-0.901988
1.58741
-0.725207
1.63974
-0.576115
1.68146
-0.45192
1.71448
-0.348781
1.74035
-0.265405
1.76039
-0.199356
1.77576
-0.147148
1.78749
-0.105594
1.7964
-0.0735839
1.80319
-0.0494283
1.80842
-0.0317424
1.81258
-0.0193543
1.81607
-0.0112972
1.81923
-0.00676895
1.8207
0.0127928
1.82186
0.0159923
1.82287
0.0174235
1.82385
0.0174856
1.82489
0.0164901
1.82606
0.0147044
1.82742
0.0123394
1.82901
0.00956675
1.83087
0.00652573
1.83301
0.00332529
1.83545
4.9062e-05
1.83819
-0.00324644
1.84124
-0.00643674
1.84461
-0.00931769
1.84828
-0.0123806
1.85226
-0.0153112
1.85655
-0.0176292
1.86114
-0.0200332
1.86601
-0.0223746
-0.0243414
1.87117
0.768285
-2.86805
-0.520399
0.983034
-2.48316
1.16661
-2.1144
1.32141
-1.78037
1.45063
-1.47977
1.55742
-1.21645
1.64484
-0.989414
1.71578
-0.796144
1.77285
-0.633183
1.81836
-0.49743
1.85436
-0.384788
1.88256
-0.293601
1.90437
-0.221164
1.92104
-0.163821
1.93368
-0.118235
1.94318
-0.0830835
1.95029
-0.0565354
1.95563
-0.0370812
1.95972
-0.0234438
1.96299
-0.0145681
1.9658
-0.0095779
1.96694
0.0116553
1.96771
0.0152215
1.96828
0.0168521
1.96878
0.0169808
1.96932
0.0159481
1.96998
0.0140445
1.97082
0.0114998
1.97189
0.00850127
1.97322
0.00520047
1.97482
0.00171636
1.97673
-0.00185933
1.97895
-0.00546326
1.98148
-0.00896953
1.98434
-0.0121781
1.98751
-0.0155521
1.99099
-0.0187894
1.99479
-0.0214305
1.9989
-0.0241386
2.0033
-0.0267716
-0.0290319
2.00799
0.82483
-3.13739
-0.555497
1.05824
-2.71657
1.25784
-2.31401
1.42626
-1.94878
1.56692
-1.62044
1.68325
-1.33278
1.77855
-1.08472
1.85593
-0.873526
1.91822
-0.695471
1.96791
-0.547122
2.00723
-0.424103
2.03799
-0.324367
2.06175
-0.244921
2.07985
-0.181921
2.09348
-0.131868
2.10361
-0.0932138
2.11105
-0.0639719
2.11646
-0.0424978
2.12042
-0.0274013
2.12338
-0.0175311
2.12574
-0.011931
2.12645
0.0109435