/*--------------------------------*- C++ -*----------------------------------*\
| =========                 |                                                 |
| \\      /  F ield         | OpenFOAM: The Open Source CFD Toolbox           |
|  \\    /   O peration     | Version:  5.x                                   |
|   \\  /    A nd           | Web:      www.OpenFOAM.org                      |
|    \\/     M anipulation  |                                                 |
\*---------------------------------------------------------------------------*/
FoamFile
{
    version     2.0;
    format      ascii;
    class       surfaceScalarField;
    location    "350";
    object      phi;
}
// * * * * * * * * * * * * * * * * * * * * * * * * * * * * * * * * * * * * * //

dimensions      [0 3 -1 0 0 0 0];

internalField   nonuniform List<scalar> 
21876
(
0.0114719
0.00958419
-0.0211415
-0.000292463
0.0117401
-0.00391126
0.00357098
-0.00408614
0.000131217
-0.00374148
-0.000369368
-0.00340279
-0.000351027
-0.00318142
-0.00022601
-0.00301829
-0.000167179
-0.00288602
-0.000137761
-0.00278122
-0.000108283
-0.00270808
-7.84507e-05
-0.00266003
-5.13864e-05
-0.0026355
-2.93619e-05
-0.00263229
-5.95433e-06
-0.00265266
1.65379e-05
-0.00269472
3.91195e-05
-0.00275568
5.68697e-05
-0.00282639
6.75729e-05
-0.00289734
6.67301e-05
-0.00295453
5.39085e-05
-0.00297805
2.15251e-05
-0.00295829
-2.46876e-05
-0.00290065
-6.06088e-05
-0.00280359
-0.00010129
-0.0026586
-0.000147459
-0.00246328
-0.000199521
-0.00221122
-0.000254444
-0.00189982
-0.000315517
-0.00152377
-0.000378309
-0.00108098
-0.000446646
-0.000566442
-0.000516247
2.70471e-05
-0.000597473
0.000699361
-0.000673851
0.00144285
-0.000746652
0.00226352
-0.000822027
0.00315787
-0.000896367
0.00412615
-0.000970574
0.00516345
-0.00103746
0.00629081
-0.00112993
0.0071647
-0.000872823
-0.0014576
0.00862102
0.0244686
0.010452
-0.0253536
0.013625
0.022573
0.00138161
0.0157988
-0.00392845
0.00541985
-0.00458837
0.000275301
-0.00438407
-0.000562879
-0.00414629
-0.000467486
-0.00397131
-0.000346178
-0.00383165
-0.000281473
-0.00372032
-0.000222923
-0.00364311
-0.000158929
-0.00359611
-0.000100892
-0.00357817
-5.00664e-05
-0.0035884
2.13725e-06
-0.00362429
5.0083e-05
-0.00367681
8.96665e-05
-0.00373981
0.000117586
-0.00380315
0.000128708
-0.00385673
0.000117842
-0.00388828
8.27054e-05
-0.0038851
1.63113e-05
-0.00384315
-6.88937e-05
-0.00375948
-0.000146315
-0.00362741
-0.000235079
-0.0034382
-0.000338164
-0.00318733
-0.000451779
-0.00286873
-0.000574245
-0.00247922
-0.000706268
-0.00201345
-0.000845188
-0.00146818
-0.000993154
-0.000839298
-0.00114602
-0.000125639
-0.00131224
0.000675109
-0.00147518
0.00157139
-0.00164386
0.00256453
-0.00181533
0.0036567
-0.00198917
0.00483826
-0.00215215
0.00612901
-0.00232874
0.00748117
-0.00248238
0.0088606
-0.00225247
-0.00287977
0.0102815
0.0315867
0.00744055
-0.0285645
0.0276533
0.0265069
0.0151135
0.0283327
0.00249057
0.0180339
-0.00367789
0.00643447
-0.00499493
0.000748528
-0.00504534
-0.000419903
-0.00491659
-0.000477348
-0.00478449
-0.000416552
-0.00466804
-0.000341728
-0.00458267
-0.000247162
-0.00453003
-0.000155529
-0.0045085
-7.41924e-05
-0.00451652
8.70184e-06
-0.00455221
8.36258e-05
-0.00460739
0.000143363
-0.00467576
0.00018364
-0.00474653
0.000198
-0.00480853
0.000177584
-0.00484732
0.000120223
-0.00484582
1.40514e-05
-0.0047963
-0.000120938
-0.00469543
-0.000248514
-0.00453658
-0.000396085
-0.00431008
-0.000565797
-0.00401033
-0.000753577
-0.00363069
-0.000954968
-0.00316671
-0.00117212
-0.00261233
-0.00140054
-0.00196337
-0.00164365
-0.00121464
-0.00189546
-0.000364476
-0.00216379
0.000590111
-0.0024305
0.00166061
-0.00271559
0.0028473
-0.00300297
0.0041545
-0.0032973
0.00556783
-0.00356706
0.007121
-0.00388189
0.00873232
-0.00409525
0.0104421
-0.00396147
-0.00447819
0.0120403
0.037065
0.00335339
-0.0329772
0.0383652
0.0252052
0.0314485
0.0352458
0.0172783
0.0321996
0.00370541
0.0200033
-0.00337324
0.00782392
-0.00535024
0.00155464
-0.00572155
-0.00010857
-0.00573409
-0.000406773
-0.0056631
-0.000415221
-0.00558899
-0.000323726
-0.00553845
-0.000208023
-0.0055166
-9.78984e-05
-0.00552566
1.62069e-05
-0.00556639
0.000122793
-0.00563106
0.000206623
-0.00571284
0.000263904
-0.00580004
0.000283798
-0.00587932
0.000255262
-0.00593339
0.000172702
-0.00594144
2.06702e-05
-0.00589219
-0.000171682
-0.00578129
-0.000360681
-0.00560116
-0.000577363
-0.00534115
-0.000826803
-0.00499419
-0.00110153
-0.00455247
-0.00139752
-0.0040101
-0.0017154
-0.00336001
-0.00205144
-0.00259672
-0.00240781
-0.00171395
-0.00277897
-0.000708806
-0.00316971
0.000422455
-0.00356238
0.00169203
-0.00398584
0.00309922
-0.00441059
0.00464922
-0.00484782
0.00632511
-0.00524331
0.00816889
-0.00572609
0.010074
-0.00600077
0.0121495
-0.00603723
-0.00637517
0.0140456
0.0428681
-0.00107816
-0.0384212
0.0465951
0.0214804
0.0459133
0.0359258
0.0366018
0.0415085
0.0207188
0.0358837
0.00572503
0.0228156
-0.00268733
0.00996519
-0.00557139
0.00277325
-0.00638427
0.000404024
-0.00658503
-0.000216596
-0.0066149
-0.000295724
-0.00661038
-0.000214349
-0.00661197
-9.7955e-05
-0.00663653
3.9354e-05
-0.00669395
0.000178847
-0.00677862
0.000289995
-0.0068842
0.000368011
-0.00699836
0.000396708
-0.00710545
0.000360776
-0.00718538
0.00025161
-0.00721365
4.8201e-05
-0.00717409
-0.000212934
-0.00706067
-0.000475135
-0.00686461
-0.000774876
-0.0065742
-0.00111813
-0.00618076
-0.0014963
-0.00567504
-0.00190415
-0.00504959
-0.00234207
-0.004296
-0.00280589
-0.00340752
-0.0032973
-0.00237659
-0.0038106
-0.00119892
-0.00434828
0.000130545
-0.00489253
0.00162391
-0.00548
0.00327874
-0.00606617
0.00509942
-0.00666917
0.00706855
-0.00721347
0.00923139
-0.0078892
0.0114686
-0.00823891
0.0139396
-0.00850801
-0.00863984
0.0162042
0.0498145
-0.00603512
-0.0448526
0.0543486
0.0169475
0.0574668
0.0328076
0.0550475
0.0439259
0.0437895
0.0471409
0.0260886
0.0405152
0.00908872
0.0269637
-0.00130286
0.0131633
-0.00551602
0.00461519
-0.00694712
0.00121265
-0.00743069
0.000186003
-0.00762714
-1.94811e-05
-0.00773042
3.75506e-06
-0.0078123
0.000119787
-0.00791377
0.000278913
-0.00803942
0.000414356
-0.00818682
0.000514097
-0.00834476
0.000553436
-0.00849578
0.000510499
-0.00861761
0.00037222
-0.00868198
0.000111294
-0.00866586
-0.000230342
-0.00856135
-0.000580779
-0.0083582
-0.000979096
-0.00804384
-0.00143349
-0.00760791
-0.00193327
-0.00703972
-0.00247319
-0.00633003
-0.00305272
-0.0054689
-0.00366779
-0.00444816
-0.0043189
-0.00325895
-0.00500051
-0.00189551
-0.00571249
-0.000351288
-0.00643738
0.00138601
-0.00721796
0.00331151
-0.0079922
0.0054255
-0.00878376
0.00771227
-0.00950071
0.0102137
-0.0103911
0.0128131
-0.0108387
0.015679
-0.011374
-0.0112954
0.0183341
0.0582696
-0.0118443
-0.0524458
0.0632726
0.0119484
0.0677392
0.0283408
0.0701752
0.0414905
0.0664428
0.0508725
0.0536582
0.0532995
0.0340586
0.0465624
0.0144629
0.0327577
0.00127412
0.0178026
-0.00490479
0.00738987
-0.0072564
0.00253614
-0.00820853
0.000931105
-0.00866016
0.000453961
-0.0089221
0.000380409
-0.00913773
0.000493294
-0.00935082
0.000626241
-0.00957578
0.000737831
-0.00980832
0.000784773
-0.0100313
0.00073216
-0.0102215
0.000561355
-0.0103472
0.000236013
-0.0103767
-0.000202167
-0.0103001
-0.000658405
-0.010106
-0.00117433
-0.00978106
-0.00175934
-0.00931365
-0.00240165
-0.00869177
-0.00309599
-0.00790438
-0.00384101
-0.0069399
-0.00463313
-0.00578845
-0.00547113
-0.00443998
-0.00634971
-0.00288735
-0.00726581
-0.00112261
-0.00820278
0.000867237
-0.00920841
0.00307418
-0.0101998
0.00549076
-0.0112009
0.00810314
-0.0121138
0.0109423
-0.0132307
0.0139085
-0.0138055
0.0171247
-0.0145904
-0.0143126
0.0201417
0.068358
-0.0187683
-0.0614302
0.0741473
0.00616128
0.0790502
0.0234396
0.0833649
0.0371761
0.0852564
0.0489815
0.0807262
0.0578299
0.0668795
0.0604085
0.0454299
0.054207
0.0227565
0.040475
0.00585877
0.0242869
-0.00319813
0.0115916
-0.00706377
0.00479572
-0.00877482
0.00216366
-0.0096133
0.00121761
-0.0101392
0.00101788
-0.0105531
0.00103889
-0.0109319
0.00111533
-0.0112984
0.00115
-0.0116439
0.00107649
-0.0119482
0.000864495
-0.0121779
0.000464343
-0.0122898
-9.13853e-05
-0.0122738
-0.000675564
-0.0121174
-0.00133172
-0.0118076
-0.00207017
-0.0113319
-0.00287835
-0.0106776
-0.0037511
-0.00983255
-0.00468705
-0.0087835
-0.00568295
-0.00751887
-0.00673657
-0.00602737
-0.00784187
-0.00430081
-0.00899308
-0.00233062
-0.0101735
-0.000102946
-0.0114367
0.00237142
-0.0126747
0.0050736
-0.0139037
0.00798797
-0.0150287
0.0111277
-0.016371
0.0144163
-0.0170945
0.0178809
-0.0180552
-0.017598
0.0211661
0.0803455
-0.0270432
-0.0720615
0.0872559
-0.000747886
0.0928094
0.0178881
0.0975664
0.0324198
0.101661
0.0448888
0.103255
0.0562352
0.0984743
0.0651898
0.0841452
0.0685354
0.0611496
0.0634706
0.0352319
0.0502037
0.0137425
0.0330807
0.000489375
0.0180478
-0.00590018
0.00855232
-0.00882316
0.00413933
-0.0103289
0.00252242
-0.0112697
0.00197832
-0.0119856
0.00183005
-0.0126105
0.00177358
-0.0131749
0.00163969
-0.013675
0.00136333
-0.0140817
0.000869853
-0.0143389
0.000164629
-0.0144388
-0.000576739
-0.0143701
-0.00140146
-0.0141212
-0.00232008
-0.0136805
-0.00331997
-0.0130359
-0.00439666
-0.0121748
-0.00554887
-0.0110839
-0.00677472
-0.00975017
-0.00807101
-0.00816134
-0.00943145
-0.00630845
-0.0108466
-0.00418378
-0.0122988
-0.00177392
-0.0138471
0.000908661
-0.0153579
0.00383287
-0.0168285
0.00697174
-0.0181681
0.0103167
-0.0197165
0.0138058
-0.020584
0.0173489
-0.0215985
-0.0209782
0.0207289
0.0946338
-0.03701
-0.0846669
0.102929
-0.00904099
0.109533
0.0112843
0.114802
0.0271521
0.119292
0.0403995
0.123149
0.052379
0.124703
0.0636362
0.120226
0.0730127
0.10615
0.0775462
0.0823424
0.0740109
0.0534461
0.0619767
0.026577
0.0449168
0.00760833
0.0275204
-0.00284522
0.0145922
-0.00786171
0.0075377
-0.0104901
0.00460576
-0.0121023
0.00344093
-0.0132973
0.00296754
-0.0142832
0.00262427
-0.0151349
0.00221374
-0.0158502
0.0015837
-0.0163612
0.000674487
-0.0166715
-0.000267643
-0.016775
-0.00129895
-0.016665
-0.00243108
-0.0163338
-0.00365217
-0.0157727
-0.00495854
-0.0149715
-0.00635107
-0.0139181
-0.00782875
-0.0126003
-0.00938968
-0.0110059
-0.0110264
-0.0091261
-0.0127271
-0.00695543
-0.01447
-0.00448329
-0.0163199
-0.00172634
-0.0181154
0.0012773
-0.0198328
0.00448146
-0.0213729
0.0078511
-0.0230867
0.0113176
-0.0240509
0.0146951
-0.0249763
-0.0241961
0.0179127
0.111707
-0.0490886
-0.0996276
0.121689
-0.0190239
0.129636
0.00333707
0.135857
0.0209316
0.140725
0.0355315
0.144839
0.0482651
0.148438
0.0600374
0.150145
0.0713061
0.146484
0.0812063
0.133562
0.086933
0.110049
0.0854902
0.0787912
0.0761743
0.0465129
0.0597987
0.0204105
0.040694
0.00384169
0.0241061
-0.00491423
0.0133605
-0.00947922
0.00800522
-0.0122557
0.00574263
-0.0142091
0.00457644
-0.0157596
0.00376274
-0.0170364
0.0028591
-0.0179978
0.0016345
-0.018684
0.00041752
-0.0191049
-0.000879245
-0.0192653
-0.00227182
-0.0191679
-0.00375053
-0.018813
-0.00531453
-0.0181972
-0.00696754
-0.0173147
-0.00871224
-0.016157
-0.010548
-0.0147157
-0.0124688
-0.0129838
-0.0144596
-0.0109602
-0.0164945
-0.0086399
-0.0186408
-0.00604681
-0.0207092
-0.00322531
-0.022655
-0.000237151
-0.0243618
0.00286268
-0.0261871
0.00597436
-0.027163
0.00886698
-0.0278692
-0.0269278
0.0115984
0.132129
-0.0638049
-0.117415
0.144207
-0.0311029
0.153794
-0.00625143
0.161279
0.0134459
0.166986
0.0298237
0.171341
0.0439098
0.174968
0.0564106
0.178243
0.0680306
0.180184
0.0792655
0.177742
0.089375
0.166877
0.0963549
0.144881
0.0981704
0.112782
0.0918973
0.0759445
0.0775319
0.042021
0.0580289
0.017044
0.0383371
0.00200163
0.0230465
-0.0061613
0.0139047
-0.0109503
0.00936398
-0.0142106
0.00702175
-0.0166629
0.00530982
-0.0184809
0.00345141
-0.0198515
0.00178676
-0.0208455
0.000113696
-0.0215019
-0.00161678
-0.0218458
-0.00340768
-0.0218963
-0.00526506
-0.0216667
-0.00719809
-0.0211647
-0.00921514
-0.0203935
-0.01132
-0.0193532
-0.0135098
-0.0180446
-0.015769
-0.0164725
-0.0180673
-0.0146418
-0.0204722
-0.012583
-0.0227687
-0.0103463
-0.0248924
-0.00800461
-0.0267041
-0.00561891
-0.0285734
-0.00330432
-0.029478
-0.00128403
-0.02989
-0.0287911
0.000578982
0.156588
-0.0817984
-0.138597
0.17128
-0.0457962
0.1829
-0.0178732
0.19193
0.00441452
0.198791
0.0229622
0.203863
0.0388374
0.207593
0.0526801
0.210614
0.0650095
0.213445
0.076434
0.215548
0.0872716
0.214509
0.0973939
0.20637
0.106309
0.187392
0.110876
0.15658
0.108344
0.117191
0.0974175
0.0761324
0.0793956
0.0410928
0.0580857
0.0165646
0.0384319
0.00183348
0.0240942
-0.00672902
0.0155827
-0.0122737
0.0108534
-0.0160265
0.00720274
-0.0187855
0.00454479
-0.0208707
0.00219721
-0.0224366
-5.1773e-05
-0.0235792
-0.00226668
-0.0243619
-0.00448317
-0.024834
-0.00672736
-0.0250313
-0.00901849
-0.0249813
-0.0113713
-0.0247023
-0.0137893
-0.0242107
-0.0162618
-0.023522
-0.0187563
-0.0226547
-0.0213405
-0.0216412
-0.0237827
-0.0205308
-0.0260035
-0.01939
-0.0278454
-0.0182756
-0.0296884
-0.0172865
-0.0304676
-0.016572
-0.030605
-0.0293694
-0.0159941
0.185914
-0.103851
-0.163864
0.203858
-0.0637413
0.218017
-0.0320327
0.228965
-0.00653469
0.237238
0.0146881
0.243322
0.0327525
0.247638
0.0483635
0.250636
0.0620112
0.252932
0.0741379
0.255141
0.0850625
0.257192
0.0953427
0.257465
0.106035
0.252428
0.115912
0.237801
0.12297
0.210749
0.12447
0.171949
0.118195
0.126268
0.103767
0.0814182
0.0832809
0.0446773
0.0608341
0.0192318
0.0410273
0.00343571
0.0266478
-0.00584247
0.0164798
-0.0120384
0.0107389
-0.0165339
0.00669162
-0.0199387
0.00335107
-0.0225886
0.000382296
-0.0246918
-0.00238174
-0.0263839
-0.00503591
-0.0277677
-0.00763628
-0.0289181
-0.0102214
-0.0298928
-0.012816
-0.0307347
-0.0154203
-0.0314802
-0.018012
-0.0321625
-0.0206585
-0.0328107
-0.0231354
-0.0334567
-0.0253578
-0.0341361
-0.0271669
-0.0348874
-0.0289374
-0.0357359
-0.0296199
-0.0367086
-0.0296326
-0.0284181
-0.0376607
0.221114
-0.130915
-0.194051
0.243089
-0.085717
0.260409
-0.0493539
0.273758
-0.0198849
0.283788
0.00465738
0.291114
0.0254262
0.296272
0.0432052
0.299713
0.0585697
0.301879
0.0719712
0.30333
0.083611
0.304732
0.0939403
0.306458
0.104309
0.307648
0.114721
0.305601
0.125017
0.296128
0.133942
0.275129
0.139194
0.240713
0.138183
0.19479
0.129203
0.143189
0.112435
0.0939506
0.0902643
0.0539065
0.0666908
0.0272966
0.043088
0.0103118
0.0277221
-0.00082833
0.0178298
-0.00870067
0.0112217
-0.0146524
0.00633232
-0.019383
0.00234742
-0.0233128
-0.00110765
-0.026725
-0.0042253
-0.0298133
-0.00713454
-0.0327176
-0.00991264
-0.035544
-0.0125951
-0.0383637
-0.015193
-0.0412374
-0.0177858
-0.0441845
-0.0201889
-0.0472123
-0.0223308
-0.0503034
-0.0240764
-0.053466
-0.0257757
-0.0565979
-0.0264886
-0.0596076
-0.0266236
-0.0257227
-0.0623036
0.263403
-0.164151
-0.230169
0.290359
-0.112673
0.311604
-0.0705995
0.327952
-0.036234
0.340192
-0.00758264
0.34907
0.0165479
0.35526
0.0370147
0.35934
0.0544888
0.361788
0.0695233
0.363019
0.0823789
0.363533
0.0934268
0.364023
0.103819
0.365087
0.113657
0.366591
0.123513
0.366882
0.13365
0.362515
0.143561
0.349005
0.151692
0.322519
0.155689
0.281787
0.153165
0.229352
0.142698
0.171415
0.124627
0.119714
0.0947882
0.0783822
0.0690521
0.0480809
0.0481293
0.0267443
0.0325565
0.0116054
0.021469
0.000391049
0.0135599
-0.008429
0.00771036
-0.0157978
0.00314199
-0.0222953
-0.000638828
-0.0282998
-0.00390935
-0.0340663
-0.00683008
-0.0397641
-0.00949624
-0.0455287
-0.0120224
-0.0513976
-0.0143208
-0.0573685
-0.016361
-0.0633786
-0.0180669
-0.0694194
-0.019736
-0.075263
-0.0206457
-0.0807493
-0.0211384
-0.0208493
-0.0856234
0.314237
-0.204967
-0.273423
0.347334
-0.145771
0.373439
-0.0967056
0.393526
-0.0563211
0.408541
-0.022599
0.419388
0.00570102
0.426885
0.0295173
0.431753
0.0496203
0.434604
0.0666714
0.435926
0.0810563
0.436126
0.0932266
0.435677
0.104268
0.435169
0.114165
0.4353
0.123382
0.436474
0.132475
0.438087
0.141947
0.43788
0.151898
0.431919
0.16165
0.415508
0.169575
0.384839
0.173367
0.338778
0.170686
0.283917
0.149648
0.22631
0.126658
0.172182
0.102255
0.125801
0.0789359
0.0886406
0.058627
0.0599582
0.0422405
0.0379594
0.0297067
0.0207268
0.0203728
0.00665219
0.0134334
-0.00544067
0.00818203
-0.0163438
0.00407108
-0.0265602
0.000718987
-0.0364551
-0.00212905
-0.0461858
-0.0045911
-0.0558264
-0.00672166
-0.0653492
-0.00854493
-0.0748165
-0.01027
-0.0839435
-0.0115194
-0.0925831
-0.0125001
-0.01298
-0.100453
0.340183
-0.250317
-0.294834
0.376971
-0.182559
0.406028
-0.125763
0.42841
-0.0787036
0.445152
-0.0393413
0.457235
-0.00638256
0.465554
0.0211977
0.4709
0.0442738
0.473957
0.0636137
0.475292
0.0797205
0.475362
0.0931555
0.47457
0.10506
0.473267
0.115466
0.471901
0.124748
0.471077
0.133298
0.471424
0.1416
0.473121
0.150201
0.475243
0.159527
0.47527
0.169548
0.469171
0.179464
0.452315
0.187542
0.423075
0.178887
0.382432
0.167299
0.333497
0.151189
0.280662
0.13177
0.228514
0.110773
0.180777
0.0899757
0.139553
0.0709287
0.105258
0.0546658
0.0771359
0.0415537
0.053921
0.0313955
0.0343031
0.0236871
0.0171749
0.017846
0.00163334
0.013411
-0.0128221
0.00986347
-0.0265151
0.00696994
-0.0395998
0.00453908
-0.0523406
0.00246952
-0.0645275
0.000666947
-0.0761504
-0.000878539
-0.00213329
-0.0869976
0.361315
-0.29956
-0.312072
0.401283
-0.222527
0.432898
-0.157379
0.457287
-0.103093
0.47556
-0.0576152
0.488769
-0.0195921
0.497869
0.0120973
0.503705
0.0384373
0.507009
0.0603092
0.508396
0.0783323
0.508381
0.0931702
0.507408
0.106032
0.50581
0.117064
0.503865
0.126693
0.501882
0.13528
0.500313
0.143168
0.49976
0.150752
0.500764
0.158523
0.503316
0.166996
0.506255
0.176524
0.506838
0.186958
0.501102
0.184622
0.486636
0.181764
0.462162
0.175662
0.427997
0.165934
0.385945
0.152823
0.338894
0.137026
0.290224
0.119597
0.243116
0.101772
0.199899
0.0847694
0.16173
0.0695629
0.128715
0.0567003
0.100287
0.0462727
0.0754781
0.0382187
0.0535338
0.0318068
0.033762
0.0267404
0.0156471
0.0226532
-0.00145094
0.0195661
-0.0174772
0.0166927
-0.0326455
0.0142882
0.0121117
-0.0468908
0.384423
-0.352953
-0.33103
0.427786
-0.265892
0.462135
-0.191729
0.488675
-0.129633
0.508597
-0.077538
0.523029
-0.0340246
0.532994
0.00213141
0.5394
0.0320313
0.543029
0.056679
0.544544
0.0768168
0.544499
0.0932147
0.543382
0.107148
0.541573
0.118872
0.539365
0.1289
0.536983
0.137661
0.534642
0.145509
0.53264
0.152753
0.531445
0.159717
0.531645
0.166794
0.533696
0.174472
0.537394
0.183259
0.540592
0.181424
0.541344
0.181011
0.537321
0.179684
0.52651
0.176744
0.507663
0.171668
0.480545
0.164143
0.445974
0.154166
0.405693
0.142052
0.362069
0.128391
0.317657
0.113973
0.274693
0.0996627
0.234722
0.0862423
0.198324
0.0746151
0.165722
0.0644075
0.136643
0.0558175
0.11063
0.0486649
0.0867808
0.0434137
0.0650261
0.0384463
0.0448651
0.0344472
0.030838
0.0261379
0.409542
-0.41078
-0.351718
0.456537
-0.312886
0.49381
-0.229004
0.522656
-0.158479
0.544351
-0.0992349
0.560108
-0.0497809
0.57102
-0.00878251
0.578063
0.0249886
0.582076
0.0526648
0.583772
0.0751208
0.583745
0.0932395
0.582522
0.108372
0.580515
0.120877
0.578066
0.131348
0.575434
0.140292
0.57281
0.148132
0.570347
0.155215
0.568229
0.161835
0.566761
0.168261
0.566427
0.174806
0.567793
0.181891
0.570392
0.178824
0.57393
0.177472
0.57739
0.176223
0.579262
0.174871
0.577832
0.173097
0.571497
0.170477
0.559045
0.166617
0.539868
0.161228
0.514071
0.154186
0.482487
0.145556
0.44655
0.135598
0.408065
0.124727
0.368682
0.113997
0.330061
0.103028
0.293345
0.0925315
0.259197
0.0828119
0.227319
0.0752898
0.198128
0.0676364
0.171235
0.0613383
0.05553
0.146543
0.436749
-0.473348
-0.374181
0.48763
-0.363768
0.528037
-0.26941
0.559353
-0.189796
0.582955
-0.122837
0.60014
-0.0669665
0.612085
-0.0207283
0.619831
0.0172414
0.624282
0.0482128
0.626202
0.0731993
0.626234
0.0932068
0.624935
0.10967
0.622756
0.123056
0.620064
0.134039
0.61716
0.143195
0.614276
0.151015
0.611582
0.157909
0.609198
0.164217
0.607239
0.170219
0.60588
0.176163
0.605449
0.182321
0.605764
0.178507
0.607247
0.175987
0.609993
0.173476
0.613742
0.17112
0.617842
0.168995
0.621306
0.167012
0.622943
0.164978
0.621532
0.162637
0.615999
0.159717
0.605578
0.155976
0.589932
0.151241
0.569218
0.145439
0.543946
0.139268
0.515139
0.131832
0.484031
0.123639
0.451886
0.114955
0.41926
0.107914
0.387398
0.0994966
0.356642
0.0920932
0.0846083
0.327561
0.466143
-0.541
-0.398494
0.521191
-0.418816
0.564955
-0.313175
0.598923
-0.223765
0.624572
-0.148488
0.643296
-0.085691
0.656359
-0.0337918
0.664875
0.00872388
0.669816
0.0432708
0.672002
0.0710121
0.672125
0.0930836
0.670779
0.111014
0.66845
0.125384
0.665534
0.136954
0.662355
0.146373
0.659177
0.154191
0.65621
0.160875
0.653609
0.166817
0.651483
0.172345
0.64991
0.177734
0.648992
0.183238
0.648313
0.179185
0.648208
0.176091
0.64895
0.172732
0.650779
0.16929
0.653807
0.165966
0.657944
0.162873
0.662862
0.160059
0.668002
0.157496
0.672628
0.15509
0.675908
0.152693
0.677019
0.150129
0.675249
0.147207
0.670067
0.144448
0.66121
0.140687
0.648737
0.13611
0.633014
0.130677
0.614294
0.126634
0.593448
0.120341
0.571006
0.114535
0.107795
0.547818
0.497849
-0.614103
-0.424746
0.557368
-0.478337
0.604736
-0.360543
0.641549
-0.26058
0.669399
-0.176337
0.689778
-0.106072
0.704048
-0.0480612
0.713401
-0.000632056
0.718884
0.0377886
0.721373
0.0685211
0.721614
0.0928425
0.720243
0.112383
0.717782
0.127846
0.714653
0.140081
0.711211
0.149816
0.707735
0.157665
0.704463
0.164147
0.701576
0.169701
0.699225
0.174695
0.697512
0.179446
0.696512
0.184237
0.695679
0.180015
0.695178
0.176592
0.695112
0.172796
0.695641
0.168761
0.696957
0.164648
0.699247
0.160582
0.702641
0.156664
0.707166
0.15297
0.712719
0.149536
0.71905
0.14636
0.725784
0.143395
0.73244
0.140549
0.738523
0.138365
0.743473
0.135736
0.746818
0.132765
0.748204
0.129288
0.747394
0.127444
0.7443
0.123433
0.738939
0.119896
0.115246
0.731487
0.532008
-0.693065
-0.453049
0.596332
-0.54266
0.64757
-0.411782
0.687442
-0.300452
0.717655
-0.206551
0.739818
-0.128236
0.755388
-0.0636325
0.765652
-0.0108967
0.771724
0.0317151
0.774553
0.0656915
0.774935
0.0924594
0.773555
0.113763
0.770968
0.130431
0.767634
0.143414
0.763927
0.153521
0.760155
0.161436
0.756565
0.167735
0.753364
0.172902
0.750715
0.177342
0.748758
0.181403
0.747595
0.185398
0.746678
0.180931
0.746129
0.177139
0.745961
0.172963
0.746201
0.168519
0.746909
0.163939
0.748179
0.159311
0.750127
0.154714
0.75288
0.150215
0.756544
0.14587
0.761185
0.141718
0.766802
0.137776
0.773322
0.134028
0.780626
0.131059
0.788469
0.127892
0.796554
0.124678
0.804557
0.121284
0.812264
0.119736
0.819267
0.116429
0.825341
0.11382
0.110402
0.830184
0.568784
-0.778323
-0.483526
0.638272
-0.612151
0.693672
-0.467182
0.736832
-0.343613
0.76959
-0.239309
0.793672
-0.152319
0.810646
-0.0806069
0.821893
-0.0221445
0.828608
0.024999
0.83181
0.0624885
0.832354
0.0919139
0.830974
0.115142
0.828266
0.133138
0.824723
0.146956
0.820746
0.157497
0.816665
0.165517
0.812745
0.171653
0.809208
0.176438
0.806229
0.180319
0.803959
0.183671
0.802522
0.186834
0.801382
0.182069
0.800676
0.177844
0.800413
0.173225
0.800588
0.168342
0.801196
0.163329
0.802239
0.158266
0.803733
0.153218
0.805712
0.148234
0.808224
0.143356
0.811327
0.138614
0.815075
0.134025
0.819511
0.129591
0.824683
0.125885
0.830566
0.122009
0.837097
0.118145
0.844178
0.114203
0.851799
0.112113
0.859711
0.108517
0.867798
0.105733
0.102365
0.875837
0.608351
-0.870361
-0.516317
0.683401
-0.687198
0.74328
-0.527064
0.789981
-0.390313
0.825475
-0.274805
0.851626
-0.17847
0.870111
-0.0990945
0.88242
-0.0344532
0.889831
0.0175861
0.893441
0.0588784
0.894166
0.0911865
0.892795
0.116514
0.889964
0.135967
0.886203
0.150717
0.881941
0.161757
0.877533
0.169925
0.873261
0.175922
0.869362
0.180337
0.866022
0.183656
0.863401
0.186291
0.861628
0.188605
0.860171
0.183524
0.859176
0.178837
0.858664
0.173736
0.858637
0.168369
0.859086
0.162878
0.859999
0.157354
0.861351
0.151864
0.863128
0.146458
0.865309
0.141173
0.867893
0.136031
0.870873
0.131043
0.87426
0.126205
0.878083
0.122061
0.882342
0.117752
0.88703
0.113456
0.892138
0.109096
0.897736
0.106514
0.903726
0.102529
0.910106
0.0993518
0.0956616
0.916811
0.650911
-0.969697
-0.551575
0.731948
-0.768238
0.796655
-0.591769
0.847168
-0.440827
0.885614
-0.313252
0.913992
-0.206849
0.93411
-0.119213
0.947562
-0.0479076
0.955728
0.00942008
0.959779
0.0548251
0.960705
0.0902595
0.959345
0.117872
0.956387
0.138925
0.952393
0.154709
0.947828
0.166321
0.943065
0.174685
0.938413
0.180574
0.934117
0.184631
0.93038
0.187392
0.927366
0.189304
0.925211
0.190758
0.923381
0.185353
0.922024
0.180192
0.921165
0.174594
0.920809
0.168722
0.920956
0.162729
0.921594
0.156713
0.922707
0.15075
0.924265
0.144896
0.926247
0.139191
0.928616
0.133658
0.93135
0.128309
0.934417
0.123136
0.937821
0.118657
0.941525
0.114046
0.945512
0.10947
0.949755
0.104852
0.954324
0.101946
0.959136
0.0977152
0.96422
0.0942692
0.0903398
0.969541
0.696674
-1.07691
-0.589468
0.784171
-0.855733
0.854079
-0.661681
0.908705
-0.495453
0.950334
-0.354883
0.981115
-0.237631
1.00299
-0.141092
1.01768
-0.0625979
1.02666
0.00043877
1.03119
0.0502923
1.03234
0.0891148
1.03099
0.119216
1.0279
0.14202
1.02365
0.158951
1.01876
0.171216
1.01361
0.179831
1.00854
0.185644
1.0038
0.189362
0.999624
0.191571
0.996169
0.192757
0.99358
0.193345
0.991323
0.187607
0.989549
0.181964
0.98828
0.175861
0.987524
0.169476
0.987281
0.16297
0.987539
0.156451
0.988287
0.150001
0.9895
0.143681
0.991155
0.137535
0.993221
0.13159
0.995672
0.125859
0.998469
0.120336
1.00161
0.115516
1.00504
0.11061
1.00874
0.105773
1.01266
0.100931
1.01685
0.097756
1.02122
0.0933447
1.02578
0.089709
0.0856306
1.03049
0.745877
-1.1926
-0.63018
0.84034
-0.950201
0.915866
-0.737206
0.97493
-0.55452
1.02
-0.399949
1.05337
-0.27101
1.07715
-0.164874
1.09318
-0.078625
1.10304
-0.00942495
1.10809
0.0452394
1.10947
0.0877345
1.10814
0.120542
1.1049
0.145265
1.10038
0.163466
1.09512
0.176472
1.08955
0.185398
1.08402
0.191176
1.0788
0.194578
1.07412
0.196245
1.07017
0.196709
1.06709
0.196426
1.06435
0.190348
1.06209
0.184214
1.06036
0.177596
1.05914
0.170689
1.05845
0.163662
1.05826
0.156633
1.05857
0.149688
1.05936
0.142895
1.06059
0.136299
1.06225
0.129932
1.0643
0.123808
1.06671
0.117923
1.06947
0.11275
1.07254
0.107536
1.07589
0.102428
1.07946
0.0973551
1.08331
0.0939093
1.08733
0.0893206
1.09154
0.0855062
0.0812979
1.09587
0.798769
-1.31747
-0.673906
0.900761
-1.05219
0.982351
-0.818801
1.04621
-0.618381
1.09499
-0.44873
1.13118
-0.307196
1.15701
-0.190714
1.17449
-0.0960987
1.1853
-0.020245
1.19092
0.0396233
1.19255
0.0860981
1.19124
0.121852
1.18783
0.148673
1.18301
0.168279
1.17736
0.182125
1.17132
0.191431
1.16528
0.197218
1.15952
0.200333
1.15429
0.201473
1.14978
0.201219
1.14614
0.200065
1.14284
0.193642
1.14004
0.187008
1.13777
0.179866
1.13603
0.172425
1.13482
0.164867
1.13414
0.157317
1.13395
0.149869
1.13425
0.142593
1.13501
0.135541
1.13619
0.128746
1.13778
0.122223
1.13973
0.115969
1.14204
0.110438
1.14467
0.104908
1.14757
0.0995228
1.15072
0.0942109
1.15414
0.090489
1.15774
0.0857154
1.16153
0.0817159
0.0773722
1.16546
0.85563
-1.45224
-0.72086
0.965752
-1.16232
1.0539
-0.906951
1.12295
-0.687432
1.17575
-0.501529
1.21497
-0.346421
1.24304
-0.218782
1.26208
-0.115141
1.27393
-0.0321002
1.28015
0.0333965
1.28206
0.0841853
1.28077
0.123143
1.27718
0.152262
1.27204
0.173421
1.26594
0.188214
1.2594
0.197977
1.25278
0.203827
1.24643
0.206687
1.24058
0.207321
1.23543
0.206359
1.23116
0.204336
1.22724
0.197563
1.22382
0.190421
1.22094
0.182743
1.21861
0.174757
1.21682
0.166654
1.21556
0.158569
1.21482
0.150604
1.21458
0.142835
1.21481
0.135315
1.21547
0.128079
1.21655
0.121147
1.218
0.114517
1.21982
0.108618
1.22196
0.102767
1.22438
0.0970957
1.22706
0.0915371
1.23001
0.0875331
1.23316
0.0825666
1.2365
0.0783742
0.0738871
1.23999
0.91675
-1.59772
-0.771272
1.03567
-1.28124
1.13092
-1.0022
1.20558
-0.762096
1.26273
-0.558682
1.30525
-0.388939
1.33573
-0.249267
1.35647
-0.135883
1.36945
-0.0450794
1.37634
0.0265069
1.37855
0.0819724
1.37727
0.124417
1.37348
0.156049
1.36798
0.178925
1.3614
0.194785
1.35429
0.205092
1.34705
0.211064
1.34002
0.21371
1.33348
0.213862
1.32763
0.212205
1.32264
0.20932
1.31801
0.202189
1.3139
0.194531
1.31034
0.186306
1.30733
0.177759
1.30488
0.169096
1.30299
0.160461
1.30163
0.151962
1.30078
0.143682
1.30041
0.135678
1.3005
0.127989
1.30101
0.120633
1.30192
0.113611
1.3032
0.107333
1.30482
0.101146
1.30674
0.0951774
1.30892
0.0893604
1.31138
0.0850638
1.31406
0.0798934
1.31693
0.0754975
0.0708565
1.31996
0.982456
-1.75479
-0.825387
1.1109
-1.40969
1.21383
-1.10513
1.29458
-0.842848
1.35645
-0.620553
1.40254
-0.435029
1.43565
-0.282376
1.45824
-0.158474
1.47244
-0.0592807
1.48004
0.0188954
1.48258
0.0794332
1.48133
0.125673
1.47732
0.160055
1.47141
0.184826
1.46431
0.201888
1.45656
0.212836
1.44863
0.218999
1.44086
0.221477
1.43354
0.221177
1.4269
0.218844
1.42111
0.215106
1.41569
0.207612
1.41079
0.199427
1.40646
0.19064
1.40269
0.181517
1.39951
0.172276
1.3969
0.163071
1.39484
0.154019
1.39331
0.145208
1.39229
0.136701
1.39174
0.128537
1.39164
0.120738
1.39194
0.113306
1.39264
0.10663
1.3937
0.100091
1.39507
0.0938073
1.39671
0.0877152
1.39866
0.0831105
1.40084
0.0777204
1.40323
0.0731061
0.0682968
1.40579
1.05309
-1.92441
-0.883469
1.19185
-1.54845
1.30311
-1.2164
1.39046
-0.930195
1.45745
-0.687546
1.50742
-0.485
1.54338
-0.318338
1.56799
-0.183077
1.58352
-0.074814
1.59192
0.0104963
1.59481
0.0765371
1.59358
0.126909
1.58933
0.164301
1.58299
0.191166
1.5753
0.209578
1.56686
0.221275
1.55815
0.227707
1.54955
0.230073
1.54137
0.229358
1.53384
0.226372
1.52715
0.221795
1.52083
0.213928
1.51505
0.205206
1.50985
0.195843
1.50524
0.186125
1.50124
0.176284
1.49782
0.166486
1.49499
0.156858
1.4927
0.147492
1.49095
0.138457
1.48969
0.129794
1.4889
0.121529
1.48854
0.113664
1.48861
0.106567
1.48905
0.0996532
1.48982
0.0930337
1.49089
0.0866455
1.49229
0.0817123
1.49393
0.0760828
1.49581
0.0712311
0.0662351
1.49787
1.12902
-2.10762
-0.945801
1.27896
-1.69841
1.39927
-1.3367
1.49378
-1.02471
1.56634
-0.760106
1.62053
-0.539194
1.6596
-0.357408
1.6864
-0.209875
1.70339
-0.0918014
1.71265
0.00123479
1.71594
0.0732493
1.71472
0.128121
1.71021
0.168811
1.70339
0.197988
1.69505
0.217914
1.68584
0.230484
1.67628
0.237275
1.66676
0.23959
1.65761