/*--------------------------------*- C++ -*----------------------------------*\
| =========                 |                                                 |
| \\      /  F ield         | OpenFOAM: The Open Source CFD Toolbox           |
|  \\    /   O peration     | Version:  5.x                                   |
|   \\  /    A nd           | Web:      www.OpenFOAM.org                      |
|    \\/     M anipulation  |                                                 |
\*---------------------------------------------------------------------------*/
FoamFile
{
    version     2.0;
    format      ascii;
    class       volVectorField;
    location    "350";
    object      U;
}
// * * * * * * * * * * * * * * * * * * * * * * * * * * * * * * * * * * * * * //

dimensions      [0 1 -1 0 0 0 0];

internalField   nonuniform List<vector> 
11040
(
(1.69264 2.17248 0)
(1.84357 7.87697 -1.06732e-19)
(4.31668 12.8159 1.10315e-17)
(7.65329 15.6198 1.43636e-17)
(11.175 16.8326 3.83154e-17)
(14.4229 16.8688 -2.11925e-17)
(17.2027 16.0941 -2.21567e-17)
(19.4777 14.8115 2.35322e-17)
(21.1767 13.1544 5.63514e-17)
(22.2192 11.1902 1.83749e-18)
(22.3447 8.80021 3.13471e-17)
(21.8407 6.53731 -1.97724e-18)
(21.3673 4.92596 3.26467e-17)
(21.2337 3.91357 3.44817e-17)
(21.1245 3.05618 3.04388e-17)
(20.856 2.24099 2.02057e-17)
(20.4449 1.49592 -1.81442e-17)
(19.9577 0.831962 -1.96826e-18)
(19.4258 0.241017 1.9953e-18)
(18.8611 -0.283534 1.54881e-17)
(18.2633 -0.743884 1.51791e-17)
(17.7265 -1.11101 1.58411e-17)
(17.24 -1.38694 3.05171e-17)
(16.7587 -1.61898 1.96767e-18)
(16.2822 -1.8154 -2.55129e-20)
(15.8111 -1.98072 -9.81271e-19)
(15.3445 -2.11905 6.10226e-17)
(14.8798 -2.23372 -9.32554e-19)
(14.4142 -2.32733 6.09161e-17)
(13.9441 -2.40189 -5.85304e-17)
(13.4649 -2.45884 -9.34316e-19)
(12.9704 -2.49895 -4.49793e-19)
(12.4529 -2.52211 4.6058e-19)
(11.9025 -2.52712 0)
(11.3025 -2.51156 -1.14721e-16)
(10.6353 -2.47104 0)
(9.87011 -2.39617 0)
(8.98133 -2.27801 2.21057e-19)
(7.82698 -2.07725 -5.9384e-21)
(6.54622 -1.78783 1.26355e-16)
(3.83113 -1.4151 2.95522e-16)
(2.82506 2.9414 0)
(3.32886 7.36935 0)
(6.15922 11.1286 -6.64133e-18)
(9.62228 13.3098 8.83761e-18)
(13.1591 14.2417 -2.32477e-17)
(16.3938 14.2277 2.82827e-17)
(19.1515 13.5399 1.47887e-17)
(21.38 12.3937 2.123e-18)
(23.1399 10.9886 -1.00717e-18)
(24.5171 9.48827 2.22829e-17)
(25.4337 7.77562 -2.49724e-18)
(25.5274 6.18079 0)
(25.0722 4.98282 0)
(24.5625 4.07273 -2.08872e-17)
(24.1696 3.14799 -2.35913e-17)
(23.7303 2.26747 -1.84092e-17)
(23.226 1.48461 0)
(22.68 0.788645 1.27516e-18)
(22.0964 0.165333 -3.80979e-18)
(21.4738 -0.389001 -2.49466e-18)
(20.8119 -0.876174 -1.09397e-17)
(20.1975 -1.26222 -1.02746e-17)
(19.653 -1.55505 -1.25718e-18)
(19.1197 -1.8044 2.14864e-17)
(18.5954 -2.01751 -1.87534e-17)
(18.0793 -2.19786 -1.2679e-18)
(17.5709 -2.34993 -3.91198e-17)
(17.0682 -2.47718 5.96284e-19)
(16.5689 -2.58229 -3.88071e-17)
(16.0701 -2.66743 3.77021e-17)
(15.568 -2.73423 3.77569e-17)
(15.0577 -2.78361 -3.78014e-17)
(14.5327 -2.81558 1.78743e-20)
(13.9854 -2.82899 8.37473e-19)
(13.4026 -2.82198 3.45991e-17)
(12.7709 -2.78998 0)
(12.0646 -2.72348 2.57137e-19)
(11.2712 -2.61483 -6.60439e-17)
(10.255 -2.42187 -6.4515e-17)
(9.20372 -2.15922 -6.30871e-17)
(6.76011 -1.59963 -2.06048e-16)
(4.45706 3.38634 0)
(5.17739 6.91955 0)
(7.26898 10.0567 1.98922e-18)
(9.92974 12.16 -5.84615e-18)
(12.7917 13.3503 6.81285e-18)
(15.5922 13.7299 -1.00495e-17)
(18.1471 13.4363 -9.5974e-18)
(20.3524 12.6243 0)
(22.1554 11.4366 -1.81617e-17)
(23.5738 9.98499 -1.15671e-17)
(24.594 8.27356 0)
(25.0356 6.6826 0)
(25.0319 5.44236 -1.56744e-17)
(24.8994 4.4562 -1.58498e-17)
(24.7522 3.47955 -1.98852e-18)
(24.4978 2.56088 2.02911e-18)
(24.1312 1.73598 0)
(23.6928 0.993944 0)
(23.1994 0.323751 9.90494e-19)
(22.6532 -0.277008 -1.91264e-18)
(22.0551 -0.809254 1.92402e-18)
(21.4864 -1.23229 -6.02737e-18)
(20.9712 -1.55782 -5.04434e-20)
(20.4586 -1.83727 1.27493e-17)
(19.9489 -2.07725 1.00836e-18)
(19.4422 -2.28168 9.26496e-19)
(18.9385 -2.45526 8.24276e-21)
(18.4369 -2.60165 -9.4592e-19)
(17.9358 -2.72372 0)
(17.4326 -2.82377 0)
(16.924 -2.90348 -5.69558e-17)
(16.4056 -2.96384 5.55364e-17)
(15.8716 -3.00488 -2.70357e-17)
(15.315 -3.0255 0)
(14.7239 -3.02353 -2.63246e-17)
(14.0869 -2.99424 -2.57383e-17)
(13.3821 -2.92838 0)
(12.6032 -2.81533 -2.56534e-19)
(11.6324 -2.62086 1.88742e-19)
(10.682 -2.32585 0)
(8.6511 -1.82113 9.13186e-17)
(6.11504 3.68447 -1.04266e-19)
(6.86003 6.5226 1.242e-19)
(8.4538 9.09322 1.51782e-18)
(10.5795 10.9636 0)
(12.9819 12.1536 -1.04652e-17)
(15.4453 12.6663 0)
(17.7917 12.5645 2.18336e-17)
(19.891 11.9585 -2.45872e-19)
(21.6579 10.9684 2.5015e-18)
(23.0605 9.71632 1.91177e-17)
(24.0652 8.22459 2.81387e-18)
(24.5782 6.74025 8.74387e-18)
(24.704 5.50748 2.75199e-17)
(24.6954 4.52096 1.24873e-17)
(24.6651 3.58676 0)
(24.5418 2.69468 -3.10983e-18)
(24.3016 1.87502 6.03323e-20)
(23.9761 1.12839 -3.0648e-18)
(23.5866 0.447767 -1.52898e-18)
(23.1388 -0.168475 1.54848e-18)
(22.6343 -0.719725 5.9972e-18)
(22.144 -1.16336 6.38991e-18)
(21.6905 -1.50844 0)
(21.2311 -1.80678 -2.66483e-17)
(20.767 -2.06485 1.40009e-17)
(20.2996 -2.28676 -1.22851e-17)
(19.8298 -2.47687 2.42446e-17)
(19.3578 -2.63874 0)
(18.8823 -2.77515 0)
(18.4015 -2.88834 0)
(17.9126 -2.97995 2.26767e-17)
(17.412 -3.05094 -2.29292e-17)
(16.8948 -3.1013 6.97086e-19)
(16.3546 -3.12981 2.19707e-17)
(15.7808 -3.13414 2.01189e-17)
(15.1637 -3.10921 2.05603e-17)
(14.4838 -3.04614 3.93983e-17)
(13.7375 -2.93134 3.74953e-17)
(12.8222 -2.73976 1.46644e-19)
(11.9363 -2.41825 3.44515e-17)
(10.2217 -1.96356 -3.39906e-17)
(7.67301 3.8542 0)
(8.398 6.13103 -5.41602e-19)
(9.64572 8.20359 -1.21223e-18)
(11.31 9.82798 2.09787e-19)
(13.264 10.9823 7.40495e-18)
(15.3538 11.6096 -9.74524e-18)
(17.435 11.7103 -8.31008e-19)
(19.3767 11.3386 -1.35175e-17)
(21.0729 10.5798 0)
(22.4707 9.53184 -1.79416e-17)
(23.5296 8.22694 0)
(24.1554 6.85313 -4.8056e-18)
(24.3968 5.64387 -1.45675e-17)
(24.4584 4.64697 0)
(24.4719 3.72293 9.79003e-18)
(24.4076 2.83767 0)
(24.2371 2.01743 0)
(23.9811 1.26817 2.53195e-18)
(23.6602 0.582837 2.49381e-18)
(23.2814 -0.041312 0)
(22.8472 -0.60317 -4.83056e-18)
(22.4201 -1.05887 0)
(22.0215 -1.41599 0)
(21.6153 -1.7268 1.01689e-17)
(21.2025 -1.99762 0)
(20.784 -2.23256 -9.98424e-18)
(20.3604 -2.43561 -1.97505e-17)
(19.9315 -2.61017 0)
(19.4963 -2.75886 0)
(19.0533 -2.88373 0)
(18.6005 -2.98625 -1.96963e-17)
(18.135 -3.06723 -1.64756e-17)
(17.6525 -3.12656 1.72481e-17)
(17.1476 -3.16291 5.34036e-19)
(16.611 -3.17374 -5.38371e-19)
(16.0348 -3.15365 0)
(15.4026 -3.09407 -3.18942e-17)
(14.7136 -2.97898 3.07205e-17)
(13.8806 -2.79078 -2.95004e-17)
(13.0806 -2.45605 -2.73919e-17)
(11.648 -2.02981 -5.38375e-20)
(9.11252 3.91517 2.01451e-19)
(9.7874 5.73622 2.82829e-19)
(10.7823 7.39384 -1.74415e-18)
(12.0783 8.77024 1.15118e-18)
(13.64 9.83666 -1.74537e-18)
(15.3711 10.5141 9.7509e-18)
(17.1676 10.7661 -1.20064e-17)
(18.9161 10.6013 1.07943e-17)
(20.5056 10.0672 6.07214e-18)
(21.867 9.23841 -3.2783e-18)
(22.9572 8.15277 0)
(23.6892 6.93782 0)
(24.059 5.78802 3.84006e-18)
(24.2074 4.78976 -3.9518e-18)
(24.2653 3.87049 -1.59023e-17)
(24.2425 2.99345 3.99015e-18)
(24.119 2.17501 -8.04874e-18)
(23.9084 1.42385 5.96566e-20)
(23.6311 0.734793 -3.95454e-18)
(23.2962 0.104657 7.9254e-18)
(22.9068 -0.465007 -9.78682e-18)
(22.5203 -0.929318 4.15208e-18)
(22.1577 -1.29491 -2.09481e-18)
(21.7874 -1.6143 -2.03832e-18)
(21.4108 -1.89373 1.02707e-17)
(21.0291 -2.1375 2.74991e-20)
(20.6427 -2.34951 1.81806e-17)
(20.2515 -2.533 1.39437e-17)
(19.8544 -2.6905 0)
(19.4501 -2.82394 0)
(19.0363 -2.9347 1.43824e-17)
(18.6104 -3.02346 3.10079e-17)
(18.1686 -3.09001 9.05586e-19)
(17.7066 -3.13284 -1.44043e-17)
(17.2164 -3.14923 -1.4876e-17)
(16.6924 -3.13354 1.40044e-17)
(16.1211 -3.07772 -4.18849e-19)
(15.505 -2.96429 -5.04021e-17)
(14.7734 -2.78172 4.82292e-17)
(14.0805 -2.44811 -8.61413e-20)
(12.9278 -2.04984 -2.18124e-17)
(10.4218 3.88707 0)
(11.032 5.34004 8.72704e-19)
(11.8378 6.6603 3.0401e-18)
(12.8501 7.80219 1.20798e-18)
(14.0828 8.7475 5.17836e-18)
(15.4852 9.42044 6.05793e-18)
(16.9923 9.77014 -1.08805e-17)
(18.5186 9.77587 3.91611e-18)
(19.9645 9.45113 0)
(21.2559 8.84132 5.47081e-18)
(22.3471 7.97931 -1.1242e-17)
(23.159 6.94847 1.17139e-17)
(23.6515 5.89717 -5.64116e-20)
(23.903 4.92742 0)
(24.0242 4.02415 3.30774e-18)
(24.0505 3.16255 2.03823e-20)
(23.975 2.35052 3.29877e-18)
(23.8078 1.59898 3.31174e-18)
(23.5681 0.906965 -1.62756e-18)
(23.268 0.271913 -2.81039e-18)
(22.9123 -0.304314 3.30713e-18)
(22.555 -0.775942 3.43556e-18)
(22.217 -1.14885 0)
(21.8704 -1.4755 -3.33718e-18)
(21.5173 -1.7619 -6.65403e-18)
(21.1591 -2.01246 8.41621e-18)
(20.7967 -2.23091 -4.9293e-18)
(20.4303 -2.42044 -1.31243e-17)
(20.0593 -2.58364 1.59847e-18)
(19.6827 -2.72246 -4.28603e-20)
(19.2986 -2.83829 9.43886e-18)
(18.9047 -2.93171 3.08134e-18)
(18.498 -3.00242 1.06091e-17)
(18.0748 -3.04885 0)
(17.6285 -3.06825 1.15757e-17)
(17.1552 -3.05499 -1.19306e-17)
(16.6451 -3.00164 1.12627e-17)
(16.103 -2.89051 4.17631e-17)
(15.4767 -2.71462 -1.95627e-17)
(14.8929 -2.39476 -7.16156e-20)
(14.0091 -2.02598 3.59002e-17)
(11.5956 3.79013 -1.13111e-18)
(12.137 4.94728 3.48205e-19)
(12.7983 5.99623 1.21614e-19)
(13.5966 6.92771 -3.92027e-18)
(14.5646 7.73686 -2.33123e-18)
(15.6816 8.36352 -7.79773e-18)
(16.9139 8.75825 6.04372e-18)
(18.2058 8.887 1.02231e-17)
(19.4792 8.73943 -7.10126e-18)
(20.666 8.33392 0)
(21.7211 7.69179 -4.65471e-18)
(22.5746 6.86136 -1.83858e-19)
(23.1665 5.94539 -1.91993e-19)
(23.5236 5.04049 5.04668e-18)
(23.7236 4.17187 5.22736e-18)
(23.8111 3.33621 -5.3054e-18)
(23.7922 2.53919 0)
(23.6754 1.79281 0)
(23.4786 1.10089 6.69221e-18)
(23.2156 0.462796 -5.74901e-18)
(22.8933 -0.118936 2.60072e-18)
(22.5632 -0.597254 -2.86425e-18)
(22.2466 -0.977058 -2.77113e-18)
(21.9195 -1.31042 0)
(21.5847 -1.60315 -2.72764e-18)
(21.2441 -1.85967 2.77321e-18)
(20.8988 -2.08365 5.44705e-18)
(20.5495 -2.27824 0)
(20.196 -2.44594 0)
(19.8377 -2.58865 -1.29505e-18)
(19.4733 -2.70762 -1.03219e-17)
(19.1013 -2.80342 -8.89597e-18)
(18.7194 -2.87575 -1.87598e-17)
(18.3247 -2.92317 -1.24269e-18)
(17.9125 -2.94305 0)
(17.4805 -2.92992 5.70869e-19)
(17.0221 -2.87717 -9.57257e-18)
(16.5435 -2.76835 1.09931e-19)
(16.0107 -2.59923 -1.69337e-17)
(15.5191 -2.30291 -1.53998e-17)
(14.8626 -1.9616 -1.49246e-17)
(12.6343 3.64233 6.43942e-19)
(13.1094 4.56283 1.0737e-20)
(13.6578 5.39479 -1.52903e-18)
(14.295 6.14494 3.4569e-18)
(15.056 6.81839 0)
(15.9366 7.37281 4.43393e-18)
(16.9238 7.76837 -9.28412e-18)
(17.987 7.97038 -5.94563e-18)
(19.0721 7.95643 5.66495e-18)
(20.1251 7.72516 6.79322e-18)
(21.1067 7.28484 4.3634e-19)
(21.9581 6.65692 -1.48824e-17)
(22.6133 5.90298 0)
(23.0625 5.09982 4.10752e-18)
(23.3473 4.2925 -8.43764e-18)
(23.5059 3.49944 -4.2506e-18)
(23.5521 2.73061 -4.36095e-18)
(23.4951 1.9992 4.42545e-18)
(23.35 1.31362 -2.18899e-18)
(23.1316 0.676592 0)
(22.8485 0.0919623 5.44278e-18)
(22.5492 -0.391533 -9.21393e-18)
(22.2563 -0.777517 6.8157e-18)
(21.95 -1.11724 -6.98907e-20)
(21.6338 -1.41608 -4.47986e-18)
(21.3101 -1.67837 4.55071e-18)
(20.9806 -1.90765 0)
(20.6464 -2.10693 -1.09899e-17)
(20.3077 -2.27862 -4.3452e-18)
(19.9643 -2.42457 -2.18147e-18)
(19.6155 -2.54599 8.47745e-18)
(19.2601 -2.64342 2.05927e-18)
(18.8968 -2.71657 -2.07058e-18)
(18.5236 -2.76404 9.89515e-19)
(18.1372 -2.78331 5.89224e-18)
(17.7369 -2.76939 9.72671e-19)
(17.3195 -2.71664 0)
(16.8911 -2.61119 -1.47367e-17)
(16.4332 -2.44967 1.41687e-17)
(16.0117 -2.1836 1.30217e-17)
(15.519 -1.87012 0)
(13.5429 3.45943 0)
(13.9569 4.19125 0)
(14.4155 4.85002 0)
(14.9305 5.44819 -9.25623e-18)
(15.5322 5.99645 6.60451e-18)
(16.2238 6.46758 -3.44755e-18)
(17.0038 6.83325 -4.01143e-18)
(17.8588 7.06494 -3.49487e-19)
(18.7558 7.13784 4.59052e-18)
(19.6575 7.04007 5.41632e-18)
(20.5344 6.76967 -5.57507e-18)
(21.3407 6.32909 6.40418e-18)
(22.015 5.74728 -2.61019e-19)
(22.5275 5.07522 6.6361e-18)
(22.8888 4.35922 -1.36848e-17)
(23.1212 3.6312 1.05811e-17)
(23.238 2.9084 7.13224e-18)
(23.2481 2.20637 -7.22359e-18)
(23.164 1.53757 3.62739e-18)
(22.9995 0.908891 0)
(22.764 0.326406 8.04491e-18)
(22.5024 -0.159088 -5.68074e-18)
(22.2384 -0.549434 -1.84526e-18)
(21.9572 -0.894389 3.70396e-18)
(21.6631 -1.19871 -7.43565e-18)
(21.3592 -1.46638 0)
(21.0478 -1.70074 0)
(20.7303 -1.90457 3.68165e-18)
(20.4075 -2.08017 1.79145e-17)
(20.0796 -2.22928 7.03949e-18)
(19.7465 -2.35307 -6.96577e-18)
(19.4075 -2.45203 -1.68768e-18)
(19.0619 -2.5259 8.42768e-18)
(18.7086 -2.57347 1.62305e-18)
(18.3454 -2.59252 -9.65165e-18)
(17.9727 -2.57877 1.5955e-18)
(17.5902 -2.52745 6.13252e-18)
(17.203 -2.42794 -7.27432e-19)
(16.8042 -2.27695 -1.07795e-17)
(16.4368 -2.04469 0)
(16.0493 -1.76423 0)
(14.3294 3.25491 0)
(14.6886 3.83652 0)
(15.0745 4.35714 -1.96098e-20)
(15.4953 4.83035 5.36724e-18)
(15.9751 5.26911 0)
(16.5191 5.65713 6.21728e-18)
(17.1311 5.97602 3.36022e-18)
(17.8075 6.20525 0)
(18.5308 6.32332 -8.06355e-18)
(19.2784 6.31539 3.63472e-18)
(20.0314 6.17415 -5.21748e-19)
(20.7576 5.89088 4.8308e-18)
(21.4069 5.47228 -5.43244e-18)
(21.9437 4.94512 0)
(22.3583 4.34506 -1.10311e-17)
(22.655 3.706 1.1362e-17)
(22.8404 3.05026 0)
(22.9203 2.39602 0)
(22.9034 1.75895 2.94473e-18)
(22.8009 1.15001 -1.19105e-17)
(22.6217 0.578125 5.8756e-18)
(22.4056 0.0963529 0)
(22.1771 -0.294682 -6.07109e-18)
(21.9272 -0.642283 1.1083e-19)
(21.6608 -0.950312 6.14994e-18)
(21.3815 -1.22219 -2.98955e-18)
(21.0923 -1.46085 0)
(20.7953 -1.66878 0)
(20.4918 -1.84806 2.84409e-18)
(20.1826 -2.0003 -1.15425e-17)
(19.8678 -2.12658 5.68028e-18)
(19.5477 -2.22739 -5.65149e-18)
(19.2219 -2.30253 -2.78234e-18)
(18.8903 -2.35104 0)
(18.5517 -2.3711 -3.97517e-18)
(18.2072 -2.35934 -3.78352e-20)
(17.8583 -2.31202 -1.13134e-17)
(17.5093 -2.22194 0)
(17.1595 -2.086 9.38555e-18)
(16.8376 -1.88865 -9.21039e-18)
(16.5175 -1.64777 0)
(15.0033 3.03997 0)
(15.314 3.50196 2.57316e-18)
(15.64 3.91238 -2.28408e-18)
(15.987 4.28419 0)
(16.3731 4.63062 -5.29072e-18)
(16.8034 4.94255 -2.28525e-19)
(17.2831 5.20881 2.30125e-17)
(17.8135 5.41597 -3.03073e-17)
(18.3865 5.54784 1.90334e-17)
(18.9902 5.59111 1.75207e-17)
(19.6145 5.53735 -1.4534e-17)
(20.2397 5.37351 -4.04044e-18)
(20.8289 5.09335 8.27692e-18)
(21.3498 4.70588 -4.32291e-18)
(21.7843 4.23266 1.39413e-17)
(22.1237 3.70074 -9.2371e-18)
(22.365 3.13205 -4.65284e-18)
(22.5088 2.54549 -2.36279e-18)
(22.5588 1.95824 -8.46416e-18)
(22.5222 1.38425 1.83206e-17)
(22.4057 0.835148 -9.69678e-18)
(22.242 0.365872 -3.08517e-19)
(22.0555 -0.0197733 -1.25394e-18)
(21.8431 -0.365401 0)
(21.6105 -0.673699 7.36704e-18)
(21.3616 -0.947247 -2.47509e-18)
(21.1001 -1.18837 -7.22036e-18)
(20.8286 -1.39912 4.85734e-18)
(20.549 -1.58126 -9.47984e-18)
(20.2627 -1.73621 4.74634e-18)
(19.9705 -1.86492 0)
(19.673 -1.96789 6.8619e-18)
(19.3708 -2.04503 2.26729e-18)
(19.0642 -2.09567 -2.17072e-18)
(18.7531 -2.11852 1.29165e-17)
(18.4391 -2.11115 2.08591e-18)
(18.1248 -2.07095 4.09967e-18)
(17.8137 -1.99366 -4.02576e-18)
(17.508 -1.87708 -3.92355e-18)
(17.227 -1.71438 7.26607e-18)
(16.955 -1.51676 2.31942e-19)
(15.5751 2.82356 0)
(15.843 3.19013 -1.33057e-19)
(16.1192 3.51264 -2.17189e-18)
(16.4073 3.80292 -9.10209e-18)
(16.7207 4.07342 4.29074e-18)
(17.0636 4.31941 -5.09099e-18)
(17.4409 4.53446 -5.34935e-18)
(17.8557 4.71039 2.04933e-17)
(18.305 4.83606 -5.52234e-18)
(18.7833 4.90134 -1.15536e-17)
(19.2869 4.89909 1.84996e-17)
(19.8049 4.81643 -1.26688e-17)
(20.3129 4.64196 -6.67557e-18)
(20.7864 4.37403 3.67634e-18)
(21.2068 4.02221 0)
(21.5593 3.60352 0)
(21.8344 3.1348 1.95717e-17)
(22.0267 2.63254 2.14657e-18)
(22.1347 2.11305 -1.58453e-17)
(22.1609 1.59116 1.01875e-18)
(22.1083 1.08003 -8.90913e-18)
(22.0004 0.634961 1.64804e-17)
(21.8605 0.263351 -8.10732e-18)
(21.6909 -0.0733586 0)
(21.4974 -0.37643 9.9071e-19)
(21.2844 -0.647361 -7.88553e-18)
(21.0559 -0.887649 9.94452e-18)
(20.8152 -1.09875 -7.74004e-18)
(20.5647 -1.28199 5.88141e-18)
(20.3062 -1.4385 0)
(20.0412 -1.5691 -3.74973e-18)
(19.7709 -1.67424 -7.38384e-18)
(19.4964 -1.75397 3.68775e-18)
(19.2186 -1.80794 -3.54125e-18)
(18.9382 -1.83541 -1.69071e-18)
(18.6572 -1.8349 3.456e-18)
(18.3787 -1.80488 -5.08373e-18)
(18.1056 -1.74328 3.27021e-18)
(17.8405 -1.64914 2.39239e-18)
(17.5972 -1.52011 4.04461e-19)
(17.3644 -1.36519 -5.75232e-18)
(16.0554 2.61254 2.06214e-18)
(16.2859 2.90284 8.37319e-18)
(16.5202 3.1552 -7.93441e-18)
(16.7606 3.38033 0)
(17.0168 3.58942 6.95101e-20)
(17.2922 3.78032 0)
(17.5907 3.94947 2.60808e-17)
(17.9156 4.09217 -2.1955e-17)
(18.2665 4.20121 -1.88212e-17)
(18.6414 4.26958 2.38674e-17)
(19.0396 4.2922 -1.01624e-17)
(19.4563 4.25847 5.22863e-18)
(19.8767 4.15663 5.69038e-18)
(20.2841 3.98051 1.17056e-17)
(20.6638 3.73193 3.16354e-19)
(21.001 3.419 -1.22596e-17)
(21.2835 3.05195 9.6707e-18)
(21.5021 2.64254 -1.2758e-17)
(21.6513 2.20392 0)
(21.7289 1.74945 -1.30747e-17)
(21.734 1.29192 8.7572e-19)
(21.6803 0.884417 1.28208e-17)
(21.5881 0.537495 -1.00753e-19)
(21.4638 0.218747 0)
(21.3129 -0.0715647 -8.21115e-19)
(21.1399 -0.333699 -7.97727e-19)
(20.9489 -0.56817 0)
(20.7436 -0.775685 0)
(20.5267 -0.957041 2.18141e-20)
(20.3007 -1.11298 0)
(20.0673 -1.24411 4.59073e-18)
(19.8284 -1.35082 0)
(19.5854 -1.43326 -5.89264e-18)
(19.3399 -1.49137 5.8577e-18)
(19.093 -1.52494 0)
(18.8469 -1.53324 -2.80347e-18)
(18.6046 -1.51569 2.74438e-18)
(18.3688 -1.47171 -1.37295e-18)
(18.1417 -1.40137 -3.98802e-18)
(17.9327 -1.30439 3.20188e-19)
(17.7341 -1.18871 7.18699e-18)
(16.4549 2.4119 -5.58297e-18)
(16.6527 2.64108 -2.23373e-19)
(16.8516 2.83745 3.65759e-18)
(17.0528 3.01074 7.24483e-18)
(17.2635 3.17075 1.83714e-17)
(17.4861 3.31674 -2.19125e-17)
(17.7239 3.44683 2.27728e-20)
(17.9797 3.55845 1.55558e-17)
(18.2538 3.6471 -3.16245e-17)
(18.546 3.70826 -4.52133e-19)
(18.8572 3.73863 2.10082e-17)
(19.1856 3.7304 -8.82451e-18)
(19.5228 3.67371 1.84675e-17)
(19.8586 3.56162 -2.78439e-17)
(20.1828 3.39225 4.78747e-18)
(20.4837 3.16784 0)
(20.7497 2.89295 2.34867e-17)
(20.9712 2.57446 -2.0891e-17)
(21.1402 2.2212 -2.13303e-17)
(21.2517 1.84342 4.01413e-17)
(21.3016 1.45179 -2.12973e-17)
(21.2945 1.09401 9.9953e-19)
(21.2463 0.782578 8.43493e-20)
(21.1658 0.491682 1.06063e-17)
(21.0577 0.222918 -2.10291e-17)
(20.9262 -0.0228074 1.11679e-17)
(20.7751 -0.245019 -9.6581e-18)
(20.6081 -0.443632 1.16131e-17)
(20.4283 -0.618829 1.1369e-17)
(20.2381 -0.770913 -1.01242e-17)
(20.0399 -0.900202 -2.47972e-18)
(19.8356 -1.00697 -3.63198e-18)
(19.6272 -1.09139 1.08543e-17)
(19.4165 -1.15363 -9.49753e-18)
(19.2048 -1.19386 4.70736e-18)
(18.9945 -1.21192 2.29347e-18)
(18.7883 -1.20786 0)
(18.5882 -1.182 2.19848e-18)
(18.3963 -1.13505 2.1536e-18)
(18.2187 -1.06755 2.13953e-18)
(18.0505 -0.986296 -2.05004e-18)
(16.7835 2.22494 -9.17366e-20)
(16.9527 2.40504 -8.27595e-19)
(17.1214 2.55677 -3.20446e-18)
(17.2902 2.68905 6.58472e-18)
(17.4642 2.81021 -2.55235e-17)
(17.6454 2.92024 2.60381e-17)
(17.8361 3.01823 -3.24243e-17)
(18.0385 3.10283 -2.02091e-17)
(18.2535 3.17132 6.19483e-18)
(18.4812 3.22087 -6.02292e-19)
(18.723 3.24949 2.82571e-17)
(18.9787 3.25178 8.68672e-20)
(19.2434 3.22037 0)
(19.5114 3.1493 7.91185e-18)
(19.7764 3.03564 -8.00577e-18)
(20.0301 2.87877 8.05636e-18)
(20.2638 2.67964 0)
(20.4687 2.44124 -1.72639e-17)
(20.6371 2.16862 3.69018e-17)
(20.7629 1.86846 -1.3073e-17)
(20.8404 1.54841 1.74694e-17)
(20.8673 1.24835 -1.90437e-17)
(20.855 0.980958 -5.30019e-19)
(20.8125 0.726662 1.95917e-19)
(20.7435 0.48792 -1.70019e-17)
(20.6514 0.266483 1.70202e-17)
(20.5396 0.0636054 -5.32559e-19)
(20.4114 -0.119938 -1.05379e-18)
(20.2697 -0.283755 8.19547e-18)
(20.117 -0.427699 -9.21763e-18)
(19.9557 -0.551773 1.01419e-18)
(19.7879 -0.656069 -9.99402e-19)
(19.6157 -0.740728 3.89921e-18)
(19.4409 -0.80598 -1.99463e-18)
(19.2651 -0.852227 -7.60691e-18)
(19.0903 -0.87962 1.90156e-18)
(18.9191 -0.88853 -1.82793e-18)
(18.7529 -0.879737 3.63765e-18)
(18.5934 -0.854176 -1.78544e-18)
(18.4446 -0.81266 -1.73768e-18)
(18.3038 -0.760578 0)
(17.0502 2.05321 9.0795e-18)
(17.1943 2.19383 -1.68865e-17)
(17.3372 2.31012 -1.75563e-17)
(17.4789 2.41024 4.52726e-17)
(17.623 2.50107 -1.6787e-17)
(17.7711 2.58289 3.97112e-17)
(17.9249 2.65532 -3.40979e-17)
(18.0861 2.71771 5.16485e-17)
(18.2555 2.76842 -5.2411e-17)
(18.4335 2.80572 -4.00563e-19)
(18.6212 2.82844 2.39549e-17)
(18.8191 2.83299 3.11841e-18)
(19.0243 2.8142 2.53913e-17)
(19.2337 2.76758 -2.54401e-17)
(19.4437 2.69044 2.6565e-17)
(19.6489 2.58123 -3.01171e-17)
(19.8431 2.43929 0)
(20.0199 2.26531 2.45892e-17)
(20.1728 2.06154 -2.99582e-17)
(20.2961 1.83183 2.68934e-17)
(20.384 1.581 1.28197e-19)
(20.4304 1.34018 -4.16398e-17)
(20.4427 1.12072 4.60331e-19)
(20.429 0.908304 1.41682e-17)
(20.3919 0.705632 2.69082e-23)
(20.3337 0.514821 0)
(20.2571 0.337539 1.3598e-17)
(20.1649 0.174983 -1.33733e-17)
(20.0595 0.02795 0)
(19.9432 -0.103066 8.36422e-19)
(19.8182 -0.217795 0)
(19.6866 -0.316139 -6.42794e-18)
(19.5502 -0.398131 7.22141e-18)
(19.4109 -0.463971 6.25727e-18)
(19.2702 -0.514105 -1.24127e-17)
(19.1297 -0.548785 6.9173e-18)
(18.9917 -0.568461 7.52706e-19)
(18.8572 -0.574023 -1.47987e-18)
(18.7276 -0.56637 1.45516e-18)
(18.6054 -0.546289 0)
(18.4895 -0.517747 1.40326e-18)
(17.2556 1.90453 0)
(17.3789 2.01478 2.3042e-17)
(17.5005 2.10413 2.02292e-19)
(17.6202 2.18025 -3.136e-17)
(17.7407 2.24858 -2.10583e-17)
(17.8631 2.30947 2.08999e-17)
(17.9888 2.36284 -2.10997e-17)
(18.1191 2.40841 -2.1291e-17)
(18.2546 2.44519 -4.33918e-17)
(18.3956 2.47208 5.43149e-17)
(18.5433 2.48839 -5.53353e-18)
(18.698 2.49173 -5.6192e-18)
(18.858 2.47851 2.31215e-17)
(19.0215 2.44554 -1.73685e-17)
(19.1864 2.39072 -2.67585e-17)
(19.3494 2.31252 2.09051e-17)
(19.5062 2.20981 2.77035e-17)
(19.6524 2.08231 -2.77326e-17)
(19.7831 1.93079 0)
(19.8938 1.75719 -3.14789e-18)
(19.9793 1.56427 -3.14787e-18)
(20.0326 1.37544 -2.54305e-17)
(20.058 1.20013 5.02491e-17)
(20.0622 1.0279 -2.53944e-17)
(20.0469 0.861252 -1.23904e-17)
(20.0136 0.702238 4.29182e-19)
(19.9644 0.552568 1.22432e-17)
(19.9011 0.413562 -1.91557e-19)
(19.826 0.286179 -1.15921e-20)
(19.7408 0.171088 -1.17197e-17)
(19.6474 0.0687221 1.17764e-17)
(19.5475 -0.0206848 5.76863e-18)
(19.4429 -0.0970597 -6.10629e-18)
(19.335 -0.160522 5.62484e-18)
(19.2253 -0.211456 -4.91013e-18)
(19.1151 -0.250084 -4.11286e-18)
(19.0062 -0.27679 2.04787e-18)
(18.8994 -0.292383 -6.68207e-19)
(18.7959 -0.297598 0)
(18.6972 -0.293075 0)
(18.6031 -0.281557 7.0412e-21)
(17.4076 1.78224 1.01904e-17)
(17.5145 1.86987 -1.11028e-17)
(17.6192 1.93947 4.8978e-18)
(17.7217 1.99811 9.7205e-18)
(17.824 2.05013 0)
(17.9269 2.09586 -1.9645e-17)
(18.0316 2.13538 4.97112e-17)
(18.1391 2.16861 -2.97838e-17)
(18.2498 2.19492 1.01039e-17)
(18.3641 2.2136 -1.02803e-17)
(18.4828 2.22422 5.22572e-18)
(18.6061 2.22516 4.7776e-17)
(18.7331 2.21393 -8.55614e-17)
(18.8625 2.18828 3.76089e-17)
(18.9931 2.14667 5.54982e-18)
(19.1227 2.08786 2.2389e-17)
(19.2486 2.01081 -7.06516e-17)
(19.3676 1.91495 3.11353e-17)
(19.4761 1.8004 4.90233e-17)
(19.5708 1.66808 -2.02636e-17)
(19.6478 1.51954 5.83377e-18)
(19.7001 1.37213 0)
(19.7303 1.23331 0)
(19.7438 1.09539 2.29066e-17)
(19.7416 0.960448 -2.27895e-17)
(19.7246 0.830285 -3.58334e-19)
(19.6943 0.706431 0)
(19.6521 0.59012 -1.10915e-17)
(19.5996 0.482298 1.10484e-17)
(19.5384 0.383663 -8.59706e-20)
(19.4697 0.294698 8.36166e-20)
(19.3952 0.215704 0)
(19.3161 0.146823 -4.95852e-18)
(19.2338 0.0880141 5.22507e-18)
(19.1493 0.03899 -6.4532e-19)
(19.0639 -0.000404426 6.36463e-19)
(18.9787 -0.0304426 0)
(18.8947 -0.0517875 6.18684e-19)
(18.8126 -0.0649973 1.21551e-18)
(18.7335 -0.0705504 -6.08168e-19)
(18.6576 -0.0702641 -1.75093e-18)
(17.5224 1.68087 0)
(17.6159 1.75127 0)
(17.7071 1.80607 1.82564e-17)
(17.7958 1.85173 3.6484e-17)
(17.8837 1.89168 -5.44856e-17)
(17.9715 1.92625 4.60254e-17)
(18.06 1.95561 1.88494e-17)
(18.1502 1.97976 -3.73067e-17)
(18.2422 1.99832 3.80837e-17)
(18.3365 2.01079 -3.82588e-17)
(18.4336 2.0169 0)
(18.5338 2.01554 0)
(18.6362 2.00494 -4.01189e-17)
(18.7402 1.9835 8.07043e-17)
(18.8448 1.95014 -8.16485e-17)
(18.9487 1.90392 4.10978e-17)
(19.0498 1.84402 5.17709e-18)
(19.1462 1.76989 -5.01603e-17)
(19.2351 1.68141 3.4378e-17)
(19.3142 1.57903 0)
(19.3805 1.46357 -2.7028e-18)
(19.428 1.34803 0)
(19.4583 1.23813 2.24267e-17)
(19.4757 1.12807 -4.33565e-17)
(19.4805 1.01951 2.09326e-17)
(19.4735 0.913908 0)
(19.4558 0.812552 0)
(19.4282 0.716505 -9.58927e-18)
(19.3921 0.626602 1.01685e-17)
(19.3486 0.543484 1.00327e-17)
(19.2987 0.467613 -1.00587e-17)
(19.2436 0.399294 -9.82851e-18)
(19.1844 0.338699 9.81004e-18)
(19.1221 0.285839 0)
(19.0576 0.240513 7.40782e-20)
(18.9919 0.202632 0)
(18.9259 0.172022 1.81001e-20)
(18.8602 0.148168 7.1542e-20)
(18.7955 0.130662 -2.40083e-18)
(18.7325 0.119163 3.35897e-18)
(18.6717 0.112521 -1.08675e-18)
(17.6106 1.59559 0)
(17.6931 1.65259 2.09519e-18)
(17.7731 1.6961 0)
(17.8505 1.73192 -1.67229e-17)
(17.9268 1.76277 1.68839e-17)
(18.0025 1.78898 0)
(18.0783 1.81075 -1.72979e-17)
(18.1548 1.82815 -1.76587e-17)
(18.2324 1.84091 4.42356e-17)
(18.3113 1.84871 0)
(18.392 1.85137 -3.66218e-17)
(18.4745 1.84809 7.38679e-17)
(18.5583 1.83762 -3.7171e-17)
(18.6429 1.81881 0)
(18.7277 1.79092 3.81585e-17)
(18.8116 1.75327 -4.29989e-17)
(18.8933 1.70524 -4.36931e-17)
(18.9714 1.64641 4.86134e-17)
(19.0439 1.57662 4.9519e-18)
(19.1091 1.49608 0)
(19.1649 1.40528 0)
(19.2063 1.31401 2.43506e-18)
(19.2343 1.22666 -1.22807e-18)
(19.2523 1.13875 -1.93426e-17)
(19.2605 1.05156 -1.1928e-18)
(19.2594 0.966234 1.91494e-17)
(19.2496 0.883806 -1.89953e-17)
(19.232 0.805133 1.82919e-17)
(19.2074 0.73091 1.05056e-17)
(19.1766 0.661678 -9.29075e-18)
(19.1406 0.597842 9.17572e-18)
(19.1001 0.53968 -9.12372e-18)
(19.0561 0.487364 0)
(19.0092 0.440934 9.45643e-18)
(18.9603 0.400255 -8.91807e-18)
(18.91 0.365283 0)
(18.8591 0.335921 -1.69292e-20)
(18.808 0.311778 -2.19774e-18)
(18.7573 0.292565 2.24747e-18)
(18.7076 0.278044 -9.75035e-19)
(18.6592 0.267535 1.01102e-18)
(17.6796 1.52294 0)
(17.7528 1.56934 -1.91095e-18)
(17.8234 1.60411 1.54304e-17)
(17.8915 1.63234 -3.10778e-17)
(17.9582 1.65623 6.27188e-17)
(18.024 1.67608 -3.16942e-17)
(18.0894 1.69211 0)
(18.1551 1.70442 -1.6365e-17)
(18.2212 1.71285 -9.98046e-17)
(18.288 1.71716 6.71067e-17)
(18.3557 1.71723 0)
(18.4245 1.7125 8.61407e-18)
(18.4939 1.70206 -2.62848e-17)
(18.5635 1.68509 -2.17653e-19)
(18.6328 1.66108 3.5339e-17)
(18.7012 1.62955 -4.02211e-17)
(18.7677 1.59008 3.58544e-17)
(18.8312 1.54235 -3.63135e-17)
(18.8903 1.48623 3.62556e-17)
(18.9438 1.42187 3.65548e-17)
(18.99 1.34955 -3.1739e-17)
(19.0252 1.27676 1.58724e-17)
(19.0501 1.20687 -2.01786e-17)
(19.0671 1.13635 1.90126e-17)
(19.0765 1.06618 3.3322e-18)
(19.0785 0.997249 -1.76695e-17)
(19.0737 0.930344 0)
(19.0626 0.866145 0)
(19.0459 0.805201 1.61602e-17)
(19.0243 0.747951 -1.7136e-17)
(18.9983 0.694725 0)
(18.9686 0.645759 -1.04527e-18)
(18.9359 0.601202 -1.03576e-18)
(18.9007 0.561105 -8.7502e-18)
(18.8637 0.525375 8.69281e-18)
(18.8253 0.494 4.03787e-18)
(18.7862 0.46693 -4.01314e-18)
(18.7467 0.443876 1.48538e-18)
(18.7072 0.424636 -3.92585e-18)
(18.6681 0.409047 1.88467e-18)
(18.6297 0.39675 2.34564e-19)
(17.7343 1.46041 -1.41032e-17)
(17.7995 1.49834 -1.76975e-17)
(17.8622 1.52624 -7.7352e-20)
(17.9224 1.54856 0)
(17.981 1.56704 0)
(18.0386 1.58199 0)
(18.0955 1.59365 0)
(18.1523 1.60211 6.11668e-17)
(18.2091 1.60727 -1.0846e-16)
(18.2661 1.60897 6.27279e-17)
(18.3235 1.60714 -6.39615e-17)
(18.3814 1.60137 4.01883e-17)
(18.4395 1.591 -7.34948e-17)
(18.4973 1.57545 9.01914e-17)
(18.5545 1.55436 -3.29829e-17)
(18.6107 1.52741 -2.49994e-17)
(18.6652 1.49432 3.33801e-17)
(18.717 1.45487 -4.22517e-18)
(18.7652 1.409 4.19615e-18)
(18.809 1.3568 -4.22703e-17)
(18.8472 1.29847 -3.79913e-17)
(18.8767 1.23983 6.29668e-17)
(18.8981 1.18345 2.09473e-18)
(18.9135 1.12655 0)
(18.9228 1.06984 -2.07171e-18)
(18.9263 1.014 2.03187e-18)
(18.9244 0.959646 1.42006e-17)
(18.9176 0.90729 -1.61044e-17)
(18.9064 0.857357 1.59519e-17)
(18.8911 0.810188 -1.5839e-17)
(18.8723 0.766043 -1.56685e-17)
(18.8505 0.725109 1.65342e-17)
(18.8262 0.687512 9.67123e-19)
(18.7998 0.653299 -7.61647e-18)
(18.7718 0.622405 6.15129e-18)
(18.7426 0.594832 0)
(18.7126 0.57056 0)
(18.682 0.549372 4.60496e-19)
(18.6512 0.531127 -9.07653e-19)
(18.6206 0.515713 -8.99313e-19)
(18.5903 0.502977 -2.1844e-19)
(17.7781 1.40611 0)
(17.8364 1.43721 3.21245e-18)
(17.8923 1.45966 -2.61496e-17)
(17.9457 1.47731 2.63107e-17)
(17.9976 1.49156 5.38604e-17)
(18.0482 1.50271 -5.46284e-17)
(18.098 1.511 -2.80386e-17)
(18.1475 1.51652 5.66714e-17)
(18.1966 1.51923 5.79278e-17)
(18.2456 1.519 -5.85649e-17)
(18.2947 1.5158 0)
(18.3438 1.50933 3.015e-17)
(18.3927 1.49912 -6.09792e-17)
(18.4411 1.48475 6.88274e-17)
(18.4888 1.46597 0)
(18.5353 1.44259 7.73191e-18)
(18.5801 1.41442 -7.76331e-18)
(18.6227 1.38133 0)
(18.6622 1.34329 -3.93618e-18)
(18.6981 1.3004 7.88483e-18)
(18.7295 1.25281 -3.50882e-17)
(18.754 1.20509 3.50698e-17)
(18.7723 1.15923 -3.84067e-18)
(18.7857 1.11298 -2.8795e-17)
(18.7943 1.06689 2.85978e-17)
(18.7984 1.02147 -1.90468e-18)
(18.7982 0.97718 1.69176e-17)
(18.7941 0.934411 -1.49157e-17)
(18.7865 0.893484 -1.84027e-18)
(18.7757 0.854659 0)
(18.762 0.818133 0)
(18.746 0.78405 0)
(18.7278 0.752508 7.12278e-18)
(18.708 0.723546 -7.07073e-18)
(18.6867 0.697116 8.78408e-19)
(18.6644 0.673227 6.92591e-18)
(18.6413 0.651872 -7.73153e-18)
(18.6177 0.632891 0)
(18.5937 0.616182 4.14182e-21)
(18.5698 0.601668 1.67143e-18)
(18.5459 0.589325 -8.08338e-19)
(17.8135 1.3586 -1.17425e-17)
(17.8658 1.38413 0)
(17.9158 1.40223 5.9968e-17)
(17.9634 1.41617 -4.85305e-17)
(18.0094 1.42708 0)
(18.0542 1.43527 -5.08473e-17)
(18.098 1.44095 -1.0439e-19)
(18.1412 1.44424 -5.29406e-17)
(18.184 1.44509 8.06133e-17)
(18.2264 1.44345 5.48308e-17)
(18.2686 1.43928 -5.54555e-17)
(18.3106 1.43239 -1.40898e-17)
(18.3521 1.42242 0)
(18.3929 1.40909 0)
(18.4329 1.39222 1.43538e-17)
(18.4716 1.3717 -6.5174e-17)
(18.5087 1.34743 1.30577e-16)
(18.5438 1.31933 -5.80842e-17)
(18.5764 1.28741 -7.25749e-18)
(18.6058 1.25177 -7.25773e-18)