/*--------------------------------*- C++ -*----------------------------------*\
| =========                 |                                                 |
| \\      /  F ield         | OpenFOAM: The Open Source CFD Toolbox           |
|  \\    /   O peration     | Version:  5.x                                   |
|   \\  /    A nd           | Web:      www.OpenFOAM.org                      |
|    \\/     M anipulation  |                                                 |
\*---------------------------------------------------------------------------*/
FoamFile
{
    version     2.0;
    format      ascii;
    class       volVectorField;
    location    "350";
    object      U;
}
// * * * * * * * * * * * * * * * * * * * * * * * * * * * * * * * * * * * * * //

dimensions      [0 1 -1 0 0 0 0];

internalField   nonuniform List<vector> 
11040
(
(-3.52851 22.5289 0)
(-0.129987 28.3471 -1.72089e-19)
(5.88829 32.0283 1.67615e-17)
(11.6866 31.5794 1.96502e-17)
(16.3686 29.2107 4.34495e-17)
(19.8282 25.8814 -2.1403e-17)
(22.1828 22.1548 -2.13019e-17)
(23.6086 18.3938 2.1761e-17)
(24.2746 14.8312 4.95063e-17)
(24.2683 11.5548 1.61512e-18)
(23.2727 8.30535 2.44478e-17)
(21.6986 5.61176 -1.31869e-18)
(20.4056 3.92345 2.10509e-17)
(19.7064 3.00824 1.9895e-17)
(19.1038 2.28104 1.58354e-17)
(18.3176 1.57615 9.3239e-18)
(17.3739 0.937107 -7.30801e-18)
(16.3636 0.389276 -6.016e-19)
(15.3152 -0.0720545 6.25941e-19)
(14.2263 -0.452185 3.30154e-18)
(13.0861 -0.753762 2.18798e-18)
(12.0451 -0.950243 1.242e-18)
(11.102 -1.06894 3.87247e-19)
(10.1523 -1.14264 -1.56065e-19)
(9.19139 -1.17577 -6.73989e-20)
(8.21697 -1.17069 2.22163e-19)
(7.2249 -1.13029 -1.93168e-17)
(6.20966 -1.05881 4.38443e-19)
(5.16089 -0.956959 -3.46016e-17)
(4.08401 -0.817559 4.41993e-17)
(3.02451 -0.645468 8.66727e-19)
(1.98867 -0.456915 6.0524e-19)
(1.01986 -0.260315 -7.61698e-19)
(0.143013 -0.0683078 0)
(-0.584771 0.110718 2.80052e-16)
(-1.10958 0.278325 0)
(-1.76283 0.507831 0)
(-2.76993 0.755635 -3.25213e-19)
(-3.80056 0.799178 3.13243e-19)
(-4.14765 0.310181 -1.25966e-16)
(-2.6089 -0.450664 -1.54015e-16)
(0.136337 21.9559 0)
(4.03559 26.3598 0)
(11.3225 28.3513 -9.88529e-18)
(17.7247 27.654 1.07678e-17)
(22.5222 25.806 -2.69366e-17)
(26.073 23.6697 2.83934e-17)
(28.6039 21.2709 1.37282e-17)
(30.2067 18.6438 1.8079e-18)
(30.9961 15.8822 -1.06765e-18)
(31.1114 13.1148 1.55515e-17)
(30.4616 10.2214 -1.75488e-18)
(28.8884 7.68138 0)
(26.954 5.84338 0)
(25.2687 4.53662 -1.04926e-17)
(23.9068 3.38127 -1.06721e-17)
(22.6222 2.38233 -7.35109e-18)
(21.3454 1.55739 0)
(20.079 0.872788 3.40591e-19)
(18.8105 0.301745 -9.20338e-19)
(17.5234 -0.166446 -4.47055e-19)
(16.2035 -0.538234 -1.37009e-18)
(14.9991 -0.792464 -6.73351e-19)
(13.9321 -0.957386 1.93172e-20)
(12.8743 -1.0692 -9.58946e-19)
(11.815 -1.1334 1.92911e-18)
(10.747 -1.15376 2.16238e-19)
(9.66322 -1.1342 9.29689e-18)
(8.55626 -1.07774 -2.0496e-19)
(7.42352 -0.986927 1.55175e-17)
(6.26192 -0.862783 -1.89031e-17)
(5.06549 -0.707659 -2.30359e-17)
(3.85615 -0.530368 2.77859e-17)
(2.66485 -0.342892 2.26246e-20)
(1.53766 -0.155542 -8.90914e-19)
(0.533599 0.0246049 -4.62725e-17)
(-0.277873 0.195966 0)
(-1.16843 0.447063 -3.75962e-19)
(-2.14348 0.743536 8.19278e-17)
(-2.69764 0.92279 7.24486e-17)
(-2.34198 0.53774 6.73512e-17)
(-1.89213 -0.782043 1.10526e-16)
(2.04567 21.2199 0)
(5.70914 24.5846 0)
(10.871 26.5196 2.72442e-18)
(15.8299 26.7974 -7.74053e-18)
(19.9541 25.8191 8.26085e-18)
(23.4077 24.0601 -1.04972e-17)
(26.2503 21.8179 -8.48342e-18)
(28.4395 19.2996 0)
(29.9621 16.65 -1.37376e-17)
(30.8595 13.9752 -8.13781e-18)
(31.0932 11.2026 0)
(30.4654 8.72955 0)
(29.2561 6.81972 -8.45204e-18)
(27.9333 5.35669 -7.66816e-18)
(26.6382 4.04832 -8.15692e-19)
(25.298 2.91107 8.42086e-19)
(23.9138 1.96089 0)
(22.5265 1.16829 0)
(21.1436 0.508074 2.2348e-19)
(19.7529 -0.0328654 -2.73413e-19)
(18.3385 -0.463371 2.78478e-19)
(17.0521 -0.767933 -4.25768e-19)
(15.9153 -0.966857 -1.02007e-19)
(14.7941 -1.1043 -5.25154e-19)
(13.6781 -1.18831 -8.48768e-20)
(12.5594 -1.22384 -1.43813e-19)
(11.4298 -1.21535 -9.04756e-20)
(10.2814 -1.16627 2.28076e-19)
(9.10829 -1.07963 0)
(7.90607 -0.958297 0)
(6.67159 -0.806461 2.76219e-17)
(5.41428 -0.632477 -3.16334e-17)
(4.15507 -0.447411 1.79844e-17)
(2.93107 -0.263452 0)
(1.78859 -0.0879218 2.40898e-17)
(0.808234 0.091656 2.79606e-17)
(-0.126979 0.331083 0)
(-1.0131 0.542559 2.82055e-19)
(-1.52151 0.593014 -1.96256e-19)
(-1.32791 0.143821 0)
(-1.71006 -1.2553 -5.24301e-17)
(3.92941 20.3329 5.32538e-20)
(7.35593 22.9716 -4.93829e-20)
(11.3884 24.5964 7.86374e-19)
(15.6969 25.0232 0)
(19.5738 24.3286 -9.70907e-18)
(22.8378 22.905 0)
(25.5032 21.0127 1.92993e-17)
(27.5695 18.8136 -6.30554e-20)
(29.0569 16.4473 1.93532e-18)
(30.0205 14.0302 1.29709e-17)
(30.4725 11.5312 1.91166e-18)
(30.2892 9.21874 5.26779e-18)
(29.6041 7.35274 1.49991e-17)
(28.7368 5.89447 6.09416e-18)
(27.8132 4.5926 0)
(26.7641 3.42127 -1.11887e-18)
(25.577 2.40522 1.95794e-19)
(24.3024 1.5367 -7.58227e-19)
(22.9733 0.800637 -3.02616e-19)
(21.5995 0.18853 3.08204e-19)
(20.1797 -0.305059 6.71361e-19)
(18.8764 -0.658637 3.87001e-19)
(17.717 -0.89464 0)
(16.5703 -1.06316 1.02562e-18)
(15.4285 -1.17301 -1.19496e-18)
(14.2849 -1.22976 1.72617e-18)
(13.1323 -1.23836 -4.71968e-18)
(11.9631 -1.2028 0)
(10.7707 -1.12666 0)
(9.54972 -1.01376 0)
(8.29714 -0.869261 -9.97533e-18)
(7.01605 -0.701519 1.17401e-17)
(5.71824 -0.522011 -4.12124e-19)
(4.4282 -0.344182 -1.4927e-17)
(3.17881 -0.175826 -1.57599e-17)
(2.05062 0.00303207 -1.86111e-17)
(1.04318 0.226673 -4.0198e-17)
(0.16483 0.38284 -4.11941e-17)
(-0.462676 0.36627 -1.61535e-19)
(-0.450445 -0.0808442 -3.71494e-17)
(-1.43551 -1.45721 2.16348e-17)
(5.79063 19.3182 0)
(8.81553 21.3879 -4.5183e-20)
(12.0398 22.7152 -4.73121e-19)
(15.5816 23.2814 3.073e-19)
(18.9638 22.9865 7.17024e-18)
(21.9539 22.0091 -7.78298e-18)
(24.5209 20.5067 -1.89691e-18)
(26.604 18.6135 -9.96134e-18)
(28.1608 16.477 0)
(29.2126 14.2307 -1.20163e-17)
(29.782 11.8905 0)
(29.807 9.66546 -3.01822e-18)
(29.377 7.80352 -7.94689e-18)
(28.7448 6.32152 0)
(28.0591 5.0233 4.20162e-18)
(27.2773 3.84996 0)
(26.3587 2.81564 0)
(25.3221 1.91621 7.86293e-19)
(24.1891 1.13857 6.39611e-19)
(22.969 0.477148 0)
(21.6649 -0.0682357 -5.47104e-19)
(20.439 -0.467952 0)
(19.3278 -0.742487 0)
(18.2153 -0.945016 -3.68466e-19)
(17.0981 -1.08437 0)
(15.9727 -1.16642 1.34432e-18)
(14.8343 -1.19639 3.67434e-18)
(13.6768 -1.17873 0)
(12.4946 -1.11751 0)
(11.2826 -1.01726 0)
(10.0372 -0.883875 8.14887e-18)
(8.75846 -0.72621 7.8695e-18)
(7.45078 -0.55636 -9.47183e-18)
(6.12711 -0.388159 -3.25251e-19)
(4.80568 -0.23111 3.73511e-19)
(3.55195 -0.066062 0)
(2.43202 0.131826 2.95909e-17)
(1.4904 0.251041 -3.15588e-17)
(0.696043 0.194165 3.3477e-17)
(0.466825 -0.198641 3.46704e-17)
(-0.87076 -1.47913 4.0015e-20)
(7.50348 18.2202 -1.36182e-19)
(10.0995 19.8374 6.61334e-20)
(12.7212 20.9084 3.10345e-20)
(15.5995 21.5164 2.84205e-19)
(18.4927 21.4888 -1.14908e-18)
(21.1777 20.87 7.63066e-18)
(23.5819 19.754 -9.46452e-18)
(25.6259 18.228 8.15388e-18)
(27.2337 16.4059 3.9913e-18)
(28.3883 14.4072 -2.05006e-18)
(29.0962 12.2713 0)
(29.3094 10.1618 0)
(29.0757 8.30484 1.85401e-18)
(28.5908 6.7716 -1.95535e-18)
(28.0182 5.44282 -6.6801e-18)
(27.3702 4.25383 1.40145e-18)
(26.6184 3.2033 -2.66172e-18)
(25.7685 2.28581 1.42798e-19)
(24.8313 1.48618 -7.89454e-19)
(23.8061 0.796197 1.36792e-18)
(22.6868 0.216314 -1.17427e-18)
(21.6123 -0.218869 2.57742e-19)
(20.6192 -0.526235 -7.88599e-20)
(19.6088 -0.760406 1.19902e-19)
(18.5805 -0.929503 -8.07362e-19)
(17.533 -1.03898 -1.43245e-20)
(16.4635 -1.0937 -3.38241e-18)
(15.3681 -1.09802 -3.28855e-18)
(14.2424 -1.05617 0)
(13.0821 -0.97298 0)
(11.8837 -0.854811 -5.66668e-18)
(10.6454 -0.710887 -1.39989e-17)
(9.36702 -0.553682 -4.83463e-19)
(8.0529 -0.397274 8.38249e-18)
(6.70828 -0.253398 9.82401e-18)
(5.37544 -0.110181 -1.0576e-17)
(4.13665 0.0505856 3.50037e-19)
(3.07585 0.137062 4.86506e-17)
(2.10796 0.0533027 -5.2966e-17)
(1.55934 -0.27285 1.15238e-19)
(0.0998044 -1.35374 2.08598e-17)
(9.04485 17.0784 0)
(11.2398 18.3356 -2.46703e-19)
(13.3916 19.1953 -1.33345e-19)
(15.7244 19.777 1.6195e-19)
(18.1434 19.914 1.56595e-18)
(20.4829 19.5785 2.72686e-18)
(22.6651 18.8064 -6.20397e-18)
(24.6092 17.6408 2.35378e-18)
(26.2238 16.1584 0)
(27.4636 14.4533 2.99551e-18)
(28.3167 12.5718 -5.96044e-18)
(28.7321 10.6371 5.98528e-18)
(28.7136 8.83859 -2.47939e-19)
(28.3936 7.28047 0)
(27.9246 5.91683 1.44958e-18)
(27.3623 4.70012 1.68208e-19)
(26.7035 3.62136 1.13453e-18)
(25.958 2.67709 9.08564e-19)
(25.1415 1.85372 -3.55012e-19)
(24.2571 1.14036 -3.86143e-19)
(23.297 0.534921 5.62425e-19)
(22.375 0.0739547 2.9138e-19)
(21.5198 -0.257948 0)
(20.645 -0.517153 1.95238e-19)
(19.7488 -0.711541 7.14287e-19)
(18.829 -0.846222 -9.88561e-19)
(17.8826 -0.925556 9.19257e-19)
(16.9058 -0.953503 3.01221e-18)
(15.8941 -0.934039 -4.79165e-19)
(14.8432 -0.871871 -5.77863e-20)
(13.7487 -0.773333 -3.55015e-18)
(12.6068 -0.647509 -1.27667e-18)
(11.4142 -0.506693 -5.15654e-18)
(10.1689 -0.364872 0)
(8.86708 -0.235439 -7.0979e-18)
(7.52877 -0.116411 8.27807e-18)
(6.21686 0.00129282 -8.77768e-18)
(5.02597 0.0532601 -3.70739e-17)
(3.88966 -0.0491475 2.01337e-17)
(3.02568 -0.31399 9.09594e-20)
(1.49017 -1.14552 -4.40856e-17)
(10.4063 15.9258 8.94536e-19)
(12.249 16.8989 -2.43732e-19)
(14.0254 17.5858 -2.25256e-19)
(15.9204 18.1048 -3.42366e-19)
(17.9125 18.323 -1.14061e-18)
(19.8991 18.1877 -3.38092e-18)
(21.8186 17.6968 3.65367e-18)
(23.602 16.8591 4.9718e-18)
(25.161 15.7139 -3.53175e-18)
(26.4367 14.3241 0)
(27.4033 12.7301 -2.14938e-18)
(28.005 11.0218 3.73818e-20)
(28.2104 9.34611 -9.36476e-20)
(28.0896 7.81509 2.01551e-18)
(27.7631 6.43942 1.86574e-18)
(27.3051 5.20231 -1.93373e-18)
(26.7355 4.09581 0)
(26.0703 3.11937 0)
(25.3313 2.26536 1.28457e-18)
(24.5315 1.52396 -1.0779e-18)
(23.6721 0.891883 1.42939e-19)
(22.8553 0.406949 -3.05346e-19)
(22.1056 0.0536785 -2.71007e-20)
(21.3462 -0.226368 0)
(20.5747 -0.441421 2.87193e-19)
(19.7882 -0.596974 -2.93497e-19)
(18.9829 -0.697494 -9.66063e-19)
(18.154 -0.746907 0)
(17.2963 -0.749085 0)
(16.4039 -0.708566 4.37826e-19)
(15.4704 -0.631421 3.83441e-18)
(14.489 -0.52622 3.70799e-18)
(13.452 -0.404566 8.59002e-18)
(12.3517 -0.279889 6.10002e-19)
(11.177 -0.166179 0)
(9.93106 -0.069788 -3.68733e-19)
(8.64489 0.00749691 6.76241e-18)
(7.38806 0.023837 -3.09309e-20)
(6.12588 -0.0915359 1.5577e-17)
(5.01014 -0.322931 1.70923e-17)
(3.37205 -0.904762 2.03024e-17)
(11.5925 14.7906 -5.49542e-19)
(13.1358 15.5412 -5.79303e-21)
(14.6081 16.0871 4.80588e-19)
(16.1535 16.5296 -7.15382e-19)
(17.7805 16.7713 0)
(19.4343 16.7609 1.03675e-18)
(21.0766 16.4788 -1.92632e-18)
(22.6572 15.9128 -3.02214e-18)
(24.1026 15.0741 2.1802e-18)
(25.354 13.9955 2.85946e-18)
(26.3791 12.7034 1.85661e-19)
(27.121 11.2573 -5.8167e-18)
(27.5259 9.76253 0)
(27.6139 8.31957 1.32053e-18)
(27.4635 6.97329 -3.08754e-18)
(27.1449 5.73951 -1.29e-18)
(26.6911 4.62007 -1.13039e-18)
(26.1234 3.61878 1.168e-18)
(25.4661 2.73467 -4.1868e-19)
(24.7389 1.96216 0)
(23.9517 1.2998 4.45641e-19)
(23.2041 0.788145 -5.91085e-19)
(22.5221 0.411538 -4.13323e-20)
(21.8387 0.109696 -1.0967e-19)
(21.154 -0.125841 4.69097e-19)
(20.4671 -0.30116 -4.78878e-19)
(19.7758 -0.421188 0)
(19.0767 -0.49018 2.44083e-18)
(18.3656 -0.512237 1.13429e-18)
(17.637 -0.491963 6.23681e-19)
(16.8841 -0.435254 -2.95547e-18)
(16.0983 -0.350133 -8.49948e-19)
(15.2685 -0.247323 8.12873e-19)
(14.3817 -0.139478 -4.9149e-19)
(13.4198 -0.0405256 -3.07792e-18)
(12.3727 0.0381555 -5.45601e-19)
(11.2426 0.0862205 0)
(10.0581 0.0744167 1.0473e-17)
(8.78689 -0.0465792 -1.14204e-17)
(7.55331 -0.263289 -1.24759e-17)
(5.8367 -0.663863 0)
(12.6145 13.6957 0)
(13.9075 14.273 0)
(15.1319 14.7037 0)
(16.3976 15.0688 2.11917e-18)
(17.7226 15.2995 -7.3303e-19)
(19.081 15.3554 1.43922e-19)
(20.4552 15.2137 -1.77502e-19)
(21.8137 14.8539 -4.25426e-19)
(23.1031 14.2704 1.19949e-18)
(24.2742 13.4734 1.81226e-18)
(25.2961 12.4736 -1.77168e-18)
(26.1156 11.3037 2.38593e-18)
(26.6702 10.0314 -2.21587e-19)
(26.9455 8.7342 2.22453e-18)
(26.9799 7.46875 -3.97524e-18)
(26.8241 6.27476 3.16298e-18)
(26.5124 5.16844 1.67453e-18)
(26.0687 4.16046 -1.72609e-18)
(25.5171 3.25704 6.51539e-19)
(24.8796 2.4584 0)
(24.171 1.7664 5.54886e-19)
(23.4882 1.22659 -4.1407e-19)
(22.861 0.824403 6.59263e-20)
(22.2328 0.498174 -1.51366e-19)
(21.6068 0.239511 5.46134e-19)
(20.9852 0.0419991 0)
(20.369 -0.0996471 0)
(19.758 -0.189991 -7.25682e-19)
(19.1512 -0.233381 -4.54129e-18)
(18.5466 -0.234505 -2.09495e-18)
(17.9404 -0.199049 2.39586e-18)
(17.3264 -0.134375 6.72684e-19)
(16.6952 -0.0501066 -3.52795e-18)
(16.0334 0.0422113 -7.68349e-19)
(15.3208 0.129282 4.80771e-18)
(14.5391 0.197646 -8.31748e-19)
(13.6709 0.232795 -3.55428e-18)
(12.7114 0.211674 4.73668e-19)
(11.607 0.10096 7.6144e-18)
(10.4585 -0.0915936 0)
(8.80986 -0.393054 0)
(13.4868 12.6584 0)
(14.5718 13.1011 0)
(15.5932 13.4378 -2.05038e-19)
(16.6341 13.7316 -1.87881e-18)
(17.7134 13.9337 0)
(18.821 14.0161 -8.97505e-19)
(19.9525 13.9596 2.66715e-19)
(21.0919 13.7437 0)
(22.204 13.3551 -1.59834e-18)
(23.2536 12.7911 1.85763e-19)
(24.2164 12.0512 -4.0134e-19)
(25.0484 11.1471 1.32251e-18)
(25.6888 10.115 -1.66074e-18)
(26.1053 9.00601 0)
(26.3051 7.87167 -2.44513e-18)
(26.3141 6.76111 2.87107e-18)
(26.1575 5.70272 0)
(25.8566 4.71529 0)
(25.433 3.81236 3.48143e-19)
(24.9082 3.00096 -1.41369e-18)
(24.2987 2.28741 5.84906e-19)
(23.695 1.7232 0)
(23.1303 1.29643 1.33989e-19)
(22.5592 0.945299 2.4059e-19)
(21.9873 0.661862 -3.90038e-19)
(21.419 0.439722 3.88725e-19)
(20.8578 0.273453 0)
(20.3062 0.158297 0)
(19.7664 0.0897376 -7.58798e-19)
(19.2395 0.0630638 3.38694e-18)
(18.726 0.0728932 -1.87926e-18)
(18.2244 0.11267 1.96954e-18)
(17.7305 0.17418 1.07888e-18)
(17.2363 0.247602 0)
(16.727 0.321357 1.84702e-18)
(16.1858 0.382632 -1.90014e-20)
(15.5898 0.416892 6.16812e-18)
(14.9201 0.406229 0)
(14.1093 0.326175 -6.02999e-18)
(13.2281 0.18464 6.52608e-18)
(11.8761 -0.0505872 0)
(14.2251 11.6906 0)
(15.1372 12.0291 -1.34237e-18)
(15.9916 12.2896 1.1841e-18)
(16.8509 12.5207 0)
(17.7319 12.688 1.2848e-18)
(18.6323 12.773 -9.46077e-19)
(19.5548 12.762 -2.51198e-18)
(20.4934 12.6383 1.12615e-18)
(21.4274 12.3875 1.01356e-19)
(22.3342 12.0015 1.5899e-18)
(23.1982 11.474 -1.76225e-18)
(23.9869 10.8034 -5.65198e-19)
(24.649 10.0034 1.49367e-18)
(25.1473 9.10126 -7.14526e-19)
(25.4706 8.13464 2.86942e-18)
(25.6229 7.14887 -1.81331e-18)
(25.6152 6.17706 -7.12981e-19)
(25.4613 5.24384 -3.19103e-19)
(25.1774 4.36885 -8.95081e-19)
(24.7819 3.56562 1.73808e-18)
(24.2901 2.84556 -7.47111e-19)
(23.7824 2.26651 -3.17824e-21)
(23.2939 1.82071 1.25115e-20)
(22.7916 1.44797 0)
(22.2827 1.14133 -7.60192e-19)
(21.7727 0.894785 2.35089e-19)
(21.2665 0.70301 1.32417e-18)
(20.7683 0.561236 -9.22738e-19)
(20.2815 0.464897 2.44357e-18)
(19.8092 0.409296 -1.26965e-18)
(19.354 0.3893 0)
(18.9176 0.399034 -2.43724e-18)
(18.5 0.431581 -8.5559e-19)
(18.0988 0.478984 9.62454e-19)
(17.7068 0.532071 -5.94498e-18)
(17.3147 0.580695 -1.04086e-18)
(16.9059 0.613213 -2.17079e-18)
(16.4643 0.617873 2.23409e-18)
(15.9318 0.576396 2.33372e-18)
(15.3522 0.500048 -4.7575e-18)
(14.4254 0.340349 -1.61666e-19)
(14.8445 10.7999 0)
(15.6126 11.0574 7.61101e-20)
(16.3291 11.2567 1.07223e-18)
(17.041 11.4348 3.50673e-18)
(17.7623 11.5673 -2.34808e-18)
(18.4943 11.6425 4.62435e-19)
(19.2428 11.6516 9.41076e-20)
(20.0072 11.5824 -2.9601e-18)
(20.7765 11.4226 2.15265e-20)
(21.5379 11.1632 -3.41816e-20)
(22.283 10.7963 7.56169e-19)
(22.9907 10.3145 -7.5451e-19)
(23.6219 9.7175 -4.44821e-19)
(24.1434 9.01564 6.17266e-19)
(24.5367 8.23122 0)
(24.7922 7.39824 0)
(24.9081 6.54657 2.40462e-18)
(24.8881 5.70177 -6.63134e-21)
(24.741 4.88626 -1.58486e-18)
(24.4794 4.11812 8.13907e-20)
(24.1152 3.413 -1.25252e-19)
(23.7149 2.83418 -2.14462e-20)
(23.3139 2.37942 1.40848e-19)
(22.8915 1.99236 0)
(22.4558 1.6676 -1.0801e-19)
(22.0134 1.40008 1.21922e-18)
(21.5699 1.185 -1.57919e-18)
(21.1303 1.01784 1.75886e-18)
(20.6984 0.894122 -1.30663e-18)
(20.2779 0.809304 0)
(19.872 0.758555 1.18801e-18)
(19.4831 0.736574 2.66781e-18)
(19.1128 0.737445 -1.35957e-18)
(18.7613 0.754678 1.53039e-18)
(18.4258 0.78117 8.5549e-19)
(18.1028 0.809626 -1.621e-18)
(17.7838 0.832015 2.55092e-18)
(17.4604 0.842013 -1.78763e-18)
(17.0969 0.827984 -1.38127e-18)
(16.7171 0.802127 -2.30853e-19)
(16.1472 0.720836 3.7602e-18)
(15.3599 9.98962 -1.27173e-18)
(16.0077 10.1845 -4.44121e-18)
(16.6097 10.3349 4.33174e-18)
(17.2013 10.4692 0)
(17.7938 10.5701 -1.87234e-19)
(18.39 10.6304 0)
(18.9963 10.6448 -6.90365e-18)
(19.6151 10.605 5.107e-18)
(20.2408 10.5018 2.54604e-18)
(20.8672 10.3271 -2.84748e-18)
(21.4909 10.0744 5.09101e-19)
(22.0994 9.73451 -2.96067e-19)
(22.6655 9.30081 3.89159e-19)
(23.1636 8.77359 5.53347e-19)
(23.5755 8.16332 1.50009e-19)
(23.8866 7.49138 -7.07121e-19)
(24.0871 6.77967 6.41257e-19)
(24.1725 6.04982 -7.48394e-19)
(24.1437 5.32303 0)
(24.0068 4.61848 -1.41559e-19)
(23.7684 3.95386 3.70125e-19)
(23.4783 3.39498 -2.0341e-19)
(23.17 2.94562 7.15547e-21)
(22.8336 2.55553 0)
(22.4777 2.2213 8.86138e-20)
(22.1094 1.93938 1.25394e-19)
(21.7348 1.70607 0)
(21.3594 1.51749 0)
(20.9875 1.36962 3.66402e-21)
(20.6226 1.2583 0)
(20.2678 1.17917 -1.4452e-18)
(19.9256 1.12754 0)
(19.5977 1.09844 2.265e-18)
(19.2848 1.08659 -2.34177e-18)
(18.9856 1.08643 0)
(18.6987 1.09273 1.32619e-18)
(18.4205 1.1002 -1.3801e-18)
(18.1464 1.10538 6.91494e-19)
(17.8596 1.10234 2.19023e-18)
(17.5716 1.10011 -1.93697e-19)
(17.2026 1.07326 -4.53735e-18)
(15.7854 9.26031 3.37839e-18)
(16.3322 9.40661 1.25761e-19)
(16.8387 9.51815 -1.91069e-18)
(17.3315 9.61715 -3.49961e-18)
(17.8197 9.691 -7.65558e-18)
(18.3066 9.73542 8.88899e-18)
(18.7982 9.74755 -4.08608e-19)
(19.2977 9.72199 -4.109e-18)
(19.8031 9.65215 7.6676e-18)
(20.3115 9.53199 -6.43499e-19)
(20.8225 9.35631 -3.3745e-18)
(21.3296 9.11705 8.97492e-19)
(21.8148 8.80601 -1.13394e-18)
(22.2604 8.41886 1.89863e-18)
(22.6519 7.95877 -2.96348e-19)
(22.9752 7.43716 0)
(23.2181 6.8675 -6.04086e-20)
(23.3717 6.26505 1.46075e-19)
(23.4313 5.64666 4.07428e-19)
(23.397 5.02933 -1.0102e-18)
(23.27 4.42987 7.33393e-19)
(23.0832 3.91224 -7.13782e-20)
(22.8653 3.48535 -5.94942e-21)
(22.6149 3.10673 -1.32757e-18)
(22.3401 2.77513 2.92408e-18)
(22.0478 2.48872 -1.71297e-18)
(21.7444 2.24518 2.0196e-18)
(21.4355 2.04176 -2.47105e-18)
(21.1255 1.87534 -3.02591e-18)
(20.8182 1.74252 2.73248e-18)
(20.5166 1.63962 7.8175e-19)
(20.223 1.56277 1.31394e-18)
(19.9391 1.50795 -4.05204e-18)
(19.6657 1.47101 3.8236e-18)
(19.402 1.44765 -1.96206e-18)
(19.1474 1.43413 -1.04529e-18)
(18.9004 1.42691 0)
(18.658 1.42358 -1.14369e-18)
(18.4128 1.42133 -1.18318e-18)
(18.1703 1.42484 -1.20752e-18)
(17.8963 1.4217 1.25516e-18)
(16.1335 8.60994 4.15672e-21)
(16.5952 8.71849 4.58493e-19)
(17.0217 8.79945 1.67666e-18)
(17.4331 8.8704 -3.00697e-18)
(17.8364 8.92203 1.18944e-17)
(18.2351 8.95186 -1.01712e-17)
(18.6346 8.95851 1.27895e-17)
(19.038 8.93859 6.30755e-18)
(19.4449 8.88758 -3.14257e-18)
(19.8543 8.80119 -8.93503e-19)
(20.2673 8.67572 -7.21921e-18)
(20.6807 8.50504 2.74706e-19)
(21.0833 8.28161 0)
(21.4634 7.99996 -6.76073e-19)
(21.8111 7.65967 8.20182e-19)
(22.1152 7.26581 -1.00659e-18)
(22.3646 6.82535 0)
(22.5497 6.34748 1.29335e-18)
(22.6632 5.84368 -2.88226e-18)
(22.7015 5.32687 1.02704e-18)
(22.6619 4.8107 -1.76052e-18)
(22.5621 4.35271 1.98164e-18)
(22.4247 3.96492 7.83304e-20)
(22.2535 3.61322 -3.50041e-20)
(22.0553 3.29821 3.04643e-18)
(21.8363 3.01967 -3.07466e-18)
(21.6024 2.77669 1.08432e-19)
(21.3589 2.56776 2.4344e-19)
(21.11 2.39086 -2.2871e-18)
(20.8596 2.24359 2.60826e-18)
(20.6106 2.12327 -3.2017e-19)
(20.3654 2.02703 3.43864e-19)
(20.1258 1.95183 -1.49823e-18)
(19.8927 1.89458 7.03415e-19)
(19.6661 1.85207 3.23468e-18)
(19.4459 1.82168 -8.06415e-19)
(19.2317 1.80105 8.93327e-19)
(19.0217 1.7882 -1.79982e-18)
(18.8124 1.78148 9.33979e-19)
(18.6069 1.78267 9.7715e-19)
(18.3895 1.78438 0)
(16.415 8.03363 -5.14954e-18)
(16.8048 8.11273 9.23416e-18)
(17.1639 8.16997 8.69958e-18)
(17.5074 8.21926 -2.28919e-17)
(17.8413 8.25345 8.49008e-18)
(18.1687 8.27116 -1.75339e-17)
(18.494 8.27191 1.42176e-17)
(18.8203 8.25358 -2.06182e-17)
(19.1479 8.21311 1.8856e-17)
(19.4765 8.14756 -6.13742e-19)
(19.8078 8.05443 -7.68848e-18)
(20.1404 7.9292 -7.30098e-19)
(20.4673 7.76603 -5.85092e-18)
(20.7813 7.56 5.77178e-18)
(21.0759 7.30946 -4.57961e-18)
(21.3434 7.01617 4.98241e-18)
(21.575 6.68314 0)
(21.7626 6.31512 -3.45168e-18)
(21.899 5.919 4.2533e-18)
(21.9791 5.50338 -3.97767e-18)
(21.9983 5.07799 -2.32652e-19)
(21.9633 4.69085 6.68237e-18)
(21.8903 4.35465 1.03765e-19)
(21.7853 4.04309 -2.59489e-18)
(21.6537 3.75791 -4.96627e-24)
(21.5003 3.50005 0)
(21.3299 3.26976 -3.44724e-18)
(21.1472 3.0666 3.40829e-18)
(20.956 2.88958 0)
(20.7597 2.7373 -2.50614e-19)
(20.5612 2.60808 0)
(20.3627 2.5 2.35e-18)
(20.1661 2.41105 -2.65904e-18)
(19.9727 2.33911 -2.57788e-18)
(19.783 2.28189 5.26785e-18)
(19.5973 2.23766 -3.03263e-18)
(19.4163 2.2048 -3.54169e-19)
(19.2389 2.18168 7.36752e-19)
(19.0639 2.1671 -7.59655e-19)
(18.8929 2.16148 0)
(18.7193 2.15957 -7.80538e-19)
(16.6312 7.54857 0)
(16.9624 7.60588 -1.25283e-17)
(17.2668 7.64599 5.6629e-19)
(17.5562 7.67965 1.6731e-17)
(17.8353 7.70115 1.02392e-17)
(18.1069 7.70988 -1.05202e-17)
(18.375 7.70586 9.57371e-18)
(18.642 7.68774 9.15488e-18)
(18.9085 7.6534 1.7179e-17)
(19.1749 7.60082 -2.17271e-17)
(19.4425 7.52831 2.11714e-18)
(19.7109 7.43261 2.03104e-18)
(19.9756 7.30925 -7.00049e-18)
(20.2321 7.15434 5.08545e-18)
(20.4762 6.96614 7.08127e-18)
(20.7027 6.74505 -5.38155e-18)
(20.9056 6.49213 -6.23908e-18)
(21.0784 6.20965 6.36536e-18)
(21.2154 5.90146 0)
(21.3116 5.57293 7.2181e-19)
(21.3621 5.23046 7.2254e-19)
(21.3673 4.91217 5.51672e-18)
(21.3381 4.6298 -1.11867e-17)
(21.2811 4.36329 5.79376e-18)
(21.1998 4.1148 3.1251e-18)
(21.0978 3.88579 4.57487e-20)
(20.979 3.67715 -3.29602e-18)
(20.847 3.48916 5.31549e-20)
(20.705 3.32159 3.75779e-21)
(20.5558 3.17381 3.96387e-18)
(20.4018 3.04491 -4.00471e-18)
(20.2453 2.93375 -2.17556e-18)
(20.0879 2.83908 2.31993e-18)
(19.931 2.75953 -2.34433e-18)
(19.7755 2.69352 2.04599e-18)
(19.6221 2.63993 1.86672e-18)
(19.4716 2.59772 -9.32816e-19)
(19.324 2.56555 3.25863e-19)
(19.1789 2.54251 0)
(19.0374 2.5285 0)
(18.8975 2.51983 8.07076e-21)
(16.7912 7.15833 -5.76458e-18)
(17.0765 7.20014 6.42263e-18)
(17.3383 7.22811 -2.6979e-18)
(17.5858 7.25055 -5.17776e-18)
(17.8228 7.26282 0)
(18.0522 7.26485 9.84406e-18)
(18.277 7.25692 -2.34788e-17)
(18.4996 7.23812 1.44689e-17)
(18.7206 7.20699 -4.63479e-18)
(18.9403 7.16209 4.19108e-18)
(19.1601 7.10231 -2.01893e-18)
(19.3797 7.02533 -1.80416e-17)
(19.5964 6.92785 3.1754e-17)
(19.8071 6.80687 -1.36319e-17)
(20.009 6.66089 -1.63465e-18)
(20.1988 6.48978 -6.66884e-18)
(20.372 6.29376 2.01924e-17)
(20.5242 6.07382 -8.78983e-18)
(20.6507 5.83207 -1.3183e-17)
(20.7475 5.57182 5.43522e-18)
(20.8103 5.29714 -1.49845e-18)
(20.8365 5.03776 0)
(20.8334 4.80376 0)
(20.807 4.57974 -6.43005e-18)
(20.7596 4.36778 6.43302e-18)
(20.6939 4.16945 9.94241e-20)
(20.6127 3.98588 0)
(20.5187 3.81771 3.6557e-18)
(20.4146 3.66513 -3.66245e-18)
(20.3024 3.52801 2.92503e-20)
(20.1845 3.40595 -3.17421e-20)
(20.0624 3.29836 0)
(19.9379 3.20451 2.03441e-18)
(19.8121 3.12353 -2.14793e-18)
(19.686 3.05435 2.77829e-19)
(19.5606 2.99624 -2.85759e-19)
(19.4366 2.94853 0)
(19.3144 2.91015 -3.00321e-19)
(19.1943 2.88038 -6.19558e-19)
(19.0769 2.85899 3.02852e-19)
(18.9621 2.84351 9.38842e-19)
(16.9122 6.84053 0)
(17.1609 6.87102 0)
(17.3886 6.89015 -1.0046e-17)
(17.603 6.90444 -1.9495e-17)
(17.8071 6.91005 2.96661e-17)
(18.0035 6.90724 -2.35666e-17)
(18.195 6.89643 -8.94768e-18)
(18.3835 6.877 1.87207e-17)
(18.5695 6.84789 -1.80028e-17)
(18.7536 6.8081 1.79966e-17)
(18.9368 6.75682 0)
(19.1191 6.6924 0)
(19.2985 6.61241 1.6305e-17)
(19.473 6.5146 -3.21711e-17)
(19.6409 6.3978 3.07475e-17)
(19.7996 6.26175 -1.49506e-17)
(19.9462 6.10634 -1.86305e-18)
(20.0774 5.932 1.63682e-17)
(20.1897 5.73989 -1.11006e-17)
(20.28 5.53202 0)
(20.3448 5.311 7.72644e-19)
(20.3804 5.0999 0)
(20.3917 4.907 -7.11635e-18)
(20.3838 4.72033 1.38809e-17)
(20.3585 4.54171 -6.76363e-18)
(20.3174 4.37259 0)
(20.2627 4.2141 0)
(20.1964 4.06699 3.43947e-18)
(20.1205 3.93166 -3.67045e-18)
(20.0368 3.80825 -3.85089e-18)
(19.947 3.69667 3.87715e-18)
(19.8524 3.59665 4.03383e-18)
(19.7546 3.50781 -4.04444e-18)
(19.6546 3.42963 0)
(19.5532 3.36136 -3.35615e-20)
(19.4514 3.30256 0)
(19.3501 3.2528 -8.68129e-21)
(19.2495 3.21122 -3.52521e-20)
(19.1503 3.17728 1.22226e-18)
(19.0529 3.15069 -1.73051e-18)
(18.9579 3.12988 5.71662e-19)
(17.0057 6.57695 0)
(17.2242 6.59899 -1.21102e-18)
(17.4242 6.6116 0)
(17.6116 6.61991 9.3243e-18)
(17.7892 6.62069 -9.20403e-18)
(17.9593 6.6144 0)
(18.1243 6.60153 8.9708e-18)
(18.2858 6.58166 8.65461e-18)
(18.4444 6.55402 -2.2717e-17)
(18.6006 6.51787 0)
(18.7552 6.47264 1.71537e-17)
(18.9084 6.41714 -3.42411e-17)
(19.0586 6.34957 1.70343e-17)
(19.2045 6.26825 0)
(19.3449 6.17233 -1.58542e-17)
(19.478 6.06154 1.76151e-17)
(19.6017 5.93573 1.66568e-17)
(19.7136 5.79505 -1.83755e-17)
(19.8112 5.64017 -1.70342e-18)
(19.8922 5.47238 0)
(19.9537 5.29334 0)
(19.992 5.12102 -9.01484e-19)
(20.0105 4.9621 4.12525e-19)
(20.0135 4.80713 7.02706e-18)
(20.002 4.6576 5.36736e-19)
(19.9774 4.51476 -7.04194e-18)
(19.9411 4.37962 7.2395e-18)
(19.8948 4.25291 -7.00429e-18)
(19.8399 4.13507 -4.2055e-18)
(19.7777 4.02638 3.72485e-18)
(19.7097 3.92689 -3.85612e-18)
(19.6369 3.83653 3.84749e-18)
(19.5605 3.75512 0)
(19.4816 3.68237 -4.29824e-18)
(19.4007 3.61775 4.06409e-18)
(19.3188 3.561 0)
(19.2366 3.51185 8.11555e-21)
(19.1545 3.46963 1.10027e-18)
(19.073 3.43392 -1.13009e-18)
(18.9926 3.40449 5.11442e-19)
(18.9139 3.38035 -5.32934e-19)
(17.079 6.35507 0)
(17.2725 6.37073 1.11518e-18)
(17.4492 6.37847 -8.93619e-18)
(17.6143 6.38233 1.74624e-17)
(17.7701 6.37959 -3.52378e-17)
(17.9187 6.37083 1.77638e-17)
(18.0622 6.35657 0)
(18.202 6.33653 8.59419e-18)
(18.3386 6.31012 5.16468e-17)
(18.4725 6.2768 -3.48404e-17)
(18.6044 6.23618 0)
(18.7344 6.18738 -4.31956e-18)
(18.8614 6.12906 1.23386e-17)
(18.9843 6.05998 -3.09852e-19)
(19.1024 5.97951 -1.64656e-17)
(19.2145 5.88747 1.7832e-17)
(19.319 5.78372 -1.54965e-17)
(19.4141 5.66831 1.48412e-17)
(19.4979 5.54168 -1.48529e-17)
(19.5689 5.40467 -1.45623e-17)
(19.6248 5.25838 1.25526e-17)
(19.6622 5.11693 -6.28314e-18)
(19.6836 4.98563 7.97452e-18)
(19.6924 4.85696 -7.53226e-18)
(19.6894 4.73207 -1.39786e-18)
(19.6755 4.612 7.11178e-18)
(19.6519 4.4976 0)
(19.6197 4.38951 0)
(19.5801 4.28816 -6.93312e-18)
(19.5341 4.19383 7.35798e-18)
(19.4827 4.10666 0)
(19.427 4.02666 4.80391e-19)
(19.3677 3.95377 4.84949e-19)
(19.3057 3.88783 4.13514e-18)
(19.2416 3.82846 -4.1289e-18)
(19.1762 3.77552 -1.98794e-18)
(19.11 3.72883 1.98022e-18)
(19.0435 3.68789 -7.58815e-19)
(18.9771 3.65238 2.02744e-18)
(18.9113 3.62209 -9.8339e-19)
(18.8464 3.59651 -1.26379e-19)
(17.1373 6.16601 8.23628e-18)
(17.3095 6.17679 1.00631e-17)
(17.4667 6.18085 -1.82052e-19)
(17.613 6.1814 0)
(17.7506 6.17611 0)
(17.8813 6.16563 0)
(18.0071 6.15049 0)
(18.129 6.13049 -3.32132e-17)
(18.2476 6.1052 5.87825e-17)
(18.3633 6.07423 -3.37752e-17)
(18.4768 6.03729 3.31463e-17)
(18.588 5.99374 -2.10354e-17)
(18.6963 5.94257 3.68135e-17)
(18.8007 5.88289 -4.51011e-17)
(18.9008 5.81423 1.63752e-17)
(18.9956 5.73649 1.19311e-17)
(19.084 5.64957 -1.55913e-17)
(19.1647 5.55352 1.84266e-18)
(19.2364 5.44863 -1.90888e-18)
(19.2979 5.33549 1.84984e-17)
(19.3474 5.21487 1.62609e-17)
(19.382 5.09795 -2.69343e-17)
(19.4037 4.98897 -8.63944e-19)
(19.4153 4.88184 0)
(19.4172 4.77747 8.64371e-19)
(19.4101 4.67668 -9.08959e-19)
(19.3951 4.58017 -6.2697e-18)
(19.3728 4.48845 7.15349e-18)
(19.3442 4.40192 -7.26126e-18)
(19.3101 4.32083 7.23396e-18)
(19.2713 4.24533 7.35927e-18)
(19.2286 4.17547 -7.78379e-18)
(19.1827 4.11126 -4.57157e-19)
(19.1342 4.05258 3.75859e-18)
(19.0837 3.99919 -3.03442e-18)
(19.0317 3.95099 0)
(18.9787 3.90789 0)
(18.9251 3.86948 -2.37826e-19)
(18.8713 3.83553 4.84684e-19)
(18.8177 3.80588 4.86549e-19)
(18.7646 3.78032 1.18378e-19)
(17.1842 6.00322 0)
(17.3382 6.01025 -1.90665e-18)
(17.4785 6.01154 1.53068e-17)
(17.6089 6.00962 -1.56337e-17)
(17.7311 6.00249 -3.10176e-17)
(17.8467 5.99084 3.18308e-17)
(17.9575 5.97521 1.55563e-17)
(18.0646 5.95544 -3.22742e-17)
(18.1683 5.93124 -3.19447e-17)
(18.269 5.9023 3.25183e-17)
(18.3673 5.86842 0)
(18.4632 5.82914 -1.6133e-17)
(18.5561 5.78371 3.19899e-17)
(18.6453 5.73146 -3.61626e-17)
(18.7306 5.67209 0)
(18.8112 5.60554 -4.00816e-18)
(18.8863 5.53176 3.917e-18)
(18.9549 5.4508 0)
(19.016 5.3629 1.81602e-18)
(19.0689 5.26851 -3.58765e-18)
(19.112 5.16816 1.63359e-17)
(19.1432 5.07081 -1.6071e-17)
(19.1639 4.97984 1.80362e-18)
(19.1764 4.89028 1.32397e-17)
(19.1809 4.80283 -1.3169e-17)
(19.1781 4.71815 8.61098e-19)
(19.1687 4.63678 -7.93384e-18)
(19.1533 4.55915 7.03969e-18)
(19.1326 4.48556 8.98312e-19)
(19.1072 4.41624 0)
(19.0779 4.35132 0)
(19.0451 4.29087 0)
(19.0095 4.23491 -3.60928e-18)
(18.9715 4.18336 3.59286e-18)
(18.9317 4.13605 -4.47848e-19)
(18.8904 4.09293 -3.65234e-18)
(18.8481 4.05393 4.09398e-18)
(18.805 4.01874 0)
(18.7616 3.98718 5.90786e-21)
(18.7181 3.95914 -9.19531e-19)
(18.6747 3.9346 4.48482e-19)
(17.2223 5.86181 7.03396e-18)
(17.3604 5.86596 0)
(17.4862 5.86515 -3.55018e-17)
(17.6029 5.86139 2.91608e-17)
(17.7118 5.85296 0)
(17.8146 5.84057 2.95564e-17)
(17.9128 5.82472 -2.29056e-19)
(18.0072 5.80534 3.02649e-17)
(18.0984 5.7822 -4.64165e-17)
(18.1866 5.75507 -3.07535e-17)
(18.2722 5.72383 3.12994e-17)
(18.3553 5.68813 7.69608e-18)
(18.4355 5.64742 0)
(18.5123 5.60122 0)
(18.5853 5.54931 -7.84215e-18)
(18.6541 5.4917 3.4556e-17)
(18.7181 5.42838 -6.82425e-17)
(18.7766 5.35942 2.98781e-17)
(18.8287 5.28501 3.7224e-18)
(18.8739 5.20552 3.68183e-18)
(18.9113 5.12133 -1.75252e-18)
(18.9388 5.03968 2.64335e-17)
(18.9578 4.96329 -4.53435e-17)
(18.9701 4.88807 8.25491e-19)
(18.9759 4.81455 1.2976e-17)
(18.9756 4.74324 0)