/*--------------------------------*- C++ -*----------------------------------*\
| =========                 |                                                 |
| \\      /  F ield         | OpenFOAM: The Open Source CFD Toolbox           |
|  \\    /   O peration     | Version:  5.x                                   |
|   \\  /    A nd           | Web:      www.OpenFOAM.org                      |
|    \\/     M anipulation  |                                                 |
\*---------------------------------------------------------------------------*/
FoamFile
{
    version     2.0;
    format      ascii;
    class       volVectorField;
    location    "350";
    object      U;
}
// * * * * * * * * * * * * * * * * * * * * * * * * * * * * * * * * * * * * * //

dimensions      [0 1 -1 0 0 0 0];

internalField   nonuniform List<vector> 
41860
(
(161.96 247.175 0)
(242.402 186.8 4.0461e-16)
(280.335 113.987 1.19536e-16)
(253.257 85.0664 -3.61911e-16)
(238.639 66.9559 -9.0221e-22)
(222.825 53.9709 -2.56335e-16)
(207.809 44.327 -3.10181e-16)
(195.235 37.2191 3.64957e-16)
(184.456 31.7605 0)
(174.964 27.3925 -4.72786e-16)
(166.362 23.8323 5.34681e-16)
(158.752 20.8702 5.70704e-16)
(151.485 18.3426 -4.93551e-21)
(146.088 16.316 6.49554e-16)
(140.836 14.5278 -7.35386e-16)
(137.761 13.1489 -7.27452e-16)
(134.295 11.8407 7.70367e-16)
(131.415 10.7113 -7.93873e-16)
(128.922 9.69221 -7.96568e-16)
(125.889 8.72032 8.48481e-16)
(124.04 7.90032 -8.28062e-16)
(121.382 7.08136 -2.44958e-21)
(119.542 6.37339 -5.44814e-21)
(117.721 5.70485 3.27608e-21)
(115.738 5.07357 1.75636e-15)
(114.497 4.50918 -8.50142e-16)
(112.74 3.95445 0)
(111.294 3.44556 -4.24656e-16)
(109.988 2.96558 4.25798e-16)
(108.782 2.5121 0)
(107.347 2.07808 3.16562e-21)
(105.865 1.66341 -3.13543e-21)
(104.751 1.27926 -2.72763e-21)
(103.956 0.910901 6.04177e-21)
(102.774 0.561206 1.9461e-16)
(102.07 0.225304 0)
(101.1 -0.092461 -2.33082e-17)
(100.276 -0.400297 1.83961e-16)
(100.096 -0.694394 -1.759e-16)
(99.5772 -0.981921 3.43321e-16)
(99.0218 -1.25201 0)
(98.6017 -1.51814 -1.29534e-15)
(93.9578 -1.67054 0)
(93.5904 -1.86437 3.65464e-21)
(92.6921 -2.02886 8.77827e-16)
(92.325 -2.1996 -1.67736e-21)
(91.8373 -2.35688 1.6719e-21)
(91.2756 -2.50307 8.84817e-16)
(90.7516 -2.64528 -1.77566e-15)
(90.1284 -2.77225 -8.93905e-16)
(89.6315 -2.90213 -1.7157e-21)
(89.1718 -3.01981 9.00932e-16)
(88.7301 -3.13938 -9.03999e-16)
(88.4825 -3.25403 1.72792e-21)
(88.1229 -3.36705 6.26597e-24)
(87.4421 -3.45626 6.26702e-24)
(87.159 -3.56139 -1.74374e-21)
(86.8217 -3.65674 0)
(86.5319 -3.75379 -1.83487e-15)
(86.1514 -3.84273 -1.76357e-21)
(86.1639 -3.94866 1.82459e-15)
(85.545 -4.03323 -1.8528e-15)
(85.0025 -4.12739 1.8627e-15)
(84.8425 -4.234 -3.71737e-15)
(84.2758 -4.32351 1.87228e-15)
(84.3599 -4.44058 -1.85158e-15)
(83.7802 -4.52697 0)
(83.384 -4.61652 8.89396e-22)
(82.9367 -4.70633 3.3717e-24)
(82.3321 -4.78582 -1.8619e-15)
(81.7214 -4.86236 -3.60948e-24)
(81.1974 -4.947 9.04833e-22)
(80.5733 -5.02343 3.76874e-15)
(79.3517 -5.06183 -4.61106e-22)
(78.6116 -5.13018 3.90301e-15)
(77.7636 -5.19287 0)
(76.5064 -5.22615 -7.86306e-15)
(75.0585 -5.24591 -2.37466e-22)
(73.6294 -5.26355 4.07172e-15)
(71.1097 -5.20378 -4.07692e-15)
(72.872 -5.44455 4.14765e-15)
(0.195836 -0.270852 -7.27878e-15)
(208.279 307.516 0)
(297.722 229.432 -1.74411e-16)
(326.801 133.104 -4.90819e-17)
(291.841 98.5082 1.47078e-16)
(277.718 78.0691 0)
(262.278 63.6664 4.17542e-22)
(249.537 53.3516 2.59057e-16)
(239.439 45.7605 5.75658e-22)
(231.051 39.8911 1.81561e-16)
(223.935 35.1604 2.09189e-16)
(217.917 31.3135 -2.41709e-16)
(211.995 27.96 -5.25616e-16)
(207.441 25.2054 5.1384e-23)
(202.431 22.6888 -2.32487e-21)
(199.851 20.6927 0)
(196.976 18.871 0)
(195.246 17.2812 -3.68516e-16)
(193.708 15.8509 0)
(191.963 14.4893 3.8062e-16)
(191.134 13.2952 0)
(189.359 12.1111 7.88616e-16)
(188.301 11.0341 -4.16017e-16)
(186.917 10.011 -4.09714e-16)
(185.325 9.02343 0)
(184.201 8.11483 -1.90852e-21)
(182.261 7.21413 -4.09642e-16)
(181.011 6.38452 0)
(179.451 5.58819 0)
(177.783 4.82308 -6.21331e-22)
(176.073 4.09447 0)
(174.521 3.40546 0)
(173.076 2.74483 0)
(171.372 2.11581 1.96533e-16)
(169.543 1.50714 0)
(167.959 0.937461 -9.51865e-17)
(166.135 0.385443 1.44174e-21)
(164.501 -0.132672 -1.39459e-21)
(162.811 -0.63352 -4.53228e-17)
(160.948 -1.10194 8.68187e-17)
(159.056 -1.55465 -1.96644e-22)
(157.431 -1.97742 -1.26154e-21)
(155.575 -2.38479 6.40181e-16)
(156.89 -2.77797 0)
(156.339 -3.10162 4.34594e-16)
(155.65 -3.39496 -4.37235e-16)
(154.523 -3.67075 1.67982e-21)
(153.522 -3.92939 4.42601e-16)
(152.585 -4.1743 -4.4626e-16)
(151.649 -4.41063 2.92256e-22)
(150.78 -4.62849 4.50892e-16)
(149.889 -4.84436 0)
(149.007 -5.03773 -4.547e-16)
(148.149 -5.23385 1.74394e-21)
(147.237 -5.40736 6.42215e-24)
(146.391 -5.58567 -1.7435e-21)
(145.789 -5.75495 8.79259e-22)
(144.962 -5.9169 -1.74978e-21)
(144.054 -6.06085 8.82047e-22)
(143.376 -6.2136 9.18404e-16)
(142.518 -6.35162 8.88645e-22)
(141.649 -6.48588 -9.21638e-16)
(141.032 -6.64349 9.32347e-16)
(140.355 -6.80972 -8.86186e-22)
(139.435 -6.95321 9.34045e-16)
(138.708 -7.11107 -9.34794e-16)
(137.637 -7.24 -8.88196e-22)
(136.94 -7.39401 0)
(136.007 -7.52561 9.28217e-16)
(134.94 -7.65275 -1.69794e-24)
(133.987 -7.78318 2.21373e-22)
(133.044 -7.9115 9.44378e-16)
(131.819 -8.02682 0)
(130.602 -8.13735 -1.8958e-15)
(129.526 -8.2571 -2.07801e-24)
(128.153 -8.3585 -1.95068e-15)
(126.516 -8.44326 -1.96727e-15)
(124.958 -8.5301 1.9702e-15)
(123.003 -8.59105 -2.00773e-15)
(121.12 -8.65252 -2.05215e-15)
(117.482 -8.59071 0)
(119.779 -8.92754 -2.08752e-15)
(8.11762 -0.841629 1.15886e-14)
(229.16 336.733 -4.53362e-18)
(326.933 252.134 0)
(352.221 143.581 3.74318e-17)
(313.166 105.818 1.11452e-16)
(298.948 84.0864 0)
(283.545 68.8682 0)
(271.847 58.1524 -9.40854e-17)
(262.949 50.2792 0)
(255.756 44.1785 -1.27157e-16)
(249.845 39.2478 -1.11771e-21)
(245.12 35.2398 1.63648e-16)
(240.052 31.6757 6.96652e-21)
(236.659 28.7698 2.00205e-16)
(231.785 25.991 2.03801e-16)
(229.83 23.8074 0)
(226.807 21.7383 2.21851e-16)
(225.176 19.9385 0)
(223.629 18.3066 2.32074e-16)
(221.786 16.7468 2.30418e-16)
(220.983 15.3774 -2.38079e-16)
(219.06 14.0161 -2.32021e-16)
(218.091 12.7847 2.40554e-16)
(216.452 11.5973 2.35165e-16)
(214.896 10.4674 2.36969e-16)
(213.504 9.40957 -1.13164e-21)
(211.6 8.37886 2.33103e-16)
(210.249 7.41913 0)
(208.371 6.49184 -1.14652e-16)
(206.767 5.61222 -3.65421e-22)
(204.929 4.76828 0)
(203.212 3.96803 1.74618e-21)
(201.478 3.19784 1.12288e-16)
(199.628 2.46684 1.10757e-16)
(197.79 1.76047 5.54855e-17)
(195.892 1.09546 0)
(194.019 0.452168 1.65805e-21)
(192.04 -0.152842 -6.57937e-18)
(190.136 -0.738073 -2.61416e-17)
(187.979 -1.28534 -5.08851e-17)
(185.942 -1.81565 -1.01314e-16)
(183.845 -2.30747 -2.99449e-21)
(181.62 -2.78326 2.71706e-21)
(183.871 -3.25526 8.75089e-24)
(183.26 -3.6345 -2.47004e-16)
(182.285 -3.97475 2.46649e-16)
(181.187 -4.3031 -2.51006e-16)
(180.07 -4.60775 -2.5229e-16)
(179.006 -4.89603 0)
(177.936 -5.1741 2.56064e-16)
(176.911 -5.4296 2.57647e-16)
(175.878 -5.68333 9.90521e-22)
(174.854 -5.9106 -8.48296e-22)
(173.851 -6.14095 2.61815e-16)
(172.822 -6.34605 -1.0064e-21)
(171.829 -6.55535 -5.28338e-16)
(170.925 -6.74626 -1.00874e-21)
(169.942 -6.9357 5.27921e-16)
(169.011 -7.11005 0)
(168.051 -7.28218 0)
(167.167 -7.44942 5.39755e-16)
(166.172 -7.60797 0)
(165.37 -7.78905 1.03703e-21)
(164.428 -7.97693 -1.53824e-21)
(163.448 -8.14989 5.19316e-22)
(162.461 -8.32807 0)
(161.361 -8.48726 5.48473e-16)
(160.354 -8.6574 -5.46132e-16)
(159.24 -8.8104 -1.09099e-15)
(158.172 -8.96944 -5.59847e-16)
(156.961 -9.1168 -4.08438e-22)
(155.768 -9.26194 -5.56312e-16)
(154.499 -9.40698 0)
(153.058 -9.53541 -2.68512e-22)
(151.701 -9.66973 1.13569e-15)
(150.134 -9.79118 -1.14984e-15)
(148.388 -9.90178 1.16538e-15)
(146.491 -9.9986 1.16146e-15)
(144.304 -10.0775 1.18227e-15)
(142.203 -10.1569 3.63361e-22)
(138.26 -10.1094 0)
(140.658 -10.4555 0)
(22.7551 -1.95441 -1.25213e-14)
(245.116 360.451 1.05219e-17)
(353.55 272.95 0)
(377.27 153.964 1.54256e-20)
(334.088 112.964 -1.03464e-16)
(318.99 89.7737 0)
(303.438 73.7359 5.4273e-22)
(292.064 62.5032 -5.8471e-22)
(283.541 54.2363 0)
(276.734 47.8174 -1.56427e-21)
(271.223 42.6179 1.6665e-21)
(266.869 38.3766 1.23362e-16)
(262.255 34.6136 1.32662e-16)
(259.038 31.4977 -1.47248e-16)
(254.443 28.5379 -3.03618e-16)
(252.001 26.109 -2.4842e-21)
(248.78 23.8486 -1.63017e-16)
(246.658 21.8439 0)
(244.722 20.0363 -1.68498e-16)
(242.604 18.3211 -1.67224e-16)
(241.305 16.7937 1.7179e-16)
(239.245 15.3096 -1.67869e-16)
(237.913 13.9484 -3.45468e-16)
(236.085 12.6512 -1.06068e-21)
(234.381 11.4181 -3.40801e-16)
(232.743 10.2592 -1.70397e-16)
(230.827 9.14184 0)
(229.277 8.09212 0)
(227.315 7.0836 1.66128e-16)
(225.636 6.12586 -8.42577e-17)
(223.756 5.20783 8.29943e-17)
(221.95 4.33532 0)
(220.095 3.49471 -8.16645e-17)
(218.205 2.69771 -8.06908e-17)
(216.38 1.92727 -4.04602e-17)
(214.4 1.20024 0)
(212.539 0.496637 2.43069e-21)
(210.487 -0.166243 -2.34966e-21)
(208.536 -0.808241 1.9296e-17)
(206.411 -1.41009 -3.78588e-17)
(204.366 -1.99425 0)
(202.19 -2.53642 0)
(199.915 -3.06372 -2.9068e-16)
(201.542 -3.56867 0)
(200.893 -3.98365 1.80922e-16)
(199.795 -4.35585 0)
(198.684 -4.71791 -1.25682e-21)
(197.516 -5.05345 1.4106e-21)
(196.387 -5.37069 -1.87158e-16)
(195.254 -5.67694 1.88385e-16)
(194.148 -5.95788 -1.89766e-16)
(193.048 -6.23742 0)
(191.959 -6.48806 1.92285e-16)
(190.889 -6.74207 -1.93448e-16)
(189.817 -6.96941 0)
(188.763 -7.20069 1.80153e-22)
(187.731 -7.40887 1.49889e-21)
(186.69 -7.61851 -7.8587e-16)
(185.713 -7.81198 7.60807e-22)
(184.669 -8.00159 -7.5435e-22)
(183.73 -8.18678 -4.02037e-16)
(182.706 -8.36431 7.66095e-22)
(181.793 -8.56187 -7.71768e-22)
(180.728 -8.76697 0)
(179.718 -8.96039 4.08264e-16)
(178.605 -9.15488 -2.73189e-24)
(177.508 -9.33582 -4.11116e-16)
(176.374 -9.5215 4.1137e-16)
(175.175 -9.69121 4.11474e-16)
(174.047 -9.86876 4.20574e-16)
(172.714 -10.0309 8.29825e-16)
(171.405 -10.1908 4.2034e-16)
(170.065 -10.3537 -4.05748e-22)
(168.512 -10.4971 8.4743e-16)
(166.962 -10.6414 -8.56733e-16)
(165.288 -10.7783 1.73849e-15)
(163.438 -10.9047 -4.18008e-22)
(161.349 -11.0113 -8.77923e-16)
(158.982 -11.101 -8.92776e-16)
(156.706 -11.1907 9.09881e-16)
(152.496 -11.1498 9.22181e-16)
(155.046 -11.4881 9.29302e-16)
(42.0293 -3.53925 1.287e-14)
(257.056 378.507 -5.68297e-18)
(375.726 290.434 -9.70076e-17)
(400.063 163.495 -2.97029e-17)
(353.123 119.5 8.69702e-17)
(336.101 94.6536 4.90946e-17)
(320.167 77.8466 5.50399e-17)
(308.341 66.0191 6.22825e-17)
(299.51 57.3152 -1.02862e-21)
(292.557 50.5703 7.65323e-17)
(287.013 45.114 1.25869e-21)
(282.648 40.6582 -9.27158e-17)
(278.323 36.7449 3.08186e-21)
(275.09 33.4591 -3.33909e-21)
(270.934 30.3959 1.15309e-16)
(268.152 27.7896 3.87479e-21)
(264.935 25.4037 -7.69488e-21)
(262.529 23.2548 7.94229e-21)
(260.394 21.3243 -4.00202e-21)
(258.161 19.5002 0)
(256.596 17.8617 0)
(254.505 16.2898 2.67603e-16)
(252.957 14.8337 1.37963e-16)
(251.084 13.4581 -1.36456e-16)
(249.287 12.1472 1.37054e-16)
(247.565 10.9154 -1.37996e-16)
(245.63 9.7308 2.08152e-21)
(243.977 8.61349 -2.10948e-21)
(242.025 7.54445 -2.83208e-22)
(240.279 6.52573 -2.10181e-21)
(238.39 5.55068 -1.35395e-16)
(236.549 4.62263 0)
(234.675 3.72827 6.70485e-17)
(232.774 2.87983 1.36494e-23)
(230.928 2.05879 3.31834e-17)
(228.95 1.28357 3.25932e-17)
(227.07 0.532437 8.15846e-18)
(225.027 -0.17594 3.99731e-18)
(223.061 -0.862772 0)
(220.962 -1.50774 3.13108e-17)
(218.903 -2.13437 -1.906e-21)
(216.737 -2.71718 1.85894e-21)
(214.458 -3.28612 2.41412e-16)
(215.508 -3.81602 0)
(214.829 -4.2591 0)
(213.696 -4.65782 -1.50598e-16)
(212.541 -5.04584 1.52762e-16)
(211.337 -5.40595 0)
(210.164 -5.74637 1.55385e-16)
(208.99 -6.07521 1.07582e-21)
(207.836 -6.37686 -2.40715e-21)
(206.692 -6.67723 -4.7043e-24)
(205.56 -6.94675 -1.60034e-16)
(204.447 -7.21991 -1.22676e-21)
(203.339 -7.46488 0)
(202.243 -7.71392 3.25947e-16)
(201.162 -7.93796 -3.28036e-16)
(200.081 -8.16398 6.57589e-16)
(199.048 -8.37193 3.32466e-16)
(197.971 -8.57702 -3.31845e-16)
(196.971 -8.77584 1.28398e-21)
(195.918 -8.9682 4.29632e-24)
(194.941 -9.18013 -3.39099e-16)
(193.828 -9.40142 -1.28497e-21)
(192.761 -9.60966 -3.41903e-16)
(191.593 -9.81961 6.51543e-22)
(190.448 -10.0154 3.44359e-16)
(189.254 -10.2158 0)
(187.993 -10.3993 0)
(186.787 -10.59 0)
(185.383 -10.7655 -3.48292e-16)
(184.001 -10.9385 -3.53725e-16)
(182.575 -11.114 0)
(180.942 -11.27 -7.11494e-16)
(179.283 -11.4253 0)
(177.513 -11.5739 -7.31853e-16)
(175.55 -11.7111 1.76556e-24)
(173.343 -11.8279 -7.04965e-22)
(170.828 -11.9262 7.51363e-16)
(168.408 -12.0235 7.65466e-16)
(163.951 -11.9866 -7.72945e-16)
(166.661 -12.3068 9.91103e-22)
(62.5895 -5.24558 0)
(265.957 391.993 1.03875e-17)
(393.477 304.603 1.64131e-16)
(418.442 171.294 0)
(368.617 124.88 -1.40014e-16)
(349.629 98.5465 -7.85436e-17)
(333.305 81.0993 -8.79842e-17)
(321.002 68.772 -9.94779e-17)
(311.871 59.7125 3.37582e-21)
(304.792 52.7101 -1.22679e-16)
(299.239 47.0557 6.75842e-17)
(294.904 42.4379 2.31449e-21)
(290.825 38.4095 -2.42703e-21)
(287.66 35.0006 0)
(283.914 31.8633 0)
(281.068 29.1382 3.19794e-21)
(277.962 26.6617 -1.04891e-16)
(275.441 24.4061 3.30297e-21)
(273.224 22.3818 -1.11313e-16)
(270.957 20.4728 1.11552e-16)
(269.246 18.7477 -3.55998e-21)
(267.166 17.1052 -1.14222e-16)
(265.497 15.5736 3.62198e-21)
(263.619 14.1345 -3.56077e-21)
(261.779 12.76 1.17927e-16)
(260.022 11.4685 2.38406e-16)
(258.09 10.228 1.17381e-16)
(256.382 9.05486 -1.20211e-16)
(254.455 7.93526 -5.8829e-17)
(252.672 6.86546 3.6237e-21)
(250.79 5.8424 5.8866e-17)
(248.937 4.86757 0)
(247.067 3.9279 -5.85142e-17)
(245.17 3.03583 3.52353e-21)
(243.308 2.17173 -2.89657e-17)
(241.35 1.35555 -2.85155e-17)
(239.455 0.563882 -7.12798e-18)
(237.437 -0.183311 0)
(235.468 -0.908478 0)
(233.391 -1.5903 2.74589e-17)
(231.329 -2.25333 -1.66091e-21)
(229.187 -2.87105 0)
(226.917 -3.47606 -1.53583e-22)
(227.492 -4.02786 -1.98398e-21)
(226.784 -4.49489 2.00609e-21)
(225.636 -4.91663 1.32728e-16)
(224.445 -5.32696 1.34528e-16)
(223.213 -5.70828 4.13386e-21)
(222.009 -6.06878 8.58759e-24)
(220.803 -6.41721 -1.3801e-16)
(219.617 -6.73691 -8.38205e-24)
(218.44 -7.05538 4.28085e-21)
(217.277 -7.34134 1.41293e-16)
(216.131 -7.63117 1.42281e-16)
(214.992 -7.89136 0)
(213.864 -8.15587 -2.8809e-16)
(212.752 -8.394 2.90371e-16)
(211.638 -8.63428 -5.82267e-16)
(210.561 -8.85488 -1.47622e-22)
(209.46 -9.0735 2.9402e-16)
(208.412 -9.28432 0)
(207.332 -9.48944 0)
(206.308 -9.7142 3.00383e-16)
(205.166 -9.95008 2.28414e-21)
(204.045 -10.1709 -1.15394e-21)
(202.843 -10.3948 0)
(201.646 -10.6029 -8.23533e-23)
(200.405 -10.8163 0)
(199.094 -11.0119 3.07254e-16)
(197.82 -11.214 3.1285e-16)
(196.364 -11.4016 3.09121e-16)
(194.919 -11.5859 3.14265e-16)
(193.418 -11.7723 0)
(191.719 -11.9394 -6.0378e-22)
(189.978 -12.1049 6.41151e-16)
(188.12 -12.2633 0)
(186.059 -12.4099 0)
(183.756 -12.5358 0)
(181.113 -12.6415 0)
(178.571 -12.7454 -6.79996e-16)
(173.897 -12.7127 6.85226e-16)
(176.741 -13.0058 -1.39375e-15)
(81.5477 -6.84099 2.26328e-14)
(272.415 401.914 -9.07764e-18)
(408.019 316.414 -1.44043e-16)
(433.43 177.796 -3.41554e-22)
(381.402 129.384 5.85057e-17)
(360.798 101.8 7.59366e-21)
(344.137 83.808 3.71427e-17)
(331.493 71.0726 8.44144e-17)
(322.154 61.7214 -4.72194e-17)
(315.001 54.5068 5.24171e-17)
(309.465 48.6886 -2.97245e-21)
(305.188 43.9384 6.42635e-17)
(301.315 39.8122 4.27879e-21)
(298.253 36.3047 -4.67592e-21)
(294.846 33.1038 4.98787e-21)
(292.058 30.2898 -1.1001e-20)
(289.105 27.7416 1.36317e-20)
(286.562 25.4011 8.6639e-23)
(284.325 23.2997 9.80711e-17)
(282.067 21.3197 -9.86189e-17)
(280.277 19.5226 6.24548e-21)
(278.228 17.8198 -1.01604e-16)
(276.494 16.2245 6.39438e-21)
(274.629 14.7302 1.04844e-16)
(272.777 13.3012 -8.89633e-22)
(271.008 11.9579 -1.39094e-20)
(269.094 10.6686 -2.10867e-16)
(267.358 9.44678 1.08156e-16)
(265.461 8.28252 3.24743e-21)
(263.663 7.16793 -3.26781e-21)
(261.794 6.10244 0)
(259.943 5.08626 -3.25366e-21)
(258.082 4.10638 5.29278e-17)
(256.195 3.17557 -5.24348e-17)
(254.33 2.27322 2.62204e-17)
(252.391 1.42057 0)
(250.493 0.592794 0)
(248.498 -0.189014 0)
(246.533 -0.948394 -3.10497e-21)
(244.475 -1.6631 -2.49245e-17)
(242.419 -2.3587 3.01578e-21)
(240.301 -3.00761 -2.98389e-21)
(238.046 -3.6451 -1.7554e-22)
(238.232 -4.21728 7.20058e-21)
(237.494 -4.70562 1.19993e-16)
(236.336 -5.14799 1.20992e-16)
(235.118 -5.57845 -1.22633e-16)
(233.865 -5.97888 -3.76177e-21)
(232.636 -6.35749 -1.24952e-16)
(231.406 -6.7236 3.83546e-21)
(230.194 -7.05963 0)
(228.992 -7.39447 0)
(227.802 -7.69529 0)
(226.629 -8.00021 -2.59969e-16)
(225.465 -8.27414 2.61936e-16)
(224.31 -8.55263 5.26683e-16)
(223.171 -8.80348 0)
(222.031 -9.05668 -1.88047e-21)
(220.919 -9.2889 -2.69055e-16)
(219.795 -9.51963 2.69099e-16)
(218.71 -9.74151 -2.72224e-16)
(217.605 -9.95811 -2.71708e-16)
(216.544 -10.1946 2.75e-16)
(215.377 -10.4436 0)
(214.211 -10.676 0)
(212.977 -10.9124 0)
(211.735 -11.1316 -2.79748e-16)
(210.452 -11.3567 -1.07135e-21)
(209.097 -11.5633 -2.81641e-16)
(207.766 -11.7759 -2.86715e-16)
(206.266 -11.9746 -2.83341e-16)
(204.762 -12.169 -2.88144e-16)
(203.198 -12.3654 0)
(201.442 -12.5426 0)
(199.627 -12.7173 -5.8799e-16)
(197.69 -12.8846 -1.13768e-21)
(195.543 -13.0396 5.71358e-22)
(193.155 -13.1738 0)
(190.4 -13.2863 6.11961e-16)
(187.749 -13.3959 -5.94312e-22)
(182.885 -13.3684 -6.27134e-16)
(185.835 -13.6257 6.39842e-16)
(97.8615 -8.25471 -1.95288e-14)
(276.876 408.974 1.40998e-17)
(420.213 326.548 6.50846e-17)
(446.337 183.553 1.90883e-22)
(392.6 133.401 -5.13906e-17)
(370.639 104.708 2.94536e-17)
(353.665 86.2188 -3.30479e-17)
(340.754 73.124 -7.07337e-21)
(331.248 63.5132 4.22541e-17)
(324.032 56.108 4.69306e-17)
(318.511 50.1422 -1.03704e-16)
(314.288 45.2734 -5.75858e-17)
(310.578 41.057 0)
(307.62 37.4633 4.28174e-21)
(304.49 34.2028 -4.36732e-21)
(301.807 31.3155 8.09374e-17)
(299.02 28.7062 8.23433e-17)
(296.508 26.2943 8.65338e-17)
(294.287 24.1264 8.89932e-17)
(292.061 22.0843 0)
(290.231 20.2243 9.3942e-17)
(288.223 18.4676 1.42902e-21)
(286.458 16.8162 0)
(284.614 15.2725 -9.62016e-17)
(282.769 13.7946 -9.70409e-17)
(281.001 12.4047 -9.84682e-17)
(279.114 11.0714 9.71514e-17)
(277.368 9.80562 6.11382e-21)
(275.5 8.60066 -5.95018e-21)
(273.701 7.4455 0)
(271.85 6.34131 4.91392e-17)
(270.007 5.28744 6.02245e-21)
(268.159 4.27078 -4.90206e-17)
(266.286 3.30454 9.71735e-17)
(264.425 2.36721 -4.86141e-17)
(262.504 1.48111 -2.39574e-17)
(260.609 0.620255 -5.83668e-21)
(258.635 -0.1933 0)
(256.676 -0.984074 0)
(254.638 -1.72897 2.31513e-17)
(252.593 -2.45448 0)
(250.496 -3.13202 -4.53115e-17)
(248.26 -3.79952 -1.66812e-22)
(248.121 -4.39117 0)
(247.348 -4.89898 -1.11743e-16)
(246.183 -5.3603 -2.255e-16)
(244.947 -5.8094 -3.49589e-21)
(243.676 -6.22747 -1.15174e-16)
(242.426 -6.62285 2.33069e-16)
(241.176 -7.0053 -1.17492e-16)
(239.942 -7.35648 1.18557e-16)
(238.719 -7.70646 -3.6412e-21)
(237.507 -8.02106 -3.6835e-21)
(236.312 -8.33996 1.2138e-16)
(235.125 -8.62661 -2.44646e-16)
(233.947 -8.91805 -2.45999e-16)
(232.783 -9.18067 0)
(231.62 -9.44584 2.48913e-16)
(230.479 -9.68894 -3.84377e-21)
(229.332 -9.93081 -2.51577e-16)
(228.217 -10.1631 2.54518e-16)
(227.089 -10.3903 2.5409e-16)
(225.997 -10.6377 -5.14393e-16)
(224.805 -10.8988 -3.91512e-21)
(223.602 -11.142 1.9772e-21)
(222.337 -11.39 -1.98371e-21)
(221.055 -11.6195 2.6176e-16)
(219.734 -11.8554 -2.63296e-16)
(218.34 -12.0722 0)
(216.958 -12.2945 0)
(215.42 -12.5035 0)
(213.861 -12.7072 -2.69715e-16)
(212.24 -12.9129 -1.04171e-21)
(210.432 -13.0995 1.03183e-21)
(208.551 -13.2828 -5.50406e-16)
(206.542 -13.4582 0)
(204.318 -13.6211 5.37397e-22)
(201.852 -13.7629 5.63685e-16)
(198.994 -13.8818 4.30064e-22)
(196.245 -13.9963 0)
(191.211 -13.9753 -2.80642e-22)
(194.24 -14.1872 2.84603e-22)
(111.932 -9.52157 -8.16953e-15)
(279.799 413.847 -1.2349e-17)
(430.546 335.403 6.03979e-17)
(457.932 188.9 -1.64248e-17)
(402.902 137.172 9.41909e-17)
(379.738 107.443 -1.74812e-21)
(362.448 88.4721 3.054e-17)
(349.302 75.0396 -3.48744e-17)
(339.638 65.1828 -2.44215e-21)
(332.351 57.5954 -4.33944e-17)
(326.825 51.4882 4.78912e-17)
(322.638 46.5065 5.31176e-17)
(319.051 42.2022 0)
(316.184 38.528 -7.87707e-21)
(313.274 35.2089 -6.63449e-17)
(310.709 32.2567 -7.44062e-17)
(308.086 29.5924 9.17598e-21)
(305.637 27.1178 -7.99344e-17)
(303.452 24.8904 -8.24308e-17)
(301.272 22.792 -2.03239e-20)
(299.428 20.8754 8.78138e-21)
(297.465 19.0691 1.56205e-21)
(295.691 17.3668 9.00595e-17)
(293.874 15.7774 0)
(292.047 14.2547 9.07948e-17)
(290.289 12.8217 0)
(288.432 11.4476 1.11652e-20)
(286.687 10.1413 -1.13853e-20)
(284.848 8.89847 0)
(283.057 7.70567 0)
(281.226 6.56542 -9.24346e-17)
(279.397 5.47645 -5.62798e-21)
(277.562 4.42547 0)
(275.704 3.42614 -4.57669e-17)
(273.851 2.45616 2.28973e-17)
(271.948 1.53879 5.58396e-21)
(270.06 0.647009 0)
(268.105 -0.196237 -5.44898e-21)
(266.155 -1.01638 1.11176e-17)
(264.137 -1.78951 -2.18602e-17)
(262.103 -2.54304 5.29137e-21)
(260.027 -3.24733 4.27971e-17)
(257.81 -3.94306 -8.46452e-17)
(257.396 -4.55363 5.18422e-17)
(256.584 -5.07958 6.46508e-21)
(255.412 -5.55859 2.13388e-16)
(254.162 -6.02522 0)
(252.876 -6.45988 1.09061e-16)
(251.609 -6.87103 -6.90367e-21)
(250.341 -7.26886 1.11302e-16)
(249.089 -7.63431 -1.12323e-16)
(247.847 -7.99856 0)
(246.616 -8.32614 0)
(245.4 -8.6582 3.5181e-21)
(244.193 -8.95683 -3.53277e-21)
(242.994 -9.26047 3.56616e-21)
(241.808 -9.53417 1.28477e-23)
(240.623 -9.81062 -2.36129e-16)
(239.458 -10.064 -2.38578e-16)
(238.29 -10.3163 -2.38714e-16)
(237.148 -10.5584 -2.41536e-16)
(235.999 -10.7956 0)
(234.879 -11.0534 2.44136e-16)
(233.663 -11.3258 0)
(232.427 -11.5792 0)
(231.133 -11.838 0)
(229.816 -12.0773 -2.48543e-16)
(228.459 -12.3233 2.50022e-16)
(227.028 -12.5498 -3.81958e-21)
(225.6 -12.7813 2.54817e-16)
(224.026 -13 -2.51875e-16)
(222.417 -13.2124 2.56142e-16)
(220.743 -13.4269 8.14636e-24)
(218.888 -13.6222 -1.95981e-21)
(216.944 -13.8136 5.22657e-16)
(214.869 -13.9967 0)
(212.575 -14.1671 -5.33574e-16)
(210.036 -14.3159 -5.35064e-16)
(207.085 -14.4409 -9.78511e-23)
(204.246 -14.5597 0)
(199.058 -14.5467 0)
(202.135 -14.7019 1.35896e-22)
(124.546 -10.7046 6.7944e-15)
(281.587 417.116 0)
(439.283 343.205 3.40635e-19)
(468.631 194.03 1.54607e-17)
(412.707 140.846 -4.43956e-17)
(388.434 110.108 -1.48684e-21)
(370.814 90.6526 -2.89479e-17)
(357.441 76.8881 -3.89319e-21)
(347.612 66.788 0)
(340.233 59.0191 0)
(334.677 52.7706 -4.51783e-17)
(330.5 47.6768 -5.00391e-17)
(326.997 43.284 6.44565e-21)
(324.201 39.5312 -5.9881e-17)
(321.464 36.1526 1.2406e-16)
(319.014 33.1398 0)
(316.545 30.4239 8.7277e-21)
(314.175 27.8923 1.35915e-22)
(312.04 25.6101 -1.89064e-20)
(309.914 23.4594 9.50549e-21)
(308.074 21.4905 -8.24236e-17)
(306.158 19.6377 8.1716e-17)
(304.388 17.8881 -8.517e-17)
(302.601 16.2557 0)
(300.798 14.6909 -8.60409e-17)
(299.056 13.2175 -1.06331e-20)
(297.232 11.8049 -1.06007e-20)
(295.494 10.4605 1.08187e-20)
(293.685 9.18174 4.3701e-17)
(291.907 7.95344 -4.44287e-17)
(290.097 6.77905 2.36412e-22)
(288.283 5.65686 1.07212e-20)
(286.464 4.57336 1.0774e-20)
(284.622 3.54268 -1.06163e-20)
(282.78 2.54175 0)
(280.894 1.59473 2.15541e-17)
(279.015 0.673615 5.40717e-18)
(277.078 -0.197799 6.45686e-23)
(275.138 -1.04581 -1.06209e-17)
(273.138 -1.84572 0)
(271.117 -2.62584 0)
(269.06 -3.35549 0)
(266.864 -4.07812 0)
(266.213 -4.70726 -6.18223e-21)
(265.356 -5.25037 1.0107e-16)
(264.178 -5.74612 -2.07276e-22)
(262.916 -6.22941 -6.3349e-21)
(261.618 -6.67985 6.35908e-21)
(260.335 -7.10604 -1.66499e-22)
(259.052 -7.51853 -1.06592e-16)
(257.784 -7.89758 -1.07602e-16)
(256.524 -8.27542 6.61183e-21)
(255.276 -8.61539 0)
(254.041 -8.96 -6.74317e-21)
(252.815 -9.27005 -2.22317e-16)
(251.597 -9.58532 2.47758e-23)
(250.39 -9.86957 -6.87394e-21)
(249.186 -10.1568 4.52817e-16)
(247.998 -10.42 -6.81486e-21)
(246.811 -10.6823 2.28956e-16)
(245.643 -10.9338 2.31678e-16)
(244.474 -11.1804 3.53599e-21)
(243.328 -11.4481 1.18866e-23)
(242.09 -11.7312 -3.56014e-21)
(240.824 -11.9944 0)
(239.503 -12.2634 2.36475e-16)
(238.152 -12.5122 2.38502e-16)
(236.761 -12.7678 0)
(235.297 -13.0034 3.67234e-21)
(233.826 -13.2437 -2.44524e-16)
(232.218 -13.4715 4.83445e-16)
(230.562 -13.6923 -2.45799e-16)
(228.839 -13.9151 -7.81704e-24)
(226.939 -14.1188 3.76937e-21)
(224.937 -14.3178 8.61334e-24)
(222.8 -14.5082 5.08467e-16)
(220.441 -14.6857 1.02356e-15)
(217.835 -14.8412 0)
(214.797 -14.9721 -5.2077e-16)
(211.874 -15.0945 0)
(206.547 -15.0912 -5.08851e-22)
(209.636 -15.177 7.80262e-22)
(136.351 -11.8569 5.72427e-15)
(282.527 419.203 -6.90731e-22)
(446.579 350.097 -5.28016e-17)
(478.657 199.063 1.50434e-17)
(422.259 144.521 0)
(396.943 112.774 -3.20829e-21)
(378.973 92.8177 2.79823e-17)
(365.365 78.716 3.19213e-17)
(355.356 68.3682 0)
(347.86 60.4132 -9.81272e-21)
(342.245 54.0197 4.33175e-17)
(338.051 48.8111 0)
(334.594 44.3269 -5.10149e-17)
(331.844 40.4951 5.69318e-17)
(329.238 37.0547 -5.87836e-17)
(326.89 33.983 0)
(324.559 31.2168 0)
(322.276 28.632 -7.11034e-17)
(320.198 26.298 7.35749e-17)
(318.13 24.0979 7.45564e-17)
(316.305 22.0797 7.8503e-17)
(314.437 20.1825 0)
(312.682 18.3881 8.12875e-17)
(310.926 16.7147 -1.94953e-22)
(309.151 15.1098 -8.22661e-17)
(307.428 13.5979 8.37479e-17)
(305.637 12.1485 8.28707e-17)
(303.913 10.7677 8.52989e-17)
(302.133 9.45457 -4.19529e-17)
(300.37 8.19234 4.2666e-17)
(298.582 6.98524 -2.03576e-20)
(296.786 5.83124 4.23679e-17)
(294.983 4.71658 -1.03561e-20)
(293.157 3.65584 -6.91058e-23)
(291.327 2.62525 -2.10052e-17)
(289.457 1.64978 0)
(287.588 0.700545 -5.18429e-18)
(285.669 -0.197883 -2.57644e-18)
(283.74 -1.07262 1.02188e-17)
(281.758 -1.89821 9.78838e-21)
(279.749 -2.70384 0)
(277.71 -3.45777 3.94075e-17)
(275.536 -4.20627 9.49246e-21)
(274.679 -4.8538 -4.7735e-17)
(273.771 -5.41332 -9.74398e-17)
(272.587 -5.92505 -9.84672e-17)
(271.316 -6.42433 0)
(270.006 -6.88994 -1.23264e-20)
(268.709 -7.33058 -2.04019e-16)
(267.411 -7.75717 -1.24184e-20)
(266.128 -8.1493 1.03906e-16)
(264.852 -8.54022 0)
(263.588 -8.89211 0)
(262.336 -9.24879 1.06522e-16)
(261.093 -9.56983 2.14795e-16)
(259.857 -9.89629 -2.16085e-16)
(258.631 -10.1907 6.64242e-21)
(257.408 -10.4883 -4.37625e-16)
(256.198 -10.761 6.92708e-21)
(254.992 -11.0328 -2.21315e-16)
(253.802 -11.2934 -6.84606e-21)
(252.613 -11.5491 2.23672e-16)
(251.443 -11.8263 6.8996e-21)
(250.184 -12.1196 6.9088e-21)
(248.889 -12.3922 2.28675e-16)
(247.542 -12.6711 -2.28685e-16)
(246.16 -12.9288 -6.2313e-23)
(244.737 -13.1937 -2.3202e-16)
(243.241 -13.4381 0)
(241.729 -13.6868 0)
(240.089 -13.9234 -2.33764e-16)
(238.389 -14.1523 2.37681e-16)
(236.62 -14.383 -3.65619e-21)
(234.677 -14.5947 0)
(232.621 -14.801 0)
(230.426 -14.9984 -4.9145e-16)
(228.005 -15.1827 -4.9456e-16)
(225.335 -15.3444 1.88621e-21)
(222.217 -15.481 9.62253e-22)
(219.215 -15.6064 5.11743e-16)
(213.763 -15.6148 0)
(216.821 -15.617 5.28945e-16)
(147.785 -13.0157 -4.93129e-15)
(282.832 420.415 2.29202e-17)
(452.554 356.201 -5.03911e-17)
(488.118 204.078 -1.46212e-17)
(431.711 148.268 -1.64429e-21)
(405.413 115.496 0)
(387.067 95.0105 2.73914e-17)
(373.211 80.5583 -3.1234e-17)
(363 69.9528 0)
(355.36 61.8033 0)
(349.655 55.2579 0)
(345.413 49.9295 -4.62372e-17)
(341.968 45.3493 4.91572e-17)
(339.238 41.4361 -5.46855e-17)
(336.724 37.9309 -1.38751e-20)
(334.459 34.8 1.5229e-20)
(332.247 31.9835 0)
(330.05 29.3473 6.80026e-17)
(328.033 26.9637 -7.04375e-17)
(326.025 24.7158 -1.42858e-16)
(324.222 22.6505 -2.33356e-21)
(322.401 20.7103 -3.65242e-20)
(320.666 18.873 -7.81315e-17)
(318.942 17.1599 7.82474e-17)
(317.197 15.5164 7.92461e-17)
(315.496 13.9673 -8.07141e-17)
(313.739 12.4822 -7.98671e-17)
(312.031 11.0665 -8.23397e-17)
(310.279 9.72002 -4.04612e-17)
(308.534 8.42504 1.50706e-22)
(306.768 7.1863 4.07985e-17)
(304.99 6.00155 -4.09244e-17)
(303.203 4.85674 0)
(301.394 3.76693 -4.0601e-17)
(299.577 2.70765 1.2696e-22)
(297.723 1.70466 -2.00829e-17)
(295.865 0.728236 -5.051e-18)
(293.961 -0.196318 1.93013e-20)
(292.043 -1.09689 -1.94433e-20)
(290.078 -1.94731 1.89786e-20)
(288.082 -2.7776 -3.87902e-17)
(286.06 -3.555 -3.82706e-17)
(283.907 -4.32855 1.84184e-20)
(282.872 -4.9944 -4.6271e-17)
(281.909 -5.56981 -9.44636e-17)
(280.716 -6.09689 -9.555e-17)
(279.436 -6.61161 -1.18144e-20)
(278.115 -7.0919 -9.78241e-17)
(276.806 -7.54655 9.90524e-17)
(275.495 -7.98679 9.99342e-17)
(274.197 -8.3916 0)
(272.906 -8.79518 0)
(271.627 -9.15862 0)
(270.359 -9.52699 -1.03497e-16)
(269.099 -9.85869 0)
(267.845 -10.196 2.09988e-16)
(266.601 -10.5003 0)
(265.361 -10.8078 2.12684e-16)
(264.131 -11.0897 2.02483e-22)
(262.906 -11.3709 1.69196e-22)
(261.694 -11.6402 -2.17749e-16)
(260.486 -11.9047 -2.1748e-16)
(259.293 -12.191 6.70912e-21)
(258.013 -12.4943 -2.1978e-16)
(256.692 -12.776 -4.44756e-16)
(255.32 -13.0643 -6.79911e-21)
(253.909 -13.3308 -4.48597e-16)
(252.455 -13.6046 2.25641e-16)
(250.928 -13.8574 -2.25918e-16)
(249.378 -14.1144 -2.29933e-16)
(247.706 -14.3594 0)
(245.966 -14.596 0)
(244.152 -14.8344 0)
(242.168 -15.0538 0)
(240.061 -15.2672 3.60333e-21)
(237.811 -15.4713 -7.28812e-21)
(235.331 -15.662 3.65723e-21)
(232.602 -15.8296 0)
(229.409 -15.9719 -4.88322e-16)
(226.334 -16.0994 -4.96736e-16)
(220.77 -16.1221 -4.9611e-16)
(223.743 -16.025 -5.13938e-16)
(159.109 -14.2042 4.34165e-15)
(282.662 420.984 -2.10441e-17)
(457.328 361.64 4.74434e-17)
(497.058 209.133 0)
(441.162 152.143 4.06682e-17)
(413.95 118.32 -2.42315e-17)
(395.203 97.2675 -2.70934e-17)
(381.079 82.4444 3.08067e-17)
(370.645 71.5667 -3.42737e-17)
(362.832 63.2109 0)
(357.006 56.5041 -4.10652e-17)
(352.685 51.0486 3.05931e-20)
(349.215 46.3662 -2.29809e-20)
(346.478 42.3676 5.29573e-17)
(344.018 38.7933 5.43344e-17)
(341.815 35.6018 6.05872e-17)
(339.699 32.7336 -4.95124e-22)
(337.583 30.0468 3.16843e-20)
(335.626 27.6145 3.33093e-20)
(333.676 25.3199 6.87855e-17)
(331.9 23.2089 -1.45204e-16)
(330.123 21.2265 -7.21931e-17)
(328.412 19.3475 -7.54716e-17)
(326.72 17.5957 -7.55908e-17)
(325.006 15.9145 -3.72464e-20)
(323.329 14.3292 0)
(321.603 12.8093 0)
(319.913 11.3595 3.9106e-20)