/*--------------------------------*- C++ -*----------------------------------*\
| =========                 |                                                 |
| \\      /  F ield         | OpenFOAM: The Open Source CFD Toolbox           |
|  \\    /   O peration     | Version:  5.x                                   |
|   \\  /    A nd           | Web:      www.OpenFOAM.org                      |
|    \\/     M anipulation  |                                                 |
\*---------------------------------------------------------------------------*/
FoamFile
{
    version     2.0;
    format      ascii;
    class       volVectorField;
    location    "350";
    object      wallShearStress;
}
// * * * * * * * * * * * * * * * * * * * * * * * * * * * * * * * * * * * * * //

dimensions      [0 2 -2 0 0 0 0];

internalField   uniform (0 0 0);

boundaryField
{
    inlet
    {
        type            calculated;
        value           uniform (0 0 0);
    }
    outlet
    {
        type            calculated;
        value           uniform (0 0 0);
    }
    walls
    {
        type            calculated;
        value           nonuniform List<vector> 
82
(
(-0.0428515 -0.0332158 1.17549e-38)
(-0.0937871 -0.229147 3.2106e-21)
(-0.202928 -0.537958 -4.69213e-19)
(-0.39449 -0.802587 -7.44431e-19)
(-0.630577 -0.98892 -2.25715e-18)
(-0.877813 -1.08417 1.36575e-18)
(-1.10772 -1.09984 1.50232e-18)
(-1.30622 -1.05746 -1.60379e-18)
(-1.45611 -0.966921 -3.98689e-18)
(-1.54033 -0.835271 -1.34748e-19)
(-1.52408 -0.653011 -2.16484e-18)
(-1.44601 -0.467532 1.33126e-19)
(-1.38235 -0.337104 -2.12406e-18)
(-1.36206 -0.261856 -2.22668e-18)
(-1.34629 -0.204716 -1.95078e-18)
(-1.31383 -0.149852 -1.28102e-18)
(-1.26715 -0.100079 1.12726e-18)
(-1.21371 -0.0567926 1.19892e-19)
(-1.15697 -0.0195302 -1.19353e-19)
(-1.09826 0.0122545 -9.0323e-19)
(-1.03762 0.038827 -8.63812e-19)
(-0.984407 0.0589922 -8.80992e-19)
(-0.937195 0.0731386 -1.66011e-18)
(-0.891416 0.0841989 -1.0394e-19)
(-0.847024 0.0927943 1.39852e-21)
(-0.804053 0.0993125 4.93692e-20)
(-0.762409 0.104056 -3.0334e-18)
(-0.721867 0.107282 4.5242e-20)
(-0.6822 0.109184 -2.88504e-18)
(-0.643151 0.109912 2.70138e-18)
(-0.604409 0.109569 4.19701e-20)
(-0.565589 0.108214 1.96116e-20)
(-0.526243 0.105854 -1.94747e-20)
(-0.485861 0.102438 -3.00927e-36)
(-0.44358 0.0978313 4.50402e-18)
(-0.398703 0.0918519 -6.01853e-36)
(-0.349983 0.0841122 6.81787e-37)
(-0.297086 0.0743263 -7.3074e-21)
(-0.234301 0.0610472 -1.32117e-21)
(-0.172297 0.0449933 -3.32396e-18)
(-0.0710075 0.0278273 -5.44626e-18)
(-0.0697801 0.0452843 2.67629e-21)
(-0.166601 0.19347 1.01242e-20)
(-0.314705 0.348398 8.23848e-19)
(-0.479262 0.433992 6.84225e-19)
(-0.619981 0.444533 8.0657e-19)
(-0.721472 0.412734 9.71476e-19)
(-0.788383 0.369032 2.09968e-18)
(-0.834117 0.331578 1.0216e-18)
(-0.870673 0.305759 -9.80076e-19)
(-0.929363 0.307507 -7.05539e-20)
(-1.01232 0.313198 2.57154e-18)
(-1.05921 0.279173 -1.28981e-18)
(-1.0664 0.22679 1.90475e-23)
(-1.06208 0.180992 -8.85291e-19)
(-1.05535 0.142634 -1.42848e-18)
(-1.04388 0.108017 9.02521e-20)
(-1.02657 0.0763584 9.40395e-38)
(-1.00484 0.0477939 6.20512e-19)
(-0.979973 0.0223728 4.41352e-20)
(-0.952605 3.65739e-05 3.41043e-19)
(-0.922447 -0.0192435 2.91581e-22)
(-0.895031 -0.0346901 7.52316e-37)
(-0.869617 -0.0459887 7.14442e-19)
(-0.84457 -0.0552087 6.19616e-19)
(-0.820107 -0.0627851 -1.29846e-18)
(-0.79627 -0.0689923 -1.27333e-18)
(-0.773057 -0.0740323 -2.49552e-18)
(-0.75038 -0.0780802 -1.22204e-18)
(-0.728117 -0.0812807 -3.71313e-20)
(-0.706124 -0.0837581 1.20673e-18)
(-0.684267 -0.0856134 1.16108e-18)
(-0.662347 -0.0869249 -2.24994e-18)
(-0.640061 -0.0877404 -2.19371e-18)
(-0.617024 -0.0880705 2.13632e-18)
(-0.592653 -0.0878782 -1.5944e-20)
(-0.566311 -0.087077 1.57969e-20)
(-0.536425 -0.0854238 -1.17549e-38)
(-0.501982 -0.0826448 2.93874e-39)
(-0.457076 -0.0777009 -3.38449e-21)
(-0.402787 -0.0686624 1.67453e-18)
(-0.290438 -0.0574479 -1.5194e-21)
)
;
    }
    frontAndBack
    {
        type            empty;
    }
}


// ************************************************************************* //
