# Wall shear stress
# Time       	patch        	min          	max          
0.000000e+00	walls	(-1.914506e+00 -2.110968e-01 -5.060810e-19)	(-1.142499e+00 2.402933e-01 3.458702e-19)
5.000000e+01	walls	(-1.522741e+02 -6.563996e+01 -4.405972e-16)	(-3.691317e+00 1.009794e+02 4.530261e-16)
1.000000e+02	walls	(-1.584348e+02 -7.074739e+01 -4.794789e-16)	(-4.102187e+00 9.052734e+01 5.133567e-16)
1.500000e+02	walls	(-1.595728e+02 -7.164192e+01 -4.853504e-16)	(-4.289488e+00 8.884773e+01 5.233798e-16)
2.000000e+02	walls	(-1.599090e+02 -7.189773e+01 -4.866096e-16)	(-4.350876e+00 8.828811e+01 5.258656e-16)
2.500000e+02	walls	(-1.599718e+02 -7.194903e+01 -4.868757e-16)	(-4.363530e+00 8.817551e+01 5.263890e-16)
2.710000e+02	walls	(-1.599823e+02 -7.195689e+01 -4.869146e-16)	(-4.365508e+00 8.815789e+01 5.264656e-16)
