# Wall shear stress
# Time       	patch        	min          	max          
0.000000e+00	walls	(-2.050790e+00 -1.113784e-01 -6.785802e-19)	(-1.494730e+00 3.819738e-01 1.417036e-18)
5.000000e+01	walls	(-2.473235e+02 -1.131460e+02 -1.077600e-15)	(1.510007e+00 1.361289e+02 7.698011e-16)
1.000000e+02	walls	(-2.513548e+02 -1.119437e+02 -1.115631e-15)	(4.532088e-01 1.378185e+02 7.605785e-16)
1.500000e+02	walls	(-2.551208e+02 -1.091927e+02 -1.116407e-15)	(5.952738e-01 1.401062e+02 7.304554e-16)
2.000000e+02	walls	(-2.559314e+02 -1.086552e+02 -1.117838e-15)	(4.895475e-01 1.405700e+02 7.245118e-16)
2.500000e+02	walls	(-2.563528e+02 -1.083536e+02 -1.118369e-15)	(4.885592e-01 1.408215e+02 7.214535e-16)
3.000000e+02	walls	(-2.564755e+02 -1.082688e+02 -1.118562e-15)	(4.801102e-01 1.408939e+02 7.205641e-16)
3.410000e+02	walls	(-2.565226e+02 -1.082367e+02 -1.118627e-15)	(4.791477e-01 1.409206e+02 7.202310e-16)
