# Wall shear stress
# Time       	patch        	min          	max          
0.000000e+00	walls	(-6.294003e+00 -1.440953e+00 -4.136573e-18)	(-4.456747e+00 3.293751e-01 1.910157e-18)
5.000000e+01	walls	(-1.930112e+03 -1.366380e+03 -7.418212e-15)	(4.496279e+01 5.544778e+02 9.855778e-15)
1.000000e+02	walls	(-2.162332e+03 -1.750478e+03 -7.073816e-15)	(5.091923e+01 3.866121e+02 1.018212e-14)
1.500000e+02	walls	(-2.228537e+03 -1.843142e+03 -6.972212e-15)	(5.424631e+01 3.585841e+02 1.019478e-14)
2.000000e+02	walls	(-2.245539e+03 -1.870599e+03 -6.932442e-15)	(5.553525e+01 3.503531e+02 1.019332e-14)
2.500000e+02	walls	(-2.250778e+03 -1.878295e+03 -6.921657e-15)	(5.585873e+01 3.481075e+02 1.019254e-14)
3.000000e+02	walls	(-2.252249e+03 -1.880586e+03 -6.918301e-15)	(5.596607e+01 3.474289e+02 1.019224e-14)
3.410000e+02	walls	(-2.252631e+03 -1.881192e+03 -6.917440e-15)	(5.599198e+01 3.472532e+02 1.019220e-14)
