/*--------------------------------*- C++ -*----------------------------------*\
| =========                 |                                                 |
| \\      /  F ield         | OpenFOAM: The Open Source CFD Toolbox           |
|  \\    /   O peration     | Version:  5.x                                   |
|   \\  /    A nd           | Web:      www.OpenFOAM.org                      |
|    \\/     M anipulation  |                                                 |
\*---------------------------------------------------------------------------*/
FoamFile
{
    version     2.0;
    format      ascii;
    class       volScalarField;
    location    "2500";
    object      p;
}
// * * * * * * * * * * * * * * * * * * * * * * * * * * * * * * * * * * * * * //

dimensions      [0 2 -2 0 0 0 0];

internalField   nonuniform List<scalar> 
107912
(
3.09303e-10
2.64818e-07
1.02765e-07
1.76354e-07
3.91033e-08
-8.80327e-08
-6.34229e-09
-1.02479e-07
-7.68527e-08
-1.19955e-07
-1.14963e-07
-1.32791e-07
-1.34258e-07
-1.4124e-07
-1.42633e-07
-1.45875e-07
-1.45519e-07
-1.46868e-07
-1.45785e-07
-1.45098e-07
-1.44e-07
-1.42145e-07
-1.40335e-07
-1.38376e-07
-1.358e-07
-1.33503e-07
-1.30893e-07
-1.28014e-07
-1.25357e-07
-1.22345e-07
-1.19351e-07
-1.16417e-07
-1.13242e-07
-1.10154e-07
-1.07048e-07
-1.038e-07
-1.0067e-07
-9.74658e-08
-9.42463e-08
-9.11003e-08
-8.78705e-08
-8.47277e-08
-8.15734e-08
-7.84271e-08
-7.53412e-08
-7.22403e-08
-6.92201e-08
-6.62001e-08
-6.32497e-08
-6.03197e-08
-5.74591e-08
-5.46251e-08
-5.21649e-08
-4.99383e-08
-4.78232e-08
-4.57926e-08
-4.37995e-08
-4.18903e-08
-4.00528e-08
-3.82625e-08
-3.65479e-08
-3.4879e-08
-3.32706e-08
-3.17106e-08
-3.01982e-08
-2.87325e-08
-2.73045e-08
-2.59187e-08
-2.45647e-08
-2.32423e-08
-2.19513e-08
-2.0677e-08
-1.94329e-08
-1.81983e-08
-1.69809e-08
-1.57766e-08
-1.45689e-08
-1.33818e-08
-1.21781e-08
-1.09947e-08
-9.79082e-09
-8.60348e-09
-7.39826e-09
-6.21545e-09
-5.00906e-09
-3.86965e-09
-2.66346e-09
-1.65154e-09
-4.33776e-10
2.6487e-10
1.57312e-09
1.52955e-09
3.22896e-09
1.37299e-09
4.45142e-09
-1.85686e-09
5.54735e-09
-1.25813e-08
7.4727e-09
-4.56935e-08
1.57652e-08
-3.18624e-07
1.14011e-09
2.64964e-07
1.02135e-07
1.7563e-07
3.93938e-08
-8.721e-08
-6.13148e-09
-1.02122e-07
-7.65884e-08
-1.1966e-07
-1.14745e-07
-1.3258e-07
-1.34091e-07
-1.41093e-07
-1.42509e-07
-1.4577e-07
-1.4543e-07
-1.46791e-07
-1.45721e-07
-1.45041e-07
-1.43952e-07
-1.42104e-07
-1.40299e-07
-1.38345e-07
-1.35774e-07
-1.3348e-07
-1.30874e-07
-1.27997e-07
-1.25342e-07
-1.22333e-07
-1.19341e-07
-1.16408e-07
-1.13234e-07
-1.10148e-07
-1.07042e-07
-1.03795e-07
-1.00666e-07
-9.74629e-08
-9.42441e-08
-9.10986e-08
-8.78694e-08
-8.47269e-08
-8.1573e-08
-7.84272e-08
-7.53416e-08
-7.22409e-08
-6.9221e-08
-6.62012e-08
-6.3251e-08
-6.03211e-08
-5.74607e-08
-5.46268e-08
-5.21667e-08
-4.99402e-08
-4.78251e-08
-4.57946e-08
-4.38016e-08
-4.18924e-08
-4.00548e-08
-3.82645e-08
-3.65499e-08
-3.4881e-08
-3.32725e-08
-3.17125e-08
-3.02001e-08
-2.87344e-08
-2.73064e-08
-2.59205e-08
-2.45665e-08
-2.32441e-08
-2.19531e-08
-2.06788e-08
-1.94348e-08
-1.82002e-08
-1.69829e-08
-1.57786e-08
-1.45711e-08
-1.3384e-08
-1.21805e-08
-1.09974e-08
-9.79369e-09
-8.60664e-09
-7.40175e-09
-6.21936e-09
-5.0134e-09
-3.87459e-09
-2.66893e-09
-1.65791e-09
-4.40731e-10
2.56456e-10
1.56425e-09
1.51799e-09
3.21765e-09
1.35605e-09
4.43705e-09
-1.88461e-09
5.5288e-09
-1.26375e-08
7.44659e-09
-4.5882e-08
1.57674e-08
-3.08255e-07
1.95038e-09
2.65131e-07
1.0139e-07
1.74781e-07
3.97118e-08
-8.62327e-08
-5.86779e-09
-1.01711e-07
-7.6267e-08
-1.19316e-07
-1.14482e-07
-1.3233e-07
-1.3389e-07
-1.40916e-07
-1.42359e-07
-1.45642e-07
-1.4532e-07
-1.46696e-07
-1.45641e-07
-1.4497e-07
-1.43891e-07
-1.42052e-07
-1.40253e-07
-1.38306e-07
-1.3574e-07
-1.3345e-07
-1.30848e-07
-1.27975e-07
-1.25322e-07
-1.22316e-07
-1.19326e-07
-1.16395e-07
-1.13223e-07
-1.10138e-07
-1.07034e-07
-1.03788e-07
-1.0066e-07
-9.74577e-08
-9.42397e-08
-9.1095e-08
-8.78665e-08
-8.47246e-08
-8.15713e-08
-7.84259e-08
-7.53407e-08
-7.22405e-08
-6.92209e-08
-6.62015e-08
-6.32515e-08
-6.03219e-08
-5.74617e-08
-5.46279e-08
-5.21679e-08
-4.99417e-08
-4.78267e-08
-4.57962e-08
-4.38033e-08
-4.18941e-08
-4.00565e-08
-3.82663e-08
-3.65516e-08
-3.48827e-08
-3.32743e-08
-3.17143e-08
-3.02018e-08
-2.87361e-08
-2.73081e-08
-2.59222e-08
-2.45682e-08
-2.32458e-08
-2.19548e-08
-2.06805e-08
-1.94366e-08
-1.8202e-08
-1.69848e-08
-1.57807e-08
-1.45732e-08
-1.33864e-08
-1.2183e-08
-1.10001e-08
-9.79674e-09
-8.61004e-09
-7.40554e-09
-6.22365e-09
-5.01821e-09
-3.88013e-09
-2.67512e-09
-1.66517e-09
-4.48739e-10
2.4672e-10
1.55385e-09
1.50444e-09
3.20413e-09
1.33601e-09
4.41942e-09
-1.91759e-09
5.50505e-09
-1.27044e-08
7.41042e-09
-4.61052e-08
1.57102e-08
-3.06424e-07
2.77347e-09
2.65276e-07
1.00635e-07
1.73904e-07
4.00324e-08
-8.52203e-08
-5.5959e-09
-1.01285e-07
-7.59344e-08
-1.18958e-07
-1.14208e-07
-1.32069e-07
-1.3368e-07
-1.40731e-07
-1.42203e-07
-1.45508e-07
-1.45206e-07
-1.46596e-07
-1.45557e-07
-1.44896e-07
-1.43828e-07
-1.41998e-07
-1.40205e-07
-1.38264e-07
-1.35704e-07
-1.33418e-07
-1.30821e-07
-1.27951e-07
-1.25301e-07
-1.22298e-07
-1.1931e-07
-1.16381e-07
-1.13211e-07
-1.10127e-07
-1.07025e-07
-1.0378e-07
-1.00654e-07
-9.74522e-08
-9.4235e-08
-9.10911e-08
-8.78634e-08
-8.4722e-08
-8.15693e-08
-7.84244e-08
-7.53397e-08
-7.22399e-08
-6.92206e-08
-6.62016e-08
-6.32519e-08
-6.03226e-08
-5.74626e-08
-5.46289e-08
-5.21691e-08
-4.99431e-08
-4.78282e-08
-4.57978e-08
-4.3805e-08
-4.18958e-08
-4.00583e-08
-3.8268e-08
-3.65534e-08
-3.48845e-08
-3.3276e-08
-3.1716e-08
-3.02035e-08
-2.87378e-08
-2.73098e-08
-2.59239e-08
-2.45699e-08
-2.32475e-08
-2.19565e-08
-2.06823e-08
-1.94384e-08
-1.82039e-08
-1.69868e-08
-1.57827e-08
-1.45755e-08
-1.33887e-08
-1.21856e-08
-1.1003e-08
-9.79988e-09
-8.61354e-09
-7.40945e-09
-6.22808e-09
-5.02318e-09
-3.88585e-09
-2.68151e-09
-1.67269e-09
-4.57034e-10
2.36632e-10
1.54306e-09
1.49038e-09
3.19007e-09
1.31521e-09
4.40102e-09
-1.95182e-09
5.48017e-09
-1.27737e-08
7.37239e-09
-4.63349e-08
1.56458e-08
-3.05801e-07
3.65773e-09
2.65401e-07
9.98539e-08
1.72978e-07
4.03659e-08
-8.41522e-08
-5.31085e-09
-1.00829e-07
-7.55839e-08
-1.18579e-07
-1.13918e-07
-1.31793e-07
-1.33458e-07
-1.40535e-07
-1.42037e-07
-1.45365e-07
-1.45085e-07
-1.4649e-07
-1.45469e-07
-1.44818e-07
-1.4376e-07
-1.4194e-07
-1.40154e-07
-1.3822e-07
-1.35666e-07
-1.33384e-07
-1.30792e-07
-1.27926e-07
-1.25279e-07
-1.22279e-07
-1.19293e-07
-1.16366e-07
-1.13199e-07
-1.10116e-07
-1.07015e-07
-1.03772e-07
-1.00647e-07
-9.74463e-08
-9.42301e-08
-9.10869e-08
-8.78601e-08
-8.47193e-08
-8.15673e-08
-7.84229e-08
-7.53387e-08
-7.22393e-08
-6.92204e-08
-6.62017e-08
-6.32524e-08
-6.03233e-08
-5.74635e-08
-5.46301e-08
-5.21705e-08
-4.99447e-08
-4.78298e-08
-4.57995e-08
-4.38068e-08
-4.18977e-08
-4.00602e-08
-3.82699e-08
-3.65553e-08
-3.48864e-08
-3.32779e-08
-3.17179e-08
-3.02054e-08
-2.87397e-08
-2.73116e-08
-2.59257e-08
-2.45717e-08
-2.32494e-08
-2.19584e-08
-2.06842e-08
-1.94403e-08
-1.82059e-08
-1.69889e-08
-1.5785e-08
-1.45778e-08
-1.33913e-08
-1.21884e-08
-1.1006e-08
-9.80322e-09
-8.61727e-09
-7.41361e-09
-6.2328e-09
-5.02847e-09
-3.89194e-09
-2.68832e-09
-1.68068e-09
-4.65854e-10
2.25911e-10
1.53159e-09
1.47545e-09
3.17515e-09
1.29315e-09
4.38153e-09
-1.98809e-09
5.45387e-09
-1.2847e-08
7.33249e-09
-4.6576e-08
1.55799e-08
-3.0465e-07
4.61602e-09
2.65506e-07
9.90358e-08
1.7199e-07
4.07162e-08
-8.30118e-08
-5.0074e-09
-1.00338e-07
-7.52096e-08
-1.1817e-07
-1.13607e-07
-1.31495e-07
-1.33219e-07
-1.40324e-07
-1.41858e-07
-1.45212e-07
-1.44954e-07
-1.46376e-07
-1.45373e-07
-1.44733e-07
-1.43688e-07
-1.41878e-07
-1.40099e-07
-1.38173e-07
-1.35625e-07
-1.33348e-07
-1.30761e-07
-1.27898e-07
-1.25255e-07
-1.22258e-07
-1.19275e-07
-1.1635e-07
-1.13185e-07
-1.10104e-07
-1.07005e-07
-1.03764e-07
-1.00639e-07
-9.744e-08
-9.42248e-08
-9.10825e-08
-8.78565e-08
-8.47165e-08
-8.15651e-08
-7.84213e-08
-7.53376e-08
-7.22387e-08
-6.92202e-08
-6.62019e-08
-6.32529e-08
-6.03241e-08
-5.74646e-08
-5.46314e-08
-5.21719e-08
-4.99463e-08
-4.78315e-08
-4.58013e-08
-4.38088e-08
-4.18997e-08
-4.00622e-08
-3.8272e-08
-3.65573e-08
-3.48884e-08
-3.32799e-08
-3.17199e-08
-3.02074e-08
-2.87417e-08
-2.73136e-08
-2.59277e-08
-2.45737e-08
-2.32514e-08
-2.19604e-08
-2.06863e-08
-1.94424e-08
-1.82081e-08
-1.69911e-08
-1.57873e-08
-1.45804e-08
-1.3394e-08
-1.21914e-08
-1.10093e-08
-9.80683e-09
-8.62129e-09
-7.4181e-09
-6.23789e-09
-5.03417e-09
-3.8985e-09
-2.69565e-09
-1.68928e-09
-4.75346e-10
2.14378e-10
1.51926e-09
1.45941e-09
3.15911e-09
1.26945e-09
4.36058e-09
-2.02701e-09
5.42566e-09
-1.29256e-08
7.28996e-09
-4.68323e-08
1.55089e-08
-3.03212e-07
5.65161e-09
2.65584e-07
9.81802e-08
1.70935e-07
4.10833e-08
-8.17942e-08
-4.68424e-09
-9.98082e-08
-7.48097e-08
-1.17731e-07
-1.13273e-07
-1.31175e-07
-1.32962e-07
-1.40097e-07
-1.41666e-07
-1.45047e-07
-1.44814e-07
-1.46254e-07
-1.4527e-07
-1.44642e-07
-1.43609e-07
-1.41811e-07
-1.4004e-07
-1.38122e-07
-1.35582e-07
-1.33308e-07
-1.30727e-07
-1.27869e-07
-1.25229e-07
-1.22236e-07
-1.19255e-07
-1.16333e-07
-1.13171e-07
-1.10091e-07
-1.06994e-07
-1.03754e-07
-1.00631e-07
-9.74333e-08
-9.4219e-08
-9.10777e-08
-8.78527e-08
-8.47133e-08
-8.15627e-08
-7.84196e-08
-7.53364e-08
-7.22381e-08
-6.922e-08
-6.62021e-08
-6.32535e-08
-6.0325e-08
-5.74658e-08
-5.46327e-08
-5.21734e-08
-4.99481e-08
-4.78334e-08
-4.58033e-08
-4.38109e-08
-4.19018e-08
-4.00644e-08
-3.82742e-08
-3.65595e-08
-3.48907e-08
-3.32821e-08
-3.17221e-08
-3.02096e-08
-2.87438e-08
-2.73158e-08
-2.59299e-08
-2.45759e-08
-2.32535e-08
-2.19626e-08
-2.06885e-08
-1.94447e-08
-1.82105e-08
-1.69936e-08
-1.57899e-08
-1.45831e-08
-1.3397e-08
-1.21946e-08
-1.10128e-08
-9.81071e-09
-8.62562e-09
-7.42293e-09
-6.24337e-09
-5.04031e-09
-3.90556e-09
-2.70354e-09
-1.69854e-09
-4.8556e-10
2.01973e-10
1.50599e-09
1.44216e-09
3.14186e-09
1.24399e-09
4.33805e-09
-2.06878e-09
5.39535e-09
-1.30097e-08
7.2445e-09
-4.71046e-08
1.54314e-08
-3.01673e-07
6.76921e-09
2.6563e-07
9.72887e-08
1.69813e-07
4.14666e-08
-8.04964e-08
-4.34078e-09
-9.92368e-08
-7.43831e-08
-1.1726e-07
-1.12916e-07
-1.30831e-07
-1.32686e-07
-1.39852e-07
-1.4146e-07
-1.44869e-07
-1.44663e-07
-1.46122e-07
-1.45159e-07
-1.44544e-07
-1.43525e-07
-1.41739e-07
-1.39976e-07
-1.38067e-07
-1.35534e-07
-1.33266e-07
-1.30691e-07
-1.27837e-07
-1.25201e-07
-1.22212e-07
-1.19234e-07
-1.16314e-07
-1.13155e-07
-1.10077e-07
-1.06982e-07
-1.03744e-07
-1.00622e-07
-9.74259e-08
-9.42128e-08
-9.10725e-08
-8.78486e-08
-8.471e-08
-8.15602e-08
-7.84177e-08
-7.53351e-08
-7.22374e-08
-6.92198e-08
-6.62023e-08
-6.32541e-08
-6.03259e-08
-5.7467e-08
-5.46342e-08
-5.2175e-08
-4.99501e-08
-4.78354e-08
-4.58054e-08
-4.38132e-08
-4.19041e-08
-4.00667e-08
-3.82766e-08
-3.65619e-08
-3.4893e-08
-3.32845e-08
-3.17245e-08
-3.02119e-08
-2.87461e-08
-2.73181e-08
-2.59322e-08
-2.45782e-08
-2.32558e-08
-2.19649e-08
-2.06909e-08
-1.94471e-08
-1.8213e-08
-1.69962e-08
-1.57927e-08
-1.45861e-08
-1.34001e-08
-1.2198e-08
-1.10165e-08
-9.81489e-09
-8.63028e-09
-7.42813e-09
-6.24925e-09
-5.04691e-09
-3.91315e-09
-2.71203e-09
-1.70849e-09
-4.96539e-10
1.88644e-10
1.49174e-09
1.42363e-09
3.12332e-09
1.21667e-09
4.31386e-09
-2.11357e-09
5.36283e-09
-1.30998e-08
7.19599e-09
-4.73933e-08
1.53467e-08
-3.00039e-07
7.97509e-09
2.65636e-07
9.63626e-08
1.68618e-07
4.1866e-08
-7.91148e-08
-3.97626e-09
-9.86209e-08
-7.39284e-08
-1.16753e-07
-1.12533e-07
-1.3046e-07
-1.3239e-07
-1.39589e-07
-1.41238e-07
-1.44678e-07
-1.445e-07
-1.45979e-07
-1.4504e-07
-1.44438e-07
-1.43434e-07
-1.41662e-07
-1.39907e-07
-1.38007e-07
-1.35483e-07
-1.33221e-07
-1.30652e-07
-1.27803e-07
-1.2517e-07
-1.22187e-07
-1.19211e-07
-1.16294e-07
-1.13138e-07
-1.10062e-07
-1.06969e-07
-1.03733e-07
-1.00612e-07
-9.7418e-08
-9.42061e-08
-9.1067e-08
-8.78441e-08
-8.47063e-08
-8.15574e-08
-7.84156e-08
-7.53337e-08
-7.22366e-08
-6.92195e-08
-6.62025e-08
-6.32547e-08
-6.03269e-08
-5.74683e-08
-5.46357e-08
-5.21768e-08
-4.99521e-08
-4.78376e-08
-4.58077e-08
-4.38156e-08
-4.19066e-08
-4.00692e-08
-3.82791e-08
-3.65644e-08
-3.48956e-08
-3.3287e-08
-3.1727e-08
-3.02144e-08
-2.87486e-08
-2.73206e-08
-2.59346e-08
-2.45807e-08
-2.32583e-08
-2.19674e-08
-2.06935e-08
-1.94497e-08
-1.82157e-08
-1.6999e-08
-1.57957e-08
-1.45892e-08
-1.34036e-08
-1.22017e-08
-1.10206e-08
-9.81938e-09
-8.63529e-09
-7.43371e-09
-6.25558e-09
-5.054e-09
-3.92131e-09
-2.72114e-09
-1.71918e-09
-5.08338e-10
1.74327e-10
1.47642e-09
1.40375e-09
3.10341e-09
1.18736e-09
4.28788e-09
-2.16156e-09
5.32796e-09
-1.31962e-08
7.14427e-09
-4.76988e-08
1.52544e-08
-2.98287e-07
9.27605e-09
2.65593e-07
9.54037e-08
1.67348e-07
4.22812e-08
-7.76454e-08
-3.58983e-09
-9.79572e-08
-7.34442e-08
-1.1621e-07
-1.12123e-07
-1.30063e-07
-1.32073e-07
-1.39305e-07
-1.40999e-07
-1.44472e-07
-1.44325e-07
-1.45826e-07
-1.44911e-07
-1.44324e-07
-1.43337e-07
-1.41578e-07
-1.39833e-07
-1.37943e-07
-1.35428e-07
-1.33171e-07
-1.30609e-07
-1.27766e-07
-1.25138e-07
-1.22159e-07
-1.19187e-07
-1.16273e-07
-1.1312e-07
-1.10046e-07
-1.06955e-07
-1.03722e-07
-1.00602e-07
-9.74095e-08
-9.41989e-08
-9.10609e-08
-8.78393e-08
-8.47024e-08
-8.15544e-08
-7.84134e-08
-7.53322e-08
-7.22357e-08
-6.92191e-08
-6.62027e-08
-6.32553e-08
-6.03279e-08
-5.74697e-08
-5.46374e-08
-5.21787e-08
-4.99543e-08
-4.78399e-08
-4.58101e-08
-4.38182e-08
-4.19093e-08
-4.00719e-08
-3.82818e-08
-3.65672e-08
-3.48983e-08
-3.32897e-08
-3.17297e-08
-3.02171e-08
-2.87513e-08
-2.73233e-08
-2.59373e-08
-2.45833e-08
-2.3261e-08
-2.19702e-08
-2.06962e-08
-1.94526e-08
-1.82186e-08
-1.70021e-08
-1.57989e-08
-1.45927e-08
-1.34072e-08
-1.22057e-08
-1.1025e-08
-9.82421e-09
-8.64067e-09
-7.43972e-09
-6.26239e-09
-5.06163e-09
-3.93007e-09
-2.73095e-09
-1.73067e-09
-5.21017e-10
1.58951e-10
1.45996e-09
1.3824e-09
3.08202e-09
1.15593e-09
4.26e-09
-2.21295e-09
5.29057e-09
-1.32991e-08
7.08917e-09
-4.80217e-08
1.51536e-08
-2.96405e-07
1.06792e-08
2.65493e-07
9.44141e-08
1.66e-07
4.27116e-08
-7.60843e-08
-3.1807e-09
-9.72419e-08
-7.29289e-08
-1.15626e-07
-1.11684e-07
-1.29635e-07
-1.31732e-07
-1.39e-07
-1.40743e-07
-1.4425e-07
-1.44137e-07
-1.45662e-07
-1.44773e-07
-1.44202e-07
-1.43231e-07
-1.41488e-07
-1.39753e-07
-1.37874e-07
-1.35369e-07
-1.33119e-07
-1.30564e-07
-1.27727e-07
-1.25103e-07
-1.22129e-07
-1.1916e-07
-1.1625e-07
-1.131e-07
-1.10029e-07
-1.0694e-07
-1.03709e-07
-1.00591e-07
-9.74003e-08
-9.41911e-08
-9.10544e-08
-8.78341e-08
-8.46981e-08
-8.15511e-08
-7.84109e-08
-7.53305e-08
-7.22347e-08
-6.92188e-08
-6.62029e-08
-6.3256e-08
-6.0329e-08
-5.74712e-08
-5.46391e-08
-5.21807e-08
-4.99567e-08
-4.78424e-08
-4.58128e-08
-4.3821e-08
-4.19121e-08
-4.00748e-08
-3.82847e-08
-3.65701e-08
-3.49012e-08
-3.32926e-08
-3.17326e-08
-3.022e-08
-2.87542e-08
-2.73261e-08
-2.59402e-08
-2.45862e-08
-2.32639e-08
-2.19731e-08
-2.06992e-08
-1.94556e-08
-1.82218e-08
-1.70053e-08
-1.58023e-08
-1.45963e-08
-1.34112e-08
-1.221e-08
-1.10297e-08
-9.8294e-09
-8.64646e-09
-7.44618e-09
-6.26971e-09
-5.06983e-09
-3.9395e-09
-2.74148e-09
-1.74301e-09
-5.3464e-10
1.42439e-10
1.44229e-09
1.3595e-09
3.05906e-09
1.12223e-09
4.23007e-09
-2.26797e-09
5.25049e-09
-1.3409e-08
7.03049e-09
-4.83625e-08
1.50435e-08
-2.94385e-07
1.21919e-08
2.65325e-07
9.3397e-08
1.64571e-07
4.31566e-08
-7.44278e-08
-2.74817e-09
-9.64711e-08
-7.23811e-08
-1.15e-07
-1.11214e-07
-1.29176e-07
-1.31366e-07
-1.38672e-07
-1.40467e-07
-1.44011e-07
-1.43934e-07
-1.45484e-07
-1.44623e-07
-1.4407e-07
-1.43118e-07
-1.41391e-07
-1.39667e-07
-1.378e-07
-1.35305e-07
-1.33062e-07
-1.30515e-07
-1.27684e-07
-1.25065e-07
-1.22097e-07
-1.19132e-07
-1.16225e-07
-1.13079e-07
-1.1001e-07
-1.06924e-07
-1.03695e-07
-1.00579e-07
-9.73903e-08
-9.41827e-08
-9.10473e-08
-8.78284e-08
-8.46935e-08
-8.15476e-08
-7.84083e-08
-7.53287e-08
-7.22337e-08
-6.92184e-08
-6.62031e-08
-6.32567e-08
-6.03302e-08
-5.74728e-08
-5.4641e-08
-5.21828e-08
-4.99592e-08
-4.78451e-08
-4.58156e-08
-4.3824e-08
-4.19152e-08
-4.00779e-08
-3.82879e-08
-3.65732e-08
-3.49044e-08
-3.32958e-08
-3.17357e-08
-3.02231e-08
-2.87573e-08
-2.73292e-08
-2.59432e-08
-2.45893e-08
-2.3267e-08
-2.19762e-08
-2.07024e-08
-1.94588e-08
-1.82251e-08
-1.70089e-08
-1.58061e-08
-1.46003e-08
-1.34154e-08
-1.22146e-08
-1.10347e-08
-9.83499e-09
-8.65269e-09
-7.45313e-09
-6.27757e-09
-5.07864e-09
-3.94962e-09
-2.7528e-09
-1.75627e-09
-5.49273e-10
1.24713e-10
1.4233e-09
1.33492e-09
3.03442e-09
1.08612e-09
4.19795e-09
-2.32684e-09
5.20756e-09
-1.35264e-08
6.96805e-09
-4.87214e-08
1.49232e-08
-2.9222e-07
1.38221e-08
2.65076e-07
9.23561e-08
1.63057e-07
4.36153e-08
-7.26726e-08
-2.29161e-09
-9.56407e-08
-7.1799e-08
-1.14327e-07
-1.10712e-07
-1.28682e-07
-1.30973e-07
-1.38319e-07
-1.40171e-07
-1.43754e-07
-1.43716e-07
-1.45293e-07
-1.44463e-07
-1.43928e-07
-1.42996e-07
-1.41286e-07
-1.39575e-07
-1.3772e-07
-1.35236e-07
-1.33e-07
-1.30462e-07
-1.27638e-07
-1.25024e-07
-1.22062e-07
-1.19101e-07
-1.16198e-07
-1.13056e-07
-1.0999e-07
-1.06907e-07
-1.03681e-07
-1.00566e-07
-9.73795e-08
-9.41736e-08
-9.10397e-08
-8.78223e-08
-8.46884e-08
-8.15438e-08
-7.84054e-08
-7.53267e-08
-7.22325e-08
-6.92179e-08
-6.62032e-08
-6.32574e-08
-6.03314e-08
-5.74745e-08
-5.4643e-08
-5.21851e-08
-4.99619e-08
-4.78479e-08
-4.58186e-08
-4.38273e-08
-4.19185e-08
-4.00813e-08
-3.82912e-08
-3.65766e-08
-3.49077e-08
-3.32991e-08
-3.17391e-08
-3.02264e-08
-2.87606e-08
-2.73325e-08
-2.59465e-08
-2.45926e-08
-2.32703e-08
-2.19795e-08
-2.07058e-08
-1.94623e-08
-1.82288e-08
-1.70126e-08
-1.581e-08
-1.46045e-08
-1.342e-08
-1.22196e-08
-1.10402e-08
-9.841e-09
-8.65938e-09
-7.4606e-09
-6.28603e-09
-5.08811e-09
-3.9605e-09
-2.76496e-09
-1.77051e-09
-5.64992e-10
1.05685e-10
1.40292e-09
1.30857e-09
3.00796e-09
1.04744e-09
4.1635e-09
-2.38981e-09
5.16157e-09
-1.36515e-08
6.90165e-09
-4.90988e-08
1.47917e-08
-2.899e-07
1.55778e-08
2.64734e-07
9.12961e-08
1.61457e-07
4.40866e-08
-7.08152e-08
-1.81049e-09
-9.47463e-08
-7.11814e-08
-1.13606e-07
-1.10175e-07
-1.28152e-07
-1.30552e-07
-1.3794e-07
-1.39853e-07
-1.43477e-07
-1.43481e-07
-1.45088e-07
-1.44289e-07
-1.43775e-07
-1.42864e-07
-1.41173e-07
-1.39475e-07
-1.37633e-07
-1.35162e-07
-1.32934e-07
-1.30405e-07
-1.27588e-07
-1.2498e-07
-1.22024e-07
-1.19068e-07
-1.16168e-07
-1.13031e-07
-1.09968e-07
-1.06888e-07
-1.03665e-07
-1.00552e-07
-9.73679e-08
-9.41637e-08
-9.10315e-08
-8.78157e-08
-8.4683e-08
-8.15396e-08
-7.84023e-08
-7.53246e-08
-7.22312e-08
-6.92174e-08
-6.62034e-08
-6.32582e-08
-6.03327e-08
-5.74763e-08
-5.46452e-08
-5.21875e-08
-4.99648e-08
-4.7851e-08
-4.58218e-08
-4.38307e-08
-4.1922e-08
-4.00848e-08
-3.82948e-08
-3.65802e-08
-3.49114e-08
-3.33027e-08
-3.17427e-08
-3.023e-08
-2.87641e-08
-2.7336e-08
-2.595e-08
-2.45961e-08
-2.32739e-08
-2.19831e-08
-2.07095e-08
-1.94661e-08
-1.82327e-08
-1.70167e-08
-1.58143e-08
-1.46091e-08
-1.34249e-08
-1.22249e-08
-1.1046e-08
-9.84745e-09
-8.66658e-09
-7.46862e-09
-6.29511e-09
-5.09829e-09
-3.97219e-09
-2.77802e-09
-1.7858e-09
-5.81872e-10
8.52663e-11
1.38104e-09
1.28031e-09
2.97958e-09
1.00602e-09
4.12656e-09
-2.45711e-09
5.11233e-09
-1.37848e-08
6.83109e-09
-4.94946e-08
1.46477e-08
-2.87417e-07
1.74675e-08
2.64284e-07
9.02227e-08
1.59767e-07
4.45693e-08
-6.8853e-08
-1.30445e-09
-9.37833e-08
-7.05265e-08
-1.12833e-07
-1.09601e-07
-1.27582e-07
-1.30101e-07
-1.37531e-07
-1.39512e-07
-1.43179e-07
-1.43229e-07
-1.44867e-07
-1.44103e-07
-1.43611e-07
-1.42722e-07
-1.41052e-07
-1.39368e-07
-1.3754e-07
-1.35082e-07
-1.32863e-07
-1.30344e-07
-1.27535e-07
-1.24933e-07
-1.21984e-07
-1.19032e-07
-1.16137e-07
-1.13004e-07
-1.09944e-07
-1.06868e-07
-1.03647e-07
-1.00537e-07
-9.73553e-08
-9.41531e-08
-9.10225e-08
-8.78085e-08
-8.46771e-08
-8.15351e-08
-7.83989e-08
-7.53222e-08
-7.22298e-08
-6.92167e-08
-6.62036e-08
-6.3259e-08
-6.03341e-08
-5.74782e-08
-5.46475e-08
-5.21901e-08
-4.99679e-08
-4.78542e-08
-4.58252e-08
-4.38344e-08
-4.19257e-08
-4.00887e-08
-3.82987e-08
-3.6584e-08
-3.49152e-08
-3.33066e-08
-3.17465e-08
-3.02338e-08
-2.8768e-08
-2.73399e-08
-2.59538e-08
-2.46e-08
-2.32777e-08
-2.1987e-08
-2.07134e-08
-1.94701e-08
-1.82369e-08
-1.70211e-08
-1.58189e-08
-1.4614e-08
-1.34302e-08
-1.22307e-08
-1.10523e-08
-9.8544e-09
-8.67432e-09
-7.47725e-09
-6.30487e-09
-5.10923e-09
-3.98475e-09
-2.79205e-09
-1.80221e-09
-5.99996e-10
6.33598e-11
1.35756e-09
1.25003e-09
2.94913e-09
9.61688e-10
4.08694e-09
-2.529e-09
5.05963e-09
-1.39266e-08
6.75614e-09
-4.99089e-08
1.449e-08
-2.84762e-07
1.94998e-08
2.6371e-07
8.91423e-08
1.57986e-07
4.50619e-08
-6.67835e-08
-7.73251e-10
-9.27465e-08
-6.98331e-08
-1.12004e-07
-1.08989e-07
-1.26971e-07
-1.29617e-07
-1.37092e-07
-1.39145e-07
-1.42858e-07
-1.42957e-07
-1.44629e-07
-1.43902e-07
-1.43433e-07
-1.42569e-07
-1.40921e-07
-1.39252e-07
-1.3744e-07
-1.34995e-07
-1.32786e-07
-1.30278e-07
-1.27477e-07
-1.24882e-07
-1.2194e-07
-1.18993e-07
-1.16103e-07
-1.12975e-07
-1.09919e-07
-1.06846e-07
-1.03629e-07
-1.00521e-07
-9.73417e-08
-9.41416e-08
-9.10129e-08
-8.78007e-08
-8.46707e-08
-8.15302e-08
-7.83952e-08
-7.53196e-08
-7.22283e-08
-6.92161e-08
-6.62037e-08
-6.32598e-08
-6.03356e-08
-5.74802e-08
-5.46499e-08
-5.21929e-08
-4.99712e-08
-4.78577e-08
-4.58289e-08
-4.38383e-08
-4.19298e-08
-4.00928e-08
-3.83029e-08
-3.65882e-08
-3.49194e-08
-3.33107e-08
-3.17506e-08
-3.02379e-08
-2.8772e-08
-2.7344e-08
-2.59579e-08
-2.46041e-08
-2.32818e-08
-2.19912e-08
-2.07176e-08
-1.94745e-08
-1.82414e-08
-1.70258e-08
-1.58239e-08
-1.46193e-08
-1.34358e-08
-1.22368e-08
-1.10591e-08
-9.86186e-09
-8.68263e-09
-7.48652e-09
-6.31536e-09
-5.12098e-09
-3.99824e-09
-2.80712e-09
-1.81983e-09
-6.19452e-10
3.9863e-11
1.33237e-09
1.21758e-09
2.91647e-09
9.14257e-10
4.04448e-09
-2.60576e-09
5.00325e-09
-1.40775e-08
6.67659e-09
-5.03414e-08
1.43173e-08
-2.81927e-07
2.16837e-08
2.62994e-07
8.80628e-08
1.56112e-07
4.55628e-08
-6.46047e-08
-2.16877e-10
-9.1631e-08
-6.90995e-08
-1.11115e-07
-1.08335e-07
-1.26315e-07
-1.29098e-07
-1.36619e-07
-1.38751e-07
-1.42512e-07
-1.42665e-07
-1.44372e-07
-1.43685e-07
-1.43243e-07
-1.42405e-07
-1.40779e-07
-1.39127e-07
-1.37332e-07
-1.34902e-07
-1.32703e-07
-1.30206e-07
-1.27415e-07
-1.24826e-07
-1.21893e-07
-1.18952e-07
-1.16067e-07
-1.12944e-07
-1.09891e-07
-1.06822e-07
-1.03609e-07
-1.00504e-07
-9.7327e-08
-9.41291e-08
-9.10024e-08
-8.77923e-08
-8.46638e-08
-8.15248e-08
-7.83912e-08
-7.53168e-08
-7.22265e-08
-6.92153e-08
-6.62038e-08
-6.32607e-08
-6.03371e-08
-5.74824e-08
-5.46525e-08
-5.21959e-08
-4.99747e-08
-4.78615e-08
-4.58328e-08
-4.38426e-08
-4.19341e-08
-4.00971e-08
-3.83073e-08
-3.65926e-08
-3.49239e-08
-3.33152e-08
-3.17551e-08
-3.02424e-08
-2.87764e-08
-2.73483e-08
-2.59623e-08
-2.46085e-08
-2.32862e-08
-2.19956e-08
-2.07222e-08
-1.94791e-08
-1.82462e-08
-1.70308e-08
-1.58292e-08
-1.4625e-08
-1.34419e-08
-1.22435e-08
-1.10663e-08
-9.86988e-09
-8.69156e-09
-7.49648e-09
-6.32663e-09
-5.1336e-09
-4.01272e-09
-2.82331e-09
-1.83874e-09
-6.40335e-10
1.46679e-11
1.30534e-09
1.18283e-09
2.88145e-09
8.63538e-10
3.99899e-09
-2.68763e-09
4.94296e-09
-1.42378e-08
6.59219e-09
-5.07916e-08
1.41279e-08
-2.78902e-07
2.40278e-08
2.62117e-07
8.6993e-08
1.54144e-07
4.60701e-08
-6.23155e-08
3.64482e-10
-9.04313e-08
-6.83244e-08
-1.10164e-07
-1.07638e-07
-1.2561e-07
-1.28543e-07
-1.36111e-07
-1.38328e-07
-1.4214e-07
-1.4235e-07
-1.44096e-07
-1.43452e-07
-1.43037e-07
-1.42227e-07
-1.40627e-07
-1.38993e-07
-1.37215e-07
-1.34802e-07
-1.32614e-07
-1.30129e-07
-1.27348e-07
-1.24767e-07
-1.21842e-07
-1.18907e-07
-1.16027e-07
-1.1291e-07
-1.09861e-07
-1.06796e-07
-1.03587e-07
-1.00485e-07
-9.73111e-08
-9.41156e-08
-9.09911e-08
-8.77831e-08
-8.46563e-08
-8.1519e-08
-7.83868e-08
-7.53137e-08
-7.22246e-08
-6.92144e-08
-6.62038e-08
-6.32616e-08
-6.03387e-08
-5.74847e-08
-5.46553e-08
-5.21991e-08
-4.99784e-08
-4.78654e-08
-4.5837e-08
-4.38471e-08
-4.19387e-08
-4.01018e-08
-3.8312e-08
-3.65974e-08
-3.49287e-08
-3.33199e-08
-3.17598e-08
-3.02471e-08
-2.87812e-08
-2.73531e-08
-2.5967e-08
-2.46132e-08
-2.3291e-08
-2.20004e-08
-2.07271e-08
-1.94841e-08
-1.82514e-08
-1.70362e-08
-1.58349e-08
-1.46311e-08
-1.34485e-08
-1.22506e-08
-1.10741e-08
-9.8785e-09
-8.70117e-09
-7.50718e-09
-6.33874e-09
-5.14715e-09
-4.02826e-09
-2.84068e-09
-1.85903e-09
-6.62743e-10
-1.23406e-11
1.27635e-09
1.14562e-09
2.84392e-09
8.09333e-10
3.95025e-09
-2.77491e-09
4.8785e-09
-1.44078e-08
6.50269e-09
-5.12587e-08
1.39202e-08
-2.75679e-07
2.65413e-08
2.6106e-07
8.59429e-08
1.52082e-07
4.65818e-08
-5.99154e-08
9.70373e-10
-8.91416e-08
-6.75065e-08
-1.09144e-07
-1.06896e-07
-1.24855e-07
-1.27948e-07
-1.35565e-07
-1.37874e-07
-1.4174e-07
-1.42012e-07
-1.43799e-07
-1.432e-07
-1.42816e-07
-1.42036e-07
-1.40463e-07
-1.38848e-07
-1.37089e-07
-1.34694e-07
-1.32517e-07
-1.30046e-07
-1.27275e-07
-1.24703e-07
-1.21787e-07
-1.18858e-07
-1.15985e-07
-1.12874e-07
-1.09829e-07
-1.06769e-07
-1.03563e-07
-1.00464e-07
-9.72939e-08
-9.4101e-08
-9.09788e-08
-8.77732e-08
-8.46482e-08
-8.15127e-08
-7.8382e-08
-7.53103e-08
-7.22225e-08
-6.92134e-08
-6.62038e-08
-6.32625e-08
-6.03404e-08
-5.74871e-08
-5.46582e-08
-5.22024e-08
-4.99824e-08
-4.78697e-08
-4.58415e-08
-4.38519e-08
-4.19436e-08
-4.01069e-08
-3.83171e-08
-3.66025e-08
-3.49338e-08
-3.3325e-08
-3.17649e-08
-3.02522e-08
-2.87862e-08
-2.73581e-08
-2.5972e-08
-2.46182e-08
-2.32961e-08
-2.20056e-08
-2.07324e-08
-1.94895e-08
-1.8257e-08
-1.70421e-08
-1.58411e-08
-1.46376e-08
-1.34555e-08
-1.22583e-08
-1.10825e-08
-9.88776e-09
-8.71148e-09
-7.51868e-09
-6.35174e-09
-5.16171e-09
-4.04495e-09
-2.85932e-09
-1.88079e-09
-6.86783e-10
-4.12835e-11
1.24526e-09
1.1058e-09
2.8037e-09
7.51437e-10
3.89806e-09
-2.86786e-09
4.80963e-09
-1.45878e-08
6.40782e-09
-5.17416e-08
1.36923e-08
-2.7225e-07
2.92327e-08
2.598e-07
8.4924e-08
1.49925e-07
4.70961e-08
-5.74045e-08
1.60006e-09
-8.77562e-08
-6.66446e-08
-1.08053e-07
-1.06104e-07
-1.24044e-07
-1.27312e-07
-1.34977e-07
-1.37387e-07
-1.41309e-07
-1.41648e-07
-1.43479e-07
-1.42929e-07
-1.42577e-07
-1.4183e-07
-1.40285e-07
-1.38692e-07
-1.36953e-07
-1.34577e-07
-1.32414e-07
-1.29956e-07
-1.27197e-07
-1.24634e-07
-1.21727e-07
-1.18806e-07
-1.15939e-07
-1.12834e-07
-1.09794e-07
-1.06739e-07
-1.03538e-07
-1.00442e-07
-9.72752e-08
-9.40852e-08
-9.09655e-08
-8.77624e-08
-8.46393e-08
-8.15058e-08
-7.83768e-08
-7.53066e-08
-7.22202e-08
-6.92122e-08
-6.62038e-08
-6.32634e-08
-6.03422e-08
-5.74896e-08
-5.46613e-08
-5.2206e-08
-4.99867e-08
-4.78742e-08
-4.58463e-08
-4.38571e-08
-4.19489e-08
-4.01122e-08
-3.83226e-08
-3.66079e-08
-3.49393e-08
-3.33305e-08
-3.17704e-08
-3.02576e-08
-2.87916e-08
-2.73635e-08
-2.59774e-08
-2.46237e-08
-2.33016e-08
-2.20111e-08
-2.0738e-08
-1.94953e-08
-1.8263e-08
-1.70483e-08
-1.58477e-08
-1.46447e-08
-1.34631e-08
-1.22665e-08
-1.10915e-08
-9.89771e-09
-8.72256e-09
-7.53103e-09
-6.3657e-09
-5.17734e-09
-4.06286e-09
-2.87933e-09
-1.90412e-09
-7.12568e-10
-7.2289e-11
1.21194e-09
1.0632e-09
2.76061e-09
6.89636e-10
3.8422e-09
-2.96677e-09
4.73606e-09
-1.47783e-08
6.30729e-09
-5.22389e-08
1.34423e-08
-2.68607e-07
3.21103e-08
2.58315e-07
8.39485e-08
1.47675e-07
4.76106e-08
-5.47842e-08
2.25248e-09
-8.62691e-08
-6.57374e-08
-1.06885e-07
-1.05262e-07
-1.23176e-07
-1.2663e-07
-1.34346e-07
-1.36864e-07
-1.40846e-07
-1.41257e-07
-1.43135e-07
-1.42637e-07
-1.4232e-07
-1.41608e-07
-1.40094e-07
-1.38524e-07
-1.36807e-07
-1.34451e-07
-1.32301e-07
-1.2986e-07
-1.27112e-07
-1.24559e-07
-1.21663e-07
-1.18749e-07
-1.15889e-07
-1.12792e-07
-1.09757e-07
-1.06706e-07
-1.0351e-07
-1.00418e-07
-9.7255e-08
-9.4068e-08
-9.09511e-08
-8.77507e-08
-8.46296e-08
-8.14983e-08
-7.8371e-08
-7.53025e-08
-7.22176e-08
-6.92109e-08
-6.62037e-08
-6.32643e-08
-6.0344e-08
-5.74923e-08
-5.46646e-08
-5.22098e-08
-4.99912e-08
-4.7879e-08
-4.58514e-08
-4.38626e-08
-4.19545e-08
-4.0118e-08
-3.83284e-08
-3.66138e-08
-3.49451e-08
-3.33363e-08
-3.17763e-08
-3.02634e-08
-2.87974e-08
-2.73693e-08
-2.59832e-08
-2.46295e-08
-2.33074e-08
-2.20171e-08
-2.07441e-08
-1.95015e-08
-1.82695e-08
-1.7055e-08
-1.58548e-08
-1.46522e-08
-1.34712e-08
-1.22754e-08
-1.11012e-08
-9.90841e-09
-8.73446e-09
-7.5443e-09
-6.38069e-09
-5.19411e-09
-4.08207e-09
-2.9008e-09
-1.92914e-09
-7.40216e-10
-1.05492e-10
1.17624e-09
1.01766e-09
2.71447e-09
6.23714e-10
3.78242e-09
-3.07191e-09
4.65752e-09
-1.49794e-08
6.20077e-09
-5.27487e-08
1.31678e-08
-2.64742e-07
3.51819e-08
2.56582e-07
8.30303e-08
1.45333e-07
4.81234e-08
-5.20566e-08
2.92625e-09
-8.46742e-08
-6.4784e-08
-1.05637e-07
-1.04367e-07
-1.22245e-07
-1.25902e-07
-1.33667e-07
-1.36303e-07
-1.40347e-07
-1.40836e-07
-1.42765e-07
-1.42322e-07
-1.42044e-07
-1.41369e-07
-1.39888e-07
-1.38343e-07
-1.36649e-07
-1.34314e-07
-1.32181e-07
-1.29755e-07
-1.27021e-07
-1.24478e-07
-1.21594e-07
-1.18688e-07
-1.15835e-07
-1.12746e-07
-1.09716e-07
-1.06671e-07
-1.0348e-07
-1.00392e-07
-9.72331e-08
-9.40494e-08
-9.09354e-08
-8.7738e-08
-8.46191e-08
-8.14901e-08
-7.83648e-08
-7.5298e-08
-7.22147e-08
-6.92094e-08
-6.62034e-08
-6.32652e-08
-6.03459e-08
-5.74951e-08
-5.46681e-08
-5.22138e-08
-4.9996e-08
-4.78841e-08
-4.58569e-08
-4.38684e-08
-4.19605e-08
-4.01241e-08
-3.83346e-08
-3.662e-08
-3.49514e-08
-3.33426e-08
-3.17825e-08
-3.02697e-08
-2.88037e-08
-2.73756e-08
-2.59894e-08
-2.46358e-08
-2.33137e-08
-2.20234e-08
-2.07506e-08
-1.95082e-08
-1.82764e-08
-1.70623e-08
-1.58624e-08
-1.46604e-08
-1.348e-08
-1.22849e-08
-1.11116e-08
-9.91989e-09
-8.74724e-09
-7.55854e-09
-6.39677e-09
-5.21212e-09
-4.10269e-09
-2.92383e-09
-1.95595e-09
-7.69855e-10
-1.41033e-10
1.13799e-09
9.6899e-10
2.66507e-09
5.53448e-10
3.71847e-09
-3.18355e-09
4.57369e-09
-1.51914e-08
6.0879e-09
-5.32687e-08
1.28666e-08
-2.60649e-07
3.84544e-08
2.54578e-07
8.2184e-08
1.42903e-07
4.86324e-08
-4.92249e-08
3.61961e-09
-8.29654e-08
-6.37834e-08
-1.04303e-07
-1.03415e-07
-1.21247e-07
-1.25122e-07
-1.32938e-07
-1.35702e-07
-1.3981e-07
-1.40383e-07
-1.42366e-07
-1.41982e-07
-1.41746e-07
-1.4111e-07
-1.39665e-07
-1.38147e-07
-1.36478e-07
-1.34167e-07
-1.3205e-07
-1.29642e-07
-1.26922e-07
-1.24391e-07
-1.21519e-07
-1.18622e-07
-1.15777e-07
-1.12696e-07
-1.09672e-07
-1.06633e-07
-1.03448e-07
-1.00363e-07
-9.72093e-08
-9.40292e-08
-9.09184e-08
-8.77241e-08
-8.46077e-08