/*--------------------------------*- C++ -*----------------------------------*\
| =========                 |                                                 |
| \\      /  F ield         | OpenFOAM: The Open Source CFD Toolbox           |
|  \\    /   O peration     | Version:  5.x                                   |
|   \\  /    A nd           | Web:      www.OpenFOAM.org                      |
|    \\/     M anipulation  |                                                 |
\*---------------------------------------------------------------------------*/
FoamFile
{
    version     2.0;
    format      ascii;
    class       volScalarField;
    location    "2500";
    object      p;
}
// * * * * * * * * * * * * * * * * * * * * * * * * * * * * * * * * * * * * * //

dimensions      [0 2 -2 0 0 0 0];

internalField   nonuniform List<scalar> 
107912
(
-1.00474e-05
1.70908e-05
-1.24763e-05
-1.44367e-05
-4.08259e-05
-5.51852e-05
-4.18827e-05
-5.4529e-05
-4.87553e-05
-5.14905e-05
-4.85044e-05
-4.763e-05
-4.5254e-05
-4.32189e-05
-4.0933e-05
-3.87145e-05
-3.64542e-05
-3.43479e-05
-3.22252e-05
-3.03278e-05
-2.84573e-05
-2.67353e-05
-2.51422e-05
-2.36515e-05
-2.22981e-05
-2.10519e-05
-1.99132e-05
-1.88939e-05
-1.79586e-05
-1.71229e-05
-1.63844e-05
-1.57085e-05
-1.5114e-05
-1.45823e-05
-1.41063e-05
-1.36912e-05
-1.33186e-05
-1.29986e-05
-1.27126e-05
-1.24593e-05
-1.22335e-05
-1.20391e-05
-1.18594e-05
-1.17081e-05
-1.15784e-05
-1.14548e-05
-1.13648e-05
-1.12647e-05
-1.12e-05
-1.11226e-05
-1.10701e-05
-1.10042e-05
-1.0978e-05
-1.09452e-05
-1.09298e-05
-1.0898e-05
-1.08885e-05
-1.08627e-05
-1.08604e-05
-1.08433e-05
-1.08416e-05
-1.08188e-05
-1.08221e-05
-1.0806e-05
-1.0809e-05
-1.07932e-05
-1.07968e-05
-1.07838e-05
-1.07854e-05
-1.07727e-05
-1.07742e-05
-1.07578e-05
-1.07574e-05
-1.07426e-05
-1.07358e-05
-1.07162e-05
-1.07072e-05
-1.06853e-05
-1.06701e-05
-1.06574e-05
-1.06372e-05
-1.06137e-05
-1.05892e-05
-1.05633e-05
-1.05322e-05
-1.0497e-05
-1.04606e-05
-1.04235e-05
-1.03798e-05
-1.03427e-05
-1.02921e-05
-1.02537e-05
-1.01935e-05
-1.01625e-05
-1.00835e-05
-1.00882e-05
-9.98262e-06
-1.00667e-05
-9.85497e-06
-1.02053e-05
-9.63148e-06
-1.23679e-05
-1.40668e-05
1.70889e-05
-1.25558e-05
-1.44914e-05
-4.07389e-05
-5.50878e-05
-4.18594e-05
-5.44836e-05
-4.87339e-05
-5.14682e-05
-4.84945e-05
-4.76226e-05
-4.52522e-05
-4.32196e-05
-4.09358e-05
-3.87188e-05
-3.64594e-05
-3.43534e-05
-3.22311e-05
-3.03335e-05
-2.84629e-05
-2.67406e-05
-2.51472e-05
-2.36562e-05
-2.23023e-05
-2.10558e-05
-1.99167e-05
-1.88971e-05
-1.79615e-05
-1.71255e-05
-1.63866e-05
-1.57105e-05
-1.51158e-05
-1.45839e-05
-1.41077e-05
-1.36924e-05
-1.33197e-05
-1.29994e-05
-1.27133e-05
-1.246e-05
-1.22341e-05
-1.20396e-05
-1.18599e-05
-1.17086e-05
-1.15787e-05
-1.14552e-05
-1.13649e-05
-1.12649e-05
-1.12e-05
-1.11228e-05
-1.10701e-05
-1.10044e-05
-1.09779e-05
-1.09452e-05
-1.09297e-05
-1.08981e-05
-1.08884e-05
-1.08627e-05
-1.08602e-05
-1.08433e-05
-1.08414e-05
-1.08188e-05
-1.08219e-05
-1.08059e-05
-1.08089e-05
-1.07931e-05
-1.07966e-05
-1.07837e-05
-1.07852e-05
-1.07726e-05
-1.0774e-05
-1.07578e-05
-1.07571e-05
-1.07424e-05
-1.07356e-05
-1.07161e-05
-1.0707e-05
-1.06852e-05
-1.067e-05
-1.06573e-05
-1.06372e-05
-1.06136e-05
-1.05891e-05
-1.05632e-05
-1.05321e-05
-1.04969e-05
-1.04606e-05
-1.04235e-05
-1.03798e-05
-1.03427e-05
-1.02921e-05
-1.02537e-05
-1.01936e-05
-1.01627e-05
-1.00836e-05
-1.00884e-05
-9.9827e-06
-1.00672e-05
-9.85518e-06
-1.02069e-05
-9.63162e-06
-1.22685e-05
-1.45145e-05
1.70886e-05
-1.26468e-05
-1.45534e-05
-4.06414e-05
-5.49716e-05
-4.18294e-05
-5.44316e-05
-4.87062e-05
-5.1441e-05
-4.84805e-05
-4.76119e-05
-4.52478e-05
-4.32183e-05
-4.09371e-05
-3.87218e-05
-3.64634e-05
-3.43582e-05
-3.22363e-05
-3.03387e-05
-2.84682e-05
-2.67457e-05
-2.5152e-05
-2.36608e-05
-2.23065e-05
-2.10597e-05
-1.99203e-05
-1.89003e-05
-1.79644e-05
-1.71281e-05
-1.63889e-05
-1.57125e-05
-1.51176e-05
-1.45855e-05
-1.41092e-05
-1.36937e-05
-1.33209e-05
-1.30003e-05
-1.27142e-05
-1.24607e-05
-1.22348e-05
-1.20402e-05
-1.18604e-05
-1.17091e-05
-1.1579e-05
-1.14556e-05
-1.13651e-05
-1.12653e-05
-1.12001e-05
-1.11229e-05
-1.10702e-05
-1.10045e-05
-1.09778e-05
-1.09452e-05
-1.09296e-05
-1.08981e-05
-1.08882e-05
-1.08627e-05
-1.086e-05
-1.08432e-05
-1.08412e-05
-1.08187e-05
-1.08217e-05
-1.08059e-05
-1.08086e-05
-1.0793e-05
-1.07963e-05
-1.07836e-05
-1.0785e-05
-1.07725e-05
-1.07737e-05
-1.07577e-05
-1.07567e-05
-1.07422e-05
-1.07354e-05
-1.0716e-05
-1.07067e-05
-1.0685e-05
-1.06699e-05
-1.06572e-05
-1.0637e-05
-1.06135e-05
-1.0589e-05
-1.0563e-05
-1.0532e-05
-1.04969e-05
-1.04605e-05
-1.04234e-05
-1.03798e-05
-1.03427e-05
-1.02921e-05
-1.02537e-05
-1.01936e-05
-1.01628e-05
-1.00837e-05
-1.00886e-05
-9.98279e-06
-1.00676e-05
-9.85543e-06
-1.02087e-05
-9.63231e-06
-1.22507e-05
-1.41755e-05
1.70859e-05
-1.27378e-05
-1.46175e-05
-4.05426e-05
-5.48516e-05
-4.17979e-05
-5.43774e-05
-4.86774e-05
-5.14125e-05
-4.84655e-05
-4.76004e-05
-4.52427e-05
-4.32165e-05
-4.09379e-05
-3.87246e-05
-3.64673e-05
-3.43627e-05
-3.22414e-05
-3.03437e-05
-2.84733e-05
-2.67506e-05
-2.51567e-05
-2.36652e-05
-2.23106e-05
-2.10635e-05
-1.99237e-05
-1.89034e-05
-1.79672e-05
-1.71306e-05
-1.63912e-05
-1.57145e-05
-1.51194e-05
-1.45872e-05
-1.41106e-05
-1.3695e-05
-1.33221e-05
-1.30012e-05
-1.27149e-05
-1.24614e-05
-1.22353e-05
-1.20407e-05
-1.18609e-05
-1.17096e-05
-1.15793e-05
-1.14561e-05
-1.13651e-05
-1.12656e-05
-1.11999e-05
-1.11229e-05
-1.10702e-05
-1.10047e-05
-1.09775e-05
-1.09451e-05
-1.09292e-05
-1.0898e-05
-1.08879e-05
-1.08627e-05
-1.08596e-05
-1.0843e-05
-1.08407e-05
-1.08186e-05
-1.08213e-05
-1.08057e-05
-1.08082e-05
-1.07929e-05
-1.07959e-05
-1.07834e-05
-1.07846e-05
-1.07722e-05
-1.07733e-05
-1.07575e-05
-1.07561e-05
-1.07418e-05
-1.0735e-05
-1.07158e-05
-1.07062e-05
-1.06847e-05
-1.06696e-05
-1.06569e-05
-1.06368e-05
-1.06133e-05
-1.05888e-05
-1.05628e-05
-1.05318e-05
-1.04967e-05
-1.04604e-05
-1.04233e-05
-1.03797e-05
-1.03426e-05
-1.0292e-05
-1.02536e-05
-1.01936e-05
-1.01628e-05
-1.00838e-05
-1.00888e-05
-9.98276e-06
-1.00681e-05
-9.85566e-06
-1.02106e-05
-9.63304e-06
-1.22443e-05
-1.39819e-05
1.70806e-05
-1.28307e-05
-1.46851e-05
-4.04397e-05
-5.47257e-05
-4.17643e-05
-5.43198e-05
-4.86472e-05
-5.13821e-05
-4.84498e-05
-4.75882e-05
-4.52373e-05
-4.32145e-05
-4.09388e-05
-3.87275e-05
-3.64714e-05
-3.43676e-05
-3.22469e-05
-3.03492e-05
-2.84788e-05
-2.67559e-05
-2.51618e-05
-2.367e-05
-2.23149e-05
-2.10676e-05
-1.99274e-05
-1.89068e-05
-1.79702e-05
-1.71332e-05
-1.63935e-05
-1.57166e-05
-1.51212e-05
-1.45889e-05
-1.41122e-05
-1.36963e-05
-1.33234e-05
-1.3002e-05
-1.27157e-05
-1.24621e-05
-1.2236e-05
-1.20412e-05
-1.18615e-05
-1.17101e-05
-1.15796e-05
-1.14566e-05
-1.13651e-05
-1.1266e-05
-1.11998e-05
-1.1123e-05
-1.10701e-05
-1.10048e-05
-1.09771e-05
-1.09451e-05
-1.09288e-05
-1.0898e-05
-1.08876e-05
-1.08626e-05
-1.08591e-05
-1.08428e-05
-1.08403e-05
-1.08185e-05
-1.08208e-05
-1.08055e-05
-1.08077e-05
-1.07927e-05
-1.07954e-05
-1.07831e-05
-1.07841e-05
-1.0772e-05
-1.07728e-05
-1.07573e-05
-1.07554e-05
-1.07414e-05
-1.07345e-05
-1.07156e-05
-1.07057e-05
-1.06843e-05
-1.06693e-05
-1.06565e-05
-1.06365e-05
-1.0613e-05
-1.05885e-05
-1.05625e-05
-1.05315e-05
-1.04965e-05
-1.04602e-05
-1.04231e-05
-1.03795e-05
-1.03424e-05
-1.02919e-05
-1.02535e-05
-1.01935e-05
-1.01629e-05
-1.00839e-05
-1.0089e-05
-9.98272e-06
-1.00685e-05
-9.85587e-06
-1.02125e-05
-9.6338e-06
-1.2233e-05
-1.38711e-05
1.70729e-05
-1.29266e-05
-1.47567e-05
-4.03309e-05
-5.45916e-05
-4.17279e-05
-5.42575e-05
-4.86151e-05
-5.13493e-05
-4.84329e-05
-4.75748e-05
-4.52315e-05
-4.32123e-05
-4.09397e-05
-3.87306e-05
-3.64757e-05
-3.43727e-05
-3.22527e-05
-3.03549e-05
-2.84846e-05
-2.67615e-05
-2.51672e-05
-2.3675e-05
-2.23194e-05
-2.10718e-05
-1.99312e-05
-1.89103e-05
-1.79733e-05
-1.7136e-05
-1.6396e-05
-1.57187e-05
-1.51231e-05
-1.45906e-05
-1.41137e-05
-1.36977e-05
-1.33246e-05
-1.30029e-05
-1.27164e-05
-1.24627e-05
-1.22365e-05
-1.20417e-05
-1.1862e-05
-1.17106e-05
-1.15798e-05
-1.14571e-05
-1.1365e-05
-1.12663e-05
-1.11995e-05
-1.11229e-05
-1.107e-05
-1.10049e-05
-1.09766e-05
-1.09449e-05
-1.09283e-05
-1.08978e-05
-1.08871e-05
-1.08625e-05
-1.08585e-05
-1.08425e-05
-1.08396e-05
-1.08183e-05
-1.08202e-05
-1.08052e-05
-1.08071e-05
-1.07924e-05
-1.07948e-05
-1.07828e-05
-1.07836e-05
-1.07717e-05
-1.07721e-05
-1.0757e-05
-1.07546e-05
-1.07409e-05
-1.07339e-05
-1.07153e-05
-1.0705e-05
-1.06839e-05
-1.06689e-05
-1.06561e-05
-1.06361e-05
-1.06126e-05
-1.05881e-05
-1.05621e-05
-1.05312e-05
-1.04962e-05
-1.04599e-05
-1.04228e-05
-1.03794e-05
-1.03421e-05
-1.02917e-05
-1.02533e-05
-1.01934e-05
-1.01629e-05
-1.00839e-05
-1.00891e-05
-9.9826e-06
-1.00689e-05
-9.85607e-06
-1.02145e-05
-9.63459e-06
-1.22189e-05
-1.37501e-05
1.7062e-05
-1.3025e-05
-1.48325e-05
-4.02154e-05
-5.44484e-05
-4.16885e-05
-5.41903e-05
-4.8581e-05
-5.13138e-05
-4.84148e-05
-4.75604e-05
-4.52252e-05
-4.32099e-05
-4.09407e-05
-3.87338e-05
-3.64803e-05
-3.43782e-05
-3.22589e-05
-3.03611e-05
-2.84909e-05
-2.67675e-05
-2.51729e-05
-2.36804e-05
-2.23243e-05
-2.10764e-05
-1.99354e-05
-1.89141e-05
-1.79768e-05
-1.7139e-05
-1.63986e-05
-1.57211e-05
-1.51252e-05
-1.45925e-05
-1.41153e-05
-1.36992e-05
-1.3326e-05
-1.30038e-05
-1.27173e-05
-1.24634e-05
-1.22372e-05
-1.20423e-05
-1.18627e-05
-1.17112e-05
-1.15801e-05
-1.14577e-05
-1.1365e-05
-1.12667e-05
-1.11993e-05
-1.11229e-05
-1.10699e-05
-1.10051e-05
-1.09762e-05
-1.09448e-05
-1.09278e-05
-1.08977e-05
-1.08865e-05
-1.08623e-05
-1.08579e-05
-1.08422e-05
-1.08389e-05
-1.08181e-05
-1.08195e-05
-1.08049e-05
-1.08065e-05
-1.07921e-05
-1.07942e-05
-1.07824e-05
-1.07829e-05
-1.07713e-05
-1.07714e-05
-1.07566e-05
-1.07537e-05
-1.07403e-05
-1.07333e-05
-1.07149e-05
-1.07043e-05
-1.06834e-05
-1.06685e-05
-1.06556e-05
-1.06356e-05
-1.06122e-05
-1.05877e-05
-1.05616e-05
-1.05308e-05
-1.04959e-05
-1.04596e-05
-1.04225e-05
-1.03791e-05
-1.03419e-05
-1.02916e-05
-1.0253e-05
-1.01933e-05
-1.01628e-05
-1.0084e-05
-1.00893e-05
-9.98249e-06
-1.00694e-05
-9.85628e-06
-1.02166e-05
-9.63548e-06
-1.22038e-05
-1.36094e-05
1.70472e-05
-1.31252e-05
-1.49118e-05
-4.00926e-05
-5.42954e-05
-4.16459e-05
-5.41175e-05
-4.85445e-05
-5.12755e-05
-4.83954e-05
-4.75448e-05
-4.52183e-05
-4.3207e-05
-4.09416e-05
-3.87371e-05
-3.64851e-05
-3.4384e-05
-3.22654e-05
-3.03675e-05
-2.84975e-05
-2.67738e-05
-2.5179e-05
-2.36861e-05
-2.23294e-05
-2.10812e-05
-1.99398e-05
-1.8918e-05
-1.79803e-05
-1.71421e-05
-1.64014e-05
-1.57235e-05
-1.51273e-05
-1.45945e-05
-1.4117e-05
-1.37007e-05
-1.33274e-05
-1.30047e-05
-1.27181e-05
-1.24641e-05
-1.22378e-05
-1.20428e-05
-1.18632e-05
-1.17117e-05
-1.15803e-05
-1.14582e-05
-1.13649e-05
-1.12671e-05
-1.11989e-05
-1.11228e-05
-1.10696e-05
-1.10051e-05
-1.09756e-05
-1.09445e-05
-1.09271e-05
-1.08974e-05
-1.08859e-05
-1.08621e-05
-1.08571e-05
-1.08418e-05
-1.08381e-05
-1.08178e-05
-1.08188e-05
-1.08045e-05
-1.08058e-05
-1.07917e-05
-1.07934e-05
-1.0782e-05
-1.07822e-05
-1.07709e-05
-1.07706e-05
-1.07562e-05
-1.07528e-05
-1.07396e-05
-1.07326e-05
-1.07145e-05
-1.07035e-05
-1.06828e-05
-1.0668e-05
-1.0655e-05
-1.06351e-05
-1.06117e-05
-1.05872e-05
-1.05611e-05
-1.05304e-05
-1.04955e-05
-1.04593e-05
-1.04221e-05
-1.03789e-05
-1.03416e-05
-1.02913e-05
-1.02527e-05
-1.01931e-05
-1.01628e-05
-1.0084e-05
-1.00894e-05
-9.98231e-06
-1.00698e-05
-9.85648e-06
-1.02189e-05
-9.63644e-06
-1.2188e-05
-1.34511e-05
1.70277e-05
-1.32263e-05
-1.49945e-05
-3.99614e-05
-5.41317e-05
-4.15999e-05
-5.4039e-05
-4.85057e-05
-5.12341e-05
-4.83745e-05
-4.75279e-05
-4.52109e-05
-4.3204e-05
-4.09425e-05
-3.87407e-05
-3.64903e-05
-3.43902e-05
-3.22724e-05
-3.03745e-05
-2.85046e-05
-2.67807e-05
-2.51856e-05
-2.36922e-05
-2.2335e-05
-2.10865e-05
-1.99446e-05
-1.89223e-05
-1.79842e-05
-1.71455e-05
-1.64044e-05
-1.57262e-05
-1.51296e-05
-1.45966e-05
-1.41189e-05
-1.37024e-05
-1.3329e-05
-1.30058e-05
-1.2719e-05
-1.24649e-05
-1.22385e-05
-1.20434e-05
-1.18639e-05
-1.17123e-05
-1.15806e-05
-1.14588e-05
-1.13649e-05
-1.12675e-05
-1.11987e-05
-1.11228e-05
-1.10695e-05
-1.10052e-05
-1.0975e-05
-1.09443e-05
-1.09265e-05
-1.08972e-05
-1.08853e-05
-1.08619e-05
-1.08564e-05
-1.08414e-05
-1.08373e-05
-1.08174e-05
-1.0818e-05
-1.08041e-05
-1.0805e-05
-1.07914e-05
-1.07927e-05
-1.07815e-05
-1.07815e-05
-1.07704e-05
-1.07698e-05
-1.07558e-05
-1.07518e-05
-1.07389e-05
-1.07318e-05
-1.0714e-05
-1.07027e-05
-1.06823e-05
-1.06675e-05
-1.06545e-05
-1.06346e-05
-1.06112e-05
-1.05867e-05
-1.05606e-05
-1.05299e-05
-1.04952e-05
-1.04589e-05
-1.04218e-05
-1.03786e-05
-1.03413e-05
-1.02911e-05
-1.02525e-05
-1.0193e-05
-1.01628e-05
-1.0084e-05
-1.00896e-05
-9.98218e-06
-1.00703e-05
-9.85669e-06
-1.02213e-05
-9.63752e-06
-1.2171e-05
-1.32761e-05
1.70025e-05
-1.33272e-05
-1.50798e-05
-3.98204e-05
-5.39558e-05
-4.15501e-05
-5.39537e-05
-4.84643e-05
-5.11893e-05
-4.83521e-05
-4.75094e-05
-4.52028e-05
-4.32004e-05
-4.09433e-05
-3.87443e-05
-3.64957e-05
-3.43966e-05
-3.22798e-05
-3.03818e-05
-2.8512e-05
-2.67878e-05
-2.51925e-05
-2.36987e-05
-2.23409e-05
-2.1092e-05
-1.99495e-05
-1.89268e-05
-1.79882e-05
-1.71491e-05
-1.64075e-05
-1.57289e-05
-1.5132e-05
-1.45988e-05
-1.41208e-05
-1.37042e-05
-1.33306e-05
-1.30068e-05
-1.272e-05
-1.24657e-05
-1.22392e-05
-1.20439e-05
-1.18646e-05
-1.17129e-05
-1.15809e-05
-1.14593e-05
-1.13647e-05
-1.12678e-05
-1.11983e-05
-1.11227e-05
-1.10692e-05
-1.10052e-05
-1.09744e-05
-1.09439e-05
-1.09258e-05
-1.08969e-05
-1.08846e-05
-1.08616e-05
-1.08556e-05
-1.08409e-05
-1.08364e-05
-1.0817e-05
-1.08171e-05
-1.08036e-05
-1.08042e-05
-1.07909e-05
-1.07918e-05
-1.0781e-05
-1.07807e-05
-1.07699e-05
-1.07688e-05
-1.07552e-05
-1.07507e-05
-1.07381e-05
-1.0731e-05
-1.07135e-05
-1.07018e-05
-1.06816e-05
-1.0667e-05
-1.06538e-05
-1.0634e-05
-1.06107e-05
-1.05862e-05
-1.05601e-05
-1.05294e-05
-1.04948e-05
-1.04586e-05
-1.04214e-05
-1.03783e-05
-1.03409e-05
-1.02908e-05
-1.02522e-05
-1.01928e-05
-1.01627e-05
-1.0084e-05
-1.00897e-05
-9.98198e-06
-1.00708e-05
-9.85691e-06
-1.02238e-05
-9.63868e-06
-1.2153e-05
-1.30796e-05
1.69706e-05
-1.34267e-05
-1.51671e-05
-3.96681e-05
-5.37664e-05
-4.14963e-05
-5.38612e-05
-4.84201e-05
-5.11408e-05
-4.8328e-05
-4.74895e-05
-4.5194e-05
-4.31965e-05
-4.09441e-05
-3.87482e-05
-3.65015e-05
-3.44036e-05
-3.22877e-05
-3.03897e-05
-2.85201e-05
-2.67956e-05
-2.52e-05
-2.37057e-05
-2.23473e-05
-2.1098e-05
-1.9955e-05
-1.89318e-05
-1.79926e-05
-1.7153e-05
-1.64109e-05
-1.5732e-05
-1.51347e-05
-1.46012e-05
-1.4123e-05
-1.37061e-05
-1.33324e-05
-1.30081e-05
-1.2721e-05
-1.24666e-05
-1.224e-05
-1.20446e-05
-1.18653e-05
-1.17135e-05
-1.15813e-05
-1.14599e-05
-1.13647e-05
-1.12682e-05
-1.1198e-05
-1.11226e-05
-1.1069e-05
-1.10053e-05
-1.09738e-05
-1.09436e-05
-1.09252e-05
-1.08966e-05
-1.08839e-05
-1.08613e-05
-1.08548e-05
-1.08404e-05
-1.08355e-05
-1.08167e-05
-1.08163e-05
-1.08031e-05
-1.08033e-05
-1.07904e-05
-1.0791e-05
-1.07805e-05
-1.07799e-05
-1.07693e-05
-1.0768e-05
-1.07547e-05
-1.07497e-05
-1.07374e-05
-1.07302e-05
-1.0713e-05
-1.07009e-05
-1.0681e-05
-1.06664e-05
-1.06532e-05
-1.06334e-05
-1.06101e-05
-1.05856e-05
-1.05595e-05
-1.05289e-05
-1.04944e-05
-1.04582e-05
-1.0421e-05
-1.0378e-05
-1.03406e-05
-1.02906e-05
-1.02519e-05
-1.01926e-05
-1.01626e-05
-1.0084e-05
-1.00898e-05
-9.98184e-06
-1.00714e-05
-9.85715e-06
-1.02264e-05
-9.63999e-06
-1.21338e-05
-1.28594e-05
1.69308e-05
-1.35232e-05
-1.52551e-05
-3.95024e-05
-5.35616e-05
-4.14381e-05
-5.37604e-05
-4.83729e-05
-5.10881e-05
-4.8302e-05
-4.74677e-05
-4.51844e-05
-4.3192e-05
-4.09448e-05
-3.87521e-05
-3.65074e-05
-3.44109e-05
-3.2296e-05
-3.0398e-05
-2.85286e-05
-2.68038e-05
-2.52078e-05
-2.37131e-05
-2.2354e-05
-2.11042e-05
-1.99607e-05
-1.89369e-05
-1.79972e-05
-1.7157e-05
-1.64145e-05
-1.57351e-05
-1.51374e-05
-1.46037e-05
-1.41252e-05
-1.37081e-05
-1.33342e-05
-1.30094e-05
-1.27221e-05
-1.24675e-05
-1.22408e-05
-1.20453e-05
-1.18661e-05
-1.17141e-05
-1.15816e-05
-1.14605e-05
-1.13647e-05
-1.12685e-05
-1.11977e-05
-1.11225e-05
-1.10687e-05
-1.10053e-05
-1.09731e-05
-1.09432e-05
-1.09244e-05
-1.08962e-05
-1.08831e-05
-1.0861e-05
-1.08539e-05
-1.08397e-05
-1.08345e-05
-1.08162e-05
-1.08154e-05
-1.08026e-05
-1.08024e-05
-1.07899e-05
-1.07901e-05
-1.07798e-05
-1.0779e-05
-1.07687e-05
-1.07669e-05
-1.07541e-05
-1.07485e-05
-1.07365e-05
-1.07293e-05
-1.07123e-05
-1.07e-05
-1.06803e-05
-1.06658e-05
-1.06525e-05
-1.06328e-05
-1.06095e-05
-1.0585e-05
-1.05589e-05
-1.05283e-05
-1.04939e-05
-1.04578e-05
-1.04206e-05
-1.03777e-05
-1.03402e-05
-1.02903e-05
-1.02516e-05
-1.01924e-05
-1.01626e-05
-1.00841e-05
-1.009e-05
-9.98165e-06
-1.0072e-05
-9.8574e-06
-1.02292e-05
-9.6414e-06
-1.21134e-05
-1.26101e-05
1.68818e-05
-1.36146e-05
-1.53427e-05
-3.93209e-05
-5.33392e-05
-4.13751e-05
-5.36505e-05
-4.83223e-05
-5.10309e-05
-4.8274e-05
-4.74441e-05
-4.5174e-05
-4.31871e-05
-4.09454e-05
-3.87562e-05
-3.65138e-05
-3.44187e-05
-3.23049e-05
-3.0407e-05
-2.85378e-05
-2.68126e-05
-2.52164e-05
-2.37211e-05
-2.23613e-05
-2.11111e-05
-1.99669e-05
-1.89425e-05
-1.80023e-05
-1.71615e-05
-1.64185e-05
-1.57386e-05
-1.51405e-05
-1.46065e-05
-1.41277e-05
-1.37103e-05
-1.33362e-05
-1.30108e-05
-1.27234e-05
-1.24686e-05
-1.22417e-05
-1.20461e-05
-1.18669e-05
-1.17149e-05
-1.1582e-05
-1.14611e-05
-1.13647e-05
-1.12689e-05
-1.11974e-05
-1.11224e-05
-1.10684e-05
-1.10053e-05
-1.09726e-05
-1.09429e-05
-1.09237e-05
-1.08959e-05
-1.08824e-05
-1.08606e-05
-1.08531e-05
-1.08392e-05
-1.08336e-05
-1.08157e-05
-1.08145e-05
-1.0802e-05
-1.08015e-05
-1.07893e-05
-1.07892e-05
-1.07792e-05
-1.07781e-05
-1.07681e-05
-1.0766e-05
-1.07534e-05
-1.07475e-05
-1.07356e-05
-1.07284e-05
-1.07117e-05
-1.06991e-05
-1.06797e-05
-1.06652e-05
-1.06518e-05
-1.06321e-05
-1.0609e-05
-1.05844e-05
-1.05583e-05
-1.05278e-05
-1.04935e-05
-1.04574e-05
-1.04202e-05
-1.03774e-05
-1.03399e-05
-1.02901e-05
-1.02513e-05
-1.01922e-05
-1.01626e-05
-1.00841e-05
-1.00902e-05
-9.98154e-06
-1.00727e-05
-9.85769e-06
-1.02321e-05
-9.64301e-06
-1.20917e-05
-1.2328e-05
1.68223e-05
-1.36985e-05
-1.54281e-05
-3.91205e-05
-5.30964e-05
-4.13066e-05
-5.35301e-05
-4.82678e-05
-5.09684e-05
-4.82436e-05
-4.74182e-05
-4.51625e-05
-4.31814e-05
-4.09458e-05
-3.87603e-05
-3.65204e-05
-3.44268e-05
-3.23143e-05
-3.04164e-05
-2.85474e-05
-2.68219e-05
-2.52253e-05
-2.37295e-05
-2.2369e-05
-2.11183e-05
-1.99734e-05
-1.89484e-05
-1.80076e-05
-1.71662e-05
-1.64226e-05
-1.57423e-05
-1.51437e-05
-1.46094e-05
-1.41302e-05
-1.37126e-05
-1.33383e-05
-1.30123e-05
-1.27247e-05
-1.24696e-05
-1.22426e-05
-1.20468e-05
-1.18678e-05
-1.17156e-05
-1.15824e-05
-1.14617e-05
-1.13647e-05
-1.12693e-05
-1.11971e-05
-1.11223e-05
-1.10681e-05
-1.10053e-05
-1.09719e-05
-1.09424e-05
-1.09229e-05
-1.08954e-05
-1.08816e-05
-1.08602e-05
-1.08521e-05
-1.08385e-05
-1.08325e-05
-1.08152e-05
-1.08135e-05
-1.08014e-05
-1.08005e-05
-1.07887e-05
-1.07882e-05
-1.07786e-05
-1.07772e-05
-1.07674e-05
-1.07649e-05
-1.07527e-05
-1.07463e-05
-1.07347e-05
-1.07274e-05
-1.07111e-05
-1.06982e-05
-1.0679e-05
-1.06645e-05
-1.06511e-05
-1.06314e-05
-1.06083e-05
-1.05838e-05
-1.05576e-05
-1.05272e-05
-1.0493e-05
-1.04569e-05
-1.04198e-05
-1.03771e-05
-1.03395e-05
-1.02898e-05
-1.0251e-05
-1.0192e-05
-1.01625e-05
-1.00841e-05
-1.00904e-05
-9.98138e-06
-1.00733e-05
-9.85798e-06
-1.02352e-05
-9.64475e-06
-1.20687e-05
-1.20065e-05
1.67507e-05
-1.37719e-05
-1.55094e-05
-3.88979e-05
-5.28304e-05
-4.12321e-05
-5.33979e-05
-4.82091e-05
-5.09002e-05
-4.82107e-05
-4.739e-05
-4.515e-05
-4.3175e-05
-4.09461e-05
-3.87646e-05
-3.65275e-05
-3.44356e-05
-3.23244e-05
-3.04265e-05
-2.85578e-05
-2.6832e-05
-2.5235e-05
-2.37387e-05
-2.23773e-05
-2.11261e-05
-1.99806e-05
-1.89549e-05
-1.80134e-05
-1.71714e-05
-1.64272e-05
-1.57463e-05
-1.51473e-05
-1.46126e-05
-1.41331e-05
-1.37152e-05
-1.33406e-05
-1.30141e-05
-1.27261e-05
-1.24709e-05
-1.22437e-05
-1.20478e-05
-1.18688e-05
-1.17164e-05
-1.15829e-05
-1.14624e-05
-1.13648e-05
-1.12697e-05
-1.11969e-05
-1.11222e-05
-1.10678e-05
-1.10053e-05
-1.09714e-05
-1.09421e-05
-1.09222e-05
-1.0895e-05
-1.08808e-05
-1.08598e-05
-1.08513e-05
-1.08378e-05
-1.08316e-05
-1.08147e-05
-1.08125e-05
-1.08008e-05
-1.07996e-05
-1.07881e-05
-1.07873e-05
-1.07779e-05
-1.07762e-05
-1.07667e-05
-1.07639e-05
-1.0752e-05
-1.07452e-05
-1.07338e-05
-1.07265e-05
-1.07104e-05
-1.06973e-05
-1.06783e-05
-1.06639e-05
-1.06504e-05
-1.06307e-05
-1.06077e-05
-1.05832e-05
-1.0557e-05
-1.05266e-05
-1.04926e-05
-1.04565e-05
-1.04194e-05
-1.03768e-05
-1.03392e-05
-1.02895e-05
-1.02508e-05
-1.01918e-05
-1.01625e-05
-1.00842e-05
-1.00906e-05
-9.9813e-06
-1.00741e-05
-9.85833e-06
-1.02384e-05
-9.64671e-06
-1.20444e-05
-1.16404e-05
1.66656e-05
-1.38313e-05
-1.5584e-05
-3.86487e-05
-5.2537e-05
-4.11505e-05
-5.3252e-05
-4.81455e-05
-5.08254e-05
-4.81748e-05
-4.73588e-05
-4.5136e-05
-4.31677e-05
-4.0946e-05
-3.87689e-05
-3.65347e-05
-3.44446e-05
-3.23349e-05
-3.04371e-05
-2.85687e-05
-2.68425e-05
-2.52452e-05
-2.37483e-05
-2.23861e-05
-2.11344e-05
-1.9988e-05
-1.89617e-05
-1.80196e-05
-1.71768e-05
-1.6432e-05
-1.57505e-05
-1.5151e-05
-1.4616e-05
-1.41361e-05
-1.37179e-05
-1.33429e-05
-1.30159e-05
-1.27277e-05
-1.24722e-05
-1.22448e-05
-1.20487e-05
-1.18697e-05
-1.17172e-05
-1.15834e-05
-1.1463e-05
-1.13649e-05
-1.127e-05
-1.11967e-05
-1.11221e-05
-1.10675e-05
-1.10052e-05
-1.09708e-05
-1.09416e-05
-1.09214e-05
-1.08946e-05
-1.088e-05
-1.08593e-05
-1.08503e-05
-1.08371e-05
-1.08305e-05
-1.08141e-05
-1.08115e-05
-1.08001e-05
-1.07986e-05
-1.07875e-05
-1.07862e-05
-1.07772e-05
-1.07752e-05
-1.07659e-05
-1.07628e-05
-1.07513e-05
-1.0744e-05
-1.07329e-05
-1.07255e-05
-1.07097e-05
-1.06963e-05
-1.06776e-05
-1.06632e-05
-1.06496e-05
-1.063e-05
-1.06071e-05
-1.05825e-05
-1.05564e-05
-1.0526e-05
-1.04922e-05
-1.04561e-05
-1.0419e-05
-1.03764e-05
-1.03388e-05
-1.02892e-05
-1.02506e-05
-1.01916e-05
-1.01625e-05
-1.00843e-05
-1.00909e-05
-9.9812e-06
-1.0075e-05
-9.85868e-06
-1.02417e-05
-9.64884e-06
-1.20187e-05
-1.12216e-05
1.65655e-05
-1.38724e-05
-1.56492e-05
-3.83682e-05
-5.22121e-05
-4.10608e-05
-5.30906e-05
-4.80763e-05
-5.07431e-05
-4.81357e-05
-4.73246e-05
-4.51207e-05
-4.31594e-05
-4.09457e-05
-3.87732e-05
-3.65423e-05
-3.44543e-05
-3.23461e-05
-3.04484e-05
-2.85805e-05
-2.68539e-05
-2.52562e-05
-2.37587e-05
-2.23957e-05
-2.11433e-05
-1.99962e-05
-1.8969e-05
-1.80262e-05
-1.71827e-05
-1.64372e-05
-1.57552e-05
-1.51551e-05
-1.46197e-05
-1.41394e-05
-1.37208e-05
-1.33456e-05
-1.30179e-05
-1.27294e-05
-1.24737e-05
-1.22462e-05
-1.20499e-05
-1.18709e-05
-1.17182e-05
-1.15841e-05
-1.14638e-05
-1.13651e-05
-1.12705e-05
-1.11965e-05
-1.11221e-05
-1.10673e-05
-1.10052e-05
-1.09703e-05
-1.09412e-05
-1.09208e-05
-1.08942e-05
-1.08792e-05
-1.08589e-05
-1.08494e-05
-1.08364e-05
-1.08295e-05
-1.08135e-05
-1.08106e-05
-1.07995e-05
-1.07976e-05
-1.07868e-05
-1.07853e-05
-1.07765e-05
-1.07743e-05
-1.07652e-05
-1.07618e-05
-1.07505e-05
-1.0743e-05
-1.0732e-05
-1.07246e-05
-1.0709e-05
-1.06955e-05
-1.0677e-05
-1.06625e-05
-1.06489e-05
-1.06293e-05
-1.06064e-05
-1.05819e-05
-1.05557e-05
-1.05255e-05
-1.04917e-05
-1.04557e-05
-1.04186e-05
-1.03761e-05
-1.03385e-05
-1.0289e-05
-1.02504e-05
-1.01915e-05
-1.01626e-05
-1.00844e-05
-1.00912e-05
-9.98119e-06
-1.00759e-05
-9.85911e-06
-1.02452e-05
-9.65124e-06
-1.19915e-05
-1.07431e-05
1.64493e-05
-1.38901e-05
-1.57014e-05
-3.80506e-05
-5.18502e-05
-4.09613e-05
-5.29109e-05
-4.80004e-05
-5.06522e-05
-4.80925e-05
-4.72866e-05
-4.51035e-05
-4.31497e-05
-4.09448e-05
-3.87774e-05
-3.655e-05
-3.44643e-05
-3.23578e-05
-3.04603e-05
-2.85928e-05
-2.68658e-05
-2.52678e-05
-2.37697e-05
-2.24057e-05
-2.11527e-05
-2.00047e-05
-1.89768e-05
-1.80332e-05
-1.7189e-05
-1.64427e-05
-1.57601e-05
-1.51594e-05
-1.46236e-05
-1.41429e-05
-1.37239e-05
-1.33483e-05
-1.30201e-05
-1.27312e-05
-1.24752e-05
-1.22475e-05
-1.2051e-05
-1.1872e-05
-1.17191e-05
-1.15847e-05
-1.14645e-05
-1.13653e-05
-1.12709e-05
-1.11964e-05
-1.1122e-05
-1.1067e-05
-1.10052e-05
-1.09698e-05
-1.09408e-05
-1.092e-05
-1.08937e-05
-1.08784e-05
-1.08584e-05
-1.08485e-05
-1.08356e-05
-1.08284e-05
-1.08129e-05
-1.08095e-05
-1.07987e-05
-1.07966e-05
-1.07861e-05
-1.07842e-05
-1.07757e-05
-1.07733e-05
-1.07644e-05
-1.07607e-05
-1.07497e-05
-1.07418e-05
-1.0731e-05
-1.07236e-05
-1.07083e-05
-1.06945e-05
-1.06763e-05
-1.06618e-05
-1.06481e-05
-1.06285e-05
-1.06058e-05
-1.05812e-05
-1.05551e-05
-1.05248e-05
-1.04913e-05
-1.04552e-05
-1.04182e-05
-1.03758e-05
-1.03382e-05
-1.02888e-05
-1.02502e-05
-1.01913e-05
-1.01627e-05
-1.00846e-05
-1.00915e-05
-9.98115e-06
-1.00768e-05
-9.85955e-06
-1.02488e-05
-9.65385e-06
-1.19628e-05
-1.01955e-05
1.63158e-05
-1.38786e-05
-1.57367e-05
-3.76894e-05
-5.14452e-05
-4.08502e-05
-5.27102e-05
-4.79168e-05
-5.05514e-05
-4.80449e-05
-4.72445e-05
-4.50844e-05
-4.31386e-05
-4.09434e-05
-3.87815e-05
-3.65581e-05
-3.44748e-05
-3.23702e-05
-3.0473e-05
-2.8606e-05
-2.68786e-05
-2.52802e-05
-2.37815e-05
-2.24166e-05
-2.11628e-05
-2.0014e-05
-1.89852e-05
-1.80409e-05
-1.71958e-05
-1.64488e-05
-1.57655e-05
-1.51642e-05
-1.46279e-05
-1.41468e-05
-1.37273e-05
-1.33513e-05
-1.30225e-05
-1.27333e-05
-1.2477e-05
-1.22491e-05
-1.20524e-05
-1.18733e-05
-1.17203e-05
-1.15855e-05
-1.14653e-05
-1.13656e-05
-1.12714e-05
-1.11963e-05
-1.11221e-05
-1.10668e-05
-1.10053e-05
-1.09694e-05
-1.09404e-05
-1.09193e-05
-1.08932e-05
-1.08776e-05
-1.08579e-05
-1.08476e-05
-1.08349e-05
-1.08274e-05
-1.08123e-05
-1.08085e-05
-1.07981e-05
-1.07956e-05
-1.07855e-05
-1.07832e-05
-1.0775e-05
-1.07723e-05
-1.07636e-05
-1.07597e-05
-1.07489e-05
-1.07408e-05
-1.07301e-05
-1.07226e-05
-1.07076e-05
-1.06937e-05
-1.06757e-05
-1.06611e-05
-1.06474e-05
-1.06278e-05
-1.06052e-05
-1.05806e-05
-1.05545e-05
-1.05243e-05
-1.04909e-05
-1.04549e-05
-1.04179e-05
-1.03756e-05
-1.0338e-05
-1.02886e-05
-1.025e-05
-1.01913e-05
-1.01628e-05
-1.00848e-05
-1.00919e-05
-9.98123e-06
-1.00779e-05
-9.86006e-06
-1.02526e-05
-9.65677e-06
-1.19327e-05
-9.57035e-06
1.61643e-05
-1.38309e-05
-1.57506e-05
-3.72773e-05
-5.099e-05
-4.07249e-05
-5.24846e-05
-4.78238e-05
-5.04389e-05
-4.79917e-05
-4.71974e-05
-4.50626e-05
-4.31257e-05
-4.09411e-05
-3.87852e-05
-3.65662e-05
-3.44856e-05
-3.23831e-05
-3.04862e-05
-2.86198e-05
-2.6892e-05
-2.52932e-05
-2.37939e-05
-2.2428e-05
-2.11735e-05
-2.00237e-05
-1.89941e-05
-1.80489e-05
-1.72029e-05
-1.64551e-05
-1.57712e-05
-1.51692e-05
-1.46323e-05
-1.41508e-05
-1.37308e-05
-1.33544e-05
-1.3025e-05
-1.27355e-05
-1.24788e-05
-1.22507e-05
-1.20537e-05
-1.18746e-05
-1.17214e-05
-1.15862e-05
-1.14662e-05
-1.13659e-05
-1.12718e-05
-1.11962e-05
-1.11221e-05
-1.10666e-05
-1.10052e-05
-1.09689e-05
-1.094e-05
-1.09186e-05
-1.08927e-05
-1.08768e-05
-1.08573e-05
-1.08466e-05
-1.08341e-05
-1.08263e-05
-1.08116e-05
-1.08075e-05
-1.07973e-05
-1.07946e-05
-1.07847e-05
-1.07822e-05
-1.07742e-05
-1.07713e-05
-1.07627e-05
-1.07586e-05
-1.07481e-05
-1.07397e-05
-1.07292e-05
-1.07216e-05
-1.07068e-05
-1.06928e-05
-1.06751e-05
-1.06604e-05
-1.06466e-05
-1.0627e-05
-1.06045e-05
-1.05799e-05
-1.05538e-05
-1.05237e-05
-1.04904e-05
-1.04545e-05
-1.04176e-05
-1.03753e-05
-1.03377e-05
-1.02884e-05
-1.02499e-05
-1.01912e-05
-1.0163e-05
-1.0085e-05
-1.00924e-05
-9.98129e-06
-1.00791e-05
-9.8606e-06
-1.02564e-05
-9.65994e-06
-1.19009e-05
-8.8572e-06
1.59946e-05
-1.37391e-05
-1.57379e-05
-3.68062e-05
-5.04766e-05
-4.05823e-05
-5.223e-05
-4.77197e-05
-5.03129e-05
-4.79322e-05
-4.71445e-05
-4.5038e-05
-4.31106e-05
-4.0938e-05
-3.87887e-05
-3.65745e-05
-3.4497e-05
-3.23967e-05
-3.05003e-05
-2.86346e-05
-2.69063e-05
-2.53072e-05
-2.38072e-05
-2.24403e-05
-2.1185e-05
-2.00342e-05
-1.90036e-05
-1.80576e-05
-1.72107e-05
-1.64621e-05
-1.57774e-05
-1.51747e-05
-1.46373e-05
-1.41553e-05
-1.37347e-05
-1.33579e-05
-1.30279e-05
-1.27379e-05
-1.2481e-05
-1.22525e-05
-1.20553e-05
-1.18762e-05
-1.17226e-05
-1.15872e-05
-1.14671e-05
-1.13663e-05
-1.12724e-05
-1.11963e-05
-1.11222e-05
-1.10665e-05
-1.10053e-05
-1.09686e-05
-1.09397e-05
-1.0918e-05
-1.08923e-05
-1.0876e-05
-1.08569e-05
-1.08458e-05
-1.08334e-05
-1.08253e-05
-1.0811e-05
-1.08065e-05
-1.07966e-05
-1.07936e-05
-1.0784e-05
-1.07812e-05
-1.07734e-05
-1.07703e-05
-1.07619e-05
-1.07576e-05
-1.07473e-05
-1.07386e-05
-1.07283e-05
-1.07207e-05
-1.07061e-05
-1.0692e-05
-1.06745e-05
-1.06598e-05
-1.06459e-05
-1.06263e-05
-1.06039e-05
-1.05793e-05
-1.05533e-05
-1.05232e-05
-1.04901e-05
-1.04541e-05
-1.04173e-05
-1.03751e-05
-1.03375e-05
-1.02883e-05
-1.02499e-05
-1.01912e-05
-1.01632e-05
-1.00853e-05
-1.00929e-05
-9.98146e-06
-1.00804e-05
-9.86123e-06
-1.02604e-05
-9.66347e-06
-1.18676e-05
-8.0467e-06
1.58075e-05
-1.35943e-05
-1.56924e-05
-3.62673e-05
-4.98956e-05
-4.04181e-05
-5.19408e-05
-4.76017e-05
-5.01709e-05
-4.78648e-05
-4.70846e-05
-4.50096e-05
-4.30928e-05
-4.09335e-05
-3.87914e-05
-3.65826e-05
-3.45085e-05
-3.24107e-05
-3.05148e-05
-2.86499e-05
-2.69213e-05
-2.53218e-05
-2.38211e-05
-2.24532e-05
-2.11971e-05
-2.00453e-05
-1.90137e-05
-1.80667e-05
-1.72189e-05
-1.64693e-05
-1.57839e-05
-1.51805e-05
-1.46424e-05
-1.41599e-05
-1.37388e-05
-1.33615e-05
-1.30308e-05
-1.27405e-05
-1.24831e-05
-1.22544e-05
-1.2057e-05
-1.18777e-05
-1.17239e-05
-1.15881e-05
-1.1468e-05
-1.13668e-05
-1.12729e-05
-1.11963e-05
-1.11223e-05
-1.10663e-05
-1.10054e-05
-1.09683e-05
-1.09393e-05
-1.09174e-05
-1.08918e-05
-1.08752e-05
-1.08563e-05
-1.08449e-05
-1.08326e-05
-1.08243e-05
-1.08103e-05
-1.08055e-05
-1.07958e-05
-1.07925e-05
-1.07832e-05
-1.07802e-05
-1.07726e-05
-1.07692e-05
-1.07611e-05
-1.07565e-05
-1.07464e-05
-1.07376e-05
-1.07274e-05
-1.07197e-05
-1.07054e-05
-1.06912e-05
-1.06739e-05
-1.06591e-05
-1.06452e-05
-1.06255e-05
-1.06033e-05
-1.05787e-05
-1.05527e-05
-1.05226e-05
-1.04897e-05
-1.04538e-05
-1.0417e-05
-1.03749e-05
-1.03373e-05
-1.02881e-05
-1.02498e-05
-1.01912e-05
-1.01635e-05
-1.00856e-05
-1.00935e-05
-9.98164e-06
-1.00817e-05
-9.8619e-06
-1.02645e-05
-9.66731e-06
-1.18327e-05
-7.12839e-06
1.56043e-05
-1.33866e-05
-1.56077e-05
-3.56511e-05
-4.92368e-05
-4.02275e-05
-5.16111e-05
-4.74671e-05
-5.001e-05
-4.7788e-05
-4.70166e-05
-4.4977e-05
-4.3072e-05
-4.09275e-05
-3.87934e-05
-3.65907e-05
-3.45204e-05