/*--------------------------------*- C++ -*----------------------------------*\
| =========                 |                                                 |
| \\      /  F ield         | OpenFOAM: The Open Source CFD Toolbox           |
|  \\    /   O peration     | Version:  5.x                                   |
|   \\  /    A nd           | Web:      www.OpenFOAM.org                      |
|    \\/     M anipulation  |                                                 |
\*---------------------------------------------------------------------------*/
FoamFile
{
    version     2.0;
    format      ascii;
    class       volScalarField;
    location    "2500";
    object      p;
}
// * * * * * * * * * * * * * * * * * * * * * * * * * * * * * * * * * * * * * //

dimensions      [0 2 -2 0 0 0 0];

internalField   nonuniform List<scalar> 
107912
(
2.10217e-05
4.8011e-05
1.91948e-05
8.91944e-06
-2.46332e-05
-5.17233e-05
-4.18807e-05
-6.50606e-05
-6.56964e-05
-7.54584e-05
-7.833e-05
-8.25033e-05
-8.47552e-05
-8.64312e-05
-8.74562e-05
-8.80224e-05
-8.79451e-05
-8.7811e-05
-8.70911e-05
-8.62926e-05
-8.52698e-05
-8.39696e-05
-8.26386e-05
-8.11343e-05
-7.9486e-05
-7.78307e-05
-7.60539e-05
-7.42415e-05
-7.24171e-05
-7.05314e-05
-6.86822e-05
-6.68261e-05
-6.49739e-05
-6.31871e-05
-6.14218e-05
-5.97111e-05
-5.80809e-05
-5.65039e-05
-5.50237e-05
-5.3617e-05
-5.23014e-05
-5.10789e-05
-4.99429e-05
-4.89054e-05
-4.79501e-05
-4.70864e-05
-4.63014e-05
-4.55985e-05
-4.49638e-05
-4.44002e-05
-4.38961e-05
-4.34517e-05
-4.30925e-05
-4.28047e-05
-4.25479e-05
-4.23219e-05
-4.21142e-05
-4.19383e-05
-4.17686e-05
-4.16232e-05
-4.14858e-05
-4.13693e-05
-4.12549e-05
-4.11567e-05
-4.10611e-05
-4.09793e-05
-4.0898e-05
-4.08301e-05
-4.07622e-05
-4.07041e-05
-4.06484e-05
-4.06016e-05
-4.05583e-05
-4.05211e-05
-4.0486e-05
-4.04524e-05
-4.04228e-05
-4.03988e-05
-4.03728e-05
-4.03465e-05
-4.03213e-05
-4.02958e-05
-4.02701e-05
-4.02415e-05
-4.0213e-05
-4.01807e-05
-4.01463e-05
-4.01072e-05
-4.00642e-05
-4.00158e-05
-3.99603e-05
-3.99064e-05
-3.98363e-05
-3.97836e-05
-3.96946e-05
-3.96612e-05
-3.95336e-05
-3.95834e-05
-3.93915e-05
-3.96727e-05
-3.92645e-05
-4.15899e-05
2.96242e-05
4.79667e-05
1.90795e-05
8.81644e-06
-2.45592e-05
-5.16028e-05
-4.18427e-05
-6.49854e-05
-6.56445e-05
-7.54032e-05
-7.82893e-05
-8.24671e-05
-8.47274e-05
-8.64091e-05
-8.74387e-05
-8.80095e-05
-8.79355e-05
-8.78041e-05
-8.70869e-05
-8.62899e-05
-8.52688e-05
-8.39699e-05
-8.26397e-05
-8.11364e-05
-7.94888e-05
-7.78338e-05
-7.60575e-05
-7.42453e-05
-7.2421e-05
-7.05356e-05
-6.86863e-05
-6.68302e-05
-6.4978e-05
-6.31911e-05
-6.14257e-05
-5.97148e-05
-5.80843e-05
-5.65073e-05
-5.50268e-05
-5.36199e-05
-5.23041e-05
-5.10814e-05
-4.99452e-05
-4.89075e-05
-4.79521e-05
-4.70881e-05
-4.63031e-05
-4.55999e-05
-4.49651e-05
-4.44014e-05
-4.38971e-05
-4.34527e-05
-4.30934e-05
-4.28055e-05
-4.25487e-05
-4.23225e-05
-4.21149e-05
-4.19388e-05
-4.17691e-05
-4.16237e-05
-4.14863e-05
-4.13697e-05
-4.12552e-05
-4.1157e-05
-4.10614e-05
-4.09795e-05
-4.08983e-05
-4.08303e-05
-4.07624e-05
-4.07043e-05
-4.06486e-05
-4.06017e-05
-4.05585e-05
-4.05213e-05
-4.04861e-05
-4.04526e-05
-4.0423e-05
-4.03989e-05
-4.03729e-05
-4.03466e-05
-4.03213e-05
-4.02959e-05
-4.02701e-05
-4.02415e-05
-4.0213e-05
-4.01808e-05
-4.01463e-05
-4.01073e-05
-4.00642e-05
-4.00159e-05
-3.99604e-05
-3.99066e-05
-3.98365e-05
-3.97838e-05
-3.96948e-05
-3.96615e-05
-3.9534e-05
-3.95839e-05
-3.9392e-05
-3.96742e-05
-3.92651e-05
-4.15122e-05
3.07849e-05
4.79136e-05
1.89471e-05
8.69835e-06
-2.44795e-05
-5.14645e-05
-4.17995e-05
-6.4904e-05
-6.55857e-05
-7.53419e-05
-7.82429e-05
-8.24261e-05
-8.46953e-05
-8.63835e-05
-8.74181e-05
-8.79939e-05
-8.79236e-05
-8.77952e-05
-8.7081e-05
-8.62857e-05
-8.52665e-05
-8.39692e-05
-8.26398e-05
-8.11376e-05
-7.94909e-05
-7.78362e-05
-7.60606e-05
-7.42486e-05
-7.24245e-05
-7.05393e-05
-6.86901e-05
-6.68341e-05
-6.49819e-05
-6.31948e-05
-6.14294e-05
-5.97184e-05
-5.80877e-05
-5.65106e-05
-5.50299e-05
-5.36228e-05
-5.23068e-05
-5.1084e-05
-4.99475e-05
-4.89096e-05
-4.79541e-05
-4.70899e-05
-4.63048e-05
-4.56013e-05
-4.49666e-05
-4.44026e-05
-4.38983e-05
-4.34536e-05
-4.30944e-05
-4.28063e-05
-4.25495e-05
-4.23232e-05
-4.21156e-05
-4.19393e-05
-4.17697e-05
-4.16242e-05
-4.14868e-05
-4.13701e-05
-4.12557e-05
-4.11573e-05
-4.10618e-05
-4.09798e-05
-4.08986e-05
-4.08306e-05
-4.07627e-05
-4.07046e-05
-4.06489e-05
-4.0602e-05
-4.05588e-05
-4.05215e-05
-4.04863e-05
-4.04527e-05
-4.04231e-05
-4.03991e-05
-4.0373e-05
-4.03468e-05
-4.03214e-05
-4.0296e-05
-4.02702e-05
-4.02416e-05
-4.02131e-05
-4.01808e-05
-4.01464e-05
-4.01074e-05
-4.00643e-05
-4.0016e-05
-3.99605e-05
-3.99068e-05
-3.98367e-05
-3.97841e-05
-3.96951e-05
-3.96619e-05
-3.95344e-05
-3.95846e-05
-3.93925e-05
-3.96761e-05
-3.92663e-05
-4.14963e-05
3.03149e-05
4.78577e-05
1.88136e-05
8.57718e-06
-2.43996e-05
-5.13225e-05
-4.17551e-05
-6.48202e-05
-6.55256e-05
-7.52788e-05
-7.81953e-05
-8.23839e-05
-8.46623e-05
-8.6357e-05
-8.73967e-05
-8.79778e-05
-8.79113e-05
-8.77859e-05
-8.70748e-05
-8.62812e-05
-8.5264e-05
-8.39683e-05
-8.26398e-05
-8.11387e-05
-7.94929e-05
-7.78386e-05
-7.60637e-05
-7.42519e-05
-7.2428e-05
-7.05431e-05
-6.86939e-05
-6.6838e-05
-6.49858e-05
-6.31986e-05
-6.14331e-05
-5.97221e-05
-5.80911e-05
-5.6514e-05
-5.50331e-05
-5.36257e-05
-5.23096e-05
-5.10866e-05
-4.99499e-05
-4.89118e-05
-4.79562e-05
-4.70917e-05
-4.63066e-05
-4.56028e-05
-4.49681e-05
-4.44039e-05
-4.38994e-05
-4.34546e-05
-4.30955e-05
-4.28071e-05
-4.25504e-05
-4.23239e-05
-4.21163e-05
-4.19399e-05
-4.17703e-05
-4.16247e-05
-4.14873e-05
-4.13705e-05
-4.12561e-05
-4.11577e-05
-4.10622e-05
-4.09801e-05
-4.0899e-05
-4.08309e-05
-4.0763e-05
-4.07048e-05
-4.06492e-05
-4.06022e-05
-4.0559e-05
-4.05217e-05
-4.04865e-05
-4.04529e-05
-4.04233e-05
-4.03992e-05
-4.03732e-05
-4.03469e-05
-4.03215e-05
-4.02961e-05
-4.02703e-05
-4.02418e-05
-4.02132e-05
-4.01809e-05
-4.01465e-05
-4.01076e-05
-4.00644e-05
-4.00162e-05
-3.99607e-05
-3.9907e-05
-3.98369e-05
-3.97844e-05
-3.96954e-05
-3.96623e-05
-3.95349e-05
-3.95853e-05
-3.93931e-05
-3.9678e-05
-3.92676e-05
-4.14893e-05
3.01784e-05
4.77975e-05
1.86759e-05
8.45025e-06
-2.43162e-05
-5.11727e-05
-4.1708e-05
-6.47308e-05
-6.54622e-05
-7.52117e-05
-7.81447e-05
-8.2339e-05
-8.46272e-05
-8.63288e-05
-8.73741e-05
-8.79607e-05
-8.78981e-05
-8.7776e-05
-8.70682e-05
-8.62766e-05
-8.52614e-05
-8.39674e-05
-8.26399e-05
-8.11399e-05
-7.94951e-05
-7.78412e-05
-7.6067e-05
-7.42555e-05
-7.24319e-05
-7.05472e-05
-6.86981e-05
-6.68422e-05
-6.499e-05
-6.32027e-05
-6.14371e-05
-5.97261e-05
-5.80948e-05
-5.65176e-05
-5.50365e-05
-5.36289e-05
-5.23126e-05
-5.10893e-05
-4.99525e-05
-4.89141e-05
-4.79584e-05
-4.70936e-05
-4.63085e-05
-4.56044e-05
-4.49698e-05
-4.44053e-05
-4.39007e-05
-4.34556e-05
-4.30966e-05
-4.2808e-05
-4.25515e-05
-4.23247e-05
-4.21172e-05
-4.19405e-05
-4.17711e-05
-4.16252e-05
-4.1488e-05
-4.13709e-05
-4.12567e-05
-4.11581e-05
-4.10627e-05
-4.09805e-05
-4.08994e-05
-4.08312e-05
-4.07634e-05
-4.07051e-05
-4.06496e-05
-4.06025e-05
-4.05594e-05
-4.0522e-05
-4.04867e-05
-4.04531e-05
-4.04236e-05
-4.03994e-05
-4.03733e-05
-4.03471e-05
-4.03217e-05
-4.02962e-05
-4.02704e-05
-4.02419e-05
-4.02133e-05
-4.01811e-05
-4.01466e-05
-4.01077e-05
-4.00645e-05
-4.00164e-05
-3.99609e-05
-3.99073e-05
-3.98372e-05
-3.97847e-05
-3.96957e-05
-3.96628e-05
-3.95355e-05
-3.9586e-05
-3.93937e-05
-3.968e-05
-3.92689e-05
-4.14785e-05
3.02405e-05
4.77313e-05
1.85326e-05
8.31619e-06
-2.42276e-05
-5.10123e-05
-4.16573e-05
-6.46341e-05
-6.53945e-05
-7.51394e-05
-7.80906e-05
-8.22908e-05
-8.45895e-05
-8.62986e-05
-8.73497e-05
-8.79423e-05
-8.78841e-05
-8.77654e-05
-8.70612e-05
-8.62716e-05
-8.52586e-05
-8.39664e-05
-8.26399e-05
-8.11413e-05
-7.94976e-05
-7.7844e-05
-7.60707e-05
-7.42593e-05
-7.2436e-05
-7.05517e-05
-6.87026e-05
-6.68467e-05
-6.49946e-05
-6.32071e-05
-6.14415e-05
-5.97304e-05
-5.80987e-05
-5.65216e-05
-5.50401e-05
-5.36324e-05
-5.23158e-05
-5.10924e-05
-4.99553e-05
-4.89167e-05
-4.79609e-05
-4.70956e-05
-4.63107e-05
-4.56061e-05
-4.49716e-05
-4.44068e-05
-4.39021e-05
-4.34568e-05
-4.30979e-05
-4.2809e-05
-4.25526e-05
-4.23256e-05
-4.21181e-05
-4.19412e-05
-4.17719e-05
-4.16259e-05
-4.14887e-05
-4.13714e-05
-4.12573e-05
-4.11585e-05
-4.10632e-05
-4.09809e-05
-4.08999e-05
-4.08316e-05
-4.07638e-05
-4.07054e-05
-4.065e-05
-4.06027e-05
-4.05597e-05
-4.05222e-05
-4.0487e-05
-4.04534e-05
-4.04238e-05
-4.03996e-05
-4.03735e-05
-4.03473e-05
-4.03218e-05
-4.02964e-05
-4.02706e-05
-4.02421e-05
-4.02134e-05
-4.01812e-05
-4.01467e-05
-4.01079e-05
-4.00647e-05
-4.00166e-05
-3.99611e-05
-3.99076e-05
-3.98375e-05
-3.9785e-05
-3.9696e-05
-3.96633e-05
-3.95361e-05
-3.95868e-05
-3.93944e-05
-3.96821e-05
-3.92704e-05
-4.14655e-05
3.03128e-05
4.76585e-05
1.83838e-05
8.17524e-06
-2.4133e-05
-5.08402e-05
-4.16028e-05
-6.45296e-05
-6.53221e-05
-7.50616e-05
-7.80324e-05
-8.22389e-05
-8.4549e-05
-8.6266e-05
-8.73235e-05
-8.79225e-05
-8.78689e-05
-8.7754e-05
-8.70536e-05
-8.62661e-05
-8.52556e-05
-8.39654e-05
-8.264e-05
-8.11427e-05
-7.95002e-05
-7.7847e-05
-7.60746e-05
-7.42635e-05
-7.24404e-05
-7.05564e-05
-6.87074e-05
-6.68516e-05
-6.49995e-05
-6.32119e-05
-6.14462e-05
-5.9735e-05
-5.8103e-05
-5.65258e-05
-5.5044e-05
-5.36361e-05
-5.23192e-05
-5.10956e-05
-4.99583e-05
-4.89194e-05
-4.79635e-05
-4.70978e-05
-4.63129e-05
-4.56079e-05
-4.49735e-05
-4.44084e-05
-4.39036e-05
-4.3458e-05
-4.30993e-05
-4.28101e-05
-4.25538e-05
-4.23265e-05
-4.21191e-05
-4.19419e-05
-4.17727e-05
-4.16265e-05
-4.14894e-05
-4.13719e-05
-4.12579e-05
-4.1159e-05
-4.10638e-05
-4.09813e-05
-4.09004e-05
-4.08319e-05
-4.07643e-05
-4.07058e-05
-4.06504e-05
-4.06031e-05
-4.05601e-05
-4.05226e-05
-4.04873e-05
-4.04536e-05
-4.04241e-05
-4.03999e-05
-4.03737e-05
-4.03475e-05
-4.03219e-05
-4.02966e-05
-4.02707e-05
-4.02423e-05
-4.02135e-05
-4.01814e-05
-4.01469e-05
-4.01081e-05
-4.00648e-05
-4.00168e-05
-3.99613e-05
-3.99079e-05
-3.98378e-05
-3.97854e-05
-3.96964e-05
-3.96639e-05
-3.95367e-05
-3.95877e-05
-3.93951e-05
-3.96844e-05
-3.92719e-05
-4.14518e-05
3.03763e-05
4.75785e-05
1.82302e-05
8.02795e-06
-2.40314e-05
-5.06549e-05
-4.15443e-05
-6.44165e-05
-6.52448e-05
-7.49778e-05
-7.797e-05
-8.2183e-05
-8.45055e-05
-8.62309e-05
-8.72954e-05
-8.79012e-05
-8.78526e-05
-8.77418e-05
-8.70455e-05
-8.62603e-05
-8.52524e-05
-8.39643e-05
-8.26401e-05
-8.11443e-05
-7.9503e-05
-7.78502e-05
-7.60789e-05
-7.4268e-05
-7.24452e-05
-7.05616e-05
-6.87126e-05
-6.68568e-05
-6.50048e-05
-6.3217e-05
-6.14512e-05
-5.974e-05
-5.81075e-05
-5.65304e-05
-5.50483e-05
-5.36401e-05
-5.2323e-05
-5.10991e-05
-4.99615e-05
-4.89223e-05
-4.79663e-05
-4.71002e-05
-4.63154e-05
-4.56099e-05
-4.49756e-05
-4.44101e-05
-4.39052e-05
-4.34593e-05
-4.31007e-05
-4.28113e-05
-4.2555e-05
-4.23275e-05
-4.21202e-05
-4.19427e-05
-4.17737e-05
-4.16273e-05
-4.14902e-05
-4.13725e-05
-4.12586e-05
-4.11595e-05
-4.10644e-05
-4.09817e-05
-4.09009e-05
-4.08323e-05
-4.07647e-05
-4.07062e-05
-4.06508e-05
-4.06034e-05
-4.05605e-05
-4.05229e-05
-4.04875e-05
-4.0454e-05
-4.04244e-05
-4.04002e-05
-4.03739e-05
-4.03477e-05
-4.03221e-05
-4.02968e-05
-4.02708e-05
-4.02425e-05
-4.02136e-05
-4.01816e-05
-4.0147e-05
-4.01083e-05
-4.0065e-05
-4.00171e-05
-3.99615e-05
-3.99083e-05
-3.98381e-05
-3.97858e-05
-3.96968e-05
-3.96645e-05
-3.95374e-05
-3.95886e-05
-3.93959e-05
-3.96868e-05
-3.92736e-05
-4.14374e-05
3.04445e-05
4.74906e-05
1.80726e-05
7.875e-06
-2.39212e-05
-5.04547e-05
-4.14813e-05
-6.42939e-05
-6.5162e-05
-7.48874e-05
-7.7903e-05
-8.21228e-05
-8.44587e-05
-8.61931e-05
-8.7265e-05
-8.78782e-05
-8.7835e-05
-8.77286e-05
-8.70366e-05
-8.62541e-05
-8.52489e-05
-8.39631e-05
-8.26402e-05
-8.11459e-05
-7.9506e-05
-7.78537e-05
-7.60834e-05
-7.42728e-05
-7.24503e-05
-7.05671e-05
-6.87181e-05
-6.68625e-05
-6.50105e-05
-6.32225e-05
-6.14566e-05
-5.97453e-05
-5.81125e-05
-5.65352e-05
-5.50528e-05
-5.36444e-05
-5.23269e-05
-5.11029e-05
-4.9965e-05
-4.89255e-05
-4.79693e-05
-4.71028e-05
-4.6318e-05
-4.5612e-05
-4.49779e-05
-4.4412e-05
-4.3907e-05
-4.34607e-05
-4.31022e-05
-4.28125e-05
-4.25564e-05
-4.23286e-05
-4.21213e-05
-4.19435e-05
-4.17746e-05
-4.16281e-05
-4.14911e-05
-4.13731e-05
-4.12593e-05
-4.116e-05
-4.1065e-05
-4.09822e-05
-4.09015e-05
-4.08328e-05
-4.07652e-05
-4.07066e-05
-4.06513e-05
-4.06038e-05
-4.0561e-05
-4.05233e-05
-4.04879e-05
-4.04543e-05
-4.04247e-05
-4.04005e-05
-4.03741e-05
-4.0348e-05
-4.03222e-05
-4.0297e-05
-4.0271e-05
-4.02427e-05
-4.02138e-05
-4.01818e-05
-4.01472e-05
-4.01086e-05
-4.00652e-05
-4.00174e-05
-3.99618e-05
-3.99087e-05
-3.98384e-05
-3.97863e-05
-3.96972e-05
-3.96652e-05
-3.95382e-05
-3.95896e-05
-3.93967e-05
-3.96894e-05
-3.92755e-05
-4.14222e-05
3.05232e-05
4.73938e-05
1.79117e-05
7.71726e-06
-2.38005e-05
-5.02375e-05
-4.14137e-05
-6.41605e-05
-6.50732e-05
-7.47898e-05
-7.78309e-05
-8.20578e-05
-8.44083e-05
-8.61523e-05
-8.72324e-05
-8.78535e-05
-8.7816e-05
-8.77143e-05
-8.70271e-05
-8.62473e-05
-8.52451e-05
-8.39618e-05
-8.26402e-05
-8.11477e-05
-7.95092e-05
-7.78575e-05
-7.60882e-05
-7.42779e-05
-7.24558e-05
-7.0573e-05
-6.87241e-05
-6.68685e-05
-6.50165e-05
-6.32284e-05
-6.14624e-05
-5.9751e-05
-5.81177e-05
-5.65405e-05
-5.50577e-05
-5.3649e-05
-5.23312e-05
-5.11069e-05
-4.99687e-05
-4.89289e-05
-4.79725e-05
-4.71056e-05
-4.63208e-05
-4.56143e-05
-4.49803e-05
-4.4414e-05
-4.39088e-05
-4.34623e-05
-4.31039e-05
-4.28139e-05
-4.25579e-05
-4.23298e-05
-4.21226e-05
-4.19445e-05
-4.17757e-05
-4.16289e-05
-4.1492e-05
-4.13738e-05
-4.12601e-05
-4.11606e-05
-4.10657e-05
-4.09827e-05
-4.09021e-05
-4.08333e-05
-4.07658e-05
-4.0707e-05
-4.06518e-05
-4.06042e-05
-4.05614e-05
-4.05237e-05
-4.04882e-05
-4.04546e-05
-4.0425e-05
-4.04008e-05
-4.03744e-05
-4.03482e-05
-4.03224e-05
-4.02972e-05
-4.02712e-05
-4.0243e-05
-4.02139e-05
-4.0182e-05
-4.01473e-05
-4.01088e-05
-4.00653e-05
-4.00177e-05
-3.99621e-05
-3.99091e-05
-3.98388e-05
-3.97867e-05
-3.96977e-05
-3.96659e-05
-3.9539e-05
-3.95907e-05
-3.93976e-05
-3.96921e-05
-3.92775e-05
-4.1406e-05
3.06136e-05
4.72872e-05
1.77489e-05
7.55595e-06
-2.3667e-05
-5.00005e-05
-4.13407e-05
-6.40149e-05
-6.49777e-05
-7.4684e-05
-7.77532e-05
-8.19876e-05
-8.4354e-05
-8.61083e-05
-8.71972e-05
-8.78267e-05
-8.77955e-05
-8.76989e-05
-8.70168e-05
-8.62399e-05
-8.5241e-05
-8.39603e-05
-8.26403e-05
-8.11495e-05
-7.95126e-05
-7.78615e-05
-7.60934e-05
-7.42834e-05
-7.24617e-05
-7.05793e-05
-6.87305e-05
-6.6875e-05
-6.50231e-05
-6.32347e-05
-6.14686e-05
-5.97571e-05
-5.81234e-05
-5.65461e-05
-5.50629e-05
-5.36539e-05
-5.23358e-05
-5.11112e-05
-4.99727e-05
-4.89325e-05
-4.7976e-05
-4.71086e-05
-4.63238e-05
-4.56168e-05
-4.49828e-05
-4.44161e-05
-4.39108e-05
-4.3464e-05
-4.31057e-05
-4.28154e-05
-4.25594e-05
-4.2331e-05
-4.21239e-05
-4.19455e-05
-4.17768e-05
-4.16299e-05
-4.1493e-05
-4.13745e-05
-4.12609e-05
-4.11613e-05
-4.10664e-05
-4.09833e-05
-4.09028e-05
-4.08338e-05
-4.07664e-05
-4.07075e-05
-4.06524e-05
-4.06047e-05
-4.05619e-05
-4.05241e-05
-4.04886e-05
-4.0455e-05
-4.04254e-05
-4.04011e-05
-4.03746e-05
-4.03485e-05
-4.03226e-05
-4.02974e-05
-4.02714e-05
-4.02432e-05
-4.02141e-05
-4.01822e-05
-4.01475e-05
-4.01091e-05
-4.00655e-05
-4.0018e-05
-3.99624e-05
-3.99095e-05
-3.98392e-05
-3.97872e-05
-3.96982e-05
-3.96666e-05
-3.95398e-05
-3.95918e-05
-3.93986e-05
-3.9695e-05
-3.92796e-05
-4.13889e-05
3.07181e-05
4.71698e-05
1.75855e-05
7.39256e-06
-2.35179e-05
-4.97408e-05
-4.12619e-05
-6.38556e-05
-6.48747e-05
-7.45693e-05
-7.76694e-05
-8.19116e-05
-8.42953e-05
-8.60606e-05
-8.71591e-05
-8.77977e-05
-8.77733e-05
-8.76823e-05
-8.70056e-05
-8.6232e-05
-8.52365e-05
-8.39586e-05
-8.26403e-05
-8.11515e-05
-7.95162e-05
-7.78658e-05
-7.60989e-05
-7.42893e-05
-7.24681e-05
-7.05861e-05
-6.87374e-05
-6.6882e-05
-6.50301e-05
-6.32415e-05
-6.14753e-05
-5.97636e-05
-5.81295e-05
-5.65521e-05
-5.50685e-05
-5.36592e-05
-5.23407e-05
-5.11158e-05
-4.9977e-05
-4.89364e-05
-4.79797e-05
-4.71118e-05
-4.6327e-05
-4.56195e-05
-4.49855e-05
-4.44185e-05
-4.3913e-05
-4.34658e-05
-4.31075e-05
-4.28169e-05
-4.25611e-05
-4.23324e-05
-4.21253e-05
-4.19465e-05
-4.1778e-05
-4.16308e-05
-4.1494e-05
-4.13753e-05
-4.12618e-05
-4.1162e-05
-4.10672e-05
-4.09839e-05
-4.09035e-05
-4.08343e-05
-4.0767e-05
-4.07081e-05
-4.0653e-05
-4.06052e-05
-4.05624e-05
-4.05246e-05
-4.0489e-05
-4.04554e-05
-4.04258e-05
-4.04014e-05
-4.03749e-05
-4.03488e-05
-4.03228e-05
-4.02977e-05
-4.02716e-05
-4.02434e-05
-4.02143e-05
-4.01824e-05
-4.01477e-05
-4.01093e-05
-4.00657e-05
-4.00183e-05
-3.99627e-05
-3.991e-05
-3.98397e-05
-3.97878e-05
-3.96988e-05
-3.96674e-05
-3.95407e-05
-3.95931e-05
-3.93996e-05
-3.9698e-05
-3.9282e-05
-4.13708e-05
3.08389e-05
4.70406e-05
1.74233e-05
7.22902e-06
-2.33496e-05
-4.94544e-05
-4.11764e-05
-6.36805e-05
-6.47631e-05
-7.44444e-05
-7.75785e-05
-8.18292e-05
-8.42317e-05
-8.60089e-05
-8.7118e-05
-8.77662e-05
-8.77493e-05
-8.76642e-05
-8.69934e-05
-8.62233e-05
-8.52316e-05
-8.39568e-05
-8.26402e-05
-8.11536e-05
-7.95199e-05
-7.78704e-05
-7.61047e-05
-7.42957e-05
-7.24748e-05
-7.05933e-05
-6.87447e-05
-6.68894e-05
-6.50375e-05
-6.32488e-05
-6.14825e-05
-5.97706e-05
-5.8136e-05
-5.65585e-05
-5.50745e-05
-5.36649e-05
-5.2346e-05
-5.11208e-05
-4.99816e-05
-4.89406e-05
-4.79836e-05
-4.71153e-05
-4.63304e-05
-4.56224e-05
-4.49884e-05
-4.44209e-05
-4.39153e-05
-4.34677e-05
-4.31095e-05
-4.28186e-05
-4.25628e-05
-4.23338e-05
-4.21267e-05
-4.19477e-05
-4.17793e-05
-4.16319e-05
-4.14951e-05
-4.13762e-05
-4.12627e-05
-4.11627e-05
-4.1068e-05
-4.09846e-05
-4.09042e-05
-4.08349e-05
-4.07676e-05
-4.07086e-05
-4.06536e-05
-4.06057e-05
-4.0563e-05
-4.0525e-05
-4.04894e-05
-4.04558e-05
-4.04262e-05
-4.04018e-05
-4.03752e-05
-4.03491e-05
-4.03231e-05
-4.02979e-05
-4.02718e-05
-4.02437e-05
-4.02145e-05
-4.01827e-05
-4.01479e-05
-4.01096e-05
-4.0066e-05
-4.00187e-05
-3.99631e-05
-3.99104e-05
-3.98401e-05
-3.97884e-05
-3.96993e-05
-3.96683e-05
-3.95416e-05
-3.95944e-05
-3.94007e-05
-3.97012e-05
-3.92845e-05
-4.13516e-05
3.09795e-05
4.68985e-05
1.72646e-05
7.06762e-06
-2.31583e-05
-4.9137e-05
-4.10833e-05
-6.34874e-05
-6.4642e-05
-7.4308e-05
-7.74798e-05
-8.17395e-05
-8.41627e-05
-8.59527e-05
-8.70733e-05
-8.7732e-05
-8.77232e-05
-8.76446e-05
-8.69801e-05
-8.62139e-05
-8.52262e-05
-8.39547e-05
-8.26401e-05
-8.11558e-05
-7.95239e-05
-7.78753e-05
-7.6111e-05
-7.43024e-05
-7.24821e-05
-7.06011e-05
-6.87526e-05
-6.68974e-05
-6.50456e-05
-6.32565e-05
-6.14902e-05
-5.97781e-05
-5.8143e-05
-5.65653e-05
-5.50809e-05
-5.36709e-05
-5.23516e-05
-5.11261e-05
-4.99865e-05
-4.89451e-05
-4.79878e-05
-4.7119e-05
-4.6334e-05
-4.56255e-05
-4.49914e-05
-4.44236e-05
-4.39178e-05
-4.34698e-05
-4.31116e-05
-4.28205e-05
-4.25647e-05
-4.23354e-05
-4.21283e-05
-4.1949e-05
-4.17806e-05
-4.1633e-05
-4.14963e-05
-4.13771e-05
-4.12637e-05
-4.11635e-05
-4.10688e-05
-4.09853e-05
-4.0905e-05
-4.08356e-05
-4.07683e-05
-4.07092e-05
-4.06542e-05
-4.06063e-05
-4.05636e-05
-4.05255e-05
-4.04898e-05
-4.04563e-05
-4.04266e-05
-4.04021e-05
-4.03755e-05
-4.03493e-05
-4.03233e-05
-4.02982e-05
-4.0272e-05
-4.0244e-05
-4.02147e-05
-4.01829e-05
-4.01481e-05
-4.01099e-05
-4.00662e-05
-4.0019e-05
-3.99634e-05
-3.99109e-05
-3.98406e-05
-3.9789e-05
-3.97e-05
-3.96692e-05
-3.95426e-05
-3.95958e-05
-3.94018e-05
-3.97045e-05
-3.92872e-05
-4.13313e-05
3.11433e-05
4.67422e-05
1.7112e-05
6.91115e-06
-2.29389e-05
-4.87832e-05
-4.09813e-05
-6.32733e-05
-6.45097e-05
-7.41586e-05
-7.73723e-05
-8.16416e-05
-8.40875e-05
-8.58914e-05
-8.70247e-05
-8.76948e-05
-8.76947e-05
-8.76232e-05
-8.69655e-05
-8.62035e-05
-8.52203e-05
-8.39523e-05
-8.26399e-05
-8.11581e-05
-7.95281e-05
-7.78805e-05
-7.61177e-05
-7.43096e-05
-7.24898e-05
-7.06094e-05
-6.8761e-05
-6.69059e-05
-6.50541e-05
-6.32649e-05
-6.14984e-05
-5.97861e-05
-5.81505e-05
-5.65726e-05
-5.50878e-05
-5.36774e-05
-5.23577e-05
-5.11318e-05
-4.99918e-05
-4.89499e-05
-4.79923e-05
-4.7123e-05
-4.63379e-05
-4.56288e-05
-4.49947e-05
-4.44264e-05
-4.39204e-05
-4.3472e-05
-4.31139e-05
-4.28224e-05
-4.25666e-05
-4.2337e-05
-4.213e-05
-4.19503e-05
-4.1782e-05
-4.16343e-05
-4.14975e-05
-4.1378e-05
-4.12648e-05
-4.11644e-05
-4.10697e-05
-4.0986e-05
-4.09058e-05
-4.08362e-05
-4.0769e-05
-4.07099e-05
-4.06549e-05
-4.06068e-05
-4.05642e-05
-4.05261e-05
-4.04903e-05
-4.04567e-05
-4.0427e-05
-4.04025e-05
-4.03758e-05
-4.03497e-05
-4.03236e-05
-4.02985e-05
-4.02722e-05
-4.02443e-05
-4.02149e-05
-4.01832e-05
-4.01483e-05
-4.01102e-05
-4.00665e-05
-4.00194e-05
-3.99638e-05
-3.99114e-05
-3.98412e-05
-3.97896e-05
-3.97006e-05
-3.96702e-05
-3.95437e-05
-3.95973e-05
-3.9403e-05
-3.9708e-05
-3.92902e-05
-4.13099e-05
3.13344e-05
4.65708e-05
1.69686e-05
6.76282e-06
-2.2686e-05
-4.8387e-05
-4.08688e-05
-6.30351e-05
-6.43646e-05
-7.39941e-05
-7.72546e-05
-8.15345e-05
-8.40054e-05
-8.58244e-05
-8.69717e-05
-8.76541e-05
-8.76636e-05
-8.75998e-05
-8.69496e-05
-8.61922e-05
-8.52137e-05
-8.39496e-05
-8.26395e-05
-8.11605e-05
-7.95326e-05
-7.7886e-05
-7.61248e-05
-7.43173e-05
-7.24981e-05
-7.06183e-05
-6.877e-05
-6.6915e-05
-6.50633e-05
-6.32738e-05
-6.15072e-05
-5.97947e-05
-5.81586e-05
-5.65805e-05
-5.50951e-05
-5.36843e-05
-5.23641e-05
-5.11378e-05
-4.99974e-05
-4.89551e-05
-4.79972e-05
-4.71273e-05
-4.6342e-05
-4.56324e-05
-4.49982e-05
-4.44295e-05
-4.39232e-05
-4.34744e-05
-4.31162e-05
-4.28245e-05
-4.25687e-05
-4.23388e-05
-4.21317e-05
-4.19517e-05
-4.17835e-05
-4.16356e-05
-4.14988e-05
-4.13791e-05
-4.12659e-05
-4.11653e-05
-4.10707e-05
-4.09868e-05
-4.09066e-05
-4.0837e-05
-4.07698e-05
-4.07106e-05
-4.06556e-05
-4.06075e-05
-4.05648e-05
-4.05266e-05
-4.04907e-05
-4.04572e-05
-4.04275e-05
-4.04029e-05
-4.03761e-05
-4.035e-05
-4.03238e-05
-4.02988e-05
-4.02725e-05
-4.02445e-05
-4.02151e-05
-4.01834e-05
-4.01485e-05
-4.01105e-05
-4.00667e-05
-4.00198e-05
-3.99642e-05
-3.9912e-05
-3.98417e-05
-3.97903e-05
-3.97013e-05
-3.96713e-05
-3.95448e-05
-3.95989e-05
-3.94043e-05
-3.97117e-05
-3.92934e-05
-4.12874e-05
3.15569e-05
4.63831e-05
1.68382e-05
6.62642e-06
-2.23933e-05
-4.79412e-05
-4.07436e-05
-6.27688e-05
-6.42045e-05
-7.38124e-05
-7.71252e-05
-8.14167e-05
-8.39154e-05
-8.57508e-05
-8.69136e-05
-8.76094e-05
-8.76296e-05
-8.75741e-05
-8.6932e-05
-8.61797e-05
-8.52064e-05
-8.39464e-05
-8.2639e-05
-8.11629e-05
-7.95372e-05
-7.78919e-05
-7.61323e-05
-7.43255e-05
-7.25069e-05
-7.06277e-05
-6.87797e-05
-6.69248e-05
-6.50731e-05
-6.32833e-05
-6.15166e-05
-5.98039e-05
-5.81672e-05
-5.65888e-05
-5.51029e-05
-5.36918e-05
-5.2371e-05
-5.11443e-05
-5.00034e-05
-4.89606e-05
-4.80023e-05
-4.71319e-05
-4.63464e-05
-4.56362e-05
-4.50019e-05
-4.44327e-05
-4.39262e-05
-4.3477e-05
-4.31188e-05
-4.28268e-05
-4.25709e-05
-4.23407e-05
-4.21336e-05
-4.19533e-05
-4.17851e-05
-4.16369e-05
-4.15002e-05
-4.13802e-05
-4.12671e-05
-4.11663e-05
-4.10717e-05
-4.09877e-05
-4.09076e-05
-4.08377e-05
-4.07706e-05
-4.07113e-05
-4.06564e-05
-4.06081e-05
-4.05655e-05
-4.05272e-05
-4.04913e-05
-4.04578e-05
-4.0428e-05
-4.04033e-05
-4.03765e-05
-4.03503e-05
-4.03241e-05
-4.02991e-05
-4.02727e-05
-4.02448e-05
-4.02154e-05
-4.01837e-05
-4.01488e-05
-4.01108e-05
-4.00671e-05
-4.00202e-05
-3.99646e-05
-3.99126e-05
-3.98423e-05
-3.97911e-05
-3.97021e-05
-3.96724e-05
-3.95459e-05
-3.96006e-05
-3.94057e-05
-3.97155e-05
-3.92968e-05
-4.12636e-05
3.18158e-05
4.61782e-05
1.67252e-05
6.50616e-06
-2.20536e-05
-4.74378e-05
-4.06032e-05
-6.24695e-05
-6.40269e-05
-7.36107e-05
-7.69823e-05
-8.12867e-05
-8.38163e-05
-8.56699e-05
-8.68498e-05
-8.75602e-05
-8.75921e-05
-8.75459e-05
-8.69125e-05
-8.61658e-05
-8.51981e-05
-8.39428e-05
-8.26382e-05
-8.11653e-05
-7.9542e-05
-7.78981e-05
-7.61403e-05
-7.43343e-05
-7.25164e-05
-7.06378e-05
-6.87899e-05
-6.69352e-05
-6.50836e-05
-6.32935e-05
-6.15266e-05
-5.98136e-05
-5.81764e-05
-5.65978e-05
-5.51113e-05
-5.36997e-05
-5.23784e-05
-5.11513e-05
-5.00099e-05
-4.89665e-05
-4.80078e-05
-4.71369e-05
-4.63511e-05
-4.56403e-05
-4.50058e-05
-4.44362e-05
-4.39294e-05
-4.34798e-05
-4.31214e-05
-4.28292e-05
-4.25732e-05
-4.23428e-05
-4.21356e-05
-4.19549e-05
-4.17867e-05
-4.16384e-05
-4.15016e-05
-4.13814e-05
-4.12683e-05
-4.11673e-05
-4.10728e-05
-4.09886e-05
-4.09085e-05
-4.08385e-05
-4.07714e-05
-4.07121e-05
-4.06572e-05
-4.06088e-05
-4.05661e-05
-4.05278e-05
-4.04918e-05
-4.04583e-05
-4.04285e-05
-4.04037e-05
-4.03769e-05
-4.03507e-05
-4.03244e-05
-4.02994e-05
-4.0273e-05
-4.02451e-05
-4.02156e-05
-4.0184e-05
-4.01491e-05
-4.01111e-05
-4.00674e-05
-4.00207e-05
-3.99651e-05
-3.99132e-05
-3.98429e-05
-3.97919e-05
-3.97029e-05
-3.96735e-05
-3.95471e-05
-3.96024e-05
-3.94072e-05
-3.97195e-05
-3.93005e-05
-4.12386e-05
3.21159e-05
4.59554e-05
1.66344e-05
6.40683e-06
-2.16592e-05
-4.68673e-05
-4.04439e-05
-6.21319e-05
-6.38287e-05
-7.33856e-05
-7.68236e-05
-8.11424e-05
-8.37066e-05
-8.55802e-05
-8.67794e-05
-8.75058e-05
-8.75506e-05
-8.75146e-05
-8.68908e-05
-8.61503e-05
-8.51889e-05
-8.39385e-05
-8.26371e-05
-8.11677e-05
-7.95469e-05
-7.79046e-05
-7.61487e-05
-7.43435e-05
-7.25264e-05
-7.06486e-05
-6.88009e-05
-6.69464e-05
-6.50948e-05
-6.33044e-05
-6.15374e-05
-5.98241e-05
-5.81863e-05
-5.66073e-05
-5.51203e-05
-5.37081e-05
-5.23863e-05
-5.11586e-05
-5.00167e-05
-4.89728e-05
-4.80137e-05
-4.71421e-05
-4.6356e-05
-4.56447e-05
-4.501e-05
-4.44399e-05
-4.39328e-05
-4.34827e-05
-4.31243e-05
-4.28317e-05
-4.25757e-05
-4.2345e-05
-4.21377e-05
-4.19567e-05
-4.17885e-05
-4.164e-05
-4.15032e-05
-4.13827e-05
-4.12696e-05
-4.11685e-05
-4.10739e-05
-4.09896e-05
-4.09095e-05
-4.08394e-05
-4.07723e-05
-4.07129e-05
-4.0658e-05
-4.06096e-05
-4.05669e-05
-4.05284e-05
-4.04924e-05
-4.04589e-05
-4.0429e-05
-4.04041e-05
-4.03773e-05
-4.03511e-05
-4.03248e-05
-4.02997e-05
-4.02733e-05
-4.02454e-05
-4.02159e-05
-4.01843e-05
-4.01493e-05
-4.01115e-05
-4.00677e-05
-4.00211e-05
-3.99656e-05
-3.99138e-05
-3.98436e-05
-3.97927e-05
-3.97037e-05
-3.96748e-05
-3.95484e-05
-3.96043e-05
-3.94087e-05
-3.97236e-05
-3.93045e-05
-4.12122e-05
3.24624e-05
4.57141e-05
1.65715e-05
6.33363e-06
-2.12015e-05
-4.62198e-05
-4.02616e-05
-6.17491e-05
-6.3606e-05
-7.31333e-05
-7.66464e-05
-8.09817e-05
-8.35845e-05
-8.54805e-05
-8.67012e-05
-8.74453e-05
-8.75045e-05
-8.74798e-05
-8.68666e-05
-8.6133e-05
-8.51783e-05
-8.39334e-05
-8.26355e-05
-8.11699e-05
-7.9552e-05
-7.79114e-05
-7.61576e-05
-7.43534e-05
-7.25371e-05
-7.06601e-05
-6.88126e-05
-6.69582e-05
-6.51068e-05
-6.33161e-05
-6.15489e-05
-5.98352e-05
-5.81968e-05
-5.66175e-05
-5.51298e-05
-5.37172e-05
-5.23947e-05
-5.11666e-05
-5.00241e-05
-4.89795e-05
-4.802e-05
-4.71478e-05
-4.63614e-05
-4.56494e-05
-4.50144e-05
-4.44438e-05
-4.39365e-05
-4.34859e-05
-4.31273e-05
-4.28345e-05
-4.25783e-05
-4.23473e-05
-4.21399e-05
-4.19586e-05
-4.17904e-05
-4.16416e-05
-4.15048e-05
-4.1384e-05
-4.1271e-05
-4.11696e-05
-4.10751e-05
-4.09906e-05
-4.09106e-05
-4.08403e-05
-4.07732e-05
-4.07138e-05
-4.06589e-05
-4.06103e-05
-4.05676e-05
-4.05291e-05
-4.0493e-05
-4.04594e-05
-4.04295e-05
-4.04046e-05
-4.03777e-05
-4.03514e-05
-4.03251e-05
-4.03e-05
-4.02736e-05
-4.02458e-05
-4.02162e-05
-4.01846e-05
-4.01496e-05
-4.01118e-05
-4.0068e-05
-4.00216e-05
-3.99661e-05
-3.99144e-05
-3.98443e-05
-3.97936e-05
-3.97047e-05
-3.96761e-05
-3.95498e-05
-3.96064e-05
-3.94104e-05
-3.97279e-05
-3.93088e-05
-4.11846e-05
3.28604e-05
4.54541e-05
1.65428e-05
6.29226e-06
-2.06718e-05
-4.5484e-05
-4.00509e-05
-6.13136e-05
-6.33541e-05
-7.2849e-05
-7.64471e-05
-8.08016e-05
-8.34479e-05
-8.5369e-05
-8.6614e-05
-8.73778e-05
-8.7453e-05
-8.74409e-05
-8.68393e-05
-8.61134e-05
-8.51663e-05
-8.39273e-05
-8.26334e-05
-8.1172e-05
-7.95571e-05
-7.79185e-05
-7.61669e-05
-7.43638e-05
-7.25484e-05
-7.06723e-05
-6.8825e-05
-6.69709e-05
-6.51195e-05
-6.33285e-05
-6.15611e-05
-5.98471e-05
-5.82081e-05
-5.66284e-05
-5.514e-05
-5.37268e-05
-5.24037e-05
-5.1175e-05
-5.00319e-05
-4.89867e-05
-4.80267e-05
-4.71538e-05
-4.6367e-05
-4.56545e-05
-4.50191e-05
-4.4448e-05
-4.39404e-05
-4.34892e-05
-4.31305e-05
-4.28374e-05
-4.25811e-05
-4.23498e-05
-4.21423e-05
-4.19606e-05
-4.17924e-05
-4.16434e-05
-4.15065e-05
-4.13855e-05
-4.12724e-05
-4.11709e-05
-4.10764e-05
-4.09918e-05
-4.09118e-05
-4.08413e-05
-4.07742e-05
-4.07147e-05
-4.06598e-05
-4.06111e-05
-4.05684e-05
-4.05298e-05
-4.04936e-05
-4.04601e-05
-4.04301e-05
-4.0405e-05
-4.03781e-05
-4.03518e-05
-4.03255e-05
-4.03004e-05
-4.02739e-05
-4.02461e-05
-4.02165e-05
-4.01849e-05
-4.015e-05
-4.01122e-05
-4.00684e-05
-4.00221e-05
-3.99667e-05
-3.99151e-05
-3.98451e-05
-3.97946e-05
-3.97056e-05
-3.96776e-05
-3.95512e-05
-3.96085e-05
-3.94122e-05
-3.97323e-05
-3.93134e-05
-4.11557e-05
3.33149e-05
4.51757e-05
1.6555e-05
6.28872e-06
-2.00609e-05
-4.46479e-05
-3.98053e-05
-6.08164e-05
-6.30677e-05
-7.2527e-05
-7.62219e-05
-8.05986e-05
-8.32941e-05
-8.52437e-05
-8.65161e-05
-8.73018e-05
-8.73952e-05
-8.73972e-05
-8.68084e-05
-8.60912e-05
-8.51524e-05
-8.392e-05
-8.26305e-05
-8.11738e-05
-7.95623e-05
-7.79258e-05
-7.61767e-05
-7.43747e-05
-7.25605e-05
-7.06852e-05
-6.88383e-05
-6.69844e-05
-6.51331e-05
-6.33417e-05
-6.15742e-05
-5.98598e-05
-5.82201e-05
-5.664e-05
-5.51509e-05
-5.37371e-05
-5.24132e-05
-5.1184e-05
-5.00403e-05
-4.89943e-05
-4.80338e-05
-4.71602e-05
-4.6373e-05
-4.56598e-05
-4.50242e-05
-4.44525e-05
-4.39445e-05
-4.34928e-05
-4.31339e-05
-4.28405e-05
-4.2584e-05
-4.23524e-05
-4.21448e-05
-4.19628e-05
-4.17945e-05
-4.16453e-05
-4.15083e-05
-4.1387e-05
-4.1274e-05
-4.11722e-05
-4.10777e-05
-4.09929e-05
-4.09129e-05
-4.08424e-05
-4.07753e-05
-4.07156e-05
-4.06608e-05
-4.0612e-05
-4.05692e-05
-4.05305e-05
-4.04942e-05
-4.04607e-05
-4.04307e-05
-4.04055e-05
-4.03785e-05
-4.03522e-05
-4.03258e-05
-4.03007e-05
-4.02742e-05
-4.02464e-05
-4.02168e-05
-4.01852e-05
-4.01503e-05
-4.01126e-05
-4.00688e-05
-4.00227e-05
-3.99672e-05
-3.99159e-05
-3.98458e-05
-3.97956e-05
-3.97067e-05
-3.96791e-05
-3.95528e-05
-3.96108e-05
-3.9414e-05
-3.97368e-05
-3.93184e-05
-4.11254e-05
3.383e-05
4.48795e-05
1.66154e-05
6.32935e-06
-1.936e-05
-4.36991e-05
-3.95168e-05
-6.02471e-05
-6.274e-05
-7.21609e-05
-7.59656e-05
-8.03687e-05
-8.31199e-05
-8.51018e-05
-8.64055e-05
-8.72159e-05
-8.73297e-05
-8.73475e-05
-8.67732e-05
-8.60658e-05
-8.51362e-05
-8.39112e-05
-8.26267e-05