/*--------------------------------*- C++ -*----------------------------------*\
| =========                 |                                                 |
| \\      /  F ield         | OpenFOAM: The Open Source CFD Toolbox           |
|  \\    /   O peration     | Version:  5.x                                   |
|   \\  /    A nd           | Web:      www.OpenFOAM.org                      |
|    \\/     M anipulation  |                                                 |
\*---------------------------------------------------------------------------*/
FoamFile
{
    version     2.0;
    format      ascii;
    class       surfaceScalarField;
    location    "2500";
    object      phi;
}
// * * * * * * * * * * * * * * * * * * * * * * * * * * * * * * * * * * * * * //

dimensions      [0 3 -1 0 0 0 0];

internalField   nonuniform List<scalar> 
215247
(
1.60469e-09
2.77705e-08
-1.88186e-09
1.59856e-09
6.3695e-12
1.91863e-09
-3.20528e-10
2.1103e-09
-1.90765e-10
1.80878e-09
3.00958e-10
1.31425e-09
4.95705e-10
1.16675e-09
1.47743e-10
1.00014e-09
1.66872e-10
8.25757e-10
1.74634e-10
6.90254e-10
1.35816e-10
5.65032e-10
1.25033e-10
4.66751e-10
9.92293e-11
3.76876e-10
8.99931e-11
3.07914e-10
6.991e-11
2.4545e-10
6.2303e-11
1.94588e-10
5.18855e-11
1.51814e-10
4.31371e-11
1.14058e-10
3.81926e-11
8.45016e-11
2.99568e-11
5.86828e-11
2.63343e-11
3.68654e-11
2.22845e-11
1.96142e-11
1.77666e-11
4.82243e-12
1.5106e-11
-6.99542e-12
1.21431e-11
-1.63022e-11
1.01659e-11
-2.38802e-11
8.11956e-12
-2.94979e-11
6.69815e-12
-3.37066e-11
4.80902e-12
-3.67495e-11
3.57827e-12
-3.86477e-11
2.46099e-12
-3.97626e-11
1.72785e-12
-4.01521e-11
1.03845e-12
-3.99848e-11
4.93404e-13
-3.93738e-11
1.84342e-14
-3.84096e-11
3.23803e-13
-3.72058e-11
-3.78749e-13
-3.57825e-11
-7.2554e-13
-3.42622e-11
-1.54168e-13
-3.26507e-11
-8.9926e-13
-3.09738e-11
-9.85965e-13
-2.93201e-11
-7.78062e-13
-2.76561e-11
-7.85823e-13
-2.60372e-11
-6.54421e-13
-2.44794e-11
1.45807e-13
-2.29828e-11
-3.08092e-13
-2.15741e-11
2.2727e-13
-2.02395e-11
-4.11675e-14
-1.89691e-11
6.34858e-15
-1.77715e-11
-1.62179e-13
-1.66176e-11
-2.83751e-13
-1.55267e-11
-6.06137e-13
-1.44643e-11
-9.7414e-14
-1.36391e-11
1.88203e-13
-1.28622e-11
2.0395e-13
-1.21734e-11
-8.58848e-13
-1.15068e-11
-1.58766e-13
-1.09179e-11
-7.26408e-13
-1.03869e-11
-1.58952e-13
-9.91367e-12
-6.92416e-13
-9.48179e-12
-2.11661e-13
-9.10762e-12
-1.08564e-12
-8.76451e-12
-2.41546e-13
-8.4829e-12
-3.93334e-13
-8.22856e-12
-2.5203e-13
-8.02864e-12
-6.21703e-13
-7.85611e-12
-2.24502e-13
-7.73023e-12
-2.93209e-13
-7.63088e-12
-2.62751e-13
-7.5677e-12
-4.40224e-13
-7.52877e-12
-1.95854e-13
-7.5259e-12
-3.01984e-13
-7.53569e-12
3.31606e-13
-7.57837e-12
-1.18534e-12
-7.62971e-12
-7.72599e-13
-7.69932e-12
-6.00259e-13
-7.78044e-12
-4.39083e-14
-7.8717e-12
-7.71616e-13
-7.96241e-12
-8.72099e-13
-8.048e-12
-1.26053e-13
-8.13628e-12
-7.52325e-13
-8.20629e-12
4.56615e-13
-8.26024e-12
-6.89562e-13
-8.28369e-12
2.70255e-13
-8.27729e-12
-6.80321e-13
-8.22299e-12
5.02046e-13
-8.11408e-12
-7.97196e-13
-7.93425e-12
4.55422e-13
-7.67122e-12
-9.65978e-13
-7.30408e-12
7.6547e-13
-6.8121e-12
-1.49232e-12
-6.16919e-12
4.89375e-13
-5.30686e-12
-2.28176e-12
-4.26333e-12
7.21275e-14
-2.78112e-12
-1.36015e-12
-1.09265e-12
-1.36744e-12
1.51612e-12
-2.33394e-12
4.46044e-12
-4.02658e-12
9.98533e-12
-4.36272e-12
1.61016e-11
-5.42345e-12
3.6431e-11
-1.95605e-11
6.16619e-11
-2.46528e-11
-2.35362e-08
2.35986e-08
5.30686e-09
2.85959e-08
-6.13918e-09
5.2525e-09
6.14107e-11
6.31365e-09
-1.38207e-09
6.91779e-09
-7.93447e-10
5.95325e-09
1.26512e-09
4.36372e-09
2.08711e-09
3.8519e-09
6.60189e-10
3.31574e-09
7.03752e-10
2.73561e-09
7.55396e-10
2.29133e-09
5.8092e-10
1.87622e-09
5.40388e-10
1.55159e-09
4.25446e-10
1.2538e-09
3.88673e-10
1.02523e-09
3.00046e-10
8.18041e-10
2.70164e-10
6.49273e-10
2.22505e-10
5.07142e-10
1.86295e-10
3.81768e-10
1.64776e-10
2.83435e-10
1.29358e-10
1.97584e-10
1.13534e-10
1.24972e-10
9.62067e-11
6.75141e-11
7.66109e-11
1.82223e-11
6.5334e-11
-2.1186e-11
5.296e-11
-5.226e-11
4.29423e-11
-7.75737e-11
3.52313e-11
-9.63791e-11
2.75167e-11
-1.10491e-10
2.0554e-11
-1.20726e-10
1.54138e-11
-1.27148e-10
1.04582e-11
-1.30957e-10
7.19545e-12
-1.32352e-10
4.16451e-12
-1.31885e-10
1.75439e-12
-1.29942e-10
-3.08601e-13
-1.2681e-10
1.09858e-13
-1.22884e-10
-2.49364e-12
-1.18221e-10
-3.28378e-12
-1.13221e-10
-2.23367e-12
-1.07923e-10
-4.41138e-12
-1.024e-10
-4.72678e-12
-9.69465e-11
-4.07326e-12
-9.14577e-11
-4.20712e-12
-8.61168e-11
-3.77653e-12
-8.09735e-11
-1.70665e-12
-7.60252e-11
-2.35214e-12
-7.138e-11
-1.49286e-12
-6.69591e-11
-1.23012e-12
-6.27715e-11
-1.85132e-12
-5.88015e-11
-1.08194e-12
-5.49927e-11
-2.02258e-12
-5.13794e-11
-2.63792e-12
-4.78782e-11
-1.96436e-12
-4.51371e-11
3.086e-13
-4.25773e-11
-6.95978e-13
-4.02919e-11
-2.38397e-12
-3.80934e-11
-1.27439e-12
-3.61345e-11
-1.69502e-12
-3.43892e-11
-1.30983e-12
-3.28149e-11
-1.63116e-12
-3.13924e-11
-1.13678e-12
-3.01446e-11
-2.36842e-12
-2.90201e-11
-1.11822e-12
-2.80776e-11
-7.82726e-13
-2.72451e-11
-1.09278e-12
-2.65759e-11
-1.39159e-12
-2.60119e-11
-7.46103e-13
-2.55869e-11
-4.75808e-13
-2.52649e-11
-7.97181e-13
-2.50509e-11
-9.05968e-13
-2.49262e-11
-4.05676e-13
-2.49072e-11
-2.87791e-13
-2.49469e-11
3.30167e-13
-2.50812e-11
-2.34872e-12
-2.52554e-11
-1.96966e-12
-2.54852e-11
-1.78722e-12
-2.57513e-11
-5.61868e-14
-2.60481e-11
-1.61128e-12
-2.63517e-11
-2.02998e-12
-2.66404e-11
-1.03819e-12
-2.6924e-11
-1.25783e-12
-2.71556e-11
4.90939e-13
-2.73312e-11
-1.29034e-12
-2.74114e-11
-4.52801e-14
-2.73839e-11
-1.18227e-12
-2.72048e-11
3.0871e-13
-2.68407e-11
-1.7983e-12
-2.62484e-11
-1.29265e-13
-2.53719e-11
-2.27134e-12
-2.41629e-11
1.93607e-13
-2.25267e-11
-3.85164e-12
-2.0406e-11
-9.37416e-13
-1.75443e-11
-6.18575e-12
-1.41022e-11
-2.62596e-12
-9.18571e-12
-6.2399e-12
-3.62986e-12
-6.70495e-12
5.0248e-12
-1.04385e-11
1.47076e-11
-1.41736e-11
3.30383e-11
-2.18952e-11
5.30529e-11
-2.47953e-11
1.2015e-10
-8.58176e-11
1.78172e-10
-8.16804e-11
-4.85944e-08
2.52377e-08
9.84113e-09
3.0049e-08
-1.12908e-08
9.71186e-09
1.9086e-10
1.16646e-08
-3.33524e-09
1.27564e-08
-1.88439e-09
1.10142e-08
3.00677e-09
8.12239e-09
4.98001e-09
7.14871e-09
1.63406e-09
6.16567e-09
1.68697e-09
5.08911e-09
1.83216e-09
4.26689e-09
1.40338e-09
3.49606e-09
1.31097e-09
2.89315e-09
1.02927e-09
2.33959e-09
9.42247e-10
1.91427e-09
7.26357e-10
1.52865e-09
6.5546e-10
1.21435e-09
5.37796e-10
9.49459e-10
4.51416e-10
7.15832e-10
3.98698e-10
5.32392e-10
3.13083e-10
3.72257e-10
2.7405e-10
2.36739e-10
2.3203e-10
1.29433e-10
1.84281e-10
3.73481e-11
1.57639e-10
-3.63196e-11
1.26774e-10
-9.44602e-11
1.01929e-10
-1.41849e-10
8.30074e-11
-1.77107e-10
6.39005e-11
-2.03604e-10
4.75085e-11
-2.22869e-10
3.50426e-11
-2.35012e-10
2.30148e-11
-2.42273e-10
1.49341e-11
-2.45025e-10
7.42916e-12
-2.44292e-10
1.56142e-12
-2.40801e-10
-3.25406e-12
-2.35079e-10
-4.46494e-12
-2.27871e-10
-8.80075e-12
-2.19283e-10
-1.12716e-11
-2.10047e-10
-1.01845e-11
-2.00257e-10
-1.35892e-11
-1.9004e-10
-1.43692e-11
-1.79941e-10
-1.34092e-11
-1.69773e-10
-1.35772e-11
-1.59877e-10
-1.27965e-11
-1.50343e-10
-9.53598e-12
-1.41162e-10
-1.03389e-11
-1.32554e-10
-8.32682e-12
-1.24343e-10
-8.26604e-12
-1.16582e-10
-8.20218e-12
-1.09206e-10
-7.69036e-12
-1.02142e-10
-8.31095e-12
-9.54297e-11
-9.08428e-12
-8.89405e-11
-7.3081e-12
-8.38435e-11
-4.03765e-12
-7.90981e-11
-4.4659e-12
-7.48482e-11
-7.02302e-12
-7.07722e-11
-4.9143e-12
-6.71263e-11
-5.80863e-12
-6.38942e-11
-4.1572e-12
-6.09638e-11
-5.08619e-12
-5.83267e-11
-3.66899e-12
-5.60014e-11
-5.78157e-12
-5.39218e-11
-3.09484e-12
-5.2163e-11
-2.92647e-12
-5.06238e-11
-2.65037e-12
-4.93745e-11
-3.31339e-12
-4.83325e-11
-1.87239e-12
-4.75363e-11
-1.65908e-12
-4.69428e-11
-1.60194e-12
-4.65411e-11
-1.87957e-12
-4.63126e-11
-8.70865e-13
-4.62698e-11
-8.56358e-13
-4.63485e-11
7.37812e-13
-4.65917e-11
-3.5574e-12
-4.69171e-11
-2.59226e-12
-4.73426e-11
-2.05442e-12
-4.78347e-11
1.91697e-13
-4.83814e-11
-2.0415e-12
-4.89466e-11
-2.5252e-12
-4.94857e-11
-5.70992e-13
-5.00049e-11
-1.741e-12
-5.04343e-11
1.44691e-12
-5.07569e-11
-1.8567e-12
-5.09067e-11
5.18665e-13
-5.08495e-11
-2.07386e-12
-5.05165e-11
7.41158e-13
-4.98362e-11
-3.28687e-12
-4.87376e-11
-3.24877e-13
-4.71045e-11
-4.73011e-12
-4.4863e-11
-5.64421e-13
-4.1818e-11
-8.12777e-12
-3.78847e-11
-3.42179e-12
-3.2565e-11
-1.32344e-11
-2.61823e-11
-7.63564e-12
-1.70469e-11
-1.51693e-11
-6.75694e-12
-1.64959e-11
9.32092e-12
-2.62101e-11
2.72464e-11
-3.35386e-11
6.12881e-11
-5.44575e-11
9.82302e-11
-6.07331e-11
2.22365e-10
-2.0888e-10
3.21861e-10
-1.80481e-10
-7.52487e-08
2.69771e-08
1.53308e-08
3.21912e-08
-1.74786e-08
1.51224e-08
4.00105e-10
1.81247e-08
-6.33775e-09
1.97976e-08
-3.55581e-09
1.715e-08
5.65426e-09
1.2716e-08
9.41594e-09
1.11717e-08
3.17914e-09
9.64553e-09
3.21409e-09
7.96996e-09
3.5085e-09
6.68663e-09
2.68774e-09
5.48352e-09
2.51456e-09
4.54046e-09
1.97405e-09
3.67474e-09
1.80919e-09
3.00851e-09
1.39434e-09
2.40452e-09
1.26052e-09
1.91182e-09
1.03258e-09
1.49636e-09
8.68164e-10
1.12989e-09
7.66702e-10
8.41893e-10
6.02404e-10
5.90458e-10
5.27176e-10
3.77575e-10
4.46554e-10
2.08889e-10
3.54709e-10
6.40923e-11
3.03621e-10
-5.18281e-11
2.44495e-10
-1.43394e-10
1.95509e-10
-2.18076e-10
1.59965e-10
-2.73721e-10
1.21926e-10
-3.15604e-10
9.1463e-11
-3.46131e-10
6.7625e-11
-3.65459e-10
4.43471e-11
-3.7711e-10
2.86931e-11
-3.81676e-10
1.41897e-11
-3.80748e-10
2.82478e-12
-3.75482e-10
-6.46565e-12
-3.66695e-10
-9.80332e-12
-3.55563e-10
-1.76317e-11
-3.42256e-10
-2.18653e-11
-3.2791e-10
-2.10681e-11
-3.12686e-10
-2.65551e-11
-2.96781e-10
-2.80168e-11
-2.81049e-10
-2.6412e-11
-2.65199e-10
-2.68241e-11
-2.4977e-10
-2.54297e-11
-2.34897e-10
-2.05523e-11
-2.20569e-10
-2.101e-11
-2.07137e-10
-1.82874e-11
-1.94314e-10
-1.71376e-11
-1.82202e-10
-1.74846e-11
-1.70678e-10
-1.54716e-11
-1.59648e-10
-1.67419e-11
-1.4916e-10
-1.75276e-11
-1.39031e-10
-1.54211e-11
-1.31064e-10
-8.57338e-12
-1.23655e-10
-1.00341e-11
-1.17009e-10
-1.25109e-11
-1.10645e-10
-9.99721e-12
-1.04943e-10
-1.01116e-11
-9.9898e-11
-8.51814e-12
-9.53142e-11
-8.75497e-12
-9.11961e-11
-7.25006e-12
-8.75564e-11
-9.21767e-12
-8.43124e-11
-6.01015e-12
-8.15583e-11
-4.95227e-12
-7.9157e-11
-5.07921e-12
-7.71994e-11
-5.30591e-12
-7.55747e-11
-3.41255e-12
-7.43256e-11
-2.57708e-12
-7.34006e-11
-2.77896e-12
-7.27687e-11
-2.77133e-12
-7.24135e-11
-1.29869e-12
-7.23413e-11
-8.32648e-13
-7.24671e-11
5.53909e-13
-7.28418e-11
-4.46586e-12
-7.33496e-11
-3.71274e-12
-7.40116e-11
-3.12635e-12
-7.4779e-11
5.22841e-13
-7.56292e-11
-2.41478e-12
-7.65109e-11
-3.31371e-12
-7.73533e-11
-1.32848e-12
-7.8158e-11
-1.70814e-12
-7.8827e-11
1.63589e-12
-7.93269e-11
-2.1597e-12
-7.95595e-11
8.11892e-14
-7.94642e-11
-2.57344e-12
-7.89414e-11
-5.3653e-14
-7.78739e-11
-4.96135e-12
-7.61559e-11
-2.30495e-12
-7.35989e-11
-7.56439e-12
-7.00976e-11
-3.65664e-12
-6.53348e-11
-1.34683e-11
-5.91915e-11
-9.09831e-12
-5.08772e-11
-2.23545e-11
-4.09113e-11
-1.70718e-11
-2.66396e-11
-2.9442e-11
-1.05835e-11
-3.23544e-11
1.45226e-11
-5.06365e-11
4.24793e-11
-6.16841e-11
9.56053e-11
-1.06955e-10
1.53092e-10
-1.17549e-10
3.46048e-10
-4.00905e-10
4.95705e-10
-3.28922e-10
-1.03572e-07
2.88201e-08
2.19327e-08
3.51323e-08
-2.487e-08
2.16448e-08
6.88091e-10
2.58727e-08
-1.0566e-08
2.82335e-08
-5.91607e-09
2.45415e-08
9.34584e-09
1.82954e-08
1.56628e-08
1.60512e-08
5.42351e-09
1.38689e-08
5.39647e-09
1.14753e-08
5.90223e-09
9.63289e-09
4.53032e-09
7.90774e-09
4.23947e-09
6.55146e-09
3.33083e-09
5.30704e-09
3.05353e-09
4.34763e-09
2.35442e-09
3.47795e-09
2.12977e-09
2.76786e-09
1.74324e-09
2.1688e-09
1.46734e-09
1.64023e-09
1.29545e-09
1.22453e-09
1.01826e-09
8.61531e-10
8.90437e-10
5.54047e-10
7.54191e-10
3.10215e-10
5.98773e-10
1.00857e-10
5.12969e-10
-6.68794e-11
4.12075e-10
-1.9949e-10
3.28658e-10
-3.07727e-10
2.6828e-10
-3.88493e-10
2.03494e-10
-4.49382e-10
1.52678e-10
-4.93878e-10
1.12349e-10
-5.22179e-10
7.29313e-11
-5.39381e-10
4.62558e-11
-5.46346e-10
2.15398e-11
-5.45347e-10
2.25682e-12
-5.38074e-10
-1.34519e-11
-5.25692e-10
-2.15658e-11
-5.09901e-10
-3.27654e-11
-4.90959e-10
-4.05347e-11
-4.70489e-10
-4.08276e-11
-4.48736e-10
-4.77911e-11
-4.25986e-10
-5.02986e-11
-4.03464e-10
-4.82755e-11
-3.80761e-10
-4.8811e-11
-3.5865e-10
-4.67302e-11
-3.37328e-10
-4.07279e-11
-3.16778e-10
-4.07274e-11
-2.97514e-10
-3.61706e-11
-2.7911e-10
-3.48801e-11
-2.61734e-10
-3.37524e-11
-2.45189e-10
-3.1843e-11
-2.29356e-10
-3.18996e-11
-2.14295e-10
-3.24896e-11
-1.9976e-10
-2.89935e-11
-1.8832e-10
-1.97769e-11
-1.77682e-10
-2.00328e-11
-1.68134e-10
-2.25836e-11
-1.58999e-10
-1.90256e-11
-1.50805e-10
-1.90785e-11
-1.43564e-10
-1.55502e-11
-1.36977e-10
-1.61095e-11
-1.31064e-10
-1.33437e-11
-1.25831e-10
-1.57233e-11
-1.21177e-10
-1.06273e-11
-1.17217e-10
-9.54874e-12
-1.1377e-10
-8.59769e-12
-1.10954e-10
-8.92866e-12
-1.08623e-10
-5.86618e-12
-1.06825e-10
-4.93849e-12
-1.05497e-10
-4.3299e-12
-1.04586e-10
-4.34282e-12
-1.04077e-10
-2.11217e-12
-1.03969e-10
-1.60262e-12
-1.04151e-10
8.92299e-13
-1.04683e-10
-5.13431e-12
-1.0541e-10
-3.74117e-12
-1.06357e-10
-2.70675e-12
-1.07457e-10
1.28041e-12
-1.08674e-10
-1.99754e-12
-1.09937e-10
-2.84708e-12
-1.11144e-10
8.90567e-15
-1.12293e-10
-1.37076e-12
-1.13251e-10
3.10706e-12
-1.13963e-10
-2.1823e-12
-1.14293e-10
9.16245e-13
-1.1415e-10
-3.40473e-12
-1.13395e-10
-3.72431e-14
-1.11856e-10
-7.12466e-12
-1.09385e-10
-3.80788e-12
-1.05707e-10
-1.18347e-11
-1.00678e-10
-7.19266e-12
-9.3834e-11
-2.13954e-11
-8.50128e-11
-1.65402e-11
-7.30733e-11
-3.57986e-11
-5.87684e-11
-3.0139e-11
-3.82831e-11
-4.96957e-11
-1.5248e-11
-5.47984e-11
2.07696e-11
-8.63442e-11
6.08578e-11
-1.03247e-10
1.37018e-10
-1.81726e-10
2.19281e-10
-1.98652e-10
4.94734e-10
-6.75117e-10
7.04668e-10
-5.38114e-10
-1.33636e-07
3.07704e-08
2.9828e-08
3.89495e-08
-3.36498e-08
2.94636e-08
1.05351e-09
3.51122e-08
-1.62145e-08
3.82822e-08
-9.08457e-09
3.33965e-08
1.42318e-08
2.50363e-08
2.40249e-08
2.19389e-08
8.52189e-09
1.89684e-08
8.36809e-09
1.57191e-08
9.15251e-09
1.32024e-08
7.04821e-09
1.08502e-08
6.59248e-09
8.99455e-09
5.18828e-09
7.29306e-09
4.75658e-09
5.97863e-09
3.67082e-09
4.78732e-09
3.3226e-09
3.81362e-09
2.71929e-09
2.99176e-09
2.29078e-09
2.26638e-09
2.02272e-09
1.69547e-09
1.59079e-09
1.19678e-09
1.3912e-09
7.74174e-10
1.17881e-09
4.38775e-10
9.36324e-10
1.50715e-10
8.02497e-10
-8.02676e-11
6.45259e-10
-2.63047e-10
5.13779e-10
-4.12348e-10
4.20356e-10
-5.23925e-10
3.17866e-10
-6.08187e-10
2.39512e-10
-6.6993e-10
1.76667e-10
-7.09388e-10
1.14884e-10
-7.33577e-10
7.30687e-11
-7.43686e-10
3.43702e-11
-7.42813e-10
4.10536e-12
-7.33299e-10
-2.03905e-11
-7.16736e-10
-3.41336e-11
-6.95453e-10
-5.11726e-11
-6.69824e-10
-6.27585e-11
-6.42057e-10
-6.45536e-11
-6.12503e-10
-7.45435e-11
-5.81559e-10
-7.84385e-11
-5.509e-10
-7.55411e-11
-5.19974e-10
-7.65066e-11
-4.8984e-10
-7.33654e-11
-4.60769e-10
-6.53183e-11
-4.32736e-10
-6.42539e-11
-4.06457e-10
-5.83494e-11
-3.81337e-10
-5.52819e-11
-3.57624e-10
-5.40465e-11
-3.35034e-10
-4.99754e-11
-3.13417e-10
-5.03085e-11
-2.92848e-10
-5.04823e-11
-2.73006e-10
-4.63744e-11
-2.57381e-10
-3.14163e-11
-2.42855e-10
-3.25526e-11
-2.29807e-10
-3.40563e-11
-2.17334e-10
-3.00101e-11
-2.06137e-10
-2.84597e-11
-1.96248e-10
-2.46608e-11
-1.87247e-10
-2.39329e-11
-1.79171e-10
-2.08715e-11
-1.72018e-10
-2.24528e-11
-1.65664e-10
-1.65751e-11
-1.6025e-10
-1.40942e-11
-1.55544e-10
-1.33792e-11
-1.51693e-10
-1.27912e-11
-1.4851e-10
-8.94054e-12
-1.4605e-10
-7.01899e-12
-1.44237e-10
-6.47315e-12
-1.42988e-10
-5.90749e-12
-1.42293e-10
-2.8967e-12
-1.4214e-10
-1.64227e-12
-1.42389e-10
4.90798e-13
-1.43111e-10
-5.72214e-12
-1.44101e-10
-4.70938e-12
-1.4539e-10
-3.53659e-12
-1.46889e-10
2.12165e-12
-1.48545e-10
-1.69739e-12
-1.50264e-10
-3.07055e-12
-1.5191e-10
-3.97711e-13
-1.53472e-10
-6.12566e-13
-1.54774e-10
3.58839e-12
-1.55739e-10
-2.09375e-12
-1.56185e-10
3.71007e-13
-1.5598e-10
-3.98447e-12
-1.54943e-10
-1.64677e-12
-1.52833e-10
-9.84423e-12
-1.49453e-10
-7.75544e-12
-1.44423e-10
-1.69993e-11
-1.37551e-10
-1.3909e-11
-1.28198e-10
-3.11949e-11
-1.1615e-10
-2.83829e-11
-9.98448e-11
-5.26556e-11
-8.03139e-11
-4.93716e-11
-5.23524e-11
-7.77215e-11
-2.09152e-11
-8.60728e-11
2.82192e-11
-1.34647e-10
8.29001e-11
-1.57829e-10
1.8671e-10
-2.85079e-10
2.98691e-10
-3.09939e-10
6.7246e-10
-1.04785e-09
9.54591e-10
-8.18761e-10
-1.65511e-07
3.28316e-08
3.92229e-08
4.37542e-08
-4.40236e-08
3.87902e-08
1.4862e-09
4.6074e-08
-2.34984e-08
5.01909e-08
-1.32013e-08
4.39528e-08
2.04697e-08
3.31434e-08
3.48347e-08
2.90119e-08
1.26535e-08
2.50988e-08
1.22811e-08
2.08348e-08
1.34165e-08
1.7509e-08
1.03741e-08
1.44069e-08
9.69428e-09
1.19505e-08
7.64493e-09
9.69978e-09
7.00718e-09
7.95727e-09
5.4138e-09
6.37825e-09
4.90116e-09
5.08623e-09
4.01159e-09
3.99513e-09
3.38173e-09
3.03177e-09
2.98601e-09
2.27295e-09
2.34953e-09
1.60992e-09
2.05423e-09
1.04776e-09
1.74081e-09
6.01226e-10
1.38281e-09
2.17599e-10
1.18597e-09
-9.02835e-11
9.52789e-10
-3.34148e-10
7.5798e-10
-5.33512e-10
6.19616e-10
-6.82738e-10
4.67729e-10
-7.9564e-10
3.5247e-10
-8.78599e-10
2.59572e-10
-9.31877e-10
1.68181e-10
-9.64825e-10
1.0612e-10
-9.79033e-10
4.86989e-11
-9.78576e-10
3.82724e-12
-9.66606e-10
-3.21811e-11
-9.45212e-10
-5.52473e-11
-9.17496e-10
-7.82977e-11
-8.83977e-10
-9.61282e-11
-8.47563e-10
-1.00603e-10
-8.08736e-10
-1.1309e-10
-7.68035e-10
-1.18917e-10
-7.2767e-10
-1.15531e-10
-6.86924e-10
-1.1678e-10
-6.47202e-10
-1.12582e-10
-6.0886e-10
-1.02814e-10
-5.71874e-10
-1.00524e-10
-5.37196e-10
-9.1812e-11
-5.04029e-10
-8.80624e-11
-4.72722e-10
-8.43491e-11
-4.42886e-10
-8.00075e-11
-4.14335e-10
-7.84669e-11
-3.8716e-10
-7.78798e-11
-3.60954e-10
-7.16788e-11
-3.40312e-10
-5.21539e-11
-3.2112e-10
-5.13935e-11
-3.03875e-10
-5.19052e-11
-2.87399e-10
-4.66286e-11
-2.72598e-10
-4.42504e-11
-2.59532e-10
-3.76598e-11
-2.47635e-10
-3.67996e-11
-2.36964e-10
-3.19961e-11
-2.27507e-10
-3.33643e-11
-2.19114e-10
-2.50075e-11
-2.11956e-10
-2.2123e-11
-2.05739e-10
-1.9768e-11
-2.00645e-10
-1.88592e-11
-1.96441e-10
-1.33417e-11
-1.93187e-10
-1.10277e-11
-1.9079e-10
-9.17244e-12
-1.89135e-10
-8.36603e-12
-1.88217e-10
-4.23192e-12
-1.8801e-10
-2.68013e-12
-1.88338e-10
7.36714e-13
-1.89285e-10
-5.85275e-12
-1.90588e-10
-4.12641e-12
-1.92286e-10
-2.35964e-12
-1.94262e-10
3.58694e-12
-1.96443e-10
-2.48064e-13
-1.98708e-10
-1.48401e-12
-2.00876e-10
1.9659e-12
-2.0293e-10
7.0448e-13
-2.04644e-10
5.71475e-12
-2.05909e-10
-1.51318e-12
-2.06491e-10
1.45288e-12
-2.0621e-10
-4.892e-12
-2.0483e-10
-2.316e-12
-2.02032e-10
-1.31664e-11
-1.97558e-10
-1.12602e-11
-1.90903e-10
-2.40687e-11
-1.81819e-10
-2.15149e-11
-1.69456e-10
-4.45434e-11
-1.53536e-10
-4.30098e-11
-1.31999e-10
-7.55029e-11
-1.06202e-10
-7.40417e-11
-6.92869e-11
-1.14326e-10
-2.77807e-11
-1.26867e-10
3.70478e-11
-1.99121e-10
1.09201e-10
-2.31457e-10
2.46043e-10
-4.20588e-10
3.935e-10
-4.56008e-10
8.83836e-10
-1.53675e-09
1.2521e-09
-1.18617e-09
-1.99266e-07
3.50072e-08
5.03521e-08
4.96201e-08
-5.6222e-08
4.98662e-08
1.97336e-09
5.90192e-08
-3.26511e-08
6.42385e-08
-1.8419e-08
5.64825e-08
2.82262e-08
4.28544e-08
4.84648e-08
3.7476e-08
1.8033e-08
3.24405e-08
1.7318e-08
2.6979e-08
1.88792e-08
2.26859e-08
1.46687e-08
1.86911e-08
1.36901e-08
1.55146e-08
1.08233e-08
1.26065e-08
9.91724e-09
1.03497e-08
7.67279e-09
8.30501e-09
6.94786e-09
6.62997e-09
5.68933e-09
5.21466e-09
4.79891e-09
3.96451e-09
4.23843e-09
2.97898e-09
3.33695e-09
2.11755e-09
2.91814e-09
1.38681e-09
2.47394e-09
8.05829e-10
1.96637e-09
3.06534e-10
1.68707e-09
-9.45503e-11
1.35651e-09
-4.12557e-10
1.07871e-09
-6.72767e-10
8.83133e-10
-8.6786e-10
6.66137e-10
-1.01575e-09
5.0343e-10
-1.12473e-09
3.7166e-10
-1.19508e-09
2.41519e-10
-1.23898e-09
1.53166e-10
-1.2585e-09
7.14749e-11
-1.25888e-09
7.47004e-12
-1.24426e-09
-4.36067e-11
-1.21734e-09
-7.75517e-11
-1.18213e-09
-1.09915e-10
-1.13935e-09
-1.34692e-10
-1.09274e-09
-1.4247e-10
-1.04294e-09
-1.59528e-10
-9.90668e-10
-1.67823e-10
-9.38777e-10
-1.63341e-10
-8.86353e-10
-1.65318e-10
-8.35218e-10
-1.59456e-10
-7.85836e-10
-1.46935e-10
-7.38175e-10
-1.42681e-10
-6.9348e-10
-1.31614e-10
-6.50713e-10
-1.25236e-10
-6.10342e-10
-1.20557e-10
-5.71855e-10
-1.13248e-10
-5.35023e-10
-1.11462e-10
-4.99958e-10
-1.09828e-10
-4.66151e-10
-1.02471e-10
-4.39518e-10
-7.42273e-11
-4.14751e-10
-7.39666e-11
-3.92487e-10
-7.21932e-11
-3.7123e-10
-6.6139e-11
-3.52124e-10
-6.11306e-11
-3.3526e-10
-5.36199e-11
-3.19902e-10
-5.07553e-11
-3.0613e-10
-4.52133e-11
-2.93919e-10
-4.49957e-11
-2.8309e-10
-3.53594e-11
-2.73847e-10
-3.04081e-11
-2.65825e-10
-2.79532e-11
-2.59246e-10
-2.55022e-11
-2.53821e-10
-1.86681e-11
-2.49617e-10
-1.48681e-11
-2.46523e-10
-1.27352e-11
-2.44383e-10
-1.0961e-11
-2.43196e-10
-5.5701e-12
-2.42924e-10
-2.8997e-12
-2.43345e-10
1.20525e-13
-2.44559e-10
-6.12096e-12
-2.46236e-10
-4.88576e-12
-2.4842e-10
-2.78762e-12
-2.50964e-10
5.16984e-12
-2.5377e-10
9.64028e-13
-2.56682e-10
-9.20326e-13
-2.59472e-10
2.17661e-12
-2.62111e-10
2.3797e-12
-2.64313e-10
6.7016e-12
-2.65933e-10
-9.56966e-13
-2.66672e-10
8.28121e-13
-2.66295e-10
-5.72634e-12
-2.64502e-10
-5.00362e-12
-2.60878e-10
-1.75026e-11
-2.55093e-10
-1.79312e-11
-2.46495e-10
-3.27432e-11
-2.34764e-10
-3.3325e-11
-2.18805e-10
-6.0905e-11
-1.98258e-10
-6.35867e-11
-1.70474e-10
-1.03658e-10
-1.37196e-10
-1.07199e-10
-8.96008e-11
-1.62066e-10
-3.60767e-11
-1.80263e-10
4.74533e-11
-2.8165e-10
1.40441e-10
-3.24081e-10
3.1658e-10
-5.9637e-10
5.06206e-10
-6.44906e-10
1.13411e-09
-2.16347e-09
1.60473e-09
-1.655e-09
-2.34959e-07
3.73003e-08
6.34816e-08
5.66457e-08
-7.05029e-08
6.2967e-08
2.48774e-09
7.42427e-08
-4.39268e-08
8.07392e-08
-2.49155e-08
7.12957e-08
3.76697e-08
5.4445e-08
6.53155e-08
4.75709e-08
2.4907e-08
4.12037e-08
2.36851e-08
3.43347e-08
2.57481e-08
2.88899e-08
2.01134e-08
2.3836e-08
1.87437e-08
1.97995e-08
1.48596e-08
1.6107e-08
1.36095e-08
1.32345e-08
1.05455e-08
1.06322e-08
9.54951e-09
8.49769e-09
7.82373e-09
6.69311e-09
6.60316e-09
5.09839e-09
5.83293e-09
3.84012e-09
4.59496e-09
2.73987e-09
4.01822e-09
1.80602e-09
3.40741e-09
1.06284e-09
2.70933e-09
4.2393e-10
2.32555e-09
-8.98172e-11
1.86959e-09
-4.97584e-10
1.48645e-09
-8.31556e-10
1.21666e-09
-1.08239e-09
9.17275e-10
-1.27291e-09
6.93833e-10
-1.41375e-09
5.12261e-10
-1.50513e-09
3.32749e-10
-1.56268e-09
2.10663e-10
-1.58906e-09
9.78018e-11
-1.59087e-09
9.31495e-12
-1.57347e-09
-6.10653e-11
-1.54027e-09
-1.10926e-10
-1.49639e-09
-1.53515e-10
-1.44279e-09
-1.88515e-10
-1.38421e-09
-2.0124e-10
-1.32148e-09
-2.22095e-10
-1.25555e-09
-2.33673e-10
-1.19002e-09
-2.28634e-10
-1.12376e-09
-2.31212e-10
-1.05909e-09
-2.23731e-10
-9.96607e-10
-2.09107e-10
-9.36267e-10
-2.02689e-10
-8.79669e-10
-1.87398e-10
-8.25486e-10
-1.79526e-10
-7.74337e-10
-1.71035e-10
-7.25557e-10
-1.62775e-10
-6.78868e-10
-1.57915e-10
-6.34411e-10
-1.54726e-10
-5.91557e-10
-1.44633e-10
-5.57792e-10
-1.08484e-10
-5.26388e-10
-1.05241e-10
-4.98148e-10
-1.01201e-10
-4.71198e-10
-9.3553e-11
-4.46964e-10
-8.66858e-11
-4.25578e-10
-7.51107e-11
-4.06098e-10
-7.14586e-11
-3.88633e-10
-6.34144e-11
-3.73142e-10
-6.21785e-11
-3.59412e-10
-4.91839e-11
-3.47687e-10
-4.3255e-11
-3.37515e-10
-3.83383e-11
-3.29167e-10
-3.49798e-11
-3.22289e-10
-2.57568e-11
-3.16953e-10
-2.11348e-11
-3.13027e-10
-1.69494e-11
-3.10309e-10
-1.45849e-11
-3.08802e-10
-7.53868e-12
-3.08451e-10
-4.20895e-12
-3.08982e-10
4.5894e-13
-3.10511e-10
-5.43266e-12
-3.12631e-10
-3.2592e-12
-3.15392e-10
-3.49427e-13
-3.18609e-10
7.79575e-12
-3.22155e-10
3.96445e-12
-3.25835e-10
2.39559e-12
-3.29361e-10
6.10395e-12
-3.32693e-10
5.21302e-12
-3.35471e-10
9.89947e-12
-3.37508e-10
5.94211e-13
-3.3843e-10
2.36362e-12
-3.37934e-10
-6.65996e-12
-3.35644e-10
-6.56307e-12
-3.31031e-10
-2.24388e-11
-3.23681e-10
-2.42183e-11
-3.12765e-10
-4.37664e-11
-2.97879e-10
-4.66378e-11
-2.77637e-10
-8.20173e-11
-2.51581e-10
-8.83756e-11
-2.16366e-10
-1.39927e-10
-1.74184e-10
-1.4828e-10
-1.13895e-10
-2.22009e-10
-4.60777e-11
-2.47264e-10
5.96565e-11
-3.8697e-10
1.77398e-10
-4.43368e-10
4.00114e-10
-8.17781e-10
6.39679e-10
-8.82875e-10
1.42924e-09
-2.95139e-09
2.02107e-09
-2.24592e-09
-2.72651e-07
3.97138e-08
7.89119e-08
6.48841e-08
-8.71536e-08
7.84056e-08
2.99556e-09
9.20756e-08
-5.75963e-08
1.00045e-07
-3.28833e-08
8.87446e-08
4.89709e-08
6.82341e-08
8.58282e-08
5.95747e-08
3.35678e-08
5.16328e-08
3.16285e-08
4.31162e-08
3.42661e-08
3.63048e-08
2.69266e-08
2.99985e-08
2.50513e-08
2.49382e-08
1.9922e-08
2.03126e-08
1.82373e-08
1.67048e-08
1.41559e-08
1.34367e-08
1.282e-08
1.07525e-08
1.0511e-08
8.48173e-09
8.8761e-09
6.47402e-09
7.84334e-09
4.88844e-09
6.18274e-09
3.50139e-09
5.40821e-09
2.32343e-09
4.58815e-09
1.38501e-09
3.6508e-09
5.77944e-10
3.13476e-09
-7.16908e-11
2.52228e-09
-5.87893e-10
2.00577e-09
-1.0111e-09
1.6437e-09
-1.32954e-09
1.23959e-09
-1.57193e-09
9.39831e-10
-1.75166e-09
6.95681e-10
-1.86893e-09
4.53538e-10
-1.94347e-09
2.88924e-10
-1.97866e-09
1.36816e-10
-1.98272e-09
1.72311e-11
-1.96249e-09
-7.74625e-11
-1.92223e-09
-1.45935e-10
-1.86838e-09
-2.02993e-10
-1.80221e-09
-2.49613e-10
-1.72962e-09
-2.6832e-10
-1.65172e-09
-2.96012e-10
-1.56971e-09
-3.1171e-10
-1.48811e-09
-3.05393e-10
-1.40552e-09
-3.09185e-10
-1.32486e-09
-2.99228e-10
-1.24687e-09
-2.80976e-10
-1.17152e-09
-2.71471e-10
-1.10082e-09
-2.52329e-10
-1.03311e-09
-2.40733e-10
-9.69179e-10
-2.29985e-10
-9.0819e-10
-2.17718e-10
-8.49808e-10
-2.11757e-10
-7.94205e-10
-2.06627e-10
-7.40614e-10
-1.94607e-10
-6.98388e-10
-1.45579e-10
-6.59104e-10
-1.42165e-10
-6.23767e-10
-1.34204e-10
-5.90061e-10
-1.25246e-10
-5.59738e-10
-1.14415e-10
-5.32981e-10
-1.00838e-10
-5.08607e-10
-9.4261e-11
-4.86758e-10
-8.47308e-11
-4.67373e-10
-8.0907e-11
-4.502e-10
-6.58352e-11
-4.35527e-10
-5.69436e-11
-4.22803e-10
-5.13566e-11
-4.12355e-10
-4.56203e-11
-4.0375e-10
-3.4316e-11
-3.97072e-10
-2.75309e-11
-3.92158e-10
-2.25273e-11
-3.88753e-10
-1.86606e-11
-3.86865e-10
-9.69033e-12
-3.86419e-10
-4.73674e-12
-3.87078e-10
-3.38983e-13
-3.88979e-10
-5.30047e-12
-3.91622e-10
-3.62909e-12
-3.95065e-10
-8.283e-14
-3.99077e-10
1.04796e-11
-4.03497e-10
6.48121e-12
-4.08083e-10
4.1542e-12
-4.12479e-10
7.35793e-12
-4.16629e-10
8.13683e-12
-4.20085e-10
1.17156e-11
-4.22611e-10
1.78446e-12
-4.23744e-10
1.73374e-12
-4.231e-10
-7.93078e-12
-4.20213e-10
-1.06765e-11
-4.1442e-10
-2.91202e-11
-4.05206e-10
-3.46329e-11
-3.91533e-10
-5.75171e-11
-3.72897e-10
-6.55531e-11
-3.47571e-10
-1.07776e-10
-3.14974e-10
-1.21209e-10
-2.70946e-10
-1.84203e-10
-2.18202e-10
-2.01023e-10
-1.42874e-10
-2.97601e-10
-5.81092e-11
-3.31938e-10
7.39029e-11
-5.17799e-10
2.20963e-10
-5.89836e-10
4.98697e-10
-1.09519e-09
7.97201e-10
-1.18063e-09
1.77599e-09
-3.92882e-09
2.51089e-09
-2.9787e-09
-3.12388e-07
4.22502e-08
9.69815e-08
7.43993e-08
-1.06492e-07
9.6536e-08
3.44074e-09
1.12889e-07
-7.39493e-08
1.2255e-07
-4.25442e-08
1.09229e-07
6.22922e-08
8.45898e-08
1.10467e-07
7.381e-08
4.43474e-08
6.40124e-08
4.14259e-08
5.35741e-08
4.47041e-08
4.51462e-08
3.53542e-08
3.73636e-08
3.28336e-08
3.10875e-08
2.61977e-08
2.5355e-08
2.39695e-08
2.08713e-08
1.86397e-08
1.68101e-08
1.68804e-08
1.34697e-08
1.38511e-08
1.06419e-08
1.17032e-08
8.14029e-09
1.03444e-08
6.16271e-09
8.15971e-09
4.43194e-09
7.13852e-09
2.96114e-09
6.05815e-09
1.78817e-09
4.82324e-09
7.78952e-10
4.14333e-09
-3.42934e-11
3.33465e-09
-6.81267e-10
2.65245e-09
-1.21226e-09
2.174e-09
-1.61256e-09
1.64001e-09
-1.91794e-09
1.24472e-09
-2.14513e-09
9.2229e-10
-2.2942e-09
6.02106e-10
-2.38986e-09
3.84199e-10
-2.43634e-09
1.82894e-10
-2.44376e-09
2.43685e-11
-2.42078e-09
-1.00646e-10
-2.37266e-09
-1.94541e-10
-2.3074e-09
-2.68107e-10
-2.22669e-09
-3.30751e-10
-2.1378e-09
-3.57723e-10
-2.04217e-09
-3.91813e-10
-1.94131e-09
-4.1282e-10
-1.84081e-09
-4.06037e-10
-1.739e-09
-4.1098e-10
-1.6395e-09
-3.98708e-10
-1.54322e-09
-3.77221e-10
-1.45016e-09
-3.64383e-10
-1.3628e-09
-3.39048e-10
-1.2791e-09
-3.24845e-10
-1.20006e-09
-3.08502e-10
-1.12463e-09
-2.94281e-10
-1.05241e-09
-2.84019e-10
-9.83618e-10
-2.76207e-10
-9.17321e-10
-2.6029e-10
-8.6508e-10
-1.98586e-10
-8.16468e-10
-1.90866e-10
-7.72726e-10
-1.78897e-10
-7.31024e-10
-1.67676e-10
-6.93492e-10
-1.53585e-10
-6.60373e-10
-1.34215e-10
-6.30206e-10
-1.25932e-10
-6.03165e-10
-1.12802e-10
-5.79169e-10
-1.06901e-10
-5.5792e-10
-8.72793e-11
-5.39757e-10
-7.6526e-11
-5.24011e-10
-6.74324e-11
-5.11075e-10
-5.9932e-11
-5.00428e-10
-4.52652e-11
-4.92159e-10
-3.69809e-11
-4.86074e-10
-2.89899e-11
-4.81854e-10
-2.3994e-11
-4.79514e-10
-1.26209e-11
-4.78954e-10
-6.46915e-12
-4.79762e-10
1.07588e-13
-4.82101e-10
-3.74086e-12
-4.85359e-10
-8.25552e-13
-4.89606e-10
3.86693e-12
-4.94556e-10
1.46655e-11
-5.00005e-10
1.14347e-11
-5.05658e-10
9.58845e-12
-5.11077e-10
1.32662e-11
-5.16188e-10
1.28048e-11
-5.2044e-10
1.63089e-11
-5.23537e-10
4.4417e-12
-5.24911e-10
3.74515e-12
-5.24085e-10
-9.14904e-12
-5.20483e-10
-1.35769e-11
-5.13285e-10
-3.65645e-11
-5.01855e-10
-4.49427e-11
-4.84914e-10
-7.43669e-11
-4.61834e-10
-8.69593e-11
-4.30487e-10
-1.39967e-10
-3.90146e-10
-1.60285e-10
-3.35695e-10
-2.39535e-10
-2.70454e-10
-2.65126e-10
-1.77359e-10
-3.90286e-10
-7.25564e-11
-4.35772e-10
9.04644e-11
-6.80324e-10
2.72149e-10
-7.7312e-10
6.14672e-10
-1.43635e-09
9.82522e-10
-1.54665e-09
2.18198e-09
-5.12639e-09
3.08527e-09
-3.88095e-09
-3.54213e-07
4.49114e-08
1.1807e-07
8.51976e-08
-1.28871e-07
1.17758e-07
3.75394e-09
1.37097e-07
-9.32876e-08
1.48691e-07
-5.41366e-08
1.33198e-07
7.77868e-08
1.03936e-07
1.39731e-07
9.06508e-08
5.76341e-08
7.86726e-08
5.34059e-08
6.60009e-08
5.73773e-08
5.56671e-08
4.56901e-08
4.61488e-08
4.23534e-08
3.84329e-08
3.39159e-08
3.13902e-08
3.10148e-08
2.58656e-08
2.41673e-08
2.08617e-08
2.18874e-08
1.67394e-08
1.79768e-08
1.32473e-08
1.51979e-08
1.01561e-08
1.34388e-08
7.70985e-09
1.06084e-08
5.56781e-09
9.28398e-09
3.74633e-09
7.88281e-09
2.292e-09
6.28114e-09
1.04012e-09
5.39773e-09
3.01739e-11
4.34811e-09
-7.74295e-10
3.46047e-09
-1.4353e-09
2.83941e-09
-1.9346e-09
2.14387e-09
-2.31641e-09
1.63066e-09
-2.60144e-09
1.21159e-09
-2.78953e-09
7.94244e-10
-2.9114e-09
5.10372e-10
-2.97231e-09
2.48196e-10
-2.98461e-09
4.11262e-11
-2.95914e-09