/*--------------------------------*- C++ -*----------------------------------*\
| =========                 |                                                 |
| \\      /  F ield         | OpenFOAM: The Open Source CFD Toolbox           |
|  \\    /   O peration     | Version:  5.x                                   |
|   \\  /    A nd           | Web:      www.OpenFOAM.org                      |
|    \\/     M anipulation  |                                                 |
\*---------------------------------------------------------------------------*/
FoamFile
{
    version     2.0;
    format      ascii;
    class       surfaceScalarField;
    location    "2500";
    object      phi;
}
// * * * * * * * * * * * * * * * * * * * * * * * * * * * * * * * * * * * * * //

dimensions      [0 3 -1 0 0 0 0];

internalField   nonuniform List<scalar> 
215247
(
1.73077e-11
7.02082e-13
-1.89597e-11
1.66829e-11
6.24832e-13
1.98236e-11
-3.14076e-12
2.29564e-11
-3.13276e-12
2.22173e-11
7.3913e-13
1.8332e-11
3.8853e-12
1.71773e-11
1.15464e-12
1.58839e-11
1.29338e-12
1.44103e-11
1.47363e-12
1.31251e-11
1.28523e-12
1.18963e-11
1.22882e-12
1.08639e-11
1.03232e-12
9.86848e-12
9.95452e-13
9.0653e-12
8.03194e-13
8.2904e-12
7.74885e-13
7.62477e-12
6.65643e-13
7.02576e-12
5.99005e-13
6.4596e-12
5.66158e-13
5.98172e-12
4.77878e-13
5.52949e-12
4.52226e-13
5.10874e-12
4.20751e-13
4.74129e-12
3.67456e-13
4.38907e-12
3.52209e-13
4.06702e-12
3.22042e-13
3.77599e-12
2.91045e-13
3.49589e-12
2.80089e-13
3.24297e-12
2.52926e-13
3.00791e-12
2.3506e-13
2.78133e-12
2.26575e-13
2.57957e-12
2.01766e-13
2.38725e-12
1.9232e-13
2.20407e-12
1.83176e-13
2.03811e-12
1.65955e-13
1.87898e-12
1.59129e-13
1.73016e-12
1.48816e-13
1.59269e-12
1.37478e-13
1.46058e-12
1.32099e-13
1.33898e-12
1.216e-13
1.22416e-12
1.14825e-13
1.11491e-12
1.0925e-13
1.01436e-12
1.00546e-13
9.18295e-13
9.60629e-14
8.28694e-13
8.96001e-14
7.44588e-13
8.41006e-14
6.64833e-13
7.97574e-14
5.91046e-13
7.37785e-14
5.20938e-13
7.01141e-14
4.55724e-13
6.52063e-14
3.94365e-13
6.13639e-14
3.3684e-13
5.7523e-14
2.83159e-13
5.36809e-14
2.32516e-13
5.06383e-14
1.93718e-13
3.87987e-14
1.58302e-13
3.54106e-14
1.26065e-13
3.22415e-14
9.59094e-14
3.0151e-14
6.83805e-14
2.75308e-14
4.31317e-14
2.52447e-14
1.95104e-14
2.36231e-14
-2.45713e-15
2.1964e-14
-2.29944e-14
2.05384e-14
-4.22511e-14
1.92533e-14
-6.03169e-14
1.80671e-14
-7.73448e-14
1.70245e-14
-9.33732e-14
1.60297e-14
-1.08555e-13
1.51782e-14
-1.2289e-13
1.4337e-14
-1.36456e-13
1.35627e-14
-1.4929e-13
1.28353e-14
-1.61359e-13
1.20666e-14
-1.72747e-13
1.13884e-14
-1.83318e-13
1.05681e-14
-1.93063e-13
9.74426e-15
-2.0187e-13
8.80395e-15
-2.09568e-13
7.69929e-15
-2.16045e-13
6.47403e-15
-2.20973e-13
4.92852e-15
-2.24123e-13
3.14584e-15
-2.25064e-13
9.42956e-16
-2.23402e-13
-1.66496e-15
-2.18483e-13
-4.91801e-15
-2.09799e-13
-8.6886e-15
-1.96318e-13
-1.34782e-14
-1.77335e-13
-1.89868e-14
-1.51469e-13
-2.58652e-14
-1.17502e-13
-3.39709e-14
-7.37233e-14
-4.37767e-14
-1.79664e-14
-5.57619e-14
5.18454e-14
-6.98089e-14
1.39689e-13
-8.7851e-14
2.4803e-13
-1.08336e-13
3.87499e-13
-1.39486e-13
5.52191e-13
-1.64676e-13
7.79357e-13
-2.27167e-13
1.0362e-12
-2.56838e-13
1.42404e-12
-3.87839e-13
1.86526e-12
-4.409e-13
2.6639e-12
-7.98961e-13
3.57664e-12
-9.12714e-13
6.23919e-12
-2.6626e-12
9.49557e-12
-3.25643e-12
-2.12194e-09
2.13144e-09
5.73564e-11
5.41298e-12
-6.20673e-11
5.50923e-11
2.88887e-12
6.5532e-11
-1.35805e-11
7.55709e-11
-1.31716e-11
7.32131e-11
3.09701e-12
6.07118e-11
1.63865e-11
5.67472e-11
5.11918e-12
5.25627e-11
5.47792e-12
4.76604e-11
6.37594e-12
4.34494e-11
5.49615e-12
3.93766e-11
5.30168e-12
3.59732e-11
4.43568e-12
3.26783e-11
4.29032e-12
3.00232e-11
3.45836e-12
2.7458e-11
3.34008e-12
2.52561e-11
2.86757e-12
2.32718e-11
2.58328e-12
2.13983e-11
2.43967e-12
1.98153e-11
2.06087e-12
1.83177e-11
1.9498e-12
1.69245e-11
1.81394e-12
1.57072e-11
1.58477e-12
1.45406e-11
1.51877e-12
1.34741e-11
1.38852e-12
1.25098e-11
1.25535e-12
1.15822e-11
1.20776e-12
1.07444e-11
1.09065e-12
9.96564e-12
1.01387e-12
9.21524e-12
9.76966e-13
8.54682e-12
8.7019e-13
7.9097e-12
8.29438e-13
7.30303e-12
7.89842e-13
6.75321e-12
7.1577e-13
6.22608e-12
6.86254e-13
5.73311e-12
6.41774e-13
5.27767e-12
5.9293e-13
4.84008e-12
5.69677e-13
4.43729e-12
5.244e-13
4.05687e-12
4.95237e-13
3.69499e-12
4.71131e-13
3.36188e-12
4.33655e-13
3.04366e-12
4.14276e-13
2.74684e-12
3.86415e-13
2.4682e-12
3.6273e-13
2.20401e-12
3.43959e-13
1.95955e-12
3.18218e-13
1.7273e-12
3.02371e-13
1.51125e-12
2.8125e-13
1.30798e-12
2.64642e-13
1.1174e-12
2.48099e-13
9.39553e-13
2.31523e-13
7.71767e-13
2.18417e-13
6.4325e-13
1.67316e-13
5.25895e-13
1.52758e-13
4.19073e-13
1.39068e-13
3.19166e-13
1.30052e-13
2.27941e-13
1.18758e-13
1.44273e-13
1.08907e-13
6.6006e-14
1.01892e-13
-6.78877e-15
9.47538e-14
-7.48368e-14
8.8588e-14
-1.38646e-13
8.30568e-14
-1.98506e-13
7.79285e-14
-2.54925e-13
7.3439e-14
-3.08034e-13
6.91399e-14
-3.58332e-13
6.54715e-14
-4.0583e-13
6.18361e-14
-4.50774e-13
5.8502e-14
-4.93294e-13
5.53566e-14
-5.33279e-13
5.20473e-14
-5.71004e-13
4.91139e-14
-6.06025e-13
4.5585e-14
-6.38303e-13
4.20211e-14
-6.67481e-13
3.7977e-14
-6.92984e-13
3.32044e-14
-7.14442e-13
2.79276e-14
-7.30779e-13
2.12649e-14
-7.41223e-13
1.3583e-14
-7.44361e-13
4.08454e-15
-7.38882e-13
-7.14929e-15
-7.2263e-13
-2.11681e-14
-6.93913e-13
-3.74115e-14
-6.49338e-13
-5.80504e-14
-5.86548e-13
-8.17824e-14
-5.01005e-13
-1.11406e-13
-3.88637e-13
-1.46345e-13
-2.43873e-13
-1.88538e-13
-5.93915e-14
-2.4025e-13
1.71398e-13
-3.00595e-13
4.62105e-13
-3.78568e-13
8.20104e-13
-4.66328e-13
1.28182e-12
-6.01224e-13
1.82556e-12
-7.08395e-13
2.57804e-12
-9.79654e-13
3.42479e-12
-1.10358e-12
4.71062e-12
-1.67367e-12
6.16191e-12
-1.89176e-12
8.81083e-12
-3.44832e-12
1.18013e-11
-3.90315e-12
2.05948e-11
-1.14561e-11
2.90261e-11
-1.16879e-11
-4.38899e-09
2.29607e-09
1.06493e-10
1.34564e-11
-1.14536e-10
1.02259e-10
7.12326e-12
1.21571e-10
-3.28927e-11
1.39842e-10
-3.14425e-11
1.3559e-10
7.34871e-12
1.1281e-10
3.91663e-11
1.05316e-10
1.26137e-11
9.76185e-11
1.31752e-11
8.85149e-11
1.54795e-11
8.07298e-11
1.32812e-11
7.31678e-11
1.28637e-11
6.68563e-11
1.07472e-11
6.07379e-11
1.04086e-11
5.58071e-11
8.38923e-12
5.10415e-11
8.10563e-12
4.69509e-11
6.95821e-12
4.32625e-11
6.27163e-12
3.97814e-11
5.92079e-12
3.68386e-11
5.00369e-12
3.40549e-11
4.73344e-12
3.14655e-11
4.40338e-12
2.92023e-11
3.84799e-12
2.70337e-11
3.6873e-12
2.50513e-11
3.37092e-12
2.32584e-11
3.04827e-12
2.1534e-11
2.9322e-12
1.99767e-11
2.64792e-12
1.85287e-11
2.46186e-12
1.71339e-11
2.37182e-12
1.58912e-11
2.11287e-12
1.47067e-11
2.01391e-12
1.3579e-11
1.91759e-12
1.25568e-11
1.73793e-12
1.15768e-11
1.66621e-12
1.06605e-11
1.55813e-12
9.81371e-12
1.43969e-12
9.00025e-12
1.38313e-12
8.25145e-12
1.2732e-12
7.54423e-12
1.20246e-12
6.87151e-12
1.14385e-12
6.25224e-12
1.05293e-12
5.66065e-12
1.00586e-12
5.10886e-12
9.382e-13
4.59085e-12
8.80734e-13
4.0997e-12
8.35114e-13
3.64525e-12
7.72662e-13
3.21347e-12
7.34152e-13
2.81181e-12
6.82908e-13
2.4339e-12
6.42552e-13
2.07959e-12
6.02411e-13
1.74895e-12
5.62158e-13
1.43701e-12
5.30353e-13
1.1981e-12
4.06226e-13
9.79898e-13
3.70959e-13
7.81272e-13
3.37697e-13
5.95526e-13
3.15793e-13
4.25896e-13
2.88389e-13
2.70319e-13
2.6448e-13
1.24794e-13
2.47419e-13
-1.05628e-14
2.30106e-13
-1.37086e-13
2.15112e-13
-2.5573e-13
2.01697e-13
-3.67028e-13
1.89228e-13
-4.71928e-13
1.78336e-13
-5.70673e-13
1.67885e-13
-6.64188e-13
1.58983e-13
-7.52496e-13
1.50145e-13
-8.36052e-13
1.42055e-13
-9.15102e-13
1.34408e-13
-9.89438e-13
1.2638e-13
-1.05957e-12
1.19246e-13
-1.12467e-12
1.10685e-13
-1.18468e-12
1.02025e-13
-1.23892e-12
9.22182e-14
-1.28633e-12
8.0618e-14
-1.32623e-12
6.78205e-14
-1.35662e-12
5.16513e-14
-1.37605e-12
3.30109e-14
-1.38192e-12
9.95754e-15
-1.37178e-12
-1.72942e-14
-1.34164e-12
-5.13073e-14
-1.28835e-12
-9.07085e-14
-1.20562e-12
-1.40779e-13
-1.08906e-12
-1.98347e-13
-9.30266e-13
-2.70194e-13
-7.21653e-13
-3.54963e-13
-4.52941e-13
-4.57249e-13
-1.10433e-13
-5.82763e-13
3.17915e-13
-7.2894e-13
8.57665e-13
-9.18326e-13
1.52197e-12
-1.13063e-12
2.37929e-12
-1.45856e-12
3.38786e-12
-1.71695e-12
4.78526e-12
-2.37705e-12
6.35482e-12
-2.67313e-12
8.74306e-12
-4.0619e-12
1.14301e-11
-4.57848e-12
1.6349e-11
-8.36754e-12
2.1872e-11
-9.42609e-12
3.8146e-11
-2.77303e-11
5.30113e-11
-2.65532e-11
-6.80912e-09
2.47314e-09
1.66218e-10
2.53266e-11
-1.78088e-10
1.59819e-10
1.35227e-11
1.89724e-10
-6.27978e-11
2.17801e-10
-5.95194e-11
2.1135e-10
1.37996e-11
1.7635e-10
7.41664e-11
1.64525e-10
2.4438e-11
1.52545e-10
2.51553e-11
1.3836e-10
2.96647e-11
1.26224e-10
2.54171e-11
1.14423e-10
2.46653e-11
1.04565e-10
2.06046e-11
9.50081e-11
1.99658e-11
8.72995e-11
1.60977e-11
7.98503e-11
1.55549e-11
7.34537e-11
1.33549e-11
6.76848e-11
1.20405e-11
6.22406e-11
1.13649e-11
5.76369e-11
9.60746e-12
5.32823e-11
9.08796e-12
4.92319e-11
8.45387e-12
4.56907e-11
7.38913e-12
4.22982e-11
7.07977e-12
3.9197e-11
6.47213e-12
3.63916e-11
5.85365e-12
3.36939e-11
5.62997e-12
3.12576e-11
5.08422e-12
2.8992e-11
4.72744e-12
2.68099e-11
4.55394e-12
2.48656e-11
4.05716e-12
2.30124e-11
3.8671e-12
2.12482e-11
3.68178e-12
1.96489e-11
3.33721e-12
1.81158e-11
3.19936e-12
1.66821e-11
2.99173e-12
1.53574e-11
2.76449e-12
1.40847e-11
2.65575e-12
1.29132e-11
2.44468e-12
1.18068e-11
2.30895e-12
1.07543e-11
2.19629e-12
9.78543e-12
2.0218e-12
8.85989e-12
1.9314e-12
7.99664e-12
1.80145e-12
7.18619e-12
1.69117e-12
6.41778e-12
1.60353e-12
5.70675e-12
1.48367e-12
5.03123e-12
1.40968e-12
4.4028e-12
1.31133e-12
3.81155e-12
1.23381e-12
3.25719e-12
1.15677e-12
2.73988e-12
1.07946e-12
2.25182e-12
1.01841e-12
1.87805e-12
7.79995e-13
1.5366e-12
7.12394e-13
1.22579e-12
6.48516e-13
9.35158e-13
6.06417e-13
6.69709e-13
5.53841e-13
4.2625e-13
5.07933e-13
1.98536e-13
4.75135e-13
-1.32735e-14
4.41911e-13
-2.11252e-13
4.13092e-13
-3.96904e-13
3.87343e-13
-5.71058e-13
3.63383e-13
-7.35199e-13
3.42471e-13
-8.89704e-13
3.22391e-13
-1.03603e-12
3.05299e-13
-1.17419e-12
2.88315e-13
-1.30493e-12
2.72783e-13
-1.42861e-12
2.58087e-13
-1.54491e-12
2.42679e-13
-1.65463e-12
2.28964e-13
-1.75648e-12
2.12536e-13
-1.85035e-12
1.95896e-13
-1.93522e-12
1.7708e-13
-2.0094e-12
1.548e-13
-2.07183e-12
1.30242e-13
-2.11939e-12
9.92116e-14
-2.14982e-12
6.34375e-14
-2.15907e-12
1.92022e-14
-2.14328e-12
-3.3087e-14
-2.09624e-12
-9.83419e-14
-2.01303e-12
-1.73931e-13
-1.88381e-12
-2.69989e-13
-1.70174e-12
-3.80422e-13
-1.4537e-12
-5.18233e-13
-1.12782e-12
-6.80853e-13
-7.08064e-13
-8.77002e-13
-1.73014e-13
-1.11782e-12
4.96069e-13
-1.39802e-12
1.33921e-12
-1.76148e-12
2.37674e-12
-2.16815e-12
3.71586e-12
-2.7977e-12
5.29075e-12
-3.29183e-12
7.47324e-12
-4.55954e-12
9.92326e-12
-5.12315e-12
1.36526e-11
-7.79126e-12
1.7844e-11
-8.76944e-12
2.55206e-11
-1.60446e-11
3.41177e-11
-1.80231e-11
5.94236e-11
-5.30363e-11
8.20399e-11
-4.91696e-11
-9.39051e-09
2.66343e-09
2.38362e-10
4.15451e-11
-2.5458e-10
2.29629e-10
2.22551e-11
2.72093e-10
-1.05262e-10
3.11771e-10
-9.9197e-11
3.02789e-10
2.27815e-11
2.53364e-10
1.23592e-10
2.36266e-10
4.15358e-11
2.19097e-10
4.23245e-11
1.98804e-10
4.99569e-11
1.81406e-10
4.28158e-11
1.64485e-10
4.15862e-11
1.5033e-10
3.4759e-11
1.36611e-10
3.36855e-11
1.25533e-10
2.71758e-11
1.1483e-10
2.62574e-11
1.05635e-10
2.25499e-11
9.73415e-11
2.03341e-11
8.95148e-11
1.91916e-11
8.28946e-11
1.62277e-11
7.66329e-11
1.53496e-11
7.08087e-11
1.42781e-11
6.57156e-11
1.24822e-11
6.0837e-11
1.19583e-11
5.63773e-11
1.09319e-11
5.23423e-11
9.88864e-12
4.84627e-11
9.50955e-12
4.4959e-11
8.58792e-12
4.17004e-11
7.98601e-12
3.85624e-11
7.69195e-12
3.57661e-11
6.85343e-12
3.31008e-11
6.53241e-12
3.05638e-11
6.2188e-12
2.82637e-11
5.63735e-12
2.60589e-11
5.40419e-12
2.39972e-11
5.0534e-12
2.20918e-11
4.66988e-12
2.02616e-11
4.48591e-12
1.85769e-11
4.12944e-12
1.69855e-11
3.90028e-12
1.5472e-11
3.70978e-12
1.40786e-11
3.41525e-12
1.27476e-11
3.26245e-12
1.1506e-11
3.04297e-12
1.03405e-11
2.85673e-12
9.23538e-12
2.70863e-12
8.21278e-12
2.50627e-12
7.24126e-12
2.3812e-12
6.33745e-12
2.21514e-12
5.48709e-12
2.08417e-12
4.6898e-12
1.95406e-12
3.94578e-12
1.82348e-12
3.24385e-12
1.72033e-12
2.7063e-12
1.31754e-12
2.21517e-12
1.20353e-12
1.76808e-12
1.09561e-12
1.35006e-12
1.02443e-12
9.68209e-13
9.35691e-13
6.17993e-13
8.58146e-13
2.90443e-13
8.02685e-13
-1.42361e-14
7.46587e-13
-2.99011e-13
6.97867e-13
-5.66055e-13
6.54384e-13
-8.16559e-13
6.13887e-13
-1.05265e-12
5.78563e-13
-1.27489e-12
5.44625e-13
-1.48534e-12
5.1575e-13
-1.68407e-12
4.87045e-13
-1.87209e-12
4.60803e-13
-2.04997e-12
4.35967e-13
-2.21723e-12
4.09937e-13
-2.37502e-12
3.86757e-13
-2.52151e-12
3.59017e-13
-2.6565e-12
3.30891e-13
-2.77856e-12
2.99133e-13
-2.88525e-12
2.61487e-13
-2.97504e-12
2.20034e-13
-3.04347e-12
1.67645e-13
-3.08729e-12
1.07253e-13
-3.10067e-12
3.25818e-14
-3.07809e-12
-5.56742e-14
-3.01062e-12
-1.65804e-13
-2.89119e-12
-2.93367e-13
-2.7057e-12
-4.55478e-13
-2.44431e-12
-6.41818e-13
-2.08818e-12
-8.74365e-13
-1.62028e-12
-1.14875e-12
-1.01759e-12
-1.47968e-12
-2.49392e-13
-1.88603e-12
7.11241e-13
-2.35865e-12
1.92171e-12
-2.97196e-12
3.41121e-12
-3.65765e-12
5.33348e-12
-4.71999e-12
7.59409e-12
-5.55242e-12
1.07264e-11
-7.69186e-12
1.42423e-11
-8.63902e-12
1.9593e-11
-1.3142e-11
2.56042e-11
-1.47804e-11
3.661e-11
-2.70507e-11
4.89151e-11
-3.03281e-11
8.50538e-11
-8.9175e-11
1.16948e-10
-8.10639e-11
-1.21414e-08
2.86786e-09
3.25042e-10
6.2652e-11
-3.46149e-10
3.13853e-10
3.34441e-11
3.71116e-10
-1.62525e-10
4.24431e-10
-1.52512e-10
4.12562e-10
3.46505e-11
3.4622e-10
1.89934e-10
3.22737e-10
6.50183e-11
2.99314e-10
6.57472e-11
2.71723e-10
7.75479e-11
2.47992e-10
6.65468e-11
2.24923e-10
6.46551e-11
2.05589e-10
5.40931e-11
1.86857e-10
5.24176e-11
1.71713e-10
4.23202e-11
1.57087e-10
4.08833e-11
1.44513e-10
3.51234e-11
1.33172e-10
3.16757e-11
1.22468e-10
2.98952e-11
1.13412e-10
2.52837e-11
1.04847e-10
2.3915e-11
9.68804e-11
2.22446e-11
8.99121e-11
1.94506e-11
8.32383e-11
1.86321e-11
7.71375e-11
1.70327e-11
7.16167e-11
1.54095e-11
6.63094e-11
1.48169e-11
6.15161e-11
1.33812e-11
5.70577e-11
1.24444e-11
5.2765e-11
1.19847e-11
4.89392e-11
1.06791e-11
4.52928e-11
1.01789e-11
4.18221e-11
9.68948e-12
3.86752e-11
8.78419e-12
3.56588e-11
8.42064e-12
3.28384e-11
7.87378e-12
3.02315e-11
7.27676e-12
2.77278e-11
6.98968e-12
2.54229e-11
6.43431e-12
2.32458e-11
6.07739e-12
2.11752e-11
5.78034e-12
1.92688e-11
5.3216e-12
1.74479e-11
5.08341e-12
1.57494e-11
4.74145e-12
1.41548e-11
4.45136e-12
1.26429e-11
4.2205e-12
1.12438e-11
3.9053e-12
9.91469e-12
3.71036e-12
8.67814e-12
3.45167e-12
7.51473e-12
3.24758e-12
6.42391e-12
3.04488e-12
5.40596e-12
2.84143e-12
4.4456e-12
2.68068e-12
3.7102e-12
2.05294e-12
3.03816e-12
1.87556e-12
2.42636e-12
1.70741e-12
1.8544e-12
1.59638e-12
1.33186e-12
1.45823e-12
8.52612e-13
1.33739e-12
4.04404e-13
1.25089e-12
-1.25182e-14
1.1635e-12
-4.02192e-13
1.08754e-12
-7.67602e-13
1.01979e-12
-1.11037e-12
9.56659e-13
-1.43342e-12
9.01606e-13
-1.73751e-12
8.48707e-13
-2.02545e-12
8.03695e-13
-2.29736e-12
7.58952e-13
-2.55461e-12
7.18047e-13
-2.79798e-12
6.79334e-13
-3.02681e-12
6.38765e-13
-3.24268e-12
6.02625e-13
-3.44308e-12
5.59414e-13
-3.62776e-12
5.15568e-13
-3.79474e-12
4.6611e-13
-3.94071e-12
4.07453e-13
-4.06358e-12
3.42897e-13
-4.15725e-12
2.61314e-13
-4.21727e-12
1.67269e-13
-4.2357e-12
5.10122e-14
-4.20498e-12
-8.63939e-14
-4.11295e-12
-2.57833e-13
-3.94993e-12
-4.56402e-13
-3.69666e-12
-7.08745e-13
-3.33972e-12
-9.98765e-13
-2.85337e-12
-1.36071e-12
-2.21439e-12
-1.78774e-12
-1.39131e-12
-2.30276e-12
-3.42255e-13
-2.93509e-12
9.69622e-13
-3.67053e-12
2.62249e-12
-4.62483e-12
4.65644e-12
-5.69159e-12
7.28083e-12
-7.3444e-12
1.03674e-11
-8.63893e-12
1.46427e-11
-1.19672e-11
1.94421e-11
-1.34384e-11
2.67424e-11
-2.04423e-11
3.49435e-11
-2.29811e-11
4.99464e-11
-4.20539e-11
6.66999e-11
-4.70815e-11
1.15756e-10
-1.38231e-10
1.5871e-10
-1.24018e-10
-1.50701e-08
3.08743e-09
4.28706e-10
8.91945e-11
-4.55248e-10
4.15003e-10
4.71466e-11
4.89607e-10
-2.37128e-10
5.58864e-10
-2.2177e-10
5.43731e-10
4.97837e-11
4.57668e-10
2.75997e-10
4.26497e-10
9.61893e-11
3.95573e-10
9.66711e-11
3.59302e-10
1.1382e-10
3.27988e-10
9.78605e-11
2.97569e-10
9.50737e-11
2.7202e-10
7.96425e-11
2.4728e-10
7.71579e-11
2.2725e-10
6.23501e-11
2.07913e-10
6.02197e-11
1.91279e-10
5.17578e-11
1.76274e-10
4.6681e-11
1.62111e-10
4.40574e-11
1.50126e-10
3.72689e-11
1.3879e-10
3.52509e-11
1.28247e-10
3.27874e-11
1.19023e-10
2.86749e-11
1.1019e-10
2.74651e-11
1.02115e-10
2.51075e-11
9.48069e-11
2.27178e-11
8.77823e-11
2.18415e-11
8.14377e-11
1.97258e-11
7.55359e-11
1.83461e-11
6.98542e-11
1.76665e-11
6.479e-11
1.57433e-11
5.99632e-11
1.50057e-11
5.53695e-11
1.42832e-11
5.12039e-11
1.29497e-11
4.72113e-11
1.24133e-11
4.34781e-11
1.16069e-11
4.00274e-11
1.07275e-11
3.67134e-11
1.03037e-11
3.36626e-11
9.48508e-12
3.07808e-11
8.9592e-12
2.80402e-11
8.52093e-12
2.55167e-11
7.84505e-12
2.31064e-11
7.49377e-12
2.08582e-11
6.98963e-12
1.87474e-11
6.56216e-12
1.67462e-11
6.22169e-12
1.48943e-11
5.7572e-12
1.31349e-11
5.46978e-12
1.1498e-11
5.08848e-12
9.958e-12
4.78762e-12
8.51404e-12
4.48884e-12
7.16651e-12
4.18895e-12
5.89527e-12
3.95192e-12
4.92183e-12
3.02638e-12
4.03212e-12
2.76527e-12
3.22211e-12
2.51741e-12
2.46493e-12
2.35356e-12
1.77308e-12
2.15008e-12
1.13854e-12
1.97193e-12
5.45137e-13
1.8443e-12
-6.85859e-15
1.7155e-12
-5.22762e-13
1.60344e-12
-1.00654e-12
1.50357e-12
-1.46034e-12
1.41046e-12
-1.88802e-12
1.32929e-12
-2.29059e-12
1.25127e-12
-2.67179e-12
1.1849e-12
-3.03174e-12
1.1189e-12
-3.37227e-12
1.05858e-12
-3.69442e-12
1.00149e-12
-3.99733e-12
9.41669e-13
-4.28306e-12
8.88358e-13
-4.54832e-12
8.24671e-13
-4.79277e-12
7.6001e-13
-5.0138e-12
6.8714e-13
-5.20701e-12
6.0067e-13
-5.36968e-12
5.05561e-13
-5.49374e-12
3.8537e-13
-5.57329e-12
2.46824e-13
-5.59787e-12
7.55848e-14
-5.55747e-12
-1.26795e-13
-5.43603e-12
-3.79267e-13
-5.22076e-12
-6.7168e-13
-4.88623e-12
-1.04327e-12
-4.41471e-12
-1.47028e-12
-3.77219e-12
-2.00324e-12
-2.92805e-12
-2.63188e-12
-1.84064e-12
-3.39017e-12
-4.54799e-13
-4.32094e-12
1.27833e-12
-5.40365e-12
3.4616e-12
-6.80811e-12
6.14846e-12
-8.37845e-12
9.61436e-12
-1.08103e-11
1.36912e-11
-1.27157e-11
1.93358e-11
-1.76118e-11
2.56737e-11
-1.97764e-11
3.53076e-11
-3.00762e-11
4.61317e-11
-3.38051e-11
6.59108e-11
-6.18331e-11
8.79754e-11
-6.91461e-11
1.52356e-10
-2.02612e-10
2.08435e-10
-1.80097e-10
-1.81849e-08
3.32321e-09
5.5218e-10
1.2171e-10
-5.84696e-10
5.36003e-10
6.33242e-11
6.30821e-10
-3.31947e-10
7.18616e-10
-3.09565e-10
6.99826e-10
6.85743e-11
5.90904e-10
3.84919e-10
5.50519e-10
1.36574e-10
5.10634e-10
1.36556e-10
4.64083e-10
1.60371e-10
4.23726e-10
1.38218e-10
3.84557e-10
1.34242e-10
3.51579e-10
1.12621e-10
3.19666e-10
1.09072e-10
2.93789e-10
8.82271e-11
2.68818e-10
8.51898e-11
2.47322e-10
7.32547e-11
2.27929e-10
6.60735e-11
2.09624e-10
6.2362e-11
1.9413e-10
5.27636e-11
1.79474e-10
4.99064e-11
1.65845e-10
4.64168e-11
1.53917e-10
4.06032e-11
1.42496e-10
3.88854e-11
1.32056e-10
3.55477e-11
1.22605e-10
3.2169e-11
1.13522e-10
3.09241e-11
1.05319e-10
2.79294e-11
9.76869e-11
2.5978e-11
9.03405e-11
2.50129e-11
8.3792e-11
2.22918e-11
7.75505e-11
2.12472e-11
7.16112e-11
2.02225e-11
6.62246e-11
1.83363e-11
6.10619e-11
1.75759e-11
5.6235e-11
1.64338e-11
5.17728e-11
1.51897e-11
4.74878e-11
1.45887e-11
4.3543e-11
1.34299e-11
3.98166e-11
1.26856e-11
3.6273e-11
1.20645e-11
3.301e-11
1.1108e-11
2.98933e-11
1.06105e-11
2.69863e-11
9.89663e-12
2.42569e-11
9.29159e-12
2.16692e-11
8.80938e-12
1.92745e-11
8.15187e-12
1.69994e-11
7.74485e-12
1.48829e-11
7.20506e-12
1.28914e-11
6.77909e-12
1.10242e-11
6.35607e-12
9.28161e-12
5.9315e-12
7.63774e-12
5.59578e-12
6.37901e-12
4.2851e-12
5.22833e-12
3.91594e-12
4.18068e-12
3.56507e-12
3.20147e-12
3.33277e-12
2.30661e-12
3.04494e-12
1.48586e-12
2.79267e-12
7.18379e-13
2.61178e-12
4.43442e-15
2.42944e-12
-6.62807e-13
2.27069e-12
-1.2885e-12
2.12925e-12
-1.87541e-12
1.99738e-12
-2.42853e-12
1.88239e-12
-2.94916e-12
1.77189e-12
-3.44213e-12
1.67787e-12
-3.90762e-12
1.58439e-12
-4.34799e-12
1.49894e-12
-4.76457e-12
1.41808e-12
-5.15625e-12
1.33334e-12
-5.52572e-12
1.25782e-12
-5.86871e-12
1.16766e-12
-6.18478e-12
1.07607e-12
-6.47059e-12
9.72948e-13
-6.72044e-12
8.50524e-13
-6.93082e-12
7.15938e-13
-7.09133e-12
5.45871e-13
-7.19435e-12
3.4984e-13
-7.22637e-12
1.0761e-13
-7.1745e-12
-1.78678e-13
-7.018e-12
-5.35761e-13
-6.74037e-12
-9.49317e-13
-6.3088e-12
-1.47485e-12
-5.70044e-12
-2.07865e-12
-4.87135e-12
-2.83232e-12
-3.78213e-12
-3.72111e-12
-2.37894e-12
-4.79336e-12
-5.90817e-13
-6.10906e-12
1.64555e-12
-7.64002e-12
4.46223e-12
-9.62481e-12
7.92897e-12
-1.18452e-11
1.23994e-11
-1.52808e-11
1.76589e-11
-1.79752e-11
2.49372e-11
-2.48901e-11
3.31122e-11
-2.79514e-11
4.55278e-11
-4.24917e-11
5.94812e-11
-4.77582e-11
8.49437e-11
-8.72959e-11
1.13323e-10
-9.75253e-11
1.95799e-10
-2.85088e-10
2.67387e-10
-2.51685e-10
-2.14939e-08
3.57632e-09
6.98723e-10
1.60705e-10
-7.37718e-10
6.80239e-10
8.18077e-11
7.98511e-10
-4.50218e-10
9.07757e-10
-4.18811e-10
8.84907e-10
9.14245e-11
7.4963e-10
5.20196e-10
6.98251e-10
1.87953e-10
6.47703e-10
1.87104e-10
5.89026e-10
2.19048e-10
5.37923e-10
1.8932e-10
4.88376e-10
1.83789e-10
4.46551e-10
1.54446e-10
4.06101e-10
1.49521e-10
3.7325e-10
1.21078e-10
3.41565e-10
1.16875e-10
3.14265e-10
1.00555e-10
2.89636e-10
9.07019e-11
2.66387e-10
8.56115e-11
2.46701e-10
7.24493e-11
2.28081e-10
6.85262e-11
2.10766e-10
6.3732e-11
1.95607e-10
5.57618e-11
1.81096e-10
5.33962e-11
1.67831e-10
4.88133e-11
1.5582e-10
4.41801e-11
1.44279e-10
4.24648e-11
1.33854e-10
3.83539e-11
1.24156e-10
3.5677e-11
1.14821e-10
3.43475e-11
1.06499e-10
3.06137e-11
9.85674e-11
2.91788e-11
9.10206e-11
2.77694e-11
8.41753e-11
2.51815e-11
7.76151e-11
2.41362e-11
7.14815e-11
2.25674e-11
6.58109e-11
2.08602e-11
6.03659e-11
2.00337e-11
5.53532e-11
1.84426e-11
5.06178e-11
1.7421e-11
4.61149e-11
1.65674e-11
4.19685e-11
1.52545e-11
3.80079e-11
1.4571e-11
3.43139e-11
1.35907e-11
3.08454e-11
1.27601e-11
2.75571e-11
1.20977e-11
2.45139e-11
1.1195e-11
2.16228e-11
1.0636e-11
1.8933e-11
9.89479e-12
1.64022e-11
9.30988e-12
1.40293e-11
8.72902e-12
1.18147e-11
8.14603e-12
9.72571e-12
7.68482e-12
8.12615e-12
5.88466e-12
6.66362e-12
5.37848e-12
5.33195e-12
4.89674e-12
4.08743e-12
4.57729e-12
2.94993e-12
4.18244e-12
1.90664e-12
3.83596e-12
9.31109e-13
3.58731e-12
2.36138e-14
3.33693e-12
-8.2449e-13
3.11879e-12
-1.61978e-12
2.92454e-12
-2.36577e-12
2.74336e-12
-3.06878e-12
2.5854e-12
-3.73049e-12
2.4336e-12
-4.35704e-12
2.30442e-12
-4.94862e-12
2.17597e-12
-5.50826e-12
2.05858e-12
-6.03768e-12
1.94749e-12
-6.53542e-12
1.83108e-12
-7.00491e-12
1.72731e-12
-7.44076e-12
1.60351e-12
-7.84239e-12
1.4777e-12
-8.20559e-12
1.33615e-12
-8.52311e-12
1.16804e-12
-8.79052e-12
9.83341e-13
-8.9946e-12
7.49958e-13
-9.12573e-12
4.80962e-13
-9.16676e-12
1.48645e-13
-9.10134e-12
-2.44106e-13
-8.9032e-12
-7.33901e-13
-8.55139e-12
-1.30112e-12
-8.00433e-12
-2.02192e-12
-7.23308e-12
-2.84989e-12
-6.18189e-12
-3.88352e-12
-4.80093e-12
-5.10207e-12
-3.02177e-12
-6.57253e-12
-7.54808e-13
-8.37602e-12
2.08066e-12
-1.04755e-11
5.65115e-12
-1.31953e-11
1.00462e-11
-1.62403e-11
1.57117e-11
-2.09463e-11
2.23788e-11
-2.46423e-11
3.15994e-11
-3.41106e-11
4.19601e-11
-3.83121e-11
5.76797e-11
-5.82113e-11
7.53531e-11
-6.54316e-11
1.07553e-10
-1.19496e-10
1.43412e-10
-1.33384e-10
2.47167e-10
-3.88843e-10
3.37008e-10
-3.41527e-10
-2.50048e-08
3.84799e-09
8.72086e-10
2.06625e-10
-9.18006e-10
8.51641e-10
1.02253e-10
9.97001e-10
-5.95579e-10
1.13095e-09
-5.52763e-10
1.10364e-09
1.18736e-10
9.38136e-10
6.85702e-10
8.73697e-10
2.52392e-10
8.10498e-10
2.50303e-10
7.37569e-10
2.91977e-10
6.73741e-10
2.53148e-10
6.11924e-10
2.45606e-10
5.59594e-10
2.06777e-10
5.0902e-10
2.00094e-10
4.67875e-10
1.62223e-10
4.28209e-10
1.56542e-10
3.94003e-10
1.3476e-10
3.63144e-10
1.21561e-10
3.34008e-10
1.14747e-10
3.09331e-10
9.71258e-11
2.85991e-10
9.1867e-11
2.64286e-10
8.54362e-11
2.45279e-10
7.4769e-11
2.27088e-10
7.15877e-11
2.10457e-10
6.54441e-11
1.95396e-10
5.92414e-11
1.80927e-10
5.69336e-11
1.67857e-10
5.14238e-11
1.55695e-10
4.78386e-11
1.43992e-10
4.60504e-11
1.33558e-10
4.10482e-11
1.23613e-10
3.9124e-11
1.14151e-10
3.72308e-11
1.05568e-10
3.37645e-11
9.73428e-11
3.23615e-11
8.96529e-11
3.02573e-11
8.25427e-11
2.79705e-11
7.57159e-11
2.68605e-11
6.94309e-11
2.47276e-11
6.34936e-11
2.33584e-11
5.7848e-11
2.2213e-11
5.2649e-11
2.04535e-11
4.76832e-11
1.95368e-11
4.30516e-11
1.82223e-11
3.87026e-11
1.7109e-11
3.45796e-11
1.62207e-11
3.07639e-11
1.50107e-11
2.71389e-11
1.42611e-11
2.37663e-11
1.32674e-11
2.05929e-11
1.24832e-11
1.76175e-11
1.17045e-11
1.48406e-11
1.09229e-11
1.22211e-11
1.03042e-11
1.02156e-11
7.89022e-12
8.38138e-12
7.21266e-12
6.71123e-12
6.56689e-12
5.15056e-12
6.13795e-12
3.72386e-12
5.60914e-12
2.4153e-12
5.14451e-12
1.19183e-12
4.81077e-12
5.36617e-14
4.4751e-12
-1.00999e-12
4.18244e-12
-2.00739e-12
3.92194e-12
-2.94295e-12
3.67893e-12
-3.8246e-12
3.46704e-12
-4.65442e-12
3.26343e-12
-5.44012e-12
3.09011e-12
-6.18197e-12
2.91782e-12
-6.88373e-12
2.76033e-12
-7.54756e-12
2.61133e-12
-8.17166e-12
2.45517e-12
-8.76032e-12
2.31597e-12
-9.3068e-12
2.14998e-12
-9.81033e-12
1.98123e-12
-1.02657e-11
1.79155e-12
-1.06639e-11
1.56619e-12
-1.09992e-11
1.3187e-12
-1.12553e-11
1.00602e-12
-1.142e-11
6.45643e-13
-1.14719e-11
2.00557e-13
-1.13905e-11
-3.25473e-13
-1.11431e-11
-9.81355e-13
-1.07033e-11
-1.74087e-12
-1.00193e-11
-2.70601e-12
-9.05472e-12
-3.81442e-12
-7.73991e-12
-5.19833e-12
-6.01271e-12
-6.82927e-12
-3.7873e-12
-8.79795e-12
-9.52098e-13
-1.12112e-11
2.59444e-12
-1.4022e-11
7.05926e-12
-1.76601e-11
1.25561e-11
-2.17371e-11
1.96388e-11
-2.8029e-11
2.7976e-11
-3.29795e-11
3.94985e-11
-4.5633e-11
5.24518e-11
-5.12655e-11
7.20832e-11
-7.78427e-11
9.41649e-11
-8.7513e-11
1.34326e-10
-1.59658e-10
1.79015e-10
-1.78072e-10
3.07692e-10
-5.17521e-10
4.18941e-10
-4.52776e-10
-2.87254e-08
4.13949e-09
1.07659e-09
2.59817e-10
-1.12978e-09
1.05475e-09
1.24085e-10
1.23127e-09
-7.72094e-10
1.39355e-09
-7.15044e-10
1.36139e-09
1.50895e-10
1.16139e-09
8.85705e-10
1.08149e-09
3.32287e-10
1.00334e-09
3.28459e-10
9.13709e-10
3.81604e-10
8.34857e-10
3.32001e-10
7.58575e-10
3.21887e-10
6.93807e-10
2.71545e-10
6.31258e-10
2.62643e-10
5.80276e-10
2.13205e-10
5.3115e-10
2.05668e-10
4.88748e-10
1.77162e-10
4.50492e-10
1.59817e-10
4.14368e-10
1.50872e-10
3.83763e-10
1.2773e-10
3.54814e-10
1.20816e-10
3.27897e-10
1.12354e-10
3.04316e-10
9.83496e-11
2.81751e-10
9.41525e-11
2.61122e-10
8.60733e-11
2.42436e-10
7.79277e-11
2.24488e-10
7.48815e-11
2.08274e-10
6.76373e-11
1.93186e-10
6.29271e-11
1.78669e-10
6.05673e-11
1.65724e-10
5.39935e-11
1.53386e-10
5.14619e-11
1.41649e-10
4.89675e-11
1.31001e-10
4.44126e-11
1.20797e-10
4.25654e-11
1.11258e-10
3.97967e-11
1.02437e-10
3.67916e-11
9.39679e-11
3.53292e-11
8.61712e-11
3.25243e-11
7.88054e-11
3.07242e-11
7.18019e-11
2.92165e-11
6.53521e-11
2.69033e-11
5.91917e-11
2.56971e-11
5.34459e-11
2.39681e-11
4.80506e-11
2.25043e-11
4.29357e-11
2.13356e-11
3.8202e-11
1.97444e-11
3.37046e-11
1.87584e-11
2.95205e-11
1.74516e-11
2.55834e-11
1.64203e-11
2.18919e-11
1.5396e-11
1.84466e-11
1.43682e-11
1.51969e-11
1.3554e-11
1.27087e-11
1.03783e-11
1.04328e-11
9.48864e-12
8.36017e-12
8.63949e-12
6.42369e-12
8.07443e-12
4.65314e-12
7.37969e-12
3.02919e-12
6.76846e-12
1.51094e-12
6.32902e-12
9.85058e-14
5.88753e-12
-1.2214e-12
5.50234e-12
-2.45909e-12
5.15964e-12
-3.62003e-12
4.83986e-12
-4.71402e-12
4.56102e-12
-5.7437e-12
4.29311e-12
-6.71859e-12
4.065e-12
-7.63905e-12
3.83828e-12
-8.50971e-12
3.63099e-12
-9.33332e-12
3.43493e-12
-1.01076e-11
3.22943e-12
-1.08378e-11
3.04623e-12
-1.15158e-11
2.82791e-12
-1.21404e-11
2.60588e-12
-1.27054e-11
2.35652e-12
-1.31994e-11
2.06014e-12
-1.36155e-11
1.73485e-12
-1.39334e-11
1.32391e-12
-1.41381e-11
8.50322e-13
-1.42031e-11
2.65576e-13
-1.41031e-11
-4.25513e-13
-1.37974e-11
-1.28703e-12
-1.32537e-11
-2.28461e-12
-1.24075e-11
-3.55222e-12
-1.12142e-11
-5.00768e-12
-9.58736e-12
-6.82517e-12
-7.45036e-12
-8.96627e-12
-4.69669e-12
-1.15516e-11
-1.189e-12
-1.47189e-11
3.19922e-12
-1.84102e-11
8.72219e-12
-2.31831e-11
1.55229e-11
-2.85378e-11
2.42817e-11
-3.67878e-11
3.45951e-11
-4.3293e-11
4.88381e-11
-5.9876e-11
6.48581e-11
-6.72855e-11
8.91077e-11
-1.02092e-10
1.16398e-10
-1.14804e-10
1.65937e-10
-2.09196e-10
2.21017e-10
-2.33152e-10
3.78781e-10
-6.75284e-10
5.15054e-10
-5.8905e-10
-3.26626e-08
4.45223e-09
1.31719e-09
3.20487e-10
-1.37786e-09
1.29484e-09
1.46438e-10
1.50703e-09
-9.84292e-10
1.70166e-09
-9.09668e-10
1.66429e-09
1.88261e-10
1.42512e-09
1.12488e-09
1.327e-09
4.30399e-10
1.23121e-09
4.24251e-10
1.12208e-09
4.90733e-10
1.02554e-09
4.28543e-10
9.32257e-10
4.15171e-10
8.528e-10
3.51001e-10
7.7612e-10
3.39323e-10
7.13499e-10
2.75827e-10
6.53186e-10
2.65982e-10
6.01078e-10
2.2927e-10
5.54062e-10
2.06833e-10
5.09659e-10
1.95275e-10
4.72029e-10
1.65361e-10
4.36433e-10
1.56412e-10
4.03336e-10
1.4545e-10
3.74332e-10
1.27354e-10
3.46583e-10
1.21901e-10
3.21214e-10
1.11443e-10
2.98228e-10
1.00913e-10
2.76156e-10
9.69541e-11
2.56215e-10
8.75781e-11
2.37655e-10
8.14866e-11
2.19802e-10
7.84205e-11
2.03879e-10
6.99162e-11
1.88704e-10
6.66373e-11
1.7427e-10
6.34015e-11
1.61173e-10
5.75099e-11
1.48623e-10
5.51152e-11
1.36891e-10
5.15289e-11
1.2604e-10
4.76417e-11
1.15625e-10
4.57447e-11
1.06036e-10
4.21136e-11
9.69758e-11
3.9784e-11
8.83623e-11
3.783e-11
8.04292e-11
3.48364e-11
7.28523e-11
3.32739e-11
6.57854e-11
3.10351e-11
5.91492e-11
2.91405e-11
5.28581e-11
2.76267e-11
4.70355e-11
2.5567e-11
4.15038e-11
2.42901e-11
3.63572e-11
2.25981e-11
3.15145e-11
2.1263e-11
2.69738e-11
1.99368e-11
2.27358e-11
1.86061e-11
1.87385e-11
1.75513e-11
1.56782e-11
1.34387e-11
1.28781e-11
1.22887e-11
1.0328e-11
1.11895e-11
7.94579e-12
1.04567e-11
5.76726e-12
9.55821e-12
3.76908e-12
8.76664e-12
1.90112e-12
8.19698e-12
1.63295e-13
7.62535e-12
-1.46062e-12
7.12625e-12
-2.98338e-12
6.68239e-12
-4.41168e-12
6.26816e-12
-5.75757e-12
5.90691e-12
-7.02433e-12
5.55986e-12
-8.22362e-12
5.26429e-12
-9.35592e-12
4.97057e-12
-1.04269e-11
4.70197e-12
-1.144e-11
4.44802e-12
-1.23923e-11
4.18176e-12
-1.32905e-11