/*--------------------------------*- C++ -*----------------------------------*\
| =========                 |                                                 |
| \\      /  F ield         | OpenFOAM: The Open Source CFD Toolbox           |
|  \\    /   O peration     | Version:  5.x                                   |
|   \\  /    A nd           | Web:      www.OpenFOAM.org                      |
|    \\/     M anipulation  |                                                 |
\*---------------------------------------------------------------------------*/
FoamFile
{
    version     2.0;
    format      ascii;
    class       surfaceScalarField;
    location    "2500";
    object      phi;
}
// * * * * * * * * * * * * * * * * * * * * * * * * * * * * * * * * * * * * * //

dimensions      [0 3 -1 0 0 0 0];

internalField   nonuniform List<scalar> 
215247
(
1.4718e-09
-5.71494e-08
-1.48924e-09
1.64657e-09
-1.74754e-10
2.11178e-09
-4.65023e-10
2.48295e-09
-3.71231e-10
2.32631e-09
1.56823e-10
1.883e-09
4.43239e-10
1.79926e-09
8.37684e-11
1.67485e-09
1.24451e-10
1.50759e-09
1.67295e-10
1.36898e-09
1.38656e-10
1.23017e-09
1.38856e-10
1.11349e-09
1.16754e-10
1.00028e-09
1.13275e-10
9.07994e-10
9.24173e-11
8.19285e-10
8.87713e-11
7.41796e-10
7.75733e-11
6.72636e-10
6.92284e-11
6.06209e-10
6.65148e-11
5.5022e-10
5.60656e-11
4.96985e-10
5.33287e-11
4.46855e-10
5.02227e-11
4.03162e-10
4.37956e-11
3.60951e-10
4.22688e-11
3.22079e-10
3.89006e-11
2.87046e-10
3.52684e-11
2.53127e-10
3.40299e-11
2.22531e-10
3.07952e-11
1.94245e-10
2.83967e-11
1.6706e-10
2.72987e-11
1.43119e-10
2.40616e-11
1.20616e-10
2.26498e-11
9.95445e-11
2.12281e-11
8.09647e-11
1.87578e-11
6.36743e-11
1.74166e-11
4.81142e-11
1.57678e-11
3.44206e-11
1.39372e-11
2.19723e-11
1.26202e-11
1.1279e-11
1.08881e-11
1.95581e-12
9.4765e-12
-6.11365e-12
8.25699e-12
-1.27478e-11
6.78474e-12
-1.83139e-11
5.74934e-12
-2.27492e-11
4.61583e-12
-2.6199e-11
3.75394e-12
-2.87966e-11
2.75925e-12
-3.05836e-11
1.9473e-12
-3.17202e-11
1.45011e-12
-3.22746e-11
6.58477e-13
-3.23383e-11
5.39021e-13
-3.19886e-11
-1.41397e-13
-3.12778e-11
-4.02164e-13
-3.03077e-11
-8.97166e-13
-2.9404e-11
-4.83091e-13
-2.84548e-11
-7.96911e-13
-2.75034e-11
-4.20361e-13
-2.65214e-11
-7.55225e-13
-2.5543e-11
-4.49338e-13
-2.46304e-11
-7.73668e-13
-2.37293e-11
-4.17446e-13
-2.28603e-11
-6.49165e-13
-2.2024e-11
-2.13792e-13
-2.12204e-11
-6.30709e-13
-2.04482e-11
-2.97092e-13
-1.96938e-11
-6.03803e-13
-1.89596e-11
-2.25097e-13
-1.82336e-11
-5.66971e-13
-1.75108e-11
-2.28932e-13
-1.6798e-11
-5.53189e-13
-1.60851e-11
-2.11136e-13
-1.53898e-11
-5.5318e-13
-1.47159e-11
-6.2877e-14
-1.40733e-11
-6.99925e-13
-1.34837e-11
2.97252e-13
-1.29447e-11
-2.77855e-13
-1.24869e-11
1.77857e-13
-1.20986e-11
-2.87409e-13
-1.18041e-11
4.93611e-13
-1.16044e-11
6.88472e-14
-1.15013e-11
4.87718e-13
-1.14954e-11
3.98002e-13
-1.15872e-11
4.91309e-13
-1.17681e-11
4.50601e-13
-1.20417e-11
8.18304e-13
-1.2384e-11
7.70655e-13
-1.2801e-11
8.99905e-13
-1.32533e-11
7.43183e-13
-1.37452e-11
1.02968e-12
-1.42177e-11
9.51474e-13
-1.46725e-11
8.81122e-13
-1.50164e-11
8.34827e-13
-1.52475e-11
6.97724e-13
-1.52199e-11
7.10137e-13
-1.49407e-11
1.45019e-13
-1.41146e-11
-4.39134e-13
-1.28714e-11
-9.39824e-13
-1.0483e-11
-2.05237e-12
-7.28577e-12
-2.41127e-12
-1.30861e-12
-5.54365e-12
6.4519e-12
-7.45792e-12
2.73597e-11
-2.0663e-11
5.683e-11
-2.92161e-11
-2.04946e-08
2.0552e-08
4.87242e-09
-5.72026e-08
-4.82311e-09
5.40793e-09
-7.10321e-10
6.93427e-09
-1.99113e-09
8.12613e-09
-1.56324e-09
7.63606e-09
6.47135e-10
6.22753e-09
1.85165e-09
5.92234e-09
3.89005e-10
5.53049e-09
5.16351e-10
4.97644e-09
7.21409e-10
4.52484e-09
5.90326e-10
4.06731e-09
5.96538e-10
3.68369e-09
5.00431e-10
3.31062e-09
4.86514e-10
3.00612e-09
3.97056e-10
2.71335e-09
3.81678e-10
2.45752e-09
3.33466e-10
2.22881e-09
2.9805e-10
2.00938e-09
2.86071e-10
1.82412e-09
2.41471e-10
1.64802e-09
2.29586e-10
1.48221e-09
2.16172e-10
1.33752e-09
1.88648e-10
1.19781e-09
1.82087e-10
1.06913e-09
1.67698e-10
9.53044e-10
1.51663e-10
8.40724e-10
1.46626e-10
7.39352e-10
1.32435e-10
6.45594e-10
1.2234e-10
5.55516e-10
1.1755e-10
4.76133e-10
1.03669e-10
4.01513e-10
9.75139e-11
3.31645e-10
9.13758e-11
2.69994e-10
8.07113e-11
2.12627e-10
7.50579e-11
1.60985e-10
6.77649e-11
1.15511e-10
5.98487e-11
7.41755e-11
5.42664e-11
3.86429e-11
4.66721e-11
7.65433e-12
4.08009e-11
-1.91784e-11
3.54537e-11
-4.12539e-11
2.91825e-11
-5.97879e-11
2.45744e-11
-7.45704e-11
1.97314e-11
-8.60815e-11
1.56221e-11
-9.47661e-11
1.17667e-11
-1.00755e-10
8.28867e-12
-1.04588e-10
5.60841e-12
-1.0648e-10
2.96235e-12
-1.06746e-10
1.41088e-12
-1.05634e-10
-7.84477e-13
-1.03322e-10
-2.08878e-12
-1.00144e-10
-3.65141e-12
-9.71795e-11
-2.97806e-12
-9.40551e-11
-3.37611e-12
-9.09258e-11
-2.76511e-12
-8.76878e-11
-3.34639e-12
-8.44656e-11
-2.73714e-12
-8.14513e-11
-3.15206e-12
-7.84804e-11
-2.45572e-12
-7.561e-11
-2.81451e-12
-7.28496e-11
-1.77214e-12
-7.01943e-11
-2.67366e-12
-6.76448e-11
-1.88419e-12
-6.5151e-11
-2.47543e-12
-6.27249e-11
-1.5653e-12
-6.03252e-11
-2.40509e-12
-5.79374e-11
-1.59014e-12
-5.55802e-11
-2.29978e-12
-5.32228e-11
-1.45756e-12
-5.09254e-11
-2.30999e-12
-4.86973e-11
-1.10246e-12
-4.6574e-11
-2.42387e-12
-4.4623e-11
-8.4728e-14
-4.28413e-11
-1.24334e-12
-4.13224e-11
1.21724e-13
-4.00431e-11
-1.17513e-12
-3.90678e-11
9.60151e-13
-3.8407e-11
1.19803e-13
-3.80625e-11
1.50215e-12
-3.80448e-11
1.25237e-12
-3.83454e-11
2.07508e-12
-3.89453e-11
1.76473e-12
-3.98462e-11
3.11129e-12
-4.09801e-11
2.79296e-12
-4.23546e-11
3.67069e-12
-4.38526e-11
2.94801e-12
-4.54744e-11
4.05075e-12
-4.70382e-11
3.42087e-12
-4.85367e-11
3.67711e-12
-4.96752e-11
2.82853e-12
-5.04365e-11
2.71263e-12
-5.03431e-11
1.71273e-12
-4.9422e-11
3.99096e-13
-4.66828e-11
-2.27727e-12
-4.2587e-11
-4.23442e-12
-3.46682e-11
-9.20862e-12
-2.41561e-11
-1.19193e-11
-4.34275e-12
-2.40587e-11
2.11243e-11
-3.21677e-11
9.00947e-11
-8.89756e-11
1.65217e-10
-1.0381e-10
-4.23327e-08
2.20041e-08
9.00748e-09
-5.7372e-08
-8.83569e-09
9.98758e-09
-1.69036e-09
1.27901e-08
-4.79344e-09
1.49611e-08
-3.7343e-09
1.40959e-08
1.5125e-09
1.15533e-08
4.39426e-09
1.09608e-08
9.81564e-10
1.02509e-08
1.22631e-09
9.22777e-09
1.74455e-09
8.3963e-09
1.42185e-09
7.55069e-09
1.44217e-09
6.84117e-09
1.21005e-09
6.15068e-09
1.17706e-09
5.58633e-09
9.61564e-10
5.04364e-09
9.24435e-10
4.5692e-09
8.08033e-10
4.14465e-09
7.22674e-10
3.73752e-09
6.93292e-10
3.39344e-09
5.85626e-10
3.0664e-09
5.5673e-10
2.75849e-09
5.24185e-10
2.48957e-09
4.57678e-10
2.23e-09
4.41724e-10
1.99088e-09
4.06853e-10
1.77506e-09
3.6775e-10
1.56629e-09
3.55497e-10
1.3778e-09
3.21153e-10
1.20343e-09
2.96845e-10
1.03592e-09
2.85192e-10
8.88242e-10
2.51475e-10
7.49406e-10
2.36518e-10
6.1941e-10
2.21541e-10
5.04653e-10
1.95669e-10
3.97866e-10
1.81974e-10
3.01717e-10
1.64149e-10
2.17013e-10
1.44805e-10
1.40017e-10
1.3145e-10
7.37984e-11
1.13132e-10
1.60315e-11
9.87108e-11
-3.40057e-11
8.56832e-11
-7.51948e-11
7.05193e-11
-1.09794e-10
5.93903e-11
-1.37412e-10
4.75448e-11
-1.58939e-10
3.75231e-11
-1.75204e-10
2.82151e-11
-1.86445e-10
1.96955e-11
-1.93673e-10
1.32441e-11
-1.97277e-10
6.6503e-12
-1.97854e-10
2.54163e-12
-1.95859e-10
-2.59127e-12
-1.91626e-10
-6.0135e-12
-1.85773e-10
-9.46299e-12
-1.80305e-10
-7.96017e-12
-1.74531e-10
-9.03584e-12
-1.68745e-10
-7.96269e-12
-1.62751e-10
-9.13886e-12
-1.56787e-10
-8.15643e-12
-1.512e-10
-8.67599e-12
-1.45696e-10
-7.48702e-12
-1.40374e-10
-7.94804e-12
-1.35257e-10
-6.28895e-12
-1.30332e-10
-7.47774e-12
-1.25604e-10
-6.15687e-12
-1.20977e-10
-7.01088e-12
-1.16477e-10
-5.60356e-12
-1.12024e-10
-6.73396e-12
-1.07594e-10
-5.56335e-12
-1.03219e-10
-6.56341e-12
-9.88444e-11
-5.39039e-12
-9.45819e-11
-6.44289e-12
-9.04466e-11
-4.66528e-12
-8.65069e-11
-6.44093e-12
-8.28851e-11
-2.87395e-12
-7.95786e-11
-4.30412e-12
-7.67554e-11
-2.1834e-12
-7.43841e-11
-3.38146e-12
-7.25724e-11
-1.24613e-13
-7.13451e-11
-8.38507e-13
-7.07025e-11
1.3606e-12
-7.06704e-11
1.61181e-12
-7.12255e-11
2.88913e-12
-7.23397e-11
3.14496e-12
-7.40082e-11
5.2025e-12
-7.61138e-11
5.33901e-12
-7.86607e-11
6.56631e-12
-8.14417e-11
6.03275e-12
-8.44472e-11
7.46713e-12
-8.73497e-11
6.82911e-12
-9.01251e-11
6.74768e-12
-9.2238e-11
5.49557e-12
-9.36471e-11
4.4951e-12
-9.34713e-11
2.36956e-12
-9.17621e-11
-9.43139e-13
-8.66731e-11
-7.0191e-12
-7.90827e-11
-1.15907e-11
-6.43756e-11
-2.35825e-11
-4.49187e-11
-3.03894e-11
-8.13638e-12
-6.0531e-11
3.8928e-11
-7.89803e-11
1.66522e-10
-2.16384e-10
2.98292e-10
-2.35311e-10
-6.55827e-08
2.35489e-08
1.39986e-08
-5.76986e-08
-1.36756e-08
1.55262e-08
-3.21809e-09
1.9842e-08
-9.10899e-09
2.31796e-08
-7.07204e-09
2.18989e-08
2.7934e-09
1.80265e-08
8.26656e-09
1.70777e-08
1.93048e-09
1.59844e-08
2.31966e-09
1.44013e-08
3.32769e-09
1.31102e-08
2.71303e-09
1.17967e-08
2.75588e-09
1.06919e-08
2.31487e-09
9.61672e-09
2.25248e-09
8.7365e-09
1.84194e-09
7.89003e-09
1.77106e-09
7.14951e-09
1.54863e-09
6.48642e-09
1.38589e-09
5.85063e-09
1.32924e-09
5.31289e-09
1.12355e-09
4.80175e-09
1.06805e-09
4.32051e-09
1.00559e-09
3.89995e-09
8.78428e-10
3.49408e-09
8.47733e-10
3.12012e-09
7.80973e-10
2.78244e-09
7.05767e-10
2.45586e-09
6.82413e-10
2.16093e-09
6.16384e-10
1.888e-09
5.7e-10
1.62585e-09
5.47555e-10
1.39463e-09
4.82961e-10
1.17724e-09
4.54203e-10
9.73689e-10
4.25437e-10
7.93921e-10
3.75804e-10
6.26625e-10
3.49623e-10
4.75962e-10
3.15239e-10
3.43185e-10
2.78083e-10
2.22473e-10
2.52527e-10
1.18618e-10
2.1727e-10
2.79863e-11
1.89763e-10
-5.05453e-11
1.64665e-10
-1.15227e-10
1.35602e-10
-1.69589e-10
1.14103e-10
-2.13016e-10
9.13813e-11
-2.46901e-10
7.18032e-11
-2.72541e-10
5.42387e-11
-2.90299e-10
3.7883e-11
-3.01771e-10
2.50656e-11
-3.07552e-10
1.29761e-11
-3.08587e-10
4.23241e-12
-3.05583e-10
-5.00448e-12
-2.99066e-10
-1.17541e-11
-2.89999e-10
-1.7953e-11
-2.81512e-10
-1.59686e-11
-2.72534e-10
-1.73023e-11
-2.63531e-10
-1.60945e-11
-2.54197e-10
-1.76418e-11
-2.44907e-10
-1.63737e-11
-2.36194e-10
-1.65458e-11
-2.27613e-10
-1.49779e-11
-2.19312e-10
-1.53185e-11
-2.11329e-10
-1.28823e-11
-2.03642e-10
-1.43632e-11
-1.96264e-10
-1.24025e-11
-1.89041e-10
-1.34005e-11
-1.82014e-10
-1.13506e-11
-1.75062e-10
-1.29366e-11
-1.68146e-10
-1.12772e-11
-1.61314e-10
-1.2576e-11
-1.54482e-10
-1.09095e-11
-1.47827e-10
-1.23488e-11
-1.41368e-10
-9.76017e-12
-1.35216e-10
-1.1914e-11
-1.29559e-10
-6.79445e-12
-1.24396e-10
-8.37937e-12
-1.19984e-10
-4.87601e-12
-1.16282e-10
-6.4804e-12
-1.1345e-10
-1.35359e-12
-1.11533e-10
-1.81753e-12
-1.10526e-10
1.95459e-12
-1.10476e-10
2.65145e-12
-1.1134e-10
5.33782e-12
-1.1308e-10
5.83137e-12
-1.15682e-10
9.46829e-12
-1.1897e-10
9.74156e-12
-1.22944e-10
1.2241e-11
-1.27286e-10
1.13076e-11
-1.31974e-10
1.38287e-11
-1.36505e-10
1.247e-11
-1.40833e-10
1.26693e-11
-1.4413e-10
9.8349e-12
-1.46325e-10
8.21602e-12
-1.46047e-10
3.34308e-12
-1.43374e-10
-2.15581e-12
-1.35424e-10
-1.38281e-11
-1.23575e-10
-2.24097e-11
-1.00611e-10
-4.55672e-11
-7.02689e-11
-5.95769e-11
-1.28706e-11
-1.16344e-10
6.04093e-11
-1.51294e-10
2.58798e-10
-4.13928e-10
4.58946e-10
-4.3479e-10
-9.03129e-08
2.519e-08
1.99864e-08
-5.82259e-08
-1.94564e-08
2.21806e-08
-5.41212e-09
2.82776e-08
-1.52059e-08
3.29954e-08
-1.17898e-08
3.12627e-08
4.52621e-09
2.58445e-08
1.36848e-08
2.44572e-08
3.31779e-09
2.29048e-08
3.87217e-09
2.06581e-08
5.57447e-09
1.88145e-08
4.55662e-09
1.69405e-08
4.62986e-09
1.53595e-08
3.89603e-09
1.3821e-08
3.79099e-09
1.25593e-08
3.10385e-09
1.13459e-08
2.98451e-09
1.02835e-08
2.61112e-09
9.33165e-09
2.33781e-09
8.419e-09
2.24199e-09
7.64654e-09
1.89607e-09
6.91225e-09
1.80244e-09
6.22088e-09
1.69707e-09
5.6163e-09
1.48313e-09
5.03294e-09
1.43115e-09
4.49535e-09
1.3186e-09
4.00969e-09
1.19165e-09
3.54007e-09
1.15209e-09
3.11586e-09
1.04081e-09
2.72316e-09
9.62827e-10
2.34601e-09
9.24865e-10
2.01325e-09
8.15848e-10
1.70033e-09
7.67302e-10
1.40732e-09
7.18628e-10
1.14844e-09
6.34895e-10
9.07502e-10
5.90664e-10
6.90468e-10
5.32478e-10
4.99122e-10
4.69621e-10
3.2514e-10
4.26673e-10
1.75395e-10
3.67244e-10
4.46661e-11
3.20628e-10
-6.86509e-11
2.78178e-10
-1.62037e-10
2.29132e-10
-2.40571e-10
1.92875e-10
-3.03357e-10
1.54377e-10
-3.524e-10
1.21192e-10
-3.89566e-10
9.15896e-11
-4.15369e-10
6.38322e-11
-4.32113e-10
4.22034e-11
-4.40646e-10
2.15674e-11
-4.42333e-10
6.38118e-12
-4.38191e-10
-8.96623e-12
-4.28979e-10
-2.06568e-11
-4.1608e-10
-3.08393e-11
-4.03975e-10
-2.76614e-11
-3.91149e-10
-3.00873e-11
-3.78277e-10
-2.85062e-11
-3.64921e-10
-3.0889e-11
-3.5162e-10
-2.92984e-11
-3.39135e-10
-2.90903e-11
-3.26839e-10
-2.69982e-11
-3.14938e-10
-2.71392e-11
-3.03492e-10
-2.3973e-11
-2.92466e-10
-2.53799e-11
-2.81882e-10
-2.27268e-11
-2.71519e-10
-2.37953e-11
-2.61436e-10
-2.12134e-11
-2.5146e-10
-2.28814e-11
-2.41535e-10
-2.09624e-11
-2.31729e-10
-2.23863e-11
-2.21924e-10
-2.05254e-11
-2.12371e-10
-2.18252e-11
-2.03101e-10
-1.87123e-11
-1.94272e-10
-2.08121e-11
-1.86151e-10
-1.44589e-11
-1.7874e-10
-1.5681e-11
-1.72404e-10
-1.10298e-11
-1.67091e-10
-1.15978e-11
-1.63026e-10
-5.00075e-12
-1.60272e-10
-4.39615e-12
-1.58825e-10
7.12479e-13
-1.58752e-10
2.78297e-12
-1.59989e-10
6.55691e-12
-1.62485e-10
8.47525e-12
-1.66216e-10
1.32964e-11
-1.70934e-10
1.47385e-11
-1.76632e-10
1.79915e-11
-1.82862e-10
1.77346e-11
-1.89585e-10
2.06411e-11
-1.96084e-10
1.9312e-11
-2.02288e-10
1.88813e-11
-2.07014e-10
1.50127e-11
-2.10155e-10
1.14811e-11
-2.09749e-10
3.61293e-12
-2.05906e-10
-5.8189e-12
-1.94492e-10
-2.49145e-11
-1.77485e-10
-3.92178e-11
-1.44538e-10
-7.8271e-11
-1.01029e-10
-1.02154e-10
-1.87396e-11
-1.98551e-10
8.61644e-11
-2.55975e-10
3.69488e-10
-6.97104e-10
6.51682e-10
-7.16753e-10
-1.16592e-07
2.69318e-08
2.71276e-08
-5.90418e-08
-2.6315e-08
3.01295e-08
-8.41417e-09
3.83089e-08
-2.33851e-08
4.46493e-08
-1.81303e-08
4.24349e-08
6.74084e-09
3.52348e-08
2.08848e-08
3.3312e-08
5.24065e-09
3.12128e-08
5.97142e-09
2.81846e-08
8.60279e-09
2.5681e-08
7.0603e-09
2.31397e-08
7.17137e-09
2.09879e-08
6.04783e-09
1.88946e-08
5.88453e-09
1.71745e-08
4.82417e-09
1.55202e-08
4.63896e-09
1.40707e-08
4.06078e-09
1.27711e-08
3.63754e-09
1.1525e-08
3.4883e-09
1.04695e-08
2.95173e-09
9.46613e-09
2.80606e-09
8.52132e-09
2.64207e-09
7.6946e-09
2.31009e-09
6.897e-09
2.22893e-09
6.16185e-09
2.05396e-09
5.4974e-09
1.85645e-09
4.855e-09
1.7949e-09
4.27454e-09
1.62163e-09
3.73706e-09
1.50058e-09
3.22087e-09
1.44131e-09
2.76528e-09
1.27178e-09
2.33679e-09
1.19615e-09
1.93552e-09
1.12032e-09
1.58086e-09
9.90002e-10
1.25073e-09
9.21245e-10
9.53293e-10
8.30433e-10
6.90951e-10
7.32536e-10
4.52375e-10
6.65678e-10
2.46952e-10
5.72995e-10
6.75418e-11
5.00564e-10
-8.8032e-11
4.34313e-10
-2.16323e-10
3.57921e-10
-3.24273e-10
3.01253e-10
-4.10652e-10
2.41262e-10
-4.78201e-10
1.89191e-10
-5.29472e-10
1.43315e-10
-5.65158e-10
1.00032e-10
-5.88423e-10
6.58639e-11
-6.00414e-10
3.42489e-11
-6.03013e-10
9.70925e-12
-5.97606e-10
-1.36253e-11
-5.85238e-10
-3.20612e-11
-5.67795e-10
-4.75335e-11
-5.51383e-10
-4.35695e-11
-5.33964e-10
-4.66053e-11
-5.16461e-10
-4.50276e-11
-4.98286e-10
-4.80198e-11
-4.80177e-10
-4.61708e-11
-4.63164e-10
-4.50217e-11
-4.46406e-10
-4.24781e-11
-4.3018e-10
-4.21681e-11
-4.14572e-10
-3.79758e-11
-3.99531e-10
-3.93985e-11
-3.85089e-10
-3.58353e-11
-3.70947e-10
-3.68552e-11
-3.57187e-10
-3.34689e-11
-3.43569e-10
-3.55277e-11
-3.30022e-10
-3.3103e-11
-3.16637e-10
-3.47052e-11
-3.03252e-10
-3.23639e-11
-2.90212e-10
-3.38652e-11
-2.77555e-10
-2.98029e-11
-2.65503e-10
-3.18509e-11
-2.54416e-10
-2.36217e-11
-2.44299e-10
-2.43884e-11
-2.35647e-10
-1.76717e-11
-2.28395e-10
-1.79889e-11
-2.22842e-10
-8.7736e-12
-2.19081e-10
-6.94482e-12
-2.17102e-10
6.03882e-13
-2.17002e-10
4.03821e-12
-2.18687e-10
1.01637e-11
-2.22093e-10
1.31118e-11
-2.27182e-10
2.03527e-11
-2.3362e-10
2.25689e-11
-2.41392e-10
2.78027e-11
-2.49892e-10
2.7445e-11
-2.59061e-10
3.17858e-11
-2.67927e-10
2.95375e-11
-2.76383e-10
2.92564e-11
-2.82826e-10
2.27291e-11
-2.87099e-10
1.75844e-11
-2.86534e-10
4.49177e-12
-2.81274e-10
-9.3054e-12
-2.65688e-10
-3.90647e-11
-2.42465e-10
-6.11297e-11
-1.97512e-10
-1.2197e-10
-1.3816e-10
-1.60156e-10
-2.59774e-11
-3.08845e-10
1.16871e-10
-3.97604e-10
5.01514e-10
-1.08068e-09
8.81755e-10
-1.09614e-09
-1.44488e-07
2.87785e-08
3.56001e-08
-6.02295e-08
-3.44098e-08
3.95764e-08
-1.23903e-08
5.01745e-08
-3.3983e-08
5.84117e-08
-2.63674e-08
5.56967e-08
9.45597e-09
4.64591e-08
3.01225e-08
4.38865e-08
7.81328e-09
4.11396e-08
8.71835e-09
3.71968e-08
1.25457e-08
3.39087e-08
1.03484e-08
3.0577e-08
1.05031e-08
2.77448e-08
8.88016e-09
2.49903e-08
8.639e-09
2.27221e-08
7.09255e-09
2.05406e-08
6.82046e-09
1.86273e-08
5.97425e-09
1.69109e-08
5.354e-09
1.5265e-08
5.13434e-09
1.38698e-08
4.34689e-09
1.25434e-08
4.13264e-09
1.12943e-08
3.89126e-09
1.02005e-08
3.40394e-09
9.14546e-09
3.28404e-09
8.17283e-09
3.02665e-09
7.29331e-09
2.73617e-09
6.44309e-09
2.64516e-09
5.67464e-09
2.3903e-09
4.96286e-09
2.21248e-09
4.27931e-09
2.12502e-09
3.67577e-09
1.87544e-09
3.10805e-09
1.76405e-09
2.57634e-09
1.65218e-09
2.1062e-09
1.46034e-09
1.66852e-09
1.35903e-09
1.27408e-09
1.22508e-09
9.26038e-10
1.08075e-09
6.09465e-10
9.82423e-10
3.36769e-10
8.45931e-10
9.84991e-11
7.3893e-10
-1.08198e-10
6.41168e-10
-2.78759e-10
5.286e-10
-4.22368e-10
4.45101e-10
-5.37384e-10
3.56466e-10
-6.27436e-10
2.79594e-10
-6.95901e-10
2.11994e-10
-7.43683e-10
1.47976e-10
-7.7498e-10
9.75751e-11
-7.91305e-10
5.06502e-11
-7.95154e-10
1.39851e-11
-7.88364e-10
-2.02981e-11
-7.72325e-10
-4.78627e-11
-7.49525e-10
-7.03066e-11
-7.2801e-10
-6.47166e-11
-7.05135e-10
-6.94475e-11
-6.82122e-10
-6.76373e-11
-6.58203e-10
-7.18471e-11
-6.34355e-10
-6.97239e-11
-6.11933e-10
-6.75427e-11
-5.89842e-10
-6.4392e-11
-5.68443e-10
-6.35039e-11
-5.47853e-10
-5.834e-11
-5.28006e-10
-5.92658e-11
-5.08945e-10
-5.47317e-11
-4.90278e-10
-5.55873e-11
-4.7211e-10
-5.15449e-11
-4.5413e-10
-5.34876e-11
-4.36242e-10
-5.08627e-11
-4.18567e-10
-5.24133e-11
-4.00891e-10
-4.99838e-11
-3.83672e-10
-5.09869e-11
-3.66957e-10
-4.63363e-11
-3.51043e-10
-4.77583e-11
-3.36401e-10
-3.80381e-11
-3.2304e-10
-3.76766e-11
-3.11612e-10
-2.91011e-11
-3.02035e-10
-2.72887e-11
-2.947e-10
-1.58744e-11
-2.89731e-10
-1.17515e-11
-2.87116e-10
-1.96994e-12
-2.8698e-10
4.03308e-12
-2.89202e-10
1.22279e-11
-2.93697e-10
1.77373e-11
-3.00411e-10
2.69867e-11
-3.08909e-10
3.12956e-11
-3.19164e-10
3.79578e-11
-3.30382e-10
3.88521e-11
-3.42478e-10
4.37953e-11
-3.54175e-10
4.15206e-11
-3.65324e-10
4.02621e-11
-3.73817e-10
3.1666e-11
-3.79439e-10
2.321e-11
-3.78678e-10
4.35114e-12
-3.71709e-10
-1.61716e-11
-3.51119e-10
-5.94539e-11
-3.20437e-10
-9.1749e-11
-2.61111e-10
-1.81046e-10
-1.8278e-10
-2.37533e-10
-3.48657e-11
-4.56788e-10
1.53298e-10
-5.85667e-10
6.58194e-10
-1.58554e-09
1.1551e-09
-1.5928e-09
-1.74067e-07
3.07343e-08
4.56052e-08
-6.19194e-08
-4.39183e-08
5.07513e-08
-1.75365e-08
6.41421e-08
-4.73736e-08
7.45847e-08
-3.68101e-08
7.13657e-08
1.26751e-08
5.98177e-08
4.16705e-08
5.64619e-08
1.11691e-08
5.29514e-08
1.22289e-08
4.79441e-08
1.75531e-08
4.37283e-08
1.45644e-08
3.94647e-08
1.47669e-08
3.58248e-08
1.25201e-08
3.22859e-08
1.21782e-08
2.93651e-08
1.00136e-08
2.65558e-08
9.62996e-09
2.40894e-08
8.4408e-09
2.18753e-08
7.56826e-09
1.97518e-08
7.25804e-09
1.79506e-08
6.14838e-09
1.62377e-08
5.84581e-09
1.46246e-08
5.50459e-09
1.32112e-08
4.81766e-09
1.18479e-08
4.64754e-09
1.05909e-08
4.28397e-09
9.45358e-09
3.87384e-09
8.35436e-09
3.74487e-09
7.36054e-09
3.38455e-09
6.43972e-09
3.13363e-09
5.55544e-09
3.00961e-09
4.77436e-09
2.65694e-09
4.0395e-09
2.49935e-09
3.35121e-09
2.34097e-09
2.74234e-09
2.06975e-09
2.17543e-09
1.92652e-09
1.66439e-09
1.73675e-09
1.21326e-09
1.53255e-09
8.02836e-10
1.39335e-09
4.49139e-10
1.20002e-09
1.39951e-10
1.04876e-09
-1.28383e-10
9.10186e-10
-3.49959e-10
7.5078e-10
-5.36647e-10
6.32305e-10
-6.86309e-10
5.06743e-10
-8.03637e-10
3.9746e-10
-8.92992e-10
3.01891e-10
-9.55532e-10
2.11128e-10
-9.96697e-10
1.39228e-10
-1.01843e-09
7.32321e-11
-1.02397e-09
2.03899e-11
-1.0157e-09
-2.76423e-11
-9.95424e-10
-6.69718e-11
-9.66346e-10
-9.84421e-11
-9.38816e-10
-9.16795e-11
-9.09487e-10
-9.76543e-11
-8.7994e-10
-9.60291e-11
-8.49207e-10
-1.01281e-10
-8.1854e-10
-9.89251e-11
-7.89682e-10
-9.50386e-11
-7.61242e-10
-9.1292e-11
-7.33683e-10
-8.95435e-11
-7.07156e-10
-8.29673e-11
-6.81577e-10
-8.35539e-11
-6.57008e-10
-7.7697e-11
-6.32941e-10
-7.82701e-11
-6.09515e-10
-7.31641e-11
-5.86327e-10
-7.5433e-11
-5.63258e-10
-7.22508e-11
-5.40461e-10
-7.38413e-11
-5.17664e-10
-7.09224e-11
-4.95456e-10
-7.18963e-11
-4.73897e-10
-6.60516e-11
-4.53371e-10
-6.68875e-11
-4.34486e-10
-5.47218e-11
-4.17254e-10
-5.30997e-11
-4.02512e-10
-4.14614e-11
-3.90159e-10
-3.84687e-11
-3.80697e-10
-2.33112e-11
-3.74286e-10
-1.66143e-11
-3.7091e-10
-3.13094e-12
-3.70733e-10
5.56163e-12
-3.73593e-10
1.74194e-11
-3.79387e-10
2.51213e-11
-3.8804e-10
3.7995e-11
-3.98994e-10
4.40044e-11
-4.12209e-10
5.3624e-11
-4.26667e-10
5.48734e-11
-4.42251e-10
6.17359e-11
-4.57321e-10
5.82818e-11
-4.71676e-10
5.69314e-11
-4.82609e-10
4.41772e-11
-4.89829e-10
3.26332e-11
-4.88823e-10
5.0593e-12
-4.79801e-10
-2.30478e-11
-4.53234e-10
-8.4261e-11
-4.13635e-10
-1.2973e-10
-3.3717e-10
-2.55916e-10
-2.36195e-10
-3.36881e-10
-4.57433e-11
-6.45009e-10
1.96314e-10
-8.26231e-10
8.43287e-10
-2.2312e-09
1.47845e-09
-2.22689e-09
-2.0539e-07
3.28032e-08
5.73693e-08
-6.42489e-08
-5.50371e-08
6.39137e-08
-2.40806e-08
8.05102e-08
-6.39701e-08
9.35041e-08
-4.98038e-08
8.97999e-08
1.63793e-08
7.56541e-08
5.58164e-08
7.13603e-08
1.5463e-08
6.69534e-08
1.6636e-08
6.07142e-08
2.37924e-08
5.54062e-08
1.98725e-08
5.00491e-08
2.01239e-08
4.54545e-08
1.71148e-08
4.09885e-08
1.66443e-08
3.72936e-08
1.37086e-08
3.37394e-08
1.31842e-08
3.06156e-08
1.15648e-08
2.78094e-08
1.03745e-08
2.51176e-08
9.94991e-09
2.28325e-08
8.43356e-09
2.0659e-08
8.01937e-09
1.8612e-08
7.55166e-09
1.6817e-08
6.61278e-09
1.5086e-08
6.37863e-09
1.34895e-08
5.88052e-09
1.20443e-08
5.31916e-09
1.06477e-08
5.14151e-09
9.38455e-09
4.64786e-09
8.2138e-09
4.30452e-09
7.08957e-09
4.13402e-09
6.09609e-09
3.65052e-09
5.16125e-09
3.43438e-09
4.28556e-09
3.21683e-09
3.51056e-09
2.84496e-09
2.78883e-09
2.64832e-09
2.13805e-09
2.38769e-09
1.5633e-09
2.10742e-09
1.04029e-09
1.91652e-09
5.89363e-10
1.65119e-09
1.9498e-10
1.44323e-09
-1.47452e-10
1.25277e-09
-4.30422e-10
1.03387e-09
-6.69007e-10
8.71157e-10
-8.60465e-10
6.98402e-10
-1.01077e-09
5.48076e-10
-1.12544e-09
4.16806e-10
-1.20594e-09
2.91776e-10
-1.2592e-09
1.92881e-10
-1.28766e-09
1.01752e-10
-1.29548e-09
2.85452e-11
-1.28567e-09
-3.73557e-11
-1.26052e-09
-9.18932e-11
-1.22412e-09
-1.34848e-10
-1.18953e-09
-1.25957e-10
-1.1526e-09
-1.34646e-10
-1.11534e-09
-1.33e-10
-1.07656e-09
-1.40097e-10
-1.03782e-09
-1.37516e-10
-1.00133e-09
-1.31772e-10
-9.65361e-10
-1.27269e-10
-9.3049e-10
-1.24505e-10
-8.96914e-10
-1.16536e-10
-8.64527e-10
-1.16102e-10
-8.33408e-10
-1.08827e-10
-8.02922e-10
-1.08989e-10
-7.73242e-10
-1.02977e-10
-7.43862e-10
-1.04921e-10
-7.14629e-10
-1.01544e-10
-6.8574e-10
-1.02927e-10
-6.56852e-10
-9.99865e-11
-6.28708e-10
-1.00038e-10
-6.01386e-10
-9.34073e-11
-5.75378e-10
-9.29527e-11
-5.51444e-10
-7.87362e-11
-5.29608e-10
-7.50402e-11
-5.10923e-10
-6.04601e-11
-4.95269e-10
-5.38514e-11
-4.83275e-10
-3.53078e-11
-4.7515e-10
-2.47119e-11
-4.70867e-10
-7.61883e-12
-4.7064e-10
5.23031e-12
-4.74258e-10
2.06356e-11
-4.81595e-10
3.24126e-11
-4.92551e-10
4.85828e-11
-5.06424e-10
5.78953e-11
-5.23156e-10
7.00007e-11
-5.41463e-10
7.32124e-11
-5.61189e-10
8.10988e-11
-5.80263e-10
7.74243e-11
-5.98422e-10
7.46811e-11
-6.12245e-10
5.83208e-11
-6.2135e-10
4.15282e-11
-6.20043e-10
4.19183e-12
-6.0856e-10
-3.46078e-11
-5.74877e-10
-1.1778e-10
-5.24653e-10
-1.7994e-10
-4.27823e-10
-3.52604e-10
-2.99922e-10
-4.63897e-10
-5.90189e-11
-8.86122e-10
2.46897e-10
-1.13209e-09
1.06104e-09
-3.04536e-09
1.85941e-09
-3.02504e-09
-2.3852e-07
3.49893e-08
7.11461e-08
-6.74137e-08
-6.7984e-08
7.93551e-08
-3.22899e-08
9.96109e-08
-8.42258e-08
1.15542e-07
-6.57347e-08
1.114e-07
2.0521e-08
9.436e-08
7.28567e-08
8.89506e-08
2.08725e-08
8.34958e-08
2.20909e-08
7.58382e-08
3.145e-08
6.92502e-08
2.64607e-08
6.26153e-08
2.6759e-08
5.68964e-08
2.28337e-08
5.13388e-08
2.22023e-08
4.67289e-08
1.83187e-08
4.22939e-08
1.76195e-08
3.83913e-08
1.54675e-08
3.48829e-08
1.38832e-08
3.15168e-08
1.33162e-08
2.86568e-08
1.12939e-08
2.59361e-08
1.07405e-08
2.33733e-08
1.01147e-08
2.11243e-08
8.86212e-09
1.89557e-08
8.54753e-09
1.69552e-08
7.88143e-09
1.51432e-08
7.13156e-09
1.33924e-08
6.89293e-09
1.18083e-08
6.23238e-09
1.03396e-08
5.77362e-09
8.92931e-09
5.54474e-09
7.68247e-09
4.89786e-09
6.50896e-09
4.60842e-09
5.40961e-09
4.31679e-09
4.43617e-09
3.81905e-09
3.52949e-09
3.55571e-09
2.71169e-09
3.20624e-09
1.98908e-09
2.83083e-09
1.33135e-09
2.57484e-09
7.63988e-10
2.21904e-09
2.67511e-10
1.94048e-09
-1.63777e-10
1.68489e-09
-5.20454e-10
1.39127e-09
-8.21412e-10
1.17274e-09
-1.06318e-09
9.40931e-10
-1.25325e-09
7.38792e-10
-1.39854e-09
5.62743e-10
-1.50085e-09
3.9481e-10
-1.5689e-09
2.61542e-10
-1.60574e-09
1.39607e-10
-1.61658e-09
4.04143e-11
-1.60521e-09
-4.75825e-11
-1.57452e-09
-1.2115e-10
-1.52962e-09
-1.78602e-10
-1.48678e-09
-1.68144e-10
-1.44094e-09
-1.79125e-10
-1.39462e-09
-1.77956e-10
-1.34634e-09
-1.86801e-10
-1.29808e-09
-1.84045e-10
-1.25258e-09
-1.75604e-10
-1.20771e-09
-1.70296e-10
-1.16419e-09
-1.66151e-10
-1.12227e-09
-1.56219e-10
-1.08182e-09
-1.54967e-10
-1.04294e-09
-1.45791e-10
-1.00485e-09
-1.45365e-10
-9.67757e-10
-1.3792e-10
-9.31032e-10
-1.40105e-10
-8.94492e-10
-1.36089e-10
-8.58378e-10
-1.3734e-10
-8.22266e-10
-1.33886e-10
-7.87084e-10
-1.33594e-10
-7.52929e-10
-1.25397e-10
-7.20418e-10
-1.23662e-10
-6.90498e-10
-1.06121e-10
-6.63202e-10
-1.0009e-10
-6.39842e-10
-8.10222e-11
-6.20274e-10
-7.19047e-11
-6.05278e-10
-4.79942e-11
-5.95118e-10
-3.29638e-11
-5.89761e-10
-1.03728e-11
-5.89472e-10
7.04363e-12
-5.93989e-10
2.79277e-11
-6.03153e-10
4.35694e-11
-6.16837e-10
6.50547e-11
-6.34167e-10
7.73903e-11
-6.55063e-10
9.37955e-11
-6.77928e-10
9.80364e-11
-7.02556e-10
1.08505e-10
-7.26368e-10
1.03305e-10
-7.49023e-10
1.00075e-10
-7.6626e-10
7.74864e-11
-7.77582e-10
5.54641e-11
-7.759e-10
4.54137e-12
-7.61477e-10
-4.64857e-11
-7.19345e-10
-1.57756e-10
-6.56502e-10
-2.40793e-10
-5.35548e-10
-4.71588e-10
-3.75731e-10
-6.21758e-10
-7.51863e-11
-1.18408e-09
3.06144e-10
-1.5116e-09
1.31621e-09
-4.05384e-09
2.30663e-09
-4.01415e-09
-2.73508e-07
3.72963e-08
8.72181e-08
-7.16302e-08
-8.2999e-08
9.74014e-08
-4.24729e-08
1.21811e-07
-1.08635e-07
1.41107e-07
-8.50305e-08
1.36614e-07
2.50136e-08
1.1638e-07
9.30911e-08
1.09653e-07
2.75995e-08
1.02979e-07
2.87656e-08
9.36967e-08
4.0732e-08
8.56151e-08
3.45425e-08
7.74929e-08
3.48812e-08
7.04551e-08
2.98717e-08
6.36165e-08
2.90408e-08
5.79286e-08
2.40068e-08
5.24551e-08
2.30931e-08
4.76328e-08
2.02899e-08
4.32939e-08
1.82222e-08
3.91301e-08
1.74801e-08
3.55891e-08
1.48349e-08
3.22196e-08
1.411e-08
2.90455e-08
1.32888e-08
2.62577e-08
1.16501e-08
2.35698e-08
1.12355e-08
2.10895e-08
1.03617e-08
1.88418e-08
9.37944e-09
1.66701e-08
9.06459e-09
1.47047e-08
8.19801e-09
1.28816e-08
7.59683e-09
1.1131e-08
7.29546e-09
9.5826e-09
6.44632e-09
8.12497e-09
6.06621e-09
6.75927e-09
5.6826e-09
5.54937e-09
5.02911e-09
4.42221e-09
4.68293e-09
3.40524e-09
4.22337e-09
2.50615e-09
3.73004e-09
1.68759e-09
3.39358e-09
9.81106e-10
2.92578e-09
3.62543e-10
2.55905e-09
-1.75082e-10
2.22259e-09
-6.2007e-10
1.83632e-09
-9.95844e-10
1.54875e-09
-1.29806e-09
1.24332e-09
-1.53601e-09
9.77064e-10
-1.71826e-09
7.45302e-10
-1.84703e-09
5.23747e-10
-1.93314e-09
3.4809e-10
-1.98037e-09
1.869e-10
-1.9952e-09
5.55689e-11
-1.98233e-09
-6.0435e-11
-1.94538e-09
-1.57966e-10
-1.89066e-09
-2.33327e-10
-1.83822e-09
-2.20291e-10
-1.78198e-09
-2.35469e-10
-1.72502e-09
-2.34654e-10
-1.6656e-09
-2.46292e-10
-1.60615e-09
-2.43405e-10
-1.55004e-09
-2.32026e-10
-1.49468e-09
-2.25737e-10
-1.44096e-09
-2.20022e-10
-1.38919e-09
-2.08076e-10
-1.33922e-09
-2.0515e-10
-1.29118e-09
-1.93914e-10
-1.2441e-09
-1.92754e-10
-1.19824e-09
-1.84018e-10
-1.15283e-09
-1.85658e-10
-1.10765e-09
-1.8141e-10
-1.06299e-09
-1.82264e-10
-1.01834e-09
-1.78827e-10
-9.74831e-10
-1.77111e-10
-9.32593e-10
-1.67764e-10
-8.92393e-10
-1.63915e-10
-8.55395e-10
-1.43374e-10
-8.21643e-10
-1.3402e-10
-7.92754e-10
-1.10399e-10
-7.68557e-10
-9.57739e-11
-7.50012e-10
-6.66666e-11
-7.37445e-10
-4.55514e-11
-7.30816e-10
-1.73378e-11
-7.30453e-10
6.46992e-12
-7.36029e-10
3.29815e-11
-7.47352e-10
5.47857e-11
-7.64258e-10
8.14462e-11
-7.85671e-10
9.8737e-11
-8.11484e-10
1.19129e-10
-8.39731e-10
1.2627e-10
-8.70144e-10
1.38414e-10
-8.99546e-10
1.3268e-10
-9.27499e-10
1.27477e-10
-9.48756e-10
9.90479e-11
-9.62676e-10
6.90784e-11
-9.60531e-10
2.77447e-12
-9.42602e-10
-6.45712e-11
-8.90467e-10
-2.0986e-10
-8.12671e-10
-3.18733e-10
-6.63225e-10
-6.20911e-10
-4.65682e-10
-8.18387e-10
-9.48428e-11
-1.55522e-09
3.75277e-10
-1.98179e-09
1.61417e-09
-5.29286e-09
2.82983e-09
-5.22957e-09
-3.10405e-07
3.97275e-08
1.05899e-07
-7.71864e-08
-1.00345e-07
1.18415e-07
-5.49898e-08
1.47514e-07
-1.37734e-07
1.70648e-07
-1.08164e-07
1.65939e-07
2.97223e-08
1.42218e-07
1.16812e-07
1.33947e-07
3.58701e-08
1.25858e-07
3.68547e-08
1.14726e-07
5.18642e-08
1.04909e-07
4.43596e-08
9.50628e-08
4.47278e-08
8.6483e-08
3.84515e-08
7.81464e-08
3.73778e-08
7.11921e-08
3.09614e-08
6.4498e-08
2.97876e-08
5.85924e-08
2.61957e-08
5.32738e-08
2.35409e-08
4.81687e-08
2.25856e-08
4.38228e-08
1.91812e-08
3.96864e-08
1.82468e-08
3.57893e-08
1.71862e-08
3.23634e-08
1.50764e-08
2.90606e-08
1.45386e-08
2.60122e-08
1.34105e-08
2.32477e-08
1.21444e-08
2.05772e-08
1.17358e-08
1.81593e-08
1.06165e-08
1.59156e-08
9.841e-09
1.37612e-08
9.45033e-09
1.18547e-08
8.35345e-09
1.00595e-08
7.86207e-09
8.3773e-09
7.36551e-09
6.88617e-09
6.52102e-09
5.49672e-09
6.07323e-09
4.24268e-09
5.47831e-09
3.13337e-09
4.84028e-09
2.12312e-09
4.40454e-09
1.25072e-09
3.79878e-09
4.86423e-10
3.32427e-09
-1.78236e-10
2.88825e-09
-7.28855e-10
2.38779e-09
-1.19423e-09
2.01488e-09
-1.56895e-09
1.61897e-09
-1.86446e-09
1.27338e-09
-2.09128e-09
9.72894e-10
-2.25208e-09
6.85415e-10
-2.36024e-09
4.57026e-10
-2.42034e-09
2.48221e-10
-2.4404e-09