/*--------------------------------*- C++ -*----------------------------------*\
| =========                 |                                                 |
| \\      /  F ield         | OpenFOAM: The Open Source CFD Toolbox           |
|  \\    /   O peration     | Version:  5.x                                   |
|   \\  /    A nd           | Web:      www.OpenFOAM.org                      |
|    \\/     M anipulation  |                                                 |
\*---------------------------------------------------------------------------*/
FoamFile
{
    version     2.0;
    format      ascii;
    class       volVectorField;
    location    "2500";
    object      U;
}
// * * * * * * * * * * * * * * * * * * * * * * * * * * * * * * * * * * * * * //

dimensions      [0 1 -1 0 0 0 0];

internalField   nonuniform List<vector> 
107912
(
(2.89281e-08 9.81794e-07 -1.06019e-30)
(1.33661e-08 6.86702e-07 1.01224e-30)
(3.5541e-08 8.91736e-07 3.42952e-27)
(1.06994e-07 9.80511e-07 1.32717e-26)
(3.49073e-07 1.14744e-06 1.9174e-26)
(4.38926e-07 8.25504e-07 4.72636e-26)
(4.09961e-07 7.1928e-07 3.19833e-27)
(4.60584e-07 6.80917e-07 2.05724e-30)
(4.46516e-07 5.71497e-07 -5.11009e-30)
(4.52807e-07 5.1346e-07 -6.27468e-30)
(4.30031e-07 4.37452e-07 -6.83754e-30)
(4.18731e-07 3.87636e-07 5.53978e-26)
(3.94938e-07 3.34784e-07 1.05524e-25)
(3.77072e-07 2.95325e-07 4.22194e-29)
(3.55637e-07 2.58835e-07 -1.06288e-25)
(3.36071e-07 2.27908e-07 1.07868e-25)
(3.16739e-07 2.01382e-07 1.27926e-29)
(2.98167e-07 1.77782e-07 0)
(2.80315e-07 1.57256e-07 -2.01956e-25)
(2.64074e-07 1.39867e-07 -9.46902e-26)
(2.4777e-07 1.23698e-07 0)
(2.32781e-07 1.09902e-07 0)
(2.18725e-07 9.769e-08 -8.35701e-26)
(2.04977e-07 8.64735e-08 8.10722e-26)
(1.92271e-07 7.68295e-08 7.81032e-26)
(1.80258e-07 6.8097e-08 1.45582e-25)
(1.68589e-07 6.01397e-08 -7.1266e-26)
(1.57879e-07 5.32777e-08 6.73428e-26)
(1.47498e-07 4.69162e-08 -6.27028e-26)
(1.37638e-07 4.12461e-08 -6.1796e-26)
(1.28551e-07 3.62974e-08 5.75094e-26)
(1.19655e-07 3.16742e-08 0)
(1.11274e-07 2.76038e-08 -5.24335e-26)
(1.03442e-07 2.39892e-08 5.86087e-30)
(9.58189e-08 2.06646e-08 -5.73808e-30)
(8.87034e-08 1.77708e-08 9.05017e-31)
(8.19448e-08 1.51567e-08 4.08769e-26)
(7.54474e-08 1.28057e-08 -5.60556e-31)
(6.93955e-08 1.07676e-08 -4.40436e-30)
(6.3564e-08 8.92067e-09 -3.42772e-26)
(5.80562e-08 7.31222e-09 4.06878e-30)
(5.28768e-08 5.9093e-09 0)
(4.79071e-08 4.6691e-09 0)
(4.32564e-08 3.61535e-09 -1.34171e-26)
(3.88183e-08 2.7012e-09 0)
(3.46444e-08 1.93202e-09 -2.36091e-26)
(3.07101e-08 1.29197e-09 -5.4538e-27)
(2.69899e-08 7.63695e-10 -5.12829e-27)
(2.34994e-08 3.45336e-10 0)
(2.021e-08 2.09762e-11 0)
(1.71231e-08 -2.15712e-10 -2.06141e-27)
(1.42358e-08 -3.72778e-10 -1.86347e-30)
(1.17722e-08 -4.62606e-10 -4.42949e-27)
(9.67055e-09 -4.79857e-10 -4.22361e-27)
(7.82442e-09 -4.55822e-10 -8.09044e-27)
(6.07941e-09 -4.12101e-10 7.74399e-27)
(4.47253e-09 -3.39143e-10 -1.47759e-26)
(3.03122e-09 -2.50938e-10 -8.44585e-31)
(1.68491e-09 -1.52594e-10 6.74471e-27)
(4.41546e-10 -4.4477e-11 -6.43423e-27)
(-7.0921e-10 7.13758e-11 0)
(-1.7846e-09 1.9469e-10 -1.17238e-26)
(-2.77972e-09 3.22608e-10 6.99057e-31)
(-3.71308e-09 4.56553e-10 1.06508e-26)
(-4.58157e-09 5.93032e-10 6.35116e-31)
(-5.39555e-09 7.32899e-10 -9.63898e-27)
(-6.15779e-09 8.76001e-10 -2.87163e-31)
(-6.87014e-09 1.01924e-09 0)
(-7.53874e-09 1.16596e-09 -8.23486e-27)
(-8.15886e-09 1.31126e-09 0)
(-8.73917e-09 1.45626e-09 -7.35683e-27)
(-9.27249e-09 1.60166e-09 -1.38912e-26)
(-9.75867e-09 1.74168e-09 0)
(-1.01972e-08 1.88099e-09 1.79809e-31)
(-1.05733e-08 2.01157e-09 -1.81207e-31)
(-1.08938e-08 2.1348e-09 -1.55084e-31)
(-1.11329e-08 2.24731e-09 9.81465e-27)
(-1.12919e-08 2.34219e-09 -1.80263e-26)
(-1.13447e-08 2.41996e-09 0)
(-1.12786e-08 2.46863e-09 0)
(-1.10669e-08 2.48655e-09 6.5591e-27)
(-1.06837e-08 2.46105e-09 -5.85022e-27)
(-1.00909e-08 2.38166e-09 4.95403e-27)
(-9.26215e-09 2.23968e-09 6.43907e-32)
(-8.1175e-09 2.00842e-09 -2.87758e-32)
(-6.66636e-09 1.68818e-09 2.63113e-27)
(-4.72203e-09 1.22171e-09 -1.74358e-30)
(-2.40906e-09 6.3579e-10 -5.75693e-33)
(7.16356e-10 -1.9807e-10 -5.37422e-33)
(4.20328e-09 -1.16984e-09 1.81791e-28)
(9.15233e-09 -2.59761e-09 0)
(1.42444e-08 -4.12793e-09 1.23648e-32)
(2.225e-08 -6.58573e-09 -1.82609e-32)
(2.93759e-08 -8.87638e-09 5.94163e-33)
(4.31034e-08 -1.3294e-08 4.73986e-30)
(5.26577e-08 -1.65931e-08 -1.26679e-27)
(7.86536e-08 -2.52836e-08 -3.7423e-27)
(9.16299e-08 -3.00891e-08 -1.71129e-26)
(1.51124e-07 -5.06239e-08 -2.81941e-32)
(1.71389e-07 -5.86888e-08 3.1367e-26)
(3.93161e-07 -1.37204e-07 7.26338e-31)
(4.52283e-07 -4.10929e-07 4.31688e-25)
(8.65801e-08 2.99868e-06 0)
(3.98161e-08 2.11794e-06 0)
(1.13232e-07 2.73675e-06 -2.91777e-29)
(3.31958e-07 3.00471e-06 -4.22107e-26)
(1.0657e-06 3.5069e-06 -1.51569e-26)
(1.34241e-06 2.53726e-06 0)
(1.25822e-06 2.21224e-06 -5.16309e-30)
(1.41246e-06 2.09127e-06 -7.51013e-26)
(1.3706e-06 1.75812e-06 -5.70252e-26)
(1.39009e-06 1.57894e-06 -1.99567e-29)
(1.32106e-06 1.34644e-06 1.96128e-29)
(1.28649e-06 1.19289e-06 -8.82962e-26)
(1.2139e-06 1.03075e-06 -1.67844e-25)
(1.15911e-06 9.09222e-07 9.00683e-26)
(1.09346e-06 7.97064e-07 -2.05553e-29)
(1.03343e-06 7.0186e-07 0)
(9.74101e-07 6.20231e-07 1.66701e-25)
(9.17068e-07 5.47576e-07 -1.57648e-25)
(8.62241e-07 4.84394e-07 1.60949e-25)
(8.12326e-07 4.30841e-07 1.50852e-25)
(7.6223e-07 3.81067e-07 -1.44278e-25)
(7.16155e-07 3.38578e-07 -1.73258e-29)
(6.72938e-07 3.00969e-07 7.12925e-29)
(6.30673e-07 2.66434e-07 -1.58833e-29)
(5.91601e-07 2.36728e-07 -1.24529e-25)
(5.54656e-07 2.09832e-07 -2.32019e-25)
(5.18774e-07 1.85329e-07 -1.40029e-29)
(4.85829e-07 1.6419e-07 0)
(4.53899e-07 1.44597e-07 1.20538e-29)
(4.23572e-07 1.27133e-07 9.85218e-26)
(3.95615e-07 1.11887e-07 -9.86365e-30)
(3.68251e-07 9.76483e-08 8.62771e-26)
(3.42467e-07 8.51094e-08 1.67189e-25)
(3.1837e-07 7.39735e-08 0)
(2.9492e-07 6.37328e-08 0)
(2.73028e-07 5.48162e-08 7.02172e-26)
(2.52233e-07 4.67623e-08 -2.52444e-31)
(2.32243e-07 3.95191e-08 -6.26254e-26)
(2.13621e-07 3.32384e-08 7.02235e-30)
(1.95678e-07 2.75473e-08 -6.78823e-30)
(1.78731e-07 2.25902e-08 0)
(1.62793e-07 1.82659e-08 -2.41726e-26)
(1.47502e-07 1.44432e-08 2.14981e-31)
(1.3319e-07 1.11943e-08 5.32892e-30)
(1.19533e-07 8.3755e-09 0)
(1.06689e-07 6.00309e-09 1.8818e-26)
(9.45818e-08 4.02837e-09 8.70261e-27)
(8.31332e-08 2.39797e-09 -2.04224e-30)
(7.23912e-08 1.10602e-09 -3.79511e-27)
(6.22683e-08 1.03657e-10 0)
(5.27678e-08 -6.28697e-10 -7.49603e-32)
(4.38816e-08 -1.1157e-09 6.08112e-27)
(3.62996e-08 -1.39507e-09 1.4128e-26)
(2.9832e-08 -1.45121e-09 6.73639e-27)
(2.41485e-08 -1.38008e-09 1.29021e-26)
(1.87777e-08 -1.24772e-09 -2.46983e-26)
(1.38316e-08 -1.02554e-09 1.17791e-26)
(9.3943e-09 -7.56154e-10 0)
(5.25002e-09 -4.55228e-10 1.07529e-26)
(1.4224e-09 -1.24158e-10 -1.02592e-26)
(-2.12013e-09 2.30891e-10 1.17027e-30)
(-5.43057e-09 6.09007e-10 1.86925e-26)
(-8.49405e-09 1.00139e-09 1.11476e-30)
(-1.13673e-08 1.41243e-09 0)
(-1.40409e-08 1.83134e-09 1.61885e-26)
(-1.65466e-08 2.26075e-09 1.5372e-26)
(-1.8893e-08 2.70017e-09 0)
(-2.10859e-08 3.14008e-09 -1.38891e-26)
(-2.3144e-08 3.59073e-09 -1.31325e-26)
(-2.50529e-08 4.03704e-09 0)
(-2.68391e-08 4.48245e-09 -1.17328e-26)
(-2.84808e-08 4.92908e-09 -6.28862e-31)
(-2.99773e-08 5.35918e-09 -1.04341e-26)
(-3.13271e-08 5.78707e-09 3.068e-31)
(-3.24851e-08 6.18806e-09 0)
(-3.34717e-08 6.56637e-09 1.68559e-26)
(-3.42079e-08 6.91164e-09 -1.56536e-26)
(-3.4698e-08 7.20258e-09 2.87481e-26)
(-3.48612e-08 7.44077e-09 0)
(-3.46589e-08 7.5893e-09 -1.18832e-26)
(-3.4009e-08 7.64304e-09 3.32808e-30)
(-3.28319e-08 7.56303e-09 -3.55312e-30)
(-3.10103e-08 7.31709e-09 -7.89977e-27)
(-2.84634e-08 6.8782e-09 6.74118e-27)
(-2.49458e-08 6.1646e-09 -5.37057e-27)
(-2.04856e-08 5.17661e-09 2.71016e-32)
(-1.45109e-08 3.73892e-09 5.72401e-27)
(-7.40135e-09 1.93247e-09 1.80641e-27)
(2.20147e-09 -6.35751e-10 0)
(1.29203e-08 -3.63132e-09 -7.52445e-33)
(2.81228e-08 -8.0263e-09 1.98989e-32)
(4.3778e-08 -1.27447e-08 1.64444e-27)
(6.83607e-08 -2.03059e-08 1.89065e-32)
(9.02761e-08 -2.73744e-08 -1.88332e-32)
(1.32407e-07 -4.09557e-08 4.85175e-27)
(1.61812e-07 -5.11563e-08 2.06751e-27)
(2.41543e-07 -7.78569e-08 2.26933e-29)
(2.81513e-07 -9.2787e-08 1.36589e-26)
(4.63824e-07 -1.55841e-07 5.38407e-33)
(5.26059e-07 -1.81302e-07 -5.00185e-26)
(1.20217e-06 -4.21087e-07 -2.86055e-29)
(1.20558e-06 -1.28886e-06 -1.04085e-24)
(1.44365e-07 5.14806e-06 -2.63672e-28)
(6.67969e-08 3.66449e-06 -1.46389e-26)
(2.02132e-07 4.71594e-06 -5.81769e-27)
(5.78693e-07 5.17279e-06 2.26399e-26)
(1.82814e-06 6.02391e-06 -1.65594e-26)
(2.30594e-06 4.37951e-06 8.45522e-30)
(2.16808e-06 3.81935e-06 -4.99299e-30)
(2.43188e-06 3.60657e-06 1.61257e-25)
(2.36203e-06 3.03614e-06 1.22409e-25)
(2.39567e-06 2.72584e-06 1.78317e-29)
(2.27815e-06 2.32615e-06 0)
(2.21868e-06 2.06057e-06 2.32628e-29)
(2.09427e-06 1.78119e-06 3.60868e-25)
(1.99992e-06 1.57111e-06 0)
(1.88702e-06 1.37754e-06 -2.24634e-29)
(1.7836e-06 1.21304e-06 2.22964e-29)
(1.68139e-06 1.07203e-06 -1.79342e-25)
(1.58306e-06 9.46491e-07 1.69607e-25)
(1.48854e-06 8.37321e-07 0)
(1.40243e-06 7.4476e-07 -1.62338e-25)
(1.31603e-06 6.5876e-07 1.55265e-25)
(1.23653e-06 5.85317e-07 1.53593e-25)
(1.16195e-06 5.20315e-07 2.86532e-25)
(1.08902e-06 4.60635e-07 3.38955e-29)
(1.02158e-06 4.09284e-07 -3.27199e-29)
(9.57805e-07 3.62798e-07 1.24853e-25)
(8.95879e-07 3.20451e-07 0)
(8.39001e-07 2.83906e-07 1.39557e-29)
(7.8388e-07 2.50044e-07 -1.32699e-29)
(7.31528e-07 2.19858e-07 -1.27859e-29)
(6.83256e-07 1.93502e-07 -6.10689e-31)
(6.36016e-07 1.68892e-07 -1.8568e-25)
(5.91499e-07 1.47216e-07 -8.99444e-26)
(5.49889e-07 1.27965e-07 -1.03429e-29)
(5.09404e-07 1.10264e-07 9.55627e-30)
(4.71601e-07 9.48478e-08 -9.36738e-30)
(4.35692e-07 8.09245e-08 0)
(4.01178e-07 6.84025e-08 8.09152e-30)
(3.6902e-07 5.75425e-08 -1.53734e-29)
(3.38038e-07 4.77029e-08 5.88201e-26)
(3.08773e-07 3.91308e-08 6.73477e-30)
(2.81249e-07 3.16527e-08 2.60016e-26)
(2.54844e-07 2.50417e-08 0)
(2.30128e-07 1.94216e-08 0)
(2.06544e-07 1.45454e-08 -2.14046e-26)
(1.84362e-07 1.04404e-08 5.0521e-30)
(1.63453e-07 7.02284e-09 4.4708e-30)
(1.43681e-07 4.20033e-09 -4.3958e-30)
(1.25129e-07 1.9627e-09 4.08828e-27)
(1.07646e-07 2.25633e-10 -3.80131e-30)
(9.12372e-08 -1.0448e-09 3.53936e-27)
(7.5889e-08 -1.89095e-09 -6.54783e-27)
(6.27943e-08 -2.37755e-09 -7.59969e-27)
(5.16245e-08 -2.47895e-09 7.2468e-27)
(4.18058e-08 -2.35988e-09 1.38883e-26)
(3.25293e-08 -2.13428e-09 1.32916e-26)
(2.39856e-08 -1.75386e-09 0)
(1.63197e-08 -1.29128e-09 1.21405e-26)
(9.16082e-09 -7.73836e-10 -1.15741e-26)
(2.54863e-09 -2.0422e-10 1.10441e-26)
(-3.57111e-09 4.07059e-10 -1.05605e-26)
(-9.28974e-09 1.05829e-09 -2.01213e-26)
(-1.4582e-08 1.73433e-09 2.34385e-30)
(-1.95453e-08 2.44269e-09 1.82819e-26)
(-2.4164e-08 3.16476e-09 -3.48476e-26)
(-2.84925e-08 3.90506e-09 -1.6544e-26)
(-3.25459e-08 4.66271e-09 0)
(-3.63339e-08 5.42128e-09 1.49481e-26)
(-3.9889e-08 6.19839e-09 2.82688e-26)
(-4.31865e-08 6.96806e-09 0)
(-4.62719e-08 7.73619e-09 1.26275e-26)
(-4.91077e-08 8.50637e-09 1.19217e-26)
(-5.16927e-08 9.24801e-09 -1.74982e-30)
(-5.40243e-08 9.98569e-09 3.08653e-31)
(-5.60248e-08 1.06769e-08 -6.00784e-31)
(-5.77291e-08 1.13288e-08 -1.81411e-26)
(-5.90014e-08 1.19235e-08 1.68478e-26)
(-5.98487e-08 1.24243e-08 -1.54719e-26)
(-6.01319e-08 1.28337e-08 -1.40485e-26)
(-5.97844e-08 1.30881e-08 1.27895e-26)
(-5.86645e-08 1.31785e-08 -1.12599e-26)
(-5.66349e-08 1.30376e-08 1.00436e-26)
(-5.34934e-08 1.261e-08 1.40492e-31)
(-4.91004e-08 1.18486e-08 -7.2553e-27)
(-4.30335e-08 1.06129e-08 5.78008e-27)
(-3.53395e-08 8.90216e-09 7.91774e-32)
(-2.5035e-08 6.41564e-09 -3.08369e-27)
(-1.27701e-08 3.28977e-09 -1.94414e-27)
(3.79012e-09 -1.14879e-09 -9.34916e-33)
(2.22824e-08 -6.33157e-09 0)
(4.84943e-08 -1.39225e-08 1.78015e-27)
(7.5506e-08 -2.20886e-08 -1.61684e-29)
(1.17878e-07 -3.51389e-08 0)
(1.55701e-07 -4.73846e-08 0)
(2.28289e-07 -7.08067e-08 0)
(2.79064e-07 -8.85196e-08 -2.22522e-27)
(4.16357e-07 -1.3453e-07 6.39831e-27)
(4.85415e-07 -1.60598e-07 0)
(7.99112e-07 -2.6917e-07 0)
(9.06298e-07 -3.14387e-07 5.43411e-26)
(2.06569e-06 -7.25165e-07 -1.83407e-26)
(2.02391e-06 -2.18695e-06 -1.09343e-24)
(2.02445e-07 7.43711e-06 2.95329e-28)
(9.4194e-08 5.33556e-06 1.57301e-26)
(3.03899e-07 6.83843e-06 -2.7674e-29)
(8.49487e-07 7.49401e-06 1.88892e-29)
(2.63874e-06 8.70732e-06 0)
(3.33265e-06 6.36194e-06 8.38246e-26)
(3.14356e-06 5.54928e-06 -5.08137e-27)
(3.52322e-06 5.23442e-06 -8.65419e-26)
(3.42533e-06 4.41263e-06 -6.57074e-26)
(3.47419e-06 3.96039e-06 0)
(3.30595e-06 3.38218e-06 0)
(3.21987e-06 2.99561e-06 0)
(3.04052e-06 2.59047e-06 -1.93986e-25)
(2.90381e-06 2.28484e-06 0)
(2.74044e-06 2.00369e-06 -2.41442e-29)
(2.59052e-06 1.76447e-06 2.39649e-29)
(2.44233e-06 1.55946e-06 1.92632e-25)
(2.2997e-06 1.3769e-06 2.21459e-29)
(2.16257e-06 1.21815e-06 -1.86027e-25)
(2.03755e-06 1.08351e-06 0)
(1.91216e-06 9.58449e-07 -1.66937e-25)
(1.79672e-06 8.51607e-07 -1.65226e-25)
(1.68841e-06 7.57056e-07 -1.54141e-25)
(1.58252e-06 6.70257e-07 -1.49487e-25)
(1.48456e-06 5.95549e-07 1.74435e-29)
(1.39192e-06 5.27929e-07 -3.03713e-31)
(1.30198e-06 4.66335e-07 1.31441e-25)
(1.21934e-06 4.13165e-07 0)
(1.13926e-06 3.63909e-07 -1.15686e-25)
(1.06321e-06 3.19997e-07 -1.4093e-29)
(9.93067e-07 2.81651e-07 -2.1233e-25)
(9.24435e-07 2.45854e-07 1.99813e-25)
(8.59755e-07 2.14318e-07 -1.19799e-29)
(7.99288e-07 1.86309e-07 8.98941e-26)
(7.40466e-07 1.60558e-07 -2.08757e-29)
(6.85533e-07 1.38126e-07 1.00799e-29)
(6.33352e-07 1.17869e-07 0)
(5.832e-07 9.96494e-08 8.7073e-30)
(5.36467e-07 8.38453e-08 -8.41133e-30)
(4.91444e-07 6.95275e-08 -1.03927e-29)
(4.48916e-07 5.7052e-08 7.51296e-30)
(4.08916e-07 4.61678e-08 0)
(3.70542e-07 3.65453e-08 0)
(3.34622e-07 2.83633e-08 5.93181e-30)
(3.00347e-07 2.12638e-08 2.30244e-26)
(2.68109e-07 1.52857e-08 0)
(2.3772e-07 1.03075e-08 0)
(2.08984e-07 6.19494e-09 -4.52296e-30)
(1.8202e-07 2.93297e-09 1.99692e-31)
(1.56609e-07 3.99231e-10 4.09109e-30)
(1.32759e-07 -1.45583e-09 -3.80928e-27)
(1.10451e-07 -2.69334e-09 7.0439e-27)
(9.1418e-08 -3.40687e-09 -8.1795e-27)
(7.51837e-08 -3.56102e-09 -7.80493e-27)
(6.09084e-08 -3.39371e-09 -2.98906e-26)
(4.74245e-08 -3.07038e-09 1.43092e-26)
(3.50046e-08 -2.52247e-09 -3.40757e-30)
(2.38592e-08 -1.85422e-09 -1.3066e-26)
(1.3452e-08 -1.10561e-09 -1.48673e-30)
(3.83917e-09 -2.80995e-10 6.64791e-32)
(-5.05777e-09 6.04559e-10 1.13656e-26)
(-1.33714e-08 1.54835e-09 0)
(-2.10654e-08 2.52847e-09 -2.06582e-26)
(-2.8281e-08 3.55571e-09 1.12316e-30)
(-3.49957e-08 4.60306e-09 -1.11749e-30)
(-4.12883e-08 5.67706e-09 0)
(-4.7181e-08 6.77633e-09 1.00773e-30)
(-5.26878e-08 7.87708e-09 -1.96474e-30)
(-5.78559e-08 9.00475e-09 2.05788e-30)
(-6.26497e-08 1.01217e-08 0)
(-6.71348e-08 1.12364e-08 0)
(-7.12572e-08 1.23541e-08 1.2833e-26)
(-7.5015e-08 1.34302e-08 2.41732e-26)
(-7.84043e-08 1.45004e-08 0)
(-8.13128e-08 1.55031e-08 -1.05936e-26)
(-8.37905e-08 1.64483e-08 1.19196e-30)
(-8.5641e-08 1.73102e-08 -1.81381e-26)
(-8.68737e-08 1.80353e-08 1.66573e-26)
(-8.72875e-08 1.86273e-08 1.51198e-26)
(-8.67851e-08 1.89938e-08 -1.37718e-26)
(-8.51612e-08 1.91215e-08 -1.21264e-26)
(-8.22165e-08 1.89126e-08 -1.76348e-31)
(-7.76575e-08 1.82866e-08 0)
(-7.12813e-08 1.71746e-08 0)
(-6.2476e-08 1.53734e-08 0)
(-5.13075e-08 1.28801e-08 0)
(-3.63522e-08 9.26053e-09 -4.12146e-32)
(-1.85477e-08 4.70787e-09 4.17896e-32)
(5.4839e-09 -1.74809e-09 -5.72553e-28)
(3.23302e-08 -9.29543e-09 0)
(7.03602e-08 -2.0329e-08 -1.91591e-27)
(1.09579e-07 -3.22249e-08 -1.8875e-27)
(1.71035e-07 -5.11795e-08 2.23395e-32)
(2.25965e-07 -6.90371e-08 2.72901e-32)
(3.312e-07 -1.03027e-07 -2.76415e-32)
(4.04979e-07 -1.28921e-07 8.3627e-33)
(6.03902e-07 -1.95632e-07 -6.82409e-27)
(7.043e-07 -2.33964e-07 -3.04403e-32)
(1.15846e-06 -3.91252e-07 5.98104e-32)
(1.31376e-06 -4.58915e-07 -5.8486e-26)
(2.98654e-06 -1.05102e-06 1.75282e-31)
(2.8962e-06 -3.14769e-06 1.56799e-24)
(2.60594e-07 9.87325e-06 4.26443e-30)
(1.2203e-07 7.14106e-06 8.46831e-27)
(4.20091e-07 9.11385e-06 6.5911e-27)
(1.1466e-06 9.97815e-06 -2.5787e-26)
(3.49994e-06 1.15663e-05 -6.26204e-30)
(4.42601e-06 8.4947e-06 -9.01321e-26)
(4.18904e-06 7.41123e-06 5.42871e-27)
(4.69114e-06 6.98288e-06 1.15645e-29)
(4.56542e-06 5.89509e-06 -2.19083e-29)
(4.63069e-06 5.28921e-06 4.51284e-29)
(4.40951e-06 4.52051e-06 -2.42204e-29)
(4.29503e-06 4.00325e-06 1.09082e-25)
(4.05746e-06 3.46327e-06 -5.21978e-29)
(3.87542e-06 3.05453e-06 -1.11498e-25)
(3.65818e-06 2.67917e-06 0)
(3.45844e-06 2.3594e-06 -5.20557e-29)
(3.26099e-06 2.08541e-06 -2.07229e-25)
(3.07081e-06 1.84136e-06 4.7683e-29)
(2.88795e-06 1.62915e-06 2.00152e-25)
(2.72113e-06 1.44909e-06 1.87574e-25)
(2.55386e-06 1.28193e-06 1.79577e-25)
(2.39979e-06 1.13904e-06 0)
(2.2552e-06 1.01261e-06 0)
(2.11387e-06 8.96564e-07 3.21686e-25)
(1.98309e-06 7.96648e-07 -1.55011e-25)
(1.85938e-06 7.06224e-07 0)
(1.73931e-06 6.23868e-07 -2.82875e-25)
(1.62895e-06 5.52753e-07 -1.33639e-25)
(1.52202e-06 4.8689e-07 2.48949e-25)
(1.42046e-06 4.28166e-07 1.22711e-25)
(1.32677e-06 3.76878e-07 1.14256e-25)
(1.23511e-06 3.29011e-07 -1.07517e-25)
(1.14873e-06 2.86833e-07 0)
(1.06796e-06 2.49372e-07 -3.34031e-29)
(9.89402e-07 2.14934e-07 9.20258e-26)
(9.16026e-07 1.84928e-07 1.11722e-29)
(8.46322e-07 1.57833e-07 -8.11959e-26)
(7.79337e-07 1.33464e-07 -7.80246e-26)
(7.16907e-07 1.12321e-07 -8.75106e-30)
(6.56765e-07 9.31681e-08 -6.80938e-26)
(5.99956e-07 7.64767e-08 -8.08487e-30)
(5.46519e-07 6.19135e-08 3.01189e-26)
(4.95259e-07 4.90378e-08 2.84905e-26)
(4.47272e-07 3.80871e-08 0)
(4.01483e-07 2.85845e-08 2.47783e-26)
(3.58414e-07 2.05808e-08 -2.34555e-26)
(3.17815e-07 1.39142e-08 5.17817e-30)
(2.79423e-07 8.40509e-09 -9.959e-30)
(2.43398e-07 4.0332e-09 -4.72607e-27)
(2.09447e-07 6.35218e-10 0)
(1.77583e-07 -1.85535e-09 8.19933e-27)
(1.47775e-07 -3.51962e-09 -1.51618e-26)
(1.22347e-07 -4.4818e-09 8.80711e-27)
(1.00658e-07 -4.69733e-09 -4.01279e-30)
(8.1579e-08 -4.48196e-09 1.60887e-26)
(6.35623e-08 -4.05644e-09 -1.53962e-26)
(4.69659e-08 -3.3315e-09 0)
(3.20701e-08 -2.44448e-09 0)
(1.81627e-08 -1.44921e-09 0)
(5.31602e-09 -3.52146e-10 3.05312e-30)
(-6.57391e-09 8.26886e-10 -5.97435e-30)
(-1.76839e-08 2.08398e-09 2.91336e-30)
(-2.79665e-08 3.38996e-09 2.22345e-26)
(-3.76092e-08 4.75913e-09 -4.23566e-26)
(-4.65827e-08 6.15542e-09 -1.29608e-30)
(-5.4992e-08 7.58752e-09 0)
(-6.28668e-08 9.05349e-09 0)
(-7.02258e-08 1.05216e-08 0)
(-7.7132e-08 1.20257e-08 -1.63737e-26)
(-8.35382e-08 1.35156e-08 0)
(-8.95314e-08 1.50025e-08 0)
(-9.50401e-08 1.64932e-08 -2.76234e-26)
(-1.00061e-07 1.79285e-08 -1.30084e-26)
(-1.0459e-07 1.93554e-08 0)
(-1.08478e-07 2.06922e-08 2.2803e-26)
(-1.11789e-07 2.19519e-08 6.16934e-31)
(-1.14263e-07 2.31e-08 -3.33382e-30)
(-1.15912e-07 2.4065e-08 -3.58595e-26)
(-1.16467e-07 2.48517e-08 -1.628e-26)
(-1.158e-07 2.53365e-08 1.48224e-26)
(-1.13636e-07 2.5502e-08 1.30509e-26)
(-1.09709e-07 2.52169e-08 1.16491e-26)
(-1.03628e-07 2.43744e-08 -1.62892e-31)
(-9.51219e-08 2.28812e-08 0)
(-8.33757e-08 2.04674e-08 0)
(-6.84743e-08 1.71265e-08 0)
(-4.85248e-08 1.22828e-08 0)
(-2.47683e-08 6.18709e-09 0)
(7.28458e-09 -2.44499e-09 6.16219e-28)
(4.31074e-08 -1.25488e-08 0)
(9.38201e-08 -2.72909e-08 3.05429e-32)
(1.46158e-07 -4.32219e-08 -7.09108e-33)
(2.28081e-07 -6.85269e-08 -2.38897e-32)
(3.01406e-07 -9.24685e-08 0)
(4.41619e-07 -1.37805e-07 -5.9493e-27)
(5.4016e-07 -1.72611e-07 3.01751e-32)
(8.05034e-07 -2.61508e-07 7.34456e-27)
(9.39203e-07 -3.13342e-07 1.42203e-32)
(1.54342e-06 -5.22749e-07 9.90371e-27)
(1.75023e-06 -6.1588e-07 0)
(3.96771e-06 -1.40001e-06 0)
(3.8254e-06 -4.17457e-06 -8.40196e-25)
(3.18412e-07 1.24641e-05 0)
(1.50313e-07 9.09162e-06 -9.09692e-27)
(5.52566e-07 1.15524e-05 -5.95172e-29)
(1.47262e-06 1.26354e-05 2.7701e-26)
(4.41415e-06 1.46102e-05 2.12948e-26)
(5.58947e-06 1.07887e-05 0)
(5.30905e-06 9.41509e-06 1.34422e-29)
(5.94047e-06 8.86063e-06 -1.2344e-29)
(5.78746e-06 7.49163e-06 -2.34696e-29)
(5.87044e-06 6.71949e-06 7.47989e-29)
(5.59415e-06 5.74762e-06 -5.19473e-29)
(5.4494e-06 5.08922e-06 -2.34414e-25)
(5.15024e-06 4.40467e-06 2.2335e-25)
(4.91971e-06 3.88467e-06 1.19948e-25)
(4.64499e-06 3.40798e-06 -2.25543e-25)
(4.39192e-06 3.00133e-06 0)
(4.14168e-06 2.65299e-06 0)
(3.9005e-06 2.34264e-06 2.10636e-25)
(3.66859e-06 2.07277e-06 0)
(3.45685e-06 1.84372e-06 -2.01866e-25)
(3.2446e-06 1.63114e-06 -4.68377e-29)
(3.04902e-06 1.44936e-06 4.69583e-29)
(2.86541e-06 1.28853e-06 0)
(2.68599e-06 1.14093e-06 -3.45928e-25)
(2.51991e-06 1.0138e-06 1.66709e-25)
(2.36277e-06 8.98773e-07 3.75696e-29)
(2.2103e-06 7.94018e-07 3.0427e-25)
(2.0701e-06 7.03529e-07 1.43836e-25)
(1.93426e-06 6.19746e-07 -1.33978e-25)
(1.80527e-06 5.45036e-07 -1.32012e-25)
(1.68623e-06 4.79776e-07 2.96397e-29)
(1.56979e-06 4.18886e-07 1.15608e-25)
(1.46005e-06 3.65219e-07 0)
(1.35742e-06 3.17554e-07 -1.04101e-25)
(1.25761e-06 2.73741e-07 -9.9005e-26)
(1.16438e-06 2.35556e-07 0)
(1.0758e-06 2.01079e-07 1.74791e-25)
(9.90696e-07 1.7007e-07 8.39443e-26)
(9.11363e-07 1.4316e-07 0)
(8.34942e-07 1.18786e-07 -1.75773e-29)
(7.62753e-07 9.75407e-08 1.74004e-29)
(6.94846e-07 7.90026e-08 -3.2413e-26)
(6.29708e-07 6.26117e-08 -3.06608e-26)
(5.68724e-07 4.86679e-08 0)
(5.10535e-07 3.6567e-08 -2.66724e-26)
(4.55801e-07 2.63722e-08 2.21014e-31)
(4.04204e-07 1.78784e-08 0)
(3.55412e-07 1.0857e-08 0)
(3.09627e-07 5.28194e-09 5.09618e-27)
(2.66477e-07 9.45993e-10 -4.73855e-30)
(2.25978e-07 -2.23579e-09 -8.82442e-27)
(1.88092e-07 -4.36572e-09 8.15882e-27)
(1.55774e-07 -5.6006e-09 0)
(1.28208e-07 -5.88749e-09 -9.04064e-27)
(1.03952e-07 -5.62484e-09 1.7312e-26)
(8.10519e-08 -5.09277e-09 8.09291e-30)
(5.99548e-08 -4.18103e-09 -3.94714e-30)
(4.10164e-08 -3.06152e-09 3.61433e-30)
(2.33368e-08 -1.80324e-09 -3.60394e-30)
(7.00477e-09 -4.15229e-10 1.37683e-26)
(-8.11101e-09 1.0777e-09 -1.31648e-26)
(-2.22348e-08 2.67017e-09 0)
(-3.53075e-08 4.32528e-09 -2.39309e-26)
(-4.75659e-08 6.061e-09 2.27928e-26)
(-5.8974e-08 7.83152e-09 2.17205e-26)
(-6.96645e-08 9.64784e-09 2.58247e-30)
(-7.96755e-08 1.15074e-08 1.96249e-26)
(-8.90306e-08 1.33699e-08 0)
(-9.78098e-08 1.5278e-08 0)
(-1.05954e-07 1.71684e-08 1.6743e-26)
(-1.13572e-07 1.90549e-08 -9.89437e-31)
(-1.20575e-07 2.0946e-08 1.4865e-26)
(-1.26958e-07 2.27668e-08 0)
(-1.32715e-07 2.45766e-08 -7.69828e-31)
(-1.37656e-07 2.62718e-08 -1.22708e-26)
(-1.41866e-07 2.78683e-08 6.64083e-31)
(-1.45013e-07 2.93229e-08 2.10119e-26)
(-1.47111e-07 3.05442e-08 1.92991e-26)
(-1.47821e-07 3.15383e-08 -5.00234e-30)
(-1.46978e-07 3.21481e-08 4.60639e-31)
(-1.44235e-07 3.23513e-08 -1.40573e-26)
(-1.39255e-07 3.19811e-08 -1.25369e-26)
(-1.3154e-07 3.09018e-08 -5.2488e-32)
(-1.20746e-07 2.89939e-08 9.07245e-27)
(-1.05842e-07 2.59164e-08 9.78562e-32)
(-8.69311e-08 2.16572e-08 -1.72379e-31)
(-6.16195e-08 1.54908e-08 7.24836e-32)
(-3.14694e-08 7.72581e-09 0)
(9.1933e-09 -3.25377e-09 6.90508e-28)
(5.466e-08 -1.61222e-08 -3.0604e-28)
(1.18979e-07 -3.48591e-08 -2.16801e-27)
(1.85415e-07 -5.51566e-08 2.11838e-27)
(2.8928e-07 -8.72911e-08 0)
(3.82382e-07 -1.17831e-07 3.11362e-32)
(5.60056e-07 -1.75346e-07 1.27742e-26)
(6.85249e-07 -2.19865e-07 0)
(1.02066e-06 -3.3253e-07 -7.82315e-27)
(1.19122e-06 -3.99245e-07 1.88476e-26)
(1.95563e-06 -6.64377e-07 -6.40705e-29)
(2.21754e-06 -7.86397e-07 0)
(5.01223e-06 -1.77358e-06 -2.01324e-31)
(4.81539e-06 -5.26876e-06 -4.46767e-25)
(3.7545e-07 1.52175e-05 0)
(1.79073e-07 1.11986e-05 0)
(7.03436e-07 1.41648e-05 -7.54722e-27)
(1.8304e-06 1.54765e-05 3.80241e-29)
(5.38382e-06 1.78489e-05 -4.60444e-26)
(6.82651e-06 1.32554e-05 -5.89544e-30)
(6.50833e-06 1.15715e-05 -1.78569e-30)
(7.27626e-06 1.08769e-05 1.31671e-29)
(7.09686e-06 9.21098e-06 8.01524e-26)
(7.199e-06 8.25894e-06 0)
(6.86553e-06 7.07051e-06 0)
(6.68856e-06 6.25969e-06 1.25932e-25)
(6.32432e-06 5.42018e-06 -2.4021e-25)
(6.04198e-06 4.78013e-06 -1.28804e-25)
(5.70598e-06 4.19443e-06 2.42698e-25)
(5.39581e-06 3.6941e-06 -2.46276e-25)
(5.08906e-06 3.26563e-06 2.39305e-25)
(4.79319e-06 2.88376e-06 -2.26618e-25)
(4.50867e-06 2.55172e-06 -5.66552e-29)
(4.24867e-06 2.26978e-06 0)
(3.98815e-06 2.00823e-06 5.03681e-29)
(3.74795e-06 1.78446e-06 -1.00374e-28)
(3.52239e-06 1.5865e-06 4.71173e-29)
(3.30203e-06 1.40486e-06 1.86092e-25)
(3.09797e-06 1.24836e-06 4.34234e-29)
(2.90487e-06 1.10676e-06 1.67053e-25)
(2.71755e-06 9.7784e-07 -1.63618e-25)
(2.54523e-06 8.66431e-07 -8.09456e-31)
(2.3783e-06 7.63308e-07 -1.44072e-25)
(2.21977e-06 6.71342e-07 -3.51e-29)
(2.07344e-06 5.90996e-07 3.1889e-29)
(1.93034e-06 5.16049e-07 -1.24494e-25)
(1.79545e-06 4.49978e-07 1.20584e-25)
(1.66928e-06 3.91294e-07 -1.11995e-25)
(1.54661e-06 3.37361e-07 7.70314e-31)
(1.43199e-06 2.90341e-07 4.9478e-29)
(1.3231e-06 2.47892e-07 -9.40563e-26)
(1.21848e-06 2.09713e-07 -9.03661e-26)
(1.12094e-06 1.76574e-07 8.44382e-26)
(1.02699e-06 1.4656e-07 7.88469e-26)
(9.3824e-07 1.20394e-07 -1.80635e-29)
(8.54746e-07 9.75597e-08 6.35817e-31)
(7.74664e-07 7.73696e-08 3.30105e-26)
(6.99681e-07 6.01892e-08 0)
(6.28136e-07 4.52783e-08 1.37284e-29)
(5.60838e-07 3.27125e-08 -1.32924e-29)
(4.97394e-07 2.22404e-08 1.25424e-26)
(4.374e-07 1.35806e-08 1.18177e-26)
(3.811e-07 6.70076e-09 -5.22837e-30)
(3.2804e-07 1.34627e-09 2.38951e-31)
(2.78239e-07 -2.5878e-09 4.75326e-27)
(2.31649e-07 -5.22628e-09 0)
(1.91908e-07 -6.76052e-09 0)
(1.58013e-07 -7.1303e-09 1.94502e-26)
(1.28176e-07 -6.82188e-09 7.60122e-31)
(1.00013e-07 -6.17912e-09 0)
(7.4066e-08 -5.07062e-09 -1.70175e-26)
(5.07693e-08 -3.70431e-09 4.06764e-30)
(2.90242e-08 -2.1658e-09 -3.70711e-30)
(8.93529e-09 -4.673e-10 -2.96325e-26)
(-9.65766e-09 1.36119e-09 2.83408e-26)
(-2.70299e-08 3.31253e-09 -3.37483e-30)
(-4.311e-08 5.34154e-09 2.5755e-26)
(-5.81878e-08 7.47009e-09 2.92337e-30)
(-7.22203e-08 9.64188e-09 -2.92569e-30)
(-8.53695e-08 1.18704e-08 2.643e-30)
(-9.76829e-08 1.41521e-08 -2.11262e-26)
(-1.09189e-07 1.64379e-08 2.00674e-26)
(-1.19987e-07 1.87798e-08 -2.37955e-30)
(-1.30004e-07 2.11001e-08 -1.80184e-26)
(-1.39373e-07 2.34155e-08 0)
(-1.47986e-07 2.57365e-08 0)
(-1.55836e-07 2.7971e-08 0)
(-1.62917e-07 3.01914e-08 8.28635e-31)
(-1.68996e-07 3.22709e-08 -8.35083e-31)
(-1.74173e-07 3.42285e-08 0)
(-1.78046e-07 3.60109e-08 -2.26226e-26)
(-1.80629e-07 3.7506e-08 2.07785e-26)
(-1.81508e-07 3.87207e-08 1.88621e-26)
(-1.80479e-07 3.94624e-08 1.71844e-26)
(-1.77116e-07 3.97029e-08 -5.77346e-30)
(-1.71004e-07 3.92372e-08 1.35064e-26)
(-1.61536e-07 3.7899e-08 0)
(-1.48286e-07 3.55397e-08 8.87779e-30)
(-1.29992e-07 3.17426e-08 0)
(-1.06776e-07 2.64882e-08 -6.12079e-27)
(-7.57082e-08 1.88923e-08 0)
(-3.86911e-08 9.3209e-09 -2.62974e-32)
(1.12108e-08 -4.19142e-09 -7.4314e-28)
(6.70362e-08 -2.00504e-08 3.29359e-28)
(1.4595e-07 -4.30904e-08 2.33341e-27)
(2.27532e-07 -6.81146e-08 -2.27997e-27)
(3.54912e-07 -1.07593e-07 0)
(4.69273e-07 -1.45291e-07 0)
(6.8705e-07 -2.15876e-07 -1.36775e-26)
(8.40927e-07 -2.70987e-07 3.28405e-27)
(1.25174e-06 -4.09105e-07 1.67908e-26)
(1.4615e-06 -4.92232e-07 1.36147e-28)
(2.39683e-06 -8.1691e-07 -2.27326e-26)
(2.71764e-06 -9.717e-07 4.8237e-32)
(6.12317e-06 -2.17328e-06 2.40634e-26)
(5.8696e-06 -6.43297e-06 1.9278e-24)
(4.31245e-07 1.81415e-05 0)
(2.08395e-07 1.34742e-05 1.05199e-26)
(8.75046e-07 1.69623e-05 -4.35351e-29)
(2.22306e-06 1.85126e-05 4.90976e-29)
(6.4114e-06 2.12922e-05 -2.28408e-28)
(8.1406e-06 1.59071e-05 1.05638e-25)
(7.79183e-06 1.38917e-05 -3.05598e-29)
(8.7038e-06 1.30417e-05 -2.01639e-29)
(8.49934e-06 1.10625e-05 -8.61006e-26)
(8.62226e-06 9.91589e-06 1.03997e-29)
(8.22965e-06 8.49675e-06 1.19686e-25)
(8.01846e-06 7.52134e-06 -1.34749e-25)
(7.58555e-06 6.51579e-06 0)
(7.24788e-06 5.74619e-06 1.38422e-25)
(6.84661e-06 5.04323e-06 2.60326e-25)
(6.47537e-06 4.44188e-06 2.65066e-25)
(6.10813e-06 3.92701e-06 -2.57381e-25)
(5.75363e-06 3.46801e-06 2.43306e-25)
(5.4127e-06 3.0689e-06 0)
(5.10087e-06 2.72988e-06 5.6757e-29)
(4.78852e-06 2.4155e-06 -5.46981e-29)
(4.50038e-06 2.14639e-06 0)
(4.22972e-06 1.90836e-06 0)
(3.96536e-06 1.68999e-06 0)
(3.72046e-06 1.50176e-06 0)
(3.48866e-06 1.3315e-06 -1.79832e-25)
(3.26387e-06 1.17648e-06 0)
(3.057e-06 1.04248e-06 0)
(2.8566e-06 9.18482e-07 3.10046e-25)
(2.6663e-06 8.07885e-07 -3.77603e-29)
(2.49058e-06 7.11245e-07 3.4308e-29)
(2.31878e-06 6.21125e-07 1.33821e-25)
(2.15682e-06 5.41657e-07 -1.29723e-25)
(2.00531e-06 4.71073e-07 1.58018e-29)
(1.85802e-06 4.06211e-07 1.14636e-25)
(1.72038e-06 3.49647e-07 2.62134e-29)
(1.58961e-06 2.98589e-07 1.01122e-25)
(1.46398e-06 2.52664e-07 9.72447e-26)
(1.34684e-06 2.12793e-07 -9.07996e-26)
(1.23401e-06 1.76686e-07 -8.48714e-26)
(1.12742e-06 1.45201e-07 -2.01491e-29)
(1.02714e-06 1.17723e-07 1.79885e-29)
(9.30967e-07 9.34253e-08 -1.88349e-29)
(8.40905e-07 7.27439e-08 0)
(7.54975e-07 5.47928e-08 0)
(6.74142e-07 3.96604e-08 5.84831e-26)
(5.97936e-07 2.70457e-08 1.28552e-29)
(5.25874e-07 1.66103e-08 -1.2718e-26)
(4.58247e-07 8.31455e-09 0)
(3.9451e-07 1.8534e-09 0)
(3.34687e-07 -2.89999e-09 0)
(2.78718e-07 -6.0943e-09 0)
(2.30981e-07 -7.95752e-09 1.09791e-26)
(1.90267e-07 -8.42356e-09 -2.09331e-26)
(1.54412e-07 -8.07181e-09 -2.00516e-26)
(1.20579e-07 -7.31454e-09 -1.91946e-26)
(8.94044e-08 -5.99921e-09 1.83099e-26)
(6.14088e-08 -4.37127e-09 -1.75328e-26)
(3.52814e-08 -2.53443e-09 3.98987e-30)
(1.11425e-08 -5.04815e-10 1.59439e-26)
(-1.11989e-08 1.6822e-09 -1.52527e-26)
(-3.20728e-08 4.01737e-09 2.90643e-26)
(-5.13952e-08 6.44667e-09 3.30471e-30)
(-6.95122e-08 8.99607e-09 -1.56133e-31)
(-8.63737e-08 1.1598e-08 -3.14893e-30)
(-1.02173e-07 1.42685e-08 -2.8447e-30)
(-1.16969e-07 1.70032e-08 1.42904e-31)
(-1.30794e-07 1.97433e-08 -4.31831e-26)
(-1.43768e-07 2.25506e-08 -2.0416e-26)
(-1.55803e-07 2.53323e-08 -1.93983e-26)
(-1.6706e-07 2.81081e-08 2.16233e-30)
(-1.77408e-07 3.08903e-08 -1.27909e-31)
(-1.8684e-07 3.35687e-08 -2.04382e-30)
(-1.95346e-07 3.62295e-08 0)
(-2.02651e-07 3.8721e-08 1.67466e-30)
(-2.08872e-07 4.10651e-08 -1.6615e-30)
(-2.13528e-07 4.31984e-08 -5.8219e-30)
(-2.16636e-07 4.49856e-08 -4.47318e-26)
(-2.17698e-07 4.64351e-08 0)
(-2.16471e-07 4.73152e-08 -1.84947e-26)