/*--------------------------------*- C++ -*----------------------------------*\
| =========                 |                                                 |
| \\      /  F ield         | OpenFOAM: The Open Source CFD Toolbox           |
|  \\    /   O peration     | Version:  5.x                                   |
|   \\  /    A nd           | Web:      www.OpenFOAM.org                      |
|    \\/     M anipulation  |                                                 |
\*---------------------------------------------------------------------------*/
FoamFile
{
    version     2.0;
    format      ascii;
    class       volVectorField;
    location    "2500";
    object      U;
}
// * * * * * * * * * * * * * * * * * * * * * * * * * * * * * * * * * * * * * //

dimensions      [0 1 -1 0 0 0 0];

internalField   nonuniform List<vector> 
107912
(
(2.56001e-05 7.69491e-05 -2.80895e-28)
(1.29533e-06 6.46945e-05 2.68219e-28)
(3.6575e-06 9.09004e-05 6.40199e-25)
(1.1801e-05 0.000107996 6.68585e-25)
(3.69932e-05 0.000121715 -1.20182e-23)
(4.51808e-05 8.50412e-05 2.77695e-23)
(4.21568e-05 7.39836e-05 2.11016e-23)
(4.89809e-05 7.24714e-05 6.92086e-28)
(4.66684e-05 5.97594e-05 -3.73663e-27)
(4.73536e-05 5.37254e-05 -4.10826e-27)
(4.46934e-05 4.5484e-05 -4.40584e-27)
(4.3041e-05 3.9859e-05 3.4438e-23)
(4.03171e-05 3.41865e-05 6.66157e-23)
(3.79284e-05 2.97118e-05 1.27512e-26)
(3.54314e-05 2.57916e-05 -6.51711e-23)
(3.29157e-05 2.23236e-05 6.50881e-23)
(3.05835e-05 1.94452e-05 7.72517e-27)
(2.82642e-05 1.68516e-05 0)
(2.6032e-05 1.46018e-05 -1.20659e-22)
(2.40278e-05 1.27238e-05 -5.63141e-23)
(2.19659e-05 1.09632e-05 0)
(2.00718e-05 9.47281e-06 0)
(1.83067e-05 8.17266e-06 -4.9218e-23)
(1.65364e-05 6.97216e-06 4.75352e-23)
(1.49219e-05 5.95849e-06 4.57201e-23)
(1.33841e-05 5.05208e-06 8.48766e-23)
(1.18792e-05 4.23339e-06 -4.14081e-23)
(1.05166e-05 3.54484e-06 3.90552e-23)
(9.19151e-06 2.91961e-06 -3.62225e-23)
(7.94294e-06 2.37632e-06 -3.56279e-23)
(6.81501e-06 1.92048e-06 3.30969e-23)
(5.71773e-06 1.50991e-06 0)
(4.71469e-06 1.1661e-06 -3.00863e-23)
(3.80431e-06 8.78978e-07 3.36238e-27)
(2.94514e-06 6.32034e-07 -3.29194e-27)
(2.18386e-06 4.34592e-07 -7.57915e-28)
(1.49485e-06 2.73772e-07 2.35836e-23)
(8.73674e-07 1.45688e-07 6.52286e-28)
(3.40248e-07 5.04313e-08 -2.58147e-27)
(-1.3363e-07 -2.09384e-08 -2.01738e-23)
(-5.33546e-07 -6.92192e-08 2.40796e-27)
(-8.66928e-07 -9.87579e-08 0)
(-1.14491e-06 -1.13278e-07 0)
(-1.36107e-06 -1.15298e-07 -8.3666e-24)
(-1.53103e-06 -1.07968e-07 0)
(-1.65201e-06 -9.33809e-08 -1.53886e-23)
(-1.73406e-06 -7.41894e-08 -3.6481e-24)
(-1.7811e-06 -5.1427e-08 -3.53236e-24)
(-1.79778e-06 -2.74422e-08 0)
(-1.78929e-06 -2.76919e-09 0)
(-1.7587e-06 2.13199e-08 -1.57481e-24)
(-1.70868e-06 4.39412e-08 -1.48166e-27)
(-1.65494e-06 6.42135e-08 -3.65912e-24)
(-1.60025e-06 7.86404e-08 -3.62024e-24)
(-1.54432e-06 8.91675e-08 -7.19791e-24)
(-1.4892e-06 1.00131e-07 7.15696e-24)
(-1.42917e-06 1.07454e-07 -1.42072e-23)
(-1.37401e-06 1.1261e-07 -8.62727e-28)
(-1.32059e-06 1.17837e-07 7.03363e-24)
(-1.26775e-06 1.21934e-07 -6.99937e-24)
(-1.21782e-06 1.25738e-07 0)
(-1.16895e-06 1.28619e-07 -1.39054e-23)
(-1.12283e-06 1.30955e-07 8.47513e-28)
(-1.07791e-06 1.32955e-07 1.38234e-23)
(-1.0339e-06 1.34182e-07 8.43448e-28)
(-9.91495e-07 1.34909e-07 -1.37474e-23)
(-9.48955e-07 1.35234e-07 -4.19575e-28)
(-9.07335e-07 1.34773e-07 0)
(-8.66129e-07 1.34155e-07 -1.36648e-23)
(-8.252e-07 1.32729e-07 0)
(-7.86175e-07 1.31192e-07 -1.36231e-23)
(-7.48195e-07 1.29293e-07 -2.72763e-23)
(-7.12934e-07 1.27506e-07 0)
(-6.8064e-07 1.25674e-07 4.14077e-28)
(-6.51486e-07 1.2418e-07 -4.17297e-28)
(-6.27149e-07 1.22941e-07 -4.13339e-28)
(-6.0654e-07 1.22698e-07 2.72316e-23)
(-5.91397e-07 1.22787e-07 -5.44183e-23)
(-5.80736e-07 1.24126e-07 0)
(-5.7531e-07 1.26076e-07 0)
(-5.74693e-07 1.29368e-07 2.70084e-23)
(-5.78663e-07 1.33449e-07 -2.73956e-23)
(-5.87189e-07 1.38888e-07 2.69596e-23)
(-5.99472e-07 1.45176e-07 4.17241e-28)
(-6.15148e-07 1.52573e-07 -2.06084e-28)
(-6.33551e-07 1.6075e-07 2.73204e-23)
(-6.5309e-07 1.69578e-07 3.9259e-28)
(-6.73921e-07 1.78907e-07 -2.12043e-31)
(-6.91984e-07 1.87819e-07 -2.05511e-28)
(-7.09629e-07 1.96771e-07 -2.74645e-23)
(-7.1766e-07 2.03432e-07 0)
(-7.23611e-07 2.09431e-07 -2.07549e-28)
(-7.07166e-07 2.09207e-07 3.09436e-28)
(-6.89955e-07 2.08267e-07 -1.0264e-28)
(-6.22478e-07 1.91865e-07 -2.77665e-29)
(-5.68231e-07 1.78784e-07 -2.70578e-23)
(-3.93324e-07 1.26314e-07 2.67132e-23)
(-2.74975e-07 9.01449e-08 -5.3783e-23)
(1.59508e-07 -5.35106e-08 -1.02684e-28)
(4.18459e-07 -1.43754e-07 2.71805e-23)
(2.06691e-06 -7.21885e-07 -1.97997e-28)
(2.99436e-06 -3.54912e-06 5.76263e-23)
(5.68683e-05 0.000234591 0)
(4.11296e-06 0.000199015 0)
(1.17125e-05 0.000277216 -5.86784e-27)
(3.63746e-05 0.000328762 -2.11905e-24)
(0.000112376 0.000370209 9.60407e-24)
(0.000137902 0.000260813 0)
(0.000129142 0.000226948 -5.2e-27)
(0.00014984 0.000221828 -4.78522e-23)
(0.000143032 0.000183506 -4.89539e-23)
(0.000145151 0.000164882 -1.30866e-26)
(0.000137149 0.000139807 1.28612e-26)
(0.00013212 0.000122527 -5.48885e-23)
(0.00012384 0.000105177 -1.06111e-22)
(0.000116543 9.14374e-05 5.51375e-23)
(0.000108912 7.94081e-05 -1.26e-26)
(0.000101215 6.87591e-05 0)
(9.40689e-05 5.99116e-05 1.00827e-22)
(8.69599e-05 5.19399e-05 -9.43229e-23)
(8.01142e-05 4.50221e-05 9.61676e-23)
(7.39606e-05 3.92419e-05 8.97659e-23)
(6.76331e-05 3.38271e-05 -8.54778e-23)
(6.18151e-05 2.92382e-05 -1.02221e-26)
(5.63911e-05 2.52344e-05 1.85532e-26)
(5.09527e-05 2.15389e-05 -9.33558e-27)
(4.59889e-05 1.84151e-05 -7.28968e-23)
(4.12603e-05 1.5622e-05 -1.35294e-22)
(3.66337e-05 1.30994e-05 -8.1516e-27)
(3.24413e-05 1.09755e-05 0)
(2.83646e-05 9.04746e-06 6.95729e-27)
(2.45228e-05 7.37126e-06 5.68017e-23)
(2.10502e-05 5.96374e-06 3.04189e-27)
(1.76726e-05 4.69622e-06 4.95361e-23)
(1.45839e-05 3.63371e-06 9.59398e-23)
(1.17794e-05 2.74579e-06 0)
(9.13279e-06 1.98191e-06 0)
(6.78642e-06 1.37022e-06 4.03947e-23)
(4.66237e-06 8.71511e-07 -1.27904e-28)
(2.74707e-06 4.739e-07 -3.63074e-23)
(1.10133e-06 1.77345e-07 4.11623e-27)
(-3.61005e-07 -4.53409e-08 -3.979e-27)
(-1.5958e-06 -1.96758e-07 0)
(-2.62579e-06 -2.90195e-07 -1.45741e-23)
(-3.48514e-06 -3.3719e-07 7.42144e-29)
(-4.15417e-06 -3.45466e-07 3.29203e-27)
(-4.68071e-06 -3.24632e-07 0)
(-5.05633e-06 -2.81343e-07 1.22658e-23)
(-5.31191e-06 -2.23518e-07 5.82124e-24)
(-5.45948e-06 -1.54654e-07 -1.38582e-27)
(-5.51338e-06 -8.1689e-08 -2.69797e-24)
(-5.4896e-06 -6.58752e-09 0)
(-5.39755e-06 6.69033e-08 -6.25055e-29)
(-5.24551e-06 1.35987e-07 4.83721e-24)
(-5.08151e-06 1.98087e-07 1.16708e-23)
(-4.91446e-06 2.42195e-07 5.77402e-24)
(-4.74338e-06 2.74472e-07 1.14788e-23)
(-4.57461e-06 3.07999e-07 -2.28258e-23)
(-4.39078e-06 3.30475e-07 1.13257e-23)
(-4.22167e-06 3.46228e-07 0)
(-4.05783e-06 3.6231e-07 1.1213e-23)
(-3.89576e-06 3.74826e-07 -1.11597e-23)
(-3.74259e-06 3.8653e-07 1.3574e-27)
(-3.59262e-06 3.9532e-07 2.21693e-23)
(-3.45099e-06 4.02537e-07 1.35143e-27)
(-3.31309e-06 4.08636e-07 0)
(-3.17798e-06 4.12436e-07 2.20101e-23)
(-3.04775e-06 4.14624e-07 2.19222e-23)
(-2.91709e-06 4.15646e-07 0)
(-2.78927e-06 4.14196e-07 -2.18777e-23)
(-2.66269e-06 4.12323e-07 -2.17898e-23)
(-2.53697e-06 4.07914e-07 0)
(-2.41708e-06 4.03222e-07 -2.1724e-23)
(-2.30042e-06 3.97374e-07 5.5892e-28)
(-2.19207e-06 3.91917e-07 -2.1774e-23)
(-2.09286e-06 3.86299e-07 6.60877e-28)
(-2.00328e-06 3.81748e-07 0)
(-1.92848e-06 3.77963e-07 4.32119e-23)
(-1.86514e-06 3.77253e-07 -4.34229e-23)
(-1.81859e-06 3.7757e-07 8.67747e-23)
(-1.78578e-06 3.81724e-07 0)
(-1.76907e-06 3.87771e-07 -4.35915e-23)
(-1.76714e-06 3.97928e-07 7.38683e-28)
(-1.7793e-06 4.10507e-07 -9.28263e-29)
(-1.80544e-06 4.27259e-07 -4.29902e-23)
(-1.84314e-06 4.46622e-07 4.36035e-23)
(-1.89127e-06 4.69377e-07 -4.3058e-23)
(-1.94774e-06 4.94523e-07 3.32239e-28)
(-2.00771e-06 5.2166e-07 8.6099e-23)
(-2.07163e-06 5.50328e-07 4.36078e-23)
(-2.12706e-06 5.77696e-07 0)
(-2.18115e-06 6.05156e-07 3.33903e-28)
(-2.20579e-06 6.25575e-07 -6.51228e-28)
(-2.22393e-06 6.43888e-07 -4.34176e-23)
(-2.17344e-06 6.43104e-07 -3.28618e-28)
(-2.12039e-06 6.3996e-07 3.27344e-28)
(-1.91333e-06 5.89425e-07 -4.33319e-23)
(-1.74632e-06 5.48716e-07 4.31476e-23)
(-1.21001e-06 3.87369e-07 2.62161e-28)
(-8.46029e-07 2.74992e-07 4.28818e-23)
(4.85442e-07 -1.66487e-07 8.18254e-29)
(1.27965e-06 -4.48674e-07 -4.33425e-23)
(6.30293e-06 -2.21384e-06 -9.52491e-28)
(7.40877e-06 -1.09163e-05 -1.37897e-22)
(5.92578e-05 0.000402351 -3.52585e-24)
(7.37643e-06 0.000342865 -2.64409e-24)
(2.10988e-05 0.000475057 -1.08696e-24)
(6.31233e-05 0.000562698 1.13174e-24)
(0.000191826 0.000633265 1.02614e-23)
(0.00023638 0.00044938 9.63168e-27)
(0.000222112 0.000390961 -4.93169e-27)
(0.000257327 0.000381508 1.02896e-22)
(0.000246109 0.000316443 1.05262e-22)
(0.00024976 0.000284207 1.28895e-26)
(0.000236248 0.000241291 0)
(0.000227647 0.000211484 1.46009e-26)
(0.000213515 0.000181655 2.2827e-22)
(0.000201 0.000157961 0)
(0.000187906 0.000137227 -1.36811e-26)
(0.000174683 0.000118859 1.35794e-26)
(0.00016239 0.000103587 -1.08472e-22)
(0.000150157 8.98282e-05 1.01477e-22)
(0.000138371 7.78834e-05 0)
(0.000127765 6.78963e-05 -9.66001e-23)
(0.000116864 5.85458e-05 9.1987e-23)
(0.000106833 5.06141e-05 9.08067e-23)
(9.74767e-05 4.36938e-05 1.68829e-22)
(8.8099e-05 3.7308e-05 1.98983e-26)
(7.9533e-05 3.19053e-05 -1.91513e-26)
(7.13718e-05 2.70756e-05 7.28122e-23)
(6.33877e-05 2.27133e-05 0)
(5.61481e-05 1.90378e-05 8.08142e-27)
(4.91092e-05 1.57022e-05 -7.68433e-27)
(4.24746e-05 1.2801e-05 -7.36713e-27)
(3.64748e-05 1.03636e-05 1.01917e-26)
(3.06399e-05 8.16893e-06 -1.06618e-22)
(2.53021e-05 6.3278e-06 -5.16173e-23)
(2.0454e-05 4.78865e-06 -5.93534e-27)
(1.58791e-05 3.46419e-06 5.49142e-27)
(1.18211e-05 2.40245e-06 -5.38288e-27)
(8.14698e-06 1.53643e-06 0)
(4.83345e-06 8.45287e-07 4.70788e-27)
(1.98472e-06 3.28955e-07 -8.97786e-27)
(-5.46994e-07 -5.93552e-08 3.46259e-23)
(-2.68585e-06 -3.24286e-07 4.03403e-27)
(-4.47088e-06 -4.88649e-07 1.56769e-23)
(-5.96093e-06 -5.72499e-07 0)
(-7.12219e-06 -5.89116e-07 0)
(-8.03691e-06 -5.55117e-07 -1.36243e-23)
(-8.69071e-06 -4.82039e-07 3.25345e-27)
(-9.13677e-06 -3.83558e-07 3.03389e-27)
(-9.3959e-06 -2.65777e-07 -2.98299e-27)
(-9.49288e-06 -1.40681e-07 2.90644e-24)
(-9.45532e-06 -1.1715e-08 -2.74863e-27)
(-9.29953e-06 1.1462e-07 2.70391e-24)
(-9.03982e-06 2.33527e-07 -5.2085e-24)
(-8.75872e-06 3.40496e-07 -6.27794e-24)
(-8.47208e-06 4.1655e-07 6.21136e-24)
(-8.17819e-06 4.72242e-07 1.23558e-23)
(-7.88802e-06 5.30079e-07 1.22837e-23)
(-7.57186e-06 5.68896e-07 0)
(-7.28077e-06 5.96169e-07 1.21535e-23)
(-6.99866e-06 6.23963e-07 -1.20693e-23)
(-6.71957e-06 6.45627e-07 1.20134e-23)
(-6.45576e-06 6.65869e-07 -1.19861e-23)
(-6.19738e-06 6.8111e-07 -2.38639e-23)
(-5.9533e-06 6.93611e-07 2.90521e-27)
(-5.71563e-06 7.04188e-07 2.37249e-23)
(-5.48276e-06 7.10788e-07 -4.73782e-23)
(-5.25825e-06 7.14606e-07 -2.35937e-23)
(-5.033e-06 7.1639e-07 0)
(-4.81261e-06 7.13935e-07 2.35458e-23)
(-4.59438e-06 7.10733e-07 4.69027e-23)
(-4.37762e-06 7.03178e-07 0)
(-4.17087e-06 6.95112e-07 2.33805e-23)
(-3.96971e-06 6.85098e-07 2.34067e-23)
(-3.78288e-06 6.75711e-07 -1.58601e-27)
(-3.61178e-06 6.66119e-07 7.10639e-28)
(-3.45731e-06 6.58348e-07 -1.43173e-27)
(-3.32828e-06 6.51913e-07 -4.65065e-23)
(-3.21903e-06 6.50729e-07 4.67357e-23)
(-3.13871e-06 6.5139e-07 -4.66972e-23)
(-3.08208e-06 6.58632e-07 -4.65503e-23)
(-3.05321e-06 6.69156e-07 4.69159e-23)
(-3.04985e-06 6.86746e-07 -4.63508e-23)
(-3.07076e-06 7.08519e-07 4.70146e-23)
(-3.11577e-06 7.37461e-07 7.06236e-28)
(-3.18073e-06 7.70919e-07 -4.69289e-23)
(-3.26365e-06 8.10199e-07 4.63412e-23)
(-3.36096e-06 8.53595e-07 7.15748e-28)
(-3.46428e-06 9.00385e-07 -4.63337e-23)
(-3.5744e-06 9.49804e-07 -4.69327e-23)
(-3.66989e-06 9.96959e-07 -3.52706e-28)
(-3.76299e-06 1.0442e-06 0)
(-3.8054e-06 1.0793e-06 -4.5934e-23)
(-3.83647e-06 1.11063e-06 9.58851e-29)
(-3.74946e-06 1.10911e-06 0)
(-3.6577e-06 1.1032e-06 0)
(-3.30101e-06 1.01586e-06 0)
(-3.01254e-06 9.44651e-07 -4.64385e-23)
(-2.0892e-06 6.66338e-07 -4.58466e-23)
(-1.46102e-06 4.70195e-07 0)
(8.30124e-07 -2.90671e-07 0)
(2.19716e-06 -7.86569e-07 4.66527e-23)
(1.08097e-05 -3.81117e-06 4.57541e-23)
(1.22142e-05 -1.84773e-05 -1.48199e-22)
(6.17276e-05 0.000579695 3.79452e-24)
(1.11712e-05 0.000496787 2.83976e-24)
(3.20103e-05 0.000684897 -3.60585e-27)
(9.22446e-05 0.000810273 1.82082e-27)
(0.000275456 0.000911362 0)
(0.000340865 0.000651579 5.07127e-23)
(0.000321416 0.000566761 -3.87677e-23)
(0.000371814 0.000552129 -5.52944e-23)
(0.000356317 0.00045922 -5.6596e-23)
(0.00036161 0.000412268 0)
(0.000342435 0.000350468 0)
(0.000330065 0.000307202 0)
(0.000309777 0.000264049 -1.22777e-22)
(0.000291718 0.000229662 0)
(0.000272815 0.000199585 -1.47163e-26)
(0.000253705 0.000172925 1.4607e-26)
(0.000235911 0.000150738 1.16661e-22)
(0.000218197 0.000130752 1.33359e-26)
(0.000201124 0.000113394 -1.11311e-22)
(0.000185741 9.88711e-05 0)
(0.000169939 8.52816e-05 -9.89836e-23)
(0.000155384 7.37434e-05 -9.76839e-23)
(0.000141803 6.36766e-05 -9.08371e-23)
(0.000128196 5.43892e-05 -8.77381e-23)
(0.000115756 4.65252e-05 1.0198e-26)
(0.000103902 3.94963e-05 -2.13326e-28)
(9.23077e-05 3.31474e-05 7.64335e-23)
(8.17869e-05 2.77941e-05 0)
(7.15587e-05 2.29372e-05 -6.68772e-23)
(6.19167e-05 1.87109e-05 -8.13765e-27)
(5.31926e-05 1.51584e-05 -1.22251e-22)
(4.47098e-05 1.19602e-05 1.14754e-22)
(3.69467e-05 9.27502e-06 -6.87846e-27)
(2.98936e-05 7.02945e-06 5.15915e-23)
(2.32382e-05 5.09658e-06 -1.19894e-26)
(1.73319e-05 3.54543e-06 5.79311e-27)
(1.19832e-05 2.27962e-06 0)
(7.15867e-06 1.26844e-06 5.06672e-27)
(3.00865e-06 5.1172e-07 -4.8945e-27)
(-6.80225e-07 -5.82357e-08 -2.35623e-27)
(-3.7983e-06 -4.4844e-07 4.44738e-27)
(-6.40198e-06 -6.91814e-07 0)
(-8.57646e-06 -8.17696e-07 0)
(-1.0273e-05 -8.45325e-07 3.73638e-27)
(-1.16104e-05 -7.98862e-07 1.46554e-23)
(-1.25683e-05 -6.95198e-07 0)
(-1.32236e-05 -5.54068e-07 0)
(-1.36067e-05 -3.84647e-07 -3.16382e-27)
(-1.37535e-05 -2.04138e-07 4.07497e-29)
(-1.37041e-05 -1.78155e-08 2.95823e-27)
(-1.34825e-05 1.64942e-07 -2.91018e-24)
(-1.31093e-05 3.37154e-07 5.60307e-24)
(-1.2704e-05 4.92258e-07 -6.7568e-24)
(-1.22902e-05 6.02596e-07 -6.68971e-24)
(-1.18654e-05 6.83516e-07 -2.65922e-23)
(-1.14456e-05 7.67458e-07 1.32238e-23)
(-1.09881e-05 8.2391e-07 -3.21114e-27)
(-1.05665e-05 8.6364e-07 -1.30799e-23)
(-1.01578e-05 9.04103e-07 -1.58289e-27)
(-9.75339e-06 9.3566e-07 5.3678e-30)
(-9.37102e-06 9.65139e-07 1.28999e-23)
(-8.99644e-06 9.87372e-07 0)
(-8.64245e-06 1.00562e-06 -2.56119e-23)
(-8.29777e-06 1.02105e-06 2.34859e-28)
(-7.96003e-06 1.03071e-06 -2.74655e-28)
(-7.63433e-06 1.03632e-06 0)
(-7.30754e-06 1.03896e-06 1.54713e-27)
(-6.98779e-06 1.03546e-06 -3.09344e-27)
(-6.67117e-06 1.03086e-06 1.75915e-27)
(-6.35669e-06 1.01997e-06 0)
(-6.05668e-06 1.00831e-06 0)
(-5.76479e-06 9.93909e-07 2.51918e-23)
(-5.49369e-06 9.80312e-07 5.04386e-23)
(-5.24541e-06 9.6656e-07 0)
(-5.0213e-06 9.5538e-07 -2.52476e-23)
(-4.83399e-06 9.46223e-07 3.05509e-27)
(-4.67543e-06 9.44554e-07 -5.03001e-23)
(-4.55883e-06 9.45716e-07 5.02572e-23)
(-4.4766e-06 9.56322e-07 5.01001e-23)
(-4.43465e-06 9.71771e-07 -5.04932e-23)
(-4.42971e-06 9.97392e-07 -4.98858e-23)
(-4.45997e-06 1.02915e-06 -7.72364e-28)
(-4.52521e-06 1.0712e-06 0)
(-4.61937e-06 1.11989e-06 0)
(-4.73961e-06 1.17692e-06 0)
(-4.88067e-06 1.23997e-06 0)
(-5.03046e-06 1.30783e-06 -7.60536e-28)
(-5.19007e-06 1.37954e-06 7.71146e-28)
(-5.3285e-06 1.44787e-06 -4.97289e-23)
(-5.46332e-06 1.51627e-06 0)
(-5.52475e-06 1.567e-06 4.9437e-23)
(-5.56949e-06 1.61209e-06 5.02941e-23)
(-5.44327e-06 1.60958e-06 -3.81249e-28)
(-5.30966e-06 1.60024e-06 -3.7851e-28)
(-4.7926e-06 1.47319e-06 3.83384e-28)
(-4.37328e-06 1.36826e-06 -1.90359e-28)
(-3.03559e-06 9.64291e-07 4.9345e-23)
(-2.1232e-06 6.75901e-07 -3.7841e-28)
(1.19412e-06 -4.27498e-07 2.84472e-28)
(3.17399e-06 -1.16165e-06 -5.02112e-23)
(1.55993e-05 -5.52308e-06 4.83058e-29)
(1.73273e-05 -2.65423e-05 2.12652e-22)
(6.7014e-05 0.000766831 1.26223e-27)
(1.55732e-05 0.000661403 1.52321e-24)
(4.46244e-05 0.000907183 1.23133e-24)
(0.000123927 0.00107192 -1.25432e-24)
(0.000363366 0.00120493 -9.15759e-27)
(0.000451628 0.000868262 -5.45149e-23)
(0.000427421 0.00075512 4.16576e-23)
(0.000493671 0.000734332 1.18391e-26)
(0.000474093 0.000612517 -1.59228e-26)
(0.000481152 0.000549664 3.11447e-26)
(0.000456182 0.000467905 -1.59772e-26)
(0.000439839 0.000410184 6.82013e-23)
(0.000413089 0.000352814 -3.25574e-26)
(0.000389149 0.000306944 -6.85264e-23)
(0.000364074 0.000266844 0)
(0.000338695 0.000231275 -3.1517e-26)
(0.000315025 0.000201649 -1.25499e-22)
(0.000291454 0.000174963 2.85547e-26)
(0.000268723 0.000151775 1.19762e-22)
(0.000248217 0.000132363 1.11775e-22)
(0.000227164 0.000114208 1.06478e-22)
(0.000207753 9.8778e-05 0)
(0.000189633 8.53161e-05 0)
(0.000171484 7.28994e-05 1.88838e-22)
(0.000154879 6.23762e-05 -9.08438e-23)
(0.000139053 5.29724e-05 0)
(0.000123576 4.4478e-05 -1.64516e-22)
(0.000109523 3.731e-05 -7.75814e-23)
(9.58608e-05 3.08084e-05 1.43933e-22)
(8.29801e-05 2.51482e-05 7.08043e-23)
(7.13191e-05 2.0388e-05 6.57903e-23)
(5.99828e-05 1.61031e-05 -6.17528e-23)
(4.96042e-05 1.25026e-05 0)
(4.01716e-05 9.4903e-06 -9.63418e-27)
(3.1271e-05 6.8968e-06 5.28359e-23)
(2.33684e-05 4.81313e-06 6.40557e-27)
(1.62103e-05 3.11185e-06 -4.68708e-23)
(9.75262e-06 1.75146e-06 -4.52562e-23)
(4.19458e-06 7.3156e-07 -5.13112e-27)
(-7.46784e-07 -3.7828e-08 -4.00892e-23)
(-4.92585e-06 -5.66467e-07 -4.78641e-27)
(-8.41749e-06 -8.97999e-07 1.81638e-23)
(-1.1335e-05 -1.07187e-06 1.74485e-23)
(-1.36138e-05 -1.11374e-06 0)
(-1.54121e-05 -1.05585e-06 1.57736e-23)
(-1.67026e-05 -9.21e-07 -1.52913e-23)
(-1.75879e-05 -7.35294e-07 3.51417e-27)
(-1.81087e-05 -5.11473e-07 -6.8603e-27)
(-1.83131e-05 -2.7217e-07 -3.36014e-24)
(-1.82546e-05 -2.48415e-08 0)
(-1.79652e-05 2.18095e-07 6.26408e-24)
(-1.74728e-05 4.47298e-07 -1.20605e-23)
(-1.6936e-05 6.53991e-07 7.27531e-24)
(-1.63871e-05 8.0111e-07 -3.50328e-27)
(-1.58229e-05 9.09187e-07 1.43132e-23)
(-1.52648e-05 1.02116e-06 -1.42282e-23)
(-1.46564e-05 1.09663e-06 0)
(-1.40952e-05 1.14983e-06 0)
(-1.3551e-05 1.20398e-06 0)
(-1.30124e-05 1.24624e-06 3.39128e-27)
(-1.2503e-05 1.2857e-06 -6.77908e-27)
(-1.20039e-05 1.31552e-06 3.37882e-27)
(-1.15321e-05 1.34002e-06 2.75661e-23)
(-1.10726e-05 1.36072e-06 -5.49631e-23)
(-1.06224e-05 1.37371e-06 -3.27116e-28)
(-1.01881e-05 1.38129e-06 0)
(-9.75236e-06 1.38487e-06 0)
(-9.32598e-06 1.38029e-06 0)
(-8.90377e-06 1.37422e-06 -2.71642e-23)
(-8.4844e-06 1.35982e-06 0)
(-8.08429e-06 1.34433e-06 0)
(-7.69502e-06 1.32531e-06 -5.42239e-23)
(-7.33348e-06 1.30719e-06 -2.71415e-23)
(-7.00234e-06 1.28911e-06 0)
(-6.7035e-06 1.27432e-06 5.43425e-23)
(-6.45361e-06 1.26239e-06 1.64339e-27)
(-6.24213e-06 1.26022e-06 -3.2327e-28)
(-6.08654e-06 1.26208e-06 -1.08183e-22)
(-5.97684e-06 1.27635e-06 -5.39202e-23)
(-5.9208e-06 1.29722e-06 5.43454e-23)
(-5.91414e-06 1.33153e-06 5.36892e-23)
(-5.95439e-06 1.37411e-06 5.44617e-23)
(-6.0413e-06 1.43029e-06 -8.18066e-28)
(-6.16674e-06 1.49542e-06 0)
(-6.32698e-06 1.57152e-06 0)
(-6.51489e-06 1.65574e-06 0)
(-6.71449e-06 1.74619e-06 0)
(-6.92707e-06 1.84183e-06 0)
(-7.11149e-06 1.93281e-06 5.35215e-23)
(-7.2909e-06 2.02382e-06 0)
(-7.37264e-06 2.0912e-06 -8.11338e-28)
(-7.43178e-06 2.15078e-06 4.13891e-28)
(-7.26345e-06 2.14702e-06 4.10329e-28)
(-7.08455e-06 2.13345e-06 0)
(-6.39566e-06 1.96354e-06 5.40243e-23)
(-5.83531e-06 1.82131e-06 -8.20347e-28)
(-4.05421e-06 1.28233e-06 -5.31078e-23)
(-2.83601e-06 8.92314e-07 2.03457e-28)
(1.57801e-06 -5.78356e-07 -5.33573e-23)
(4.21337e-06 -1.5781e-06 0)
(2.06841e-05 -7.35681e-06 0)
(2.27656e-05 -3.51381e-05 -1.14397e-22)
(7.31866e-05 0.000964066 0)
(2.06767e-05 0.000837322 -1.63669e-24)
(5.91577e-05 0.00114233 -1.03886e-26)
(0.00015839 0.00134802 1.34628e-24)
(0.000455625 0.00151433 -1.25905e-23)
(0.000568912 0.00110031 0)
(0.000540491 0.000956849 1.3847e-26)
(0.000623263 0.000928788 -1.27159e-26)
(0.000599885 0.000777058 -1.7109e-26)
(0.000608843 0.000697037 5.09414e-26)
(0.00057798 0.00059421 -3.43443e-26)
(0.000557463 0.000520975 -1.46686e-22)
(0.000523942 0.000448444 1.41909e-22)
(0.000493771 0.000390248 7.37184e-23)
(0.000462146 0.000339397 -1.38942e-22)
(0.000430097 0.000294261 0)
(0.000400156 0.000256629 0)
(0.000370326 0.000222735 1.26334e-22)
(0.000341546 0.000193271 0)
(0.000315547 0.000168586 -1.20291e-22)
(0.000288868 0.000145513 -2.77549e-26)
(0.000264247 0.000125884 2.78264e-26)
(0.000241251 0.000108759 0)
(0.000218227 9.29664e-05 -2.03141e-22)
(0.000197143 7.95699e-05 9.76992e-23)
(0.000177045 6.76007e-05 2.18941e-26)
(0.000157394 5.67885e-05 1.77009e-22)
(0.000139536 4.7657e-05 8.35005e-23)
(0.000122177 3.93769e-05 -7.74701e-23)
(0.000105809 3.21647e-05 -7.61706e-23)
(9.09815e-05 2.6096e-05 1.70512e-26)
(7.65699e-05 2.06339e-05 6.64273e-23)
(6.33703e-05 1.60403e-05 0)
(5.13693e-05 1.21955e-05 -5.97549e-23)
(4.00459e-05 8.8843e-06 -5.68429e-23)
(2.99866e-05 6.22083e-06 0)
(2.08728e-05 4.04495e-06 1.00906e-22)
(1.26495e-05 2.30318e-06 4.86898e-23)
(5.56754e-06 9.94912e-07 0)
(-7.29958e-07 6.34723e-09 -1.04073e-26)
(-6.05906e-06 -6.7544e-07 1.03025e-26)
(-1.05143e-05 -1.10546e-06 -1.95473e-23)
(-1.4239e-05 -1.33417e-06 -1.87776e-23)
(-1.71517e-05 -1.3941e-06 0)
(-1.94523e-05 -1.32624e-06 -1.69794e-23)
(-2.1107e-05 -1.1598e-06 -7.47139e-28)
(-2.22455e-05 -9.27673e-07 0)
(-2.29196e-05 -6.46647e-07 0)
(-2.31906e-05 -3.45069e-07 3.62328e-24)
(-2.31263e-05 -3.29067e-08 -3.42657e-27)
(-2.27677e-05 2.74163e-07 -6.74172e-24)
(-2.21501e-05 5.64265e-07 6.48995e-24)
(-2.14742e-05 8.26212e-07 0)
(-2.0782e-05 1.01279e-06 -7.74876e-24)
(-2.00693e-05 1.15008e-06 1.54011e-23)
(-1.93638e-05 1.29216e-06 7.47798e-27)
(-1.85944e-05 1.38812e-06 -3.71945e-27)
(-1.7884e-05 1.45591e-06 3.6914e-27)
(-1.71949e-05 1.52484e-06 -3.68079e-27)
(-1.65127e-05 1.57868e-06 1.49745e-23)
(-1.58673e-05 1.62894e-06 -1.49404e-23)
(-1.52348e-05 1.667e-06 0)
(-1.46367e-05 1.69829e-06 -2.96665e-23)
(-1.40542e-05 1.7247e-06 2.95758e-23)
(-1.34833e-05 1.74133e-06 2.9527e-23)
(-1.29325e-05 1.75108e-06 3.59403e-27)
(-1.23799e-05 1.7557e-06 2.93858e-23)
(-1.18391e-05 1.75003e-06 0)
(-1.13036e-05 1.74239e-06 0)
(-1.07717e-05 1.72431e-06 2.93103e-23)
(-1.02642e-05 1.70473e-06 -1.78024e-27)
(-9.77044e-06 1.68088e-06 2.91783e-23)
(-9.31186e-06 1.65791e-06 0)
(-8.8918e-06 1.63532e-06 -1.77185e-27)
(-8.51278e-06 1.61672e-06 -2.92413e-23)
(-8.19571e-06 1.60198e-06 1.76871e-27)
(-7.92745e-06 1.59933e-06 5.82604e-23)
(-7.73e-06 1.6021e-06 5.82169e-23)
(-7.59081e-06 1.62038e-06 -2.0327e-27)
(-7.51963e-06 1.64721e-06 1.78435e-27)
(-7.5111e-06 1.69093e-06 -5.77872e-23)
(-7.56202e-06 1.74528e-06 -5.86121e-23)
(-7.67212e-06 1.81665e-06 -1.19556e-30)
(-7.83107e-06 1.89955e-06 5.85041e-23)
(-8.03414e-06 1.99613e-06 8.81205e-28)
(-8.27223e-06 2.10314e-06 -1.78389e-27)
(-8.52517e-06 2.2178e-06 8.81776e-28)
(-8.79444e-06 2.33912e-06 0)
(-9.02807e-06 2.45433e-06 5.76036e-23)
(-9.25508e-06 2.56949e-06 5.87646e-23)
(-9.35848e-06 2.65455e-06 5.72661e-23)
(-9.43275e-06 2.72938e-06 -5.8259e-23)
(-9.21919e-06 2.72402e-06 0)
(-8.99124e-06 2.70529e-06 -4.38456e-28)
(-8.11826e-06 2.48911e-06 -1.16288e-22)
(-7.40587e-06 2.30555e-06 0)
(-5.15045e-06 1.62155e-06 5.71605e-23)
(-3.60317e-06 1.11946e-06 5.75445e-23)
(1.98223e-06 -7.44873e-07 -1.2378e-27)
(5.31847e-06 -2.04084e-06 0)
(2.60765e-05 -9.32021e-06 -5.59409e-29)
(2.85527e-05 -4.42739e-05 -6.15099e-23)
(7.96413e-05 0.00117163 0)
(2.65945e-05 0.00102514 0)
(7.58544e-05 0.00139069 -1.4123e-24)
(0.000195872 0.00163888 -2.12141e-27)
(0.000552278 0.00183986 2.70117e-23)
(0.000692939 0.00134861 -2.37379e-27)
(0.000660991 0.00117279 -1.7914e-27)
(0.000760953 0.00113619 1.36553e-26)
(0.000734151 0.000953602 7.01274e-23)
(0.000745157 0.000855065 0)
(0.000708341 0.000730033 0)
(0.000683449 0.000640157 7.88685e-23)
(0.000642856 0.000551472 -1.52617e-22)
(0.000606091 0.000480049 -7.9357e-23)
(0.000567526 0.000417671 1.49507e-22)
(0.000528388 0.000362261 -1.49344e-22)
(0.000491757 0.000316016 1.45254e-22)
(0.000455246 0.000274369 -1.35917e-22)
(0.000419999 0.000238147 -3.39703e-26)
(0.000388112 0.000207775 0)
(0.000355411 0.000179407 2.9861e-26)
(0.000325199 0.000155246 -5.94204e-26)
(0.000296967 0.000134165 2.78519e-26)
(0.00026871 0.000114731 1.09299e-22)
(0.000242811 9.82292e-05 2.54108e-26)
(0.000218119 8.34881e-05 9.75673e-23)
(0.00019398 7.01715e-05 -9.51982e-23)
(0.000172025 5.8915e-05 -5.34633e-28)
(0.000150686 4.8711e-05 -8.33511e-23)
(0.000130561 3.98183e-05 -2.0282e-26)
(0.00011232 3.23311e-05 1.83494e-26)
(9.45938e-05 2.55935e-05 -7.15329e-23)
(7.83512e-05 1.99218e-05 6.92642e-23)
(6.35778e-05 1.51726e-05 -6.43112e-23)
(4.9639e-05 1.10811e-05 4.22755e-28)
(3.72493e-05 7.78595e-06 2.84871e-26)
(2.60214e-05 5.09243e-06 -5.43024e-23)
(1.58886e-05 2.93382e-06 -5.24297e-23)
(7.15657e-06 1.30929e-06 4.93333e-23)
(-6.09823e-07 7.95951e-08 4.64362e-23)
(-7.18601e-06 -7.7182e-07 -1.08239e-26)
(-1.26874e-05 -1.312e-06 2.38758e-28)
(-1.72893e-05 -1.6034e-06 2.02202e-23)
(-2.08925e-05 -1.68596e-06 0)
(-2.37414e-05 -1.61005e-06 8.84281e-27)
(-2.57951e-05 -1.4119e-06 -9.59685e-27)
(-2.72126e-05 -1.13163e-06 8.39187e-24)
(-2.80576e-05 -7.90576e-07 8.14145e-24)
(-2.84054e-05 -4.23153e-07 -3.78088e-27)
(-2.83396e-05 -4.21571e-08 4.41932e-29)
(-2.79106e-05 3.33197e-07 3.63137e-24)
(-2.71622e-05 6.88337e-07 0)
(-2.63394e-05 1.00943e-06 0)
(-2.54953e-05 1.23834e-06 1.66706e-23)
(-2.46248e-05 1.40705e-06 4.821e-28)
(-2.37623e-05 1.58146e-06 0)
(-2.28212e-05 1.69951e-06 -1.63602e-23)
(-2.19514e-05 1.78309e-06 3.98923e-27)
(-2.11074e-05 1.86798e-06 -3.94647e-27)
(-2.02716e-05 1.93438e-06 -3.2228e-23)
(-1.94806e-05 1.99629e-06 3.21625e-23)
(-1.87053e-05 2.04333e-06 -3.91367e-27)
(-1.79718e-05 2.08198e-06 3.19278e-23)
(-1.72574e-05 2.11462e-06 3.8811e-27)
(-1.65572e-05 2.1352e-06 -3.88418e-27)
(-1.58815e-05 2.14734e-06 3.86034e-27)
(-1.52036e-05 2.15313e-06 -3.16336e-23)
(-1.454e-05 2.14635e-06 3.15991e-23)
(-1.3883e-05 2.13706e-06 -3.84411e-27)
(-1.32304e-05 2.11509e-06 -3.15429e-23)
(-1.26076e-05 2.09117e-06 0)
(-1.20018e-05 2.06228e-06 0)
(-1.14391e-05 2.03413e-06 0)
(-1.09237e-05 2.00686e-06 1.90696e-27)
(-1.04587e-05 1.98426e-06 -1.9218e-27)
(-1.00695e-05 1.96667e-06 0)
(-9.74036e-06 1.96358e-06 -6.27034e-23)
(-9.49797e-06 1.96752e-06 6.26528e-23)
(-9.32714e-06 1.9902e-06 6.2457e-23)
(-9.23968e-06 2.02359e-06 6.29483e-23)
(-9.22911e-06 2.07751e-06 1.67004e-27)
(-9.29143e-06 2.14463e-06 6.3082e-23)
(-9.42636e-06 2.23238e-06 0)
(-9.62117e-06 2.33446e-06 3.12298e-28)
(-9.87011e-06 2.45306e-06 0)
(-1.01619e-05 2.5846e-06 -6.29135e-23)
(-1.04719e-05 2.7252e-06 0)
(-1.08018e-05 2.87405e-06 -9.60405e-28)
(-1.10881e-05 3.01517e-06 -6.19955e-23)
(-1.13659e-05 3.15608e-06 -6.3245e-23)
(-1.14923e-05 3.25994e-06 -6.16353e-23)
(-1.15824e-05 3.35074e-06 6.2703e-23)
(-1.13203e-05 3.34338e-06 0)
(-1.10391e-05 3.31838e-06 0)
(-9.96903e-06 3.05222e-06 1.25159e-22)
(-9.09268e-06 2.82282e-06 6.23145e-23)
(-6.3301e-06 1.98303e-06 -1.23041e-22)
(-4.42869e-06 1.35726e-06 1.39481e-27)
(2.40708e-06 -9.28901e-07 1.23617e-22)
(6.4924e-06 -2.55549e-06 1.18803e-28)
(3.17883e-05 -1.14217e-05 -6.14042e-23)
(3.47086e-05 -5.39692e-05 2.64832e-22)
(8.65184e-05 0.00138966 0)
(3.34566e-05 0.00122542 1.88209e-24)
(9.49807e-05 0.00165258 -4.12974e-27)
(0.000236629 0.00194472 4.65709e-27)
(0.00065335 0.0021817 -5.23974e-26)
(0.00082391 0.00161406 6.68649e-23)
(0.000789284 0.00140383 -3.19228e-26)
(0.000907099 0.00135724 -6.79471e-27)
(0.000877357 0.00114294 -7.53398e-23)
(0.000890582 0.00102446 3.41336e-27)
(0.0008478 0.000876066 8.27316e-23)
(0.000818339 0.000768354 -8.47156e-23)
(0.00077038 0.000662469 0)
(0.000726651 0.000576861 8.52787e-23)
(0.00068074 0.000502127 1.60725e-22)
(0.000634077 0.000435689 1.60735e-22)
(0.000590317 0.000380179 -1.56222e-22)
(0.000546676 0.000330192 1.46145e-22)
(0.000504522 0.000286693 0)
(0.000466326 0.000250189 3.37914e-26)
(0.00042718 0.000216115 -3.25658e-26)
(0.000390972 0.000187062 0)
(0.000357116 0.000161712 0)
(0.000323246 0.000138349 0)
(0.00029217 0.00011849 0)
(0.000262537 0.000100753 -1.0503e-22)
(0.000233573 8.47295e-05 0)
(0.000207206 7.11724e-05 0)
(0.000181583 5.88865e-05 1.794e-22)
(0.000157413 4.81736e-05 -2.18252e-26)
(0.00013549 3.91481e-05 1.9746e-26)
(0.00011419 3.10274e-05 7.69283e-23)
(9.46649e-05 2.41849e-05 -7.45136e-23)
(7.6898e-05 1.84526e-05 -5.79209e-27)
(6.01356e-05 1.35124e-05 6.58542e-23)
(4.52271e-05 9.52846e-06 1.51154e-26)
(3.1713e-05 6.26989e-06 5.84012e-23)
(1.95146e-05 3.65529e-06 5.64205e-23)
(8.99537e-06 1.68354e-06 -5.30499e-23)
(-3.62688e-07 1.88268e-07 -4.99841e-23)
(-8.29184e-06 -8.51269e-07 -1.19328e-26)
(-1.49297e-05 -1.51482e-06 1.09331e-26)
(-2.04854e-05 -1.87795e-06 -9.28509e-27)
(-2.48413e-05 -1.98856e-06 0)
(-2.82891e-05 -1.90711e-06 0)
(-3.07804e-05 -1.67747e-06 3.81321e-23)
(-3.25055e-05 -1.34751e-06 9.25522e-27)
(-3.35412e-05 -9.43625e-07 -8.76172e-24)
(-3.39779e-05 -5.06717e-07 0)
(-3.39159e-05 -5.27379e-08 0)
(-3.34159e-05 3.95246e-07 0)
(-3.2531e-05 8.19795e-07 0)
(-3.15534e-05 1.20416e-06 9.06957e-24)
(-3.05486e-05 1.47848e-06 -1.79413e-23)
(-2.95106e-05 1.68096e-06 -1.78383e-23)
(-2.84809e-05 1.8901e-06 -1.7737e-23)
(-2.73569e-05 2.03193e-06 1.76026e-23)
(-2.63169e-05 2.13265e-06 -1.75485e-23)
(-2.53074e-05 2.23476e-06 4.24732e-27)
(-2.43075e-05 2.31477e-06 1.73401e-23)
(-2.33607e-05 2.38929e-06 -1.73092e-23)
(-2.24325e-05 2.44608e-06 3.44603e-23)
(-2.1554e-05 2.49273e-06 4.18957e-27)
(-2.06983e-05 2.53215e-06 -9.86948e-30)
(-1.98595e-05 2.55704e-06 -4.1803e-27)
(-1.90498e-05 2.57184e-06 -4.15465e-27)
(-1.82375e-05 2.5789e-06 7.58656e-30)
(-1.74423e-05 2.57101e-06 -6.79954e-23)
(-1.6655e-05 2.55998e-06 -3.38598e-23)
(-1.58729e-05 2.53395e-06 -3.39523e-23)
(-1.51266e-05 2.50542e-06 4.11893e-27)
(-1.44006e-05 2.47125e-06 -4.58827e-30)
(-1.37263e-05 2.4376e-06 -4.1328e-27)
(-1.31086e-05 2.40547e-06 0)
(-1.25514e-05 2.37869e-06 4.13316e-27)
(-1.20849e-05 2.35826e-06 -4.10066e-27)