/*--------------------------------*- C++ -*----------------------------------*\
| =========                 |                                                 |
| \\      /  F ield         | OpenFOAM: The Open Source CFD Toolbox           |
|  \\    /   O peration     | Version:  5.x                                   |
|   \\  /    A nd           | Web:      www.OpenFOAM.org                      |
|    \\/     M anipulation  |                                                 |
\*---------------------------------------------------------------------------*/
FoamFile
{
    version     2.0;
    format      ascii;
    class       volVectorField;
    location    "2500";
    object      U;
}
// * * * * * * * * * * * * * * * * * * * * * * * * * * * * * * * * * * * * * //

dimensions      [0 1 -1 0 0 0 0];

internalField   nonuniform List<vector> 
107912
(
(-8.54599e-06 9.1765e-05 -2.5823e-29)
(1.26142e-06 6.39559e-05 2.46552e-29)
(3.47914e-06 8.69777e-05 -4.18753e-25)
(1.02974e-05 9.43942e-05 -1.09052e-24)
(3.04358e-05 0.000100183 -1.99267e-23)
(3.27503e-05 6.16389e-05 2.96281e-23)
(2.80913e-05 4.92803e-05 2.11023e-23)
(3.07892e-05 4.55459e-05 2.01495e-28)
(2.62823e-05 3.36355e-05 -2.94807e-27)
(2.50888e-05 2.84523e-05 -2.67079e-27)
(2.12827e-05 2.16434e-05 -2.42274e-27)
(1.89598e-05 1.75467e-05 1.98845e-23)
(1.59177e-05 1.34852e-05 3.55689e-23)
(1.35665e-05 1.06174e-05 3.97042e-27)
(1.12575e-05 8.18496e-06 -3.05028e-23)
(9.21231e-06 6.23961e-06 2.86275e-23)
(7.43112e-06 4.71707e-06 3.30064e-27)
(5.81649e-06 3.46101e-06 0)
(4.4173e-06 2.47146e-06 -4.46483e-23)
(3.24739e-06 1.71415e-06 -1.97918e-23)
(2.17185e-06 1.07893e-06 0)
(1.30065e-06 6.09282e-07 0)
(5.51474e-07 2.41912e-07 -1.49755e-23)
(-8.78382e-08 -4.07503e-08 1.38571e-23)
(-5.97172e-07 -2.41845e-07 1.28268e-23)
(-1.02155e-06 -3.88672e-07 2.29584e-23)
(-1.35921e-06 -4.87302e-07 -1.08419e-23)
(-1.61428e-06 -5.46871e-07 9.93926e-24)
(-1.81391e-06 -5.78804e-07 -8.98277e-24)
(-1.95058e-06 -5.86089e-07 -8.64976e-24)
(-2.04162e-06 -5.77784e-07 7.89566e-24)
(-2.09515e-06 -5.55703e-07 0)
(-2.1112e-06 -5.24652e-07 -6.99876e-24)
(-2.10392e-06 -4.88732e-07 7.74131e-28)
(-2.07281e-06 -4.47371e-07 -7.57913e-28)
(-2.02419e-06 -4.06149e-07 -2.49478e-28)
(-1.96411e-06 -3.63689e-07 5.40799e-24)
(-1.89228e-06 -3.21231e-07 1.66495e-28)
(-1.81493e-06 -2.81866e-07 -5.98098e-28)
(-1.7325e-06 -2.43337e-07 -4.68792e-24)
(-1.64668e-06 -2.07485e-07 5.61365e-28)
(-1.5611e-06 -1.74558e-07 0)
(-1.47472e-06 -1.43806e-07 0)
(-1.39065e-06 -1.16065e-07 -2.003e-24)
(-1.30902e-06 -9.09752e-08 0)
(-1.23074e-06 -6.85486e-08 -3.74361e-24)
(-1.15657e-06 -4.83765e-08 -8.95425e-25)
(-1.08547e-06 -3.07034e-08 -8.72634e-25)
(-1.01776e-06 -1.46272e-08 0)
(-9.52697e-07 -9.12554e-10 0)
(-8.90202e-07 1.1236e-08 -3.97144e-25)
(-8.30313e-07 2.17111e-08 -3.75437e-28)
(-7.7832e-07 3.10183e-08 -9.3216e-25)
(-7.31223e-07 3.63898e-08 -9.25688e-25)
(-6.90557e-07 4.02083e-08 -1.849e-24)
(-6.5193e-07 4.41273e-08 1.84293e-24)
(-6.14636e-07 4.65417e-08 -3.67322e-24)
(-5.82946e-07 4.79382e-08 -2.23889e-28)
(-5.53732e-07 4.97161e-08 1.82883e-24)
(-5.27281e-07 5.09127e-08 -1.82342e-24)
(-5.03896e-07 5.21765e-08 0)
(-4.82642e-07 5.32052e-08 -3.63651e-24)
(-4.64272e-07 5.44082e-08 2.21981e-28)
(-4.48202e-07 5.5364e-08 3.62945e-24)
(-4.34395e-07 5.65061e-08 2.21742e-28)
(-4.2304e-07 5.76507e-08 -3.62082e-24)
(-4.13294e-07 5.90846e-08 -1.10636e-28)
(-4.05802e-07 6.03348e-08 0)
(-4.00041e-07 6.20514e-08 -3.61561e-24)
(-3.95608e-07 6.37203e-08 0)
(-3.92947e-07 6.57098e-08 -3.61092e-24)
(-3.91309e-07 6.7709e-08 -7.22714e-24)
(-3.9104e-07 6.98341e-08 0)
(-3.91838e-07 7.2248e-08 1.09789e-28)
(-3.93277e-07 7.47713e-08 -1.10643e-28)
(-3.95555e-07 7.76162e-08 -1.09491e-28)
(-3.97765e-07 8.03206e-08 7.21313e-24)
(-4.0077e-07 8.30593e-08 -1.43934e-23)
(-4.0346e-07 8.59982e-08 0)
(-4.06e-07 8.89306e-08 0)
(-4.07971e-07 9.17849e-08 7.12511e-24)
(-4.09073e-07 9.42816e-08 -7.21584e-24)
(-4.09165e-07 9.66573e-08 7.08913e-24)
(-4.07609e-07 9.86841e-08 1.09511e-28)
(-4.04097e-07 1.00126e-07 -5.40365e-29)
(-3.98393e-07 1.01003e-07 7.13731e-24)
(-3.89149e-07 1.00931e-07 1.1661e-28)
(-3.77375e-07 1.0011e-07 -2.08768e-31)
(-3.59341e-07 9.7515e-08 -5.33279e-29)
(-3.39195e-07 9.39587e-08 -7.09865e-24)
(-3.07776e-07 8.72541e-08 0)
(-2.76113e-07 7.97446e-08 -5.32192e-29)
(-2.225e-07 6.58459e-08 7.92674e-29)
(-1.76591e-07 5.32176e-08 -2.62415e-29)
(-8.20541e-08 2.52333e-08 1.66392e-29)
(-2.01155e-08 6.30575e-09 -6.8824e-24)
(1.61695e-07 -5.20387e-08 6.74532e-24)
(2.4388e-07 -8.0174e-08 -1.3678e-23)
(6.67836e-07 -2.23708e-07 -2.59779e-29)
(7.80932e-07 -2.67727e-07 6.99222e-24)
(2.52343e-06 -8.80891e-07 -4.63637e-29)
(2.96101e-06 -3.87428e-06 1.70603e-23)
(-1.61975e-05 0.000279161 0)
(3.78422e-06 0.000196543 0)
(1.10142e-05 0.000265595 -5.23452e-27)
(3.16145e-05 0.000287963 3.4834e-24)
(9.24174e-05 0.000305334 1.59104e-23)
(0.000100041 0.00018982 0)
(8.62032e-05 0.000151772 -4.70174e-27)
(9.43406e-05 0.000139892 -4.01248e-23)
(8.07435e-05 0.000103779 -3.63489e-23)
(7.7075e-05 8.76821e-05 -8.51025e-27)
(6.5498e-05 6.6881e-05 8.36363e-27)
(5.8368e-05 5.42173e-05 -3.16922e-23)
(4.90633e-05 4.17442e-05 -5.6681e-23)
(4.18409e-05 3.28878e-05 2.75744e-23)
(3.47527e-05 2.53896e-05 -6.10483e-27)
(2.8465e-05 1.93814e-05 0)
(2.29846e-05 1.46757e-05 4.18093e-23)
(1.80144e-05 1.07917e-05 -3.69084e-23)
(1.37048e-05 7.72892e-06 3.55877e-23)
(1.00979e-05 5.38168e-06 3.15588e-23)
(6.78251e-06 3.41316e-06 -2.85357e-23)
(4.09362e-06 1.95417e-06 -3.18517e-27)
(1.78088e-06 8.12363e-07 1.16272e-27)
(-1.93756e-07 -6.76982e-08 -2.78206e-27)
(-1.76856e-06 -6.95646e-07 -2.04511e-23)
(-3.08138e-06 -1.15511e-06 -3.66e-23)
(-4.12695e-06 -1.46546e-06 -2.17016e-27)
(-4.91804e-06 -1.65454e-06 0)
(-5.53794e-06 -1.75775e-06 1.70741e-27)
(-5.96369e-06 -1.78444e-06 1.37903e-23)
(-6.24843e-06 -1.76236e-06 1.75243e-27)
(-6.41728e-06 -1.6974e-06 1.16454e-23)
(-6.47044e-06 -1.60432e-06 2.23184e-23)
(-6.45122e-06 -1.49577e-06 0)
(-6.35851e-06 -1.37023e-06 0)
(-6.21148e-06 -1.24479e-06 9.26228e-24)
(-6.02885e-06 -1.11524e-06 -2.76501e-29)
(-5.80988e-06 -9.8564e-07 -8.35245e-24)
(-5.57356e-06 -8.65187e-07 9.53689e-28)
(-5.32131e-06 -7.47189e-07 -9.21894e-28)
(-5.05855e-06 -6.37329e-07 0)
(-4.79631e-06 -5.36355e-07 -3.43503e-24)
(-4.53145e-06 -4.41982e-07 1.13051e-29)
(-4.27368e-06 -3.56862e-07 7.8485e-28)
(-4.02319e-06 -2.79868e-07 0)
(-3.78299e-06 -2.10919e-07 2.98391e-24)
(-3.55529e-06 -1.49067e-07 1.42882e-24)
(-3.33696e-06 -9.4638e-08 -3.41232e-28)
(-3.12903e-06 -4.53771e-08 -6.72007e-25)
(-2.92918e-06 -3.13337e-09 0)
(-2.73714e-06 3.42207e-08 -3.74764e-30)
(-2.55315e-06 6.64735e-08 1.22502e-24)
(-2.39352e-06 9.49294e-08 2.97307e-24)
(-2.24884e-06 1.11563e-07 1.4764e-24)
(-2.12374e-06 1.23265e-07 2.94866e-24)
(-2.005e-06 1.35422e-07 -5.87764e-24)
(-1.89043e-06 1.42799e-07 2.9282e-24)
(-1.79301e-06 1.472e-07 0)
(-1.70323e-06 1.52568e-07 2.91539e-24)
(-1.62188e-06 1.5636e-07 -2.90716e-24)
(-1.54991e-06 1.60201e-07 3.54851e-28)
(-1.48456e-06 1.63482e-07 5.79756e-24)
(-1.42814e-06 1.67101e-07 3.53959e-28)
(-1.3787e-06 1.70139e-07 0)
(-1.33621e-06 1.73596e-07 5.79377e-24)
(-1.30126e-06 1.77218e-07 5.77377e-24)
(-1.27133e-06 1.81561e-07 0)
(-1.24825e-06 1.85488e-07 -5.77807e-24)
(-1.23049e-06 1.90716e-07 -5.76522e-24)
(-1.21683e-06 1.95932e-07 0)
(-1.20866e-06 2.01982e-07 -5.7579e-24)
(-1.20359e-06 2.08229e-07 2.22862e-28)
(-1.20277e-06 2.14626e-07 -5.77487e-24)
(-1.20512e-06 2.22134e-07 1.75241e-28)
(-1.2094e-06 2.29862e-07 0)
(-1.21635e-06 2.38699e-07 1.1447e-23)
(-1.2232e-06 2.46909e-07 -1.15014e-23)
(-1.23233e-06 2.55386e-07 2.29512e-23)
(-1.24057e-06 2.64392e-07 0)
(-1.2483e-06 2.73419e-07 -1.15143e-23)
(-1.25429e-06 2.82187e-07 4.6303e-29)
(-1.25761e-06 2.89865e-07 1.204e-28)
(-1.25782e-06 2.97122e-07 -1.13044e-23)
(-1.25295e-06 3.0335e-07 1.14456e-23)
(-1.24206e-06 3.07748e-07 -1.12772e-23)
(-1.22444e-06 3.10437e-07 8.66829e-29)
(-1.19597e-06 3.1015e-07 2.24341e-23)
(-1.15967e-06 3.07598e-07 1.13332e-23)
(-1.10422e-06 2.99569e-07 0)
(-1.0422e-06 2.88563e-07 8.61531e-29)
(-9.45617e-07 2.67897e-07 -1.67778e-28)
(-8.48172e-07 2.44697e-07 -1.11558e-23)
(-6.83496e-07 2.01928e-07 -8.40169e-29)
(-5.42181e-07 1.62922e-07 8.36912e-29)
(-2.52053e-07 7.68921e-08 -1.10075e-23)
(-6.14338e-08 1.8286e-08 1.09752e-23)
(4.96136e-07 -1.60967e-07 4.9409e-29)
(7.49481e-07 -2.48587e-07 1.09057e-23)
(2.04853e-06 -6.89183e-07 2.06412e-29)
(2.39609e-06 -8.29992e-07 -1.11499e-23)
(7.70346e-06 -2.69959e-06 -4.39789e-28)
(7.08141e-06 -1.20367e-05 -4.08853e-23)
(-1.00784e-05 0.000477475 1.65707e-24)
(6.42831e-06 0.000339334 -9.42248e-25)
(1.9609e-05 0.000455652 7.21559e-25)
(5.46218e-05 0.000493777 -1.87617e-24)
(0.000157671 0.00052322 1.70303e-23)
(0.000171642 0.000328222 1.08889e-26)
(0.000148522 0.000262341 -5.12415e-27)
(0.000162276 0.000241297 8.62935e-23)
(0.000139267 0.000179671 7.81716e-23)
(0.000132916 0.000151657 9.1679e-27)
(0.000113148 0.000115928 0)
(0.000100857 9.39699e-05 8.11921e-27)
(8.48777e-05 7.24519e-05 1.21952e-22)
(7.24222e-05 5.71059e-05 0)
(6.02056e-05 4.41322e-05 -6.21205e-27)
(4.93544e-05 3.37212e-05 6.16587e-27)
(3.98892e-05 2.55627e-05 -4.49798e-23)
(3.13012e-05 1.88267e-05 3.9708e-23)
(2.38511e-05 1.3511e-05 0)
(1.76097e-05 9.43341e-06 -3.39615e-23)
(1.1874e-05 6.01401e-06 3.07089e-23)
(7.21672e-06 3.47518e-06 2.89264e-23)
(3.21023e-06 1.48783e-06 5.13843e-23)
(-2.12034e-07 -4.59373e-08 5.81401e-27)
(-2.94404e-06 -1.14247e-06 -5.38206e-27)
(-5.22251e-06 -1.94608e-06 1.96989e-23)
(-7.0388e-06 -2.49089e-06 0)
(-8.41491e-06 -2.82483e-06 2.03172e-27)
(-9.49443e-06 -3.00934e-06 -1.93189e-27)
(-1.0238e-05 -3.06074e-06 -1.77381e-27)
(-1.0737e-05 -3.02685e-06 3.56447e-27)
(-1.10352e-05 -2.91832e-06 -2.50654e-23)
(-1.11329e-05 -2.76054e-06 -1.20081e-23)
(-1.11048e-05 -2.57543e-06 -1.37554e-27)
(-1.09494e-05 -2.36065e-06 1.26027e-27)
(-1.06996e-05 -2.14551e-06 -1.23536e-27)
(-1.03877e-05 -1.92308e-06 0)
(-1.00128e-05 -1.70029e-06 1.08532e-27)
(-9.60733e-06 -1.493e-06 -2.07482e-27)
(-9.17394e-06 -1.28982e-06 8.04626e-24)
(-8.72223e-06 -1.10054e-06 9.47081e-28)
(-8.2711e-06 -9.26478e-07 3.69495e-24)
(-7.81519e-06 -7.63759e-07 0)
(-7.37143e-06 -6.16965e-07 0)
(-6.94001e-06 -4.84045e-07 -3.28972e-24)
(-6.5262e-06 -3.65091e-07 7.88489e-28)
(-6.13383e-06 -2.5828e-07 7.47029e-28)
(-5.7575e-06 -1.64321e-07 -7.34497e-28)
(-5.39908e-06 -7.92502e-08 7.23934e-25)
(-5.05451e-06 -6.28287e-09 -6.8654e-28)
(-4.72331e-06 5.82459e-08 6.81874e-25)
(-4.40602e-06 1.13941e-07 -1.31905e-24)
(-4.13086e-06 1.63087e-07 -1.59925e-24)
(-3.88141e-06 1.91863e-07 1.58817e-24)
(-3.66544e-06 2.12174e-07 3.17371e-24)
(-3.46061e-06 2.33155e-07 3.16304e-24)
(-3.26304e-06 2.46002e-07 0)
(-3.09496e-06 2.53627e-07 3.14784e-24)
(-2.94006e-06 2.62961e-07 -3.13803e-24)
(-2.7997e-06 2.69538e-07 3.12956e-24)
(-2.67544e-06 2.76253e-07 -3.13208e-24)
(-2.56269e-06 2.81928e-07 -6.24072e-24)
(-2.46537e-06 2.88237e-07 7.61655e-28)
(-2.38006e-06 2.93502e-07 6.2289e-24)
(-2.30666e-06 2.99517e-07 -1.24712e-23)
(-2.24633e-06 3.05784e-07 -6.21401e-24)
(-2.19472e-06 3.13334e-07 0)
(-2.15485e-06 3.20125e-07 6.21864e-24)
(-2.12412e-06 3.29172e-07 1.24095e-23)
(-2.10053e-06 3.38183e-07 0)
(-2.08641e-06 3.48679e-07 6.19697e-24)
(-2.07764e-06 3.59442e-07 6.20176e-24)
(-2.07619e-06 3.70536e-07 -1.02547e-28)
(-2.08014e-06 3.83458e-07 1.88412e-28)
(-2.08734e-06 3.96773e-07 -3.79524e-28)
(-2.09928e-06 4.12001e-07 -1.23198e-23)
(-2.11113e-06 4.26218e-07 1.23789e-23)
(-2.12677e-06 4.40803e-07 -1.23509e-23)
(-2.1409e-06 4.56292e-07 -1.23023e-23)
(-2.15413e-06 4.7186e-07 1.23924e-23)
(-2.16436e-06 4.86968e-07 -1.22277e-23)
(-2.17e-06 5.00181e-07 1.23832e-23)
(-2.17027e-06 5.1265e-07 1.85861e-28)
(-2.16175e-06 5.23352e-07 -1.23185e-23)
(-2.14284e-06 5.30882e-07 1.21371e-23)
(-2.11234e-06 5.35443e-07 1.87219e-28)
(-2.06314e-06 5.34864e-07 -1.20728e-23)
(-2.00038e-06 5.30372e-07 -1.21973e-23)
(-1.90469e-06 5.16426e-07 -9.15225e-29)
(-1.79756e-06 4.973e-07 0)
(-1.63097e-06 4.6155e-07 -1.18305e-23)
(-1.46271e-06 4.21318e-07 1.58518e-28)
(-1.17882e-06 3.47453e-07 0)
(-9.34814e-07 2.79762e-07 0)
(-4.34962e-07 1.31389e-07 0)
(-1.05808e-07 2.94596e-08 -1.18123e-23)
(8.54219e-07 -2.79317e-07 -1.15767e-23)
(1.29208e-06 -4.32762e-07 0)
(3.52721e-06 -1.19117e-06 0)
(4.12585e-06 -1.44478e-06 1.20046e-23)
(1.32232e-05 -4.64381e-06 1.12236e-23)
(1.16291e-05 -2.0358e-05 -4.37439e-23)
(-4.09783e-06 0.000687558 -1.78159e-24)
(9.18493e-06 0.000493084 1.01311e-24)
(2.94006e-05 0.000657683 1.53297e-27)
(7.94464e-05 0.000712395 -1.86235e-27)
(0.000226263 0.000754388 0)
(0.000247743 0.000477657 5.42169e-23)
(0.000215311 0.000381644 -3.8813e-23)
(0.000234864 0.000350282 -4.63791e-23)
(0.000202137 0.000261812 -4.20375e-23)
(0.000192886 0.000220783 0)
(0.000164496 0.000169139 0)
(0.000146668 0.000137093 0)
(0.00012358 0.000105851 -6.56022e-23)
(0.000105505 8.34686e-05 0)
(8.7787e-05 6.45749e-05 -6.68387e-27)
(7.20278e-05 4.93898e-05 6.63425e-27)
(5.82703e-05 3.74835e-05 4.83999e-23)
(4.57819e-05 2.765e-05 5.38019e-27)
(3.49425e-05 1.98838e-05 -4.12209e-23)
(2.58528e-05 1.39212e-05 0)
(1.75014e-05 8.92129e-06 -3.30586e-23)
(1.07119e-05 5.2022e-06 -3.11171e-23)
(4.87013e-06 2.29032e-06 -2.76496e-23)
(-1.22021e-07 4.00499e-08 -2.55925e-23)
(-4.11136e-06 -1.57197e-06 2.81258e-27)
(-7.43988e-06 -2.75523e-06 -1.48585e-28)
(-1.00957e-05 -3.5604e-06 2.0022e-23)
(-1.21107e-05 -4.05691e-06 0)
(-1.36932e-05 -4.33451e-06 -1.65912e-23)
(-1.47864e-05 -4.41721e-06 -1.9975e-27)
(-1.55227e-05 -4.37436e-06 -2.91705e-23)
(-1.59661e-05 -4.22212e-06 2.69801e-23)
(-1.61171e-05 -3.99725e-06 -1.60887e-27)
(-1.6084e-05 -3.73176e-06 1.19084e-23)
(-1.58652e-05 -3.42269e-06 -2.75624e-27)
(-1.55083e-05 -3.11218e-06 1.32955e-27)
(-1.50603e-05 -2.79083e-06 0)
(-1.45203e-05 -2.46863e-06 1.16805e-27)
(-1.39351e-05 -2.1684e-06 -1.12834e-27)
(-1.33087e-05 -1.874e-06 -5.83959e-28)
(-1.26553e-05 -1.59957e-06 1.03681e-27)
(-1.20023e-05 -1.34707e-06 0)
(-1.13421e-05 -1.11094e-06 0)
(-1.06992e-05 -8.97908e-07 8.98241e-28)
(-1.0074e-05 -7.04818e-07 3.53867e-24)
(-9.4741e-06 -5.32029e-07 0)
(-8.90512e-06 -3.76917e-07 0)
(-8.35931e-06 -2.40281e-07 -7.84726e-28)
(-7.83938e-06 -1.16784e-07 4.84211e-30)
(-7.33948e-06 -1.06253e-08 7.38867e-28)
(-6.85887e-06 8.31819e-08 -7.3385e-25)
(-6.3984e-06 1.64183e-07 1.41895e-24)
(-5.9992e-06 2.35456e-07 -1.72107e-24)
(-5.6373e-06 2.77452e-07 -1.71048e-24)
(-5.32364e-06 3.07087e-07 -6.8303e-24)
(-5.02631e-06 3.37626e-07 3.40497e-24)
(-4.73961e-06 3.56396e-07 -8.28485e-28)
(-4.49557e-06 3.67613e-07 -3.3878e-24)
(-4.2707e-06 3.81181e-07 -4.11929e-28)
(-4.06692e-06 3.90854e-07 3.57213e-31)
(-3.88643e-06 4.00676e-07 3.37086e-24)
(-3.72274e-06 4.09035e-07 0)
(-3.58149e-06 4.18202e-07 -6.71769e-24)
(-3.4576e-06 4.2597e-07 -1.16659e-28)
(-3.35095e-06 4.34718e-07 2.68618e-28)
(-3.26332e-06 4.43924e-07 0)
(-3.18842e-06 4.54896e-07 4.08491e-28)
(-3.13048e-06 4.6485e-07 -8.1723e-28)
(-3.08577e-06 4.7798e-07 1.5004e-28)
(-3.05146e-06 4.91142e-07 0)
(-3.03097e-06 5.06384e-07 0)
(-3.0182e-06 5.22064e-07 6.67445e-24)
(-3.01603e-06 5.38186e-07 1.33761e-23)
(-3.02163e-06 5.56958e-07 0)
(-3.03186e-06 5.76266e-07 -6.69425e-24)
(-3.04912e-06 5.9838e-07 8.09443e-28)
(-3.06634e-06 6.19037e-07 -1.33218e-23)
(-3.08889e-06 6.40199e-07 1.32916e-23)
(-3.10924e-06 6.62641e-07 1.32404e-23)
(-3.12831e-06 6.85208e-07 -1.33366e-23)
(-3.14306e-06 7.07107e-07 -1.31596e-23)
(-3.15112e-06 7.2625e-07 -2.03587e-28)
(-3.15135e-06 7.44272e-07 0)
(-3.13882e-06 7.59736e-07 0)
(-3.11123e-06 7.70586e-07 0)
(-3.06679e-06 7.77111e-07 0)
(-2.99525e-06 7.76137e-07 -1.97905e-28)
(-2.90396e-06 7.69483e-07 2.00666e-28)
(-2.765e-06 7.4909e-07 -1.28834e-23)
(-2.60931e-06 7.21125e-07 0)
(-2.36752e-06 6.69067e-07 1.27328e-23)
(-2.12306e-06 6.10367e-07 1.29226e-23)
(-1.71129e-06 5.03003e-07 -9.77574e-29)
(-1.35678e-06 4.04152e-07 -9.64203e-29)
(-6.32151e-07 1.88845e-07 9.76619e-29)
(-1.53866e-07 3.95872e-08 -4.82453e-29)
(1.23695e-06 -4.07972e-07 1.24598e-23)
(1.87363e-06 -6.34258e-07 -9.56795e-29)
(5.10945e-06 -1.73259e-06 7.19067e-29)
(5.9768e-06 -2.11742e-06 -1.29202e-23)
(1.90982e-05 -6.72357e-06 1.30973e-29)
(1.64863e-05 -2.92387e-05 6.27604e-23)
(3.89374e-07 0.000909869 3.62432e-29)
(1.20635e-05 0.000658552 5.44357e-25)
(4.05122e-05 0.000872217 -8.54352e-25)
(0.000106215 0.000944362 2.20041e-24)
(0.00029826 0.000999363 -1.13741e-26)
(0.000328569 0.000638968 -5.82809e-23)
(0.000286864 0.000510382 4.17085e-23)
(0.000312392 0.000467401 1.07151e-26)
(0.000269666 0.000350739 -1.13326e-26)
(0.000257283 0.000295493 2.11774e-26)
(0.000219835 0.000226894 -1.03993e-26)
(0.000196068 0.000183897 3.9424e-23)
(0.000165416 0.0001422 -1.68352e-26)
(0.000141307 0.000112187 -3.43082e-23)
(0.000117689 8.68907e-05 0)
(9.66514e-05 6.65268e-05 -1.34799e-26)
(7.827e-05 5.05506e-05 -5.20666e-23)
(6.15758e-05 3.73508e-05 1.08732e-26)
(4.70781e-05 2.69177e-05 4.43501e-23)
(3.49079e-05 1.88998e-05 3.93237e-23)
(2.37286e-05 1.21768e-05 3.55618e-23)
(1.46286e-05 7.16646e-06 0)
(6.79719e-06 3.24263e-06 0)
(1.01714e-07 2.06134e-07 5.50879e-23)
(-5.25458e-06 -1.97372e-06 -2.5503e-23)
(-9.72567e-06 -3.5764e-06 0)
(-1.32965e-05 -4.67116e-06 -4.30986e-23)
(-1.601e-05 -5.35039e-06 -1.97551e-23)
(-1.81433e-05 -5.73471e-06 3.57095e-23)
(-1.96216e-05 -5.85662e-06 1.71965e-23)
(-2.0621e-05 -5.80853e-06 1.5699e-23)
(-2.12275e-05 -5.613e-06 -1.45194e-23)
(-2.14421e-05 -5.31895e-06 0)
(-2.14087e-05 -4.96933e-06 -1.55621e-27)
(-2.11266e-05 -4.56085e-06 1.21367e-23)
(-2.06585e-05 -4.14911e-06 1.47129e-27)
(-2.00675e-05 -3.72251e-06 -1.07494e-23)
(-1.93529e-05 -3.29441e-06 -1.04113e-23)
(-1.85769e-05 -2.89474e-06 -1.18883e-27)
(-1.77449e-05 -2.50274e-06 -9.31576e-24)
(-1.68766e-05 -2.13706e-06 -1.11584e-27)
(-1.6008e-05 -1.80042e-06 4.28097e-24)
(-1.51292e-05 -1.4855e-06 4.14323e-24)
(-1.42733e-05 -1.20135e-06 0)
(-1.34406e-05 -9.43544e-07 3.80848e-24)
(-1.26413e-05 -7.12816e-07 -3.71997e-24)
(-1.1883e-05 -5.05805e-07 8.65254e-28)
(-1.11555e-05 -3.2312e-07 -1.69528e-27)
(-1.04623e-05 -1.58375e-07 -8.36826e-25)
(-9.79569e-06 -1.63582e-08 0)
(-9.15467e-06 1.08991e-07 1.57956e-24)
(-8.54046e-06 2.17285e-07 -3.05423e-24)
(-8.00811e-06 3.12229e-07 1.85315e-24)
(-7.52552e-06 3.68603e-07 -8.97738e-28)
(-7.10687e-06 4.08363e-07 3.67629e-24)
(-6.71019e-06 4.49234e-07 -3.6636e-24)
(-6.32781e-06 4.74431e-07 0)
(-6.00213e-06 4.89635e-07 0)
(-5.7021e-06 5.07748e-07 0)
(-5.43017e-06 5.20844e-07 8.84737e-28)
(-5.18927e-06 5.34049e-07 -1.77028e-27)
(-4.97083e-06 5.45397e-07 8.83199e-28)
(-4.78239e-06 5.57615e-07 7.23025e-24)
(-4.61705e-06 5.68187e-07 -1.44298e-23)
(-4.47468e-06 5.79876e-07 3.57325e-28)
(-4.35768e-06 5.92334e-07 0)
(-4.25776e-06 6.06965e-07 0)
(-4.18038e-06 6.20408e-07 0)
(-4.12062e-06 6.37919e-07 -7.18659e-24)
(-4.07477e-06 6.55614e-07 0)
(-4.04741e-06 6.75933e-07 0)
(-4.03032e-06 6.96945e-07 -1.43661e-23)
(-4.02734e-06 7.18499e-07 -7.19759e-24)
(-4.03465e-06 7.43574e-07 0)
(-4.04808e-06 7.6932e-07 1.44082e-23)
(-4.07099e-06 7.98835e-07 4.35274e-28)
(-4.09395e-06 8.26419e-07 8.21459e-28)
(-4.12384e-06 8.54662e-07 -2.86107e-23)
(-4.15078e-06 8.84558e-07 -1.4249e-23)
(-4.17605e-06 9.14626e-07 1.4354e-23)
(-4.19559e-06 9.43769e-07 1.41629e-23)
(-4.20616e-06 9.69288e-07 1.43435e-23)
(-4.20627e-06 9.93214e-07 -2.15279e-28)
(-4.18935e-06 1.01376e-06 0)
(-4.15234e-06 1.02811e-06 0)
(-4.09283e-06 1.03671e-06 0)
(-3.9972e-06 1.03521e-06 0)
(-3.87517e-06 1.02617e-06 0)
(-3.68971e-06 9.9873e-07 1.38659e-23)
(-3.48174e-06 9.61173e-07 0)
(-3.15923e-06 8.91461e-07 -2.08708e-28)
(-2.83279e-06 8.12766e-07 1.06811e-28)
(-2.28388e-06 6.6929e-07 1.05212e-28)
(-1.81051e-06 5.36612e-07 0)
(-8.45082e-07 2.49467e-07 1.37237e-23)
(-2.06289e-07 4.84991e-08 -2.08221e-28)
(1.64542e-06 -5.47709e-07 -1.34099e-23)
(2.49627e-06 -8.54615e-07 5.13265e-29)
(6.80119e-06 -2.31636e-06 -1.33494e-23)
(7.95599e-06 -2.85324e-06 0)
(2.53451e-05 -8.94668e-06 0)
(2.16698e-05 -3.87072e-05 -3.37367e-23)
(4.23894e-06 0.00114477 0)
(1.50726e-05 0.000836539 -5.85153e-25)
(5.3092e-05 0.00109977 -6.91069e-27)
(0.000135071 0.00119021 -2.36328e-24)
(0.000373699 0.00125865 -2.09697e-23)
(0.00041433 0.000813054 0)
(0.000363479 0.000649311 1.25369e-26)
(0.000395151 0.000593253 -1.15129e-26)
(0.000342189 0.000447032 -1.21812e-26)
(0.000326427 0.000376262 3.41421e-26)
(0.00027948 0.000289609 -2.23618e-26)
(0.000249349 0.000234725 -8.48071e-23)
(0.000210652 0.000181787 7.58964e-23)
(0.000180068 0.000143497 3.69092e-23)
(0.000150123 0.000111272 -6.51322e-23)
(0.000123409 8.52882e-05 0)
(0.000100046 6.48895e-05 0)
(7.88165e-05 4.80291e-05 4.94858e-23)
(6.0369e-05 3.46913e-05 0)
(4.48662e-05 2.44306e-05 -4.23201e-23)
(3.06286e-05 1.58275e-05 -9.05972e-27)
(1.90237e-05 9.40314e-06 9.08305e-27)
(9.03418e-06 4.37054e-06 0)
(4.89559e-07 4.70362e-07 -5.92725e-23)
(-6.35382e-06 -2.33571e-06 2.74274e-23)
(-1.2069e-05 -4.40241e-06 5.83227e-27)
(-1.66381e-05 -5.81966e-06 4.63784e-23)
(-2.01156e-05 -6.7046e-06 2.12623e-23)
(-2.2853e-05 -7.2114e-06 -1.92214e-23)
(-2.47558e-05 -7.38191e-06 -1.84999e-23)
(-2.60472e-05 -7.33329e-06 4.04026e-27)
(-2.68372e-05 -7.09551e-06 1.56207e-23)
(-2.71274e-05 -6.73052e-06 0)
(-2.70999e-05 -6.29312e-06 -1.37934e-23)
(-2.67549e-05 -5.78008e-06 -1.30571e-23)
(-2.6172e-05 -5.26099e-06 0)
(-2.54311e-05 -4.72257e-06 2.31424e-23)
(-2.45322e-05 -4.18169e-06 1.12012e-23)
(-2.35539e-05 -3.67576e-06 0)
(-2.25034e-05 -3.17937e-06 -2.42618e-27)
(-2.1406e-05 -2.71596e-06 2.40177e-27)
(-2.03074e-05 -2.2891e-06 -4.60704e-24)
(-1.91951e-05 -1.88961e-06 -4.45883e-24)
(-1.81113e-05 -1.52913e-06 0)
(-1.70564e-05 -1.20171e-06 -4.09962e-24)
(-1.60437e-05 -9.08661e-07 -1.83363e-28)
(-1.50824e-05 -6.45855e-07 0)
(-1.416e-05 -4.1352e-07 0)
(-1.32809e-05 -2.04464e-07 9.02358e-25)
(-1.24355e-05 -2.375e-08 -8.55769e-28)
(-1.16224e-05 1.35582e-07 -1.69994e-24)
(-1.08431e-05 2.73319e-07 1.64352e-24)
(-1.01678e-05 3.93613e-07 0)
(-9.55576e-06 4.65597e-07 -1.98108e-24)
(-9.02432e-06 5.16384e-07 3.95515e-24)
(-8.52096e-06 5.68404e-07 1.92605e-27)
(-8.03588e-06 6.00598e-07 -9.59545e-28)
(-7.62248e-06 6.2021e-07 9.57801e-28)
(-7.24172e-06 6.43231e-07 -9.55048e-28)
(-6.89662e-06 6.60091e-07 3.90042e-24)
(-6.59082e-06 6.77003e-07 -3.90327e-24)
(-6.31359e-06 6.91659e-07 0)
(-6.07445e-06 7.07164e-07 -7.78009e-24)
(-5.86459e-06 7.20849e-07 7.76456e-24)
(-5.68384e-06 7.35731e-07 7.77128e-24)
(-5.53528e-06 7.51766e-07 9.46191e-28)
(-5.40849e-06 7.7034e-07 7.7556e-24)
(-5.3102e-06 7.87611e-07 0)
(-5.23426e-06 8.09849e-07 0)
(-5.176e-06 8.32474e-07 7.75609e-24)
(-5.14123e-06 8.58244e-07 -4.71426e-28)
(-5.11947e-06 8.85019e-07 7.7304e-24)
(-5.11556e-06 9.12465e-07 0)
(-5.12467e-06 9.44316e-07 -4.69702e-28)
(-5.14148e-06 9.77006e-07 -7.75272e-24)
(-5.1704e-06 1.01445e-06 4.68441e-28)
(-5.19947e-06 1.0495e-06 1.5429e-23)
(-5.23717e-06 1.08534e-06 1.53961e-23)
(-5.27111e-06 1.12326e-06 1.09902e-28)
(-5.30294e-06 1.16135e-06 4.70972e-28)
(-5.32755e-06 1.19823e-06 -1.52428e-23)
(-5.34073e-06 1.23058e-06 -1.54366e-23)
(-5.3406e-06 1.26081e-06 -1.11236e-30)
(-5.31887e-06 1.28676e-06 1.53548e-23)
(-5.27166e-06 1.30481e-06 2.3048e-28)
(-5.19585e-06 1.31557e-06 -4.65985e-28)
(-5.07428e-06 1.31343e-06 2.30042e-28)
(-4.91913e-06 1.30172e-06 0)
(-4.68368e-06 1.26661e-06 1.49229e-23)
(-4.41945e-06 1.21862e-06 1.51873e-23)
(-4.01031e-06 1.12982e-06 1.47484e-23)
(-3.5957e-06 1.02945e-06 -1.4968e-23)
(-2.8998e-06 8.47076e-07 0)
(-2.29862e-06 6.77636e-07 -1.11689e-28)
(-1.07534e-06 3.13417e-07 -2.95405e-23)
(-2.63829e-07 5.59319e-08 0)
(2.08071e-06 -6.99427e-07 1.44325e-23)
(3.16223e-06 -1.09559e-06 1.46366e-23)
(8.60859e-06 -2.94564e-06 -3.50185e-28)
(1.00707e-05 -3.65841e-06 0)
(3.19802e-05 -1.13214e-05 -1.51547e-29)
(2.72063e-05 -4.87687e-05 -1.81013e-23)
(7.68043e-06 0.00139262 0)
(1.82213e-05 0.00102788 0)
(6.73044e-05 0.00134083 9.92588e-25)
(0.000166167 0.00145043 -8.83116e-27)
(0.000452595 0.00153273 4.50217e-23)
(0.000505225 0.00100086 -1.26506e-28)
(0.000445463 0.000799247 1.47688e-28)
(0.000483441 0.000728478 1.23682e-26)
(0.000420056 0.000551326 5.21686e-23)
(0.000400652 0.000463608 0)
(0.000343768 0.000357745 0)
(0.000306822 0.000289954 4.5606e-23)
(0.000259581 0.000224931 -8.1625e-23)
(0.000222047 0.000177658 -3.97578e-23)
(0.000185321 0.000137935 7.00873e-23)
(0.000152504 0.000105849 -6.58056e-23)
(0.000123775 8.06414e-05 6.03162e-23)
(9.76527e-05 5.97975e-05 -5.32411e-23)
(7.49399e-05 4.32936e-05 -1.29426e-26)
(5.58304e-05 3.05837e-05 0)
(3.82842e-05 1.99272e-05 9.74969e-27)
(2.39621e-05 1.19529e-05 -1.89712e-26)
(1.16307e-05 5.70415e-06 8.68779e-27)
(1.07742e-06 8.54107e-07 3.18948e-23)
(-7.38486e-06 -2.64347e-06 7.01193e-27)
(-1.44558e-05 -5.22419e-06 2.64184e-23)
(-2.01147e-05 -7.00114e-06 -2.49451e-23)
(-2.44289e-05 -8.11802e-06 -2.88368e-28)
(-2.78292e-05 -8.76546e-06 -2.0686e-23)
(-3.02006e-05 -8.99572e-06 -4.9802e-27)
(-3.18166e-05 -8.95246e-06 4.34822e-27)
(-3.28134e-05 -8.67427e-06 -1.68214e-23)
(-3.31932e-05 -8.23702e-06 1.61181e-23)
(-3.31791e-05 -7.70834e-06 -1.48467e-23)
(-3.27728e-05 -7.08554e-06 1.0866e-28)
(-3.20718e-05 -6.45284e-06 6.53601e-27)
(-3.11742e-05 -5.79574e-06 -1.24542e-23)
(-3.00811e-05 -5.13487e-06 -1.20614e-23)
(-2.88886e-05 -4.51549e-06 1.13978e-23)
(-2.7606e-05 -3.90753e-06 1.07903e-23)
(-2.62647e-05 -3.3395e-06 -2.54103e-27)
(-2.49207e-05 -2.81593e-06 3.7877e-29)
(-2.35591e-05 -2.32569e-06 4.80127e-24)
(-2.22317e-05 -1.88327e-06 0)
(-2.09392e-05 -1.48098e-06 2.14299e-27)
(-1.96978e-05 -1.12091e-06 -2.31778e-27)
(-1.85192e-05 -7.98101e-07 2.05926e-24)
(-1.73879e-05 -5.1226e-07 2.0112e-24)
(-1.63096e-05 -2.55575e-07 -9.44208e-28)
(-1.52723e-05 -3.31375e-08 5.35217e-30)
(-1.42745e-05 1.62812e-07 9.15634e-25)
(-1.33182e-05 3.32319e-07 0)
(-1.24894e-05 4.79797e-07 0)
(-1.17384e-05 5.68707e-07 4.26197e-24)
(-1.10859e-05 6.31521e-07 -2.26939e-28)
(-1.0468e-05 6.95564e-07 0)
(-9.87271e-06 7.35391e-07 -4.22845e-24)
(-9.36507e-06 7.59861e-07 1.03212e-27)
(-8.89764e-06 7.88212e-07 -1.02685e-27)
(-8.47396e-06 8.09201e-07 -8.39424e-24)
(-8.09847e-06 8.30193e-07 8.4023e-24)
(-7.75812e-06 8.48494e-07 -1.02289e-27)
(-7.46455e-06 8.67564e-07 8.37313e-24)
(-7.20688e-06 8.84692e-07 1.02011e-27)
(-6.98491e-06 9.03063e-07 -1.02092e-27)
(-6.80245e-06 9.23022e-07 1.01769e-27)
(-6.64681e-06 9.4586e-07 -8.34887e-24)
(-6.52605e-06 9.67321e-07 8.34412e-24)
(-6.43271e-06 9.94674e-07 -1.01597e-27)
(-6.3611e-06 1.02265e-06 -8.34689e-24)
(-6.31835e-06 1.05429e-06 0)
(-6.29154e-06 1.08728e-06 0)
(-6.28658e-06 1.12114e-06 0)
(-6.29758e-06 1.16027e-06 5.05485e-28)
(-6.31797e-06 1.20046e-06 -5.09419e-28)
(-6.35328e-06 1.24638e-06 0)
(-6.38884e-06 1.2895e-06 -1.66032e-23)
(-6.43484e-06 1.33349e-06 1.65675e-23)
(-6.4762e-06 1.38004e-06 1.65043e-23)
(-6.515e-06 1.42671e-06 1.66239e-23)
(-6.54497e-06 1.47185e-06 1.21622e-27)
(-6.56084e-06 1.51152e-06 1.66124e-23)
(-6.56034e-06 1.54846e-06 0)
(-6.53334e-06 1.58015e-06 -7.27258e-28)
(-6.47506e-06 1.6021e-06 0)
(-6.38165e-06 1.61512e-06 -1.64335e-23)
(-6.23212e-06 1.61219e-06 0)
(-6.04128e-06 1.59752e-06 -2.4919e-28)
(-5.75214e-06 1.55404e-06 -1.60607e-23)
(-5.42737e-06 1.49469e-06 -1.63452e-23)
(-4.92529e-06 1.38526e-06 -1.58736e-23)
(-4.41588e-06 1.26138e-06 1.61097e-23)
(-3.56247e-06 1.03711e-06 0)
(-2.82388e-06 8.27696e-07 0)
(-1.32465e-06 3.80809e-07 3.17937e-23)
(-3.27305e-07 6.15319e-08 1.58509e-23)
(2.54395e-06 -8.64143e-07 -3.10662e-23)
(3.87382e-06 -1.35922e-06 7.06328e-28)
(1.0538e-05 -3.6239e-06 3.09276e-23)
(1.23284e-05 -4.53985e-06 2.98752e-29)
(3.90197e-05 -1.38565e-05 -1.50661e-23)
(3.31183e-05 -5.94427e-05 7.79667e-23)
(1.05939e-05 0.0016537 0)
(2.1522e-05 0.00123342 6.74606e-25)
(8.33248e-05 0.00159587 4.51829e-27)
(0.000199664 0.00172549 -5.09549e-27)
(0.000534942 0.00182203 -6.23379e-26)
(0.000601441 0.00120338 7.17039e-23)
(0.000533131 0.00096107 -2.8926e-26)
(0.00057757 0.000873763 -1.9946e-27)
(0.000503635 0.000664308 -5.60468e-23)
(0.000480317 0.000558099 -2.69222e-29)
(0.000413064 0.000431806 5.13642e-23)
(0.000368827 0.000350002 -4.90226e-23)
(0.000312517 0.000271986 0)
(0.000267532 0.000214962 4.27254e-23)
(0.00022354 0.00016712 7.53984e-23)
(0.000184161 0.000128404 7.08259e-23)
(0.00014965 9.79653e-05 -6.48731e-23)
(0.00011825 7.27838e-05 5.72825e-23)
(9.09303e-05 5.28263e-05 0)
(6.79162e-05 3.74389e-05 1.16018e-26)
(4.67893e-05 2.4538e-05 -1.11809e-26)
(2.95185e-05 1.48628e-05 0)
(1.46442e-05 7.27871e-06 0)
(1.90764e-06 1.38275e-06 0)
(-8.31829e-06 -2.87943e-06 0)
(-1.68677e-05 -6.0304e-06 -2.84393e-23)
(-2.37175e-05 -8.2091e-06 0)
(-2.89488e-05 -9.58786e-06 0)
(-3.30775e-05 -1.0397e-05 4.45262e-23)
(-3.59669e-05 -1.07002e-05 -5.3598e-27)
(-3.79442e-05 -1.06696e-05 4.67959e-27)
(-3.91741e-05 -1.03538e-05 1.8093e-23)
(-3.96599e-05 -9.84352e-06 -1.73397e-23)
(-3.96685e-05 -9.22032e-06 -2.22872e-27)
(-3.92035e-05 -8.48263e-06 1.51289e-23)
(-3.83818e-05 -7.7299e-06 3.46671e-27)
(-3.7321e-05 -6.94704e-06 1.3395e-23)
(-3.60237e-05 -6.15862e-06 1.29795e-23)
(-3.46048e-05 -5.41822e-06 -1.22565e-23)
(-3.30759e-05 -4.69107e-06 -1.16147e-23)
(-3.14751e-05 -4.01109e-06 -2.78174e-27)
(-2.98697e-05 -3.3839e-06 2.58617e-27)
(-2.82421e-05 -2.79632e-06 -2.26797e-27)
(-2.66544e-05 -2.26595e-06 0)
(-2.51078e-05 -1.78316e-06 0)
(-2.36217e-05 -1.35104e-06 9.2765e-24)
(-2.22104e-05 -9.63691e-07 2.14168e-27)
(-2.08553e-05 -6.20202e-07 -2.16443e-24)
(-1.95633e-05 -3.12308e-07 0)
(-1.83204e-05 -4.48838e-08 0)
(-1.71245e-05 1.90522e-07 0)
(-1.59781e-05 3.94301e-07 0)
(-1.49847e-05 5.70941e-07 2.30947e-24)
(-1.40847e-05 6.78201e-07 -4.58663e-24)
(-1.33021e-05 7.54133e-07 -4.58067e-24)
(-1.25613e-05 8.31152e-07 -4.56638e-24)
(-1.18478e-05 8.79307e-07 4.54958e-24)
(-1.1239e-05 9.09137e-07 -4.54456e-24)
(-1.06785e-05 9.43285e-07 1.10505e-27)
(-1.01705e-05 9.68807e-07 4.51637e-24)
(-9.72019e-06 9.94288e-07 -4.52174e-24)
(-9.31209e-06 1.01661e-06 9.01023e-24)
(-8.96008e-06 1.03956e-06 1.09918e-27)
(-8.65108e-06 1.06049e-06 -6.61875e-31)
(-8.38489e-06 1.08268e-06 -1.09867e-27)
(-8.16601e-06 1.10695e-06 -1.09521e-27)
(-7.9794e-06 1.13441e-06 4.94563e-31)
(-7.83449e-06 1.16045e-06 -1.79545e-23)
(-7.72246e-06 1.19335e-06 -8.95555e-24)