/*--------------------------------*- C++ -*----------------------------------*\
| =========                 |                                                 |
| \\      /  F ield         | OpenFOAM: The Open Source CFD Toolbox           |
|  \\    /   O peration     | Version:  5.x                                   |
|   \\  /    A nd           | Web:      www.OpenFOAM.org                      |
|    \\/     M anipulation  |                                                 |
\*---------------------------------------------------------------------------*/
FoamFile
{
    version     2.0;
    format      ascii;
    class       volVectorField;
    location    "2500";
    object      wallShearStress;
}
// * * * * * * * * * * * * * * * * * * * * * * * * * * * * * * * * * * * * * //

dimensions      [0 2 -2 0 0 0 0];

internalField   uniform (0 0 0);

boundaryField
{
    inlet
    {
        type            calculated;
        value           uniform (0 0 0);
    }
    outlet
    {
        type            calculated;
        value           uniform (0 0 0);
    }
    walls
    {
        type            calculated;
        value           nonuniform List<vector> 
204
(
(-9.65341e-06 -2.21711e-05 8.98032e-29)
(-3.8631e-07 -1.86011e-05 -8.55308e-29)
(-1.08175e-06 -2.59268e-05 -1.83787e-25)
(-3.36894e-06 -3.05302e-05 -1.91485e-25)
(-1.04254e-05 -3.43548e-05 3.40305e-24)
(-1.30186e-05 -2.45863e-05 -8.03663e-24)
(-1.21138e-05 -2.12781e-05 -6.07072e-24)
(-1.41982e-05 -2.10313e-05 -1.70659e-28)
(-1.36517e-05 -1.75046e-05 1.1099e-27)
(-1.39735e-05 -1.58726e-05 1.20518e-27)
(-1.32989e-05 -1.35504e-05 1.28923e-27)
(-1.28998e-05 -1.19593e-05 -1.03337e-23)
(-1.21679e-05 -1.03287e-05 -2.01208e-23)
(-1.15154e-05 -9.0298e-06 -1.68333e-27)
(-1.08149e-05 -7.88012e-06 1.99044e-23)
(-1.00998e-05 -6.85611e-06 -1.99821e-23)
(-9.42483e-06 -5.99766e-06 -2.38689e-27)
(-8.74965e-06 -5.22122e-06 -7.28944e-40)
(-8.09149e-06 -4.54241e-06 3.75199e-23)
(-7.49506e-06 -3.9722e-06 1.75721e-23)
(-6.87896e-06 -3.43607e-06 4.18999e-40)
(-6.30715e-06 -2.97896e-06 -2.86986e-42)
(-5.77175e-06 -2.57872e-06 1.55223e-23)
(-5.23221e-06 -2.20778e-06 -1.5044e-23)
(-4.73575e-06 -1.89251e-06 -1.45139e-23)
(-4.26144e-06 -1.60986e-06 -2.70304e-23)
(-3.79464e-06 -1.3534e-06 1.32297e-23)
(-3.36889e-06 -1.1365e-06 -1.25131e-23)
(-2.95359e-06 -9.39003e-07 1.16416e-23)
(-2.55984e-06 -7.66523e-07 1.14841e-23)
(-2.20214e-06 -6.21151e-07 -1.06964e-23)
(-1.85296e-06 -4.89819e-07 3.60167e-40)
(-1.53188e-06 -3.7929e-07 9.77694e-24)
(-1.23914e-06 -2.8664e-07 -1.09516e-27)
(-9.6175e-07 -2.06665e-07 1.07528e-27)
(-7.14722e-07 -1.4244e-07 3.12623e-28)
(-4.90314e-07 -8.99596e-08 -7.73637e-24)
(-2.8718e-07 -4.79955e-08 -2.45698e-28)
(-1.12042e-07 -1.66785e-08 8.50176e-28)
(4.40962e-08 6.8714e-09 6.65656e-24)
(1.76328e-07 2.28703e-08 -7.95799e-28)
(2.86917e-07 3.27062e-08 1.43095e-40)
(3.79443e-07 3.75823e-08 3.58732e-43)
(4.51579e-07 3.83103e-08 2.77603e-24)
(5.08484e-07 3.59303e-08 2.24208e-44)
(5.49104e-07 3.11148e-08 5.11516e-24)
(5.7672e-07 2.47676e-08 1.21334e-24)
(5.92641e-07 1.71973e-08 1.1754e-24)
(5.98322e-07 9.22952e-09 -2.71908e-41)
(5.95533e-07 1.01429e-09 5.09722e-44)
(5.8527e-07 -7.00478e-09 5.24086e-25)
(5.68419e-07 -1.45291e-08 4.92907e-28)
(5.5044e-07 -2.12684e-08 1.21706e-24)
(5.31776e-07 -2.60544e-08 1.20305e-24)
(5.1235e-07 -2.95068e-08 2.38803e-24)
(4.93405e-07 -3.31075e-08 -2.37128e-24)
(4.72568e-07 -3.54685e-08 4.69778e-24)
(4.53189e-07 -3.70858e-08 2.84566e-28)
(4.3455e-07 -3.87213e-08 -2.31449e-24)
(4.16115e-07 -3.9973e-08 2.29743e-24)
(3.98718e-07 -4.11281e-08 -4.48416e-44)
(3.81711e-07 -4.19575e-08 4.54072e-24)
(3.65637e-07 -4.26071e-08 -2.75976e-28)
(3.50047e-07 -4.31395e-08 -4.48911e-24)
(3.34777e-07 -4.34185e-08 -2.73102e-28)
(3.20094e-07 -4.352e-08 4.43822e-24)
(3.05445e-07 -4.35015e-08 1.35048e-28)
(2.91134e-07 -4.32141e-08 -8.84275e-41)
(2.77052e-07 -4.28897e-08 4.37103e-24)
(2.63112e-07 -4.22909e-08 7.8823e-45)
(2.49842e-07 -4.16742e-08 4.32936e-24)
(2.36997e-07 -4.09257e-08 8.63995e-24)
(2.25051e-07 -4.02457e-08 -1.9802e-40)
(2.14136e-07 -3.95218e-08 -1.30275e-28)
(2.04251e-07 -3.89307e-08 1.30829e-28)
(1.95932e-07 -3.839e-08 1.29135e-28)
(1.88828e-07 -3.82049e-08 -8.47793e-24)
(1.83448e-07 -3.80824e-08 1.68804e-23)
(1.79499e-07 -3.83764e-08 1.43493e-42)
(1.77169e-07 -3.88286e-08 -9.32704e-41)
(1.76335e-07 -3.97085e-08 -8.28736e-24)
(1.76899e-07 -4.08016e-08 8.37512e-24)
(1.78835e-07 -4.23212e-08 -8.21122e-24)
(1.81904e-07 -4.40642e-08 -1.26611e-28)
(1.85953e-07 -4.61466e-08 6.22993e-29)
(1.90809e-07 -4.84258e-08 -8.22846e-24)
(1.95943e-07 -5.09042e-08 -1.07218e-28)
(2.01443e-07 -5.34911e-08 6.15151e-32)
(2.06052e-07 -5.59489e-08 6.11967e-29)
(2.10516e-07 -5.8381e-08 8.14772e-24)
(2.12096e-07 -6.01339e-08 -7.17465e-43)
(2.13048e-07 -6.16599e-08 6.11091e-29)
(2.07435e-07 -6.13629e-08 -9.07681e-29)
(2.01625e-07 -6.08351e-08 2.99932e-29)
(1.81231e-07 -5.58228e-08 2.36975e-29)
(1.6484e-07 -5.1788e-08 7.84836e-24)
(1.13687e-07 -3.6421e-08 -7.71953e-24)
(7.92163e-08 -2.58121e-08 1.5485e-23)
(-4.56988e-08 1.55265e-08 2.94568e-29)
(-1.19424e-07 4.16111e-08 -7.7687e-24)
(-5.87536e-07 2.06174e-07 -1.93471e-28)
(-9.07647e-07 1.69685e-06 -1.54614e-23)
(5.63018e-06 -1.96997e-05 3.86462e-24)
(3.53729e-06 -1.03385e-05 -9.88799e-24)
(4.05353e-06 -7.87255e-06 8.62438e-28)
(1.40655e-06 -2.15068e-06 -1.32977e-23)
(-3.64148e-07 3.95344e-07 1.403e-23)
(-3.04967e-06 3.02111e-06 -1.26337e-23)
(-4.97267e-06 4.18953e-06 1.52142e-27)
(-6.8206e-06 4.95085e-06 -1.22148e-40)
(-8.08333e-06 5.11153e-06 -1.43493e-42)
(-9.08864e-06 5.05017e-06 -9.08104e-24)
(-9.70233e-06 4.77185e-06 -1.44373e-27)
(-1.01355e-05 4.43599e-06 7.37784e-24)
(-1.03207e-05 4.0383e-06 1.25609e-23)
(-1.04057e-05 3.65258e-06 -5.81129e-24)
(-1.03706e-05 3.27303e-06 2.46199e-27)
(-1.02459e-05 2.91141e-06 -4.39462e-24)
(-1.00984e-05 2.58366e-06 7.98555e-24)
(-9.88031e-06 2.27718e-06 7.17465e-43)
(-9.6554e-06 2.00361e-06 -1.52271e-24)
(-9.41968e-06 1.75572e-06 5.62313e-41)
(-9.14387e-06 1.52765e-06 2.02666e-28)
(-8.90055e-06 1.32841e-06 2.02904e-24)
(-8.63508e-06 1.14699e-06 -5.00989e-29)
(-8.36771e-06 9.84812e-07 -4.50306e-29)
(-8.12392e-06 8.39506e-07 -6.26643e-25)
(-7.85999e-06 7.08165e-07 -5.13251e-25)
(-7.61937e-06 5.93162e-07 4.33642e-25)
(-7.38452e-06 4.87843e-07 1.12104e-43)
(-7.14028e-06 3.94521e-07 1.21236e-28)
(-6.92617e-06 3.12105e-07 -1.20623e-28)
(-6.70555e-06 2.3712e-07 7.93879e-26)
(-6.49245e-06 1.72419e-07 -1.82169e-44)
(-6.29905e-06 1.12879e-07 1.60699e-26)
(-6.09567e-06 6.08189e-08 -2.9253e-27)
(-5.91543e-06 1.615e-08 3.61191e-28)
(-5.73787e-06 -2.57028e-08 -2.76372e-27)
(-5.56086e-06 -6.01244e-08 -2.80819e-29)
(-5.40636e-06 -9.16097e-08 2.45615e-26)
(-5.24432e-06 -1.18901e-07 5.24323e-29)
(-5.1002e-06 -1.409e-07 -6.94981e-26)
(-4.96214e-06 -1.62223e-07 7.90415e-26)
(-4.82427e-06 -1.77955e-07 -4.38769e-29)
(-4.70728e-06 -1.92739e-07 1.87869e-25)
(-4.58381e-06 -2.04445e-07 -1.97966e-25)
(-4.48004e-06 -2.13079e-07 -4.19333e-25)
(-4.37787e-06 -2.21575e-07 5.17957e-29)
(-4.28438e-06 -2.25928e-07 4.54835e-25)
(-4.2038e-06 -2.31038e-07 -4.76089e-25)
(-4.12383e-06 -2.32567e-07 4.52159e-29)
(-4.06361e-06 -2.34433e-07 -6.0193e-29)
(-4.00067e-06 -2.339e-07 -6.45764e-29)
(-3.96334e-06 -2.3056e-07 6.37224e-29)
(-3.94903e-06 -2.31908e-07 -6.75767e-25)
(-3.91849e-06 -2.36421e-07 -7.0585e-25)
(-3.89242e-06 -2.39451e-07 1.96513e-29)
(-3.87136e-06 -2.45662e-07 -9.40862e-29)
(-3.83403e-06 -2.53475e-07 1.92536e-28)
(-3.79245e-06 -2.59166e-07 -9.75528e-29)
(-3.75403e-06 -2.63052e-07 -8.36545e-25)
(-3.71769e-06 -2.67138e-07 2.24208e-44)
(-3.67794e-06 -2.70217e-07 -1.76972e-24)
(-3.64408e-06 -2.72304e-07 9.07427e-25)
(-3.61103e-06 -2.74881e-07 -1.14976e-28)
(-3.57711e-06 -2.76198e-07 2.32276e-28)
(-3.55009e-06 -2.77431e-07 9.71688e-25)
(-3.5214e-06 -2.78688e-07 1.22678e-28)
(-3.49642e-06 -2.7901e-07 -1.85084e-28)
(-3.47528e-06 -2.79795e-07 6.23092e-29)
(-3.45314e-06 -2.80014e-07 -1.75555e-41)
(-3.43705e-06 -2.80007e-07 -1.07395e-24)
(-3.42126e-06 -2.8029e-07 -6.75524e-29)
(-3.40809e-06 -2.80026e-07 1.1196e-24)
(-3.39882e-06 -2.80028e-07 -1.13262e-24)
(-3.38965e-06 -2.79865e-07 -7.16007e-29)
(-3.38541e-06 -2.79592e-07 7.11234e-29)
(-3.38196e-06 -2.79534e-07 -4.48416e-44)
(-3.38189e-06 -2.79319e-07 1.22801e-24)
(-3.3842e-06 -2.79272e-07 -1.24e-24)
(-3.38865e-06 -2.79254e-07 2.69049e-43)
(-3.39649e-06 -2.79297e-07 1.28639e-24)
(-3.40611e-06 -2.79501e-07 2.64224e-24)
(-3.41937e-06 -2.79797e-07 2.68286e-24)
(-3.4346e-06 -2.80254e-07 1.3687e-24)
(-3.45346e-06 -2.80937e-07 -1.39957e-24)
(-3.4747e-06 -2.81758e-07 -1.42006e-24)
(-3.49951e-06 -2.82877e-07 -2.9201e-24)
(-3.52767e-06 -2.84203e-07 -1.14391e-40)
(-3.55891e-06 -2.85842e-07 4.70333e-29)
(-3.59528e-06 -2.87835e-07 -4.64978e-29)
(-3.63386e-06 -2.90153e-07 1.58556e-24)
(-3.68014e-06 -2.93051e-07 1.6209e-24)
(-3.72749e-06 -2.96211e-07 -1.33947e-30)
(-3.78652e-06 -3.00326e-07 5.17901e-29)
(-3.8445e-06 -3.0453e-07 1.71782e-24)
(-3.92492e-06 -3.10651e-07 -1.78115e-24)
(-3.99035e-06 -3.1579e-07 -1.85198e-24)
(-4.1167e-06 -3.25884e-07 -3.74397e-24)
(-4.17348e-06 -3.30942e-07 0)
(-4.42139e-06 -3.51107e-07 -1.97924e-24)
(-4.41682e-06 -3.52385e-07 7.59112e-30)
(-5.12292e-06 -4.09756e-07 -2.05988e-24)
(-4.86436e-06 -1.81895e-06 -4.70172e-24)
)
;
    }
    frontAndBack
    {
        type            empty;
    }
}


// ************************************************************************* //
