/*--------------------------------*- C++ -*----------------------------------*\
| =========                 |                                                 |
| \\      /  F ield         | OpenFOAM: The Open Source CFD Toolbox           |
|  \\    /   O peration     | Version:  5.x                                   |
|   \\  /    A nd           | Web:      www.OpenFOAM.org                      |
|    \\/     M anipulation  |                                                 |
\*---------------------------------------------------------------------------*/
FoamFile
{
    version     2.0;
    format      ascii;
    class       volScalarField;
    location    "2500";
    object      yPlus;
}
// * * * * * * * * * * * * * * * * * * * * * * * * * * * * * * * * * * * * * //

dimensions      [0 0 0 0 0 0 0];

internalField   uniform 0;

boundaryField
{
    inlet
    {
        type            calculated;
        value           uniform 0;
    }
    outlet
    {
        type            calculated;
        value           uniform 0;
    }
    walls
    {
        type            calculated;
        value           nonuniform List<scalar> 
204
(
0.0167398
0.0150118
0.0178553
0.0195912
0.0212182
0.0182478
0.017205
0.0173603
0.0160893
0.0155705
0.0146322
0.0139848
0.0132297
0.0125935
0.0119792
0.0113823
0.0108423
0.0103082
0.00979767
0.00933469
0.00885275
0.0084033
0.00797332
0.0075304
0.00711462
0.00670246
0.00628271
0.00588549
0.00547794
0.00507169
0.00468072
0.00427153
0.00386601
0.00346208
0.00303697
0.00260826
0.00215238
0.00164145
0.00102196
0.000640259
0.0012759
0.00162366
0.00186314
0.00202899
0.00214968
0.00223112
0.0022844
0.00231406
0.00232427
0.00231858
0.00229892
0.00226669
0.00223144
0.00219574
0.0021593
0.00212245
0.00208191
0.00204444
0.00200728
0.00196981
0.00193375
0.00189773
0.00186318
0.00182877
0.00179438
0.00176053
0.00172568
0.00169079
0.00165529
0.00161906
0.00158368
0.00154824
0.00151469
0.00148324
0.00145444
0.00143025
0.00140986
0.00139542
0.00138609
0.00138292
0.00138556
0.00139375
0.00140751
0.00142571
0.00144794
0.00147316
0.00149962
0.00152729
0.00155173
0.00157553
0.00158869
0.00159955
0.00158558
0.00157044
0.00149579
0.00143307
0.00119563
0.00100253
0.00076582
0.00124418
0.00277259
0.00404505
0.0151434
0.0111375
0.00977059
0.0051477
0.00229311
0.00631
0.00756624
0.00840752
0.00876836
0.00897634
0.00901623
0.0090083
0.00892924
0.00884191
0.00873234
0.00860894
0.00849371
0.00836534
0.00824622
0.0081299
0.00800354
0.00789591
0.00778232
0.00767076
0.00756928
0.00746022
0.00736295
0.00726609
0.0071655
0.00707867
0.0069868
0.00689929
0.00681894
0.00673284
0.00665907
0.00658351
0.00650889
0.0064451
0.00637563
0.00631731
0.00625973
0.00620309
0.00615805
0.00610812
0.00607167
0.00603429
0.0060042
0.00598144
0.00596021
0.0059526
0.00594358
0.00595567
0.00597918
0.00598402
0.00599266
0.00600289
0.00599852
0.00599125
0.00598695
0.0059837
0.00597755
0.00597638
0.0059752
0.00597343
0.00597731
0.00597937
0.00598483
0.00599323
0.00600075
0.00601363
0.00602652
0.0060419
0.00606068
0.00607957
0.00610304
0.00612719
0.00615458
0.00618421
0.00621593
0.00625094
0.0062877
0.00632804
0.00637036
0.00641626
0.00646458
0.00651641
0.0065716
0.00662987
0.00669316
0.00675872
0.00683168
0.00690581
0.00699096
0.00707531
0.00718039
0.00727184
0.00741853
0.00750235
0.00775587
0.00778595
0.00842288
0.00839115
)
;
    }
    frontAndBack
    {
        type            empty;
    }
}


// ************************************************************************* //
