# Wall shear stress
# Time       	patch        	min          	max          
0.000000e+00	walls	(-5.230925e+00 -1.352106e-01 -1.386945e-18)	(-4.000074e+00 1.195708e+00 1.619689e-18)
5.000000e+01	walls	(-1.374438e+03 -5.813644e+02 -8.294892e-15)	(1.519488e+01 1.083212e+03 7.607722e-15)
1.000000e+02	walls	(-1.447383e+03 -5.335422e+02 -7.466134e-15)	(6.733861e+00 1.181032e+03 6.799159e-15)
1.500000e+02	walls	(-1.487285e+03 -5.094890e+02 -7.048678e-15)	(6.655878e+00 1.235083e+03 6.403908e-15)
2.000000e+02	walls	(-1.497356e+03 -5.038213e+02 -6.923895e-15)	(5.692924e+00 1.248822e+03 6.283884e-15)
2.500000e+02	walls	(-1.501476e+03 -5.015723e+02 -6.880851e-15)	(5.576164e+00 1.254383e+03 6.242984e-15)
3.000000e+02	walls	(-1.502719e+03 -5.008731e+02 -6.866426e-15)	(5.499102e+00 1.256091e+03 6.229163e-15)
3.500000e+02	walls	(-1.503157e+03 -5.006308e+02 -6.861599e-15)	(5.479831e+00 1.256688e+03 6.224528e-15)
3.730000e+02	walls	(-1.503257e+03 -5.005834e+02 -6.860633e-15)	(5.475281e+00 1.256808e+03 6.223641e-15)
