/*--------------------------------*- C++ -*----------------------------------*\
| =========                 |                                                 |
| \\      /  F ield         | OpenFOAM: The Open Source CFD Toolbox           |
|  \\    /   O peration     | Version:  5.x                                   |
|   \\  /    A nd           | Web:      www.OpenFOAM.org                      |
|    \\/     M anipulation  |                                                 |
\*---------------------------------------------------------------------------*/
FoamFile
{
    version     2.0;
    format      ascii;
    class       volScalarField;
    location    "1400";
    object      p;
}
// * * * * * * * * * * * * * * * * * * * * * * * * * * * * * * * * * * * * * //

dimensions      [0 2 -2 0 0 0 0];

internalField   nonuniform List<scalar> 
11040
(
-0.00254913
-99.7353
-337.069
-401.18
-422.365
-435.341
-436.794
-426.497
-407.828
-381.896
-348.213
-296.468
-246.656
-211.178
-186.386
-159.956
-133.112
-107.756
-83.752
-60.5845
-38.1653
-18.7996
-2.61686
12.5282
26.7149
39.9669
52.2798
63.6418
73.9912
83.2283
91.2408
97.9084
103.176
107.11
109.912
111.838
112.628
112.048
111.722
115.211
115.271
36.5754
-59.9116
-212.479
-290.475
-331.384
-361.456
-379.289
-383.471
-376.489
-360.051
-334.366
-291.475
-246.301
-211.468
-186.13
-160.01
-133.474
-108.25
-84.3255
-61.2219
-38.8438
-19.5259
-3.31276
11.862
26.0807
39.3704
51.7283
63.1417
73.5515
82.86
90.9491
97.6972
103.044
107.039
109.877
111.852
112.71
112.113
111.373
113.836
113.374
61.2537
-32.5011
-142.361
-234.016
-288.796
-325.028
-347.62
-356.287
-353.299
-340.638
-319.324
-283.739
-242.966
-208.959
-183.518
-158.391
-132.62
-107.79
-84.1378
-61.2538
-39.0351
-19.7963
-3.62592
11.5181
25.7178
39.0004
51.3634
62.792
73.2284
82.577
90.7191
97.5319
102.945
106.998
109.876
111.889
112.812
112.27
111.387
113.05
112.238
78.6338
-5.13964
-87.3797
-171.035
-229.425
-270.858
-300.451
-317.069
-321.365
-315.172
-300.014
-272.175
-236.924
-204.865
-179.75
-155.735
-130.951
-106.718
-83.4918
-60.9516
-38.9883
-19.9161
-3.84424
11.2329
25.3863
38.64
50.9915
62.4236
72.879
82.2638
90.4595
97.3414
102.831
106.958
109.888
111.925
112.886
112.404
111.474
112.654
112.01
92.3271
20.5649
-43.3258
-114.928
-173.764
-218.796
-253.05
-275.641
-286.31
-286.343
-277.337
-257.133
-228.282
-199.19
-174.821
-151.955
-128.392
-104.992
-82.3593
-60.3059
-38.7266
-19.9194
-4.00991
10.9462
25.0073
38.1939
50.5033
61.9155
72.3741
81.7872
90.0378
97.0011
102.592
106.828
109.845
111.918
112.916
112.523
111.591
112.593
112.453
102.746
42.9567
-8.03472
-67.4288
-121.97
-167.093
-203.665
-230.74
-247.186
-253.451
-250.816
-238.178
-216.309
-191.238
-168.36
-146.853
-124.761
-102.457
-80.6063
-59.1917
-38.1341
-19.6917
-4.02669
10.7353
24.641
37.705
49.9241
61.2762
71.7059
81.1247
89.4189
96.4667
102.179
106.555
109.701
111.846
112.911
112.672
111.828
112.816
113.225
110.635
61.6496
20.2371
-28.3121
-76.0019
-118.361
-154.812
-184.213
-204.947
-216.69
-220.157
-214.756
-200.173
-180.214
-159.877
-140.154
-119.821
-98.9174
-78.0893
-57.4984
-37.1196
-19.1616
-3.83885
10.6455
24.3217
37.1957
49.2629
60.5004
70.8549
80.243
88.5578
95.6831
101.527
106.075
109.397
111.671
112.865
112.872
112.25
113.294
114.241
116.576
76.7333
42.795
3.35786
-36.8075
-74.504
-108.737
-138.274
-161.392
-177.227
-185.909
-186.966
-179.463
-165.369
-148.667
-131.375
-113.183
-94.0563
-74.5701
-55.0443
-35.5465
-18.2274
-3.36622
10.7391
24.0963
36.6977
48.5357
59.5868
69.8014
79.1038
87.3975
94.5765
100.552
105.295
108.845
111.328
112.75
113.119
112.873
114.091
115.463
120.995
88.6137
60.6675
28.6891
-4.39437
-36.6119
-67.1722
-94.9805
-118.509
-136.681
-149.186
-155.485
-154.302
-146.254
-134.053
-119.941
-104.371
-87.4588
-69.712
-51.563
-33.2
-16.7112
-2.45808
11.1389
24.0641
36.2925
47.8083
58.5853
68.5771
77.7177
85.9241
93.1062
99.1843
104.125
107.944
110.725
112.503
113.38
113.68
115.238
116.86
124.208
97.8142
74.7294
48.7933
21.8747
-4.90502
-31.1125
-55.9537
-78.2381
-96.9647
-111.61
-121.575
-125.452
-122.979
-115.659
-105.363
-92.9201
-78.6739
-63.1105
-46.7196
-29.8053
-14.3799
-0.912085
12.0169
24.3715
36.1078
47.1949
57.5999
67.2776
76.1694
84.2068
91.3176
97.4384
102.541
106.634
109.779
112.029
113.551
114.56
116.614
118.413
126.476
104.863
85.7415
64.6766
42.9007
21.0233
-0.807005
-22.1135
-42.0543
-59.8668
-75.0258
-86.9563
-94.3069
-96.3485
-93.6478
-87.4306
-78.4951
-67.3084
-54.355
-40.1355
-25.0361
-10.9546
1.51541
13.5863
25.2043
36.3072
46.8444
56.7715
66.0408
74.5985
82.3866
89.349
95.439
100.64
104.968
108.48
111.243
113.461
115.262
117.893
119.983
128.024
110.234
94.3559
77.2099
59.6264
41.9249
24.087
6.35108
-10.7454
-26.6916
-41.0861
-53.4537
-62.6432
-67.781
-68.8464
-66.4399
-61.0741
-53.1594
-43.1325
-31.4555
-18.5418
-6.11279
5.11575
16.1112
26.7996
37.1025
46.9478
56.2761
65.0346
73.1707
80.6335
87.3779
93.3706
98.6046
103.106
106.933
110.157
112.989
115.513
118.646
121.204
129.045
114.333
101.118
87.1248
72.9182
58.6576
44.2463
29.7754
15.558
1.91318
-10.9159
-22.5932
-32.2266
-39.0087
-42.6431
-43.2877
-41.1243
-36.3811
-29.3715
-20.4622
-10.0292
0.459187
10.1992
19.8928
29.4447
38.7623
47.7536
56.3438
64.4723
72.0859
79.1374
85.5887
91.4146
96.6139
101.216
105.273
108.852
112.132
115.188
118.613
121.653
129.702
117.486
106.469
95.0174
83.518
72.0418
60.4661
48.8036
37.2243
25.9121
14.9908
4.66169
-4.43379
-11.6533
-16.6385
-19.3133
-19.6221
-17.5965
-13.3864
-7.22228
0.611673
8.96692
17.0178
25.2119
33.4367
41.5883
49.559
57.261
64.6265
71.5999
78.1348
84.1961
89.7623
94.8332
99.435
103.607
107.401
110.942
114.303
117.804
121.077
130.116
119.944
110.752
101.356
92.0264
82.7842
73.5072
64.1712
54.863
45.6797
36.6778
27.9542
19.9422
13.1075
7.76114
4.05697
2.16127
2.1744
4.0889
7.81191
13.1759
19.3772
25.6483
32.2252
38.9894
45.834
52.6437
59.3214
65.7936
72.0023
77.9013
83.4555
88.643
93.4592
97.9227
102.057
105.891
109.506
112.952
116.377
119.614
130.397
121.916
114.24
106.513
98.9222
91.4653
84.0299
76.5783
69.1511
61.7961
54.5316
47.395
40.665
34.6596
29.6085
25.6594
22.9949
21.7661
22.0497
23.8545
27.118
31.3517
35.9088
40.8778
46.1491
51.6226
57.1873
62.7462
68.224
73.5612
78.7104
83.6354
88.3119
92.7298
96.8969
100.821
104.512
108.014
111.356
114.599
117.659
130.66
123.583
117.174
110.806
104.615
98.5843
92.6146
86.6665
80.757
74.9073
69.1165
63.3945
57.914
52.8843
48.4621
44.7596
41.9292
40.1167
39.426
39.9179
41.5987
44.222
47.29
50.8068
54.6827
58.8331
63.1615
67.5805
72.0199
76.4228
80.7426
84.9422
88.9942
92.8823
96.605
100.158
103.537
106.765
109.853
112.819
115.625
130.896
124.933
119.525
114.209
109.092
104.145
99.2826
94.469
89.71
85.0146
80.3752
75.7922
71.3744
67.2562
63.541
60.3069
57.6672
55.7393
54.6195
54.3807
55.0597
56.5593
58.5175
60.902
63.6465
66.6855
69.941
73.341
76.8251
80.3432
83.8526
87.3181
90.7114
94.0132
97.2151
100.305
103.273
106.126
108.867
111.495
113.995
131.092
125.99
121.357
116.844
112.539
108.407
104.372
100.404
96.5028
92.6702
88.897
85.1795
81.591
78.2208
75.1366
72.3925
70.0694
68.2551
67.0273
66.4519
66.5724
67.3698
68.583
70.171
72.0883
74.2853
76.7023
79.2824
81.9769
84.7437
87.5459
90.3521
93.136
95.8775
98.5653
101.185
103.721
106.176
108.546
110.823
113
131.274
126.854
122.834
118.95
115.274
111.767
108.365
105.038
101.786
98.6066
95.4912
92.4346
89.4879
86.7131
84.1551
81.8511
79.8589
78.2422
77.0602
76.3665
76.2004
76.5794
77.3124
78.3614
79.6961
81.2798
83.0672
85.0149
87.0846
89.2422
91.4573
93.7031
95.9565
98.1987
100.418
102.598
104.726
106.798
108.81
110.75
112.616
131.451
127.583
124.06
120.68
117.504
114.491
111.584
108.758
106.011
103.339
100.735
98.1916
95.7469
93.4454
91.3172
89.3878
87.6991
86.2972
85.2258
84.5262
84.2304
84.3697
84.8003
85.4912
86.4228
87.5676
88.8915
90.3614
91.9479
93.6241
95.3655
97.15
98.9579
100.773
102.584
104.377
106.138
107.864
109.549
111.182
112.76
131.625
128.212
125.101
122.133
119.362
116.747
114.237
111.811
109.465
107.195
104.994
102.856
100.809
98.8849
97.1058
95.4885
94.0637
92.8648
91.9237
91.2713
90.9323
90.9405
91.1845
91.6402
92.2956
93.1295
94.1157
95.2295
96.4481
97.7506
99.1175
100.531
101.975
103.436
104.903
106.365
107.81
109.235
110.632
111.994
113.316
131.797
128.765
125.997
123.373
120.936
118.647
116.461
114.36
112.338
110.392
108.515
106.702
104.973
103.354
101.859
100.499
99.298
98.2796
97.4672
96.8834
96.5466
96.4881
96.6188
96.9212
97.3879
98.0022
98.7438
99.5938
100.535
101.55
102.625
103.745
104.897
106.069
107.254
108.441
109.621
110.79
111.942
113.07
114.17
131.967
129.256
126.78
124.445
122.287
120.27
118.352
116.518
114.762
113.081
111.467
109.918
108.449
107.076
105.813
104.666
103.653
102.79
102.096
101.586
101.273
101.185
101.248
101.451
101.789
102.248
102.812
103.467
104.199
104.995
105.844
106.734
107.654
108.595
109.552
110.514
111.475
112.431
113.378
114.308
115.219
132.132
129.696
127.47
125.38
123.459
121.67
119.977
118.366
116.831
115.369
113.973
112.641
111.383
110.214
109.141
108.171
107.314
106.584
105.993
105.554
105.274
105.178
105.203
105.341
105.589
105.938
106.373
106.883
107.457
108.087
108.761
109.471
110.209
110.967
111.74
112.521
113.303
114.085
114.862
115.629
116.381
132.292
130.093
128.082
126.203
124.483
122.888
121.385
119.962
118.613
117.335
116.121
114.968
113.886
112.885
111.97
111.145
110.419
109.801
109.3
108.925
108.682
108.588
108.591
108.687
108.874
109.143
109.483
109.885
110.341
110.842
111.382
111.952
112.546
113.159
113.786
114.421
115.06
115.7
116.338
116.969
117.591
132.447
130.452
128.628
126.931
125.384
123.955
122.615
121.352
120.161
119.037
117.976
116.975
116.039
115.178
114.394
113.691
113.075
112.551
112.127
111.809
111.6
111.514
111.507
111.575
111.719
111.93
112.2
112.521
112.886
113.289
113.724
114.185
114.666
115.164
115.675
116.193
116.716
117.241
117.766
118.288
118.801
132.595
130.779
129.117
127.578
126.181
124.896
123.695
122.569
121.513
120.521
119.59
118.716
117.904
117.16
116.487
115.886
115.361
114.917
114.559
114.29
114.112
114.037
114.025
114.075
114.189
114.358
114.574
114.833
115.129
115.456
115.809
116.184
116.577
116.984
117.402
117.827
118.257
118.69
119.123
119.554
119.979
132.736
131.076
129.557
128.156
126.889
125.728
124.649
123.641
122.7
121.822
121.001
120.236
119.529
118.884
118.304
117.789
117.342
116.965
116.662
116.435
116.286
116.222
116.209
116.248
116.339
116.476
116.653
116.864
117.106
117.373
117.663
117.971
118.293
118.628
118.971
119.322
119.676
120.034
120.393
120.751
121.104
132.869
131.346
129.953
128.673
127.52
126.467
125.493
124.588
123.747
122.966
122.241
121.569
120.952
120.392
119.891
119.448
119.066
118.746
118.49
118.3
118.175
118.122
118.11
118.141
118.216
118.33
118.475
118.65
118.849
119.07
119.309
119.563
119.83
120.106
120.391
120.681
120.975
121.272
121.57
121.868
122.162
132.996
131.592
130.31
129.136
128.083
127.125
126.243
125.428
124.674
123.978
123.335
122.743
122.203
121.715
121.282
120.901
120.575
120.303
120.087
119.927
119.824
119.781
119.771
119.797
119.86
119.955
120.077
120.222
120.388
120.572
120.771
120.982
121.203
121.433
121.67
121.911
122.156
122.403
122.652
122.901
123.146
133.114
131.817
130.632
129.552
128.586
127.712
126.91
126.173
125.496
124.874
124.303
123.78
123.306
122.881
122.506
122.178
121.899
121.668
121.486
121.353
121.268
121.233
121.226
121.249
121.303
121.384
121.486
121.609
121.748
121.902
122.068
122.245
122.43
122.622
122.82
123.022
123.226
123.433
123.641
123.85
124.056
133.225
132.021
130.922
129.925
129.037
128.236
127.505
126.837
126.226
125.669
125.161
124.699
124.282
123.911
123.585
123.303
123.065
122.869
122.716
122.605
122.536
122.509
122.505
122.526
122.573
122.642
122.73
122.833
122.951
123.081
123.221
123.37
123.525
123.686
123.852
124.022
124.194
124.367
124.542
124.718
124.89
133.328
132.206
131.184
130.259
129.439
128.703
128.035
127.428
126.876
126.376
125.922
125.513
125.147
124.823
124.54
124.298
124.094
123.928
123.8
123.709
123.652
123.633
123.632
123.651
123.693
123.753
123.828
123.917
124.017
124.127
124.246
124.371
124.503
124.639
124.778
124.921
125.066
125.212
125.359
125.507
125.653
133.424
132.373
131.419
130.558
129.798
129.119
128.507
127.953
127.454
127.004
126.599
126.236
125.914
125.631
125.386
125.177
125.004
124.864
124.757
124.682
124.637
124.624
124.625
124.644
124.681
124.734
124.799
124.876
124.961
125.056
125.156
125.263
125.374
125.489
125.608
125.728
125.85
125.974
126.098
126.223
126.346
133.512
132.525
131.629
130.825
130.118
129.49
128.926
128.42
127.967
127.561
127.199
126.878
126.594
126.347
126.135
125.956
125.809
125.691
125.603
125.542
125.508
125.499
125.503
125.521
125.555
125.602
125.659
125.726
125.8
125.88
125.967
126.058
126.152
126.25
126.35
126.452
126.556
126.66
126.765
126.871
126.975
133.592
132.66
131.817
131.063
130.402
129.818
129.298
128.834
128.422
128.056
127.732
127.446
127.197
126.982
126.799
126.646
126.521
126.424
126.351
126.303
126.277
126.273
126.279
126.297
126.328
126.37
126.42
126.478
126.542
126.612
126.686
126.764
126.845
126.928
127.013
127.1
127.188
127.276
127.365
127.455
127.542
133.665
132.781
131.983
131.272
130.653
130.108
129.626
129.2
128.824
128.493
128.203
127.95
127.731
127.544
127.387
127.257
127.152
127.071
127.013
126.975
126.957
126.957
126.965
126.983
127.012
127.051
127.096
127.147
127.203
127.263
127.327
127.394
127.463
127.534
127.607
127.681
127.755
127.83
127.906
127.982
128.056
133.731
132.887
132.128
131.456
130.872
130.362
129.913
129.52
129.177
128.878
128.618
128.394
128.202
128.04
127.905
127.796
127.709
127.643
127.596
127.568
127.556
127.56
127.57
127.588
127.616
127.65
127.691
127.736
127.785
127.838
127.893
127.951
128.01
128.071
128.133
128.196
128.259
128.323
128.387
128.452
128.514
133.79
132.98
132.255
131.615
131.061
130.581
130.163
129.8
129.485
129.214
128.982
128.783
128.616
128.476
128.362
128.27
128.199
128.147
128.112
128.092
128.086
128.094
128.106
128.125
128.151
128.184
128.221
128.261
128.305
128.351
128.4
128.45
128.501
128.553
128.606
128.66
128.714
128.768
128.822
128.877
128.93
133.841
133.06
132.362
131.75
131.223
130.769
130.377
130.04
129.751
129.505
129.297
129.122
128.977
128.857
128.761
128.686
128.629
128.588
128.562
128.55
128.549
128.559
128.573
128.592
128.617
128.648
128.681
128.718
128.756
128.797
128.84
128.883
128.928
128.973
129.018
129.064
129.11
129.157
129.203
129.249
129.294
133.886
133.127
132.452
131.862
131.357
130.926
130.557
130.243
129.977
129.754
129.568
129.414
129.288
129.187
129.108
129.048
129.004
128.975
128.959
128.954
128.959
128.973
128.989
129.01
129.036
129.065
129.097
129.131
129.166
129.203
129.24
129.279
129.317
129.356
129.396
129.435
129.474
129.513
129.552
129.591
129.629
133.923
133.181
132.523
131.951
131.465
131.052
130.703
130.41
130.165
129.962
129.796
129.661
129.554
129.47
129.405
129.358
129.326
129.306
129.297
129.297
129.306
129.322
129.34
129.361
129.386
129.414
129.443
129.474
129.506
129.539
129.573
129.606
129.641
129.675
129.709
129.743
129.777
129.811
129.844
129.877
129.909
133.954
133.222
132.577
132.019
131.546
131.149
130.817
130.541
130.315
130.131
129.983
129.866
129.775
129.707
129.657
129.624
129.604
129.596
129.597
129.605
129.621
129.641
129.663
129.687
129.714
129.743
129.772
129.802
129.833
129.863
129.894
129.925
129.955
129.985
130.015
130.044
130.073
130.101
130.129
130.157
130.183
133.978
133.252
132.615
132.067
131.605
131.22
130.901
130.64
130.429
130.261
130.13
130.029
129.954
129.9
129.863
129.84
129.828
129.826
129.832
129.845
129.862
129.884
129.907
129.932
129.958
129.986
130.014
130.042
130.071
130.099
130.127
130.155
130.182
130.209
130.235
130.261
130.287
130.311
130.336
130.36
130.383
133.995
133.27
132.636
132.094
131.64
131.264
130.956
130.707
130.51
130.356
130.239
130.153
130.093
130.054
130.032
130.025
130.029
130.041
130.06
130.083
130.11
130.139
130.168
130.198
130.228
130.258
130.288
130.317
130.345
130.373
130.4
130.426
130.451
130.475
130.498
130.521
130.543
130.564
130.584
130.604
130.622
134.003
133.267
132.628
132.085
131.633
131.264
130.966
130.73
130.547
130.408
130.305
130.232
130.184
130.155
130.142
130.14
130.148
130.163
130.185
130.211
130.24
130.27
130.3
130.331
130.361
130.391
130.42
130.449
130.476
130.503
130.528
130.553
130.576
130.598
130.62
130.641
130.66
130.679
130.697
130.714
130.731
134
133.246
132.595
132.044
131.59
131.223
130.931
130.705
130.534
130.409
130.323
130.27
130.243
130.237
130.248
130.272
130.305
130.343
130.385
130.427
130.468
130.509
130.548
130.585
130.621
130.656
130.688
130.719
130.748
130.776
130.801
130.826
130.848
130.869
130.889
130.908
130.926
130.942
130.958
130.972
130.987
125.736
133.171
139.072
142.364
144.22
145.368
145.928
146.066
145.94
145.642
145.239
144.776
144.283
143.783
143.288
142.807
142.345
141.907
141.492
141.102
140.737
140.395
140.075
139.777
139.499
139.241
139
138.776
138.567
138.373
138.192
138.023
137.864
137.716
137.578
137.447
137.324
137.209
137.1
136.998
136.901
136.81
136.724
136.644
136.568
136.496
136.428
136.364
136.304
136.246
136.192
136.14
136.09
136.043
135.998
135.954
135.913
135.873
135.834
135.796
135.76
135.724
135.69
135.656
135.623
135.591
135.56
135.53
135.5
135.474
135.446
135.429
135.394
135.406
124.726
132.722
138.888
142.414
144.367
145.519
146.054
146.162
146.007
145.685
145.261
144.781
144.276
143.765
143.262
142.776
142.31
141.869
141.452
141.061
140.695
140.353
140.034
139.737
139.46
139.202
138.963
138.74
138.532
138.339
138.159
137.991
137.835
137.688
137.55
137.421
137.299
137.185
137.077
136.975
136.88
136.79
136.705
136.625
136.55
136.479
136.412
136.349
136.289
136.232
136.178
136.126
136.078
136.031
135.986
135.943
135.902
135.862
135.824
135.786
135.75
135.715
135.681
135.648
135.615
135.583
135.552
135.523
135.493
135.468
135.439
135.422
135.388
135.4
123.975
131.532
138.35
142.329
144.463
145.663
146.192
146.274
146.087
145.734
145.286
144.787
144.265
143.743
143.231
142.738
142.268
141.824
141.405
141.013
140.647
140.305
139.986
139.69
139.414
139.158
138.92
138.698
138.492
138.301
138.122
137.956
137.801
137.656
137.519
137.392
137.271
137.158
137.051
136.951
136.856
136.767
136.683
136.604
136.53
136.46
136.394
136.331
136.272
136.216
136.163
136.112
136.064
136.017
135.973
135.931
135.89
135.851
135.813
135.776
135.74
135.706
135.672
135.639
135.606
135.575
135.544
135.515
135.486
135.461
135.432
135.416
135.382
135.394
123.577
130.509
137.649
142.059
144.457
145.752
146.303
146.38
146.17
145.788
145.313
144.791
144.251
143.715
143.193
142.693
142.218
141.77
141.35
140.956
140.59
140.249
139.931
139.636
139.361
139.107
138.87
138.651
138.447
138.257
138.081
137.916
137.763
137.619
137.485
137.358
137.24
137.128
137.023
136.923
136.83
136.742
136.66
136.582
136.508
136.439
136.374
136.313
136.254
136.199
136.146
136.096
136.049
136.003
135.959
135.918
135.877
135.839
135.801
135.765
135.73
135.695
135.662
135.629
135.597
135.566
135.536
135.507
135.478
135.453
135.425
135.409
135.375
135.387
123.694
130.121
137.073
141.656
144.314
145.754
146.356
146.441
146.223
145.827
145.332
144.789
144.23
143.679
143.146
142.637
142.157
141.705
141.283
140.889
140.523
140.182
139.866
139.572
139.3
139.047
138.813
138.596
138.394
138.207
138.033
137.871
137.72
137.578
137.446
137.321
137.204
137.094
136.99
136.893
136.801
136.715
136.633
136.557
136.485
136.417
136.352
136.292
136.234
136.18
136.128
136.079
136.032
135.987
135.944
135.903
135.864
135.825
135.789
135.753
135.718
135.684
135.651
135.619
135.588
135.557
135.527
135.498
135.47
135.445
135.418
135.401
135.368
135.38
124.07
130.227
136.788
141.308
144.081
145.643
146.326
146.442
146.223
145.817
145.313
144.76
144.191
143.628
143.085
142.568
142.081
141.627
141.203
140.808
140.443
140.103
139.789
139.498
139.228
138.978
138.747
138.532
138.334
138.149
137.978
137.819
137.67
137.531
137.401
137.279
137.164
137.056
136.954
136.859
136.768
136.684
136.604
136.529
136.458
136.391
136.328
136.269
136.213
136.159
136.109
136.06
136.014
135.97
135.928
135.888
135.849
135.811
135.775
135.74
135.706
135.672
135.64
135.608
135.577
135.547
135.518
135.489
135.461
135.437
135.409
135.393
135.361
135.373
124.568
130.591
136.741
141.137
143.873
145.455
146.197
146.364
146.162
145.75
145.236
144.677
144.105
143.542
142.996
142.476
141.987
141.53
141.105
140.711
140.347
140.009
139.698
139.409
139.143
138.897
138.669
138.458
138.263
138.082
137.914
137.758
137.613
137.477
137.35
137.231
137.119
137.013
136.913
136.82
136.732
136.649
136.571
136.497
136.428
136.363
136.302
136.244
136.189
136.136
136.087
136.04
135.995
135.952
135.91
135.871
135.833
135.796
135.76
135.726
135.692
135.66
135.628
135.597
135.566
135.536
135.507
135.479
135.452
135.427
135.401
135.385
135.353
135.365
125.247
131.017
136.746
141.053
143.734
145.264
146.006
146.202
146.028
145.628
145.11
144.54
143.96
143.395
142.855
142.341
141.858
141.405
140.983
140.591
140.23
139.896
139.588
139.304
139.042
138.801
138.577
138.371
138.181
138.004
137.841
137.689
137.547
137.415
137.292
137.176
137.066
136.964
136.867
136.776
136.69
136.61
136.534
136.462
136.395
136.332
136.272
136.215
136.162
136.111
136.063
136.017
135.973
135.931
135.891
135.852
135.815
135.779
135.744
135.711
135.678
135.646
135.615
135.584
135.554
135.525
135.496
135.469
135.442
135.418
135.392
135.376
135.344
135.357
126.219
131.449
136.607
140.85
143.546
145.062
145.791
145.987
145.825
145.438
144.93
144.359
143.771
143.198
142.654
142.144
141.67
141.231
140.821
140.439
140.085
139.758
139.456
139.178
138.922
138.686
138.469
138.269
138.084
137.913
137.755
137.608
137.471
137.343
137.224
137.112
137.007
136.907
136.814
136.726
136.643
136.565
136.492
136.423
136.358
136.297
136.239
136.184
136.132
136.083
136.036
135.992
135.949
135.909
135.87
135.832
135.796
135.761
135.727
135.694
135.662
135.631
135.6
135.57
135.541
135.513
135.485
135.458
135.431
135.408
135.382
135.366
135.335
135.348
127.371
131.815
136.242
140.356
143.105
144.671
145.462
145.709
145.573
145.194
144.688
144.123
143.539
142.965
142.417
141.902
141.428
140.994
140.597
140.232
139.895
139.583
139.293
139.025
138.777
138.55
138.34
138.147
137.969
137.805
137.653
137.513
137.382
137.26
137.146
137.038
136.937
136.842
136.753
136.668
136.589
136.514
136.444
136.378
136.316
136.257
136.201
136.149
136.099
136.052
136.007
135.964
135.923
135.884
135.846
135.81
135.775
135.741
135.708
135.676
135.645
135.615
135.585
135.556
135.527
135.499
135.472
135.446
135.42
135.397
135.371
135.356
135.326
135.338
128.185
131.858
135.5
139.362
142.198
143.882
144.799
145.182
145.162
144.863
144.397
143.848
143.268
142.693
142.144
141.629
141.154
140.72
140.325
139.968
139.645
139.35
139.08
138.83
138.598
138.383
138.185
138.001
137.833
137.678
137.534
137.401
137.278
137.162
137.054
136.953
136.857
136.767
136.682
136.602
136.527
136.456
136.389
136.327
136.268
136.212
136.159
136.109
136.062
136.017
135.974
135.933
135.894
135.856
135.82
135.785
135.751
135.719
135.687
135.657
135.626
135.597
135.568
135.54
135.512
135.485
135.458
135.433
135.407
135.385
135.36
135.345
135.316
135.328
128.098
131.229
134.223
137.672
140.504
142.359
143.494
144.119
144.328
144.223
143.908
143.465
142.95
142.406
141.863
141.344
140.863
140.423
140.025
139.669
139.351
139.066
138.809
138.578
138.367
138.172
137.992
137.824
137.669
137.525
137.392
137.269
137.154
137.048
136.947
136.853
136.764
136.68
136.601
136.526
136.456
136.389
136.327
136.268
136.213
136.16
136.111
136.064
136.019
135.977
135.937
135.898
135.861
135.825
135.791
135.758
135.726
135.695
135.664
135.635
135.606
135.578
135.55
135.523
135.496
135.47
135.444
135.419
135.394
135.372
135.348
135.334
135.305
135.318
127.068
129.837
132.402
135.35
137.983
139.92
141.275
142.192
142.729
142.939
142.9
142.685
142.353
141.948
141.503
141.043
140.588
140.151
139.744
139.374
139.045
138.754
138.499
138.277
138.08
137.905
137.746
137.6
137.466
137.339
137.222
137.111
137.008
136.912
136.821
136.736
136.655
136.578
136.506
136.437
136.373
136.312
136.255
136.201
136.15
136.102
136.056
136.013
135.972
135.932
135.895
135.859
135.824
135.791
135.758
135.727
135.697
135.668
135.639
135.611
135.584
135.557
135.53
135.504
135.478
135.453
135.428
135.404
135.38
135.359
135.335
135.322
135.293
135.306
125.302
127.777
130.075
132.597
134.958
136.877
138.366
139.505
140.324
140.851
141.136
141.23
141.178
141.014
140.771
140.474
140.145
139.802
139.456
139.116
138.791
138.488
138.215
137.975
137.769
137.594
137.446
137.319
137.207
137.104
137.009
136.919
136.833
136.75
136.672
136.597
136.526
136.459
136.395
136.334
136.277
136.222
136.171
136.123
136.077
136.034
135.993
135.954
135.917
135.881
135.847
135.814
135.782
135.752
135.722
135.693
135.665
135.638
135.611
135.585
135.559
135.534
135.509
135.484
135.459
135.435
135.411
135.388
135.365
135.344
135.322
135.309
135.281
135.295
123.045
125.274
127.386
129.606
131.722
133.563
135.109
136.388
137.412
138.19
138.751
139.128
139.354
139.459
139.467
139.4
139.274
139.103
138.901
138.679
138.445
138.207
137.971
137.742
137.526
137.33
137.16
137.019
136.904
136.812
136.737
136.672
136.611
136.552
136.493
136.434
136.375
136.318
136.264
136.212
136.164
136.117
136.074
136.033
135.994
135.956
135.921
135.887
135.854
135.823
135.793
135.764
135.735
135.708
135.681
135.655
135.63
135.605
135.58
135.556
135.532
135.508
135.485
135.461
135.438
135.415
135.393
135.371
135.348
135.329
135.307
135.294
135.268
135.282
120.555
122.58
124.529
126.523
128.439
130.18
131.727
133.084
134.245
135.212
135.994
136.609
137.078
137.421
137.661
137.814
137.899
137.928
137.911
137.857
137.773
137.664
137.536
137.397
137.25
137.1
136.95
136.805
136.67
136.553
136.458
136.385
136.33
136.289
136.254
136.222
136.187
136.15
136.112
136.072
136.033
135.996
135.961
135.928
135.896
135.866
135.837
135.809
135.782
135.756
135.731
135.706
135.682
135.658
135.635
135.612
135.59
135.567
135.545
135.524
135.502
135.48
135.459
135.437
135.415
135.394
135.372
135.352
135.331
135.312
135.291
135.279
135.254
135.269
118.104
119.938
121.724
123.524
125.266
126.897
128.404
129.78
131.016
132.106
133.051
133.855
134.528
135.081
135.528
135.883
136.158
136.367
136.521
136.63
136.701
136.74
136.753
136.741
136.709
136.66
136.598
136.526
136.448
136.364
136.278
136.193
136.115
136.05
136
135.965
135.94
135.923
135.907
135.891
135.872
135.851
135.828
135.806
135.783
135.762
135.74
135.72
135.699
135.679
135.66
135.64
135.621
135.601
135.582
135.563
135.544
135.525
135.506
135.487
135.468
135.449
135.429
135.41
135.39
135.37
135.351
135.331
135.311
135.294
135.274
135.263
135.239
135.255
116.116
117.756
119.37
120.983
122.557
124.064
125.492
126.834
128.08
129.222
130.255
131.179
131.994
132.706
133.32
133.844
134.287
134.657
134.965
135.218
135.424
135.592
135.726
135.832
135.913
135.971
136.007
136.024
136.024
136.01
135.984
135.951
135.911
135.868
135.822
135.778
135.74
135.712
135.694
135.684
135.679
135.676
135.671
135.664
135.655
135.644
135.632
135.619
135.607
135.594
135.58
135.567
135.553
135.539
135.524
135.509
135.494
135.479
135.464
135.448
135.431
135.415
135.398
135.38
135.363
135.345
135.327
135.309
135.291
135.274
135.256
135.246
135.224
135.24
114.806
116.247
117.678
119.107
120.513
121.881
123.203
124.471
125.676
126.809
127.866
128.841
129.733
130.54
131.266
131.912
132.482
132.983
133.418
133.796
134.121
134.399
134.637
134.839
135.011
135.154
135.273
135.371
135.447
135.505
135.547
135.573
135.588
135.593
135.59
135.582
135.568
135.551
135.533
135.517
135.507
135.503
135.504
135.508
135.512
135.515
135.514
135.512
135.507
135.502
135.495
135.488
135.48
135.471
135.462
135.452
135.441
135.43
135.418
135.405
135.392
135.378
135.364
135.349
135.334
135.318
135.302
135.285
135.269
135.254
135.237
135.228
135.207
135.225
114.146
115.387
116.632
117.877
119.113
120.334
121.53
122.695
123.822
124.903
125.933
126.906
127.819
128.668
129.451
130.169
130.823
131.414
131.945
132.419
132.84
133.213
133.542
133.83
134.082
134.302
134.493
134.658
134.8
134.922
135.025
135.111
135.182
135.238
135.281
135.313
135.337
135.353
135.362
135.366
135.365
135.362
135.359
135.36
135.366
135.375
135.385
135.394
135.4
135.404
135.405
135.405
135.403
135.4
135.396
135.39
135.384
135.377
135.369
135.36
135.35
135.339
135.328
135.316
135.303
135.289
135.275
135.26
135.245
135.232
135.216
135.209
135.189
135.209
114.045
115.093
116.154
117.22
118.289
119.356
120.414
121.459
122.485
123.484
124.453
125.385
126.275
127.121
127.919
128.666
129.362
130.006
130.598
131.139
131.631
132.077
132.479
132.839
133.162
133.449
133.704
133.93
134.129
134.305
134.459
134.595
134.714
134.818
134.908
134.984
135.048
135.1
135.141
135.174
135.199
135.217
135.229
135.237
135.242
135.248
135.257
135.269
135.283
135.296
135.307
135.315
135.32
135.324
135.325
135.325
135.324
135.321
135.317
135.312
135.306
135.298
135.29
135.28
135.27
135.258
135.246
135.234
135.221
135.209
135.195
135.189
135.17
135.193
114.387
115.257
116.143
117.041
117.95
118.865
119.784
120.7
121.611
122.511
123.395
124.259
125.098
125.908
126.685
127.427
128.13
128.793
129.414
129.993
130.53
131.025
131.48
131.896
132.275
132.618
132.928
133.208
133.458
133.683
133.883
134.062
134.222
134.365
134.493
134.607
134.708
134.796
134.873
134.938
134.992
135.036
135.071
135.099
135.121
135.137
135.149
135.159
135.171
135.185
135.201
135.217
135.231
135.242
135.25
135.256
135.26
135.262
135.262
135.261
135.258
135.254
135.249
135.242
135.235
135.226
135.216
135.206
135.194
135.184
135.171
135.167
135.149
135.176
115.057
115.769
116.498
117.242
118.002
118.775
119.557
120.346
121.138
121.93
122.718
123.497
124.264
125.015
125.747
126.456
127.139
127.793
128.416
129.007
129.563
130.085
130.573
131.026
131.444
131.83
132.184
132.507
132.802
133.069
133.312
133.531
133.728
133.906
134.067
134.211
134.342
134.46
134.566
134.661
134.744
134.817
134.878
134.93
134.973
135.007
135.035
135.057
135.075
135.089
135.103
135.119
135.135
135.153
135.169
135.182
135.192
135.199
135.204
135.207
135.208
135.208
135.206
135.203
135.198
135.192