/*--------------------------------*- C++ -*----------------------------------*\
| =========                 |                                                 |
| \\      /  F ield         | OpenFOAM: The Open Source CFD Toolbox           |
|  \\    /   O peration     | Version:  5.x                                   |
|   \\  /    A nd           | Web:      www.OpenFOAM.org                      |
|    \\/     M anipulation  |                                                 |
\*---------------------------------------------------------------------------*/
FoamFile
{
    version     2.0;
    format      ascii;
    class       volScalarField;
    location    "300";
    object      nut;
}
// * * * * * * * * * * * * * * * * * * * * * * * * * * * * * * * * * * * * * //

dimensions      [0 2 -1 0 0 0 0];

internalField   nonuniform List<scalar> 
41860
(
4.88757e-06
7.99077e-06
1.74512e-05
2.08019e-05
1.64203e-05
1.28688e-05
8.65824e-06
5.85002e-06
4.05187e-06
2.86888e-06
2.04644e-06
1.59631e-06
1.1827e-06
1.05274e-06
8.30186e-07
7.76513e-07
6.75184e-07
6.10955e-07
5.72775e-07
9.67021e-07
1.0705e-06
6.06979e-07
1.35311e-06
6.0439e-07
1.44479e-06
5.99895e-07
5.92144e-07
1.32529e-06
5.80308e-07
5.764e-07
5.56819e-07
1.73503e-06
1.78321e-06
5.41494e-07
1.74102e-06
5.33911e-07
1.71465e-06
1.72343e-06
1.09851e-06
5.54048e-07
1.27965e-06
1.1805e-06
5.03475e-07
5.04564e-07
1.26719e-06
4.98776e-07
5.01818e-07
5.01024e-07
5.00829e-07
4.95705e-07
4.94552e-07
4.94537e-07
4.94269e-07
5.03949e-07
5.05604e-07
1.11192e-06
1.04914e-06
4.97655e-07
1.02095e-06
4.98802e-07
5.1967e-07
5.00733e-07
1.73992e-06
5.01167e-07
1.72514e-06
5.29517e-07
9.90262e-07
9.68904e-07
5.30928e-07
5.07153e-07
9.89212e-07
5.27989e-07
5.26111e-07
1.5133e-06
1.04193e-06
5.0768e-07
1.08555e-06
1.04488e-06
1.03543e-06
4.43355e-07
1.05594e-06
1.73325e-07
0.000177641
0.000214664
0.000282188
0.000301227
0.000277315
0.000255357
0.000224066
0.000197305
0.000175083
0.000156146
0.000139093
0.000127343
0.000113921
0.000108911
9.90121e-05
9.62858e-05
9.0219e-05
8.55896e-05
8.24046e-05
7.60241e-05
7.44683e-05
7.03387e-05
6.81665e-05
6.6449e-05
6.40322e-05
6.3898e-05
6.1959e-05
6.11298e-05
6.04551e-05
6.02054e-05
5.82398e-05
5.85676e-05
5.85101e-05
5.7484e-05
5.87292e-05
5.79064e-05
5.96703e-05
6.01806e-05
6.15481e-05
6.32565e-05
6.43696e-05
6.61186e-05
5.35214e-05
5.35538e-05
5.33293e-05
5.24159e-05
5.34263e-05
5.35062e-05
5.36215e-05
5.24904e-05
5.25142e-05
5.26701e-05
5.28156e-05
5.46364e-05
5.50824e-05
5.46134e-05
5.49759e-05
5.41605e-05
5.56764e-05
5.47691e-05
5.74639e-05
5.55026e-05
5.73272e-05
5.62051e-05
5.79995e-05
5.92387e-05
5.84949e-05
5.89087e-05
5.99531e-05
5.86801e-05
5.94589e-05
6.04752e-05
6.08068e-05
5.9752e-05
5.94966e-05
5.99866e-05
5.93074e-05
5.86352e-05
5.79364e-05
5.63791e-05
5.83546e-05
3.66003e-07
0.000230025
0.000271016
0.000359595
0.000386084
0.000356473
0.00032868
0.000289085
0.000255445
0.000227839
0.000204759
0.00018483
0.000171176
0.00015828
0.000153086
0.00014881
0.000147688
0.000147169
0.000146988
0.000146651
0.000146528
0.000145712
0.000147641
0.000145067
0.000146539
0.00014405
0.000144964
0.000144551
0.000141385
0.000142456
0.000141239
0.000140273
0.000137121
0.000135984
0.000136997
0.000134033
0.000135076
0.000132447
0.000131817
0.000131833
0.000132871
0.000131424
0.000131675
0.000130581
0.000130251
0.000128489
0.000129599
0.000129333
0.000129079
0.00012886
0.000128632
0.000128481
0.000128379
0.000128309
0.00012837
0.000128395
0.000127129
0.000127283
0.000128489
0.00012757
0.00012877
0.000129173
0.000129164
0.000127824
0.000129527
0.000128178
0.00013005
0.000128997
0.000129191
0.000130316
0.000130445
0.000129275
0.000130372
0.000130425
0.000128517
0.000128505
0.000129304
0.000127606
0.00012669
0.000125747
0.000124738
0.000125831
7.65861e-07
0.000319877
0.000364908
0.000434184
0.000475442
0.000467328
0.000436891
0.000407563
0.000382339
0.000359435
0.000338354
0.00031999
0.000298373
0.000285497
0.000270641
0.000271224
0.000266939
0.000266769
0.000265252
0.000262855
0.0002617
0.000258464
0.00025825
0.000254193
0.000253218
0.000249632
0.000248147
0.000246255
0.000242014
0.000241223
0.000238617
0.000236537
0.000232884
0.000230625
0.000229899
0.000226534
0.000226007
0.000223033
0.000221556
0.000220217
0.000220068
0.00021835
0.000217803
0.000216697
0.000215665
0.000213908
0.000214358
0.000213517
0.000212886
0.000212323
0.000212028
0.000211623
0.000211268
0.000210976
0.00021051
0.000210305
0.000209306
0.000209256
0.000210282
0.00020926
0.000210342
0.000210223
0.000210565
0.000209657
0.000210777
0.000209847
0.000210681
0.000209982
0.000210075
0.000210672
0.000211071
0.000209881
0.000210396
0.000210317
0.000209054
0.000208508
0.000208612
0.000207119
0.000205802
0.000204489
0.000202414
0.00020406
1.58215e-06
0.00044634
0.000541843
0.000641888
0.000702313
0.000727276
0.000687827
0.000660362
0.0006303
0.00059728
0.000563539
0.000532185
0.000494923
0.0004698
0.000439094
0.000432008
0.00042071
0.000416345
0.000410746
0.00040458
0.000400516
0.000393973
0.000390364
0.000384222
0.000379944
0.000374813
0.000370257
0.000366366
0.00036084
0.000357517
0.000353143
0.000349327
0.000344928
0.000341195
0.000338341
0.000334435
0.000331983
0.000328603
0.000326099
0.000323715
0.00032216
0.000320116
0.000318858
0.000316548
0.00031452
0.000312727
0.000312022
0.000310732
0.00030964
0.000308644
0.000307886
0.000307112
0.00030643
0.000305836
0.000305185
0.000304744
0.000304002
0.000303745
0.000304046
0.00030341
0.000303814
0.000303677
0.000303824
0.000303466
0.000303859
0.000303468
0.000303671
0.000303297
0.000303286
0.000303348
0.000303564
0.000302729
0.000302655
0.000302411
0.000301435
0.000300559
0.000299924
0.000298539
0.000296746
0.000294959
0.0002916
0.000293652
3.20388e-06
0.000613358
0.000781276
0.000990897
0.00108685
0.00112616
0.0010638
0.00101603
0.000963962
0.000908335
0.000852584
0.000800538
0.0007431
0.000700667
0.000652317
0.000632768
0.000611776
0.000600776
0.000589246
0.000577874
0.000569252
0.000558325
0.000550514
0.000540994
0.000532997
0.000525123
0.000517258
0.000510694
0.00050301
0.000496955
0.000490361
0.000484425
0.000478459
0.000472899
0.000468004
0.000462866
0.000458619
0.000454225
0.000450482
0.000447013
0.000444151
0.000441416
0.000439431
0.000435283
0.000431874
0.000429583
0.000427841
0.000425954
0.000424275
0.000422733
0.000421416
0.000420183
0.000419088
0.000418116
0.000417202
0.000416466
0.000415705
0.000415208
0.000414953
0.000414462
0.000414359
0.000414178
0.000414108
0.000413944
0.00041393
0.000413727
0.000413619
0.000413355
0.000413234
0.000412921
0.00041295
0.000412243
0.000411742
0.000411317
0.000410281
0.000409118
0.000407902
0.000406355
0.000404019
0.00040166
0.000397204
0.000398954
6.29362e-06
0.00084717
0.0010768
0.00143564
0.0015784
0.00161648
0.00152455
0.00144704
0.00136654
0.00128356
0.00120185
0.00112544
0.00104502
0.000982137
0.000914284
0.000878969
0.000845569
0.000825598
0.000806297
0.000788206
0.00077352
0.000757024
0.000744093
0.000729991
0.000717637
0.000705943
0.000694312
0.000684374
0.000673667
0.000664556
0.000655211
0.000646698
0.000638485
0.00063069
0.000623599
0.000616669
0.000610522
0.000604625
0.000599389
0.000594609
0.000590423
0.000586676
0.00058389
0.000577457
0.000572211
0.000568987
0.000566237
0.000563571
0.000561155
0.000558932
0.000556964
0.000555162
0.000553552
0.000552112
0.000550821
0.000549713
0.000548705
0.000547911
0.000547238
0.000546657
0.000546192
0.000545891
0.000545609
0.000545435
0.000545172
0.000544955
0.000544655
0.000544337
0.000544089
0.00054351
0.000543365
0.000542594
0.000541767
0.00054114
0.000539867
0.000538374
0.000536663
0.000534774
0.000531836
0.000528813
0.000523474
0.000524007
1.18275e-05
0.0011858
0.00143522
0.0019626
0.00215945
0.00218958
0.00206431
0.0019528
0.00184082
0.00172789
0.00161768
0.00151427
0.00140844
0.00132245
0.00123295
0.00117895
0.00113019
0.00109867
0.00106949
0.00104291
0.00102053
0.000997072
0.000977834
0.000957903
0.000940259
0.000923691
0.000907536
0.000893423
0.000878853
0.000866112
0.000853393
0.000841736
0.000830647
0.000820126
0.000810469
0.000801238
0.000792891
0.000785058
0.000778014
0.000771619
0.000765937
0.000760893
0.000757181
0.000748063
0.000740459
0.000735892
0.000732005
0.000728356
0.000725027
0.000721963
0.000719213
0.000716709
0.000714466
0.000712447
0.000710657
0.000709086
0.000707677
0.000706511
0.000705446
0.000704623
0.000703835
0.000703342
0.000702829
0.000702543
0.000702075
0.000701745
0.000701273
0.000700811
0.000700411
0.000699598
0.000699274
0.000698338
0.000697208
0.000696349
0.000694762
0.000692884
0.000690688
0.000688356
0.000684772
0.000680984
0.000675012
0.000673138
2.09366e-05
0.00163571
0.00187303
0.00257703
0.00283414
0.00285244
0.00269051
0.00254207
0.00239642
0.00225152
0.00211065
0.00197788
0.00184424
0.00173258
0.00161901
0.00154345
0.00147614
0.00143007
0.00138852
0.0013513
0.00131932
0.00128717
0.00126013
0.00123294
0.00120878
0.00118615
0.00116445
0.0011452
0.00112583
0.00110867
0.00109181
0.00107631
0.00106166
0.0010478
0.00103505
0.00102297
0.00101197
0.00100174
0.000992487
0.000984105
0.000976635
0.000969982
0.000965161
0.000953006
0.00094244
0.000936078
0.000930807
0.000925931
0.000921474
0.000917374
0.000913671
0.000910303
0.000907277
0.000904545
0.000902122
0.000899973
0.000898041
0.00089641
0.000894904
0.000893728
0.000892586
0.000891827
0.000891045
0.00089058
0.000889897
0.000889397
0.000888734
0.000888074
0.000887494
0.000886439
0.000885914
0.000884761
0.000883313
0.000882189
0.000880247
0.000877939
0.000875231
0.000872397
0.000868139
0.000863478
0.000857231
0.000851359
3.44648e-05
0.0022189
0.00241808
0.00329176
0.00361476
0.003618
0.00341588
0.00322786
0.00304662
0.00286793
0.00269439
0.00252996
0.00236605
0.00222609
0.00208584
0.00198579
0.00189648
0.00183242
0.00177551
0.00172499
0.0016811
0.00163814
0.00160143
0.00156524
0.00153301
0.00150289
0.00147433
0.00144875
0.00142345
0.00140086
0.00137891
0.00135869
0.00133966
0.00132172
0.00130517
0.00128959
0.00127536
0.00126216
0.00125021
0.00123937
0.00122972
0.00122107
0.00121489
0.00119939
0.00118519
0.00117648
0.00116947
0.00116306
0.00115721
0.00115183
0.00114696
0.00114253
0.00113854
0.00113492
0.00113171
0.00112884
0.00112625
0.00112404
0.00112201
0.00112037
0.0011188
0.00111769
0.00111658
0.00111587
0.00111495
0.00111423
0.00111334
0.00111244
0.00111165
0.00111033
0.00110957
0.00110817
0.00110637
0.00110495
0.00110263
0.00109986
0.0010966
0.00109322
0.00108829
0.00108263
0.00107665
0.00106468
5.25098e-05
0.00296743
0.00310755
0.00412438
0.00451815
0.00450286
0.0042566
0.00402635
0.00380771
0.00359355
0.00338541
0.0031871
0.00299042
0.00281949
0.00264972
0.00252216
0.00240724
0.00232132
0.00224549
0.00217844
0.00211981
0.0020634
0.00201469
0.00196735
0.00192508
0.0018857
0.00184862
0.00181523
0.0017826
0.00175331
0.00172508
0.00169905
0.00167462
0.00165163
0.00163044
0.00161053
0.00159232
0.00157546
0.00156017
0.00154631
0.00153395
0.00152283
0.00151495
0.00149584
0.00147725
0.0014655
0.00145628
0.00144796
0.00144038
0.00143342
0.00142711
0.00142136
0.00141617
0.00141147
0.00140727
0.00140351
0.00140011
0.00139717
0.00139448
0.00139226
0.00139017
0.0013886
0.00138709
0.00138606
0.00138484
0.00138385
0.0013827
0.00138152
0.00138048
0.00137886
0.00137783
0.00137617
0.001374
0.00137224
0.00136953
0.00136627
0.00136244
0.00135849
0.00135291
0.00134612
0.00134119
0.00132047
7.44604e-05
0.00392202
0.00397607
0.0050967
0.00556503
0.00552687
0.00523197
0.00495677
0.00469906
0.00444794
0.00420345
0.00396913
0.0037372
0.0035326
0.00333033
0.0031721
0.00302788
0.00291586
0.00281702
0.00272954
0.00265272
0.00257961
0.00251599
0.00245482
0.00240004
0.00234916
0.0023015
0.00225841
0.0022167
0.00217909
0.00214309
0.00210986
0.00207875
0.00204954
0.00202259
0.00199732
0.0019742
0.0019528
0.00193339
0.00191575
0.00190002
0.00188581
0.00187575
0.00185281
0.00182903
0.00181339
0.00180133
0.00179063
0.0017809
0.00177198
0.00176387
0.00175649
0.00174982
0.00174376
0.00173833
0.00173347
0.00172906
0.00172522
0.00172171
0.00171876
0.00171601
0.00171386
0.00171184
0.0017104
0.00170883
0.0017075
0.00170604
0.00170454
0.00170322
0.00170127
0.00169992
0.00169798
0.00169541
0.00169329
0.00169018
0.00168643
0.00168202
0.00167748
0.00167133
0.00166325
0.00166044
0.0016278
9.95642e-05
0.00513288
0.00505985
0.00623472
0.00678022
0.00671334
0.00636464
0.00604171
0.00574348
0.00545422
0.00517189
0.00489967
0.00463012
0.00438918
0.0041513
0.00395915
0.00378181
0.00363923
0.0035128
0.00340035
0.00330119
0.0032074
0.00312528
0.00304693
0.00297656
0.00291138
0.00285049
0.00279535
0.00274233
0.00269437
0.00264871
0.00260653
0.00256712
0.00253017
0.00249607
0.00246415
0.00243491
0.00240785
0.0023833
0.00236095
0.002341
0.0023229
0.00231004
0.00228303
0.00225325
0.00223267
0.00221697
0.00220325
0.00219083
0.00217947
0.00216914
0.00215974
0.00215121
0.00214347
0.00213652
0.00213027
0.00212461
0.00211963
0.0021151
0.00211123
0.00210767
0.00210477
0.0021021
0.00210014
0.00209813
0.0020964
0.00209457
0.0020927
0.00209104
0.00208874
0.00208703
0.00208479
0.00208183
0.00207931
0.00207582
0.00207161
0.00206664
0.00206151
0.0020549
0.00204536
0.0020461
0.00199799
0.000127448
0.00666118
0.00640661
0.00756881
0.00819289
0.00808945
0.00768095
0.00730752
0.00696762
0.0066395
0.00631832
0.00600666
0.00569734
0.00541753
0.0051409
0.00491146
0.00469713
0.00451938
0.0043604
0.00421783
0.00409145
0.00397225
0.00386722
0.0037676
0.00367776
0.00359477
0.00351736
0.00344717
0.00338004
0.00331912
0.00326141
0.00320805
0.00315829
0.00311168
0.00306867
0.00302844
0.00299156
0.00295743
0.00292643
0.00289815
0.00287289
0.00284987
0.00283333
0.00280201
0.0027654
0.00273866
0.0027183
0.00270075
0.00268496
0.00267055
0.00265744
0.0026455
0.00263467
0.00262483
0.00261596
0.00260799
0.00260076
0.00259436
0.00258855
0.00258351
0.00257893
0.00257509
0.0025716
0.00256896
0.00256642
0.00256418
0.00256192
0.00255962
0.00255757
0.0025549
0.00255277
0.00255024
0.00254689
0.00254397
0.00254013
0.00253549
0.00253001
0.00252434
0.00251746
0.00250628
0.0025123
0.00244526
0.000158219
0.00858085
0.0080777
0.00913497
0.00983391
0.0096856
0.00921082
0.00878436
0.00840231
0.00803538
0.00767502
0.00732294
0.00697211
0.00665117
0.00633268
0.00606253
0.00580723
0.00558967
0.00539295
0.00521463
0.00505552
0.00490539
0.00477217
0.00464629
0.00453224
0.00442707
0.004329
0.00423999
0.00415522
0.00407807
0.00400527
0.00393791
0.00387518
0.00381647
0.00376228
0.00371164
0.00366518
0.00362214
0.00358303
0.00354727
0.00351529
0.00348603
0.00346465
0.00342865
0.00338442
0.00335013
0.00332381
0.00330138
0.00328134
0.0032631
0.00324651
0.00323141
0.00321768
0.00320521
0.00319394
0.00318379
0.0031746
0.0031664
0.003159
0.00315249
0.00314661
0.00314158
0.00313705
0.00313353
0.0031303
0.00312745
0.00312466
0.00312187
0.00311937
0.00311631
0.00311373
0.0031109
0.00310719
0.00310387
0.00309973
0.00309474
0.00308887
0.0030827
0.00307583
0.00306279
0.0030761
0.00298753
0.000192288
0.0109807
0.0101495
0.0109775
0.0117226
0.0115246
0.0109809
0.0105021
0.0100805
0.00967704
0.00927869
0.00888633
0.008493
0.00812916
0.00776596
0.00745173
0.00715147
0.00688941
0.00664968
0.00642971
0.00623186
0.00604462
0.0058771
0.00571908
0.00557511
0.00544243
0.0053186
0.00520605
0.00509924
0.00500174
0.00491001
0.00482505
0.00474603
0.00467213
0.00460388
0.00454014
0.00448161
0.00442735
0.00437798
0.00433275
0.00429222
0.00425502
0.00422722
0.00418599
0.00413337
0.00408999
0.00405613
0.0040275
0.00400207
0.00397902
0.00395804
0.00393895
0.0039216
0.00390581
0.00389153
0.00387864
0.00386697
0.00385651
0.00384708
0.00383872
0.00383121
0.00382467
0.00381882
0.00381414
0.00381004
0.00380642
0.00380299
0.00379961
0.00379659
0.00379311
0.00379004
0.00378691
0.00378289
0.0037792
0.00377484
0.00376962
0.0037635
0.00375696
0.00375041
0.00373533
0.003758
0.00364762
0.000230136
0.0139666
0.0127157
0.0131524
0.0138561
0.0135883
0.0129823
0.0124658
0.012022
0.0115949
0.011166
0.0107371
0.0103024
0.00989534
0.00948538
0.00912412
0.00877514
0.00846412
0.00817625
0.00790872
0.0076659
0.00743493
0.00722634
0.00702948
0.00684894
0.00668239
0.00652667
0.00638484
0.00625056
0.00612756
0.00601213
0.00590508
0.00580558
0.00571256
0.00562661
0.00554636
0.00547259
0.00540415
0.00534176
0.00528451
0.00523306
0.00518573
0.00514943
0.00510206
0.00504032
0.00498623
0.00494292
0.00490641
0.00487415
0.00484501
0.0048185
0.0047944
0.00477246
0.0047525
0.00473441
0.00471805
0.00470326
0.00468993
0.00467795
0.00466723
0.00465765
0.0046492
0.00464165
0.00463549
0.00463024
0.00462563
0.0046214
0.00461732
0.00461369
0.00460975
0.00460616
0.00460271
0.00459845
0.00459445
0.00458996
0.00458466
0.00457849
0.00457172
0.0045659
0.00454861
0.00458245
0.00445434
0.000272139
0.0176648
0.0158893
0.0157297
0.0162275
0.0158323
0.0151637
0.014631
0.0141997
0.0137856
0.0133538
0.0129055
0.012439
0.0119933
0.0115376
0.0111282
0.010728
0.0103644
0.0100239
0.00970341
0.00940967
0.0091284
0.00887167
0.00862879
0.0084043
0.00819664
0.00800189
0.00782396
0.00765571
0.00750101
0.00735602
0.00722132
0.00709613
0.00697912
0.00687089
0.00676983
0.00667681
0.00659045
0.00651155
0.00643901
0.00637362
0.00631336
0.00626581
0.00621086
0.00613922
0.00607275
0.00601784
0.00597136
0.00593044
0.0058936
0.00586011
0.00582967
0.00580194
0.0057767
0.0057538
0.00573306
0.00571429
0.00569734
0.0056821
0.0056684
0.00565618
0.0056453
0.00563558
0.00562748
0.00562071
0.00561482
0.00560957
0.00560463
0.00560026
0.0055958
0.00559162
0.00558785
0.00558341
0.00557915
0.00557466
0.00556945
0.00556349
0.00555667
0.00555204
0.00553241
0.00557853
0.0054436
0.000318433
0.0222256
0.0198052
0.0187936
0.0188415
0.0182252
0.0174793
0.0169439
0.0165556
0.0161975
0.0158099
0.0153833
0.0149149
0.0144501
0.01396
0.0135078
0.0130583
0.0126415
0.0122463
0.0118691
0.0115198
0.0111826
0.0108712
0.0105752
0.0102993
0.0100428
0.0098012
0.0095795
0.00936983
0.00917617
0.00899466
0.00882568
0.00866851
0.00852153
0.0083854
0.00825825
0.00814101
0.00803203
0.00793225
0.00784031
0.00775714
0.00768039
0.0076181
0.00755337
0.00747085
0.00739036
0.00732144
0.00726252
0.00721069
0.00716411
0.00712182
0.00708336
0.00704833
0.00701641
0.00698741
0.0069611
0.00693729
0.00691573
0.00689636
0.00687885
0.00686327
0.0068493
0.0068368
0.00682617
0.00681739
0.0068098
0.00680321
0.00679715
0.00679184
0.00678676
0.00678193
0.00677777
0.0067732
0.00676876
0.00676437
0.00675944
0.00675395
0.00674728
0.00674427
0.00672227
0.0067806
0.00665657
0.000497278
0.0278294
0.024621
0.0224367
0.0217147
0.0207514
0.0198999
0.0193661
0.0190395
0.0187693
0.018469
0.0181133
0.0176919
0.0172498
0.0167568
0.016283
0.0157979
0.0153356
0.0148898
0.014457
0.0140513
0.0136555
0.0132851
0.0129306
0.0125966
0.0122842
0.0119881
0.0117148
0.0114557
0.0112152
0.0109894
0.0107786
0.0105822
0.0103983
0.0102276
0.010068
0.00992051
0.00978325
0.0096572
0.00954081
0.0094351
0.00933744
0.009256
0.00917836
0.00908358
0.00898743
0.00890202
0.00882783
0.00876235
0.00870356
0.00865019
0.00860164
0.0085574
0.00851704
0.00848034
0.00844697
0.00841677
0.00838934
0.0083647
0.00834237
0.00832249
0.00830459
0.00828852
0.00827462
0.00826313
0.00825328
0.00824488
0.00823734
0.00823081
0.00822489
0.00821927
0.00821463
0.00820991
0.00820533
0.00820111
0.00819658
0.0081918
0.00818544
0.00818441
0.00816008
0.00822923
0.00812865
0.000578752
0.0346897
0.0305147
0.0267431
0.0248672
0.0234028
0.0224051
0.0218706
0.0216157
0.0214531
0.0212697
0.0210242
0.0206969
0.0203276
0.01988
0.0194255
0.0189376
0.0184542
0.0179753
0.0174988
0.0170445
0.0165943
0.0161661
0.0157521
0.015357
0.0149841
0.0146276
0.014296
0.0139804
0.0136855
0.0134077
0.0131472
0.0129037
0.0126752
0.0124625
0.0122634
0.0120788
0.0119066
0.011748
0.0116012
0.0114673
0.0113433
0.0112375
0.0111427
0.0110336
0.0109202
0.0108158
0.0107233
0.010641
0.0105671
0.0104999
0.0104387
0.0103829
0.010332
0.0102856
0.0102433
0.0102051
0.0101702
0.0101389
0.0101104
0.0100851
0.0100622
0.0100416
0.0100234
0.0100083
0.00999543
0.00998456
0.00997501
0.0099668
0.00995972
0.00995304
0.0099477
0.00994271
0.00993792
0.00993386
0.00992976
0.0099258
0.00991978
0.00992088
0.00989424
0.00997198
0.00988666
0.0042178
0.0428919
0.0376603
0.0317447
0.0283069
0.026169
0.0249735
0.0244322
0.024255
0.0242119
0.0241637
0.0240544
0.0238562
0.0236023
0.0232472
0.0228607
0.022416
0.021953
0.0214756
0.0209837
0.0205033
0.0200158
0.0195418
0.0190764
0.0186249
0.0181931
0.0177754
0.0173829
0.0170068
0.0166521
0.0163163
0.0159995
0.0157019
0.0154216
0.0151597
0.0149136
0.0146847
0.0144706
0.0142726
0.0140887
0.0139201
0.0137639
0.0136275
0.0135103
0.0133842
0.0132516
0.0131259
0.0130121
0.0129097
0.0128173
0.0127332
0.0126565
0.0125864
0.0125223
0.0124639
0.0124105
0.0123621
0.012318
0.0122782
0.0122421
0.0122098
0.0121806
0.0121542
0.0121306
0.0121108
0.0120938
0.0120796
0.0120672
0.0120567
0.0120479
0.0120397
0.0120333
0.0120277
0.0120225
0.0120184
0.0120145
0.0120112
0.0120054
0.0120084
0.0119793
0.0120627
0.0119816
0.00752254
0.051971
0.0459924
0.0373573
0.0319988
0.0290233
0.0275743
0.0270195
0.0269245
0.0270095
0.0271086
0.0271524
0.0271078
0.0269995
0.0267737
0.0264972
0.0261411
0.0257451
0.0253139
0.0248481
0.0243788
0.0238862
0.0233935
0.0228987
0.022408
0.0219302
0.0214601
0.0210124
0.0205786
0.0201648
0.0197695
0.0193936
0.019038
0.018701
0.0183843
0.0180854
0.017806
0.0175437
0.0172997
0.0170723
0.0168626
0.0166678
0.0164947
0.0163491
0.0162022
0.0160485
0.0158997
0.0157619
0.0156363
0.015522
0.0154177
0.0153223
0.015235
0.0151549
0.0150818
0.0150148
0.014954
0.0148983
0.0148482
0.0148024
0.0147615
0.0147244
0.0146909
0.0146605
0.0146346
0.0146121
0.0145933
0.0145771
0.0145632
0.0145519
0.0145415
0.0145334
0.0145266
0.0145204
0.0145158
0.0145117
0.0145086
0.0145022
0.0145063
0.0144741
0.0145603
0.0144648
0.0111201
0.0614301
0.0549828
0.0433149
0.0358092
0.0318972
0.0301565
0.0295893
0.0295819
0.029802
0.0300563
0.0302649
0.0303924
0.0304522
0.0303828
0.030248
0.0300173
0.0297301
0.0293878
0.0289923
0.0285776
0.0281216
0.0276487
0.0271595
0.0266607
0.0261633
0.0256629
0.0251779
0.0247003
0.0242379
0.0237906
0.0233603
0.0229493
0.0225564
0.0221841
0.0218305
0.0214975
0.0211832
0.020889
0.0206134
0.0203575
0.020119
0.0199036
0.019724
0.0195525
0.0193757
0.0192023
0.0190388
0.0188877
0.0187488
0.0186213
0.0185041
0.0183967
0.0182978
0.0182073
0.0181241
0.0180484
0.017979
0.0179163
0.0178589
0.0178076
0.0177609
0.0177186
0.0176798
0.0176462
0.0176168
0.0175919
0.0175704
0.0175521
0.0175371
0.0175234
0.0175126
0.0175038
0.0174957
0.0174896
0.0174843
0.0174804
0.0174723
0.017476
0.0174393
0.0175249
0.017396
0.015107
0.0709316
0.064072
0.0490678
0.0393934
0.0346323
0.0326318
0.0320828
0.0321732
0.0325342
0.0329469
0.0333269
0.033642
0.0338877
0.0339957
0.0340279
0.0339523
0.0338086
0.033591
0.0333056
0.0329868
0.0326087
0.0321971
0.0317546
0.0312872
0.0308066
0.0303097
0.0298175
0.0293224
0.0288338
0.0283535
0.0278844
0.0274305
0.0269913
0.0265707
0.0261674
0.0257843
0.0254197
0.0250759
0.0247514
0.0244479
0.0241633
0.023903
0.0236856
0.0234865
0.0232851
0.0230869
0.0228975
0.02272
0.0225551
0.0224026
0.0222617
0.0221319
0.022012
0.0219019
0.0218004
0.0217077
0.0216224
0.0215453
0.0214745
0.0214109
0.021353
0.0213005
0.0212516
0.0212088
0.0211708
0.0211383
0.0211101
0.0210857
0.0210657
0.0210474
0.0210326
0.0210204
0.0210091
0.0210002
0.0209922
0.0209858
0.0209743
0.0209752
0.0209317
0.0210129
0.0208381
0.0194739
0.0801768
0.0725749
0.0546269
0.0426248
0.0372091
0.0350423
0.0345235
0.0346842
0.0351457
0.0357098
0.03626
0.0367745
0.0372179
0.0375189
0.0377389
0.0378442
0.037875
0.0378127
0.037673
0.0374871
0.0372241
0.0369123
0.0365568
0.0361615
0.0357372
0.0352828
0.0348208
0.034343
0.0338605
0.0333764
0.032895
0.0324212
0.031956
0.0315044
0.031066
0.0306448
0.0302399
0.0298543
0.0294872
0.0291405
0.0288131
0.0285101
0.0282553
0.0280281
0.0278025
0.0275811
0.0273677
0.0271655
0.0269756
0.0267986
0.0266337
0.0264812
0.0263395
0.026209
0.026088
0.0259773
0.025875
0.0257821
0.0256967
0.0256197
0.0255496
0.0254857
0.0254258
0.0253726
0.0253246
0.0252831
0.0252466
0.0252148
0.0251882
0.0251638
0.0251436
0.0251265
0.0251105
0.025097
0.0250846
0.0250736
0.0250563
0.0250513
0.0249981
0.0250703
0.0248469
0.0241739
0.0888154
0.0799818
0.0610915
0.046893
0.0402896
0.0378752
0.0373035
0.0374387
0.037899
0.0385075
0.039138
0.0397672
0.040346
0.0408417
0.0412636
0.0415714
0.0418049
0.0419232
0.0419638
0.0419456
0.0418311
0.0416549
0.0414249
0.0411403
0.0408106
0.0404386
0.0400461
0.0396235
0.0391841
0.0387317
0.0382715
0.0378091
0.0373467
0.0368904
0.0364407
0.0360028
0.0355765
0.0351656
0.0347702
0.0343929
0.0340333
0.0336963
0.0334105
0.0331592
0.0329131
0.0326727
0.0324403
0.0322182
0.0320076
0.0318096
0.0316237
0.0314507
0.031289
0.0311395
0.0310001
0.0308721
0.0307534
0.0306452
0.0305453
0.030455
0.0303726
0.0302972
0.0302261
0.0301622
0.0301039
0.0300526
0.0300071
0.0299668
0.0299327
0.029901
0.029874
0.0298507
0.0298284
0.0298088
0.02979
0.0297724
0.0297468
0.0297329
0.0296669
0.0297249
0.0294606
0.029176
0.096405
0.0864303
0.0685989
0.053639
0.0455955
0.0423958
0.0413068
0.0411146
0.0413449
0.0418006
0.0423521
0.0429486
0.0435427
0.0441044
0.0446283
0.0450573
0.0454599
0.0457689
0.0460248
0.0462058
0.0462674
0.0462608
0.0461954
0.0460578
0.0458591
0.0456098
0.0453262
0.0449973
0.0446395
0.0442571
0.0438552
0.04344
0.0430147
0.0425863
0.042156
0.04173
0.0413087
0.0408971
0.0404957
0.0401078
0.0397342
0.0393797
0.0390759
0.0388102
0.0385518
0.0383005
0.0380572
0.0378234
0.0376
0.0373883
0.037188
0.0370003
0.0368238
0.0366597
0.036506
0.0363642
0.036232
0.0361112
0.0359993
0.0358977
0.0358047
0.0357196
0.0356388
0.0355655
0.0354977
0.0354375
0.0353833
0.0353347
0.035293
0.0352538
0.0352197
0.0351896
0.0351603
0.0351335
0.0351072
0.0350814
0.0350459
0.0350206
0.03494
0.0349783
0.0346887
0.0345251
0.102483
0.0927603
0.0770046
0.0626146
0.0538175
0.0494398
0.047296
0.0463624
0.0460619
0.0461212
0.0463888
0.0467606
0.0472087
0.0476738
0.0481608
0.0485962
0.0490368
0.0494234
0.0497848
0.0500993
0.0503444
0.0505393
0.0506771
0.050716
0.0506817
0.0505974
0.0504613
0.0502638
0.0500274
0.0497549
0.0494507
0.049121
0.0487707
0.0484069
0.0480314
0.0476509
0.047267
0.046885
0.0465064
0.046135
0.0457724
0.0454236
0.0451211
0.0448562
0.044599
0.044349
0.0441067
0.043873
0.0436482
0.0434338
0.0432293
0.0430365
0.0428539
0.0426833
0.0425226
0.0423737
0.0422343
0.0421064
0.0419875
0.0418793
0.04178
0.0416891
0.0416022
0.0415229
0.0414488
0.0413823
0.0413219
0.0412672
0.0412196
0.0411745
0.0411345
0.0410985
0.0410629
0.0410295
0.0409961
0.0409621
0.0409169
0.0408796
0.0407851
0.0407989
0.0405036
0.0403007
0.107052
0.0991242
0.0859257
0.0728397
0.0636605
0.0580124
0.0547008
0.0528979
0.0519601
0.0515227
0.0513906
0.0514172
0.0515977
0.0518375
0.0521569
0.0524767
0.0528253
0.0531677
0.0535123
0.0538468
0.0541514
0.0544366
0.0546825
0.0548941
0.0550504
0.0551755
0.055216
0.0551826
0.0551076
0.0549855
0.054818
0.0546138
0.0543789
0.0541194
0.0538373
0.0535403
0.0532305
0.0529136
0.0525916
0.0522691
0.0519485
0.0516347
0.0513586
0.0511148
0.0508772
0.0506455
0.05042
0.0502016
0.0499902
0.0497874
0.0495925
0.0494077
0.0492314
0.0490659
0.048909
0.0487632
0.048626
0.0484999
0.0483822
0.0482751
0.0481766
0.0480863
0.0479998
0.0479204
0.0478458
0.0477784
0.0477167
0.0476603
0.0476111
0.0475637
0.0475214
0.0474829
0.0474442
0.047407
0.0473692
0.0473296
0.0472775
0.0472303
0.0471265
0.0471136
0.0468334
0.0465286
0.111556
0.105414
0.0948516
0.0831425
0.0730986
0.0659574
0.0618918
0.0595638
0.0582196
0.057424
0.0569412
0.0566502
0.0565636
0.0565585
0.0566569
0.0567878
0.0569644
0.0571736
0.0574049
0.0576595
0.057915
0.0581808
0.0584354
0.0586905
0.058926
0.05915
0.0593448
0.0594948
0.0596191
0.0596787
0.0596792
0.0596372
0.059557
0.0594406
0.0592913
0.0591175
0.0589211
0.0587079
0.0584804
0.0582436
0.0580007
0.0577563
0.0575366
0.0573392
0.0571444
0.0569524
0.0567638
0.0565797
0.0564
0.0562265
0.0560583
0.0558978
0.0557436
0.0555982
0.0554596
0.0553304
0.0552083
0.055096
0.0549911
0.0548957
0.0548081
0.0547282
0.0546512
0.0545807
0.0545141
0.054454
0.0543988
0.0543482
0.0543043
0.0542616
0.0542234
0.0541884
0.0541526
0.0541176
0.0540812
0.0540418
0.0539889
0.0539376
0.0538332
0.0537963
0.0535505
0.0531447
0.116355
0.111652
0.103299
0.0932262
0.0836989
0.0759422
0.0701138
0.0663711
0.064311
0.0630969
0.0623654
0.061916
0.0616951
0.0615294
0.0614334
0.0613748
0.0613767
0.0614289
0.0615065
0.0616231
0.0617569
0.0619203
0.0620989
0.0622995
0.0625128
0.0627365
0.0629653
0.0631832
0.0633981
0.0635918
0.063763
0.0639089
0.0640108
0.0640632
0.0640777
0.0640618
0.0640144
0.063941
0.0638449
0.0637314
0.0636034
0.0634654
0.0633351
0.0632124
0.063087
0.0629597
0.0628315
0.0627042
0.0625777
0.0624541
0.0623328
0.062216
0.0621029
0.0619957
0.0618929
0.0617972
0.0617064
0.0616234
0.0615459
0.0614762
0.0614128
0.0613558
0.0613007
0.061251
0.061204
0.0611623
0.0611245
0.0610902
0.0610616
0.0610335
0.0610091
0.060987
0.0609634
0.0609399
0.0609141
0.0608844
0.060841
0.0607956
0.0607036
0.0606525
0.0604573
0.0599899
0.120481
0.117201
0.110884
0.102879
0.0947653
0.0875132
0.081392
0.0765405
0.0728259
0.0701596
0.0685712
0.067611
0.0669988
0.066524
0.0662163
0.0660144
0.0659194
0.0658475
0.0657756
0.0657381
0.065719
0.0657361
0.0657851
0.0658688
0.0659854
0.066127
0.0662942
0.0664758
0.0666762
0.0668853
0.0671031
0.0673224
0.0675379
0.0677395
0.0679259
0.0680819
0.0681977
0.0682835
0.0683437
0.068381
0.0683975
0.0683973
0.0683859
0.0683643
0.0683335
0.0682953
0.0682514
0.0682039
0.0681531
0.0681013
0.0680482
0.0679962
0.0679446
0.0678958
0.0678484
0.067805
0.067764
0.0677279
0.0676951
0.0676676
0.0676442
0.0676253
0.067607
0.0675925
0.0675793
0.0675699
0.067563
0.0675585
0.0675581
0.0675575
0.0675595
0.0675628
0.0675641
0.0675647
0.0675625
0.0675554
0.0675357
0.067511
0.0674483
0.0674011
0.06727
0.0668023
0.123931
0.121724
0.117309
0.111496
0.105013
0.0985842
0.0928514
0.0880207
0.08403
0.0807569
0.0781456
0.07593
0.0741469
0.0727145
0.0717987
0.0712127
0.0708213
0.0705263
0.0702615