/*--------------------------------*- C++ -*----------------------------------*\
| =========                 |                                                 |
| \\      /  F ield         | OpenFOAM: The Open Source CFD Toolbox           |
|  \\    /   O peration     | Version:  5.x                                   |
|   \\  /    A nd           | Web:      www.OpenFOAM.org                      |
|    \\/     M anipulation  |                                                 |
\*---------------------------------------------------------------------------*/
FoamFile
{
    version     2.0;
    format      ascii;
    class       volScalarField;
    location    "300";
    object      nut;
}
// * * * * * * * * * * * * * * * * * * * * * * * * * * * * * * * * * * * * * //

dimensions      [0 2 -1 0 0 0 0];

internalField   nonuniform List<scalar> 
11040
(
0.00312052
0.00376297
0.00408772
0.00417163
0.00406625
0.00386666
0.00365108
0.00347453
0.00331514
0.00313949
0.00290392
0.00267043
0.00249352
0.00236819
0.0022493
0.0021316
0.00201494
0.00190307
0.00179596
0.00169159
0.00158777
0.00149543
0.00141301
0.0013309
0.00124788
0.00116286
0.00107494
0.000988747
0.000961713
0.000986255
0.000859972
0.00062903
0.000437217
0.000396286
0.000356901
0.000325512
0.000359433
0.000612325
0.000756817
0.000765486
0.00076105
0.00791121
0.00848095
0.00775017
0.00699794
0.00624508
0.00558927
0.00510279
0.00503913
0.00505243
0.00500558
0.00487804
0.00470301
0.00455793
0.00440731
0.00422218
0.00402984
0.00384962
0.00368667
0.00353962
0.00340587
0.00328383
0.00318234
0.00309487
0.00301338
0.00293753
0.0028659
0.00279727
0.00273406
0.00269926
0.00268894
0.00262455
0.00251386
0.00235596
0.00219931
0.00199106
0.00176118
0.00167949
0.00183001
0.00223206
0.00285838
0.00328988
0.0161134
0.0169814
0.0159631
0.0146826
0.0132586
0.0118385
0.010529
0.00936942
0.00837824
0.00752633
0.00673341
0.00615684
0.00603838
0.00599268
0.00592667
0.00584669
0.00575412
0.00565525
0.00555745
0.00546503
0.00537905
0.00530996
0.00524831
0.0051866
0.00512477
0.00506283
0.00500031
0.00493801
0.0048818
0.00483191
0.00476939
0.00469323
0.00460444
0.00452036
0.00440939
0.00419861
0.00408071
0.00435406
0.00486007
0.00548122
0.00628944
0.0254712
0.0264283
0.0253413
0.0236954
0.0217635
0.0197643
0.0178269
0.0159901
0.0142865
0.0127085
0.0111626
0.00982347
0.00884099
0.00810311
0.0077908
0.00765184
0.00755496
0.00748142
0.00742357
0.00737658
0.00733726
0.00731075
0.00728789
0.00726296
0.00723424
0.00720116
0.00716294
0.00711925
0.00707115
0.00701907
0.0069597
0.00689529
0.00683289
0.006788
0.0067561
0.00665525
0.00655407
0.00682413
0.00751142
0.00859486
0.00963332
0.0356319
0.0365645
0.0355083
0.0336639
0.0313859
0.0289127
0.0264078
0.0239112
0.021531
0.0192839
0.0170609
0.0150603
0.0134599
0.0121952
0.011145
0.0102721
0.00978278
0.00954281
0.00940376
0.00931909
0.00927111
0.00925231
0.00924589
0.00924292
0.00923962
0.00923381
0.00922331
0.00920619
0.00918118
0.00914755
0.00910516
0.00905789
0.00901588
0.00899792
0.00902123
0.0090301
0.00900647
0.00926913
0.0100992
0.0116061
0.0133304
0.0462087
0.0470655
0.0460982
0.0442158
0.0417716
0.0389348
0.0359116
0.0328622
0.0298997
0.0270477
0.0241857
0.0215303
0.0193083
0.0175138
0.0159701
0.0146237
0.0135034
0.0125452
0.0120021
0.0116941
0.0115096
0.0114049
0.0113427
0.0113017
0.0112765
0.011262
0.0112529
0.0112445
0.0112333
0.0112164
0.011193
0.0111658
0.0111443
0.0111477
0.0112054
0.0113027
0.0113929
0.0116691
0.0125152
0.0141734
0.0169376
0.0568806
0.0576177
0.0567651
0.0549706
0.0524991
0.0495347
0.0462862
0.0429057
0.0395244
0.0361837
0.0327667
0.0295042
0.0266716
0.0243006
0.0222147
0.0203626
0.0187223
0.0172586
0.0159914
0.0150417
0.014499
0.0141616
0.0139224
0.0137459
0.0136195
0.0135253
0.0134536
0.0133976
0.013352
0.0133127
0.0132775
0.0132474
0.0132292
0.0132385
0.0133048
0.0134473
0.0136401
0.0139589
0.0147275
0.0162578
0.0191464
0.0672926
0.0679164
0.0671929
0.0655679
0.0632239
0.0603512
0.0571221
0.0536585
0.0500872
0.0464561
0.042658
0.0389221
0.0355573
0.0326362
0.0300043
0.0276224
0.0254679
0.0235145
0.0217356
0.0201341
0.0187825
0.0179101
0.0173577
0.0169568
0.0166455
0.0163915
0.0161773
0.0159925
0.0158308
0.0156886
0.0155646
0.0154608
0.0153832
0.0153446
0.0153683
0.0154868
0.0157098
0.0160605
0.0167253
0.0179665
0.0203864
0.0772047
0.0777112
0.0771076
0.0756917
0.0735881
0.0709617
0.0679424
0.0646185
0.0610936
0.0574057
0.0534571
0.0494551
0.0457146
0.0423457
0.0392373
0.0363679
0.0337248
0.03129
0.0290417
0.0269581
0.0250302
0.0234742
0.0223662
0.0215511
0.0209251
0.0204098
0.0199605
0.019554
0.0191785
0.0188292
0.0185055
0.0182116
0.0179563
0.0177538
0.0176247
0.0176011
0.017716
0.0179939
0.0185205
0.019439
0.0211549
0.0863777
0.0867788
0.0862847
0.0850899
0.0832806
0.0809884
0.0783052
0.0752862
0.0720056
0.0684619
0.0645861
0.0605489
0.0566427
0.053006
0.0495924
0.0463652
0.0433264
0.0404761
0.0378037
0.0352944
0.0329302
0.0309252
0.0293161
0.0279956
0.0269334
0.0260504
0.0252802
0.024579
0.0239208
0.0232913
0.0226851
0.0221037
0.0215559
0.0210573
0.020629
0.0203039
0.020123
0.0201253
0.0203677
0.0209151
0.0219498
0.0946609
0.0949745
0.0945765
0.0935926
0.0920849
0.0901552
0.0878668
0.0852312
0.0823032
0.0790978
0.0755309
0.0717203
0.0679076
0.0642265
0.060654
0.0572148
0.053924
0.0507998
0.0478147
0.0449638
0.0422411
0.0399025
0.0379407
0.0361833
0.034688
0.0334176
0.0323032
0.0312884
0.0303343
0.0294154
0.0285167
0.0276315
0.0267617
0.0259169
0.0251127
0.0243793
0.0237579
0.0232907
0.0230365
0.0230493
0.0233733
0.101988
0.102231
0.101912
0.101114
0.0998851
0.0983028
0.0964115
0.0942002
0.0917135
0.0889542
0.085845
0.0824582
0.0789722
0.0754934
0.0720105
0.0685639
0.0651858
0.0619017
0.0587233
0.0556542
0.0526972
0.0501246
0.0479194
0.045845
0.043929
0.0422689
0.0408251
0.0395265
0.0383175
0.0371594
0.0360264
0.0349023
0.0337791
0.0326556
0.0315348
0.0304356
0.0293892
0.0284251
0.0275949
0.0269614
0.0264772
0.108364
0.108547
0.108286
0.107643
0.106654
0.10538
0.103851
0.102051
0.100013
0.0977343
0.0951479
0.0922921
0.0892731
0.0861767
0.0830009
0.079792
0.0765655
0.0733477
0.0701614
0.0670234
0.063945
0.0612297
0.0588848
0.0566582
0.0545348
0.0525198
0.0506458
0.0489913
0.0475262
0.0461761
0.044886
0.0436202
0.0423601
0.0410893
0.0397975
0.0384903
0.0371836
0.0358867
0.0346282
0.0334681
0.0322633
0.11383
0.113958
0.11374
0.113224
0.112435
0.111421
0.110204
0.108767
0.107137
0.105309
0.10323
0.100902
0.0984152
0.0958147
0.093092
0.0902749
0.0873865
0.0844591
0.0814946
0.078508
0.0755148
0.0728238
0.0704654
0.0682058
0.0660323
0.0639338
0.0619034
0.059949
0.0580878
0.0563928
0.0548763
0.0534704
0.0521181
0.0507831
0.049438
0.0480737
0.0466905
0.0452796
0.0438458
0.0424333
0.0408311
0.118446
0.118535
0.118356
0.117943
0.11732
0.116518
0.115557
0.114422
0.113136
0.111695
0.110049
0.108213
0.106239
0.104151
0.101934
0.0996029
0.0971704
0.0946507
0.0920573
0.0894015
0.0867025
0.084229
0.0820138
0.079862
0.0777714
0.0757444
0.0737663
0.0718284
0.0699252
0.0680626
0.0662529
0.0645153
0.0629203
0.0614587
0.060064
0.0586936
0.057326
0.0559358
0.0545112
0.0530772
0.0514151
0.12233
0.122389
0.122239
0.121906
0.121421
0.120786
0.120025
0.119132
0.118125
0.117001
0.115721
0.114299
0.112767
0.111137
0.109388
0.107532
0.105587
0.103546
0.101414
0.0991979
0.0969039
0.0947667
0.092827
0.0909217
0.0890511
0.0872145
0.0854096
0.0836324
0.0818777
0.0801396
0.0784132
0.0767017
0.0750093
0.0733456
0.0717113
0.0701561
0.0687158
0.0673356
0.0659681
0.0646092
0.0630644
0.125586
0.125623
0.125495
0.125226
0.124839
0.124335
0.123736
0.123037
0.122252
0.121378
0.12039
0.119298
0.118124
0.116867
0.115521
0.114089
0.112576
0.110981
0.109312
0.107563
0.105732
0.104
0.102407
0.100828
0.0992635
0.0977144
0.0961799
0.0946591
0.0931499
0.0916496
0.0901544
0.0886606
0.0871644
0.0856622
0.0841463
0.0826246
0.0811117
0.0796041
0.078101
0.076666
0.0751443
0.128183
0.128207
0.128101
0.127883
0.127571
0.127169
0.126691
0.126142
0.125519
0.124828
0.124053
0.123202
0.122291
0.121318
0.120279
0.119177
0.118012
0.116783
0.11549
0.114132
0.112708
0.11135
0.11009
0.108833
0.107582
0.106338
0.105101
0.103873
0.10265
0.10143
0.100211
0.098991
0.0977672
0.0965362
0.0952897
0.0940268
0.0927486
0.0914448
0.0901136
0.0887701
0.0873367
0.130183
0.130198
0.130109
0.12993
0.129673
0.129351
0.12896
0.128513
0.128009
0.127453
0.126838
0.126161
0.125439
0.124669
0.12385
0.122985
0.122074
0.121115
0.120108
0.11905
0.117942
0.116879
0.115889
0.114899
0.113914
0.112932
0.111954
0.110979
0.110008
0.109039
0.108074
0.107108
0.106141
0.105168
0.104185
0.10319
0.102185
0.101159
0.100108
0.0990358
0.097891
0.131752
0.131763
0.131689
0.131539
0.131324
0.131055
0.130731
0.13036
0.129949
0.129492
0.12899
0.12844
0.127855
0.12724
0.126584
0.125892
0.125166
0.124404
0.123607
0.122773
0.121901
0.121063
0.12028
0.119498
0.11872
0.117946
0.117175
0.116408
0.115643
0.114881
0.114121
0.113362
0.112603
0.111845
0.111081
0.11031
0.109534
0.108745
0.10794
0.107121
0.10626
0.133014
0.133023
0.132961
0.132834
0.132652
0.132423
0.132153
0.131842
0.131496
0.131114
0.130696
0.130246
0.129765
0.12926
0.128724
0.128163
0.127575
0.126962
0.126322
0.125656
0.124962
0.124294
0.123669
0.123047
0.122428
0.121814
0.1212
0.12059
0.119987
0.119388
0.118792
0.118198
0.117606
0.117017
0.116425
0.115831
0.115234
0.11463
0.114017
0.113396
0.112753
0.13405
0.134059
0.134006
0.133897
0.133741
0.133544
0.133313
0.13305
0.132756
0.132436
0.132084
0.131705
0.131304
0.130883
0.130443
0.12998
0.129498
0.128996
0.128476
0.127937
0.127378
0.126839
0.126336
0.125835
0.125336
0.124845
0.124354
0.123868
0.123386
0.122912
0.122442
0.121976
0.121513
0.121054
0.120594
0.120135
0.119676
0.119213
0.118746
0.118275
0.117794
0.134914
0.134922
0.134877
0.134783
0.134647
0.134477
0.134277
0.13405
0.1338
0.133525
0.133227
0.132906
0.132568
0.132214
0.131844
0.13146
0.131062
0.130648
0.130219
0.129777
0.129321
0.128882
0.128471
0.128064
0.12766
0.127262
0.126867
0.126476
0.12609
0.125709
0.125335
0.124968
0.124605
0.124245
0.123887
0.12353
0.123174
0.122818
0.122461
0.122102
0.12174
0.135643
0.135651
0.135612
0.13553
0.135412
0.135264
0.135089
0.134891
0.134674
0.134437
0.13418
0.133905
0.133616
0.133318
0.133004
0.13268
0.132346
0.132002
0.131649
0.131283
0.130907
0.130545
0.130207
0.129873
0.129544
0.12922
0.128899
0.128582
0.128269
0.127962
0.127661
0.127365
0.127076
0.126792
0.12651
0.126231
0.125955
0.125679
0.125403
0.125129
0.124857
0.136266
0.136273
0.136239
0.136168
0.136065
0.135935
0.135782
0.135608
0.135418
0.135213
0.13499
0.134754
0.134506
0.134248
0.133982
0.133708
0.133425
0.133134
0.132836
0.132532
0.132222
0.131922
0.13164
0.131364
0.131092
0.130824
0.13056
0.130301
0.130046
0.129797
0.129553
0.129314
0.12908
0.128852
0.128628
0.128408
0.128193
0.127978
0.127765
0.127554
0.127346
0.136802
0.136809
0.13678
0.136718
0.136627
0.136512
0.136377
0.136225
0.136057
0.135877
0.135684
0.135478
0.135264
0.135042
0.134812
0.134576
0.134336
0.13409
0.133838
0.133581
0.133321
0.133071
0.132837
0.132606
0.132379
0.132157
0.131939
0.131725
0.131516
0.131311
0.131112
0.130918
0.130728
0.130543
0.130363
0.130187
0.130015
0.129847
0.129681
0.129517
0.129358
0.137267
0.137274
0.13725
0.137195
0.137115
0.137014
0.136894
0.136759
0.136611
0.136451
0.136281
0.136103
0.135916
0.135723
0.135525
0.135323
0.135116
0.134905
0.134691
0.134474
0.134255
0.134043
0.133845
0.133652
0.133462
0.133276
0.133094
0.132916
0.132743
0.132575
0.132411
0.132251
0.132097
0.131947
0.1318
0.131658
0.13152
0.131384
0.131252
0.131123
0.131
0.137673
0.137681
0.13766
0.137612
0.137542
0.137451
0.137345
0.137225
0.137093
0.136952
0.136801
0.136643
0.13648
0.136313
0.136142
0.135966
0.135787
0.135607
0.135423
0.135237
0.135051
0.134872
0.134704
0.13454
0.13438
0.134223
0.134071
0.133922
0.133778
0.133638
0.133502
0.133371
0.133244
0.133121
0.133002
0.132886
0.132774
0.132665
0.132559
0.132456
0.132358
0.13803
0.138039
0.138021
0.137979
0.137916
0.137836
0.137741
0.137633
0.137516
0.13739
0.137256
0.137117
0.136973
0.136825
0.136675
0.136522
0.136368
0.136211
0.136053
0.135895
0.135736
0.135583
0.135439
0.135299
0.135163
0.13503
0.134901
0.134776
0.134655
0.134539
0.134426
0.134317
0.134212
0.134111
0.134013
0.133918
0.133827
0.133739
0.133654
0.133571
0.133493
0.138345
0.138355
0.13834
0.138303
0.138247
0.138175
0.138089
0.137993
0.137889
0.137776
0.137658
0.137534
0.137406
0.137275
0.137143
0.137008
0.136873
0.136737
0.136602
0.136465
0.136329
0.136197
0.136074
0.135954
0.135837
0.135724
0.135615
0.135509
0.135407
0.135309
0.135215
0.135124
0.135037
0.134953
0.134872
0.134795
0.13472
0.134648
0.134579
0.134512
0.13445
0.138624
0.138636
0.138624
0.13859
0.13854
0.138475
0.138398
0.138313
0.138219
0.138119
0.138013
0.137903
0.13779
0.137675
0.137557
0.137439
0.13732
0.137201
0.137082
0.136964
0.136848
0.136734
0.136627
0.136524
0.136424
0.136327
0.136234
0.136144
0.136058
0.135975
0.135895
0.135819
0.135746
0.135676
0.13561
0.135546
0.135484
0.135426
0.135369
0.135315
0.135265
0.138874
0.138885
0.138875
0.138845
0.1388
0.138742
0.138674
0.138597
0.138514
0.138426
0.138332
0.138234
0.138134
0.138032
0.137928
0.137823
0.137719
0.137614
0.13751
0.137407
0.137306
0.137207
0.137115
0.137025
0.136939
0.136856
0.136776
0.136699
0.136625
0.136555
0.136488
0.136424
0.136363
0.136304
0.136249
0.136196
0.136145
0.136097
0.13605
0.136006
0.135966
0.139096
0.139109
0.1391
0.139073
0.139032
0.13898
0.138921
0.138854
0.138781
0.138702
0.13862
0.138533
0.138445
0.138354
0.138262
0.13817
0.138078
0.137986
0.137895
0.137804
0.137716
0.13763
0.13755
0.137472
0.137397
0.137325
0.137256
0.137191
0.137128
0.137068
0.137011
0.136956
0.136905
0.136856
0.136809
0.136765
0.136723
0.136683
0.136646
0.136609
0.136577
0.139296
0.139308
0.1393
0.139276
0.13924
0.139196
0.139145
0.139087
0.139023
0.138955
0.138882
0.138807
0.138728
0.138648
0.138567
0.138486
0.138404
0.138324
0.138243
0.138164
0.138087
0.138012
0.137942
0.137874
0.137809
0.137747
0.137688
0.137631
0.137577
0.137526
0.137477
0.137431
0.137387
0.137346
0.137307
0.13727
0.137236
0.137203
0.137172
0.137142
0.137116
0.139475
0.139486
0.139478
0.139458
0.139429
0.139393
0.13935
0.139301
0.139247
0.139188
0.139125
0.139059
0.13899
0.13892
0.138849
0.138777
0.138705
0.138634
0.138564
0.138494
0.138427
0.138362
0.1383
0.138241
0.138185
0.138131
0.138079
0.13803
0.137984
0.13794
0.137898
0.137859
0.137822
0.137787
0.137754
0.137724
0.137695
0.137668
0.137642
0.137618
0.137597
0.139635
0.139645
0.139638
0.139623
0.139601
0.139574
0.13954
0.1395
0.139456
0.139406
0.139352
0.139295
0.139236
0.139175
0.139112
0.13905
0.138987
0.138924
0.138862
0.138802
0.138743
0.138686
0.138632
0.138581
0.138531
0.138484
0.13844
0.138397
0.138357
0.138319
0.138284
0.138251
0.138219
0.13819
0.138162
0.138136
0.138112
0.13809
0.138069
0.138049
0.138032
0.139778
0.139786
0.139781
0.139772
0.139759
0.139741
0.139716
0.139686
0.139651
0.139612
0.139568
0.139521
0.139471
0.139419
0.139366
0.139312
0.139258
0.139204
0.13915
0.139097
0.139046
0.138997
0.13895
0.138905
0.138862
0.138821
0.138783
0.138746
0.138712
0.138679
0.138649
0.138621
0.138595
0.13857
0.138548
0.138527
0.138508
0.13849
0.138474
0.13846
0.138448
0.139901
0.139907
0.139906
0.139904
0.139899
0.139889
0.139874
0.139855
0.139832
0.139804
0.139773
0.139738
0.139701
0.139661
0.13962
0.139577
0.139534
0.13949
0.139447
0.139404
0.139363
0.139322
0.139283
0.139245
0.139209
0.139176
0.139144
0.139114
0.139087
0.139062
0.139039
0.139018
0.139
0.138984
0.13897
0.138958
0.138949
0.138941
0.138935
0.138931
0.138929
0.139991
0.139996
0.139998
0.139999
0.139998
0.139995
0.139988
0.139979
0.139968
0.139955
0.139939
0.139921
0.139902
0.13988
0.139858
0.139834
0.139809
0.139784
0.139759
0.139734
0.139711
0.139687
0.139663
0.139641
0.139619
0.139598
0.139579
0.139561
0.139544
0.13953
0.139517
0.139505
0.139495
0.139487
0.13948
0.139474
0.13947
0.139467
0.139465
0.139464
0.139465
0.140035
0.140039
0.140042
0.140044
0.140045
0.140045
0.140043
0.140039
0.140035
0.140029
0.140023
0.140015
0.140006
0.139996
0.139986
0.139975
0.139963
0.139951
0.139939
0.139927
0.139916
0.139904
0.139893
0.139882
0.139872
0.139862
0.139852
0.139843
0.139835
0.139828
0.139821
0.139815
0.13981
0.139806
0.139802
0.1398
0.139798
0.139796
0.139795
0.139795
0.139796
0.140057
0.140062
0.140065
0.140068
0.14007
0.140072
0.140072
0.140072
0.140072
0.140071
0.140069
0.140066
0.140063
0.140059
0.140055
0.14005
0.140045
0.140039
0.140034
0.140029
0.140024
0.140018
0.140013
0.140008
0.140003
0.139999
0.139994
0.13999
0.139986
0.139983
0.13998
0.139977
0.139975
0.139973
0.139972
0.139971
0.13997
0.13997
0.13997
0.13997
0.139971
0.140068
0.140072
0.140076
0.140079
0.140082
0.140085
0.140088
0.14009
0.140092
0.140093
0.140094
0.140095
0.140095
0.140095
0.140094
0.140093
0.140092
0.140091
0.140089
0.140087
0.140086
0.140084
0.140082
0.14008
0.140079
0.140077
0.140075
0.140074
0.140072
0.140071
0.14007
0.140069
0.140069
0.140068
0.140068
0.140068
0.140068
0.140068
0.140069
0.140069
0.14007
0.140071
0.140075
0.140078
0.140082
0.140085
0.140089
0.140093
0.140097
0.1401
0.140104
0.140107
0.140109
0.140112
0.140114
0.140116
0.140118
0.140119
0.14012
0.140121
0.140122
0.140123
0.140123
0.140124
0.140124
0.140124
0.140124
0.140125
0.140125
0.140125
0.140125
0.140125
0.140126
0.140126
0.140127
0.140127
0.140128
0.140128
0.140129
0.14013
0.140131
0.140132
0.140068
0.140071
0.140074
0.140078
0.140082
0.140086
0.140091
0.140095
0.1401
0.140104
0.140109
0.140113
0.140117
0.140121
0.140125
0.140128
0.140131
0.140134
0.140137
0.14014
0.140142
0.140144
0.140146
0.140148
0.14015
0.140151
0.140153
0.140154
0.140156
0.140157
0.140158
0.140159
0.14016
0.140161
0.140162
0.140164
0.140165
0.140166
0.140167
0.140168
0.140169
0.14006
0.140062
0.140065
0.140069
0.140073
0.140077
0.140082
0.140087
0.140091
0.140096
0.140101
0.140106
0.140111
0.140116
0.140121
0.140126
0.14013
0.140134
0.140138
0.140142
0.140146
0.140149
0.140152
0.140155
0.140158
0.140161
0.140163
0.140165
0.140168
0.14017
0.140171
0.140173
0.140175
0.140176
0.140178
0.140179
0.140181
0.140182
0.140183
0.140185
0.140186
0.140047
0.140049
0.140052
0.140055
0.140058
0.140062
0.140066
0.140071
0.140075
0.14008
0.140085
0.14009
0.140095
0.140099
0.140104
0.140109
0.140114
0.140119
0.140124
0.140128
0.140133
0.140137
0.140141
0.140145
0.140148
0.140152
0.140155
0.140158
0.140161
0.140163
0.140166
0.140168
0.14017
0.140172
0.140174
0.140176
0.140178
0.140179
0.140181
0.140182
0.140183
0.140031
0.140032
0.140034
0.140036
0.140039
0.140042
0.140045
0.140048
0.140051
0.140055
0.140058
0.140062
0.140065
0.140069
0.140072
0.140075
0.140078
0.140082
0.140085
0.140088
0.140092
0.140096
0.1401
0.140104
0.140108
0.140112
0.140116
0.14012
0.140123
0.140127
0.14013
0.140133
0.140136
0.140139
0.140142
0.140144
0.140147
0.140149
0.140151
0.140152
0.140154
0.140011
0.140012
0.140012
0.140013
0.140014
0.140015
0.140016
0.140018
0.140019
0.14002
0.140022
0.140023
0.140023
0.140024
0.140024
0.140023
0.14002
0.140018
0.140002
0.139997
0.139994
0.139992
0.139991
0.13999
0.13999
0.13999
0.139991
0.139992
0.139992
0.139994
0.139995
0.139996
0.139997
0.139999
0.14
0.140001
0.140002
0.140004
0.140005
0.140006
0.140007
0.00367264
0.00451095
0.00520708
0.00652779
0.00844333
0.0107272
0.0132367
0.0159039
0.0186856
0.0215643
0.0245232
0.0275453
0.0306298
0.0337667
0.0369457
0.0401581
0.043399
0.0466602
0.0499328
0.0532091
0.0564824
0.0597448
0.0629879
0.0662037
0.0693851
0.0725252
0.0756171
0.0786539
0.0816296
0.0845386
0.0873756
0.0901354
0.0928136
0.0954064
0.0979103
0.100323
0.102641
0.104864
0.10699
0.109019
0.110949
0.112782
0.114518
0.11616
0.117708
0.119167
0.120541
0.121835
0.123055
0.124205
0.12529
0.12631
0.12727
0.128173
0.129024
0.129823
0.130575
0.13128
0.131943
0.132565
0.133151
0.133702
0.134222
0.134712
0.135176
0.135614
0.13603
0.136424
0.136801
0.137162
0.137509
0.137853
0.138144
0.138639
0.00777922
0.00832962
0.0077992
0.00764969
0.00844893
0.0100969
0.0122797
0.0147705
0.0174494
0.020263
0.0231803
0.0261773
0.0292458
0.032375
0.0355521
0.0387675
0.0420181
0.0452936
0.0485837
0.0518802
0.0551771
0.058466
0.0617377
0.0649841
0.0681981
0.0713725
0.0745002
0.077574
0.0805877
0.0835357
0.0864123
0.0892124
0.0919312
0.0945646
0.0971092
0.0995621
0.101921
0.104184
0.106349
0.108416
0.110384
0.112253
0.114024
0.115698
0.117279
0.118767
0.120169
0.121488
0.122731
0.123903
0.125008
0.126048
0.127026
0.127947
0.128813
0.129628
0.130394
0.131113
0.131788
0.132422
0.133017
0.133578
0.134107
0.134605
0.135076
0.135521
0.135942
0.136343
0.136724
0.137089
0.137439
0.137786
0.138079
0.138579
0.0118765
0.0130978
0.0123746
0.0111478
0.0104159
0.0106718
0.0119101
0.0138574
0.0162372
0.0188787
0.0216929
0.0246282
0.0276592
0.0307679
0.0339378
0.0371556
0.0404148
0.0437048
0.0470135
0.0503329
0.0536581
0.0569789
0.0602852
0.0635683
0.0668217
0.0700378
0.0732086
0.0763269
0.0793862
0.0823808
0.0853047
0.0881525
0.0909193
0.0936007
0.0961931
0.0986936
0.101099
0.103408
0.105619
0.10773
0.109741
0.111652
0.113464
0.115177
0.116794
0.118317
0.119751
0.121101
0.122371
0.123568
0.124695
0.125757
0.126756
0.127696
0.128581
0.129413
0.130195
0.130929
0.131617
0.132264
0.132871
0.133442
0.133981
0.134488
0.134967
0.135419
0.135847
0.136253
0.13664
0.13701
0.137364
0.137714
0.138009
0.138514
0.0146571
0.0171705
0.0172483
0.0160666
0.0145742
0.0134823
0.0132402
0.0139748
0.0155399
0.0176881
0.020211
0.0229737
0.0259005
0.0289477
0.0320852
0.0352911
0.0385516
0.041854
0.0451841
0.0485314
0.0518888
0.0552461
0.0585921
0.0619183
0.0652186
0.0684845
0.071707
0.0748784
0.0779922
0.0810424
0.0840228
0.0869274
0.0897511
0.0924893
0.0951383
0.0976948
0.100156
0.102519
0.104783
0.106946
0.109008
0.110967
0.112826
0.114584
0.116243
0.117807
0.119279
0.120663
0.121965
0.123192
0.124347
0.125433
0.126455
0.127417
0.128323
0.129174
0.129975
0.130725
0.131429
0.132089
0.132709
0.133293
0.133842
0.134359
0.134846
0.135307
0.135743
0.136156
0.136548
0.136923
0.137281
0.137635
0.137933
0.138444
0.0164296
0.0201364
0.0212439
0.0208362
0.0196129
0.0181234
0.0168534
0.0162025
0.0163987
0.0174544
0.0192225
0.0215049
0.0241353
0.0270015
0.0300317
0.0331787
0.0364121
0.03971
0.0430532
0.0464261
0.0498177
0.0532167
0.0566108
0.0599896
0.0633456
0.06667
0.0699533
0.0731874
0.0763658
0.0794821
0.0825296
0.0855019
0.0883933
0.091199
0.0939151
0.0965378
0.0990642
0.101492
0.103818
0.106043
0.108163
0.11018
0.112093
0.113904
0.115614
0.117225
0.118741
0.120166
0.121507
0.122768
0.123954
0.12507
0.126119
0.127106
0.128035
0.128908
0.129729
0.130498
0.13122
0.131896
0.132531
0.133127
0.133688
0.134216
0.134714
0.135184
0.135628
0.136048
0.136448
0.136829
0.137192
0.13755
0.137851
0.138368
0.0185646
0.0221469
0.0238963
0.0244159
0.0240499
0.0230664
0.0217638
0.0204813
0.0195563
0.0192622
0.0197431
0.020989
0.0228781
0.0252515
0.027968
0.0309224
0.0340431
0.0372821
0.0406044
0.0439834
0.0473999
0.0508379
0.0542824
0.0577202
0.061141
0.0645348
0.0678916
0.0712019
0.0744582
0.0776536
0.0807809
0.0838333
0.086805
0.0896908
0.0924865
0.095188
0.0977918
0.100295
0.102696
0.104992
0.107183
0.109268
0.111246
0.113118
0.114887
0.116554
0.118123
0.119597
0.120983
0.122285
0.12351
0.12466
0.12574
0.126756
0.127712
0.12861
0.129454
0.130245
0.130986
0.13168
0.132331
0.132943
0.133518
0.134059
0.134568
0.135048
0.135502
0.135931
0.136338
0.136725
0.137094
0.137458
0.137762
0.138285
0.0218188
0.023924
0.025411
0.0264554
0.026994
0.0269314
0.0263245
0.0253474
0.0242193
0.0232
0.0225557
0.0225021
0.0231525
0.024503
0.0264602
0.0288921
0.0316719
0.0346991
0.0378996
0.0412196
0.0446207
0.0480744
0.0515577
0.0550513
0.05854
0.0620109
0.0654518
0.0688515
0.0722006
0.0754909
0.0787147
0.0818643
0.0849331
0.0879155
0.0908066
0.0936021
0.0962981
0.0988918
0.101381
0.103763
0.106037
0.108202
0.110257
0.112204
0.114042
0.115776
0.117407
0.11894
0.12038
0.121732
0.123001
0.124192
0.12531
0.126359
0.127346
0.128273
0.129144
0.12996
0.130724
0.131439
0.132109
0.132738
0.133328
0.133883
0.134406
0.134898
0.135362
0.135801
0.136216
0.136612
0.136987
0.137356
0.137665
0.138195
0.0233199
0.0255441
0.0269884
0.027553
0.0284543
0.0291075
0.0293415
0.0291748
0.0286219
0.0278037
0.026903
0.0261317
0.0257077
0.0258146
0.0265599
0.0279568
0.029939
0.0323977
0.0352178
0.0382994
0.0415643
0.0449545
0.0484265
0.0519465
0.0554888
0.0590327
0.0625611
0.0660591
0.0695138
0.0729149
0.0762527
0.0795186
0.0827045
0.0858037
0.0888107
0.0917203
0.0945283
0.0972312
0.0998265
0.102312
0.104686
0.106946
0.109094
0.111129
0.113052
0.114865
0.116571
0.118174
0.119679
0.12109
0.122413
0.123653
0.124815
0.125906
0.126929
0.12789
0.128792
0.129637
0.130427
0.131167
0.131859
0.132508
0.133116
0.133688
0.134225
0.134731
0.135208
0.135657
0.136083
0.136487
0.13687
0.137246
0.137559
0.138097
0.0235862
0.0258564
0.027801
0.0291191
0.029967
0.0303426
0.0307739
0.0312478
0.0313974
0.0312728
0.0309048
0.0303396
0.0296993
0.0291603
0.0289153
0.0291335
0.0299257
0.0313259
0.0332955
0.0357483
0.0385805
0.0416941
0.0450069
0.0484542
0.0519864
0.0555656
0.0591621
0.062752
0.066316
0.0698381
0.0733053
0.0767059
0.0800299
0.0832687
0.0864152
0.0894631
0.0924073
0.0952435
0.0979684
0.100579
0.103075
0.105452
0.107712
0.109853
0.111878
0.113787
0.115584
0.117271
0.118854
0.120337
0.121726
0.123026
0.124242
0.125382
0.126449
0.127451
0.128389
0.129268
0.13009
0.130858
0.131576
0.132248
0.132877
0.133468
0.134023
0.134544
0.135035
0.135498
0.135935
0.136349
0.136741
0.137125
0.137444
0.13799
0.0235888
0.0253754
0.0272901
0.0291298
0.030706
0.0318286
0.0325107
0.0328684
0.032706
0.0329796
0.0332749
0.0333361
0.033179
0.0328666
0.0324894
0.0321798
0.0320998
0.0324072
0.0332196
0.0345929
0.0365168
0.0389298
0.041743
0.0448618
0.048201
0.0516896
0.0552715
0.0589027
0.0625485
0.0661817
0.0697804
0.073327
0.0768066
0.080207
0.083518
0.0867311
0.0898396
0.0928376
0.0957208
0.0984858
0.10113
0.103651
0.106048
0.10832
0.110469
0.112496
0.114403
0.116194
0.117872
0.119444
0.120913
0.122286
0.123569
0.124769
0.125891
0.126941
0.127924
0.128843
0.129702
0.130504
0.131252
0.131952
0.132607
0.13322
0.133795
0.134335
0.134842
0.13532
0.13577
0.136197
0.136599
0.136992
0.137318
0.137874
0.024353
0.0255272
0.0268844
0.0283977
0.030012
0.0316181
0.033063
0.0342072
0.0348788
0.0352276
0.0353511
0.035132
0.0351956
0.0353425
0.0353944
0.0353221
0.0351889
0.0350994
0.0351835
0.0355795
0.0364064
0.0377381
0.0395923
0.0419348
0.0446956
0.0477889
0.051129
0.0546398
0.0582581
0.0619329
0.065624
0.0692995
0.0729339
0.0765068
0.0800018
0.0834056
0.0867077
0.0898995
0.0929742
0.0959269
0.0987535
0.101451
0.104018
0.106452
0.108755
0.110928
0.112972
0.11489
0.116688
0.118368
0.119938
0.121403
0.122769
0.124043
0.125232
0.126342
0.12738
0.128348
0.129252
0.130095
0.13088
0.131613
0.132297
0.132938
0.133537
0.134098
0.134625
0.13512
0.135586
0.136027
0.136441
0.136845
0.13718
0.137748
0.0269186
0.0276179
0.0284398
0.0293561
0.0303815
0.0315336
0.0328057
0.0341461
0.0354409
0.0365624
0.0374151
0.0378865
0.0380641
0.0380288
0.0377732
0.0376222
0.0376324
0.0376917
0.0377481
0.0378494
0.0380905
0.0385831
0.0394353
0.0407293
0.0425053
0.044756
0.0474352
0.0504712
0.0537832
0.0572928
0.0609308
0.064639
0.0683704
0.0720872
0.0757593
0.0793629
0.0828791
0.0862931
0.0895934
0.0927711
0.0958195
0.0987336
0.10151
0.104146
0.106641
0.108995
0.11121
0.113289
0.115236
0.117054
0.118751
0.120331
0.121801
0.12317
0.124444
0.12563
0.126735
0.127765
0.128724
0.129617
0.130447
0.13122
0.131941
0.132613
0.133241
0.133829
0.134379
0.134895
0.13538
0.135836
0.136266
0.136683
0.137028
0.137609
0.032255
0.0325854
0.0330048
0.0334584
0.0339405
0.034466
0.0350619
0.0357592
0.0365778
0.0375064
0.0384971
0.0394606
0.0402917
0.0409037
0.0412152
0.0412446
0.0410609
0.0407003
0.0403194
0.040182
0.0402393
0.040431
0.0407799
0.0413561
0.042243
0.0435153
0.0452222
0.0473773
0.0499573
0.0529099
0.056165
0.0596472
0.0632843
0.0670122
0.0707765
0.0745328
0.0782452
0.0818853
0.0854308
0.0888644
0.092173
0.0953468
0.0983783
0.101263
0.103997
0.10658
0.109011
0.111293
0.113429
0.115423
0.117281
0.119009
0.120614
0.122103
0.123485
0.124768
0.12596
0.127067
0.128096
0.129051
0.129937
0.13076
0.131525
0.132237
0.1329
0.133519
0.134097
0.134638
0.135146
0.135622
0.136069
0.136501
0.136859
0.137456
0.0404934
0.0405348
0.040645
0.0407621
0.0408706
0.0409683
0.041062
0.0411666
0.0413072
0.0415153
0.0418217
0.0422455
0.0427799
0.0433877
0.044001
0.044531
0.0448936
0.0450152
0.0448649
0.0445017
0.0440026
0.0433785
0.0430479
0.0430492
0.0433406
0.0439117
0.0447969
0.046044
0.047693
0.0497623
0.0522432
0.0551004
0.0582782
0.0617095
0.0653238
0.0690542
0.0728409
0.0766326
0.0803869
0.0840697
0.0876538
0.0911183
0.0944475
0.0976295
0.100656
0.103523
0.106226
0.108766
0.111144
0.113363
0.11543
0.117349
0.119128
0.120775
0.122298
0.123708
0.125012
0.126219
0.127336
0.128371
0.129328
0.130213
0.131034
0.131795
0.132502
0.13316
0.133773
0.134344
0.134878
0.135379
0.135847
0.136298
0.136671
0.137288
0.0508842
0.0507212
0.0506095
0.0504936
0.050358
0.0501965
0.0500064
0.0497875
0.0495437
0.0492847
0.0490279
0.0487988
0.0486278
0.0485447
0.0485697
0.0487038
0.0489221
0.0491731
0.049382
0.049466
0.0493595
0.0489944
0.0484167
0.0477147
0.0469585
0.0463666
0.0462074
0.0464949
0.0472039
0.0483314
0.0498838
0.0518613
0.0542492
0.0570157
0.0601132
0.0634825
0.0670586
0.0707761
0.0745729
0.0783933
0.0821888
0.0859189
0.0895506
0.093058
0.0964212
0.0996259
0.102662
0.105524
0.10821
0.11072
0.113056
0.115225
0.117233
0.119088
0.120798
0.122375
0.123828
0.125167
0.126401
0.127538
0.128587
0.129554
0.130445
0.131269
0.132032
0.132738
0.133393
0.134003
0.134571
0.135101
0.135594
0.136069
0.13646
0.137101
0.0624406
0.0621459
0.0618887
0.0616234
0.0613379
0.0610267
0.0606857
0.060311
0.0598995
0.059449
0.0589596
0.058435
0.0578844
0.0573235
0.0567754
0.0562681
0.0558304
0.0554848
0.0552397
0.0550813
0.0549718
0.0548494
0.0546359
0.0542631
0.0536762
0.052873
0.0519372
0.0509875
0.0500974
0.0496873
0.0498611
0.0506073
0.0518934
0.0536849
0.0559406
0.0586094
0.0616328