/*--------------------------------*- C++ -*----------------------------------*\
| =========                 |                                                 |
| \\      /  F ield         | OpenFOAM: The Open Source CFD Toolbox           |
|  \\    /   O peration     | Version:  5.x                                   |
|   \\  /    A nd           | Web:      www.OpenFOAM.org                      |
|    \\/     M anipulation  |                                                 |
\*---------------------------------------------------------------------------*/
FoamFile
{
    version     2.0;
    format      ascii;
    class       volScalarField;
    location    "300";
    object      nuTilda;
}
// * * * * * * * * * * * * * * * * * * * * * * * * * * * * * * * * * * * * * //

dimensions      [0 2 -1 0 0 0 0];

internalField   nonuniform List<scalar> 
11040
(
0.00236048
0.0028373
0.00306915
0.00311796
0.00302732
0.00287181
0.00270099
0.00256148
0.00244047
0.0023102
0.00213633
0.00196211
0.0018292
0.00173465
0.00164484
0.00155594
0.00146799
0.0013837
0.00130289
0.00122398
0.00114526
0.00107496
0.00101197
0.000948959
0.000884961
0.000818856
0.000746675
0.000638829
0.000469211
0.000411522
0.000365147
0.000333199
0.000307899
0.000280659
0.00025563
0.000238573
0.000246877
0.000295427
0.000347128
0.000387798
0.000566496
0.00622342
0.00666441
0.0060792
0.0054799
0.00488162
0.00436558
0.00392194
0.00382616
0.00382719
0.00379075
0.00369287
0.00354637
0.00342587
0.00330697
0.00316321
0.00301534
0.00287797
0.00275445
0.00264331
0.0025423
0.00244991
0.00237277
0.00230569
0.00224272
0.00218354
0.00212684
0.00206928
0.00199541
0.00188133
0.00179618
0.00173281
0.00170411
0.00161579
0.00151527
0.00138472
0.00126849
0.00122774
0.0013216
0.0015045
0.00181822
0.00245765
0.0128114
0.0134942
0.0126677
0.0116319
0.0104874
0.00935351
0.00830947
0.00738124
0.00658506
0.00589762
0.00526241
0.00474502
0.00463218
0.00459209
0.00452903
0.0044558
0.00437496
0.00429181
0.00421185
0.00413765
0.00406919
0.00401411
0.00396451
0.00391447
0.00386399
0.00381311
0.00376077
0.0037028
0.00363319
0.00356812
0.00350891
0.00346208
0.00340432
0.00334372
0.00323819
0.00306505
0.00301836
0.00323766
0.00352643
0.00386693
0.00470959
0.0204961
0.0212631
0.0203591
0.018996
0.0174077
0.0157739
0.014198
0.0127082
0.01133
0.010056
0.00881464
0.00773337
0.00693679
0.00634284
0.0060502
0.00592288
0.00583096
0.00576016
0.0057045
0.00565928
0.00562136
0.00559487
0.00557179
0.00554677
0.00551843
0.00548639
0.00544998
0.00540781
0.00535829
0.00530558
0.0052524
0.005205
0.00516427
0.00513962
0.00510555
0.00500643
0.00496324
0.00521772
0.00568015
0.00637778
0.00721744
0.0290444
0.0298104
0.0289088
0.0273406
0.0254188
0.0233444
0.0212545
0.0191819
0.0172177
0.0153738
0.0135624
0.011941
0.0106473
0.00962771
0.00877598
0.00807048
0.00763994
0.00743314
0.00731197
0.0072343
0.00718593
0.00716185
0.00714811
0.00713648
0.00712407
0.00710932
0.00709054
0.00706606
0.00703455
0.00699679
0.00695521
0.00691628
0.00688926
0.00689034
0.00691587
0.00690926
0.00691344
0.0071893
0.00783875
0.00892781
0.0100108
0.0381969
0.0389214
0.0380709
0.0364209
0.0342948
0.0318439
0.0292532
0.0266615
0.0241638
0.0217764
0.0193997
0.0172101
0.0153884
0.0139239
0.012669
0.0115784
0.0106667
0.0098819
0.00942119
0.00916036
0.00900368
0.00891207
0.00885365
0.00881082
0.00877986
0.00875658
0.00873668
0.00871651
0.00869324
0.00866562
0.00863468
0.00860575
0.00858973
0.00860614
0.00867022
0.00874914
0.00883449
0.00912328
0.00985187
0.0111597
0.0131902
0.0477312
0.0483758
0.0476013
0.045972
0.0437465
0.0411006
0.0382305
0.0352751
0.0323489
0.029484
0.0265818
0.0238346
0.0214668
0.0194965
0.0177726
0.0162487
0.0149037
0.0137052
0.012669
0.0118683
0.0114195
0.0111416
0.0109425
0.0107942
0.0106862
0.0106027
0.0105356
0.0104793
0.0104296
0.0103837
0.0103412
0.0103055
0.0102858
0.0103
0.0103727
0.0105032
0.0106723
0.0109817
0.0116814
0.0129727
0.015256
0.0573726
0.0579394
0.057257
0.0557223
0.0535293
0.0508694
0.0479137
0.0447814
0.0415904
0.0383819
0.0350652
0.0318376
0.0289571
0.0264751
0.0242544
0.0222563
0.0204578
0.0188336
0.0173603
0.0160344
0.0149022
0.0141693
0.0137127
0.0133858
0.0131335
0.0129273
0.0127518
0.0125981
0.0124608
0.0123374
0.0122274
0.0121342
0.0120656
0.0120364
0.0120704
0.0121892
0.0123926
0.0127168
0.013332
0.0144386
0.0164766
0.0669144
0.0673933
0.0668001
0.065405
0.0633535
0.0608207
0.0579442
0.0548183
0.0515473
0.0481685
0.0446008
0.0410319
0.0377342
0.0347929
0.032104
0.0296408
0.0273865
0.0253213
0.0234233
0.021672
0.0200542
0.0187369
0.0177898
0.0171085
0.0165969
0.0161805
0.0158182
0.0154896
0.0151848
0.0149
0.0146354
0.0143955
0.0141893
0.0140308
0.0139411
0.0139482
0.014075
0.0143428
0.0148356
0.0156828
0.017213
0.0761135
0.0765081
0.0760005
0.07477
0.0729273
0.070619
0.0679493
0.0649844
0.0618061
0.0584213
0.0547774
0.0510393
0.047472
0.0441912
0.0411466
0.0382956
0.0356338
0.0331561
0.0308479
0.0286925
0.0266714
0.0249599
0.0235719
0.0224306
0.0215304
0.0207968
0.0201642
0.0195909
0.019053
0.0185388
0.0180444
0.0175727
0.0171324
0.0167382
0.0164097
0.0161762
0.0160719
0.0161275
0.0163923
0.0169287
0.017902
0.0847708
0.0850906
0.0846628
0.0836042
0.0820008
0.0799702
0.0775885
0.0748802
0.0719122
0.0687095
0.0652038
0.0615197
0.0578905
0.054436
0.0511283
0.0479823
0.0450046
0.0422045
0.0395513
0.0370358
0.0346492
0.0326105
0.0309035
0.0293672
0.0280644
0.0269719
0.0260253
0.0251706
0.024371
0.0236033
0.022855
0.0221218
0.021407
0.0207209
0.0200787
0.0195074
0.0190425
0.0187197
0.0185867
0.0186881
0.01907
0.0927406
0.0929968
0.092639
0.0917451
0.090383
0.0886462
0.0865895
0.0842129
0.0815742
0.078685
0.0754809
0.0720477
0.0685707
0.0651536
0.061784
0.0584965
0.0553162
0.0522609
0.0493356
0.0465379
0.0438649
0.0415556
0.0395874
0.0377437
0.0360526
0.0345989
0.0333402
0.0322131
0.031168
0.0301706
0.0291988
0.0282394
0.0272872
0.0263434
0.025413
0.0245145
0.0236763
0.0229253
0.0223053
0.0218661
0.0215757
0.0999361
0.100135
0.0998332
0.099087
0.0979503
0.0964967
0.094766
0.0927476
0.0904881
0.0879906
0.0851954
0.0821549
0.0789909
0.0757955
0.0725696
0.0693589
0.0661771
0.0630475
0.0599881
0.0570106
0.0541207
0.0515946
0.0494299
0.0473877
0.045452
0.0436291
0.0419697
0.0405239
0.0392386
0.0380497
0.0369127
0.035799
0.0346948
0.0335883
0.0324733
0.0313573
0.0302567
0.0291824
0.0281617
0.027243
0.0263196
0.106319
0.106459
0.106201
0.105583
0.104648
0.103451
0.102023
0.100351
0.0984701
0.0963812
0.0940319
0.091436
0.0887002
0.0858793
0.0829694
0.080003
0.0770065
0.0740127
0.0710229
0.0680512
0.0651102
0.0624953
0.0602257
0.0580689
0.0560097
0.0540349
0.0521404
0.0503359
0.048666
0.047187
0.0458525
0.0446
0.0433884
0.0421919
0.0409903
0.0397794
0.0385622
0.0373342
0.0361034
0.0349058
0.0335784
0.111867
0.111967
0.111749
0.111242
0.110483
0.109509
0.108346
0.106983
0.105449
0.103742
0.101809
0.0996756
0.0974067
0.0950333
0.0925458
0.0899635
0.0873052
0.0845897
0.081833
0.0790488
0.0762565
0.0737279
0.0714879
0.0693332
0.0672587
0.0652636
0.0633315
0.0614526
0.0596256
0.0578608
0.0561748
0.0546303
0.0532364
0.0519355
0.0506742
0.0494276
0.0481841
0.0469254
0.0456455
0.0443645
0.0429073
0.116649
0.116716
0.11653
0.116115
0.115509
0.114718
0.113775
0.112675
0.111439
0.110067
0.108516
0.106805
0.104978
0.10305
0.101001
0.09885
0.0966191
0.094306
0.0919192
0.0894684
0.0869637
0.0846575
0.0825874
0.0805746
0.0786171
0.0767128
0.0748574
0.0730454
0.0712703
0.069526
0.0678091
0.0661305
0.0644961
0.0629152
0.061431
0.0600668
0.0587814
0.0575228
0.0562633
0.0550049
0.0535917
0.120738
0.120779
0.120619
0.120277
0.119784
0.119146
0.118388
0.117508
0.116522
0.115431
0.114202
0.112853
0.11141
0.109874
0.108241
0.106518
0.104711
0.102824
0.100867
0.0988355
0.096731
0.0947612
0.0929662
0.0912029
0.0894725
0.0877738
0.0861055
0.084466
0.0828523
0.0812607
0.0796869
0.0781268
0.0765777
0.0750376
0.0735053
0.0719936
0.0705129
0.0690622
0.0676862
0.0664044
0.0650472
0.124052
0.124078
0.123941
0.123659
0.123255
0.122738
0.122123
0.121418
0.120622
0.119743
0.118761
0.117687
0.116543
0.115326
0.114033
0.112669
0.111235
0.109731
0.10816
0.10652
0.104814
0.1032
0.101713
0.100241
0.0987872
0.0973513
0.0959333
0.0945371
0.0931565
0.0917891
0.0904327
0.0890848
0.0877426
0.0864024
0.0850555
0.0837023
0.082346
0.0809781
0.0796035
0.078238
0.0768141
0.126636
0.126651
0.126535
0.1263
0.125964
0.125542
0.125033
0.124452
0.123799
0.123081
0.12229
0.121421
0.120497
0.119517
0.118479
0.117387
0.11624
0.115039
0.113783
0.11247
0.111102
0.109798
0.108588
0.107387
0.106196
0.105016
0.103847
0.102689
0.101541
0.100403
0.0992763
0.0981559
0.0970395
0.0959244
0.0948038
0.0936776
0.0925465
0.0914001
0.0902351
0.0890544
0.0878139
0.128682
0.128691
0.128592
0.128393
0.12811
0.127754
0.127328
0.126842
0.126304
0.125707
0.125052
0.124339
0.123582
0.122786
0.121941
0.121053
0.120124
0.119154
0.118141
0.117085
0.115985
0.114933
0.113953
0.112978
0.112012
0.111054
0.110103
0.109161
0.108226
0.107298
0.106376
0.105459
0.104547
0.10364
0.102731
0.101818
0.100903
0.0999773
0.0990385
0.0980873
0.0970969
0.130339
0.130346
0.130261
0.130091
0.129848
0.129543
0.129185
0.128773
0.128317
0.127814
0.127265
0.126675
0.126046
0.125387
0.12469
0.12396
0.123199
0.122406
0.121581
0.120724
0.119834
0.11898
0.118183
0.117392
0.116608
0.115831
0.115057
0.114291
0.113535
0.112786
0.112043
0.111305
0.110571
0.109843
0.109114
0.108384
0.107654
0.106918
0.106174
0.105423
0.10465
0.131706
0.131711
0.131638
0.131491
0.131281
0.131017
0.130708
0.130358
0.129968
0.129543
0.129077
0.128577
0.128048
0.127495
0.126916
0.12631
0.125679
0.125025
0.124346
0.123644
0.122918
0.12222
0.121569
0.120922
0.12028
0.119647
0.119018
0.118394
0.117779
0.117175
0.116577
0.115984
0.115397
0.114816
0.114236
0.113657
0.11308
0.1125
0.111916
0.111328
0.11073
0.13285
0.132856
0.132791
0.132663
0.132479
0.13225
0.13198
0.131676
0.131342
0.130975
0.130579
0.130152
0.129704
0.129235
0.128746
0.128239
0.127714
0.127169
0.126605
0.126024
0.125427
0.124852
0.124315
0.123784
0.123256
0.122739
0.122224
0.121716
0.121215
0.120722
0.120238
0.119763
0.119294
0.11883
0.118368
0.117909
0.117452
0.116995
0.116537
0.116078
0.115617
0.133821
0.133825
0.133768
0.133655
0.133494
0.133292
0.133056
0.13279
0.132498
0.13218
0.131836
0.131469
0.131084
0.130686
0.13027
0.129839
0.129396
0.12894
0.128472
0.127988
0.127492
0.127015
0.126569
0.126129
0.125696
0.12527
0.124848
0.124431
0.124021
0.123619
0.123224
0.122837
0.122459
0.122087
0.121719
0.121354
0.120993
0.120634
0.120274
0.119918
0.119563
0.134652
0.134655
0.134605
0.134505
0.134362
0.134184
0.133976
0.133742
0.133485
0.133209
0.132909
0.132592
0.13226
0.131915
0.13156
0.131194
0.130816
0.130428
0.130032
0.129627
0.129215
0.128816
0.128443
0.128076
0.127715
0.12736
0.127011
0.126668
0.126331
0.126002
0.125679
0.125363
0.125055
0.124753
0.124457
0.124168
0.123882
0.123599
0.123318
0.123039
0.122765
0.135369
0.135372
0.135327
0.135238
0.135112
0.134954
0.13477
0.134562
0.134335
0.134091
0.133831
0.133554
0.133266
0.132967
0.132659
0.132343
0.13202
0.131691
0.131354
0.131011
0.130663
0.130329
0.130017
0.129708
0.129406
0.12911
0.128819
0.128534
0.128255
0.127983
0.127718
0.127459
0.127207
0.126961
0.126721
0.126486
0.126257
0.126034
0.125812
0.125594
0.125381
0.135992
0.135995
0.135955
0.135877
0.135764
0.135624
0.13546
0.135275
0.135074
0.134858
0.134627
0.134386
0.134133
0.133874
0.133607
0.133335
0.133056
0.132773
0.132485
0.132194
0.131899
0.131615
0.131349
0.13109
0.130836
0.130586
0.130343
0.130104
0.129873
0.129647
0.129427
0.129214
0.129007
0.128805
0.128609
0.128418
0.128233
0.128052
0.127874
0.127701
0.127535
0.136538
0.136541
0.136506
0.136436
0.136336
0.13621
0.136064
0.135899
0.13572
0.135527
0.135323
0.135109
0.134888
0.134662
0.13443
0.134193
0.133951
0.133707
0.133459
0.133209
0.132958
0.132717
0.132491
0.13227
0.132054
0.131843
0.131637
0.131437
0.131243
0.131054
0.130872
0.130695
0.130524
0.130358
0.130197
0.130041
0.12989
0.129743
0.1296
0.12946
0.129328
0.137018
0.137021
0.136991
0.136928
0.136839
0.136726
0.136595
0.136448
0.136288
0.136116
0.135934
0.135744
0.135548
0.135348
0.135144
0.134937
0.134728
0.134515
0.134302
0.134087
0.133872
0.133665
0.13347
0.133281
0.133097
0.132918
0.132743
0.132574
0.132411
0.132253
0.1321
0.131953
0.13181
0.131673
0.131541
0.131413
0.131289
0.131169
0.131053
0.130941
0.130835
0.137443
0.137447
0.13742
0.137364
0.137284
0.137183
0.137066
0.136934
0.13679
0.136637
0.136474
0.136305
0.136131
0.135953
0.135773
0.13559
0.135406
0.135221
0.135037
0.134851
0.134666
0.134487
0.13432
0.134157
0.133998
0.133845
0.133697
0.133553
0.133415
0.133281
0.133153
0.133029
0.132911
0.132797
0.132687
0.132581
0.13248
0.132382
0.132287
0.132196
0.13211
0.13782
0.137825
0.137801
0.137751
0.137679
0.137589
0.137483
0.137365
0.137237
0.137099
0.136954
0.136803
0.136648
0.13649
0.13633
0.136168
0.136006
0.135843
0.135681
0.13552
0.135361
0.135207
0.135061
0.13492
0.134784
0.134652
0.134525
0.134402
0.134285
0.134171
0.134063
0.133959
0.13386
0.133764
0.133673
0.133585
0.133501
0.133421
0.133343
0.133269
0.1332
0.138156
0.138162
0.138141
0.138097
0.138032
0.137951
0.137857
0.137751
0.137635
0.137512
0.137383
0.137248
0.137109
0.136969
0.136826
0.136683
0.136539
0.136396
0.136254
0.136113
0.135974
0.135839
0.135713
0.135591
0.135473
0.135359
0.13525
0.135144
0.135044
0.134948
0.134856
0.134768
0.134684
0.134604
0.134527
0.134454
0.134385
0.134318
0.134254
0.134193
0.134138
0.138457
0.138463
0.138446
0.138406
0.138348
0.138276
0.138191
0.138096
0.137993
0.137883
0.137768
0.137647
0.137524
0.137399
0.137272
0.137145
0.137018
0.136891
0.136766
0.136642
0.13652
0.136403
0.136292
0.136186
0.136083
0.135985
0.13589
0.1358
0.135713
0.135631
0.135552
0.135478
0.135407
0.135339
0.135275
0.135214
0.135156
0.135101
0.135048
0.134998
0.134953
0.138727
0.138734
0.138719
0.138683
0.138632
0.138568
0.138493
0.138408
0.138317
0.138219
0.138116
0.138009
0.137899
0.137787
0.137675
0.137562
0.137449
0.137337
0.137226
0.137117
0.137011
0.136908
0.136811
0.136718
0.136628
0.136543
0.136461
0.136383
0.136308
0.136238
0.13617
0.136107
0.136047
0.135989
0.135935
0.135884
0.135836
0.13579
0.135746
0.135705
0.135668
0.13897
0.138977
0.138964
0.138933
0.138888
0.138832
0.138766
0.138692
0.138611
0.138525
0.138433
0.138338
0.138241
0.138141
0.138041
0.137941
0.137841
0.137742
0.137644
0.137548
0.137455
0.137364
0.137279
0.137198
0.13712
0.137045
0.136974
0.136906
0.136842
0.136781
0.136723
0.136669
0.136617
0.136569
0.136523
0.13648
0.136439
0.136401
0.136365
0.136331
0.136301
0.139188
0.139196
0.139185
0.139159
0.139121
0.139073
0.139016
0.138952
0.138882
0.138806
0.138725
0.138641
0.138555
0.138467
0.138378
0.138289
0.1382
0.138113
0.138026
0.137942
0.13786
0.13778
0.137705
0.137634
0.137566
0.1375
0.137438
0.13738
0.137324
0.137271
0.137222
0.137175
0.137131
0.13709
0.137051
0.137015
0.136981
0.136949
0.136919
0.13689
0.136866
0.139385
0.139393
0.139384
0.139363
0.139333
0.139294
0.139247
0.139192
0.139132
0.139066
0.138996
0.138923
0.138847
0.138769
0.138691
0.138612
0.138534
0.138456
0.13838
0.138306
0.138234
0.138164
0.138099
0.138036
0.137976
0.137919
0.137865
0.137813
0.137765
0.13772
0.137677
0.137637
0.137599
0.137564
0.137531
0.1375
0.137471
0.137445
0.13742
0.137396
0.137376
0.139562
0.13957
0.139565
0.13955
0.139528
0.139498
0.13946
0.139416
0.139366
0.139311
0.139252
0.139189
0.139123
0.139055
0.138987
0.138918
0.138849
0.138781
0.138714
0.138649
0.138585
0.138524
0.138467
0.138412
0.138359
0.138309
0.138262
0.138217
0.138175
0.138136
0.138099
0.138064
0.138032
0.138002
0.137974
0.137948
0.137924
0.137902
0.137881
0.137862
0.137846
0.13972
0.139728
0.139727
0.13972
0.139706
0.139686
0.139659
0.139626
0.139587
0.139544
0.139496
0.139445
0.139391
0.139335
0.139277
0.139218
0.139159
0.1391
0.139042
0.138986
0.138931
0.138878
0.138827
0.138779
0.138733
0.13869
0.138649
0.13861
0.138574
0.13854
0.138509
0.13848
0.138453
0.138428
0.138406
0.138385
0.138367
0.138351
0.138337
0.138324
0.138315
0.139856
0.139864
0.139867
0.139866
0.139861
0.13985
0.139834
0.139813
0.139788
0.13976
0.139728
0.139692
0.139654
0.139613
0.139571
0.139527
0.139483
0.139438
0.139393
0.139349
0.139308
0.139266
0.139227
0.13919
0.139154
0.13912
0.139088
0.139059
0.139032
0.139007
0.138985
0.138965
0.138947
0.138932
0.138919
0.138908
0.138899
0.138892
0.138887
0.138883
0.138883
0.139953
0.13996
0.139963
0.139964
0.139962
0.139957
0.13995
0.13994
0.139929
0.139915
0.139899
0.139882
0.139863
0.139843
0.139821
0.139798
0.139774
0.139751
0.139727
0.139703
0.13968
0.139657
0.139634
0.139613
0.139592
0.139572
0.139552
0.139535
0.139518
0.139504
0.13949
0.139479
0.139469
0.13946
0.139452
0.139446
0.139442
0.139438
0.139435
0.139434
0.139434
0.140001
0.140005
0.140009
0.14001
0.14001
0.140009
0.140006
0.140003
0.139998
0.139992
0.139985
0.139977
0.139969
0.139959
0.139949
0.139938
0.139927
0.139916
0.139904
0.139893
0.139882
0.13987
0.13986
0.139849
0.139839
0.139829
0.13982
0.139811
0.139803
0.139795
0.139789
0.139783
0.139777
0.139773
0.139769
0.139766
0.139763
0.139761
0.13976
0.139759
0.139759
0.140025
0.140029
0.140032
0.140035
0.140036
0.140037
0.140037
0.140037
0.140036
0.140034
0.140032
0.14003
0.140026
0.140023
0.140019
0.140014
0.140009
0.140004
0.139999
0.139994
0.139989
0.139984
0.139979
0.139974
0.139969
0.139965
0.13996
0.139956
0.139953
0.139949
0.139946
0.139943
0.139941
0.139939
0.139937
0.139935
0.139934
0.139933
0.139933
0.139933
0.139933
0.140037
0.14004
0.140043
0.140045
0.140048
0.14005
0.140052
0.140054
0.140055
0.140056
0.140057
0.140057
0.140058
0.140057
0.140057
0.140056
0.140055
0.140054
0.140052
0.140051
0.14005
0.140048
0.140046
0.140045
0.140043
0.140042
0.14004
0.140039
0.140037
0.140036
0.140035
0.140034
0.140033
0.140033
0.140032
0.140032
0.140032
0.140032
0.140032
0.140032
0.140032
0.140039
0.140042
0.140044
0.140047
0.14005
0.140053
0.140056
0.140058
0.140061
0.140064
0.140066
0.140068
0.14007
0.140072
0.140074
0.140076
0.140077
0.140078
0.140079
0.14008
0.140081
0.140082
0.140082
0.140083
0.140083
0.140084
0.140084
0.140084
0.140085
0.140085
0.140085
0.140085
0.140086
0.140086
0.140086
0.140087
0.140087
0.140087
0.140088
0.140088
0.140089
0.140035
0.140037
0.140039
0.140041
0.140044
0.140047
0.14005
0.140053
0.140056
0.140059
0.140062
0.140065
0.140067
0.14007
0.140073
0.140075
0.140078
0.140081
0.140083
0.140086
0.140088
0.14009
0.140092
0.140094
0.140096
0.140098
0.1401
0.140101
0.140103
0.140104
0.140105
0.140106
0.140108
0.140109
0.14011
0.140111
0.140111
0.140112
0.140113
0.140114
0.140115
0.140024
0.140026
0.140027
0.140029
0.140031
0.140033
0.140036
0.140038
0.140041
0.140043
0.140045
0.140047
0.140049
0.140051
0.140053
0.140054
0.140055
0.140057
0.140058
0.14006
0.140062
0.140064
0.140067
0.14007
0.140073
0.140075
0.140078
0.140081
0.140084
0.140087
0.140089
0.140092
0.140094
0.140096
0.140098
0.1401
0.140102
0.140104
0.140105
0.140107
0.140108
0.140009
0.14001
0.14001
0.140011
0.140012
0.140013
0.140014
0.140015
0.140016
0.140017
0.140017
0.140018
0.140018
0.140017
0.140015
0.140013
0.140008
0.14
0.13998
0.139968
0.139958
0.139951
0.139945
0.13994
0.139936
0.139933
0.139931
0.13993
0.139929
0.139929
0.139929
0.139929
0.13993
0.13993
0.139931
0.139932
0.139933
0.139933
0.139934
0.139935
0.139936
0.00280726
0.00352417
0.00420223
0.00541467
0.00711304
0.00911351
0.0113142
0.0136576
0.0161121
0.0186604
0.0212845
0.0239782
0.0267366
0.0295504
0.0324106
0.0353144
0.0382554
0.0412257
0.0442191
0.0472308
0.0502543
0.0532828
0.0563101
0.0593307
0.0623385
0.065327
0.0682903
0.071223
0.0741194
0.0769736
0.0797803
0.0825344
0.0852315
0.0878674
0.0904385
0.0929414
0.0953728
0.0977291
0.100007
0.102203
0.104315
0.106341
0.10828
0.110132
0.111896
0.113575
0.115169
0.11668
0.118111
0.119464
0.120743
0.121951
0.123094
0.124174
0.125194
0.126158
0.12707
0.127933
0.128751
0.129529
0.130269
0.130973
0.131643
0.132279
0.132882
0.133453
0.133996
0.134508
0.134987
0.135438
0.135864
0.136278
0.136623
0.137201
0.00591289
0.00636451
0.00604493
0.00611209
0.00698005
0.00852257
0.0104855
0.012697
0.015071
0.0175664
0.0201556
0.022825
0.0255667
0.0283693
0.0312221
0.0341253
0.0370698
0.0400463
0.0430484
0.0460721
0.0491101
0.0521547
0.0552
0.0582407
0.0612702
0.0642817
0.0672695
0.070228
0.0731514
0.0760337
0.0788694
0.0816535
0.0843812
0.0870483
0.0896513
0.0921865
0.0946507
0.09704
0.099351
0.10158
0.103725
0.105783
0.107754
0.109636
0.11143
0.113136
0.114758
0.116295
0.117751
0.119128
0.120429
0.121658
0.122819
0.123917
0.124953
0.125931
0.126856
0.127731
0.128561
0.12935
0.1301
0.130815
0.131495
0.13214
0.132753
0.133333
0.133885
0.134404
0.134889
0.135346
0.135778
0.136197
0.136546
0.137129
0.00905549
0.00998722
0.00945798
0.00861056
0.00824999
0.00873978
0.0100227
0.0118522
0.0140133
0.016383
0.0188949
0.0215148
0.0242242
0.0270077
0.0298511
0.0327504
0.0356966
0.0386782
0.0416896
0.0447277
0.0477834
0.0508476
0.0539151
0.0569805
0.0600368
0.0630765
0.066094
0.069084
0.0720402
0.0749563
0.0778268
0.0806465
0.0834106
0.0861147
0.0887551
0.0913282
0.0938304
0.0962582
0.0986075
0.100875
0.103058
0.105153
0.107159
0.109077
0.110904
0.112644
0.114296
0.115864
0.117348
0.118752
0.120079
0.121331
0.122515
0.123633
0.124687
0.125682
0.126622
0.127511
0.128354
0.129156
0.129918
0.130644
0.131335
0.131992
0.132616
0.133206
0.133766
0.134292
0.134785
0.135248
0.135685
0.13611
0.136463
0.137053
0.0112467
0.0131404
0.013214
0.012328
0.0112598
0.0106092
0.0107275
0.0116646
0.0132541
0.0152837
0.017594
0.0200908
0.022723
0.0254592
0.0282761
0.0311617
0.0341046
0.0370919
0.0401149
0.0431685
0.0462436
0.0493296
0.0524229
0.0555182
0.0586066
0.0616801
0.0647336
0.0677616
0.0707572
0.0737138
0.0766259
0.0794883
0.0822957
0.0850436
0.0877281
0.0903457
0.0928927
0.0953651
0.0977592
0.100071
0.102298
0.104436
0.106485
0.108443
0.11031
0.112087
0.113776
0.115378
0.116896
0.118331
0.119686
0.120967
0.122176
0.123317
0.124393
0.125408
0.126366
0.127271
0.128129
0.128944
0.12972
0.13046
0.131164
0.131834
0.132469
0.133069
0.133637
0.134172
0.134672
0.135143
0.135586
0.136017
0.136375
0.136972
0.0126627
0.0154787
0.016408
0.0160936
0.0151388
0.0140325
0.0132058
0.0129881
0.0135251
0.014769
0.0165605
0.0187324
0.0211624
0.0237728
0.0265135
0.0293543
0.0322745
0.0352559
0.038285
0.0413529
0.0444497
0.0475636
0.0506885
0.0538183
0.0569438
0.0600563
0.0631521
0.0662254
0.0692681
0.0722729
0.0752346
0.0781478
0.0810069
0.0838068
0.0865436
0.0892137
0.0918133
0.0943383
0.0967847
0.0991487
0.101427
0.103615
0.105713
0.107719
0.109632
0.111454
0.113185
0.114827
0.116383
0.117854
0.119244
0.120556
0.121795
0.122964
0.124065
0.125103
0.126081
0.127006
0.127882
0.128713
0.129505
0.13026
0.130979
0.131663
0.13231
0.132921
0.133499
0.134042
0.13455
0.135029
0.135479
0.135917
0.13628
0.136884
0.0141201
0.0170543
0.0186653
0.0190756
0.0187421
0.0179269
0.0169174
0.0160266
0.0155465
0.0156823
0.0165007
0.0179383
0.0198642
0.0221451
0.0246762
0.0273859
0.0302273
0.0331667
0.0361796
0.039249
0.0423609
0.0455013
0.0486602
0.0518295
0.055
0.0581616
0.0613088
0.0644354
0.0675329
0.070594
0.0736142
0.0765879
0.0795083
0.0823698
0.0851684
0.0879007
0.0905624
0.0931494
0.0956575
0.0980825
0.100421
0.102669
0.104825
0.106887
0.108854
0.110728
0.112509
0.114198
0.115799
0.117312
0.118742
0.120091
0.121365
0.122565
0.123696
0.124761
0.125765
0.126712
0.127609
0.12846
0.12927
0.130043
0.130778
0.131476
0.132137
0.13276
0.133348
0.1339
0.134418
0.134906
0.135364
0.135808
0.136177
0.136791
0.0170973
0.0183323
0.0200787
0.0209242
0.0213221
0.0211843
0.020628
0.0198277
0.0189959
0.0183709
0.0181728
0.0185491
0.0195425
0.0211007
0.0231179
0.0254813
0.0280972
0.030896
0.0338274
0.0368562
0.0399569
0.0431081
0.0462937
0.0495011
0.052719
0.0559357
0.0591427
0.0623329
0.0654975
0.0686282
0.0717192
0.0747643
0.0777567
0.0806905
0.0835623
0.0863682
0.0891035
0.0917635
0.0943443
0.0968416
0.0992512
0.101569
0.103794
0.105922
0.107954
0.109889
0.111729
0.113474
0.115127
0.11669
0.118167
0.11956
0.120875
0.122113
0.123279
0.124377
0.12541
0.126384
0.127306
0.12818
0.129012
0.129804
0.130557
0.131271
0.131946
0.132582
0.133182
0.133746
0.134274
0.134771
0.135238
0.135691
0.136066
0.136689
0.0187342
0.0203033
0.0214582
0.0218922
0.0227646
0.0232086
0.0233227
0.0231036
0.0226055
0.02196
0.0213424
0.0209474
0.020954
0.0214856
0.0225834
0.0242114
0.0262859
0.0287091
0.0313927
0.0342665
0.0372785
0.0403894
0.0435694
0.0467964
0.0500524
0.0533218
0.0565919
0.0598526
0.063094
0.0663062
0.0694817
0.0726134
0.0756939
0.0787165
0.0816766
0.08457
0.0873919
0.090138
0.0928045
0.0953871
0.0978812
0.100282
0.102588
0.104795
0.106903
0.108912
0.110821
0.112633
0.114349
0.115972
0.117504
0.11895
0.120312
0.121596
0.122804
0.123941
0.125009
0.126017
0.126968
0.127869
0.128724
0.129537
0.13031
0.131042
0.131734
0.132386
0.133
0.133576
0.134116
0.134624
0.135101
0.135563
0.135946
0.13658
0.0192755
0.0210774
0.0225586
0.0234848
0.0240679
0.0242652
0.0247791
0.0251263
0.0252063
0.0250498
0.0247002
0.0242498
0.0238405
0.0236372
0.023795
0.0244267
0.0255809
0.0272407
0.0293421
0.0318003
0.0345322
0.0374667
0.0405472
0.0437308
0.0469847
0.0502826
0.0536038
0.0569319
0.060253
0.0635546
0.0668261
0.0700583
0.0732428
0.0763716
0.0794386
0.0824385
0.0853665
0.0882175
0.0909875
0.0936718
0.0962659
0.0987655
0.101167
0.103469
0.105668
0.107764
0.109758
0.111649
0.113441
0.115135
0.116734
0.118242
0.119663
0.121001
0.12226
0.123443
0.124554
0.1256
0.126586
0.127517
0.1284
0.129238
0.130034
0.130787
0.131498
0.132167
0.132797
0.133388
0.133942
0.134463
0.134951
0.135423
0.135814
0.136461
0.0193956
0.0209717
0.0225851
0.0240365
0.0251871
0.0259095
0.026333
0.0264813
0.0266691
0.0269279
0.0270562
0.0270115
0.0268329
0.0265886
0.0263827
0.0263499
0.0266281
0.0273267
0.0285051
0.0301659
0.0322654
0.034733
0.0374912
0.0404681
0.043604
0.046851
0.0501712
0.0535352
0.0569195
0.0603048
0.0636748
0.0670164
0.070318
0.0735694
0.076762
0.079889
0.0829444
0.0859224
0.0888181
0.0916265
0.0943427
0.096962
0.0994805
0.101895
0.104204
0.106406
0.1085
0.110488
0.112371
0.114151
0.115831
0.117415
0.118906
0.120309
0.121629
0.122867
0.12403
0.125121
0.126148
0.127116
0.128031
0.128899
0.129721
0.130498
0.131232
0.131922
0.132571
0.133179
0.133749
0.134284
0.134785
0.135269
0.135671
0.136331
0.0200046
0.0211069
0.0223666
0.0237326
0.0251219
0.0264044
0.0274621
0.0281911
0.0286106
0.0287962
0.0287507
0.028783
0.0289057
0.0289803
0.0289645
0.0289052
0.0288854
0.0290099
0.029395
0.0301449
0.0313285
0.0329676
0.0350396
0.0374901
0.04025
0.043249
0.0464242
0.0497228
0.0531021
0.056528
0.0599728
0.0634142
0.066834
0.0702168
0.0735499
0.0768231
0.0800277
0.0831565
0.0862029
0.0891612
0.0920255
0.0947906
0.0974517
0.100005
0.102448
0.104779
0.106997
0.109103
0.111097
0.112982
0.11476
0.116435
0.118012
0.119495
0.120887
0.122193
0.123417
0.124564
0.12564
0.126653
0.127607
0.12851
0.129364
0.13017
0.130931
0.131646
0.132317
0.132945
0.133534
0.134086
0.134602
0.1351
0.135513
0.136189
0.0220414
0.0227262
0.0235296
0.0244277
0.0254243
0.0265142
0.0276612
0.0287864
0.0297881
0.0305748
0.0310679
0.0312943
0.0313192
0.0311575
0.0310224
0.0310327
0.0311009
0.0311774
0.0313039
0.0315608
0.0320416
0.0328374
0.0340194
0.0356243
0.0376495
0.0400591
0.0427957
0.0457938
0.0489895
0.0523258
0.0557549
0.0592371
0.0627403
0.0662383
0.0697097
0.0731373
0.0765072
0.079808
0.0830304
0.086166
0.0892078
0.0921489
0.0949834
0.0977063
0.100314
0.102804
0.105174
0.107425
0.109556
0.111571
0.113471
0.11526
0.116941
0.118521
0.120004
0.121392
0.122692
0.123907
0.125045
0.126111
0.127114
0.12806
0.128952
0.129794
0.130587
0.131331
0.132028
0.132681
0.133292
0.133864
0.134398
0.134912
0.135338
0.136033
0.0263856
0.0267393
0.0271791
0.0276606
0.0281813
0.0287546
0.0293996
0.0301303
0.0309412
0.0317972
0.0326315
0.0333606
0.0339098
0.0342138
0.0342733
0.034146
0.0338718
0.0335439
0.033426
0.0334824
0.0336643
0.0339949
0.0345375
0.0353651
0.0365413
0.0381077
0.040076
0.0424274
0.0451189
0.0480932
0.0512886
0.0546462
0.0581133
0.0616449
0.0652038
0.0687591
0.072286
0.0757645
0.0791786
0.0825149
0.0857623
0.0889113
0.0919535
0.0948818
0.0976907
0.100376
0.102934
0.105365
0.107668
0.109844
0.111896
0.113826
0.11564
0.117341
0.118935
0.120427
0.12182
0.123121
0.124335
0.12547
0.126534
0.127533
0.128473
0.129357
0.130189
0.130969
0.131699
0.132381
0.133018
0.133613
0.134169
0.134702
0.135144
0.135861
0.033333
0.0334197
0.0335732
0.0337404
0.0339089
0.0340788
0.0342581
0.0344622
0.0347123
0.0350303
0.0354302
0.0359077
0.0364345
0.0369574
0.0374064
0.037713
0.0378202
0.0376969
0.0373941
0.0369766
0.0364632
0.0361732
0.0361671
0.0364197
0.036929
0.0377316
0.0388732
0.0403886
0.0422926
0.044576
0.0472075
0.0501395
0.0533153
0.0566766
0.0601682
0.0637406
0.0673514
0.0709649
0.074552
0.0780888
0.0815557
0.0849364
0.0882176
0.0913879
0.0944382
0.0973611
0.100151
0.102806
0.105323
0.107702
0.109945
0.112054
0.114034
0.115889
0.117624
0.119246
0.120758
0.122167
0.123479
0.1247
0.125841
0.126907
0.127907
0.128845
0.129725
0.130549
0.131318
0.132036
0.132705
0.133329
0.13391
0.134467
0.134928
0.13567
0.0424567
0.0423421
0.0422784
0.0422156
0.0421404
0.042048
0.0419369
0.0418088
0.0416697
0.0415312
0.0414108
0.0413303
0.0413111
0.0413678
0.0415002
0.0416878
0.0418896
0.0420462
0.0420923
0.0419761
0.041648
0.041143
0.0405342
0.0398845
0.0393596
0.0392057
0.0394438
0.0400613
0.0410659
0.0424708
0.0442796
0.0464793
0.0490403
0.0519188
0.0550619
0.0584133
0.0619171
0.0655213
0.0691795
0.0728514
0.0765027
0.0801047
0.0836333
0.0870684
0.0903937
0.0935958
0.0966646
0.0995924
0.102374
0.105008
0.107492
0.109829
0.112021
0.114073
0.11599
0.117778
0.119443
0.120991
0.122428
0.123761
0.125
0.126154
0.127231
0.128237
0.129177
0.130056
0.130874
0.131636
0.132345
0.133004
0.133616
0.134201
0.134684
0.135457
0.0530246
0.0527698
0.0525529
0.0523311
0.0520936
0.0518355
0.0515536
0.051245
0.0509078
0.0505417
0.0501491
0.0497364
0.0493151
0.0489019
0.0485173
0.0481818
0.0479113
0.0477103
0.0475662
0.0474475
0.047305
0.0470776
0.0467124
0.0461689
0.0454448
0.0446117