/*--------------------------------*- C++ -*----------------------------------*\
| =========                 |                                                 |
| \\      /  F ield         | OpenFOAM: The Open Source CFD Toolbox           |
|  \\    /   O peration     | Version:  5.x                                   |
|   \\  /    A nd           | Web:      www.OpenFOAM.org                      |
|    \\/     M anipulation  |                                                 |
\*---------------------------------------------------------------------------*/
FoamFile
{
    version     2.0;
    format      ascii;
    class       volScalarField;
    location    "300";
    object      nuTilda;
}
// * * * * * * * * * * * * * * * * * * * * * * * * * * * * * * * * * * * * * //

dimensions      [0 2 -1 0 0 0 0];

internalField   nonuniform List<scalar> 
11040
(
0.00180852
0.00196063
0.00236394
0.00268055
0.00282497
0.00286724
0.00285468
0.00280872
0.00273323
0.00262986
0.0024771
0.00234802
0.00226605
0.00220743
0.00214376
0.0020787
0.00201423
0.00195315
0.00189857
0.00185031
0.00180545
0.0017673
0.00173415
0.00170306
0.00167384
0.00164603
0.00161909
0.00159267
0.00156651
0.0015403
0.00151357
0.00148571
0.00145601
0.00142357
0.00138694
0.00134449
0.00129339
0.00123058
0.00114314
0.00103897
0.000782818
0.00816669
0.00857706
0.00795394
0.0072806
0.00657392
0.00590582
0.00530346
0.00476451
0.00429001
0.00388091
0.00348293
0.00333667
0.00327959
0.00314978
0.00298414
0.00282522
0.00268711
0.00256849
0.00248387
0.00242904
0.00238789
0.00235098
0.00231813
0.00228988
0.0022671
0.00224783
0.00223047
0.00221495
0.00220183
0.00219127
0.00218305
0.00217693
0.00217288
0.00217094
0.0021712
0.00217359
0.00217827
0.00218308
0.00218875
0.00218177
0.00211263
0.0163961
0.0170021
0.016261
0.015187
0.0139386
0.0126684
0.0114557
0.0103223
0.00927881
0.00830376
0.00732966
0.0064866
0.00583954
0.00534506
0.00491028
0.00452799
0.00418946
0.00390361
0.00376027
0.00369368
0.00363778
0.00358247
0.00354301
0.00352087
0.00350971
0.00350104
0.00349259
0.00348657
0.00348453
0.00348563
0.00348822
0.00349119
0.00349402
0.00349606
0.00349592
0.00349188
0.00348304
0.00346205
0.00343368
0.00336641
0.00321985
0.0257836
0.0265193
0.0257684
0.0243979
0.022706
0.020887
0.0190673
0.0172921
0.015618
0.0140458
0.0124807
0.0110856
0.00997349
0.00909656
0.00832862
0.00765859
0.00707324
0.00655615
0.00610383
0.0057117
0.00536737
0.00511513
0.00500191
0.00495133
0.00491468
0.00487396
0.00484004
0.00482183
0.00481676
0.00481759
0.00482074
0.00482603
0.00483325
0.00484087
0.00484619
0.00484598
0.00483774
0.00481036
0.00476456
0.00466222
0.00440137
0.0359166
0.0367388
0.0360629
0.0345487
0.0325643
0.0302953
0.0279184
0.0254848
0.0231459
0.0209274
0.0187287
0.0167457
0.0151517
0.013883
0.0127589
0.0117673
0.0109018
0.0101314
0.00943654
0.00880967
0.00824529
0.00778808
0.00742861
0.0071158
0.00684048
0.0066062
0.00646799
0.00640219
0.00636222
0.00632516
0.00629556
0.00627877
0.00627155
0.00626784
0.0062632
0.00625382
0.00623638
0.00619839
0.00613642
0.00602118
0.0056914
0.0464464
0.0473161
0.0467559
0.0452354
0.0431139
0.0405
0.0376421
0.0347176
0.0318477
0.0290565
0.0262354
0.0236123
0.0214244
0.019668
0.0181569
0.0168375
0.0156969
0.0146471
0.0136828
0.0128077
0.0120165
0.0113679
0.010834
0.010347
0.00990562
0.00950466
0.00914487
0.00882625
0.00854269
0.00830242
0.0081548
0.0080747
0.00801752
0.00796529
0.00791783
0.00787148
0.00781982
0.00774791
0.00764818
0.00750305
0.00711849
0.0570555
0.0579238
0.0574909
0.0560671
0.053929
0.0512317
0.0482161
0.0450385
0.0418256
0.0386109
0.0352816
0.0320832
0.0293093
0.0269967
0.0249642
0.0231624
0.0215699
0.0201547
0.0188901
0.01776
0.0167357
0.0158758
0.0151317
0.014461
0.0138646
0.0133183
0.0128139
0.0123471
0.0119137
0.0115094
0.0111362
0.010795
0.0104803
0.0102327
0.0100692
0.00994005
0.00981426
0.00967102
0.0094976
0.00928335
0.00880892
0.0674126
0.0682591
0.0679457
0.0666824
0.0646745
0.0621083
0.0591693
0.0559784
0.0526514
0.0492231
0.0455862
0.0419777
0.0387213
0.0358968
0.0333504
0.0310453
0.028966
0.0270923
0.0254035
0.0238817
0.0225135
0.0213683
0.020411
0.0195457
0.0187635
0.0180522
0.0173999
0.0167967
0.0162344
0.0157054
0.0152031
0.0147217
0.0142545
0.0137995
0.0133567
0.0129268
0.0125664
0.0122636
0.0119584
0.0116252
0.0110039
0.0772887
0.0780628
0.0778412
0.0767659
0.0749914
0.07269
0.0699963
0.0669932
0.0637719
0.0603532
0.0566447
0.0528488
0.0492882
0.0460796
0.0431173
0.0403791
0.0378584
0.0355448
0.0334247
0.0314846
0.0297142
0.0282446
0.0270406
0.0259513
0.0249599
0.0240526
0.0232172
0.0224428
0.0217194
0.021038
0.02039
0.0197669
0.0191605
0.0185616
0.0179584
0.0173415
0.0167113
0.0160566
0.0154088
0.014838
0.0140087
0.0864353
0.0871114
0.0869574
0.0860719
0.0845723
0.082602
0.0802538
0.0775729
0.0746251
0.0713931
0.0678207
0.0640669
0.0604214
0.0570286
0.0538513
0.0508361
0.0479918
0.0453293
0.0428449
0.0405322
0.0383845
0.0365936
0.0351292
0.0337987
0.0325809
0.0314605
0.030424
0.0294595
0.028556
0.027703
0.0268907
0.0261094
0.0253495
0.0246005
0.0238475
0.0230794
0.0222851
0.0214401
0.0205271
0.0195812
0.0183667
0.094686
0.0952587
0.0951526
0.094441
0.0932142
0.0915863
0.0896192
0.0873131
0.0847225
0.0818581
0.0786419
0.0751804
0.0717036
0.0683436
0.0650802
0.0619354
0.0589261
0.0560789
0.0533631
0.0507828
0.0483435
0.0462851
0.0445849
0.0430261
0.0415889
0.0402597
0.0390244
0.0378701
0.0367849
0.0357576
0.0347775
0.0338339
0.0329164
0.0320137
0.0311093
0.0301919
0.0292505
0.0282598
0.0271922
0.0260766
0.0245254
0.101968
0.102441
0.102366
0.101803
0.100822
0.0995109
0.0979133
0.0960085
0.0938461
0.0914286
0.0886858
0.0856811
0.0825793
0.0794814
0.0763766
0.0733006
0.0702837
0.0673536
0.0645272
0.061815
0.0592288
0.0570087
0.0551283
0.0533842
0.0517675
0.0502714
0.0488717
0.0475551
0.0463107
0.0451278
0.0439961
0.0429048
0.0418439
0.0408016
0.0397601
0.0387088
0.0376372
0.0365209
0.0353343
0.0341102
0.0324494
0.108285
0.108662
0.108604
0.108163
0.10739
0.106354
0.105084
0.103557
0.101813
0.0998517
0.0976139
0.0951314
0.0924986
0.0898013
0.0870409
0.0842587
0.0814608
0.0786728
0.0759182
0.0732175
0.070587
0.0682924
0.0663339
0.0645021
0.0627856
0.0611751
0.0596599
0.0582291
0.056872
0.055578
0.0543368
0.0531371
0.0519758
0.0508335
0.0496921
0.0485425
0.0473765
0.0461711
0.0449051
0.0436069
0.0419266
0.113688
0.113974
0.113927
0.113584
0.112983
0.112173
0.111176
0.109973
0.108598
0.107048
0.105276
0.103281
0.101152
0.0989341
0.0966217
0.0942371
0.0917995
0.0893424
0.0868614
0.0843725
0.0818936
0.0796867
0.0777728
0.0759615
0.0742445
0.0726163
0.0710699
0.0695976
0.0681916
0.0668435
0.0655445
0.0642858
0.0630587
0.0618531
0.0606527
0.0594497
0.058237
0.056993
0.0557007
0.0543806
0.0527452
0.118237
0.118461
0.118426
0.118161
0.117699
0.117069
0.11629
0.115351
0.114279
0.113073
0.111683
0.110132
0.10847
0.10672
0.104874
0.102942
0.100937
0.0988721
0.096759
0.0946107
0.0924499
0.0904895
0.088748
0.0870746
0.0854695
0.0839398
0.0824724
0.0810615
0.079702
0.0783885
0.077115
0.0758753
0.0746626
0.0734686
0.0722795
0.0710898
0.0698949
0.0686757
0.0674198
0.0661405
0.0646159
0.12206
0.122234
0.122207
0.122002
0.121653
0.121158
0.120548
0.119817
0.118987
0.118055
0.116987
0.115799
0.114525
0.113177
0.111737
0.11022
0.108647
0.10701
0.105316
0.10357
0.101781
0.100132
0.0986526
0.097217
0.0958258
0.0944787
0.0931746
0.0919115
0.0906863
0.0894956
0.0883348
0.0872058
0.0860974
0.0850025
0.0839099
0.0828164
0.0817197
0.0806041
0.0794611
0.0782985
0.0769585
0.125262
0.125398
0.125376
0.125216
0.124942
0.124556
0.124081
0.123516
0.122874
0.122156
0.121338
0.120434
0.119467
0.118434
0.117337
0.116181
0.11497
0.113707
0.112404
0.111054
0.109659
0.108356
0.107171
0.106013
0.104881
0.103776
0.102698
0.101645
0.100618
0.0996136
0.0986297
0.0976638
0.0967131
0.0957733
0.0948361
0.0938996
0.0929628
0.0920131
0.0910449
0.0900623
0.0889631
0.12782
0.127929
0.127913
0.127786
0.127568
0.127263
0.126888
0.126449
0.125942
0.125378
0.124742
0.124044
0.1233
0.122506
0.121665
0.120781
0.119855
0.118889
0.117884
0.116842
0.115764
0.114752
0.113826
0.112916
0.112024
0.11115
0.110295
0.109463
0.108648
0.107849
0.107063
0.10629
0.105527
0.104772
0.10402
0.103268
0.102518
0.101761
0.100991
0.100213
0.099364
0.129789
0.129879
0.129866
0.129763
0.129585
0.129344
0.129037
0.12868
0.128273
0.127822
0.127322
0.12677
0.126182
0.125559
0.124901
0.124212
0.123493
0.122744
0.121966
0.121159
0.120326
0.119538
0.118815
0.118103
0.117404
0.11672
0.116049
0.115392
0.114748
0.114117
0.113501
0.112896
0.112299
0.11171
0.111123
0.110539
0.109958
0.109373
0.108782
0.108187
0.107551
0.131335
0.13141
0.1314
0.131314
0.131165
0.130963
0.130711
0.130418
0.130088
0.129718
0.12931
0.128864
0.128391
0.127896
0.127371
0.126822
0.126251
0.12566
0.125048
0.124415
0.123764
0.123146
0.122577
0.122017
0.121468
0.120931
0.120404
0.119889
0.119384
0.118889
0.118404
0.117929
0.117461
0.117004
0.116551
0.116102
0.115657
0.115212
0.114763
0.114314
0.113844
0.132578
0.132641
0.132633
0.13256
0.132434
0.132263
0.132055
0.131808
0.131532
0.131224
0.130886
0.130523
0.130135
0.12973
0.129303
0.128858
0.128398
0.127924
0.127434
0.126931
0.126414
0.125924
0.125471
0.125027
0.124592
0.124168
0.123748
0.123337
0.12294
0.122552
0.122172
0.121801
0.121437
0.121083
0.120733
0.120388
0.120047
0.119708
0.119369
0.119031
0.118684
0.133597
0.133651
0.133643
0.13358
0.133472
0.133325
0.133147
0.13294
0.132706
0.132449
0.132165
0.13186
0.131537
0.131201
0.130852
0.130487
0.130111
0.129724
0.129327
0.128921
0.128506
0.128112
0.127748
0.127391
0.12704
0.126701
0.126366
0.126038
0.12572
0.125412
0.125114
0.124822
0.124538
0.124262
0.123991
0.123725
0.123463
0.123204
0.122947
0.122691
0.122435
0.134445
0.134491
0.134484
0.134429
0.134335
0.134208
0.134054
0.133875
0.133677
0.133457
0.133218
0.132959
0.132688
0.132406
0.132113
0.131812
0.131503
0.131184
0.130858
0.130526
0.130188
0.129867
0.129571
0.129282
0.128998
0.128723
0.128454
0.128191
0.127935
0.127687
0.12745
0.127221
0.126999
0.126783
0.126571
0.126364
0.126162
0.125963
0.125766
0.125572
0.125379
0.135161
0.1352
0.135193
0.135145
0.135063
0.134952
0.134817
0.134662
0.13449
0.1343
0.134094
0.133874
0.133643
0.133406
0.133159
0.132906
0.132647
0.132383
0.132115
0.131841
0.131563
0.131299
0.131055
0.130818
0.130588
0.130364
0.130145
0.129931
0.129724
0.129524
0.129331
0.129146
0.128969
0.128798
0.128632
0.12847
0.128313
0.128159
0.128007
0.12786
0.127717
0.135771
0.135804
0.135798
0.135755
0.135683
0.135586
0.135467
0.135331
0.135181
0.135017
0.134839
0.134651
0.134453
0.134249
0.13404
0.133826
0.133607
0.133384
0.133159
0.132932
0.132704
0.132485
0.132282
0.132085
0.131895
0.13171
0.13153
0.131355
0.131186
0.131024
0.130867
0.130717
0.130573
0.130435
0.130303
0.130176
0.130054
0.129935
0.129819
0.129705
0.129597
0.136295
0.136324
0.136318
0.13628
0.136217
0.136131
0.136026
0.135906
0.135774
0.13563
0.135477
0.135312
0.135143
0.134967
0.134786
0.134603
0.134418
0.134231
0.13404
0.133849
0.133658
0.133476
0.133308
0.133144
0.132985
0.132831
0.132682
0.132538
0.132399
0.132266
0.132138
0.132015
0.131898
0.131786
0.131679
0.131577
0.131479
0.131386
0.131296
0.131209
0.131127
0.13675
0.136775
0.136769
0.136736
0.136679
0.136603
0.13651
0.136404
0.136287
0.13616
0.136025
0.135883
0.135735
0.135583
0.135429
0.135272
0.135113
0.134952
0.134791
0.13463
0.134468
0.134314
0.134172
0.134035
0.133902
0.133774
0.133649
0.133529
0.133414
0.133304
0.133198
0.133098
0.133002
0.132911
0.132823
0.13274
0.132662
0.132586
0.132515
0.132446
0.132383
0.137147
0.137168
0.137163
0.137134
0.137083
0.137015
0.136933
0.136839
0.136735
0.136623
0.136503
0.136378
0.136249
0.136117
0.135984
0.135847
0.13571
0.135573
0.135434
0.135296
0.13516
0.13503
0.134909
0.134793
0.13468
0.134572
0.134467
0.134367
0.13427
0.134179
0.134091
0.134008
0.133929
0.133854
0.133783
0.133715
0.133651
0.13359
0.133533
0.133478
0.133428
0.137496
0.137514
0.137509
0.137483
0.137438
0.137378
0.137304
0.13722
0.137128
0.137028
0.136922
0.136811
0.136697
0.136581
0.136464
0.136346
0.136227
0.136108
0.135989
0.135872
0.135755
0.135644
0.13554
0.135441
0.135345
0.135253
0.135164
0.13508
0.134999
0.134922
0.13485
0.13478
0.134715
0.134653
0.134595
0.134539
0.134487
0.134438
0.134391
0.134347
0.134307
0.137803
0.137819
0.137815
0.137792
0.137752
0.137698
0.137632
0.137557
0.137475
0.137386
0.137291
0.137193
0.137092
0.13699
0.136886
0.136782
0.136678
0.136575
0.136473
0.136371
0.136272
0.136176
0.136087
0.136002
0.13592
0.135841
0.135766
0.135694
0.135626
0.135561
0.1355
0.135442
0.135388
0.135337
0.135288
0.135243
0.1352
0.13516
0.135122
0.135086
0.135055
0.138076
0.13809
0.138087
0.138066
0.13803
0.137982
0.137923
0.137856
0.137782
0.137703
0.137619
0.137531
0.137442
0.137351
0.137259
0.137167
0.137076
0.136986
0.136896
0.136809
0.136724
0.136641
0.136564
0.13649
0.136419
0.136352
0.136288
0.136227
0.136169
0.136114
0.136063
0.136014
0.135969
0.135926
0.135886
0.135848
0.135813
0.13578
0.135749
0.13572
0.135695
0.138319
0.138332
0.138329
0.13831
0.138279
0.138235
0.138183
0.138123
0.138056
0.137985
0.13791
0.137832
0.137753
0.137672
0.137591
0.13751
0.137429
0.137349
0.137271
0.137195
0.137121
0.137049
0.136982
0.136918
0.136857
0.136799
0.136744
0.136692
0.136642
0.136596
0.136553
0.136512
0.136473
0.136438
0.136404
0.136373
0.136344
0.136317
0.136292
0.136269
0.136249
0.138536
0.138547
0.138545
0.138529
0.1385
0.138462
0.138415
0.138361
0.138302
0.138238
0.138171
0.138101
0.13803
0.137959
0.137887
0.137815
0.137744
0.137673
0.137605
0.137538
0.137473
0.137411
0.137352
0.137297
0.137244
0.137194
0.137146
0.137102
0.13706
0.13702
0.136983
0.136948
0.136916
0.136886
0.136858
0.136832
0.136808
0.136786
0.136766
0.136746
0.136731
0.13873
0.138741
0.138739
0.138725
0.1387
0.138665
0.138623
0.138575
0.138522
0.138465
0.138405
0.138343
0.13828
0.138216
0.138152
0.138088
0.138025
0.137963
0.137903
0.137844
0.137788
0.137733
0.137682
0.137634
0.137588
0.137545
0.137504
0.137465
0.137429
0.137395
0.137363
0.137334
0.137307
0.137282
0.137258
0.137236
0.137217
0.137198
0.137181
0.137166
0.137153
0.138904
0.138915
0.138914
0.138901
0.138879
0.138848
0.138811
0.138768
0.13872
0.13867
0.138616
0.138561
0.138504
0.138448
0.138391
0.138334
0.138278
0.138224
0.138171
0.138119
0.13807
0.138022
0.137977
0.137935
0.137895
0.137857
0.137822
0.137789
0.137758
0.137729
0.137702
0.137677
0.137653
0.137632
0.137612
0.137594
0.137578
0.137562
0.137549
0.137536
0.137526
0.139062
0.139071
0.139071
0.13906
0.139041
0.139014
0.13898
0.138942
0.1389
0.138855
0.138807
0.138758
0.138708
0.138657
0.138607
0.138557
0.138507
0.138459
0.138412
0.138367
0.138323
0.138282
0.138243
0.138206
0.138171
0.138138
0.138108
0.138079
0.138052
0.138027
0.138004
0.137982
0.137963
0.137945
0.137928
0.137913
0.137899
0.137886
0.137875
0.137864
0.137856
0.139203
0.139213
0.139213
0.139204
0.139187
0.139163
0.139134
0.1391
0.139063
0.139023
0.13898
0.138937
0.138892
0.138848
0.138803
0.138758
0.138715
0.138672
0.138631
0.138591
0.138553
0.138517
0.138483
0.138451
0.13842
0.138392
0.138365
0.13834
0.138317
0.138295
0.138275
0.138257
0.13824
0.138225
0.138211
0.138198
0.138186
0.138176
0.138166
0.138157
0.138151
0.139332
0.139341
0.139342
0.139335
0.13932
0.139299
0.139273
0.139244
0.139211
0.139176
0.139139
0.1391
0.139061
0.139021
0.138982
0.138943
0.138904
0.138867
0.13883
0.138795
0.138762
0.13873
0.138701
0.138672
0.138646
0.138621
0.138598
0.138576
0.138556
0.138537
0.13852
0.138504
0.13849
0.138477
0.138465
0.138454
0.138444
0.138436
0.138428
0.138421
0.138415
0.139448
0.139457
0.139459
0.139453
0.139441
0.139423
0.139401
0.139375
0.139347
0.139316
0.139283
0.13925
0.139215
0.139181
0.139146
0.139111
0.139078
0.139045
0.139013
0.138982
0.138953
0.138926
0.1389
0.138875
0.138852
0.13883
0.13881
0.138791
0.138774
0.138758
0.138743
0.138729
0.138717
0.138706
0.138696
0.138687
0.138678
0.138671
0.138664
0.138659
0.138654
0.139552
0.139562
0.139564
0.13956
0.139551
0.139536
0.139517
0.139496
0.139471
0.139445
0.139417
0.139388
0.139358
0.139328
0.139297
0.139267
0.139238
0.139209
0.139182
0.139155
0.13913
0.139105
0.139083
0.139062
0.139042
0.139023
0.139005
0.138989
0.138974
0.13896
0.138947
0.138935
0.138925
0.138915
0.138907
0.138899
0.138892
0.138886
0.13888
0.138876
0.138872
0.139648
0.139657
0.139661
0.139658
0.139651
0.13964
0.139625
0.139607
0.139587
0.139565
0.139541
0.139516
0.13949
0.139465
0.139439
0.139413
0.139387
0.139363
0.139339
0.139316
0.139294
0.139273
0.139253
0.139235
0.139218
0.139202
0.139186
0.139172
0.139159
0.139147
0.139136
0.139126
0.139117
0.139109
0.139102
0.139095
0.13909
0.139085
0.13908
0.139076
0.139074
0.139734
0.139744
0.139748
0.139747
0.139743
0.139735
0.139723
0.13971
0.139694
0.139676
0.139657
0.139636
0.139615
0.139594
0.139572
0.13955
0.139529
0.139508
0.139488
0.139469
0.13945
0.139433
0.139416
0.1394
0.139386
0.139372
0.139359
0.139347
0.139336
0.139326
0.139317
0.139308
0.139301
0.139294
0.139289
0.139283
0.139279
0.139275
0.139272
0.139269
0.139268
0.139812
0.139822
0.139827
0.139828
0.139826
0.139822
0.139814
0.139804
0.139793
0.13978
0.139765
0.13975
0.139734
0.139717
0.1397
0.139683
0.139666
0.13965
0.139634
0.139618
0.139604
0.13959
0.139576
0.139564
0.139552
0.139541
0.139531
0.139522
0.139513
0.139506
0.139499
0.139493
0.139487
0.139483
0.139479
0.139476
0.139473
0.139471
0.13947
0.139469
0.139469
0.139881
0.139891
0.139896
0.139899
0.1399
0.139898
0.139894
0.139889
0.139882
0.139873
0.139864
0.139854
0.139844
0.139833
0.139821
0.13981
0.139799
0.139788
0.139777
0.139767
0.139757
0.139748
0.139739
0.139731
0.139724
0.139717
0.139711
0.139705
0.139699
0.139695
0.139691
0.139687
0.139684
0.139682
0.13968
0.139679
0.139678
0.139678
0.139678
0.139678
0.139679
0.139938
0.139946
0.13995
0.139953
0.139953
0.139953
0.139951
0.139948
0.139945
0.139941
0.139936
0.139931
0.139926
0.13992
0.139914
0.139908
0.139902
0.139896
0.13989
0.139885
0.139879
0.139874
0.13987
0.139865
0.139861
0.139857
0.139854
0.13985
0.139848
0.139845
0.139842
0.13984
0.139838
0.139837
0.139836
0.139835
0.139834
0.139833
0.139833
0.139833
0.139833
0.139973
0.139976
0.139978
0.139979
0.139979
0.139979
0.139978
0.139977
0.139975
0.139973
0.139971
0.139968
0.139965
0.139961
0.139958
0.139954
0.139951
0.139947
0.139943
0.139939
0.139936
0.139932
0.139929
0.139926
0.139923
0.13992
0.139918
0.139915
0.139913
0.139911
0.139909
0.139907
0.139905
0.139904
0.139902
0.139901
0.1399
0.139899
0.139898
0.139897
0.139896
0.139989
0.139991
0.139992
0.139993
0.139993
0.139993
0.139992
0.139992
0.139991
0.13999
0.139989
0.139987
0.139985
0.139983
0.139981
0.139978
0.139975
0.139972
0.139969
0.139965
0.139961
0.139957
0.139953
0.139949
0.139944
0.13994
0.139936
0.139932
0.139929
0.139926
0.139923
0.13992
0.139917
0.139915
0.139913
0.139911
0.139909
0.139908
0.139906
0.139905
0.139903
0.139998
0.139998
0.139999
0.139999
0.139999
0.139999
0.139999
0.139999
0.139999
0.139998
0.139998
0.139997
0.139997
0.139995
0.139994
0.139993
0.139991
0.139988
0.139985
0.13998
0.139975
0.139967
0.139958
0.13995
0.139942
0.139934
0.139927
0.13992
0.139914
0.139908
0.139902
0.139897
0.139892
0.139887
0.139883
0.139879
0.139875
0.139871
0.139868
0.139865
0.139862
0.00194704
0.00281477
0.00349101
0.00407929
0.00462888
0.0051581
0.0056779
0.00619902
0.00673045
0.00728453
0.00787296
0.00850445
0.00918515
0.00991984
0.0107116
0.0115641
0.0124806
0.0134632
0.0145124
0.0156271
0.0168057
0.0180466
0.0193482
0.0207083
0.0221241
0.0235926
0.0251106
0.0266753
0.0282838
0.0299332
0.0316203
0.0333422
0.035096
0.036879
0.0386885
0.040522
0.0423768
0.0442504
0.0461405
0.0480449
0.0499613
0.0518877
0.053822
0.0557621
0.0577062
0.0596525
0.0615992
0.0635446
0.065487
0.0674248
0.0693565
0.0712805
0.0731954
0.0750997
0.0769919
0.0788707
0.0807353
0.0825852
0.084421
0.0862438
0.0880551
0.0898559
0.0916467
0.0934263
0.0951925
0.0969415
0.0986691
0.10037
0.102041
0.103679
0.105267
0.106867
0.108191
0.110534
0.00288559
0.00349207
0.00401617
0.00452969
0.00502484
0.00550221
0.00596803
0.00643152
0.00689923
0.00738845
0.00791078
0.00847277
0.00907942
0.00973578
0.0104453
0.0112144
0.0120491
0.0129521
0.013924
0.014964
0.0160707
0.0172433
0.0184808
0.0197809
0.0211406
0.0225561
0.0240246
0.0255429
0.0271084
0.0287176
0.0303672
0.0320538
0.0337745
0.0355265
0.0373072
0.0391137
0.0409431
0.0427928
0.0446605
0.046544
0.0484409
0.0503491
0.0522664
0.0541907
0.0561202
0.058053
0.0599873
0.0619215
0.0638539
0.0657827
0.0677065
0.0696238
0.0715331
0.073433
0.075322
0.0771987
0.0790623
0.0809125
0.0827499
0.0845758
0.0863918
0.0881994
0.0899993
0.0917907
0.0935714
0.0953378
0.0970854
0.0988094
0.100504
0.102169
0.103785
0.105415
0.106764
0.109156
0.00395407
0.00457916
0.00509691
0.00553524
0.00593192
0.00631226
0.00668705
0.00706337
0.00744248
0.00785572
0.00830366
0.00878575
0.00930486
0.00986622
0.0104729
0.0111385
0.0118707
0.0126719
0.0135427
0.0144825
0.0154917
0.0165715
0.0177219
0.0189403
0.020223
0.0215663
0.0229671
0.024423
0.0259307
0.0274864
0.0290862
0.0307263
0.032404
0.0341162
0.03586
0.0376321
0.0394295
0.0412494
0.0430894
0.0449472
0.0468203
0.0487064
0.0506031
0.0525084
0.0544203
0.056337
0.0582567
0.0601776
0.0620979
0.0640159
0.0659301
0.0678392
0.0697416
0.0716357
0.0735202
0.0753937
0.0772553
0.0791047
0.0809424
0.0827698
0.0845888
0.0864011
0.0882077
0.0900084
0.0918012
0.0935828
0.0953486
0.0970938
0.0988125
0.100503
0.102148
0.103809
0.105184
0.107628
0.00501896
0.00562759
0.00618035
0.00666177
0.00708623
0.00747526
0.00784293
0.00819854
0.0085482
0.00890455
0.00927684
0.00967079
0.0100909
0.0105427
0.0110274
0.011576
0.0121888
0.0128645
0.0136044
0.014409
0.0152838
0.016235
0.0172626
0.0183637
0.0195343
0.020771
0.0220726
0.023437
0.0248604
0.0263381
0.0278651
0.029438
0.0310539
0.0327095
0.0344014
0.0361254
0.0378783
0.0396571
0.0414593
0.0432824
0.0451237
0.0469803
0.0488497
0.05073
0.0526189
0.0545147
0.0564153
0.0583188
0.0602233
0.0621271
0.0640288
0.0659268
0.0678197
0.0697058
0.0715837
0.073452
0.0753098
0.0771565
0.0789927
0.0808197
0.0826394
0.0844537
0.0862641
0.0880708
0.0898724
0.091666
0.0934473
0.0952114
0.0969524
0.0986686
0.100341
0.102033
0.103436
0.105935
0.00620498
0.00676118
0.00730028
0.00780237
0.00826821
0.00870774
0.00912795
0.0095335
0.00992831
0.0103172
0.0107053
0.0110979
0.0114994
0.0119146
0.012346
0.0128052
0.0133014
0.0138406
0.0144278
0.015066
0.0157727
0.0165592
0.0174219
0.0183577
0.0193641
0.0204415
0.0215938
0.0228191
0.0241125
0.0254684
0.0268813
0.0283489
0.0298687
0.0314367
0.0330482
0.0346981
0.0363825
0.0380989
0.0398443
0.0416156
0.0434094
0.0452223
0.0470518
0.0488954
0.0507511
0.0526166
0.0544897
0.0563682
0.0582499
0.0601333
0.0620166
0.0638984
0.065777
0.0676508
0.0695181
0.0713776
0.0732281
0.0750691
0.0769008
0.0787243
0.0805415
0.0823543
0.0841647
0.0859732
0.0877792
0.0895805
0.0913732
0.0931526
0.0949128
0.0966521
0.0983504
0.100074
0.101503
0.104058
0.00756743
0.00809306
0.00861778
0.00912283
0.00960782
0.0100819
0.0105507
0.0110159
0.011478
0.0119377
0.0123955
0.0128523
0.0133088
0.0137668
0.0142276
0.0146944
0.0151722
0.0156659
0.016181
0.0167217
0.017297
0.0179179
0.0185918
0.0193233
0.0201147
0.0209768
0.0219242
0.0229505
0.0240499
0.0252178
0.0264509
0.0277521
0.0291191
0.030546
0.0320268
0.0335549
0.0351275
0.0367422
0.0383955
0.0400829
0.0418
0.0435425
0.0453075
0.0470927
0.0488956
0.0507132
0.0525428
0.0543815
0.0562272
0.058078
0.0599322
0.061788
0.0636434
0.0654966
0.0673459
0.0691897
0.0710268
0.0728564
0.0746783
0.0764934
0.078303
0.0801092
0.0819141
0.0837188
0.0855234
0.0873264
0.0891245
0.0909137
0.0926882
0.0944463
0.0961673
0.0979186
0.0993729
0.101983
0.00922662
0.00975874
0.0103016
0.0108318
0.0113455
0.0118515
0.0123576
0.0128673
0.0133817
0.0139012
0.0144252
0.0149524
0.0154817
0.0160117
0.0165411
0.0170693
0.0175964
0.0181237
0.0186531
0.0191869
0.0197288
0.0202845
0.0208606
0.0214636
0.0220992
0.0227748
0.0235024
0.0242888
0.0251374
0.0260493
0.0270285
0.0280927
0.029234
0.0304446
0.0317191
0.0330505
0.0344417
0.0358909
0.0373925
0.0389404
0.0405286
0.0421523
0.043809
0.0454962
0.0472103
0.0489474
0.0507035
0.052475
0.0542597
0.0560556
0.0578604
0.0596718
0.0614873
0.0633046
0.0651217
0.066937
0.0687491
0.0705568
0.0723594
0.0741571
0.0759507
0.0777421
0.0795333
0.081326
0.0831208
0.0849169
0.086712
0.0885027
0.0902836
0.0920534
0.0937908
0.0955651
0.0970403
0.0997011
0.0114074
0.0119799
0.0125785
0.0131689
0.0137411
0.0142999
0.0148532
0.015406
0.015961
0.0165204
0.0170853
0.0176557
0.0182312
0.0188106
0.0193925
0.0199753
0.020557
0.0211363
0.0217122
0.0222842
0.0228523
0.0234179
0.0239831
0.0245514
0.0251264
0.025713
0.0263178
0.0269483
0.0276115
0.028313
0.0290583
0.0298587
0.0307204
0.0316452
0.0326338
0.0336812
0.0348099
0.0360128
0.037281
0.0386077
0.0399867
0.0414149
0.042893
0.0444175
0.0459827
0.047583
0.0492129
0.0508685
0.052548
0.0542488
0.0559678
0.0577015
0.0594464
0.0611995
0.0629586
0.064722
0.0664879
0.0682544
0.0700201
0.0717841
0.0735467
0.0753092
0.0770734
0.078841
0.0806132
0.0823897
0.0841691
0.0859487
0.087724
0.0894941
0.0912376
0.0930253
0.0945139
0.0972153
0.0144201
0.0150637
0.0157451
0.0164176
0.0170669
0.0176935
0.0183043
0.0189045
0.0194977
0.020087
0.020675
0.0212636
0.021854
0.022447
0.0230426
0.0236405
0.0242401
0.0248402
0.0254394
0.0260363
0.0266294
0.0272177
0.0278004
0.0283775
0.0289497
0.0295182
0.0300854
0.0306548
0.0312308
0.0318182
0.0324219
0.0330488
0.0337061
0.0344004
0.0351371
0.0359182
0.036754
0.0376507
0.0386093
0.0396289
0.0407067
0.0418475
0.0430607
0.0443371
0.0456683
0.0470482
0.0484706
0.0499339
0.051438
0.0529792
0.0545521
0.0561517
0.057773
0.0594126
0.0610687
0.0627392
0.0644215
0.0661126
0.0678098
0.0695111
0.0712158
0.0729247
0.0746391
0.0763603
0.0780893
0.0798262
0.0815701
0.0833193
0.0850702
0.0868227
0.0885554
0.0903407
0.0918297
0.0945524
0.0187102
0.0193856
0.020124
0.0208581
0.0215679
0.0222493
0.0229064
0.0235438
0.0241648
0.0247729
0.0253711
0.0259619
0.0265476
0.02713
0.0277106
0.0282905
0.0288705
0.029451
0.030032
0.0306133
0.0311941
0.0317736
0.0323505
0.0329237
0.0334922
0.0340552
0.0346124
0.0351639
0.0357108
0.0362545
0.0367974
0.0373425
0.037894
0.0384565
0.0390353
0.0396345
0.0402602
0.0409191
0.0416171
0.0423584
0.0431456
0.0439824
0.0448759
0.0458285
0.046839
0.0479054
0.0490229
0.0502008
0.0514419
0.0527371
0.0540787
0.0554609
0.0568779
0.0583276
0.0598105
0.0613235
0.0628618
0.0644207
0.0659964
0.067585
0.0691859
0.0707995
0.0724258
0.074065
0.0757171
0.077382
0.079059
0.0807474
0.0824445
0.0841514
0.0858468
0.0876038
0.0890721
0.0917822
0.0246756
0.0252537
0.0259549
0.026683
0.027401
0.0280952
0.0287639
0.0294092
0.0300335
0.0306394
0.0312295
0.0318064
0.0323723
0.0329291
0.0334788
0.0340228
0.0345627
0.0350997
0.0356348
0.036169
0.0367027
0.0372361
0.0377694
0.0383022
0.038834
0.039364
0.0398913
0.040415
0.0409344
0.041449
0.0419588
0.042464
0.0429656
0.0434653
0.0439652
0.0444681
0.044977
0.0454962
0.0460302
0.0465836
0.0471608
0.0477659
0.0484042
0.049081
0.0498001
0.0505641
0.0513734
0.0522319
0.0531447
0.0541121
0.055132
0.0562016
0.0573161
0.0584821
0.0597047
0.0609751
0.0622856
0.0636305
0.065005
0.0664046
0.0678316
0.0692856
0.0707642
0.0722652
0.0737871
0.0753286
0.0768894
0.0784699
0.0800684
0.0816866
0.0833036
0.084992
0.086406
0.0890478
0.0324589
0.0328799
0.033391
0.0339871
0.0346237
0.0352638
0.0358921
0.0365032
0.0370957
0.0376699
0.0382273
0.0387696
0.0392983
0.0398149
0.0403209
0.0408178
0.0413068
0.0417893
0.0422665
0.0427394
0.0432092
0.0436768
0.044143
0.0446084
0.0450734
0.0455383
0.0460033
0.046468
0.046932
0.0473947
0.0478555
0.0483137
0.0487689
0.0492209
0.0496696
0.0501154
0.0505593
0.0510026
0.0514471
0.0518953
0.0523499
0.052814
0.0532911
0.053785
0.0543
0.0548399
0.0554078
0.0560072
0.0566424
0.057317
0.0580336
0.0587935
0.0595961
0.0604437
0.0613405
0.0622869
0.0632804
0.0643177
0.0653954
0.0665104
0.0676786
0.0688918
0.0701429
0.0714274
0.0727429
0.0740865
0.0754596
0.0768649
0.078301
0.0797687
0.0812474
0.0828068
0.0841164
0.0866037
0.0418041
0.042099
0.0424631
0.0428359
0.0432423
0.0437252
0.0442441
0.044768
0.045286
0.0457941
0.0462905
0.046774
0.0472448
0.0477036
0.0481513
0.0485888
0.0490169
0.0494366
0.0498488
0.0502542
0.050654
0.0510489
0.0514399
0.0518279
0.0522138
0.0525982
0.0529819
0.0533654
0.0537491
0.0541335
0.0545184
0.0549039
0.0552895
0.055675
0.05606
0.0564439
0.0568266
0.0572078
0.0575878
0.0579667
0.0583455
0.0587252
0.0591073
0.0594935
0.0598862
0.0602878
0.0607012
0.0611291
0.0615746
0.062041
0.0625318
0.06305
0.0635977
0.0641771
0.0647916
0.0654439
0.0661356
0.0668674
0.0676388
0.0684483
0.0693011
0.0701987
0.0711394
0.0721208
0.0731409
0.0741965
0.075297
0.0764488
0.0776452
0.0788843
0.0801468
0.0814961
0.0826327
0.0848462
0.0524887
0.0526444
0.0528665
0.0530957
0.0533264
0.0535634
0.0538161
0.0541353
0.0545132
0.0549121
0.0553106
0.0557032
0.0560895
0.056469
0.0568409
0.0572044
0.0575592
0.0579057
0.0582445
0.058576
0.0589011
0.0592201
0.0595338
0.0598427
0.0601474
0.0604488
0.0607475
0.0610443
0.0613399
0.061635
0.0619301
0.0622258
0.0625226
0.0628209
0.0631206
0.063422
0.0637247
0.0640287
0.0643338
0.0646396
0.064946
0.065253
0.0655606
0.0658692
0.0661794
0.0664919
0.066808
0.0671289
0.0674562
0.067792
0.0681383
0.0684975
0.068872
0.0692639
0.0696758
0.0701103
0.0705701
0.0710573
0.0715738
0.0721203
0.0726989
0.0733122
0.0739617
0.0746481
0.0753715
0.0761308
0.0769287
0.07777
0.0786554
0.0795869
0.08055
0.0815986
0.0824836
0.0842884
0.0642451
0.0642556
0.0643247
0.0644004
0.0644772
0.0645579
0.0646463
0.0647463
0.0648609
0.0649912
0.0651639
0.0653978
0.0656657
0.0659429
0.0662168
0.0664849
0.0667482
0.0670076
0.067263
0.0675138
0.0677593
0.0679991
0.0682335
0.0684626
0.068687
0.0689072
0.0691236
0.0693368
0.0695472
0.0697554
0.0699619
0.0701675
0.0703726
0.0705781
0.0707843
0.0709919
0.0712014
0.0714132
0.0716274
0.0718443
0.0720638
0.072286
0.0725107
0.072738
0.0729676
0.0731998
0.0734344
0.0736719
0.0739125
0.0741569
0.0744059
0.0746605
0.0749219
0.0751915
0.0754707
0.0757614
0.0760652