/*--------------------------------*- C++ -*----------------------------------*\
| =========                 |                                                 |
| \\      /  F ield         | OpenFOAM: The Open Source CFD Toolbox           |
|  \\    /   O peration     | Version:  5.x                                   |
|   \\  /    A nd           | Web:      www.OpenFOAM.org                      |
|    \\/     M anipulation  |                                                 |
\*---------------------------------------------------------------------------*/
FoamFile
{
    version     2.0;
    format      ascii;
    class       volScalarField;
    location    "300";
    object      nuTilda;
}
// * * * * * * * * * * * * * * * * * * * * * * * * * * * * * * * * * * * * * //

dimensions      [0 2 -1 0 0 0 0];

internalField   nonuniform List<scalar> 
11040
(
0.00333887
0.0039185
0.00420942
0.00425435
0.00407565
0.00381019
0.00358352
0.00338674
0.00318265
0.00294879
0.00265748
0.00238239
0.00216775
0.00200115
0.00183166
0.00164861
0.00144253
0.0011245
0.000779794
0.000635376
0.000550763
0.000470738
0.000408756
0.000447562
0.000550981
0.00055609
0.000507275
0.000440231
0.000422282
0.000420648
0.000427877
0.0004437
0.000468796
0.000501747
0.000537331
0.000562811
0.000548698
0.000463968
0.000444677
0.000531118
0.000894918
0.00772013
0.00824494
0.00749816
0.0067236
0.00599344
0.0053697
0.00529857
0.00533238
0.00529632
0.00515351
0.00496279
0.00481313
0.00470648
0.004585
0.00440411
0.00419991
0.00399268
0.00375862
0.00348973
0.00328306
0.00299302
0.00258343
0.00216563
0.00193866
0.00171278
0.00149612
0.00132983
0.00117485
0.00106714
0.000987203
0.00094306
0.000936365
0.000972782
0.0010559
0.00118868
0.00137207
0.00159211
0.00182563
0.00212308
0.00274726
0.00434798
0.0157469
0.0165475
0.0154674
0.0141394
0.0126583
0.011193
0.00987959
0.00875379
0.00782125
0.0069971
0.00650812
0.0063351
0.00627729
0.00627261
0.00624199
0.00616834
0.00605413
0.00590235
0.00571772
0.00553922
0.00533866
0.00513763
0.00491514
0.00456878
0.00404688
0.0035401
0.00318267
0.00285757
0.00262219
0.0024383
0.00231657
0.0022793
0.00234317
0.00251971
0.0028125
0.00321692
0.00370935
0.00425121
0.004864
0.00596925
0.00891586
0.0249295
0.025797
0.0246196
0.0228939
0.0208903
0.0188247
0.0168243
0.0149384
0.0132087
0.011614
0.0101175
0.00888502
0.00822703
0.00798554
0.00787998
0.0078214
0.00776726
0.00769312
0.00758817
0.00746919
0.00735573
0.0073007
0.00727836
0.00719803
0.00697919
0.00656934
0.00597836
0.00538998
0.00496461
0.00462959
0.00439269
0.00429335
0.00436458
0.00463366
0.00511168
0.00579095
0.00662496
0.00755052
0.00856776
0.0102197
0.0143706
0.0349418
0.0357598
0.0345829
0.0326254
0.0302435
0.027681
0.0251001
0.0225417
0.0201079
0.0178119
0.0155491
0.0135106
0.0119195
0.0107067
0.0100789
0.00972288
0.0095049
0.0093596
0.00924745
0.00915647
0.00910707
0.00916027
0.00931778
0.00951573
0.00964125
0.00959432
0.00933271
0.00889576
0.00835564
0.00782343
0.00741703
0.00720844
0.00725182
0.0075982
0.00827267
0.00927058
0.010503
0.0118701
0.0133221
0.0154847
0.0204759
0.0454002
0.0461218
0.0450084
0.0429833
0.0404024
0.0374475
0.034326
0.0311902
0.0281495
0.0252247
0.0222942
0.019562
0.0172498
0.0153381
0.0137383
0.0125172
0.011843
0.0113825
0.0110433
0.0108054
0.0106912
0.0107548
0.0110137
0.0114432
0.0119246
0.0123016
0.0124648
0.0123945
0.0121364
0.0117706
0.0114086
0.011189
0.0112522
0.0116873
0.0125451
0.0138791
0.0155397
0.0173784
0.0192323
0.0217695
0.0271039
0.0559907
0.0565786
0.0555617
0.0536017
0.050967
0.0478516
0.0444621
0.0409514
0.0374498
0.0339977
0.0304779
0.0271081
0.0241466
0.0216114
0.0193265
0.0172715
0.0154877
0.0143591
0.0135393
0.0128955
0.0124463
0.0122821
0.0124371
0.0129235
0.013669
0.0144864
0.0151685
0.015596
0.0157625
0.0157338
0.0156268
0.015613
0.0159132
0.0167183
0.0180932
0.0199298
0.0220131
0.0243174
0.0264557
0.0291544
0.0341298
0.0663624
0.0668297
0.0659325
0.0641284
0.0616015
0.0585479
0.0551375
0.0514973
0.0477548
0.0439596
0.0400056
0.0361136
0.0325762
0.029451
0.0265734
0.0238934
0.0213669
0.0190837
0.0174424
0.016128
0.0150403
0.0143147
0.0140215
0.0141896
0.0148546
0.0159101
0.0171043
0.0181631
0.0189362
0.0194209
0.0197151
0.0200092
0.0205925
0.0217858
0.0238036
0.026624
0.0298999
0.0330021
0.0352264
0.0377918
0.0417181
0.0762748
0.0766256
0.075848
0.074249
0.0719524
0.0691257
0.0658975
0.0623583
0.0586158
0.0547106
0.0505458
0.0463257
0.042355
0.0387295
0.0353264
0.0321088
0.029037
0.0260482
0.0233588
0.0211815
0.0192779
0.0177603
0.0167008
0.0160992
0.0161027
0.0167841
0.0180519
0.019625
0.0211494
0.0223919
0.0233247
0.0240946
0.0250028
0.0264739
0.028909
0.0324466
0.0368502
0.0415234
0.0455063
0.0479337
0.0505414
0.085486
0.0857379
0.0850775
0.0837046
0.0817033
0.079205
0.0763004
0.0730437
0.0695143
0.0657144
0.0615717
0.0572575
0.0530603
0.0491074
0.0453373
0.0417044
0.0381908
0.0347479
0.0313726
0.0283544
0.0256495
0.0233509
0.0214682
0.019896
0.0188089
0.0184011
0.0188114
0.0200293
0.0218328
0.0238403
0.0256941
0.0272636
0.0287193
0.0304864
0.0331149
0.0370006
0.0421187
0.0479929
0.053786
0.0584658
0.0612026
0.0938367
0.0940123
0.0934616
0.0923127
0.090624
0.0884955
0.0859883
0.0831136
0.0799273
0.076444
0.072576
0.0684423
0.0642861
0.060234
0.0562522
0.0523541
0.0485379
0.0447916
0.0410368
0.0374129
0.0340869
0.031209
0.0287145
0.0263601
0.0242506
0.0225627
0.0215142
0.0213081
0.0220502
0.0236683
0.0258894
0.0283315
0.0307115
0.0330812
0.0358992
0.0397774
0.0450455
0.0515118
0.0584874
0.0649654
0.0699411
0.10125
0.101371
0.100917
0.0999721
0.0985799
0.0968159
0.0947215
0.0922845
0.0895468
0.0865101
0.083091
0.0793618
0.0755036
0.0716189
0.0676865
0.0637393
0.0597964
0.0558647
0.0519186
0.047927
0.0441309
0.0408971
0.0380742
0.035311
0.0326149
0.0300627
0.0277964
0.0260164
0.0249493
0.0247905
0.0256318
0.0274057
0.0298906
0.0328262
0.0361266
0.0400353
0.045012
0.0513373
0.0587266
0.0663427
0.0731086
0.107722
0.107799
0.107423
0.106654
0.105523
0.10409
0.102382
0.10038
0.0981151
0.0955801
0.0927007
0.0895133
0.0861273
0.0826237
0.0789911
0.0752678
0.0714609
0.0675823
0.0636352
0.0595946
0.0554771
0.0518386
0.0488088
0.0459234
0.0430779
0.0402432
0.0374505
0.034788
0.0324018
0.0304859
0.0292534
0.0288895
0.0294997
0.0310818
0.0335654
0.03691
0.0412248
0.0467724
0.0536638
0.0615159
0.0694669
0.113287
0.113325
0.113011
0.112387
0.111479
0.11033
0.108961
0.107351
0.105526
0.103477
0.101141
0.0985195
0.0957
0.0927238
0.0895735
0.0862705
0.0828292
0.0792682
0.075576
0.071746
0.067758
0.064047
0.0607258
0.0576195
0.0547359
0.0519353
0.0491407
0.0463339
0.0435444
0.0408479
0.038367
0.0362647
0.0347226
0.033908
0.0339478
0.0349251
0.0369095
0.0400428
0.0445298
0.0504965
0.0577961
0.117994
0.118009
0.11775
0.117247
0.116524
0.115611
0.114524
0.113248
0.111801
0.110178
0.10832
0.106239
0.103985
0.101577
0.0989918
0.096237
0.0933178
0.0902384
0.0869991
0.0835959
0.080023
0.0766356
0.0735009
0.0703853
0.0673284
0.0644211
0.0617022
0.0590573
0.0564144
0.0537506
0.0510798
0.0484512
0.0459497
0.0436899
0.0418012
0.0404256
0.0396908
0.0397131
0.0406396
0.0426428
0.0460199
0.12196
0.121958
0.121741
0.121334
0.120767
0.12004
0.119178
0.118172
0.117036
0.115766
0.114318
0.112701
0.110945
0.10906
0.107016
0.104819
0.102478
0.0999794
0.0973166
0.0944834
0.0914711
0.0885845
0.0858873
0.0831581
0.080402
0.0776432
0.0749186
0.0722425
0.0696821
0.0672351
0.0648278
0.0624192
0.0599961
0.0575743
0.0551873
0.0529062
0.0508199
0.0490065
0.0475645
0.0466045
0.0462601
0.125286
0.12527
0.125086
0.124756
0.124302
0.123725
0.123044
0.122254
0.121367
0.12038
0.119262
0.11802
0.116675
0.115222
0.113651
0.111959
0.110146
0.108202
0.106129
0.103909
0.101528
0.0992219
0.0970471
0.0948361
0.0925889
0.0903051
0.0879891
0.0856498
0.083308
0.0809854
0.0786896
0.076425
0.0742185
0.0720681
0.0699415
0.0678231
0.0657153
0.0636207
0.0615702
0.0596246
0.0577182
0.127937
0.127916
0.127762
0.127493
0.127124
0.126662
0.126118
0.125496
0.124793
0.124013
0.123136
0.122171
0.121132
0.120012
0.118806
0.117512
0.116126
0.114642
0.113055
0.111356
0.109535
0.107762
0.10608
0.104367
0.102623
0.10085
0.0990447
0.0972117
0.0953474
0.0934552
0.0915417
0.0896143
0.087684
0.0857594
0.0838368
0.0819178
0.0800028
0.0780735
0.076139
0.0742882
0.0723682
0.129976
0.129952
0.129821
0.129598
0.129294
0.128921
0.128476
0.12797
0.127401
0.126773
0.126078
0.125312
0.12449
0.123608
0.122663
0.121654
0.120579
0.119433
0.118212
0.116908
0.115517
0.114158
0.112868
0.111556
0.110222
0.108868
0.107493
0.106097
0.104679
0.103237
0.101774
0.100288
0.0987787
0.0972486
0.0956943
0.0941213
0.0925356
0.0909264
0.0892907
0.0876466
0.0859237
0.131574
0.131549
0.131437
0.13125
0.130995
0.130683
0.130314
0.129895
0.12943
0.128915
0.128348
0.127726
0.127063
0.126359
0.125604
0.124802
0.123951
0.123049
0.122093
0.121078
0.120001
0.11895
0.117952
0.11694
0.115916
0.11488
0.113831
0.11277
0.111696
0.110609
0.109507
0.108391
0.107259
0.106112
0.104942
0.103751
0.102542
0.101307
0.100043
0.0987554
0.0974021
0.132856
0.132833
0.132738
0.132578
0.132362
0.132097
0.13179
0.131437
0.131047
0.130617
0.130145
0.129636
0.129091
0.128516
0.127902
0.127253
0.126568
0.125847
0.125086
0.124284
0.123437
0.122612
0.12183
0.121039
0.120243
0.119441
0.11863
0.117813
0.116992
0.116166
0.115334
0.114493
0.113645
0.112789
0.111921
0.111038
0.110144
0.109231
0.108297
0.107344
0.106352
0.133907
0.133887
0.133805
0.133668
0.133483
0.133255
0.132991
0.132694
0.132362
0.132001
0.131605
0.131178
0.130723
0.130245
0.129741
0.129209
0.128649
0.128063
0.127448
0.126804
0.126129
0.125471
0.124849
0.124223
0.123592
0.122963
0.122328
0.121691
0.121053
0.120417
0.119778
0.119138
0.118494
0.117848
0.117196
0.116538
0.115874
0.115199
0.114511
0.113813
0.113095
0.134782
0.134765
0.134695
0.134576
0.134415
0.134218
0.133989
0.133732
0.133451
0.133141
0.132806
0.132444
0.132063
0.131661
0.131239
0.130798
0.130338
0.129855
0.129352
0.128827
0.12828
0.127749
0.127246
0.126744
0.126239
0.125738
0.125234
0.124731
0.124229
0.123728
0.123232
0.122737
0.122243
0.121749
0.121252
0.120752
0.120251
0.119745
0.119232
0.118714
0.118188
0.135521
0.135507
0.135445
0.135342
0.135201
0.135029
0.13483
0.134607
0.134362
0.134095
0.133807
0.133497
0.133171
0.132832
0.132476
0.132105
0.13172
0.131321
0.130907
0.130475
0.130028
0.129593
0.129183
0.128774
0.128367
0.127963
0.127559
0.127156
0.126756
0.126358
0.125964
0.125574
0.125188
0.124804
0.124421
0.124037
0.123654
0.123268
0.12288
0.122491
0.122101
0.136152
0.136139
0.136086
0.135995
0.135872
0.135721
0.135547
0.135352
0.135138
0.134907
0.134657
0.134391
0.134111
0.13382
0.133517
0.133204
0.132878
0.132541
0.132194
0.131836
0.131469
0.13111
0.130771
0.130435
0.130102
0.129771
0.129443
0.129117
0.128795
0.128476
0.128161
0.127849
0.127542
0.127239
0.126938
0.12664
0.126345
0.126049
0.125752
0.125456
0.125161
0.136695
0.136684
0.136637
0.136558
0.13645
0.136318
0.136165
0.135993
0.135805
0.135602
0.135386
0.135155
0.134914
0.134662
0.134401
0.134132
0.133856
0.133572
0.133278
0.132977
0.13267
0.132372
0.132091
0.131812
0.131537
0.131264
0.130994
0.130728
0.130465
0.130206
0.129952
0.129701
0.129455
0.129212
0.128973
0.128737
0.128504
0.128275
0.128046
0.127818
0.127594
0.137166
0.137157
0.137117
0.137047
0.136953
0.136837
0.136702
0.13655
0.136384
0.136206
0.136015
0.135815
0.135604
0.135387
0.135162
0.134931
0.134693
0.13445
0.134201
0.133948
0.133688
0.133437
0.133201
0.132968
0.132738
0.132511
0.132288
0.132068
0.131852
0.13164
0.131432
0.131228
0.131029
0.130833
0.130641
0.130452
0.130266
0.130084
0.129903
0.129725
0.129554
0.137578
0.137571
0.137536
0.137476
0.137394
0.137291
0.137172
0.137038
0.136891
0.136733
0.136565
0.136388
0.136205
0.136015
0.135821
0.13562
0.135416
0.135207
0.134994
0.134777
0.134558
0.134346
0.134146
0.133949
0.133755
0.133565
0.133378
0.133195
0.133016
0.132841
0.13267
0.132503
0.132339
0.13218
0.132024
0.131872
0.131723
0.131577
0.131433
0.131292
0.131157
0.137939
0.137935
0.137906
0.137855
0.137783
0.137692
0.137587
0.137468
0.137337
0.137197
0.137048
0.136892
0.136729
0.136563
0.136392
0.136218
0.136041
0.13586
0.135677
0.135492
0.135305
0.135124
0.134954
0.134786
0.134622
0.134461
0.134304
0.134151
0.134001
0.133856
0.133714
0.133576
0.133442
0.133311
0.133184
0.13306
0.13294
0.132822
0.132706
0.132593
0.132486
0.138258
0.138257
0.138235
0.138191
0.138128
0.138048
0.137954
0.137848
0.137732
0.137607
0.137475
0.137335
0.137192
0.137044
0.136894
0.136741
0.136585
0.136429
0.136271
0.136112
0.135952
0.135797
0.13565
0.135507
0.135367
0.13523
0.135097
0.134968
0.134842
0.13472
0.134602
0.134487
0.134376
0.134269
0.134164
0.134063
0.133965
0.133869
0.133776
0.133685
0.133599
0.138542
0.138544
0.138527
0.13849
0.138435
0.138365
0.138281
0.138186
0.138082
0.137971
0.137853
0.137729
0.137601
0.137471
0.137337
0.137202
0.137066
0.136929
0.136791
0.136653
0.136516
0.136382
0.136256
0.136133
0.136013
0.135896
0.135783
0.135673
0.135566
0.135464
0.135364
0.135268
0.135176
0.135087
0.135
0.134917
0.134836
0.134758
0.134682
0.134609
0.13454
0.138795
0.138802
0.13879
0.138758
0.13871
0.138647
0.138572
0.138487
0.138395
0.138295
0.13819
0.13808
0.137966
0.13785
0.137732
0.137613
0.137492
0.137372
0.137251
0.13713
0.137012
0.136895
0.136786
0.136679
0.136576
0.136476
0.136379
0.136285
0.136195
0.136108
0.136024
0.135943
0.135866
0.135791
0.135719
0.13565
0.135584
0.13552
0.135457
0.135398
0.135342
0.139022
0.139033
0.139025
0.138998
0.138956
0.1389
0.138833
0.138758
0.138675
0.138587
0.138493
0.138395
0.138294
0.138191
0.138086
0.137981
0.137874
0.137768
0.137662
0.137556
0.137453
0.137351
0.137256
0.137163
0.137074
0.136987
0.136904
0.136823
0.136746
0.136672
0.136601
0.136532
0.136467
0.136404
0.136344
0.136287
0.136232
0.136179
0.136128
0.136079
0.136034
0.139227
0.139242
0.139237
0.139214
0.139176
0.139127
0.139069
0.139003
0.138931
0.138853
0.13877
0.138683
0.138594
0.138502
0.138409
0.138315
0.138221
0.138127
0.138034
0.137941
0.13785
0.137761
0.137678
0.137597
0.137519
0.137444
0.137372
0.137302
0.137236
0.137172
0.137111
0.137053
0.136998
0.136945
0.136895
0.136847
0.136801
0.136757
0.136714
0.136674
0.136638
0.139412
0.13943
0.139427
0.139407
0.139375
0.139334
0.139285
0.139229
0.139166
0.139099
0.139026
0.13895
0.138871
0.13879
0.138708
0.138624
0.138541
0.138458
0.138375
0.138293
0.138214
0.138136
0.138062
0.137991
0.137923
0.137858
0.137795
0.137735
0.137677
0.137623
0.13757
0.137521
0.137474
0.137429
0.137386
0.137346
0.137307
0.13727
0.137235
0.137202
0.137172
0.13958
0.139599
0.139597
0.139581
0.139557
0.139525
0.139486
0.13944
0.139389
0.139332
0.13927
0.139203
0.139134
0.139063
0.13899
0.138916
0.138842
0.138769
0.138696
0.138623
0.138553
0.138484
0.138419
0.138357
0.138297
0.13824
0.138185
0.138132
0.138082
0.138035
0.13799
0.137947
0.137907
0.137869
0.137832
0.137798
0.137766
0.137735
0.137706
0.137678
0.137654
0.139732
0.139749
0.139749
0.13974
0.139725
0.139703
0.139676
0.139642
0.139602
0.139556
0.139505
0.13945
0.139391
0.13933
0.139266
0.139201
0.139136
0.139071
0.139006
0.138942
0.138879
0.138819
0.138761
0.138706
0.138653
0.138602
0.138554
0.138508
0.138464
0.138423
0.138384
0.138347
0.138312
0.138279
0.138249
0.13822
0.138193
0.138167
0.138144
0.138121
0.138102
0.139865
0.13988
0.139883
0.139881
0.139876
0.139866
0.139851
0.13983
0.139804
0.139773
0.139736
0.139696
0.139651
0.139603
0.139552
0.139499
0.139444
0.139388
0.139333
0.139278
0.139226
0.139173
0.139123
0.139075
0.139029
0.138985
0.138943
0.138903
0.138867
0.138832
0.1388
0.13877
0.138743
0.138718
0.138695
0.138675
0.138656
0.138639
0.138624
0.138611
0.138601
0.139968
0.13998
0.139985
0.139989
0.139989
0.139987
0.139981
0.139973
0.139961
0.139947
0.139929
0.139909
0.139886
0.13986
0.139833
0.139803
0.139772
0.139739
0.139704
0.139669
0.139635
0.1396
0.139565
0.139531
0.139498
0.139466
0.139436
0.139408
0.139381
0.139356
0.139333
0.139312
0.139293
0.139276
0.13926
0.139247
0.139235
0.139224
0.139215
0.139208
0.139203
0.140022
0.140031
0.140037
0.140041
0.140044
0.140045
0.140044
0.140042
0.140038
0.140032
0.140025
0.140016
0.140006
0.139994
0.139982
0.139968
0.139953
0.139938
0.139922
0.139906
0.13989
0.139873
0.139856
0.139839
0.139822
0.139806
0.13979
0.139774
0.13976
0.139746
0.139733
0.139722
0.139711
0.139702
0.139693
0.139685
0.139679
0.139673
0.139668
0.139664
0.139662
0.14005
0.140057
0.140063
0.140069
0.140073
0.140076
0.140078
0.14008
0.14008
0.14008
0.140078
0.140075
0.140072
0.140067
0.140062
0.140056
0.14005
0.140043
0.140036
0.140029
0.140022
0.140014
0.140007
0.139999
0.139992
0.139985
0.139978
0.139971
0.139965
0.139959
0.139953
0.139948
0.139943
0.139939
0.139935
0.139932
0.139929
0.139926
0.139924
0.139923
0.139922
0.140063
0.14007
0.140077
0.140082
0.140088
0.140093
0.140097
0.140101
0.140104
0.140107
0.140109
0.14011
0.140111
0.140111
0.140111
0.140109
0.140108
0.140106
0.140104
0.140101
0.140099
0.140096
0.140093
0.14009
0.140087
0.140084
0.140081
0.140078
0.140076
0.140074
0.140071
0.140069
0.140068
0.140066
0.140065
0.140064
0.140063
0.140062
0.140062
0.140062
0.140062
0.140068
0.140075
0.140081
0.140087
0.140093
0.140099
0.140105
0.140111
0.140116
0.140122
0.140126
0.14013
0.140134
0.140137
0.14014
0.140142
0.140144
0.140145
0.140146
0.140147
0.140147
0.140148
0.140148
0.140147
0.140147
0.140147
0.140146
0.140146
0.140145
0.140145
0.140145
0.140144
0.140144
0.140144
0.140144
0.140144
0.140145
0.140145
0.140145
0.140146
0.140147
0.140067
0.140072
0.140078
0.140084
0.140091
0.140097
0.140104
0.140112
0.140119
0.140126
0.140132
0.140139
0.140145
0.14015
0.140156
0.14016
0.140165
0.140168
0.140172
0.140175
0.140178
0.14018
0.140182
0.140184
0.140186
0.140187
0.140189
0.14019
0.140191
0.140192
0.140193
0.140194
0.140195
0.140196
0.140197
0.140198
0.140199
0.1402
0.140201
0.140202
0.140203
0.140059
0.140065
0.14007
0.140075
0.140082
0.140089
0.140096
0.140104
0.140112
0.14012
0.140128
0.140136
0.140144
0.140151
0.140159
0.140165
0.140172
0.140178
0.140183
0.140188
0.140193
0.140197
0.140201
0.140205
0.140208
0.140211
0.140214
0.140216
0.140219
0.140221
0.140223
0.140225
0.140227
0.140228
0.14023
0.140232
0.140233
0.140235
0.140236
0.140237
0.140239
0.140048
0.140052
0.140056
0.140061
0.140067
0.140073
0.14008
0.140088
0.140096
0.140104
0.140113
0.140122
0.14013
0.140139
0.140148
0.140156
0.140164
0.140172
0.140179
0.140186
0.140192
0.140198
0.140204
0.140209
0.140214
0.140218
0.140222
0.140226
0.140229
0.140232
0.140235
0.140238
0.140241
0.140243
0.140245
0.140247
0.140249
0.140251
0.140253
0.140254
0.140256
0.140032
0.140034
0.140037
0.140041
0.140045
0.14005
0.140056
0.140062
0.140069
0.140076
0.140084
0.140092
0.1401
0.140109
0.140118
0.140126
0.140135
0.140144
0.140152
0.140161
0.140169
0.140177
0.140185
0.140192
0.140199
0.140206
0.140212
0.140218
0.140223
0.140229
0.140234
0.140238
0.140242
0.140246
0.14025
0.140253
0.140256
0.140259
0.140262
0.140265
0.140267
0.140011
0.140012
0.140014
0.140015
0.140017
0.140019
0.140021
0.140024
0.140027
0.140031
0.140035
0.140039
0.140044
0.140049
0.140055
0.140061
0.140065
0.140067
0.14007
0.140074
0.140077
0.140081
0.140085
0.14009
0.140094
0.140099
0.140104
0.140108
0.140112
0.140117
0.140121
0.140125
0.140129
0.140132
0.140136
0.140139
0.140142
0.140145
0.140147
0.14015
0.140152
0.00616343
0.00819112
0.00895138
0.0101797
0.0126388
0.0160769
0.0200614
0.0243336
0.0287418
0.0331948
0.0376379
0.042034
0.0463572
0.0505884
0.054715
0.0587294
0.0626274
0.0664071
0.0700682
0.073611
0.0770365
0.0803464
0.0835427
0.0866274
0.0896014
0.0924643
0.0952132
0.0978451
0.100358
0.102753
0.105029
0.107189
0.109235
0.111169
0.112993
0.114711
0.116326
0.117843
0.119266
0.120599
0.121847
0.123015
0.124107
0.125128
0.126083
0.126975
0.127809
0.128588
0.129318
0.130001
0.130641
0.131241
0.131804
0.132335
0.132838
0.133317
0.133775
0.134213
0.134632
0.135033
0.135416
0.135781
0.136129
0.13646
0.136774
0.137071
0.137352
0.137618
0.137868
0.138104
0.138327
0.138537
0.13872
0.13897
0.013128
0.0158887
0.0153687
0.0140178
0.0139106
0.0157859
0.0190878
0.0230894
0.0274071
0.0318372
0.0362884
0.0407068
0.0450602
0.0493262
0.0534902
0.057544
0.0614826
0.0653036
0.0690065
0.0725916
0.0760597
0.0794127
0.0826526
0.0857815
0.0887999
0.0917065
0.0944981
0.0971718
0.0997267
0.102163
0.10448
0.10668
0.108764
0.110733
0.112591
0.11434
0.115985
0.117529
0.118976
0.120333
0.121602
0.12279
0.123901
0.124939
0.125908
0.126815
0.127661
0.128453
0.129193
0.129885
0.130534
0.131142
0.131713
0.13225
0.132758
0.13324
0.133699
0.134139
0.134559
0.13496
0.135344
0.135711
0.136061
0.136394
0.136711
0.137011
0.137295
0.137563
0.137816
0.138054
0.138278
0.138491
0.138674
0.13893
0.0204019
0.0249041
0.0245952
0.0218026
0.0188347
0.0176672
0.0189732
0.0220541
0.0260153
0.0303127
0.0347317
0.0391575
0.0435388
0.0478424
0.0520501
0.0561512
0.060139
0.0640102
0.0677641
0.0714006
0.0749204
0.078325
0.0816167
0.0847976
0.0878679
0.0908257
0.0936676
0.0963908
0.0989944
0.101478
0.103842
0.106087
0.108215
0.110227
0.112125
0.113912
0.115591
0.117167
0.118645
0.120029
0.121324
0.122535
0.123667
0.124724
0.125712
0.126634
0.127496
0.128301
0.129053
0.129757
0.130416
0.131033
0.131612
0.132156
0.13267
0.133156
0.133618
0.134059
0.134481
0.134884
0.135269
0.135637
0.135989
0.136324
0.136644
0.136947
0.137234
0.137505
0.137761
0.138002
0.138228
0.138443
0.138629
0.138891
0.0271453
0.0338594
0.0347832
0.032055
0.0276477
0.0235367
0.0215096
0.0222103
0.0249716
0.0287834
0.03302
0.037386
0.0417707
0.0461036
0.0503561
0.0545106
0.0585557
0.0624866
0.0663017
0.0700003
0.0735823
0.077049
0.0804026
0.0836451
0.0867767
0.0897949
0.0926964
0.0954784
0.0981398
0.10068
0.103098
0.105396
0.107575
0.109635
0.111581
0.113412
0.115134
0.116749
0.118262
0.119678
0.121003
0.122242
0.123399
0.124479
0.125488
0.12643
0.127309
0.128129
0.128896
0.129613
0.130283
0.130911
0.1315
0.132052
0.132572
0.133064
0.13353
0.133974
0.134397
0.134802
0.135188
0.135558
0.135912
0.13625
0.136573
0.13688
0.13717
0.137445
0.137703
0.137947
0.138176
0.138394
0.138583
0.13885
0.0334464
0.0424458
0.0449955
0.0432459
0.0388833
0.0333899
0.028432
0.0256044
0.025593
0.0278558
0.0314004
0.035496
0.0397864
0.0440981
0.0483782
0.0525832
0.0566889
0.0606869
0.0645733
0.0683454
0.0720018
0.0755426
0.07897
0.082286
0.0854903
0.0885805
0.091553
0.0944048
0.097135
0.099742
0.102225
0.104586
0.106825
0.108943
0.110942
0.112825
0.114596
0.116258
0.117814
0.11927
0.120632
0.121903
0.12309
0.124198
0.125232
0.126196
0.127095
0.127935
0.128718
0.12945
0.130134
0.130774
0.131373
0.131935
0.132464
0.132962
0.133433
0.133881
0.134307
0.134714
0.135103
0.135475
0.135831
0.136172
0.136498
0.136808
0.137102
0.13738
0.137642
0.137889
0.138122
0.138343
0.138534
0.138809
0.0393995
0.0504873
0.0547078
0.0543996
0.0510166
0.0456513
0.0394526
0.0338229
0.0301822
0.0292802
0.0308178
0.0339058
0.0377573
0.0419037
0.0461379
0.0503564
0.054505
0.0585666
0.06253
0.0663855
0.0701278
0.0737554
0.0772699
0.0806731
0.0839641
0.0871399
0.0901972
0.0931327
0.0959448
0.0986318
0.101193
0.103629
0.105939
0.108126
0.11019
0.112135
0.113963
0.115679
0.117286
0.11879
0.120195
0.121506
0.12273
0.123871
0.124934
0.125925
0.126849
0.127711
0.128514
0.129264
0.129964
0.130618
0.13123
0.131803
0.132341
0.132848
0.133325
0.133778
0.134209
0.134619
0.13501
0.135385
0.135744
0.136088
0.136417
0.136731
0.137029
0.137311
0.137577
0.137828
0.138065
0.13829
0.138483
0.138765
0.0450301
0.0576565
0.0634406
0.0647935
0.0629191
0.0586519
0.0527614
0.0461558
0.0399945
0.0355169
0.0335445
0.0340727
0.0364414
0.03986
0.0437734
0.0478755
0.0520111
0.0561106
0.0601395
0.0640766
0.0679094
0.0716325
0.0752462
0.0787509
0.0821435
0.0854204
0.0885786
0.0916142
0.0945245
0.0973076
0.099962
0.102488
0.104885
0.107155
0.109298
0.111316
0.113214
0.114994
0.116661
0.118221
0.119677
0.121037
0.122304
0.123485
0.124585
0.125609
0.126563
0.127451
0.128278
0.129049
0.129768
0.130439
0.131066
0.131653
0.132202
0.132719
0.133205
0.133665
0.134101
0.134515
0.13491
0.135288
0.13565
0.135997
0.13633
0.136648
0.136951
0.137237
0.137508
0.137764
0.138005
0.138234
0.13843
0.138719
0.0501521
0.0635048
0.0706727
0.0737328
0.0736375
0.071033
0.0664512
0.0604426
0.0537114
0.0471853
0.0419162
0.0387549
0.0379915
0.0392884
0.0419897
0.045481
0.0493459
0.053353
0.0573842
0.0613767
0.0652952
0.0691204
0.0728441
0.076462
0.0799684
0.0833599
0.0866363
0.0897901
0.0928172
0.0957155
0.0984824
0.101117
0.103619
0.105989
0.108227
0.110336
0.112318
0.114177
0.115918
0.117545
0.119063
0.12048
0.121799
0.123028
0.124171
0.125235
0.126224
0.127144
0.128
0.128797
0.12954
0.130231
0.130877
0.13148
0.132044
0.132573
0.133069
0.133538
0.133981
0.134401
0.134801
0.135183
0.135549
0.1359
0.136237
0.136559
0.136866
0.137158
0.137435
0.137696
0.137941
0.138174
0.138374
0.138671
0.056024
0.0676325
0.0758381
0.0804936
0.0822271
0.0815688
0.0788824
0.0744727
0.0687277
0.0621776
0.0555326
0.0496431
0.0453227
0.0430785
0.0429378
0.0445156
0.0472597
0.0506798
0.0544401
0.0583411
0.0622703
0.0661648
0.0699904
0.0737285
0.0773655
0.0808927
0.0843046
0.0875919
0.0907537
0.0937887
0.0966897
0.0994557
0.102085
0.104576
0.106931
0.10915
0.111237
0.113193
0.115024
0.116734
0.118328
0.119815
0.121198
0.122484
0.12368
0.124792
0.125824
0.126783
0.127675
0.128503
0.129273
0.12999
0.130658
0.131281
0.131862
0.132406
0.132916
0.133395
0.133847
0.134275
0.134682
0.135069
0.135439
0.135794
0.136136
0.136463
0.136776
0.137074
0.137357
0.137623
0.137873
0.138111
0.138314
0.13862
0.0635386
0.0702287
0.078578
0.0844488
0.0877722
0.0890635
0.088545
0.0862866
0.0824794
0.0773907
0.071386
0.064969
0.0587869
0.0535483
0.049858
0.0480411
0.0480613
0.0495933
0.0521933
0.0554534
0.0590725
0.0628562
0.0666883
0.0705015
0.0742549
0.0779225
0.0814879
0.0849361
0.0882594
0.0914512
0.0945056
0.0974275
0.100209
0.102849
0.105347
0.107702
0.109916
0.111992
0.113935
0.115748
0.117438
0.119011
0.120474
0.121832
0.123093
0.124263
0.125348
0.126355
0.127289
0.128156
0.12896
0.129708
0.130403
0.13105
0.131652
0.132215
0.13274
0.133233
0.133697
0.134134
0.134549
0.134942
0.135319
0.135679
0.136026
0.136359
0.136678
0.136983
0.137272
0.137545
0.137801
0.138044
0.13825
0.138565
0.0733771
0.0765907
0.0797907
0.0857849
0.089759
0.0925317
0.0940951
0.0941046
0.0926775
0.0899023
0.0858886
0.0808384
0.0750853
0.0690903
0.0634098
0.0586197
0.055199
0.0534136
0.0532618
0.0545152
0.0568265
0.0598433
0.0632787
0.0669311
0.0706697
0.0744119
0.0781057
0.0817155
0.0852184
0.088598
0.0918423
0.0949472
0.0979037
0.10072
0.103391
0.105912
0.108285
0.110511
0.112594
0.114537
0.116346
0.118029
0.11959
0.121039
0.122381
0.123624
0.124776
0.125842
0.126829
0.127743
0.12859
0.129375
0.130103
0.130779
0.131407
0.131992
0.132538
0.133048
0.133526
0.133976
0.1344
0.134802
0.135186
0.135553
0.135905
0.136245
0.136573
0.136885
0.137181
0.13746
0.137722
0.137972
0.138182
0.138507
0.0780028
0.0816201
0.0847435
0.0875484
0.0893324
0.0921834
0.0950021
0.0966563
0.097444
0.0972399
0.0958604
0.0932668
0.089583
0.0850032
0.0798025
0.074355
0.0691192
0.0645799
0.0611606
0.0591356
0.0585783
0.0593678
0.0612508
0.0639272
0.06712
0.0706109
0.0742445
0.0779155
0.0815544
0.0851148
0.0885655
0.0918871
0.0950638
0.0980922
0.100962
0.103682
0.10625
0.108662
0.11092
0.113026
0.114987
0.116809
0.118497
0.12006
0.121506
0.122843
0.124078
0.125218
0.126272
0.127245
0.128145
0.128977
0.129746
0.130459
0.131119
0.131732
0.132302
0.132833
0.133329
0.133795
0.134232
0.134646
0.135038
0.135413
0.135774
0.136123
0.136458
0.136778
0.137082
0.137369
0.137637
0.137894
0.138109
0.138444
0.075483
0.0798427
0.0837778
0.0871814
0.0898807
0.0921472
0.0938344
0.0948159
0.0964564
0.0981974
0.0991515
0.0990927
0.0981544
0.0962664
0.0933931
0.0896218
0.0851686
0.0803471
0.0755419
0.0711711
0.0676306
0.0652255
0.0641152
0.0642921
0.0656068
0.0678232
0.070683
0.0739528
0.0774475
0.0810323
0.084614
0.0881303
0.0915386
0.0948139
0.0979355
0.100899
0.103694
0.106329
0.108805
0.111118
0.113272
0.115271
0.117122
0.118834
0.120413
0.12187
0.123212
0.124449
0.125588
0.126637
0.127604
0.128495
0.129317
0.130075
0.130776
0.131424
0.132025
0.132582
0.133102
0.133587
0.134041
0.134469
0.134873
0.135259
0.13563
0.135988
0.136332
0.136661
0.136974
0.137269
0.137545
0.137809
0.138031
0.138376
0.0639519
0.0689953
0.0738777
0.0785021
0.0827388
0.0865297
0.0897891
0.0924332
0.0945903
0.096178
0.0970632
0.0975497
0.0987633
0.099616
0.0996079
0.0986226
0.0967273
0.0939858
0.0905062
0.0864894
0.0822341
0.0781035
0.0744759
0.071687
0.069976
0.0694483
0.0700689
0.0716883
0.0740899
0.0770412
0.0803323
0.083795
0.0873048
0.090776
0.0941494
0.0973896
0.10047
0.103383
0.106117
0.108679
0.111075
0.113302
0.115365
0.117269
0.119024
0.120638
0.122121
0.123484
0.124734
0.125882
0.126935
0.127903
0.128792
0.129609
0.130361
0.131054
0.131694
0.132286
0.132834
0.133344
0.13382
0.134266
0.134686
0.135086
0.13547
0.135838
0.136193
0.136532
0.136854
0.137159
0.137445
0.137717
0.137945
0.138302
0.0491651
0.0522298
0.0557635
0.0598117
0.0643524
0.0693063
0.0745171
0.0797415
0.0846933
0.0890616
0.092557
0.0950542
0.0968242
0.0979632
0.0984573
0.0987831
0.0993322
0.0995111
0.0989101
0.0974103
0.0950852
0.0920811
0.0886085
0.0849494
0.0814386
0.0784195
0.0761914
0.0749615
0.0748144
0.07571
0.0775071
0.0800052
0.0829885
0.0862606
0.0896616
0.0930737
0.096413
0.0996272
0.10268
0.105557
0.108247
0.110752
0.113082
0.115238
0.117223
0.119047
0.120718
0.122247
0.123646
0.124924
0.126093
0.127161
0.128139
0.129033
0.129852
0.130604
0.131294
0.13193
0.132516
0.133059
0.133562
0.134032
0.134473
0.134891
0.13529
0.135672
0.136038
0.136388
0.136722
0.137037
0.137334
0.137616
0.137853
0.138223
0.0466881
0.047457
0.0485306
0.0499339
0.0517256
0.0539781
0.0567698
0.0601708
0.064218
0.0688808
0.0740187
0.0793649
0.0845757
0.0892711
0.0930968
0.0959108
0.0978245
0.0989236
0.09922
0.0992465
0.0993266
0.0990532
0.0981007
0.0963828
0.0939956
0.0911391
0.0880828
0.0851417
0.0826366
0.0808463
0.0799642
0.0800718
0.081135
0.0830257
0.0855577
0.0885279
0.0917472
0.0950612
0.098353
0.101544
0.104581
0.107438
0.110101
0.112566