/*--------------------------------*- C++ -*----------------------------------*\
| =========                 |                                                 |
| \\      /  F ield         | OpenFOAM: The Open Source CFD Toolbox           |
|  \\    /   O peration     | Version:  5.x                                   |
|   \\  /    A nd           | Web:      www.OpenFOAM.org                      |
|    \\/     M anipulation  |                                                 |
\*---------------------------------------------------------------------------*/
FoamFile
{
    version     2.0;
    format      ascii;
    class       volScalarField;
    location    "300";
    object      nuTilda;
}
// * * * * * * * * * * * * * * * * * * * * * * * * * * * * * * * * * * * * * //

dimensions      [0 2 -1 0 0 0 0];

internalField   nonuniform List<scalar> 
11040
(
0.00245936
0.00119499
0.000429007
0.000586729
0.000509625
0.000500692
0.000465499
0.000429691
0.000394171
0.000362809
0.000343184
0.000333378
0.000331217
0.000334417
0.000342232
0.000354208
0.000370711
0.000392181
0.000419463
0.000453878
0.00049562
0.000540339
0.000584645
0.0006274
0.000667994
0.000710349
0.000757541
0.00080091
0.000838548
0.000869289
0.000891624
0.000904879
0.000911896
0.000917495
0.0009316
0.000974732
0.000899879
0.000636537
0.000687754
0.000785954
0.00102349
0.00519115
0.00380087
0.00282048
0.00277747
0.00211862
0.00178789
0.00134083
0.00110223
0.00093242
0.000785769
0.000699923
0.000664612
0.000667331
0.000689859
0.000724144
0.000762584
0.000800437
0.000836048
0.000870855
0.000912312
0.000967505
0.00102516
0.00107434
0.0011101
0.00113322
0.00117251
0.00127182
0.00138386
0.00150243
0.00162883
0.00176484
0.00191155
0.00206824
0.0022407
0.00243544
0.00265826
0.00288815
0.00312932
0.003467
0.00400932
0.00544829
0.0104536
0.00770472
0.00554462
0.00469958
0.00469696
0.00416352
0.00317722
0.00255256
0.00216925
0.00181009
0.00156516
0.001395
0.00130707
0.00129184
0.00131288
0.00134412
0.00138136
0.00141861
0.00145704
0.00151647
0.00163945
0.00180288
0.00198607
0.00219297
0.00242115
0.00266995
0.00293749
0.00322092
0.00351889
0.00383034
0.00415331
0.00448845
0.00484018
0.00521456
0.00562143
0.0060694
0.00656118
0.00711742
0.0078411
0.00902428
0.0118412
0.0175965
0.0132313
0.00956001
0.00723957
0.00655421
0.0066054
0.00599466
0.00481491
0.00412626
0.00343208
0.00293671
0.00256588
0.00232606
0.00220512
0.00216476
0.00218134
0.00224437
0.0023445
0.00248587
0.00267903
0.00293535
0.00324632
0.00360009
0.00400115
0.00443783
0.00490336
0.0053936
0.0059062
0.00643935
0.00699209
0.00756361
0.00815561
0.00876868
0.00941229
0.0101039
0.0108593
0.011694
0.0126467
0.0138488
0.0157493
0.0199568
0.0257339
0.0209061
0.0154912
0.0114756
0.00915297
0.00858491
0.00880033
0.00844463
0.00734545
0.00608026
0.00512293
0.00440522
0.00390395
0.00362744
0.00351439
0.0035196
0.00362666
0.00380798
0.00406116
0.00439518
0.00481907
0.00532691
0.0059042
0.00655202
0.0072581
0.00801171
0.00880471
0.00963064
0.0104852
0.0113657
0.0122677
0.0131888
0.0141295
0.0151038
0.0161389
0.0172603
0.0184971
0.0199061
0.0216481
0.0242567
0.0298145
0.0345346
0.0299266
0.0236486
0.0181854
0.0139439
0.0115068
0.0109634
0.0113791
0.011317
0.0103468
0.00874587
0.00745975
0.00644553
0.00580918
0.00550204
0.00545098
0.00559989
0.00588097
0.00626905
0.00677468
0.00740244
0.00815002
0.00900921
0.00998141
0.0110457
0.0121836
0.0133799
0.0146207
0.015896
0.0172018
0.0185282
0.0198691
0.021222
0.0225968
0.0240173
0.0255407
0.0272116
0.0291073
0.0314144
0.0347244
0.0413713
0.0438638
0.0396595
0.0335907
0.0269413
0.0213233
0.0169093
0.0143045
0.0136984
0.0142668
0.0145193
0.013744
0.012297
0.0105549
0.00929598
0.00855004
0.00824365
0.0083195
0.00867154
0.00923356
0.00997284
0.0108672
0.0119097
0.013119
0.0145058
0.0160337
0.0176717
0.0193935
0.0211727
0.0229866
0.0248312
0.0266883
0.0285448
0.0303929
0.0322394
0.0340997
0.0360246
0.0381157
0.0404763
0.043312
0.0472328
0.0545703
0.0535365
0.0497816
0.0443587
0.0377536
0.0308903
0.0251174
0.0204761
0.0175958
0.0167928
0.0174246
0.0179976
0.0175203
0.0162466
0.0146871
0.0132789
0.0124566
0.0122802
0.0126036
0.0132926
0.0142665
0.0154843
0.0168915
0.0185162
0.0204117
0.0225212
0.0247928
0.0271849
0.0296544
0.0321452
0.0346598
0.0371673
0.0396415
0.0420663
0.0444446
0.0467823
0.0491083
0.0515365
0.0542603
0.0575018
0.0618512
0.0694567
0.0633191
0.0600526
0.0553451
0.0494487
0.0426546
0.0356823
0.029707
0.0247482
0.0214576
0.02029
0.0208336
0.0217156
0.0216626
0.020696
0.0193728
0.018257
0.0177045
0.0178662
0.01866
0.0199573
0.0216589
0.0236231
0.0257912
0.0282692
0.0310489
0.0340622
0.0372449
0.0405279
0.0438533
0.0471861
0.0504778
0.0536792
0.0567587
0.059715
0.0625458
0.0652513
0.0679055
0.0707832
0.0741928
0.0786779
0.0860971
0.072956
0.0702025
0.0662062
0.0611589
0.0551713
0.0483672
0.0413414
0.0351524
0.0298172
0.0259996
0.0242836
0.024528
0.0256297
0.0261686
0.0256626
0.0247769
0.0241184
0.0241387
0.0250138
0.0267226
0.029161
0.0321028
0.0353284
0.0388133
0.0425112
0.0464243
0.0505572
0.0548238
0.0591276
0.0634131
0.0676091
0.0716244
0.0754009
0.0789342
0.082225
0.0852473
0.0880135
0.0907469
0.09394
0.0981457
0.104879
0.0821936
0.0799384
0.0766406
0.0724274
0.0673902
0.0615174
0.0548626
0.0478757
0.0414963
0.0357811
0.0313676
0.0289244
0.0286137
0.0297247
0.0308839
0.0311744
0.0309363
0.0310152
0.0319709
0.0340616
0.0373284
0.0415164
0.0462636
0.051437
0.0568856
0.0624772
0.0680964
0.0736506
0.0791083
0.0844812
0.0897092
0.0946308
0.0991289
0.103197
0.106865
0.110098
0.112814
0.115164
0.117619
0.12095
0.126427
0.0908056
0.0890069
0.0863652
0.0829446
0.0788155
0.0739922
0.0683912
0.0620092
0.055179
0.0486388
0.0426323
0.0376353
0.03436
0.0332519
0.0340306
0.0356612
0.03699
0.0378252
0.0390241
0.0414057
0.0453764
0.0507955
0.0572117
0.0643942
0.0720913
0.0800767
0.0881518
0.0961526
0.103926
0.111313
0.118131
0.1242
0.129416
0.133859
0.137732
0.141046
0.143508
0.145136
0.146474
0.148307
0.151726
0.0986192
0.0972173
0.0951535
0.0924545
0.0891618
0.0853004
0.0808094
0.0756109
0.0696486
0.0631441
0.0563819
0.0502252
0.0447709
0.0406875
0.0386093
0.0386856
0.0403741
0.0427103
0.0450869
0.0479904
0.0524412
0.0588016
0.0666974
0.075838
0.0858535
0.0964046
0.107164
0.117902
0.128399
0.138446
0.147852
0.156439
0.164046
0.17054
0.175774
0.179532
0.181598
0.182022
0.181689
0.181975
0.182998
0.105535
0.104463
0.102881
0.1008
0.0982428
0.0952278
0.0917124
0.0876603
0.0829657
0.0775647
0.071499
0.0649943
0.0587685
0.0529571
0.0481237
0.0449733
0.0439821
0.0451337
0.0479579
0.0519609
0.0572191
0.0642648
0.0732346
0.0839745
0.0960492
0.10898
0.12233
0.135737
0.148893
0.161528
0.173411
0.184346
0.194118
0.202617
0.209721
0.215318
0.219349
0.221846
0.222912
0.222738
0.221972
0.11153
0.110718
0.109521
0.10794
0.105991
0.103689
0.100998
0.0978931
0.0943306
0.0902324
0.08551
0.0800985
0.0741452
0.067821
0.0619155
0.0565973
0.0524887
0.0502437
0.0502805
0.05272
0.0576266
0.0649916
0.0746665
0.0865593
0.100284
0.115283
0.130988
0.146905
0.162613
0.177748
0.192007
0.205145
0.216957
0.227315
0.236105
0.243237
0.24869
0.252517
0.254777
0.255621
0.255517
0.116635
0.116023
0.115125
0.113933
0.112463
0.11073
0.108705
0.10637
0.103704
0.100672
0.0972124
0.0932187
0.0885973
0.0833243
0.0775528
0.0716286
0.0660796
0.0612546
0.0577881
0.0563292
0.0574704
0.0616484
0.0692162
0.0804761
0.09497
0.111631
0.129472
0.147776
0.16598
0.183624
0.200334
0.215816
0.229837
0.242245
0.252912
0.26174
0.268703
0.273873
0.27731
0.279147
0.279705
0.120935
0.120478
0.119803
0.118907
0.117801
0.116502
0.114992
0.113256
0.111285
0.109058
0.10655
0.103707
0.100442
0.0966517
0.0922726
0.0873071
0.0818483
0.0764123
0.0712612
0.0668649
0.0638938
0.0630777
0.0650315
0.0704655
0.0801657
0.0944485
0.112521
0.132726
0.15352
0.17394
0.193437
0.211649
0.228303
0.243233
0.256299
0.267387
0.276456
0.283573
0.288759
0.292106
0.293817
0.124373
0.124029
0.12351
0.122818
0.121968
0.120974
0.119828
0.11853
0.117061
0.115414
0.113577
0.111524
0.109217
0.106597
0.103579
0.100071
0.0960025
0.0915069
0.0864542
0.0813856
0.0765804
0.0726271
0.0701205
0.0695795
0.0717445
0.0775537
0.0878635
0.102938
0.12201
0.143425
0.165396
0.186637
0.206431
0.224466
0.240563
0.254583
0.266463
0.276277
0.28403
0.28976
0.293572
0.127012
0.126737
0.126324
0.125777
0.125114
0.124332
0.123435
0.122427
0.121297
0.120043
0.118657
0.117124
0.115427
0.113542
0.111431
0.109032
0.106257
0.103056
0.0993965
0.0954324
0.0908615
0.0862167
0.0820255
0.0785513
0.0761862
0.0754727
0.0771583
0.0821246
0.0911261
0.104428
0.121545
0.141278
0.162088
0.182628
0.201929
0.219387
0.234718
0.247934
0.258992
0.267874
0.274608
0.129071
0.128843
0.128506
0.128063
0.127527
0.126897
0.126182
0.125377
0.124485
0.123499
0.122418
0.121235
0.119939
0.118518
0.116959
0.115237
0.113313
0.111126
0.108613
0.105762
0.102681
0.0992555
0.0955818
0.091553
0.0878809
0.0846822
0.0822482
0.0810192
0.0815853
0.0846133
0.0906794
0.100064
0.112604
0.127724
0.144501
0.161855
0.178798
0.194717
0.209087
0.221551
0.231881
0.130713
0.130521
0.130241
0.129879
0.129437
0.128918
0.128331
0.127674
0.12695
0.126159
0.125295
0.124357
0.123338
0.122233
0.121033
0.11973
0.11831
0.116749
0.115012
0.113045
0.110843
0.108449
0.106079
0.103451
0.100576
0.0975171
0.0942424
0.0912867
0.0887635
0.0869436
0.0861961
0.0869335
0.0895274
0.0942323
0.101097
0.109917
0.120269
0.131711
0.143649
0.155512
0.166868
0.132052
0.131887
0.131652
0.131348
0.130976
0.130546
0.130057
0.129513
0.128914
0.128263
0.12756
0.126802
0.125983
0.125101
0.124153
0.123136
0.122041
0.120861
0.119583
0.118184
0.116634
0.114956
0.113222
0.111424
0.109676
0.107815
0.10574
0.10348
0.101085
0.0984939
0.0960911
0.0939942
0.0923754
0.0914381
0.0913889
0.092387
0.0945046
0.0977573
0.102044
0.107192
0.113239
0.133162
0.13302
0.132823
0.132562
0.132248
0.131882
0.13147
0.131011
0.13051
0.129968
0.129383
0.128757
0.128087
0.127373
0.126611
0.125799
0.124933
0.124008
0.123021
0.121964
0.120826
0.119625
0.118381
0.117095
0.115796
0.114482
0.113199
0.111953
0.110626
0.109153
0.107544
0.105825
0.104036
0.102222
0.100399
0.0988595
0.0976506
0.0968269
0.0964543
0.0965648
0.0972367
0.134097
0.133975
0.133803
0.133578
0.133308
0.132997
0.132643
0.132253
0.131825
0.131365
0.130874
0.130351
0.129796
0.129208
0.128583
0.127923
0.127225
0.126486
0.125705
0.124877
0.124002
0.123096
0.122179
0.121243
0.120299
0.119346
0.118385
0.117447
0.116523
0.115611
0.114785
0.113945
0.113048
0.112075
0.111013
0.10989
0.108738
0.107573
0.106438
0.105369
0.104261
0.134894
0.134789
0.134639
0.134445
0.134212
0.133939
0.133634
0.133296
0.132929
0.132535
0.132117
0.131672
0.131202
0.130709
0.130191
0.129647
0.129077
0.128479
0.127851
0.127192
0.1265
0.12579
0.12508
0.124368
0.123657
0.122958
0.122289
0.12164
0.120997
0.120352
0.119683
0.119021
0.118384
0.117767
0.117212
0.116692
0.116169
0.11562
0.115045
0.114446
0.113767
0.135581
0.13549
0.135359
0.135188
0.134982
0.134745
0.134477
0.134183
0.133865
0.133526
0.133164
0.132782
0.132382
0.131963
0.131526
0.131071
0.130598
0.130105
0.129591
0.129057
0.128501
0.127934
0.127371
0.126811
0.126255
0.125708
0.125179
0.124691
0.124232
0.12379
0.123348
0.122907
0.122471
0.122042
0.121628
0.121227
0.120812
0.120373
0.119946
0.119532
0.11911
0.136178
0.1361
0.135986
0.135836
0.135653
0.135443
0.135208
0.13495
0.134672
0.134375
0.13406
0.133729
0.133383
0.133024
0.132651
0.132264
0.131864
0.131451
0.131026
0.130586
0.130133
0.129674
0.129221
0.128772
0.128328
0.127893
0.127468
0.127063
0.126686
0.126335
0.126004
0.125688
0.125381
0.125081
0.124786
0.124496
0.124207
0.123916
0.123624
0.123336
0.123033
0.136701
0.136635
0.136537
0.136405
0.136244
0.136057
0.135847
0.135617
0.135369
0.135106
0.134829
0.134539
0.134239
0.133928
0.133605
0.133273
0.132932
0.132583
0.132225
0.131858
0.131482
0.131103
0.130731
0.130366
0.130007
0.129657
0.129315
0.128985
0.12867
0.128372
0.128091
0.127825
0.127571
0.127328
0.127092
0.126864
0.126642
0.126423
0.126206
0.125993
0.12576
0.137164
0.137109
0.137024
0.136909
0.136767
0.136601
0.136414
0.136208
0.135985
0.135749
0.135501
0.135244
0.134977
0.134703
0.134422
0.134134
0.133841
0.133542
0.133237
0.132926
0.13261
0.132294
0.131984
0.131683
0.131387
0.131099
0.130819
0.130548
0.130287
0.130038
0.129799
0.12957
0.129348
0.129133
0.128924
0.12872
0.128522
0.128326
0.128133
0.127943
0.127709
0.137576
0.137532
0.137459
0.137359
0.137234
0.137086
0.136919
0.136735
0.136536
0.136323
0.1361
0.135868
0.135629
0.135384
0.135134
0.13488
0.134623
0.134363
0.134099
0.133833
0.133565
0.133298
0.133037
0.132783
0.132536
0.132295
0.132062
0.131835
0.131616
0.131405
0.131201
0.131003
0.130812
0.130625
0.130441
0.130261
0.130085
0.129911
0.129741
0.129572
0.129405
0.137946
0.137911
0.13785
0.137763
0.137653
0.137523
0.137375
0.137211
0.137032
0.136842
0.136641
0.136431
0.136214
0.135993
0.135768
0.135541
0.135312
0.135081
0.13485
0.134617
0.134385
0.134155
0.133932
0.133715
0.133504
0.133301
0.133103
0.132913
0.132729
0.132551
0.132379
0.132214
0.132053
0.131897
0.131744
0.131596
0.131452
0.131314
0.131184
0.131069
0.13101
0.138279
0.138252
0.138202
0.13813
0.138035
0.137921
0.13779
0.137644
0.137484
0.137313
0.137132
0.136943
0.136747
0.136547
0.136343
0.136137
0.13593
0.135724
0.135517
0.135311
0.135106
0.134904
0.134709
0.134521
0.134339
0.134164
0.133995
0.133832
0.133676
0.133526
0.133381
0.133242
0.133107
0.132977
0.132854
0.13274
0.132642
0.132563
0.132509
0.132484
0.13252
0.138579
0.138562
0.138525
0.138467
0.138388
0.138289
0.138174
0.138044
0.137901
0.137746
0.137583
0.137412
0.137236
0.137055
0.13687
0.136684
0.136497
0.136309
0.136123
0.135938
0.135755
0.135575
0.135403
0.135236
0.135077
0.134924
0.134777
0.134638
0.134504
0.134375
0.134252
0.134135
0.134027
0.133932
0.133856
0.133806
0.133788
0.133801
0.133828
0.133868
0.133938
0.138851
0.138847
0.138824
0.138781
0.138716
0.138633
0.138532
0.138416
0.138288
0.138149
0.138001
0.137847
0.137687
0.137523
0.137356
0.137188
0.137019
0.13685
0.136682
0.136515
0.13635
0.136189
0.136035
0.135888
0.135747
0.135614
0.135487
0.135365
0.135248
0.135138
0.135038
0.134954
0.134896
0.13487
0.134873
0.134892
0.134925
0.134968
0.13502
0.135081
0.135171
0.139101
0.139112
0.139105
0.139076
0.139026
0.138955
0.138868
0.138765
0.138651
0.138526
0.138392
0.138252
0.138107
0.137958
0.137807
0.137654
0.137501
0.137349
0.137198
0.137049
0.136901
0.136758
0.136622
0.136492
0.136367
0.136247
0.136132
0.136025
0.135931
0.135859
0.135818
0.135804
0.135807
0.135824
0.135853
0.135893
0.135943
0.136001
0.136068
0.136141
0.136244
0.139332
0.139361
0.13937
0.139354
0.139317
0.13926
0.139187
0.139099
0.138997
0.138885
0.138765
0.138637
0.138504
0.138369
0.138231
0.138092
0.137953
0.137815
0.137679
0.137544
0.137412
0.137283
0.137159
0.13704
0.136926
0.136824
0.136743
0.136689
0.136657
0.136641
0.136639
0.136649
0.136671
0.136704
0.136746
0.136797
0.136857
0.136925
0.136999
0.13708
0.137191
0.13955
0.139596
0.139616
0.139614
0.139593
0.139554
0.1395
0.13943
0.139345
0.139247
0.139138
0.139021
0.138898
0.138772
0.138643
0.138514
0.138384
0.138255
0.138129
0.138005
0.137884
0.137772
0.137674
0.137596
0.137534
0.137484
0.137448
0.137425
0.137414
0.137415
0.137427
0.137448
0.13748
0.13752
0.13757
0.137627
0.137692
0.137764
0.137842
0.137926
0.138039
0.139753
0.139808
0.139837
0.139849
0.139848
0.139835
0.139809
0.13977
0.139717
0.139649
0.13957
0.13948
0.139382
0.139278
0.13917
0.139059
0.138949
0.138839
0.138732
0.138628
0.138531
0.138443
0.138367
0.138304
0.138254
0.138216
0.13819
0.138174
0.13817
0.138175
0.13819
0.138215
0.138248
0.13829
0.13834
0.138397
0.138461
0.138531
0.138608
0.13869
0.138801
0.13992
0.13997
0.139997
0.140012
0.14002
0.140022
0.140017
0.140005
0.139986
0.139959
0.139925
0.139881
0.139826
0.139762
0.13969
0.139612
0.13953
0.139447
0.139364
0.139283
0.139206
0.139135
0.139072
0.139018
0.138973
0.138938
0.138913
0.138898
0.138892
0.138896
0.138908
0.138929
0.138959
0.138996
0.13904
0.139092
0.139149
0.139213
0.139283
0.139357
0.139459
0.140016
0.140047
0.140068
0.140084
0.140096
0.140104
0.140109
0.14011
0.140107
0.140099
0.140088
0.140073
0.140054
0.14003
0.14
0.139964
0.139923
0.139878
0.13983
0.139781
0.139732
0.139685
0.139641
0.139603
0.139569
0.139543
0.139523
0.139511
0.139505
0.139508
0.139517
0.139534
0.139558
0.139589
0.139626
0.139669
0.139718
0.139772
0.139831
0.139895
0.139984
0.140062
0.140087
0.140107
0.140126
0.140142
0.140155
0.140167
0.140175
0.140181
0.140183
0.140183
0.140181
0.140176
0.14017
0.140161
0.140149
0.140135
0.140118
0.140099
0.140078
0.140056
0.140034
0.140012
0.139993
0.139976
0.139963
0.139954
0.139949
0.139949
0.139954
0.139965
0.13998
0.140001
0.140028
0.140059
0.140095
0.140136
0.140182
0.140231
0.140285
0.140362
0.140085
0.140109
0.14013
0.140149
0.140168
0.140186
0.140202
0.140217
0.140229
0.14024
0.140247
0.140254
0.140258
0.14026
0.140261
0.14026
0.140258
0.140255
0.140251
0.140246
0.14024
0.140235
0.14023
0.140225
0.140222
0.140221
0.140222
0.140226
0.140233
0.140243
0.140256
0.140274
0.140295
0.140319
0.140348
0.14038
0.140416
0.140456
0.140498
0.140544
0.14061
0.140096
0.140118
0.140139
0.14016
0.140181
0.140202
0.140222
0.140242
0.14026
0.140277
0.140291
0.140305
0.140316
0.140326
0.140334
0.140341
0.140346
0.14035
0.140354
0.140357
0.14036
0.140363
0.140366
0.14037
0.140376
0.140382
0.14039
0.1404
0.140412
0.140426
0.140442
0.140461
0.140483
0.140508
0.140535
0.140566
0.140598
0.140634
0.140672
0.140711
0.140769
0.140096
0.140116
0.140137
0.140158
0.140181
0.140204
0.140228
0.140253
0.140276
0.140299
0.14032
0.14034
0.140358
0.140375
0.14039
0.140403
0.140415
0.140426
0.140436
0.140445
0.140453
0.140462
0.14047
0.140479
0.140489
0.1405
0.140512
0.140525
0.140539
0.140556
0.140574
0.140594
0.140616
0.140641
0.140667
0.140695
0.140725
0.140757
0.140791
0.140826
0.140876
0.140088
0.140106
0.140125
0.140145
0.140169
0.140194
0.140222
0.14025
0.14028
0.140308
0.140336
0.140363
0.140388
0.140412
0.140434
0.140454
0.140472
0.140488
0.140503
0.140518
0.140531
0.140544
0.140557
0.14057
0.140583
0.140597
0.140611
0.140627
0.140643
0.140661
0.14068
0.1407
0.140722
0.140745
0.14077
0.140796
0.140824
0.140852
0.140882
0.140913
0.140954
0.140072
0.140087
0.140103
0.140121
0.140144
0.14017
0.1402
0.140233
0.140268
0.140305
0.14034
0.140375
0.140409
0.140441
0.140471
0.140498
0.140523
0.140545
0.140565
0.140584
0.140602
0.140618
0.140634
0.14065
0.140665
0.140681
0.140697
0.140714
0.140731
0.140749
0.140768
0.140788
0.140809
0.140831
0.140854
0.140878
0.140902
0.140927
0.140953
0.140978
0.141012
0.140048
0.140058
0.14007
0.140084
0.140103
0.140125
0.140154
0.140189
0.140231
0.140278
0.140327
0.140376
0.140425
0.140473
0.140518
0.14056
0.140599
0.140634
0.140665
0.140693
0.140718
0.140739
0.140759
0.140777
0.140793
0.140809
0.140824
0.140838
0.140853
0.140868
0.140884
0.1409
0.140916
0.140934
0.140952
0.14097
0.140989
0.141008
0.141028
0.141048
0.141072
0.140018
0.140021
0.140026
0.140032
0.14004
0.140052
0.140068
0.140091
0.140125
0.14017
0.140246
0.140294
0.140337
0.140381
0.140428
0.140476
0.140526
0.140575
0.140625
0.140673
0.140719
0.140763
0.140805
0.140844
0.14088
0.140915
0.140947
0.140978
0.141007
0.141035
0.141061
0.141087
0.141111
0.141135
0.141158
0.14118
0.141202
0.141222
0.141242
0.141262
0.141282
0.0259444
0.0529254
0.0826994
0.114588
0.143449
0.166144
0.182053
0.191906
0.196849
0.198082
0.196689
0.193501
0.189003
0.183416
0.176929
0.169885
0.162772
0.156082
0.150184
0.145286
0.141457
0.138672
0.136842
0.135842
0.13553
0.135767
0.136422
0.137384
0.138564
0.139888
0.141299
0.142749
0.1442
0.145625
0.147006
0.148329
0.149589
0.150781
0.151904
0.152957
0.153943
0.154865
0.155724
0.156526
0.157276
0.157978
0.158637
0.159258
0.159844
0.160402
0.160934
0.161447
0.161945
0.162438
0.162943
0.163446
0.163903
0.164295
0.16461
0.164843
0.164992
0.165049
0.165005
0.164849
0.164566
0.16414
0.163559
0.162803
0.16189
0.160792
0.159572
0.157949
0.156016
0.15308
0.0325349
0.0598241
0.0895165
0.121024
0.149344
0.171494
0.186958
0.196508
0.201291
0.20249
0.201155
0.198069
0.193669
0.188142
0.181662
0.174566
0.167343
0.160492
0.154388
0.149249
0.145155
0.142091
0.139976
0.138692
0.138106
0.138083
0.138501
0.139252
0.140249
0.141423
0.142712
0.144067
0.145445
0.146812
0.148146
0.149432
0.15066
0.151826
0.152928
0.153966
0.154942
0.15586
0.156722
0.157532
0.158295
0.159015
0.159697
0.160343
0.160957
0.161543
0.162103
0.16264
0.163158
0.163661
0.164146
0.164586
0.16495
0.165228
0.165414
0.165503
0.165493
0.165377
0.165145
0.164788
0.164294
0.163649
0.16285
0.161885
0.160784
0.159533
0.158195
0.156536
0.154659
0.152025
0.0394589
0.0676318
0.0972947
0.128332
0.156044
0.177635
0.19269
0.202007
0.206727
0.208006
0.206849
0.203984
0.199795
0.194436
0.188062
0.181002
0.173736
0.166757
0.160443
0.15502
0.150576
0.14711
0.144557
0.142815
0.14177
0.141302
0.141304
0.14168
0.142352
0.143253
0.144323
0.145507
0.146755
0.148026
0.149288
0.150519
0.151704
0.152837
0.153915
0.154935
0.1559
0.156814
0.157678
0.158496
0.159272
0.160008
0.160709
0.161376
0.16201
0.162617
0.163194
0.163744
0.164266
0.164752
0.165185
0.16554
0.165798
0.165954
0.166005
0.165948
0.165782
0.1655
0.165095
0.16456
0.163885
0.163063
0.162093
0.160973
0.159737
0.15838
0.156968
0.155312
0.153513
0.151147
0.0470512
0.0764233
0.106108
0.136568
0.163552
0.18451
0.199134
0.208244
0.212959
0.214395
0.213506
0.210955
0.207072
0.20198
0.195819
0.188903
0.181693
0.174668
0.168196
0.162504
0.157686
0.153751
0.150653
0.148315
0.146647
0.145557
0.144961
0.144786
0.144967
0.14545
0.146179
0.147096
0.148144
0.149268
0.150425
0.15158
0.152711
0.153805
0.154856
0.155857
0.156812
0.157723
0.158589
0.159414
0.160201
0.160952
0.161669
0.162352
0.163002
0.163623
0.164209
0.164761
0.165272
0.165715
0.166076
0.166336
0.166483
0.166515
0.166433
0.166236
0.165922
0.16549
0.164933
0.164247
0.163426
0.162467
0.161371
0.160141
0.158811
0.157384
0.155924
0.154286
0.152566
0.150418
0.0555935
0.0862572
0.115983
0.145728
0.171809
0.191992
0.206109
0.214985
0.219704
0.221333
0.220763
0.218586
0.215081
0.210343
0.204502
0.197851
0.190827
0.183879
0.177356
0.171474
0.166328
0.161933
0.158259
0.155251
0.15285
0.150996
0.149639
0.148736
0.148249
0.148143
0.148378
0.148902
0.149652
0.15056
0.151565
0.152616
0.153677
0.154725
0.155744
0.156727
0.157672
0.15858
0.15945
0.160283
0.161081
0.161845
0.162576
0.163273
0.163934
0.164563
0.165153
0.165701
0.16618
0.166566
0.166847
0.16701
0.167047
0.166961
0.166753
0.166424
0.165978
0.165412
0.164726
0.163917
0.162983
0.161923
0.16074
0.159438
0.158046
0.156571
0.155075
0.153455
0.151801
0.149815
0.0653706
0.0971619
0.126864
0.15572
0.180667
0.199881
0.21336
0.221927
0.226614
0.228426
0.228182
0.226406
0.223323
0.21901
0.213587
0.20733
0.200639
0.193922
0.187498
0.181565
0.176208
0.171443
0.167247
0.163585
0.160423
0.157734
0.155503
0.153724
0.152396
0.151518
0.151078
0.151046
0.151365
0.151957
0.152741
0.153644
0.154608
0.155595
0.156577
0.15754
0.158476
0.159383
0.160257
0.161099
0.16191
0.162687
0.163432
0.16414
0.16481
0.165443
0.166034
0.166567
0.167004
0.167328
0.16753
0.1676
0.167535
0.167338
0.167015
0.166568
0.166004
0.165324
0.16453
0.163624
0.162606
0.161478
0.160239
0.158894
0.157463
0.155952
0.154423
0.15281
0.1512
0.149315
0.076709
0.109093
0.138591
0.166337
0.189879
0.20789
0.220565
0.228712
0.23329
0.235231
0.235281
0.233895
0.23125
0.227408
0.222489
0.216747
0.210538
0.204224
0.198079
0.192274
0.18688
0.181907
0.177334
0.173132
0.169283
0.165787
0.162657
0.159924
0.157626
0.155807
0.154498
0.153713
0.153424
0.153557
0.154014
0.154697
0.155522
0.156424
0.157358
0.158295
0.159221
0.160128
0.161009
0.161863
0.162687
0.163479
0.164238
0.164957
0.165635
0.16627
0.166859
0.167368
0.167762
0.168027
0.168157
0.168144
0.167988
0.167694
0.167268
0.166718
0.166051
0.165274
0.164392
0.163411
0.162334
0.161162
0.159894
0.158528
0.157073
0.155533
0.153966
0.152341
0.150745
0.148902
0.0897397
0.121878
0.150869
0.177224
0.199072
0.215645
0.227347
0.234945
0.239307
0.241288
0.241561
0.240519
0.238294
0.234941
0.230584
0.225457
0.219869
0.214123
0.208445
0.202968
0.197747
0.192784
0.188049
0.183513
0.179161
0.175004
0.171071
0.167416
0.164112
0.161245
0.1589
0.157152
0.15604
0.155519
0.155495
0.155847
0.156458
0.157231
0.158093
0.158995
0.159907
0.160814
0.161704
0.162572
0.163412
0.164222
0.164997
0.16573
0.166416
0.167053
0.167635
0.16812
0.168476
0.168691
0.168761
0.16868
0.168448
0.168071
0.167557
0.166918
0.166163
0.165305
0.164351
0.163312
0.162193
0.160996
0.159718
0.158347
0.156881
0.155312
0.153698
0.15204
0.150426
0.148559
0.104413
0.135214
0.163237
0.187869
0.207757
0.222698
0.233298
0.240232
0.244257
0.24616
0.246551
0.245771
0.243914
0.241029
0.23725
0.232796
0.227928
0.22289
0.217849
0.212896
0.208069
0.20336
0.19873
0.194137
0.18956
0.185003
0.180497
0.176098
0.171893
0.167993
0.164531
0.161651
0.15949
0.15808
0.157361
0.157214
0.157493
0.15806
0.158805
0.159647
0.160537
0.161441
0.162341
0.163225
0.164086
0.164917
0.165713
0.166462
0.16716
0.167801
0.168373
0.168839
0.169168
0.169348
0.169375
0.169243
0.168953
0.16851
0.167925
0.167211
0.166382
0.165453
0.164439
0.163352
0.162204
0.160995
0.159718
0.158355
0.156884
0.155288
0.153617
0.151901
0.150227
0.148274
0.120811
0.148772
0.175095
0.197658
0.21539
0.228598
0.238067
0.244262
0.247828
0.249513
0.249886
0.249249
0.247672
0.245179
0.241931
0.238139
0.23402
0.229767
0.225486
0.221219
0.216985
0.212773
0.208532
0.204203
0.199745
0.195145
0.190416
0.185598
0.180763
0.176025
0.171528
0.167466
0.164086
0.161543
0.159871
0.158991
0.158754
0.158989
0.159538
0.160276
0.161118
0.162011
0.16292
0.163822
0.164708
0.165565
0.166385
0.167158
0.167874
0.168524
0.169089
0.169546
0.169861
0.170025
0.170029
0.169868
0.16954
0.169052
0.168413
0.167637
0.166745
0.165754
0.164686
0.163557
0.162384
0.161168
0.159899
0.158551
0.157083
0.155458
0.153717
0.151912
0.150137
0.148037
0.139845
0.163328
0.185956
0.206159
0.221579
0.233077
0.241565
0.246991
0.249965
0.251267
0.251449
0.250807
0.249377
0.247124
0.244263
0.241015
0.237566
0.23406
0.230575
0.22708
0.22358
0.220065
0.216472
0.212733
0.208768
0.204534
0.200021
0.195231
0.190201
0.18501
0.17978
0.174698
0.170086
0.166245
0.163358
0.16146
0.160454
0.160159
0.160375
0.160925
0.161675
0.162533
0.163441
0.164362
0.165275
0.166163
0.167016
0.167819
0.168562
0.169231
0.169806
0.170265
0.170581
0.17075
0.170756
0.17059
0.170249
0.169737
0.169061
0.168239
0.167292
0.166245
0.165124
0.163951
0.162751
0.161526
0.160264
0.158929
0.157462
0.155806
0.153984
0.152065
0.15015
0.147847
0.162284
0.181354
0.199073
0.214417
0.226722
0.236582
0.244476
0.249012
0.251193
0.251895
0.251659
0.250807
0.249356
0.247067
0.244303
0.241322
0.238286
0.235328
0.232544
0.229781
0.227038
0.224319
0.221554
0.21867
0.215546
0.21209
0.208261
0.204017
0.199337
0.194244
0.188803
0.183136
0.177542
0.172436
0.168177
0.164984
0.162897
0.161794
0.161465
0.161682
0.162252
0.163028
0.163913
0.164845
0.165786
0.166711
0.167604
0.168447
0.169227
0.169929
0.170533
0.171018
0.171363
0.17156
0.171593
0.17145
0.171123
0.17061
0.169918
0.169063
0.168069
0.166967
0.165787
0.164561
0.163318
0.162067
0.160797
0.159469
0.158003
0.156316
0.154409
0.152354
0.150266
0.147701
0.190041
0.204881
0.218117
0.229327
0.238324
0.245214
0.249972
0.252496
0.253361
0.25306
0.252002
0.250558
0.248899
0.246093
0.24293
0.239709
0.236587
0.233711
0.231361
0.229089
0.226928
0.224917
0.222983
0.221089
0.219052
0.216702
0.21397
0.210777
0.207025
0.202666
0.197688
0.192118
0.186119
0.180107
0.174569
0.169937
0.166475
0.164228
0.163052
0.162707
0.162942
0.163544
0.164357
0.165277
0.16624
0.167205
0.168144
0.169037
0.169868
0.17062
0.171273
0.171809
0.17221
0.172465
0.172557
0.172469
0.172187
0.171703
0.171017
0.170143
0.169107
0.167944
0.166693
0.165394
0.164084
0.162784
0.161487
0.160154
0.158688
0.156975
0.154983
0.15278
0.150487
0.147602
0.226123
0.236854
0.245825
0.252902
0.258104
0.261518
0.263236
0.26343
0.26241
0.260444
0.257751
0.254471
0.250703
0.246512
0.242231
0.238048
0.234097
0.230421
0.228029
0.225716
0.22367
0.221981
0.220577
0.219553
0.218625
0.217501
0.216109
0.214347
0.212019
0.208989
0.205177
0.200503
0.194951
0.188769
0.18244
0.176536
0.171577
0.167878
0.165492
0.164259
0.163912
0.164175
0.16482
0.165678
0.166642
0.167641
0.168632
0.169585
0.170481
0.171299
0.172022
0.172634
0.173119
0.173463
0.173648
0.173651
0.17345
0.173027
0.172374
0.1715
0.170429
0.169202
0.167864
0.166467
0.165061
0.163681
0.162331
0.160976
0.159507
0.157774
0.155703
0.153343
0.150819
0.147554
0.258125
0.264474
0.269365
0.272855
0.274981
0.27579
0.275355
0.273787
0.271226
0.267806
0.263657
0.258919
0.25376
0.248379
0.242995
0.237793
0.232939
0.22855
0.224815
0.22156
0.21889
0.216834
0.215315
0.214639
0.214476
0.214327
0.214175
0.213938
0.213282
0.211977
0.209902
0.206856
0.202678
0.197335
0.191123
0.184581
0.178381
0.173138
0.169227
0.166718
0.165439
0.165099
0.1654
0.166095
0.167008
0.168021
0.169061
0.170082
0.171055
0.171958
0.172773
0.173485
0.174082
0.174547
0.174861
0.174996
0.174919
0.174599
0.174016
0.173168
0.172076
0.170782
0.169341
0.167817
0.166277
0.164775
0.163336
0.161933
0.160452
0.158705
0.156564
0.154045
0.15127
0.147563
0.281302
0.284515
0.286641
0.287713
0.287744
0.286747
0.284746
0.281781
0.277912
0.273211
0.26778
0.261757
0.255324
0.248681
0.242043
0.235612
0.22957
0.22408
0.219314
0.215354
0.212274
0.210076
0.208708
0.208107
0.208031
0.208247
0.208756
0.209683
0.210497
0.210879
0.210778
0.209802
0.207701
0.204212
0.199279
0.19319
0.186544
0.180118
0.174632
0.170533
0.167917
0.166603
0.166281
0.166629
0.167385
0.16836
0.169431
0.170521
0.171583
0.172587
0.173515
0.174354
0.17509
0.175712
0.176198
0.176513
0.176614
0.176452
0.175989
0.175205
0.174112
0.172752
0.171189
0.169503
0.16778
0.166103
0.164521
0.163033
0.161521
0.159764
0.157564
0.154889
0.151848
0.147635
0.294982
0.296093
0.296345
0.295726
0.294218
0.291805
0.288477
0.284241
0.279122
0.273163
0.266449
0.259127
0.251383
0.24343
0.235499
0.227829
0.220657
0.214201
0.208656
0.204167
0.200827
0.198656
0.197598
0.197535