/*--------------------------------*- C++ -*----------------------------------*\
| =========                 |                                                 |
| \\      /  F ield         | OpenFOAM: The Open Source CFD Toolbox           |
|  \\    /   O peration     | Version:  5.x                                   |
|   \\  /    A nd           | Web:      www.OpenFOAM.org                      |
|    \\/     M anipulation  |                                                 |
\*---------------------------------------------------------------------------*/
FoamFile
{
    version     2.0;
    format      ascii;
    class       volScalarField;
    location    "300";
    object      p;
}
// * * * * * * * * * * * * * * * * * * * * * * * * * * * * * * * * * * * * * //

dimensions      [0 2 -2 0 0 0 0];

internalField   nonuniform List<scalar> 
11040
(
0.0113689
-93.5732
-334.958
-378.45
-376.57
-369.34
-352.935
-326.095
-292.245
-252.835
-207.98
-149.727
-95.3418
-53.9054
-21.3703
11.5955
43.7024
72.9637
98.4966
119.028
133.156
140.036
143.253
145.23
146.622
147.675
148.468
149.033
149.405
149.612
149.675
149.608
149.434
149.21
149.107
149.492
150.633
152.472
156.289
162.797
158.387
53.1622
-40.6275
-191.769
-257.497
-281.694
-296.045
-299.265
-289.141
-268.053
-238.157
-200.593
-149.259
-97.8549
-56.4008
-23.2835
9.68177
41.8397
71.3425
97.2303
118.21
132.783
139.912
143.202
145.197
146.593
147.654
148.459
149.035
149.418
149.635
149.706
149.646
149.473
149.24
149.109
149.446
150.526
152.277
155.867
162.022
155.313
89.2626
-5.30235
-112.021
-196.593
-238.033
-259.447
-267.609
-262.443
-246.166
-221.013
-188.497
-144.127
-96.6521
-56.0544
-23.1115
9.06896
40.751
70.1399
96.1243
117.408
132.393
139.833
143.231
145.227
146.603
147.657
148.464
149.046
149.437
149.661
149.741
149.688
149.52
149.284
149.129
149.406
150.404
152.061
155.423
161.425
153.257
116.363
31.3266
-47.6051
-126.403
-175.274
-204.735
-221.712
-225.61
-217.324
-199.055
-172.742
-135.68
-93.2319
-54.4752
-22.0606
9.09282
40.0011
69.046
94.9833
116.503
131.91
139.75
143.321
145.323
146.669
147.699
148.494
149.074
149.469
149.699
149.786
149.741
149.576
149.335
149.15
149.349
150.229
151.745
154.818
160.57
152.205
138.796
65.848
4.66093
-63.4913
-115.606
-151.128
-174.592
-185.861
-185.043
-173.766
-153.987
-124.357
-87.8433
-51.8897
-20.4177
9.5116
39.3003
67.6954
93.3912
115.084
131.003
139.446
143.37
145.462
146.799
147.793
148.56
149.128
149.519
149.751
149.844
149.807
149.648
149.399
149.178
149.28
150.003
151.332
154.068
159.326
151.809
156.829
96.1698
47.2491
-9.64712
-59.5082
-97.5027
-125.305
-142.585
-148.74
-144.571
-131.685
-109.585
-79.6694
-47.5496
-17.7484
10.6272
38.9064
66.262
91.4031
113.07
129.49
138.735
143.266
145.604
146.989
147.955
148.683
149.223
149.598
149.823
149.919
149.89
149.738
149.482
149.219
149.208
149.738
150.835
153.206
157.749
151.819
171.321
121.807
81.9509
35.2267
-9.16003
-46.2333
-75.8141
-97.1005
-108.947
-111.381
-105.388
-90.8106
-68.0073
-40.804
-13.6395
12.7293
39.1082
64.9957
89.1911
110.505
127.262
137.397
142.798
145.64
147.216
148.2
148.885
149.38
149.723
149.93
150.019
149.994
149.848
149.586
149.28
149.144
149.454
150.291
152.28
155.989
152.07
182.926
142.829
110.078
71.9992
34.2115
0.381301
-28.6168
-51.6888
-67.3845
-75.1791
-75.4123
-67.9116
-52.3406
-30.9483
-7.49452
16.2325
40.2792
64.2454
87.0541
107.587
124.356
135.229
141.614
145.29
147.354
148.519
149.201
149.635
149.922
150.092
150.162
150.132
149.988
149.721
149.373
149.111
149.188
149.757
151.363
154.272
152.381
192.144
159.702
132.686
101.748
70.4165
41.0264
14.4031
-8.42019
-25.9811
-37.4467
-42.6708
-41.3052
-32.5479
-17.399
1.38968
21.6957
42.8923
64.4725
85.4513
104.758
121.114
132.334
139.488
144.141
147.028
148.721
149.63
150.069
150.265
150.352
150.374
150.323
150.172
149.901
149.519
149.144
149.001
149.314
150.559
152.846
152.678
199.366
173.035
150.7
125.589
99.996
75.3084
52.0348
30.9632
13.3138
-0.0128952
-8.61864
-12.0079
-9.10722
-0.0254597
13.5413
29.7023
47.4726
66.1774
84.8822
102.549
118.063
129.197
136.704
142.092
145.825
148.302
149.816
150.601
150.884
150.878
150.757
150.609
150.425
150.147
149.748
149.298
148.984
149.075
150.002
151.885
152.979
204.933
183.453
164.949
144.558
123.81
103.503
83.8534
65.376
48.9413
35.329
24.9977
18.4709
16.8906
20.6924
29.0715
40.6768
54.5339
69.8885
85.8611
101.467
115.71
126.403
133.918
139.644
143.902
147.011
149.213
150.649
151.428
151.685
151.589
151.297
150.927
150.53
150.093
149.62
149.226
149.171
149.874
151.518
153.372
209.147
191.524
176.16
159.576
142.805
126.301
110.092
94.4649
79.9798
67.2035
56.5392
48.4331
43.921
43.6771
47.5115
54.6567
64.4042
76.0838
88.9226
102.043
114.559
124.452
131.718
137.486
141.953
145.364
147.963
149.91
151.276
152.104
152.451
152.412
152.098
151.603
150.992
150.364
149.865
149.73
150.311
151.892
154.115
212.28
197.741
184.957
171.435
157.879
144.539
131.353
118.445
106.162
94.8547
84.8176
76.3783
70.366
67.4682
67.8282
71.1318
77.0076
84.9952
94.4984
104.807
115.171
123.858
130.57
136.123
140.599
144.125
146.879
149.029
150.695
151.941
152.791
153.262
153.386
153.224
152.845
152.356
151.872
151.602
151.929
153.317
155.469
214.567
202.516
191.856
180.798
169.821
159.057
148.404
137.898
127.738
118.124
109.235
101.286
94.8793
90.59
88.6793
89.1031
91.7585
96.4193
102.704
110.108
118.053
125.167
130.979
136.015
140.269
143.769
146.592
148.845
150.632
152.045
153.151
153.99
154.579
154.935
155.081
155.109
155.142
155.349
155.947
157.431
159.183
216.201
206.176
197.275
188.205
179.29
170.596
162.012
153.528
145.249
137.287
129.728
122.7
116.61
111.884
108.776
107.357
107.678
109.687
113.2
117.912
123.433
128.777
133.418
137.646
141.404
144.663
147.427
149.733
151.637
153.198
154.479
155.543
156.443
157.225
157.922
158.592
159.309
160.196
161.337
163.288
164.949
217.356
208.996
201.555
194.09
186.826
179.787
172.867
166.036
159.346
152.855
146.594
140.629
135.225
130.671
127.163
124.797
123.676
123.845
125.251
127.75
131.118
134.731
138.103
141.35
144.398
147.193
149.703
151.921
153.864
155.559
157.041
158.353
159.543
160.669
161.789
162.971
164.278
165.808
167.571
169.979
172.15
218.21
211.228
205.002
198.839
192.897
187.177
181.584
176.08
170.687
165.435
160.326
155.388
150.789
146.717
143.304
140.63
138.797
137.88
137.895
138.799
140.487
142.625
144.818
147.081
149.344
151.548
153.647
155.616
157.449
159.154
160.745
162.247
163.69
165.11
166.555
168.076
169.727
171.588
173.697
176.239
178.934
218.8
212.906
207.637
202.477
197.545
192.827
188.237
183.74
179.343
175.06
170.886
166.824
162.981
159.48
156.404
153.812
151.782
150.386
149.663
149.616
150.21
151.298
152.585
154.041
155.61
157.242
158.892
160.529
162.138
163.714
165.261
166.789
168.313
169.855
171.443
173.105
174.87
176.783
178.874
181.196
183.742
219.182
214.129
209.601
205.206
201.04
197.075
193.238
189.495
185.847
182.298
178.84
175.469
172.254
169.277
166.592
164.237
162.271
160.75
159.715
159.187
159.16
159.595
160.276
161.158
162.203
163.373
164.628
165.941
167.294
168.677
170.086
171.522
172.99
174.501
176.069
177.705
179.421
181.236
183.162
185.203
187.376
219.448
215.06
211.12
207.325
203.751
200.366
197.105
193.939
190.863
187.878
184.974
182.146
179.439
176.91
174.594
172.516
170.718
169.243
168.126
167.391
167.047
167.104
167.407
167.91
168.589
169.414
170.356
171.391
172.502
173.677
174.909
176.194
177.529
178.918
180.365
181.872
183.441
185.078
186.786
188.559
190.4
219.645
215.797
212.335
209.021
205.919
202.994
200.188
197.474
194.849
192.308
189.843
187.447
185.153
182.998
181.009
179.201
177.604
176.25
175.168
174.379
173.896
173.753
173.834
174.098
174.531
175.112
175.817
176.627
177.528
178.508
179.558
180.672
181.844
183.072
184.356
185.692
187.077
188.512
189.995
191.518
193.08
219.801
216.4
213.334
210.415
207.697
205.144
202.705
200.356
198.091
195.907
193.795
191.749
189.791
187.95
186.242
184.68
183.283
182.077
181.083
180.32
179.8
179.565
179.524
179.645
179.919
180.331
180.862
181.498
182.226
183.036
183.918
184.865
185.871
186.93
188.04
189.195
190.39
191.623
192.889
194.181
195.496
219.933
216.905
214.172
211.584
209.183
206.938
204.8
202.75
200.781
198.889
197.066
195.306
193.626
192.046
190.579
189.232
188.022
186.965
186.08
185.38
184.878
184.613
184.512
184.551
184.726
185.024
185.43
185.934
186.523
187.19
187.925
188.722
189.573
190.473
191.417
192.4
193.414
194.459
195.529
196.616
197.717
220.048
217.339
214.889
212.579
210.446
208.458
206.572
204.77
203.047
201.397
199.813
198.291
196.842
195.482
194.22
193.061
192.017
191.101
190.327
189.705
189.246
188.986
188.862
188.859
188.973
189.194
189.511
189.914
190.395
190.944
191.556
192.222
192.937
193.694
194.49
195.317
196.171
197.049
197.946
198.855
199.772
220.154
217.716
215.511
213.438
211.533
209.762
208.089
206.497
204.98
203.534
202.151
200.828
199.574
198.399
197.311
196.314
195.416
194.628
193.959
193.418
193.012
192.773
192.648
192.625
192.703
192.873
193.126
193.453
193.847
194.302
194.811
195.367
195.965
196.6
197.266
197.96
198.674
199.408
200.156
200.914
201.676
220.252
218.05
216.055
214.188
212.478
210.894
209.402
207.989
206.648
205.374
204.162
203.007
201.917
200.9
199.961
199.103
198.332
197.656
197.082
196.618
196.267
196.057
195.942
195.912
195.969
196.105
196.31
196.58
196.907
197.285
197.71
198.174
198.674
199.205
199.762
200.341
200.938
201.55
202.173
202.803
203.435
220.344
218.347
216.536
214.848
213.306
211.883
210.548
209.288
208.097
206.971
205.905
204.894
203.944
203.062
202.25
201.511
200.85
200.272
199.783
199.388
199.09
198.911
198.809
198.781
198.826
198.937
199.108
199.333
199.606
199.923
200.278
200.667
201.086
201.529
201.995
202.478
202.976
203.486
204.005
204.529
205.054
220.433
218.615
216.965
215.432
214.037
212.754
211.554
210.427
209.367
208.368
207.427
206.539
205.71
204.943
204.24
203.604
203.038
202.545
202.129
201.795
201.545
201.395
201.31
201.285
201.324
201.418
201.563
201.753
201.983
202.25
202.548
202.875
203.226
203.597
203.987
204.391
204.806
205.232
205.664
206.101
206.537
220.518
218.857
217.348
215.951
214.685
213.524
212.443
211.431
210.484
209.596
208.763
207.983
207.256
206.589
205.98
205.432
204.947
204.527
204.176
203.895
203.687
203.564
203.494
203.475
203.51
203.592
203.716
203.878
204.074
204.299
204.551
204.827
205.121
205.433
205.76
206.098
206.445
206.801
207.161
207.526
207.889
220.599
219.076
217.693
216.416
215.262
214.208
213.231
212.32
211.472
210.68
209.942
209.254
208.617
208.035
207.508
207.036
206.62
206.264
205.967
205.733
205.561
205.461
205.405
205.393
205.426
205.498
205.606
205.745
205.912
206.104
206.318
206.55
206.799
207.062
207.336
207.62
207.911
208.208
208.51
208.815
209.117
220.676
219.275
218.003
216.832
215.778
214.818
213.932
213.11
212.348
211.641
210.985
210.378
209.819
209.311
208.854
208.447
208.092
207.789
207.54
207.345
207.204
207.125
207.081
207.075
207.106
207.171
207.266
207.386
207.53
207.694
207.876
208.073
208.283
208.505
208.736
208.974
209.219
209.468
209.721
209.977
210.23
220.751
219.457
218.283
217.205
216.239
215.362
214.556
213.813
213.127
212.495
211.911
211.374
210.883
210.44
210.044
209.693
209.39
209.133
208.924
208.763
208.648
208.586
208.554
208.552
208.583
208.642
208.725
208.83
208.954
209.095
209.25
209.418
209.596
209.784
209.979
210.18
210.386
210.595
210.808
211.022
211.235
220.821
219.623
218.535
217.541
216.652
215.849
215.114
214.44
213.821
213.254
212.735
212.259
211.828
211.441
211.097
210.796
210.537
210.32
210.145
210.012
209.92
209.873
209.849
209.852
209.882
209.936
210.01
210.101
210.209
210.33
210.463
210.606
210.758
210.917
211.082
211.252
211.426
211.602
211.781
211.962
212.14
220.888
219.774
218.762
217.841
217.021
216.283
215.612
214.999
214.44
213.931
213.467
213.046
212.667
212.329
212.032
211.773
211.552
211.37
211.224
211.115
211.042
211.006
210.991
210.997
211.026
211.075
211.141
211.222
211.315
211.42
211.534
211.657
211.786
211.921
212.061
212.205
212.352
212.501
212.652
212.805
212.955
220.951
219.91
218.967
218.111
217.351
216.671
216.055
215.497
214.991
214.533
214.12
213.747
213.413
213.119
212.861
212.639
212.452
212.299
212.178
212.09
212.032
212.007
211.997
212.006
212.035
212.08
212.139
212.21
212.291
212.382
212.481
212.586
212.696
212.811
212.931
213.053
213.177
213.303
213.431
213.559
213.686
221.01
220.034
219.15
218.352
217.646
217.017
216.451
215.941
215.482
215.069
214.7
214.369
214.076
213.82
213.597
213.408
213.249
213.121
213.022
212.951
212.907
212.89
212.886
212.897
212.925
212.967
213.02
213.082
213.154
213.232
213.317
213.408
213.502
213.601
213.702
213.806
213.911
214.018
214.126
214.235
214.341
221.065
220.145
219.314
218.566
217.907
217.323
216.801
216.334
215.917
215.546
215.215
214.922
214.665
214.442
214.25
214.089
213.956
213.849
213.769
213.713
213.679
213.669
213.669
213.683
213.71
213.748
213.796
213.852
213.914
213.983
214.056
214.134
214.215
214.299
214.386
214.474
214.563
214.654
214.745
214.837
214.927
221.115
220.245
219.459
218.755
218.138
217.594
217.111
216.682
216.302
215.967
215.671
215.412
215.187
214.993
214.829
214.692
214.581
214.493
214.429
214.385
214.361
214.357
214.361
214.376
214.402
214.438
214.481
214.531
214.586
214.646
214.71
214.777
214.847
214.919
214.993
215.068
215.144
215.221
215.298
215.376
215.452
221.161
220.333
219.587
218.921
218.34
217.831
217.383
216.988
216.641
216.338
216.074
215.844
215.647
215.48
215.34
215.224
215.132
215.061
215.01
214.978
214.962
214.962
214.97
214.986
215.011
215.045
215.084
215.129
215.177
215.23
215.285
215.343
215.404
215.465
215.528
215.592
215.657
215.722
215.787
215.853
215.917
221.203
220.41
219.697
219.064
218.515
218.037
217.619
217.254
216.937
216.663
216.426
216.223
216.052
215.907
215.789
215.693
215.618
215.561
215.522
215.499
215.491
215.496
215.506
215.523
215.549
215.58
215.616
215.656
215.7
215.746
215.795
215.845
215.897
215.95
216.004
216.058
216.113
216.169
216.224
216.28
216.333
221.24
220.476
219.791
219.187
218.664
218.212
217.821
217.483
217.192
216.943
216.732
216.553
216.404
216.281
216.181
216.102
216.042
215.999
215.97
215.955
215.952
215.961
215.973
215.991
216.016
216.046
216.079
216.115
216.154
216.195
216.238
216.282
216.326
216.372
216.418
216.465
216.512
216.559
216.605
216.653
216.698
221.272
220.531
219.869
219.288
218.788
218.359
217.991
217.676
217.409
217.183
216.994
216.837
216.708
216.604
216.522
216.458
216.412
216.38
216.361
216.354
216.357
216.369
216.384
216.404
216.429
216.458
216.489
216.523
216.558
216.595
216.633
216.671
216.71
216.75
216.789
216.829
216.869
216.909
216.948
216.988
217.026
221.299
220.575
219.931
219.368
218.887
218.477
218.129
217.835
217.589
217.384
217.215
217.078
216.967
216.88
216.813
216.763
216.728
216.706
216.696
216.695
216.702
216.717
216.734
216.754
216.779
216.806
216.836
216.867
216.899
216.932
216.965
216.999
217.033
217.068
217.102
217.136
217.17
217.204
217.238
217.271
217.303
221.321
220.608
219.977
219.428
218.962
218.567
218.236
217.96
217.732
217.546
217.396
217.276
217.182
217.111
217.059
217.023
217
216.989
216.987
216.993
217.006
217.025
217.045
217.068
217.094
217.122
217.15
217.18
217.21
217.24
217.271
217.301
217.332
217.362
217.391
217.421
217.45
217.478
217.507
217.534
217.561
221.338
220.632
220.01
219.471
219.014
218.632
218.314
218.053
217.841
217.671
217.537
217.433
217.355
217.298
217.258
217.232
217.219
217.215
217.22
217.231
217.247
217.268
217.29
217.313
217.339
217.366
217.393
217.421
217.449
217.477
217.505
217.532
217.559
217.586
217.612
217.638
217.663
217.688
217.712
217.736
217.758
221.35
220.645
220.027
219.494
219.045
218.672
218.365
218.116
217.917
217.761
217.641
217.552
217.488
217.446
217.421
217.41
217.409
217.417
217.432
217.452
217.475
217.501
217.528
217.555
217.583
217.612
217.64
217.668
217.695
217.722
217.748
217.774
217.798
217.822
217.845
217.868
217.889
217.91
217.93
217.95
217.969
221.355
220.64
220.017
219.483
219.037
218.671
218.374
218.137
217.952
217.81
217.704
217.627
217.576
217.543
217.526
217.522
217.528
217.542
217.561
217.584
217.609
217.637
217.665
217.693
217.722
217.75
217.778
217.805
217.831
217.857
217.881
217.905
217.928
217.95
217.971
217.991
218.01
218.029
218.047
218.064
218.081
221.353
220.62
219.984
219.443
218.995
218.63
218.339
218.111
217.937
217.809
217.719
217.661
217.628
217.617
217.622
217.639
217.665
217.696
217.73
217.765
217.8
217.836
217.871
217.904
217.937
217.968
217.998
218.026
218.053
218.079
218.103
218.125
218.147
218.167
218.186
218.204
218.221
218.236
218.251
218.265
218.279
164.058
168.77
175.035
180.069
185.316
190.816
196.085
200.936
205.291
209.109
212.394
215.172
217.489
219.397
220.944
222.182
223.156
223.91
224.481
224.903
225.202
225.404
225.527
225.589
225.603
225.58
225.529
225.456
225.369
225.27
225.164
225.055
224.943
224.832
224.722
224.615
224.512
224.413
224.318
224.227
224.142
224.06
223.983
223.911
223.842
223.778
223.717
223.659
223.605
223.553
223.504
223.458
223.414
223.372
223.332
223.294
223.258
223.224
223.191
223.161
223.132
223.106
223.081
223.058
223.037
223.018
223.001
222.986
222.972
222.962
222.951
222.95
222.936
222.96
160.371
166.706
173.336
178.94
184.574
190.304
195.744
200.725
205.176
209.062
212.391
215.198
217.532
219.447
220.996
222.231
223.2
223.948
224.513
224.927
225.22
225.416
225.534
225.591
225.601
225.574
225.52
225.445
225.355
225.255
225.149
225.038
224.926
224.814
224.704
224.597
224.494
224.395
224.3
224.21
224.125
224.044
223.968
223.895
223.828
223.763
223.703
223.646
223.592
223.542
223.493
223.447
223.404
223.362
223.323
223.285
223.249
223.215
223.183
223.153
223.125
223.099
223.074
223.051
223.03
223.011
222.994
222.979
222.966
222.956
222.945
222.944
222.931
222.956
157.081
163.469
170.906
177.445
183.634
189.686
195.351
200.492
205.056
209.02
212.402
215.241
217.593
219.515
221.065
222.296
223.258
223.998
224.554
224.96
225.244
225.432
225.544
225.595
225.6
225.569
225.511
225.434
225.342
225.24
225.132
225.02
224.907
224.795
224.685
224.578
224.475
224.376
224.281
224.192
224.107
224.026
223.95
223.879
223.811
223.748
223.688
223.632
223.579
223.529
223.481
223.436
223.393
223.352
223.313
223.276
223.24
223.207
223.175
223.145
223.117
223.091
223.066
223.043
223.023
223.004
222.987
222.972
222.959
222.949
222.939
222.939
222.925
222.951
154.366
160.227
168.056
175.534
182.439
188.927
194.888
200.236
204.938
208.994
212.435
215.31
217.68
219.609
221.157
222.382
223.335
224.064
224.608
225.003
225.278
225.456
225.559
225.604
225.602
225.566
225.504
225.423
225.328
225.224
225.114
225.001
224.888
224.775
224.664
224.557
224.454
224.355
224.261
224.172
224.087
224.007
223.931
223.86
223.794
223.731
223.672
223.616
223.564
223.515
223.468
223.423
223.381
223.34
223.302
223.265
223.23
223.197
223.165
223.136
223.108
223.082
223.058
223.035
223.015
222.996
222.979
222.965
222.952
222.943
222.933
222.932
222.92
222.945
152.733
157.797
165.32
173.341
180.959
187.994
194.333
199.943
204.823
208.993
212.501
215.413
217.801
219.735
221.279
222.494
223.434
224.148
224.678
225.059
225.32
225.488
225.581
225.616
225.607
225.565
225.498
225.412
225.314
225.207
225.095
224.981
224.866
224.752
224.642
224.534
224.431
224.332
224.238
224.149
224.065
223.986
223.911
223.841
223.775
223.712
223.654
223.6
223.548
223.499
223.453
223.409
223.367
223.328
223.29
223.253
223.219
223.186
223.155
223.126
223.098
223.073
223.048
223.026
223.006
222.988
222.971
222.957
222.944
222.936
222.926
222.926
222.914
222.94
152.013
156.276
163.164
171.24
179.321
186.884
193.672
199.602
204.701
209.018
212.614
215.568
217.971
219.905
221.44
222.639
223.561
224.256
224.767
225.13
225.375
225.528
225.608
225.633
225.615
225.565
225.492
225.401
225.299
225.189
225.074
224.958
224.842
224.728
224.616
224.509
224.405
224.307
224.213
224.125
224.041
223.962
223.888
223.819
223.753
223.692
223.635
223.581
223.53
223.482
223.437
223.394
223.353
223.314
223.276
223.241
223.207
223.175
223.144
223.115
223.088
223.062
223.039
223.017
222.997
222.979
222.963
222.949
222.937
222.928
222.919
222.919
222.907
222.934
152.015
155.667
161.905
169.654
177.829
185.725
192.923
199.212
204.568
209.06
212.769
215.785
218.208
220.136
221.653
222.829
223.724
224.393
224.88
225.22
225.444
225.579
225.644
225.655
225.626
225.567
225.486
225.39
225.282
225.169
225.051
224.933
224.815
224.7
224.588
224.48
224.377
224.279
224.186
224.098
224.015
223.937
223.863
223.795
223.73
223.67
223.613
223.56
223.51
223.463
223.419
223.377
223.337
223.298
223.262
223.227
223.193
223.162
223.132
223.103
223.076
223.051
223.028
223.007
222.987
222.969
222.954
222.94
222.928
222.92
222.911
222.912
222.901
222.927
152.688
155.984
161.666
168.915
176.851
184.786
192.215
198.807
204.437
209.123
212.957
216.049
218.509
220.441
221.936
223.077
223.936
224.57
225.023
225.333
225.532
225.644
225.689
225.684
225.642
225.571
225.481
225.377
225.264
225.146
225.025
224.904
224.785
224.668
224.555
224.447
224.344
224.246
224.154
224.067
223.985
223.908
223.835
223.767
223.704
223.645
223.589
223.537
223.489
223.443
223.399
223.358
223.319
223.281
223.245
223.211
223.179
223.148
223.118
223.09
223.064
223.039
223.017
222.996
222.976
222.959
222.944
222.931
222.919
222.912
222.904
222.905
222.894
222.92
153.948
157.175
162.443
169.179
176.693
184.388
191.79
198.511
204.34
209.22
213.189
216.356
218.854
220.8
222.286
223.396
224.211
224.797
225.206
225.478
225.642
225.725
225.746
225.721
225.662
225.578
225.477
225.364
225.244
225.12
224.995
224.871
224.75
224.632
224.518
224.41
224.307
224.21
224.118
224.032
223.951
223.875
223.804
223.737
223.675
223.617
223.563
223.512
223.464
223.419
223.377
223.337
223.299
223.262
223.228
223.194
223.162
223.132
223.103
223.076
223.05
223.027
223.004
222.984
222.965
222.948
222.934
222.921
222.91
222.903
222.895
222.897
222.887
222.913
155.606
159.043
164.146
170.436
177.486
184.784
191.92
198.539
204.396
209.381
213.466
216.712
219.246
221.196
222.67
223.757
224.538
225.08
225.439
225.661
225.781
225.827
225.818
225.768
225.688
225.587
225.473
225.349
225.221
225.091
224.961
224.833
224.709
224.59
224.476
224.367
224.265
224.168
224.077
223.992
223.912
223.838
223.768
223.703
223.642
223.586
223.533
223.483
223.437
223.394
223.353
223.314
223.277
223.241
223.208
223.175
223.144
223.115
223.087
223.061
223.036
223.012
222.991
222.971
222.953
222.937
222.922
222.91
222.9
222.893
222.886
222.888
222.879
222.906
157.337
161.209
166.46
172.531
179.172
186.028
192.775
199.105
204.79
209.713
213.812
217.102
219.672
221.629
223.081
224.131
224.874
225.38
225.7
225.878
225.953
225.955
225.908
225.825
225.72
225.599
225.468
225.332
225.194
225.056
224.921
224.789
224.662
224.541
224.426
224.318
224.216
224.12
224.03
223.947
223.868
223.795
223.727
223.664
223.605
223.55
223.499
223.451
223.406
223.365
223.325
223.287
223.252
223.218
223.185
223.154
223.124
223.096
223.069
223.044
223.019
222.997
222.976
222.957
222.94
222.924
222.91
222.899
222.889
222.883
222.877
222.879
222.871
222.898
158.96
163.282
168.837
174.991
181.443
187.965
194.313
200.264
205.646
210.35
214.316
217.547
220.105
222.065
223.504
224.517
225.209
225.664
225.94
226.083
226.125
226.095
226.012
225.896
225.759
225.613
225.463
225.312
225.162
225.015
224.873
224.737
224.607
224.484
224.368
224.26
224.159
224.064
223.976
223.894
223.818
223.747
223.681
223.619
223.563
223.51
223.46
223.415
223.372
223.332
223.294
223.258
223.224
223.192
223.16
223.131
223.102
223.075
223.049
223.025
223.002
222.98
222.96
222.942
222.925
222.91
222.898
222.887
222.878
222.872
222.867
222.87
222.862
222.889
161.01
165.489
171.09
177.313
183.725
190.098
196.202
201.844
206.899
211.31
215.045
218.112
220.569
222.476
223.883
224.869
225.525
225.933
226.155
226.245
226.247
226.189
226.087
225.952
225.796
225.628
225.457
225.287
225.122
224.965
224.816
224.674
224.541
224.416
224.3
224.192
224.091
223.998
223.912
223.833
223.759
223.69
223.627
223.568
223.514
223.463
223.417
223.373
223.332
223.294
223.259
223.225
223.193
223.162
223.133
223.104
223.077
223.052
223.027
223.004
222.982
222.962
222.943
222.925
222.91
222.896
222.884
222.874
222.865
222.861
222.856
222.86
222.853
222.88
165.21
168.94
173.841
179.799
185.995
192.113
197.978
203.406
208.25
212.422
215.914
218.775
221.071
222.862
224.194
225.135
225.764
226.145
226.331
226.375
226.328
226.227
226.092
225.937
225.773
225.602
225.426
225.249
225.074
224.905
224.746
224.598
224.461
224.335
224.218
224.111
224.012
223.921
223.838
223.761
223.69
223.625
223.565
223.509
223.458
223.41
223.366
223.325
223.288
223.252
223.219
223.187
223.157
223.129
223.101
223.075
223.05
223.026
223.003
222.981
222.96
222.941
222.924
222.907
222.893
222.88
222.869
222.86
222.852
222.848
222.844
222.849
222.843
222.87
171.151
174.416
178.577
183.974
189.626
195.108
200.342
205.21
209.579
213.382
216.617
219.293
221.432
223.086
224.324
225.213
225.817
226.19
226.376
226.419
226.362
226.238
226.069
225.878
225.684
225.496
225.317
225.144
224.977
224.814
224.657
224.506
224.365
224.236
224.119
224.013
223.917
223.829
223.75
223.677
223.61
223.548
223.492
223.44
223.393
223.349
223.308
223.271
223.236
223.203
223.173
223.144
223.117
223.091
223.066
223.042
223.019
222.996
222.975
222.955
222.936
222.919
222.903
222.888
222.874
222.862
222.852
222.844
222.838
222.835
222.832
222.837
222.833
222.86
177.111
180.056
183.425
187.756
192.468
197.19
201.841
206.321
210.472
214.165
217.329
219.94
222.006
223.555
224.65
225.375
225.821
226.071
226.187
226.21
226.164
226.064
225.92
225.743
225.55
225.353
225.159
224.974
224.803
224.647
224.503
224.367
224.239
224.117
224.004
223.899
223.804
223.72
223.644
223.576
223.514
223.458
223.407
223.36
223.317
223.277
223.241
223.207
223.176
223.148
223.12
223.095
223.071
223.048
223.025
223.004
222.983
222.964
222.945
222.927
222.91
222.894
222.879
222.866
222.854
222.843
222.835
222.828
222.823
222.821
222.819
222.825
222.821
222.849
182.401
185.037
187.828
191.077
194.631
198.306
202.025
205.724
209.304
212.666
215.726
218.419
220.7
222.552
223.984
225.031
225.733
226.136
226.293
226.268
226.123
225.919
225.698
225.484
225.283
225.095
224.913
224.735
224.567
224.41
224.266
224.138
224.025
223.924
223.833
223.747
223.667
223.591
223.522
223.459
223.402
223.352
223.306
223.265
223.228
223.194
223.163
223.134
223.108
223.083
223.06
223.038
223.018
222.998
222.979
222.961
222.943
222.926
222.91
222.895
222.88
222.866
222.853
222.842
222.832
222.823
222.815
222.81
222.806
222.805
222.805
222.812
222.81
222.838
186.226
188.452
190.778
193.282
195.969
198.782
201.665
204.574
207.458
210.26
212.925
215.407
217.663
219.661
221.373
222.782
223.885
224.69
225.228
225.54
225.669
225.657
225.542
225.357
225.134
224.903
224.683
224.486
224.312
224.16
224.024
223.902
223.793
223.696
223.613
223.541
223.479
223.423
223.37
223.321
223.275
223.232
223.193
223.158
223.127
223.099
223.074
223.051
223.03
223.011
222.993
222.975
222.959
222.943
222.928
222.913
222.899
222.885
222.872
222.859
222.847
222.836
222.825
222.816
222.807
222.8
222.794
222.791
222.788
222.789
222.79
222.798
222.797
222.826
189.329
191.164
193.087
195.089
197.197
199.4
201.667
203.968
206.274
208.55
210.762
212.877
214.862
216.694
218.353
219.823
221.098
222.174
223.051
223.732
224.225
224.544
224.712
224.758
224.713
224.603
224.454
224.285
224.111
223.947
223.801
223.676
223.572
223.483
223.407
223.34
223.283
223.234
223.193
223.158
223.127
223.097
223.069
223.043
223.019
222.998
222.979
222.962
222.947
222.933
222.92
222.907
222.896
222.884
222.873
222.862
222.852
222.841
222.831
222.821
222.812
222.803
222.795
222.788
222.781
222.776
222.772
222.77
222.769
222.771
222.774
222.783
222.784
222.813
192.014
193.505
195.064
196.672
198.352
200.104
201.911
203.753
205.614
207.474
209.308
211.094
212.809
214.433
215.946
217.336
218.593
219.71
220.687
221.524
222.225
222.795
223.24
223.567
223.782
223.898
223.93
223.899
223.823
223.72
223.604
223.486
223.375
223.278
223.198
223.135
223.084
223.044
223.011
222.983
222.961
222.943
222.928
222.915
222.902
222.889
222.877
222.866
222.857
222.849
222.842
222.835
222.828
222.821
222.815
222.808
222.801
222.794
222.787
222.781
222.774
222.768
222.763
222.758
222.754
222.751
222.749
222.748
222.749
222.753
222.757
222.768
222.77
222.8
194.423
195.625
196.877
198.17
199.519
200.925
202.378
203.866
205.38
206.905
208.427
209.932
211.401
212.818
214.17
215.442
216.623
217.705
218.683
219.556
220.324
220.993
221.567
222.05
222.449
222.766
223.004
223.168
223.262
223.297
223.285
223.241
223.177
223.103
223.027
222.957
222.899
222.854
222.823
222.802
222.789
222.78
222.774
222.771
222.769
222.768
222.767
222.765
222.762
222.76
222.758
222.757
222.755
222.754
222.752
222.75
222.747
222.744
222.741
222.738
222.734
222.731
222.728
222.726
222.724
222.723
222.723
222.725
222.728
222.733
222.739
222.751
222.755
222.786
196.61
197.573
198.576
199.615
200.702
201.834
203.008
204.215
205.449
206.703
207.966
209.229
210.48
211.706
212.896
214.039
215.124
216.142
217.087
217.954
218.739
219.444
220.068
220.617
221.096
221.509
221.862
222.159
222.401
222.588
222.723
222.806
222.846
222.849
222.828
222.791
222.748
222.704
222.664
222.635
222.618
222.612
222.613
222.619
222.626
222.635
222.644
222.652
222.66
222.666
222.67
222.675
222.678
222.682
222.685
222.687
222.689
222.691
222.691
222.692
222.692
222.692
222.692
222.692
222.693
222.695
222.697
222.7
222.705
222.712
222.719
222.733
222.739
222.771
198.637
199.406
200.206
201.04
201.913
202.825
203.772
204.751
205.757
206.786
207.832
208.887
209.944
210.994
212.029
213.039
214.016
214.952
215.839
216.672
217.446
218.157
218.804
219.388
219.91
220.373
220.781
221.139
221.453
221.725
221.958
222.152
222.307
222.421
222.496
222.537
222.55
222.544
222.527
222.504
222.483
222.467
222.461
222.465
222.477
222.493
222.511
222.529
222.546
222.561
222.575
222.587
222.597
222.606
222.614
222.621
222.628
222.634
222.638
222.643
222.647
222.65
222.653
222.656
222.66
222.664
222.668
222.674
222.681
222.69
222.699
222.715
222.723
222.756
200.531
201.142
201.777
202.444
203.144
203.877
204.641
205.433