/*--------------------------------*- C++ -*----------------------------------*\
| =========                 |                                                 |
| \\      /  F ield         | OpenFOAM: The Open Source CFD Toolbox           |
|  \\    /   O peration     | Version:  5.x                                   |
|   \\  /    A nd           | Web:      www.OpenFOAM.org                      |
|    \\/     M anipulation  |                                                 |
\*---------------------------------------------------------------------------*/
FoamFile
{
    version     2.0;
    format      ascii;
    class       volScalarField;
    location    "300";
    object      p;
}
// * * * * * * * * * * * * * * * * * * * * * * * * * * * * * * * * * * * * * //

dimensions      [0 2 -2 0 0 0 0];

internalField   nonuniform List<scalar> 
11040
(
-1.68489
39.9539
62.0824
65.2394
68.346
70.5177
71.9923
73.0838
73.9456
74.6119
75.0983
75.4331
75.6171
75.6432
75.5041
75.1803
74.6464
73.869
72.8014
71.3974
69.6535
67.6695
65.509
63.2232
60.945
58.7956
56.9056
55.398
54.4035
54.0226
54.3331
55.3629
57.1087
59.5221
62.4369
65.5256
68.4224
71.0312
72.1484
68.5595
65.3898
73.3142
66.7556
63.2526
65.9582
68.1972
70.407
71.9167
73.0282
73.9131
74.6042
75.1105
75.4627
75.6636
75.7061
75.5839
75.2777
74.7621
74.0047
72.9581
71.5743
69.8445
67.8697
65.7173
63.435
61.1496
58.9828
57.068
55.5289
54.4944
54.0679
54.3319
55.3118
57.0015
59.3582
62.219
65.2583
68.1116
70.691
71.8437
68.0993
63.4801
118.002
98.1011
74.4749
67.948
68.7268
70.4431
71.8941
73.0042
73.8998
74.6113
75.1344
75.5012
75.7169
75.7737
75.6669
75.3776
74.8798
74.1415
73.1152
71.7527
70.0384
68.0674
65.9191
63.6398
61.3498
59.1693
57.2329
55.6648
54.593
54.1206
54.3314
55.251
56.8723
59.1524
61.9319
64.8885
67.6531
70.1306
71.2186
67.186
62.3337
138.855
115.61
93.6286
76.3352
70.7831
70.977
72.0066
73.0311
73.917
74.6471
75.1908
75.5753
75.8089
75.8813
75.7898
75.5168
75.0359
74.3161
73.3098
71.9689
70.2711
68.3047
66.1593
63.8812
61.5848
59.3879
57.4232
55.8162
54.6939
54.1603
54.2991
55.1366
56.6655
58.8427
61.5134
64.3596
67.0134
69.3592
70.2852
66.0446
61.7301
158.329
133.27
111.882
91.7154
77.8696
73.0788
72.6672
73.2271
73.979
74.7103
75.2758
75.6804
75.9371
76.0297
75.9571
75.704
75.2432
74.5453
73.5626
72.2471
70.5677
68.6072
66.4635
64.1828
61.8741
59.6536
57.6514
55.9929
54.8043
54.19
54.2341
54.9639
56.3717
58.4142
60.9403
63.6395
66.1522
68.3348
69.0164
64.8004
61.4378
174.039
150.756
128.563
108.415
91.2781
79.791
75.0569
74.0992
74.2617
74.8288
75.3921
75.8163
76.0999
76.2175
76.1676
75.9382
75.5
74.8265
73.8702
72.5831
70.9251
68.9724
66.8306
64.5454
62.2198
59.9684
57.9183
56.1946
54.9211
54.2033
54.1253
54.7168
55.9697
57.8393
60.18
62.691
65.0325
67.0231
67.433
63.5847
61.327
185.344
165.112
144.23
124.365
106.831
92.2003
81.8941
76.8952
75.4685
75.2297
75.58
75.9791
76.2908
76.4408
76.4188
76.2185
75.8072
75.1621
74.2357
72.9809
71.3485
69.4071
67.268
64.976
62.6284
60.3372
58.2264
56.4201
55.0398
54.1911
53.9585
54.3753
55.4333
57.0873
59.1974
61.4805
63.6268
65.413
65.6142
62.499
61.3143
193.558
176.305
158.079
139.527
122.094
106.754
93.8058
84.1678
78.8526
76.8512
76.1886
76.2466
76.5117
76.6933
76.7009
76.5389
76.1622
75.5533
74.6634
73.4471
71.8467
69.9223
67.7876
65.4862
63.1099
60.7678
58.5803
56.6702
55.1568
54.1453
53.7201
53.9199
54.7378
56.1289
57.9626
59.9825
61.9199
63.5162
63.6592
61.5507
61.3896
199.559
184.759
169.247
152.969
136.639
121.266
107.582
95.8528
86.6782
80.9972
78.326
77.2317
76.9075
76.986
77.0025
76.8895
76.5541
75.9916
75.1481
73.9803
72.4222
70.5244
68.3991
66.0876
63.6761
61.2703
58.9875
56.9488
55.2717
54.0606
53.3996
53.3347
53.8627
54.9415
56.455
58.1851
59.9114
61.3635
61.6389
60.6535
61.5374
203.835
190.991
177.757
163.861
149.5
135.11
121.385
108.993
98.2103
89.4516
83.4188
80.0243
78.4251
77.623
77.3745
77.2597
76.9668
76.4629
75.6757
74.5694
73.0676
71.2101
69.1031
66.7845
64.3349
61.8554
59.4598
57.2665
55.3918
53.9401
52.9966
52.6145
52.8
53.5173
54.6714
56.0932
57.6146
58.9851
59.5523
59.6577
61.5891
206.731
195.47
184.084
172.236
159.932
147.268
134.49
122.142
110.814
100.842
92.512
86.1456
82.0383
79.7516
78.5025
77.7779
77.393
76.9428
76.2268
75.1972
73.7657
71.9629
69.8849
67.5648
65.0775
62.5189
59.9972
57.6276
55.5253
53.7959
52.5261
51.7757
51.5666
51.8756
52.6363
53.7334
55.052
56.388
57.3217
58.3651
61.1583
208.527
198.566
188.676
178.507
167.988
157.104
145.877
134.491
123.349
112.953
103.707
95.7038
89.1411
84.3793
81.3839
79.5563
78.3151
77.4647
76.7585
75.8258
74.4877
72.7545
70.7123
68.3947
65.8702
63.2278
60.5702
58.0091
55.6581
53.6228
51.9929
50.8364
50.1923
50.0589
50.401
51.1542
52.2511
53.55
54.8199
56.5314
59.7419
209.45
200.57
191.893
183.09
174.057
164.725
155.055
145.077
134.924
124.871
115.339
106.655
98.9494
92.3425
87.0857
83.3432
80.8619
79.0763
77.6259
76.4175
75.1495
73.5238
71.5378
69.2255
66.6574
63.9218
61.1176
58.3521
55.7355
53.3742
51.3631
49.7797
48.6781
48.0799
47.9843
48.3687
49.2035
50.4099
51.8874
53.8978
56.9506
209.693
201.726
194.047
186.357
178.543
170.514
162.2
153.587
144.709
135.658
126.62
117.861
109.664
102.235
95.6683
90.0876
85.6814
82.4656
80.086
78.0092
76.0426
74.1686
72.2135
69.9557
67.3709
64.5403
61.5737
58.5857
55.6875
52.9877
50.5856
48.5664
46.9964
45.915
45.3524
45.3191
45.8131
46.809
48.2874
50.217
52.6486
209.414
202.237
195.396
188.623
181.81
174.862
167.694
160.269
152.589
144.685
136.626
128.502
120.462
112.74
105.56
99.0468
93.2651
88.3289
84.3637
81.2679
78.6024
75.8668
73.0745
70.4196
67.7812
64.9494
61.89
58.7009
55.5175
52.4688
49.6656
47.2008
45.1523
43.5737
42.5139
42.0024
42.058
42.6927
43.929
45.4816
47.0804
208.76
202.281
196.159
190.155
184.17
178.117
171.909
165.496
158.859
152.007
144.971
137.778
130.464
123.116
115.881
108.94
102.445
96.474
91.0854
86.3824
82.4056
79.1554
76.0483
72.5081
68.7543
65.1738
61.8062
58.5002
55.1839
51.9056
48.7708
45.8934
43.3752
41.2908
39.7074
38.6668
38.198
38.3272
39.0984
40.1169
40.9199
207.908
202.059
196.564
191.214
185.921
180.61
175.204
169.644
163.902
157.97
151.86
145.581
139.141
132.563
125.883
119.157
112.472
105.939
99.652
93.6912
88.0891
83.3437
79.5125
75.9495
72.1815
67.9763
63.5
59.1313
55.0942
51.3959
47.9821
44.8436
42.0229
39.5727
37.5637
36.0537
35.0889
34.6928
34.9125
35.416
35.6363
206.999
201.696
196.731
191.923
187.193
182.478
177.709
172.832
167.813
162.637
157.304
151.811
146.156
140.349
134.406
128.34
122.162
115.897
109.575
103.25
96.9152
90.9275
85.5484
80.5973
75.9893
71.6007
67.2162
62.6607
57.9703
53.3771
49.1243
45.3404
42.0548
39.2463
36.9226
35.1018
33.8145
33.0647
32.9188
33.1028
32.9035
206.122
201.288
196.775
192.421
188.156
183.923
179.664
175.328
170.882
166.309
161.605
156.761
151.77
146.635
141.369
135.985
130.496
124.905
119.197
113.343
107.287
101.197
95.2459
89.4028
83.7188
78.2791
73.1354
68.2648
63.5819
58.9985
54.5003
50.182
46.204
42.6932
39.7518
37.4222
35.7237
34.6163
34.1629
34.1382
33.5423
205.335
200.914
196.794
192.831
188.963
185.139
181.306
177.421
173.451
169.378
165.197
160.899
156.473
151.919
147.239
142.441
137.533
132.523
127.411
122.181
116.792
111.344
105.914
100.459
94.972
89.4712
84.0151
78.6913
73.5855
68.7556
64.2232
59.9859
56.0474
52.4133
49.1567
46.3622
44.121
42.4361
41.4089
40.9913
39.9237
204.648
200.598
196.83
193.213
189.694
186.225
182.761
179.264
175.703
172.06
168.328
164.501
160.569
156.529
152.381
148.127
143.771
139.316
134.767
130.121
125.37
120.629
115.966
111.336
106.715
102.082
97.4325
92.7891
88.1954
83.7129
79.4143
75.3708
71.647
68.2733
65.2922
62.7394
60.6562
59.0213
57.8854
57.4131
56.3771
204.063
200.351
196.903
193.598
190.392
187.241
184.104
180.949
177.749
174.484
171.149
167.739
164.246
160.668
157.004
153.256
149.428
145.522
141.541
137.487
133.362
129.284
125.332
121.484
117.74
114.087
110.515
107.023
103.617
100.315
97.1436
94.1414
91.3547
88.8246
86.6008
84.736
83.2782
82.2368
81.6167
81.6071
81.4384
203.574
200.172
197.017
193.998
191.077
188.215
185.375
182.528
179.652
176.727
173.749
170.714
167.616
164.455
161.232
157.949
154.611
151.222
147.789
144.315
140.809
137.376
134.085
130.933
127.934
125.092
122.41
119.893
117.546
115.377
113.396
111.615
110.051
108.721
107.643
106.843
106.346
106.173
106.323
106.862
107.645
203.173
200.058
197.173
194.417
191.757
189.161
186.592
184.027
181.445
178.831
176.178
173.484
170.747
167.967
165.147
162.29
159.404
156.494
153.57
150.641
147.718
144.89
142.213
139.69
137.337
135.163
133.174
131.378
129.784
128.398
127.227
126.275
125.548
125.05
124.779
124.74
124.935
125.369
126.032
126.899
128.11
202.85
200
197.365
194.852
192.435
190.083
187.765
185.458
183.147
180.818
178.463
176.082
173.675
171.244
168.793
166.327
163.854
161.383
158.924
156.49
154.096
151.816
149.689
147.722
145.928
144.314
142.886
141.647
140.603
139.757
139.111
138.663
138.414
138.361
138.496
138.814
139.307
139.972
140.79
141.726
142.908
202.595
199.991
197.588
195.3
193.107
190.981
188.895
186.827
184.767
182.7
180.619
178.526
176.422
174.31
172.196
170.085
167.987
165.912
163.872
161.881
159.954
158.153
156.504
155.011
153.686
152.534
151.556
150.753
150.126
149.673
149.391
149.277
149.324
149.527
149.875
150.361
150.974
151.707
152.544
153.46
154.522
202.399
200.022
197.833
195.754
193.769
191.854
189.981
188.135
186.305
184.48
182.652
180.824
178.997
177.177
175.369
173.58
171.82
170.099
168.43
166.827
165.306
163.916
162.67
161.572
160.631
159.849
159.223
158.753
158.434
158.263
158.235
158.342
158.577
158.933
159.398
159.966
160.622
161.364
162.176
163.042
163.997
202.253
200.086
198.095
196.209
194.416
192.695
191.021
189.379
187.761
186.158
184.563
182.978
181.405
179.85
178.319
176.819
175.361
173.954
172.61
171.344
170.17
169.125
168.214
167.439
166.806
166.313
165.956
165.733
165.637
165.662
165.803
166.05
166.397
166.834
167.353
167.944
168.598
169.31
170.07
170.861
171.712
202.148
200.174
198.366
196.659
195.043
193.501
192.01
190.556
189.133
187.734
186.352
184.988
183.646
182.331
181.05
179.809
178.617
177.485
176.424
175.446
174.564
173.806
173.169
172.653
172.261
171.99
171.835
171.791
171.851
172.008
172.255
172.584
172.988
173.457
173.986
174.563
175.183
175.84
176.527
177.229
177.97
202.077
200.281
198.641
197.098
195.645
194.267
192.944
191.664
190.419
189.206
188.018
186.856
185.722
184.623
183.565
182.553
181.596
180.703
179.884
179.149
178.511
177.988
177.57
177.258
177.053
176.95
176.942
177.024
177.188
177.429
177.738
178.107
178.531
179.001
179.512
180.054
180.622
181.212
181.819
182.43
183.064
202.033
200.4
198.914
197.521
196.218
194.99
193.82
192.698
191.616
190.572
189.56
188.58
187.634
186.728
185.867
185.057
184.304
183.617
183.003
182.473
182.034
181.7
181.457
181.303
181.239
181.259
181.355
181.523
181.754
182.043
182.382
182.765
183.184
183.636
184.113
184.609
185.119
185.64
186.167
186.693
187.229
202.011
200.526
199.179
197.924
196.757
195.666
194.636
193.657
192.723
191.832
190.978
190.16
189.382
188.647
187.96
187.326
186.75
186.238
185.798
185.435
185.159
184.975
184.868
184.835
184.875
184.983
185.151
185.373
185.643
185.956
186.303
186.681
187.083
187.505
187.941
188.387
188.838
189.293
189.747
190.195
190.647
202.005
200.655
199.435
198.303
197.259
196.293
195.389
194.539
193.738
192.984
192.271
191.599
190.97
190.386
189.85
189.368
188.943
188.579
188.282
188.058
187.911
187.844
187.841
187.899
188.014
188.182
188.397
188.651
188.941
189.259
189.602
189.964
190.339
190.726
191.119
191.515
191.91
192.304
192.693
193.073
193.453
202.012
200.783
199.677
198.657
197.724
196.868
196.077
195.343
194.661
194.029
193.442
192.898
192.399
191.946
191.543
191.191
190.893
190.653
190.475
190.361
190.316
190.339
190.414
190.537
190.704
190.912
191.154
191.425
191.72
192.033
192.362
192.701
193.047
193.396
193.748
194.097
194.441
194.781
195.114
195.435
195.754
202.027
200.906
199.902
198.982
198.148
197.392
196.702
196.07
195.494
194.969
194.492
194.06
193.674
193.335
193.044
192.802
192.611
192.473
192.391
192.365
192.399
192.489
192.621
192.789
192.992
193.223
193.479
193.754
194.045
194.346
194.655
194.969
195.284
195.598
195.91
196.216
196.516
196.808
197.093
197.365
197.634
202.046
201.024
200.109
199.278
198.531
197.863
197.261
196.721
196.236
195.805
195.423
195.088
194.8
194.558
194.361
194.211
194.109
194.053
194.047
194.089
194.183
194.322
194.493
194.691
194.914
195.158
195.418
195.689
195.969
196.254
196.542
196.829
197.114
197.395
197.671
197.94
198.201
198.453
198.696
198.928
199.156
202.07
201.132
200.297
199.543
198.874
198.282
197.758
197.295
196.89
196.539
196.239
195.987
195.781
195.619
195.502
195.427
195.396
195.406
195.459
195.553
195.689
195.862
196.059
196.275
196.509
196.756
197.013
197.275
197.541
197.808
198.073
198.335
198.593
198.844
199.089
199.325
199.553
199.771
199.982
200.181
200.375
202.093
201.23
200.464
199.778
199.175
198.649
198.191
197.796
197.458
197.176
196.944
196.76
196.622
196.527
196.473
196.459
196.483
196.544
196.641
196.772
196.937
197.132
197.343
197.568
197.803
198.047
198.295
198.545
198.795
199.042
199.285
199.524
199.756
199.981
200.198
200.407
200.607
200.798
200.982
201.156
201.324
202.117
201.318
200.611
199.982
199.435
198.966
198.564
198.224
197.943
197.717
197.541
197.413
197.329
197.286
197.282
197.315
197.381
197.479
197.607
197.763
197.947
198.153
198.37
198.596
198.828
199.064
199.301
199.537
199.77
199.999
200.222
200.439
200.648
200.851
201.045
201.232
201.41
201.58
201.743
201.898
202.047
202.138
201.394
200.737
200.156
199.657
199.234
198.878
198.584
198.349
198.167
198.035
197.949
197.907
197.904
197.936
198.002
198.097
198.219
198.366
198.536
198.727
198.935
199.15
199.37
199.593
199.817
200.039
200.259
200.473
200.683
200.887
201.084
201.274
201.457
201.632
201.8
201.961
202.115
202.263
202.404
202.539
202.158
201.458
200.842
200.301
199.841
199.455
199.136
198.878
198.677
198.53
198.43
198.376
198.362
198.387
198.444
198.531
198.644
198.78
198.936
199.112
199.302
199.506
199.714
199.925
200.136
200.347
200.554
200.758
200.957
201.15
201.337
201.517
201.691
201.858
202.019
202.173
202.321
202.463
202.6
202.732
202.858
202.174
201.511
200.927
200.418
199.988
199.632
199.341
199.11
198.934
198.809
198.731
198.696
198.7
198.738
198.807
198.902
199.02
199.157
199.311
199.48
199.66
199.849
200.042
200.235
200.428
200.619
200.808
200.992
201.171
201.345
201.515
201.678
201.836
201.988
202.136
202.278
202.416
202.55
202.68
202.807
202.93
202.187
201.551
200.993
200.508
200.101
199.767
199.496
199.283
199.123
199.012
198.945
198.918
198.93
198.974
199.045
199.139
199.254
199.385
199.531
199.688
199.854
200.027
200.203
200.38
200.556
200.73
200.902
201.07
201.235
201.394
201.55
201.7
201.847
201.989
202.128
202.262
202.394
202.523
202.65
202.775
202.896
202.197
201.581
201.04
200.572
200.181
199.861
199.603
199.401
199.25
199.142
199.075
199.043
199.047
199.079
199.137
199.215
199.31
199.419
199.54
199.67
199.807
199.949
200.094
200.239
200.385
200.53
200.673
200.815
200.954
201.091
201.226
201.358
201.489
201.617
201.744
201.87
201.995
202.12
202.244
202.37
202.493
202.204
201.601
201.072
200.615
200.234
199.921
199.668
199.468
199.316
199.207
199.136
199.099
199.094
199.113
199.154
199.213
199.287
199.374
199.471
199.577
199.689
199.807
199.929
200.053
200.178
200.304
200.431
200.557
200.682
200.807
200.931
201.054
201.177
201.3
201.423
201.546
201.67
201.795
201.921
202.051
202.177
202.207
201.611
201.088
200.638
200.262
199.953
199.7
199.497
199.334
199.205
199.105
199.036
198.997
198.981
198.982
198.997
199.023
199.059
199.103
199.153
199.21
199.271
199.338
199.408
199.482
199.559
199.639
199.723
199.809
199.898
199.991
200.087
200.186
200.288
200.395
200.505
200.62
200.739
200.863
200.993
201.123
202.207
201.605
201.08
200.629
200.254
199.944
199.692
199.486
199.322
199.191
199.085
199.003
198.946
198.908
198.885
198.873
198.872
198.88
198.897
198.921
198.953
198.99
199.036
199.087
199.144
199.206
199.275
199.347
199.426
199.509
199.598
199.691
199.79
199.893
200.003
200.118
200.239
200.366
200.5
200.642
200.786
202.205
201.588
201.051
200.592
200.209
199.892
199.626
199.399
199.199
199.02
198.863
198.731
198.621
198.516
198.413
198.313
198.219
198.129
198.045
197.967
197.895
197.832
197.777
197.732
197.697
197.673
197.659
197.656
197.664
197.683
197.713
197.754
197.805
197.868
197.94
198.024
198.117
198.222
198.337
198.464
198.596
42.7097
78.8207
108.175
128.938
137.449
139.033
136.594
132.788
129.123
126.396
124.919
124.78
126.093
129.079
133.881
140.328
147.916
155.989
163.954
171.374
177.976
183.611
188.204
191.738
194.254
195.84
196.631
196.791
196.51
195.915
195.113
194.206
193.312
192.481
191.749
191.126
190.615
190.202
189.906
189.709
189.618
189.636
189.744
189.963
190.274
190.666
191.143
191.693
192.316
192.987
193.725
194.513
195.337
196.206
197.115
198.059
199.041
200.076
201.16
202.336
203.575
204.994
206.536
208.3
210.316
212.632
215.211
218.251
221.367
225.118
228.793
233.955
236.775
240.2
40.1331
76.8446
104.179
121.943
128.45
129.217
126.872
123.58
120.605
118.615
117.873
118.47
120.556
124.363
130.007
137.271
145.623
154.404
163.023
171.047
178.205
184.345
189.397
193.35
196.252
198.197
199.322
199.8
199.821
199.51
198.954
198.249
197.503
196.761
196.057
195.403
194.806
194.262
193.794
193.397
193.083
192.863
192.725
192.695
192.755
192.905
193.145
193.468
193.875
194.345
194.896
195.508
196.173
196.896
197.672
198.493
199.364
200.295
201.28
202.352
203.482
204.779
206.185
207.791
209.627
211.755
214.141
216.998
219.954
223.563
227.087
232.073
234.733
238.447
40.7962
75.6485
100.236
115.408
120.376
120.52
118.27
115.408
113.008
111.636
111.512
112.739
115.496
120.03
126.429
134.438
143.496
152.936
162.172
170.771
178.463
185.094
190.595
194.962
198.25
200.558
202.029
202.839
203.181
203.176
202.895
202.426
201.864
201.249
200.61
199.96
199.309
198.661
198.043
197.461
196.935
196.481
196.097
195.81
195.611
195.501
195.485
195.559
195.726
195.968
196.304
196.712
197.188
197.734
198.349
199.019
199.748
200.544
201.397
202.338
203.317
204.44
205.641
207.007
208.566
210.398
212.473
215.027
217.706
221.062
224.308
228.971
231.337
235.526
41.8067
75.0657
96.5662
109.672
113.574
113.326
111.187
108.685
106.752
105.878
106.255
107.994
111.301
116.432
123.456
132.083
141.73
151.722
161.472
170.551
178.685
185.72
191.589
196.293
199.89
202.486
204.23
205.301
205.892
206.126
206.066
205.787
205.377
204.871
204.292
203.655
202.971
202.249
201.522
200.801
200.113
199.48
198.903
198.415
198.01
197.694
197.473
197.347
197.32
197.376
197.535
197.777
198.097
198.497
198.976
199.519
200.13
200.814
201.558
202.382
203.236
204.216
205.248
206.412
207.734
209.308
211.11
213.388
215.815
218.931
221.914
226.266
228.339
232.903
43.6374
74.8914
93.1125
104.463
107.58
107.119
105.12
102.947
101.421
100.975
101.779
103.96
107.743
113.389
120.948
130.106
140.258
150.725
160.917
170.406
178.92
186.299
192.479
197.463
201.315
204.146
206.109
207.385
208.172
208.592
208.706
208.58
208.293
207.875
207.348
206.723
206.016
205.238
204.425
203.594
202.776
201.998
201.266
200.614
200.041
199.555
199.166
198.874
198.685
198.587
198.598
198.699
198.888
199.164
199.528
199.964
200.475
201.063
201.714
202.446
203.194
204.053
204.941
205.933
207.053
208.407
209.971
212.01
214.21
217.11
219.851
223.916
225.707
230.566
46.5857
74.8662
89.8523
99.6399
102.146
101.617
99.8061
97.9612
96.8124
96.7502
97.9379
100.517
104.73
110.834
118.86
128.474
139.058
149.931
160.504
170.347
179.187
186.864
193.312
198.534
202.601
205.628
207.772
209.214
210.154
210.722
210.977
210.974
210.788
210.444
209.962
209.351
208.627
207.806
206.923
206.003
205.079
204.181
203.32
202.53
201.815
201.186
200.652
200.217
199.889
199.657
199.539
199.517
199.591
199.757
200.019
200.359
200.779
201.28
201.847
202.487
203.137
203.885
204.642
205.477
206.413
207.566
208.916
210.737
212.732
215.433
217.952
221.751
223.277
228.402
50.3809
74.7722
86.7544
95.0828
97.1184
96.6481
95.0891
93.5961
92.8218
93.1275
94.6793
97.6381
102.254
108.773
117.207
127.204
138.145
149.352
160.238
170.375
179.49
187.417
194.089
199.513
203.759
206.948
209.24
210.815
211.874
212.555
212.919
213.015
212.91
212.628
212.184
211.587
210.853
209.999
209.064
208.073
207.063
206.068
205.099
204.196
203.362
202.611
201.955
201.399
200.951
200.603
200.373
200.244
200.216
200.286
200.457
200.711
201.05
201.473
201.962
202.525
203.085
203.73
204.365
205.055
205.822
206.791
207.941
209.563
211.365
213.883
216.193
219.741
221.012
226.37
54.5006
74.3976
83.7386
90.6354
92.3253
92.0124
90.7873
89.6977
89.3279
90.0205
91.9524
95.3036
100.324
107.236
116.029
126.341
137.56
149.022
160.149
170.514
179.844
187.971
194.824
200.409
204.801
208.12
210.529
212.209
213.357
214.12
214.568
214.739
214.697
214.464
214.051
213.467
212.728
211.851
210.877
209.832
208.756
207.684
206.631
205.635
204.704
203.853
203.095
202.437
201.888
201.441
201.116
200.894
200.778
200.763
200.854
201.033
201.3
201.652
202.072
202.56
203.038
203.589
204.113
204.671
205.282
206.08
207.049
208.484
210.11
212.454
214.568
217.879
218.905
224.469
58.2976
73.52
80.6481
86.1409
87.5954
87.5112
86.7048
86.0885
86.1828
87.3146
89.6768
93.4659
98.9223
106.236
115.363
125.932
137.353
148.988
160.276
170.797
180.278
188.546
195.531
201.238
205.738
209.157
211.657
213.416
214.629
215.448
215.954
216.18
216.185
215.987
215.599
215.027
214.286
213.395
212.392
211.308
210.183
209.052
207.932
206.864
205.855
204.923
204.081
203.339
202.706
202.177
201.77
201.469
201.276
201.189
201.21
201.322
201.526
201.816
202.174
202.598
203.003
203.47
203.893
204.329
204.8
205.443
206.244
207.509
208.969
211.153
213.08
216.168
216.957
222.692
61.1113
71.9613
77.2809
81.4708
82.787
82.9857
82.6763
82.6129
83.2521
84.9032
87.7749
92.0748
98.0236
105.766
115.218
126.008
137.57
149.3
160.667
171.266
180.828
189.176
196.239
202.02
206.591
210.077
212.641
214.456
215.712
216.565
217.108
217.372
217.409
217.237
216.866
216.304
215.563
214.663
213.643
212.533
211.374
210.2
209.031
207.907
206.838
205.842
204.934
204.123
203.421
202.823
202.348
201.98
201.723
201.572
201.533
201.586
201.734
201.968
202.27
202.634
202.972
203.362
203.694
204.021
204.363
204.865
205.514
206.621
207.931
209.962
211.717
214.594
215.154
221.035
62.4316
69.6241
73.4651
76.5353
77.7905
78.3156
78.5699
79.1437
80.4243
82.698
86.1836
91.0888
97.6012
105.809
115.588
126.571
138.228
149.992
161.366
171.967
181.536
189.897
196.978
202.782
207.38
210.898
213.496
215.345
216.623
217.491
218.052
218.339
218.396
218.239
217.88
217.325
216.587
215.685
214.656
213.531
212.35
211.148
209.945
208.781
207.667
206.623
205.663
204.798
204.04
203.387
202.855
202.43
202.119
201.914
201.823
201.825
201.923
202.108
202.361
202.673
202.95
203.272
203.52
203.748
203.975
204.349
204.859
205.823
206.992
208.884
210.475
213.154
213.494
219.49
62.008
66.4412
69.1235
71.3335
72.5699
73.4447
74.3114
75.6004
77.6192
80.6283
84.8437
90.4576
97.6106
106.327
116.446
127.607
139.322
151.075
162.4
172.938
182.444
190.749
197.785
203.556
208.134
211.644
214.243
216.099
217.382
218.246
218.806
219.102
219.168
219.02
218.668
218.118
217.384
216.484
215.455
214.325
213.135
211.918
210.696
209.506
208.361
207.283
206.284
205.379
204.578
203.88
203.302
202.831
202.474
202.223
202.088
202.045
202.1
202.241
202.448
202.711
202.933
203.192
203.364
203.503
203.625
203.884
204.268
205.102
206.143
207.905
209.343
211.837
211.965
218.054
59.8461
62.3359
64.1981
65.8802
67.175
68.4371
69.9394
71.9857
74.8181
78.662
83.7123
90.1245
97.9823
107.248
117.726
129.068
140.825
152.534
163.771
174.197
183.579
191.765
198.695
204.376
208.884
212.341
214.906
216.74
218.005
218.847
219.387
219.678
219.744
219.597
219.247
218.701
217.972
217.08
216.057
214.933
213.744
212.525
211.296
210.094
208.932
207.832
206.808
205.874
205.041
204.309
203.694
203.186
202.791
202.502
202.329
202.247
202.264
202.365
202.531
202.752
202.924
203.127
203.23
203.288
203.316
203.471
203.742
204.459
205.381
207.024
208.32
210.641
210.564
216.719
56.0865
57.2766
58.6475
60.1284
61.6234
63.3535
65.526
68.3646
72.068
76.8225
82.7819
90.0499
98.6492
108.489
119.347
130.882
142.687
154.342
165.463
175.739
184.947
192.961
199.728
205.264
209.651
213.013
215.506
217.287
218.51
219.313
219.815
220.083
220.138
219.985
219.633
219.09
218.369
217.488
216.479
215.369
214.194
212.983
211.76
210.558
209.392
208.283
207.245
206.293
205.438
204.683
204.041
203.504
203.078
202.757
202.551
202.436
202.419
202.484
202.614
202.794
202.92
203.071
203.112
203.096
203.04
203.102
203.272
203.883
204.7
206.232
207.396
209.556
209.283
215.482
50.9822
51.3859
52.5794
54.1468
55.9993
58.2946
61.2028
64.8942
69.5285
75.249
82.1619
90.3139
99.6689
110.089
121.33
133.063
144.912
156.498
167.471
177.547
186.533
194.322
200.874
206.216
210.437
213.665
216.051
217.75
218.909
219.657
220.106
220.333
220.363
220.195
219.836
219.295
218.583
217.719
216.731
215.645
214.493
213.304
212.099
210.909
209.75
208.644
207.603
206.644
205.777
205.007
204.345
203.786
203.337
202.99
202.757
202.612
202.566
202.599
202.695
202.839
202.924
203.027
203.011
202.929
202.798
202.778
202.859
203.376
204.096
205.528
206.57
208.58
208.119
214.338
45.0992
45.1863
46.4918
48.4005
50.7847
53.7722
57.5088
62.1277
67.7498
74.4754
82.358
91.3843
101.463
112.417
123.988
135.858
147.679
159.112
169.848
179.64
188.326
195.821
202.097
207.194
211.207
214.267
216.52
218.117
219.196
219.877
220.265
220.438
220.431
220.238
219.866
219.323
218.621
217.778
216.819
215.767
214.651
213.494
212.319
211.154
210.015
208.922
207.889
206.933
206.064
205.287
204.614
204.04
203.574
203.206
202.951
202.78
202.708
202.712
202.778
202.888
202.932
202.992
202.924
202.783
202.585
202.493
202.495
202.931
203.565
204.906
205.835
207.708
207.066
213.285
39.8244
40.0547
41.7363
44.2158
47.3123
51.1248
55.7776
61.3706
67.9828
75.6605
84.4016
94.1466
104.768
116.066
127.781
139.611
151.237
162.357
172.709
182.088
190.359
197.453
203.364
208.147
211.902
214.759
216.859
218.341
219.334
219.948
220.277
220.395
220.343
220.121
219.731
219.182
218.491
217.673
216.751
215.743
214.673
213.562
212.429
211.3
210.192
209.124
208.11
207.166
206.304
205.529
204.852
204.27
203.792
203.408
203.135
202.942
202.848
202.825
202.862
202.94
202.949
202.968
202.852
202.657
202.401
202.246
202.18
202.544
203.102
204.361
205.186
206.934
206.119
212.316
37.3575
37.8684
40.0001
43.1787
47.0465
51.6773
57.1856
63.6381
71.0684
79.4762
88.8205
99.0085
109.888
121.249
132.839
144.376
155.579
166.185
175.973
184.776
192.487
199.066
204.527
208.936
212.397
215.032
216.974
218.348
219.27
219.837
220.13
220.215
220.134
219.894
219.492
218.94
218.258
217.465
216.579
215.618
214.599
213.539
212.456
211.372
210.303
209.267
208.279
207.356
206.507
205.74
205.065
204.48
203.994
203.599
203.31
203.099
202.984
202.937
202.947
202.995
202.968
202.949
202.788
202.543
202.234
202.023
201.897
202.198
202.688
203.873
204.602
206.233
205.256
211.428
38.7012
39.4815
42.0604
46.0171
50.6646
56.0375
62.2689
69.3988
77.4188
86.291
95.9402
106.244
117.034
128.1
139.209
150.113
160.574
170.381
179.36
187.389
194.398
200.37
205.334
209.357
212.533
214.971
216.785
218.084
218.967
219.519
219.812
219.9
219.822
219.589
219.196
218.656
217.991
217.224
216.374
215.457
214.486
213.477
212.444
211.405
210.377
209.377
208.419
207.519
206.686
205.931
205.26
204.675
204.185
203.78
203.479
203.251
203.117
203.046
203.03
203.049
202.988
202.931
202.726
202.434
202.075
201.812
201.631
201.875
202.303
203.419
204.058
205.582
204.451
210.594
45.4363
46.6616
49.7397
54.468
59.8417
65.8063
72.5252
80.0216
88.2436
97.1204
106.557
116.425
126.561
136.783
146.892
156.695
166.01
174.682
182.591
189.656
195.839
201.138
205.583
209.233
212.161
214.453
216.195
217.475
218.371
218.954
219.286
219.414
219.374
219.176
218.817
218.31
217.678
216.948
216.139
215.267
214.345
213.387
212.404
211.412
210.427
209.465
208.538
207.663
206.85
206.107
205.444
204.861
204.367
203.956
203.642
203.399
203.246
203.153
203.112
203.102
203.007
202.911
202.664
202.324
201.918
201.605
201.374
201.566
201.938
202.991
203.546
204.969
203.694
209.81
61.1676
63.0141
66.3986
71.3306
76.8271
82.7477
89.2523
96.3603
103.998
112.079
120.514
129.19
137.978
146.734
155.315
163.583
171.413
178.703
185.373
191.371
196.676
201.286
205.224
208.528
211.248
213.44
215.164
216.479
217.443
218.111
218.529
218.739
218.769
218.63
218.326
217.873
217.295
216.615
215.856
215.036
214.168
213.262
212.332
211.39
210.45
209.527
208.634
207.787
206.995
206.269
205.614
205.036
204.541
204.124
203.8
203.542
203.372
203.257
203.192
203.153
203.026
202.892
202.603
202.218
201.766
201.408
201.131
201.277
201.596
202.591
203.067
204.398
202.987
209.077
84.6335
87.1957
90.6846
95.0254
99.7628
104.829
110.307
116.2
122.448
128.986
135.749
142.659
149.626
156.556
163.353
169.925
176.19
182.076
187.527
192.504
196.982
200.953
204.425
207.414
209.948
212.059
213.782
215.157
216.219
217.006
217.547
217.87
217.996
217.939
217.712
217.334
216.828
216.215
215.519
214.759
213.949
213.101
212.226
211.336
210.444
209.563
208.707
207.89
207.123
206.414
205.771
205.199
204.705
204.284
203.951
203.681
203.495
203.36
203.271
203.204
203.044
202.872
202.542
202.112
201.618
201.218
200.9
201.003
201.278
202.219
202.622
203.866
202.327
208.392
109.27
111.935
115.034
118.287
121.787
125.615
129.766
134.206
138.898
143.811
148.902
154.12
159.407
164.701
169.937
175.055
179.994
184.702
189.132
193.248
197.025
200.445
203.503
206.2
208.549
210.563
212.265
213.677
214.82
215.713
216.373
216.817
217.058
217.108
216.98
216.695
216.276
215.746
215.125
214.433
213.688
212.901
212.085
211.251
210.41
209.574
208.758
207.973
207.232
206.543
205.914
205.351
204.859
204.436
204.096
203.814
203.613
203.458
203.346
203.251
203.061
202.85
202.48
202.008
201.473
201.034
200.68
200.747
200.981
201.874
202.209
203.373
201.715
207.752
128.987
131.276
133.757
136.126
138.674
141.527
144.639
147.961
151.475
155.167
159.011
162.971
167.008
171.082
175.149
179.166
183.089
186.878
190.496
193.913
197.101
200.042