/*--------------------------------*- C++ -*----------------------------------*\
| =========                 |                                                 |
| \\      /  F ield         | OpenFOAM: The Open Source CFD Toolbox           |
|  \\    /   O peration     | Version:  5.x                                   |
|   \\  /    A nd           | Web:      www.OpenFOAM.org                      |
|    \\/     M anipulation  |                                                 |
\*---------------------------------------------------------------------------*/
FoamFile
{
    version     2.0;
    format      ascii;
    class       surfaceScalarField;
    location    "300";
    object      phi;
}
// * * * * * * * * * * * * * * * * * * * * * * * * * * * * * * * * * * * * * //

dimensions      [0 3 -1 0 0 0 0];

internalField   nonuniform List<scalar> 
21876
(
0.00601016
-0.00653961
0.000525005
0.0136159
-0.00760575
0.0180107
-0.00439485
0.0220458
-0.00403505
0.0246432
-0.0025974
0.0262069
-0.00156365
0.0270419
-0.000835031
0.0272967
-0.00025474
0.0269618
0.000334856
0.0259117
0.00105016
0.0240321
0.00187954
0.0224758
0.00155629
0.0216718
0.000804075
0.0212871
0.000384695
0.0207799
0.000507214
0.0202793
0.000500588
0.019757
0.000522333
0.0192269
0.000530073
0.0187057
0.000521211
0.0182005
0.000505184
0.0177125
0.000487973
0.0173457
0.000366806
0.0169939
0.000351872
0.0166556
0.000338288
0.0163273
0.000328277
0.0160076
0.00031971
0.0156912
0.000316387
0.015374
0.000317254
0.015051
0.000323016
0.0147164
0.000334571
0.014363
0.000353414
0.0139814
0.000381549
0.0135605
0.000420952
0.0130844
0.000476144
0.0125269
0.000557454
0.0118625
0.000664425
0.011047
0.000815455
0.00999659
0.00105043
0.00859963
0.00139696
0.00663009
0.00196954
0.00133515
0.00529494
0.00772049
-0.013367
-0.000893291
0.0148257
-0.014711
0.0201037
-0.00967285
0.0246138
-0.00854521
0.0278783
-0.00586186
0.0300951
-0.00378051
0.0314968
-0.00223674
0.032286
-0.00104388
0.0326646
-4.37403e-05
0.0326718
0.00104289
0.0319811
0.00257025
0.0310161
0.00252132
0.0301332
0.00168693
0.0293811
0.00113684
0.0285715
0.00131682
0.0278316
0.0012405
0.0271353
0.0012186
0.0264585
0.00120692
0.0257943
0.0011854
0.0251423
0.00115714
0.0244965
0.0011338
0.0240038
0.00085949
0.0235389
0.00081679
0.023096
0.000781138
0.0226693
0.000754981
0.0222561
0.000732961
0.0218513
0.00072113
0.0214507
0.000717888
0.0210491
0.00072462
0.0206405
0.000743119
0.0202178
0.00077618
0.0197716
0.000827686
0.019291
0.000901549
0.0187609
0.00100629
0.0181563
0.00116205
0.0174523
0.00136846
0.0166113
0.00165646
0.0155406
0.00212108
0.014175
0.0027626
0.0120445
0.00409995
0.00417623
0.00920346
0.00972983
-0.0206288
-0.00246794
0.0169149
-0.021896
0.0229929
-0.0157509
0.028213
-0.0137653
0.0322997
-0.0099485
0.0352874
-0.00676828
0.0373331
-0.00428241
0.0385891
-0.00229983
0.0391697
-0.000624413
0.0391922
0.00102043
0.0386103
0.00315212
0.0378353
0.00329631
0.0371678
0.00235453
0.0365816
0.00172301
0.0358734
0.00202505
0.0351558
0.0019581
0.0344493
0.00192505
0.0337453
0.00191094
0.0330426
0.00188808
0.0323432
0.00185663
0.0316427
0.00183422
0.0310992
0.00140306
0.0305786
0.00133739
0.0300775
0.00128221
0.0295907
0.00124181
0.0291153
0.00120841
0.0286461
0.00119025
0.0281786
0.0011854
0.0277071
0.00119611
0.0272248
0.00122543
0.0267233
0.00127769
0.0261923
0.00135874
0.0256192
0.0014746
0.024987
0.00163849
0.0242684
0.00188067
0.023438
0.00219885
0.0224591
0.00263534
0.0212403
0.00333994
0.0197463
0.00425654
0.0175971
0.00624918
0.00712074
0.0146526
0.0121302
-0.0284632
-0.0042956
0.0196328
-0.0293986
0.0263416
-0.0224596
0.0322542
-0.0196779
0.0370952
-0.0147895
0.040824
-0.0104971
0.0435204
-0.00697876
0.0453083
-0.00408775
0.0462955
-0.0016116
0.0465932
0.000722752
0.0461755
0.00356975
0.045424
0.00404783
0.0447663
0.00301228
0.0442476
0.0022417
0.0436454
0.00262724
0.0429917
0.00261177
0.0423269
0.00258989
0.0416508
0.00258709
0.040966
0.00257287
0.0402783
0.00254432
0.0395857
0.00252681
0.0390426
0.00194618
0.038516
0.00186397
0.0380022
0.00179601
0.0374964
0.00174759
0.0369965
0.00170831
0.0364983
0.00168851
0.0359968
0.00168684
0.0354862
0.00170679
0.0349588
0.00175279
0.0344057
0.00183076
0.0338157
0.00194874
0.0331752
0.00211515
0.032465
0.00234864
0.0316553
0.00269038
0.0307194
0.00313475
0.0296184
0.00373638
0.0282602
0.00469807
0.0266092
0.00590754
0.0244023
0.00845609
0.0100333
0.0214898
0.0149124
-0.0370265
-0.00634893
0.0229091
-0.0373953
0.0302527
-0.0298032
0.0369136
-0.0263387
0.0425831
-0.020459
0.0471699
-0.0150839
0.0506702
-0.010479
0.0531543
-0.00657187
0.0546988
-0.00315609
0.0554161
5.44367e-06
0.0553119
0.00367395
0.054684
0.00467576
0.0540116
0.00368475
0.0534513
0.00280197
0.0528399
0.00323868
0.0521654
0.00328629
0.0514791
0.00327611
0.0507867
0.00327952
0.0500876
0.00327203
0.0493882
0.00324371
0.0486891
0.00322592
0.0481434
0.00249186
0.0476177
0.00238966
0.0471069
0.00230685
0.0466049
0.00224962
0.0461076
0.0022056
0.0456092
0.00218686
0.0451036
0.00219251
0.0445838
0.00222652
0.0440421
0.00229447
0.043469
0.0024039
0.0428524
0.00256534
0.0421776
0.00278998
0.0414241
0.00310215
0.0405602
0.00355423
0.0395593
0.00413563
0.0383817
0.00491404
0.0369402
0.00613956
0.0351907
0.00765704
0.0329857
0.0106611
0.0128871
0.0301319
0.0180985
-0.0465009
-0.00862408
0.0267938
-0.0460905
0.0348612
-0.0378705
0.0423148
-0.0337923
0.0488477
-0.0269919
0.0543467
-0.0205828
0.0587485
-0.0148808
0.0620622
-0.00988556
0.0643211
-0.00541497
0.065639
-0.0013124
0.066043
0.00326993
0.0657252
0.00499356
0.0651438
0.00426612
0.0645663
0.00337954
0.0639334
0.00387151
0.0632161
0.00400359
0.0624715
0.00402076
0.0617206
0.00403044
0.0609645
0.00402813
0.0602106
0.00399761
0.0594629
0.00397362
0.058882
0.00307275
0.0583282
0.00294343
0.0577963
0.00283879
0.0572796
0.00276633
0.0567729
0.00271229
0.0562697
0.00269011
0.0557623
0.00269983
0.0552427
0.00274616
0.0547011
0.00283604
0.0541263
0.00297874
0.0535048
0.00318684
0.0528209
0.00347386
0.0520536
0.00386945
0.0511709
0.00443699
0.0501479
0.00515862
0.0489468
0.00611515
0.0474927
0.00759357
0.0457387
0.00941105
0.0436558
0.012744
0.0155767
0.0409662
0.0217292
-0.0571221
-0.0111079
0.0313713
-0.0557325
0.0403192
-0.0468183
0.0486449
-0.042118
0.0560851
-0.0344321
0.0625366
-0.0270343
0.067912
-0.0202562
0.072172
-0.0141456
0.0752977
-0.00854063
0.0773894
-0.00340406
0.0784831
0.00217625
0.0786791
0.00479753
0.0783638
0.00458137
0.0778776
0.00386584
0.0772818
0.00446724
0.0765583
0.00472708
0.0757656
0.00481349
0.0749476
0.00484847
0.0741163
0.00485944
0.0732827
0.00483123
0.0724561
0.00480022
0.0718115
0.00371737
0.0711996
0.00355533
0.0706156
0.00342278
0.0700532
0.00332871
0.069507
0.0032585
0.0689705
0.00322663
0.0684358
0.00323451
0.0678941
0.00328788
0.067335
0.00339512
0.0667465
0.00356725
0.0661144
0.00381892
0.0654223
0.00416599
0.0646484
0.00464333
0.0637611
0.00532428
0.0627398
0.00617992
0.0615519
0.0073031
0.0601428
0.00900265
0.05847
0.0110838
0.0566243
0.0145897
0.0179465
0.0542546
0.0258621
-0.0691898
-0.0137943
0.0367467
-0.0666171
0.046797
-0.0568686
0.0561301
-0.0514511
0.0645521
-0.042854
0.0719982
-0.0344804
0.0783939
-0.0266519
0.0836815
-0.0194332
0.0877999
-0.0126591
0.0908276
-0.00643173
0.0927953
0.000208562
0.0937264
0.00386646
0.0939001
0.00440768
0.0936758
0.00409009
0.0932276
0.00491551
0.0925806
0.00537408
0.0917974
0.00559671
0.0909445
0.00570136
0.0900533
0.00575066
0.0891427
0.00574179
0.0882298
0.0057131
0.0875077
0.00443947
0.0868202
0.0042429
0.086164
0.00407891
0.085534
0.00395878
0.0849245
0.00386799
0.0843292
0.00382197
0.0837401
0.00382361
0.0831481
0.00387982
0.082543
0.00400024
0.0819127
0.00419752
0.0812434
0.00448824
0.0805192
0.00489023
0.0797194
0.00544307
0.0788146
0.00622913
0.0777906
0.00720396
0.0766219
0.00847178
0.0752786
0.0103459
0.0737301
0.0126323
0.0721666
0.0161532
0.0198762
0.0702369
0.0305686
-0.0830798
-0.0166786
0.0430485
-0.0790969
0.0544894
-0.0683094
0.0650343
-0.061996
0.074565
-0.0523848
0.0830738
-0.0429891
0.09053
-0.0341082
0.0968931
-0.0257963
0.102087
-0.017853
0.106173
-0.010518
0.109179
-0.00279725
0.111057
0.00198874
0.111969
0.00349506
0.112239
0.00382048
0.112113
0.00504205
0.111678
0.00580887
0.111013
0.00626193
0.110203
0.00651077
0.109306
0.00664755
0.108356
0.00669248
0.107379
0.00668975
0.106586
0.00523253
0.105823
0.00500612
0.10509
0.00481193
0.104384
0.0046648
0.1037
0.00455153
0.103033
0.00448898
0.102375
0.00448173
0.101717
0.00453819
0.101047
0.00466936
0.100356
0.00488936
0.0996276
0.00521625
0.0988488
0.00566901
0.0980008
0.00629109
0.0970572
0.0071727
0.0960132
0.00824799
0.0948529
0.00963208
0.093569
0.0116299
0.0921506
0.0140507
0.0908349
0.017469
0.0213424
0.0893686
0.0359379
-0.0992538
-0.0197639
0.0504351
-0.0935941
0.063625
-0.0814993
0.0756609
-0.0740318
0.0864973
-0.0632212
0.0961899
-0.0526816
0.10477
-0.0426886
0.112246
-0.0332715
0.118558
-0.0241657
0.123773
-0.0157331
0.127927
-0.006951
0.130918
-0.00100224
0.132805
0.00160838
0.133834
0.0027913
0.134265
0.00461068
0.134239
0.00583511
0.133859
0.00664224
0.133228
0.00714138
0.132431
0.00744517
0.131521
0.00760192
0.130543
0.00766789
0.129713
0.00606247
0.128898
0.00582107
0.128104
0.00560564
0.127333
0.00543627
0.126582
0.00530283
0.125846
0.00522449
0.12512
0.00520807
0.124394
0.00526383
0.123659
0.00540442
0.122903
0.0056453
0.122114
0.00600565
0.121278
0.00650497
0.120379
0.00718989
0.119395
0.00815711
0.118329
0.00931323
0.117179
0.0107827
0.115952
0.0128569
0.114665
0.0153373
0.113544
0.0185894
0.022404
0.112483
0.0420821
-0.118272
-0.0230637
0.0591022
-0.110614
0.0744787
-0.0968758
0.0883664
-0.0879195
0.100787
-0.0756415
0.111858
-0.0637524
0.12168
-0.0525111
0.130327
-0.0419183
0.13779
-0.0316285
0.144162
-0.0221055
0.149505
-0.012294
0.153706
-0.00520332
0.156741
-0.00142604
0.158773
0.00075854
0.160026
0.00335824
0.160653
0.00520774
0.160781
0.00651428
0.160527
0.00739546
0.159996
0.00797654
0.159266
0.00833147
0.158401
0.00853291
0.157606
0.00685786
0.156796
0.00663103
0.155987
0.00641482
0.155186
0.00623682
0.154397
0.00609213
0.153618
0.00600367
0.152844
0.00598126
0.152071
0.00603766
0.151287
0.00618743
0.150485
0.00644742
0.149653
0.00683758
0.148781
0.00737724
0.147855
0.00811555
0.146858
0.00915463
0.145802
0.0103687
0.144695
0.0118901
0.143553
0.0139988
0.142421
0.0164692
0.141484
0.019527
0.0231367
0.140751
0.0491427
-0.140811
-0.0266037
0.069293
-0.130764
0.0873866
-0.114969
0.103577
-0.10411
0.117949
-0.0900131
0.130679
-0.0764825
0.141939
-0.0637705
0.151873
-0.0518532
0.160544
-0.040299
0.168094
-0.0296551
0.174628
-0.0188284
0.180061
-0.0106368
0.184331
-0.00569545
0.187537
-0.0024475
0.189839
0.00105578
0.191372
0.00367467
0.192263
0.00562392
0.192631
0.00702725
0.192592
0.0080156
0.192243
0.00868015
0.191667
0.00910871
0.191025
0.00750021
0.19032
0.00733661
0.189579
0.00715571
0.18882
0.00699521
0.188055
0.00685785
0.187286
0.00677216
0.186515
0.00675222
0.185739
0.00681401
0.184952
0.00697452
0.184147
0.00725208
0.183317
0.0076671
0.182457
0.00823804
0.181556
0.00901605
0.180603
0.0101078
0.17962
0.0113519
0.178623
0.0128872
0.177631
0.0149903
0.176708
0.0173921
0.175994
0.0202414
0.023577
0.175554
0.0572989
-0.167687
-0.0304231
0.0813102
-0.154776
0.102763
-0.136422
0.121811
-0.123159
0.1386
-0.106802
0.153365
-0.0912481
0.166348
-0.076753
0.177768
-0.0632736
0.187765
-0.0502959
0.196544
-0.0384346
0.204273
-0.0265572
0.210921
-0.0172845
0.216436
-0.0112101
0.22089
-0.00690173
0.22439
-0.00244436
0.227031
0.00103366
0.228921
0.00373379
0.230168
0.00578037
0.230882
0.00730202
0.231165
0.00839673
0.231113
0.0091607
0.230792
0.00782079
0.230339
0.00779007
0.229796
0.0076987
0.229194
0.00759703
0.228554
0.007498
0.227888
0.00743772
0.227205
0.00743597
0.226506
0.00751295
0.225792
0.0076887
0.22506
0.00798325
0.22431
0.00841737
0.22354
0.00900814
0.222748
0.00980844
0.221926
0.0109292
0.221107
0.0121712
0.220313
0.0136809
0.219565
0.0157389
0.21893
0.0180264
0.218516
0.0206554
0.0237016
0.218392
0.0667759
-0.199886
-0.0345769
0.0955311
-0.183531
0.121119
-0.16201
0.1437
-0.14574
0.163482
-0.126584
0.180763
-0.108529
0.195854
-0.0918439
0.209052
-0.0764715
0.220579
-0.0618228
0.23071
-0.0485652
0.23968
-0.0355274
0.247535
-0.0251397
0.25427
-0.0179447
0.259969
-0.0126011
0.264719
-0.00719484
0.268583
-0.00283011
0.271643
0.000674285
0.273985
0.0034381
0.275701
0.00558621
0.276883
0.00721417
0.277626
0.00841817
0.277838
0.00760915
0.27783
0.00779797
0.277661
0.00786699
0.277378
0.00788087
0.277011
0.0078646
0.276585
0.0078635
0.276117
0.00790445
0.275617
0.00801294
0.275093
0.00821275
0.27455
0.00852606
0.273993
0.0089741
0.273429
0.00957253
0.272861
0.0103761
0.27229
0.0115001
0.271754
0.0127078
0.27128
0.0141548
0.270886
0.0161322
0.270641
0.0182721
0.270624
0.0206719
0.0234374
0.270888
0.0778572
-0.238605
-0.0391383
0.112426
-0.218099
0.143091
-0.192674
0.170025
-0.172674
0.193506
-0.150065
0.213901
-0.128924
0.231595
-0.109538
0.246966
-0.091843
0.260325
-0.0751816
0.272019
-0.0602587
0.282356
-0.0458652
0.291469
-0.0342521
0.29942
-0.0258957
0.306337
-0.0195184
0.312323
-0.0131811
0.317437
-0.00794374
0.321745
-0.00363384
0.325316
-0.000132989
0.328222
0.00268041
0.330536
0.00490009
0.332337
0.00661719
0.333307
0.00663952
0.333965
0.00713965
0.334384
0.00744844
0.33462
0.00764466
0.334718
0.0077659
0.334715
0.00786735
0.334635
0.00798385
0.334501
0.00814696
0.334329
0.00838492
0.334133
0.00872254
0.333925
0.00918194
0.333719
0.00977773
0.333528
0.0105671
0.333358
0.0116706
0.33325
0.0128156
0.333236
0.0141693
0.33333
0.0160382
0.333592
0.0180094
0.334087
0.0201767
0.0226774
0.334848
0.0908938
-0.285299
-0.0441991
0.132576
-0.259781
0.169463
-0.229562
0.201751
-0.204962
0.229793
-0.178107
0.254035
-0.153166
0.274951
-0.130454
0.293007
-0.109899
0.308607
-0.0907818
0.322178
-0.0738299
0.334107
-0.0577943
0.344614
-0.0447589
0.353845
-0.035126
0.361986
-0.0276602
0.369186
-0.020381
0.37553
-0.0142869
0.381093
-0.00919698
0.385941
-0.00498138
0.390136
-0.00151464
0.393737
0.0012995
0.396804
0.00355011
0.398734
0.00470976
0.400272
0.00560139
0.401497
0.00622356
0.402474
0.0066675
0.403257
0.00698249
0.403892
0.00723304
0.404414
0.00746192
0.404854
0.007707
0.405237
0.00800129
0.405587
0.00837267
0.405924
0.00884471
0.40627
0.0094317
0.406643
0.0101941
0.407055
0.0112588
0.40755
0.0123204
0.40816
0.01356
0.408896
0.0153022
0.409811
0.0170942
0.410955
0.0190326
0.0212853
0.412347
0.106312
-0.341743
-0.0498684
0.156691
-0.310161
0.2012
-0.274071
0.240061
-0.243822
0.273717
-0.211764
0.30271
-0.182159
0.327613
-0.155357
0.348995
-0.13128
0.367367
-0.109154
0.383243
-0.0897068
0.397097
-0.0716484
0.409242
-0.0569031
0.41991
-0.0457941
0.42936
-0.0371106
0.437801
-0.0288218
0.445367
-0.0218527
0.452168
-0.0159982
0.45829
-0.0111035
0.463801
-0.00702578
0.468759
-0.00365869
0.473217
-0.000907431
0.476251
0.00167543
0.478839
0.00301333
0.48106
0.00400263
0.482983
0.00474468
0.484667
0.00529879
0.486162
0.00573759
0.487513
0.006111
0.488757
0.00646285
0.489928
0.00683086
0.491054
0.00724622
0.492164
0.00773445
0.493286
0.00831036
0.494441
0.00903834
0.495648
0.0100523
0.496949
0.0110192
0.498375
0.0121342
0.499936
0.0137413
0.501676
0.0153535
0.503636
0.0170729
0.0190957
0.505826
0.113056
-0.403654
-0.0511441
0.168322
-0.365427
0.217088
-0.322838
0.259593
-0.286326
0.296334
-0.248505
0.327903
-0.213728
0.35493
-0.182384
0.37804
-0.15439
0.397808
-0.128921
0.414793
-0.106692
0.429511
-0.086367
0.442337
-0.0697283
0.453564
-0.0570215
0.463497
-0.0470431
0.472388
-0.0377128
0.480416
-0.0298807
0.487726
-0.0233085
0.494431
-0.0178084
0.500617
-0.0132115
0.50635
-0.00939224
0.511685
-0.00624235
0.515493
-0.00213196
0.518867
-0.000360781
0.52188
0.000989412
0.524596
0.00202849
0.527071
0.00282397
0.529354
0.00345496
0.531487
0.00397727
0.533511
0.00443966
0.535458
0.00488397
0.537359
0.00534448
0.539245
0.0058488
0.541142
0.00641286
0.543076
0.00710492
0.545063
0.00806539
0.547141
0.00894093
0.549336
0.00993883
0.551658
0.0114196
0.554141
0.0128709
0.556813
0.0144005
0.0162268
0.559682
0.118329
-0.470247
-0.0517363
0.177778
-0.424876
0.230191
-0.375251
0.275821
-0.331956
0.315211
-0.287895
0.348997
-0.247514
0.377854
-0.211241
0.402455
-0.178991
0.423425
-0.149891
0.441363
-0.124629
0.456817
-0.101821
0.470208
-0.0831195
0.481879
-0.0686926
0.492167
-0.0573305
0.501359
-0.0469057
0.509673
-0.0381944
0.517285
-0.0309203
0.524335
-0.0248583
0.530932
-0.0198089
0.537161
-0.0156214
0.543087
-0.0121684
0.547448
-0.00649312
0.551407
-0.00431927
0.55503
-0.00263339
0.558376
-0.00131774
0.561497
-0.000297383
0.56444
0.000512496
0.567244
0.0011729
0.569947
0.00173697
0.572581
0.00225024
0.575175
0.00274987
0.577758
0.00326565
0.580356
0.003815
0.582991
0.00446963
0.585681
0.00537545
0.588457
0.00616524
0.59134
0.00705574
0.594339
0.0084206
0.597481
0.00972923
0.600787
0.0110944
0.0127508
0.604263
0.124414
-0.541963
-0.0526973
0.188439
-0.488901
0.244854
-0.431666
0.29393
-0.381032
0.336256
-0.330221
0.372516
-0.283774
0.403436
-0.242161
0.429738
-0.205294
0.452101
-0.172254
0.471162
-0.143691
0.487511
-0.11817
0.501609
-0.0972178
0.513843
-0.0809263
0.52458
-0.0680673
0.534141
-0.0564676
0.542777
-0.0468295
0.550692
-0.0388355
0.558054
-0.0322206
0.564997
-0.0267517
0.571625
-0.0222498
0.578021
-0.0185644
0.582828
-0.0112997
0.587261
-0.00875197
0.591384
-0.0067571
0.595256
-0.00518924
0.598924
-0.003966
0.602434
-0.00299684
0.605822
-0.00221567
0.609124
-0.00156505
0.61237
-0.000995881
0.615588
-0.0004681
0.618804
5.03875e-05
0.62204
0.000578754
0.625318
0.00119177
0.628654
0.00203973
0.632072
0.00274669
0.635592
0.00353631
0.63922
0.00479188
0.642979
0.00597073
0.646884
0.0071894
0.00869403
0.650941
0.131297
-0.619272
-0.0539889
0.200317
-0.557921
0.261109
-0.492458
0.313964
-0.433887
0.359521
-0.375779
0.398516
-0.322768
0.431729
-0.275375
0.459937
-0.233502
0.483874
-0.19619
0.504222
-0.164039
0.521611
-0.135559
0.536548
-0.112154
0.549458
-0.0938367
0.560741
-0.0793501
0.57075
-0.066476
0.579762
-0.0558423
0.588014
-0.0470873
0.595698
-0.0399039
0.602969
-0.0340233
0.609955
-0.0292358
0.616756
-0.0253655
0.621942
-0.0164853
0.626775
-0.0135855
0.631323
-0.0113044
0.635641
-0.00950709
0.639777
-0.00810296
0.643776
-0.00699529
0.647673
-0.00611262
0.651501
-0.00539305
0.655289
-0.00478374
0.659062
-0.00424153
0.662844
-0.00373182
0.666657
-0.00323344
0.670517
-0.00266894
0.674442
-0.00188458
0.678449
-0.00126098
0.682555
-0.000569747
0.686768
0.000578956
0.691104
0.00163537
0.695574
0.00271865
0.00408279
0.700186
0.138991
-0.702675
-0.0555869
0.213454
-0.632384
0.279023
-0.558026
0.336011
-0.490876
0.385111
-0.424878
0.427112
-0.364769
0.462856
-0.311119
0.493178
-0.263824
0.518871
-0.221883
0.540666
-0.185835
0.55924
-0.154132
0.575141
-0.128056
0.588839
-0.107534
0.600763
-0.091274
0.611298
-0.0770112
0.620753
-0.0652972
0.629388
-0.0557227
0.637421
-0.0479369
0.645031
-0.0416331
0.652364
-0.0365692
0.659541
-0.0325419
0.665068
-0.0220131
0.670257
-0.0187742
0.675176
-0.016223
0.679883
-0.0142141
0.684428
-0.0126479
0.688853
-0.0114207
0.693195
-0.010455
0.697486
-0.00968401
0.701753
-0.00905078
0.70602
-0.00850876
0.710309
-0.00802057
0.714639
-0.00756275
0.719025
-0.00705547
0.723483
-0.00634245
0.728028
-0.00580561
0.732671
-0.00521369
0.737423
-0.004173
0.742295
-0.00323627
0.747296
-0.00228271
-0.00105343
0.752433
0.14752
-0.792718
-0.0574773
0.227914
-0.712778
0.298691
-0.628803
0.360193
-0.552378
0.413166
-0.477851
0.458462
-0.410066
0.496988
-0.349644
0.529641
-0.296478
0.557278
-0.24952
0.580685
-0.209242
0.600586
-0.174033
0.617578
-0.145048
0.632172
-0.122128
0.644831
-0.103933
0.655973
-0.0881534
0.665937
-0.0752606
0.675008
-0.0647945
0.683429
-0.056358
0.691401
-0.0496045
0.699089
-0.0442578
0.706633
-0.0400853
0.712486
-0.027866
0.718003
-0.024292
0.72326
-0.0214793
0.728316
-0.0192706
0.733225
-0.0175565
0.738029
-0.016225
0.742766
-0.0151921
0.747468
-0.0143854
0.75216
-0.0137433
0.756867
-0.0132156
0.761608
-0.0127617
0.766401
-0.0123556
0.771261
-0.0119153
0.776201
-0.0112826
0.781234
-0.010838
0.786369
-0.0103489
0.791616
-0.00942003
0.796983
-0.00860364
0.802479
-0.00777817
-0.00668222
0.808108
0.156926
-0.889991
-0.059653
0.243778
-0.799631
0.320232
-0.705257
0.386659
-0.618804
0.443863
-0.535056
0.492765
-0.458967
0.53434
-0.391218
0.569555
-0.331693
0.599335
-0.279299
0.624524
-0.234432
0.645901
-0.19541
0.664112
-0.163259
0.679711
-0.137727
0.6932
-0.117422
0.70503
-0.0999834
0.71557
-0.0858001
0.725133
-0.0743577
0.733985
-0.0652097
0.742348
-0.0579675
0.750408
-0.0523184
0.758322
-0.0479994
0.764495
-0.0340388
0.770328
-0.0301252
0.775901
-0.0270522
0.78128
-0.0246496
0.78652
-0.0227962
0.791666
-0.0213714
0.796758
-0.0202836
0.801826
-0.0194539
0.806899
-0.018816
0.811998
-0.0183151
0.817144
-0.0179074
0.822352
-0.0175638
0.827637
-0.0172003
0.833012
-0.0166572
0.838485
-0.0163117
0.844067
-0.0159307
0.849766
-0.0151192
0.855589
-0.0144263
0.861541
-0.0137303
-0.012769
0.867628
0.16726
-0.995138
-0.0621127
0.261147
-0.893518
0.343788
-0.787897
0.415586
-0.690602
0.477411
-0.596881
0.530253
-0.51181
0.575166
-0.436131
0.613191
-0.369718
0.645325
-0.311433
0.672478
-0.261585
0.695486
-0.218417
0.715049
-0.182823
0.731768
-0.154446
0.746183
-0.131837
0.758783
-0.112583
0.769966
-0.096984
0.780077
-0.084468
0.789403
-0.074536
0.79819
-0.0667545
0.806644
-0.0607721
0.814938
-0.0562932
0.821432
-0.0405331
0.827574
-0.0362675
0.833451
-0.0329286
0.839133
-0.0303314
0.844679
-0.0283423
0.850138
-0.0268305
0.85555
-0.0256959
0.860949
-0.024853
0.866363
-0.0242294
0.871813
-0.0237659
0.877321
-0.0234146
0.8829
-0.0231434
0.888566
-0.022866
0.894331
-0.0224217
0.900201
-0.0221825
0.906186
-0.0219156
0.912295
-0.0212282
0.918533
-0.0206635
0.924903
-0.0201002
-0.019277
0.931411
0.178585
-1.10886
-0.0648593
0.280137
-0.99507
0.369522
-0.877282
0.447178
-0.768258
0.514046
-0.663749
0.571195
-0.568959
0.619759
-0.484694
0.660862
-0.410821
0.69558
-0.346151
0.724891
-0.290896
0.749696
-0.243222
0.770752
-0.203878
0.788709
-0.172403
0.80415
-0.147278
0.817602
-0.126035
0.829499
-0.108881
0.840213
-0.0951818
0.850058
-0.0843812
0.859302
-0.0759983
0.868171
-0.0696407
0.876855
-0.0649779
0.883676
-0.0473536
0.890125
-0.0427163
0.896295
-0.0390991
0.902265
-0.0363009
0.908097
-0.0341741
0.913843
-0.0325771
0.919547
-0.0314001
0.925244
-0.03055
0.930963
-0.0299481
0.936727
-0.0295301
0.942556
-0.0292438
0.948466
-0.0290533
0.954471
-0.0288702
0.960582
-0.0285333
0.966807
-0.0284073
0.973152
-0.0282611
0.979629
-0.0277046
0.986239
-0.0272738
0.992987
-0.0268478
-0.0261673
0.999877
0.190975
-1.23194
-0.0678994
0.30088
-1.10497
0.397618
-0.97402
0.481666
-0.852306
0.554041
-0.736124
0.615895
-0.630814
0.668452
-0.537252
0.712926
-0.455295
0.750475
-0.3837
0.782155
-0.322577
0.808935
-0.270002
0.831633
-0.226577
0.850954
-0.191725
0.867526
-0.163849
0.881917
-0.140426
0.894599
-0.121563
0.905973
-0.106555
0.916381
-0.094789
0.926113
-0.0857311
0.935418
-0.0789452
0.944503
-0.0740635
0.951656
-0.0545058
0.958409
-0.0494696
0.964865
-0.0455554
0.971108
-0.0425439
0.977206
-0.0402725
0.983217
-0.0385872
0.989185
-0.0373681
0.995148
-0.0365135
1.00114
-0.0359378
1.00718
-0.0355708
1.01329
-0.0353558
1.01949
-0.0352528
1.02579
-0.035171
1.03221
-0.0349488
1.03874
-0.0349427
1.0454
-0.0349232
1.0522
-0.0345047
1.05914
-0.0342135
1.06623
-0.0339298
-0.0333972
1.07346
0.204514
-1.36521
-0.0712425
0.323528
-1.22399
0.428288
-1.07878
0.519312
-0.94333
0.5977
-0.814512
0.664697
-0.697811
0.721622
-0.594177
0.769784
-0.503457
0.810436
-0.424351
0.844713
-0.356854
0.873661
-0.29895
0.898164
-0.25108
0.918984
-0.212544
0.936797
-0.181663
0.952218
-0.155848
0.965757
-0.135102
0.977848
-0.118646
0.988862
-0.105803
0.999114
-0.0959832
1.00887
-0.088704
1.01837
-0.0835573
1.02585
-0.0619937
1.03291
-0.0565245
1.03964
-0.0522878
1.04614
-0.0490451
1.05249
-0.046617
1.05874
-0.044836
1.06494
-0.043571
1.07114
-0.042711
1.07736
-0.0421627
1.08364
-0.0418497
1.08999
-0.0417099
1.09644
-0.0416991
1.10299
-0.0417242
1.10967
-0.0416227
1.11647
-0.0417422
1.1234
-0.041855
1.13047
-0.0415807
1.1377
-0.0414348
1.14507
-0.0412987
-0.0409195
1.15259
0.219296
-1.50961
-0.0749008
0.348251
-1.35294
0.461765
-1.19229
0.560408
-1.04197
0.645366
-0.89947
0.717985
-0.770429
0.779689
-0.655881
0.831891
-0.555659
0.875941
-0.468402
0.913067
-0.39398
0.944393
-0.330276
0.970876
-0.277563
0.993338
-0.235007
1.01251
-0.200836
1.02906
-0.172395
1.04353
-0.149573
1.0564
-0.131512
1.06806
-0.117464
1.07886
-0.106783
1.08909
-0.0989322
1.09899
-0.0934622
1.10682
-0.0698191
1.11417
-0.063875
1.12116
-0.0592838
1.1279
-0.0557859
1.13447
-0.0531836
1.14093
-0.0512948
1.14733
-0.049976
1.15373
-0.049106
1.16015
-0.0485832
1.16662
-0.0483241
1.17317
-0.0482612
1.17982
-0.0483454
1.18658
-0.0484808
1.19346
-0.0485048
1.20047
-0.0487542
1.20762
-0.049004
1.21492
-0.0488796
1.22237
-0.0488841
1.22997
-0.0489003
-0.0486796
1.23773
0.23543
-1.66615
-0.078889
0.375237
-1.49275
0.498315
-1.31537
0.605282
-1.14894
0.697424
-0.991611
0.776193
-0.849199
0.843128
-0.722817
0.899754
-0.612285
0.947529
-0.516177
0.987777
-0.434228
1.02171
-0.36421
1.05036
-0.306216
1.07463
-0.259269
1.09529
-0.221496
1.11306
-0.190169
1.12854
-0.165056
1.14224
-0.145212
1.1546
-0.129816
1.16597
-0.118155
1.17668
-0.109641
1.18699
-0.103775
1.19515
-0.0779796
1.20279
-0.0715107
1.21003
-0.0665261
1.21698
-0.0627427
1.22374
-0.0599432
1.23038
-0.0579294
1.23695
-0.0565445
1.2435
-0.055656
1.25007
-0.0551532
1.25669
-0.0549452
1.26339
-0.054958
1.27018
-0.0551376
1.27708
-0.055385
1.28411
-0.0555372
1.29128
-0.0559195
1.29859
-0.0563095
1.30605
-0.0563395
1.31366
-0.0564987
1.32143
-0.0566714
-0.0566139
1.32937
0.253035
-1.83596
-0.083224
0.404702
-1.64442
0.538233
-1.4489
0.654302
-1.26501
0.754302
-1.09161
0.839804
-0.9347
0.912469
-0.795481
0.973943
-0.673759
1.0258
-0.568036
1.06947
-0.477899
1.10627
-0.401004
1.1373
-0.337248
1.16353
-0.285502
1.18582
-0.24378
1.20493
-0.209279
1.2215
-0.181633
1.2361
-0.159807
1.24918
-0.142897
1.26115
-0.130122
1.27234
-0.120835
1.28305
-0.114487
1.29154
-0.0864677
1.29945
-0.0794156
1.30691
-0.0739906
1.31405
-0.0698847
1.32097
-0.066859
1.32774
-0.0646979
1.33442
-0.0632297
1.34108
-0.06231
1.34774
-0.0618181
1.35445
-0.0616547
1.36123
-0.0617394
1.36811
-0.062012
1.37509
-0.0623706
1.38221
-0.0626519
1.38946
-0.0631683
1.39685
-0.0637004
1.40439
-0.0638879
1.4121
-0.0642049
1.41997
-0.0645373
-0.0646467
1.428
0.272248
-2.02028
-0.0879245
0.436884
-1.80905
0.581848
-1.59387
0.707879
-1.39104
0.816483
-1.20022
0.909359
-1.02758
0.988304
-0.874426
1.05509
-0.74055
1.11143
-0.624375
1.15886
-0.525328
1.19879
-0.440936
1.23243
-0.370888
1.26082
-0.313892
1.28488
-0.267838
1.30544
-0.22984
1.3232
-0.199392
1.33875
-0.175358
1.3526
-0.156746
1.36518
-0.142702
1.37686
-0.132513
1.38795
-0.125578
1.39675
-0.0952695
1.4049
-0.087566
1.41256
-0.0816454
1.41985
-0.0771725
1.42687
-0.0738848
1.43372
-0.071548
1.44047
-0.0699743
1.44716
-0.069006
1.45386
-0.0685116
1.46058
-0.068383
1.46738
-0.0685321
1.47426
-0.0688926
1.48125
-0.069359
1.48836
-0.0697678
1.49561
-0.0704172
1.503
-0.0710913
1.51055
-0.0714379
1.51826
-0.0719142
1.52613
-0.0724081
-0.072687
1.53417
0.293217
-2.22049
-0.0930117
0.472048
-1.98788
0.62953
-1.75135
0.766471
-1.52798
0.884503
-1.31825
0.985465
-1.12854
1.0713
-0.96026
1.14392
-0.813176
1.20518
-0.685632
1.25673
-0.57688
1.30011
-0.48431
1.33661
-0.407389
1.36736
-0.344642
1.39335
-0.293831
1.41549
-0.251978
1.43452
-0.218425
1.45109
-0.191927
1.46575
-0.1714
1.47895
-0.155907
1.49111
-0.144667
1.50255
-0.137018
1.51164
-0.104363
1.52
-0.0959294
1.52781
-0.0894485
1.53519
-0.0845556
1.54227
-0.0809629
1.54913
-0.0784153
1.55587
-0.0767079
1.56253
-0.0756684
1.56917
-0.0751536
1.57583
-0.0750454
1.58255
-0.0752477
1.58935
-0.0756874
1.59624
-0.0762553
1.60326
-0.0767871
1.61041
-0.0775662
1.6177
-0.0783799
1.62515
-0.0788848
1.63275
-0.0795202
1.64052
-0.0801757
-0.0806252
1.64846
0.316112
-2.43809
-0.0985084
0.510493
-2.18227
0.681692
-1.92255
0.830593
-1.67688
0.958967
-1.44662
1.0688
-1.23837
1.1622
-1.05366
1.24123
-0.89221
1.30789
-0.752292
1.36398
-0.632964
1.41113
-0.531466
1.45077
-0.447026
1.4841
-0.377977
1.51221
-0.321936
1.53606
-0.275827
1.55646
-0.238829
1.57411
-0.20958
1.58961
-0.186893
1.60344
-0.169744
1.61605
-0.157277
1.6278
-0.148767
1.63716
-0.113718
1.64569
-0.104462
1.65359
-0.0973454
1.661
-0.0919701
1.66806
-0.0880209
1.67486
-0.0852202
1.6815
-0.0833441
1.68804
-0.0822048
1.69453
-0.0816461
1.70102
-0.0815392
1.70755
-0.0817793
1.71415
-0.0822857
1.72084
-0.0829449
1.72765
-0.0835922
1.73458
-0.0844944
1.74164
-0.0854426
1.74886
-0.0861028
1.75623
-0.0868946
1.76376
-0.0877097
-0.0883288
1.77147
0.34112
-2.67477
-0.10444
0.552553
-2.3937
0.738798
-2.10879
0.900823
-1.83891
1.04055
-1.58635
1.16013
-1.35796
1.26184
-1.15536
1.34792
-0.978291
1.42052
-0.824892
1.48159
-0.694029
1.5329
-0.582777
1.57598
-0.490106
1.61214
-0.414142
1.64255
-0.352345
1.66826
-0.301533
1.69013
-0.260708
1.70894
-0.228381
1.7253
-0.203255
1.73977
-0.184212
1.7528
-0.170313
1.7648
-0.160765
1.77437
-0.12329
1.78302
-0.113108
1.79094
-0.105267
1.79831
-0.0993365
1.80526
-0.0949696
1.8119
-0.0918648
1.81833
-0.0897775
1.82463
-0.0885029
1.83086
-0.0878706
1.83706
-0.0877404
1.84328
-0.0879976
1.84954
-0.0885534
1.85589
-0.0892897
1.86234
-0.090041
1.8689
-0.0910562
1.87559
-0.0921305
1.88242
-0.09294
1.88941
-0.0938829
1.89656
-0.094853
-0.0956382
1.90386
0.368451
-2.93239
-0.110832
0.598601
-2.62385
0.801365
-2.31156
0.977806
-2.01535
1.13001
-1.73855
1.26031
-1.48825
1.37116
-1.26622
1.46499
-1.07212
1.54413
-0.904032
1.61068
-0.760577
1.66656
-0.638658
1.71342
-0.536969
1.75269
-0.453409
1.78561
-0.385269
1.81333
-0.329252
1.83679
-0.28417
1.85681
-0.248396
1.87407
-0.220513
1.88916
-0.199301
1.90258
-0.183732
1.91475
-0.172939
1.92448
-0.133023
1.93317
-0.121794
1.94103
-0.113128
1.94825
-0.106556
1.95498
-0.101699
1.96134
-0.0982295
1.96745
-0.0958796
1.97337
-0.0944262
1.97918
-0.0936836
1.98494
-0.0934988
1.99069