/*--------------------------------*- C++ -*----------------------------------*\
| =========                 |                                                 |
| \\      /  F ield         | OpenFOAM: The Open Source CFD Toolbox           |
|  \\    /   O peration     | Version:  5.x                                   |
|   \\  /    A nd           | Web:      www.OpenFOAM.org                      |
|    \\/     M anipulation  |                                                 |
\*---------------------------------------------------------------------------*/
FoamFile
{
    version     2.0;
    format      ascii;
    class       surfaceScalarField;
    location    "300";
    object      phi;
}
// * * * * * * * * * * * * * * * * * * * * * * * * * * * * * * * * * * * * * //

dimensions      [0 3 -1 0 0 0 0];

internalField   nonuniform List<scalar> 
21876
(
0.0277959
-0.00471715
-0.0230808
0.0372722
-0.00947633
0.0381513
-0.000879148
0.0394488
-0.00129753
0.038787
0.000661855
0.0369905
0.00179646
0.0347185
0.002272
0.03228
0.00243853
0.0297991
0.00248088
0.0270613
0.00273772
0.0237836
0.00327776
0.021306
0.0024776
0.0199675
0.00133849
0.0191985
0.000768962
0.0182771
0.00092133
0.0173332
0.000943916
0.01635
0.000983147
0.0153465
0.00100357
0.0143334
0.00101304
0.0133072
0.00102623
0.0122588
0.00104842
0.0114182
0.000840608
0.0105662
0.000851987
0.00969976
0.000866456
0.00881025
0.000889353
0.00789131
0.000918887
0.00693299
0.000957822
0.0059257
0.00100694
0.00486816
0.00105724
0.00378272
0.00108474
0.00269246
0.00109045
0.00162407
0.00106787
0.000624275
0.0010001
-0.000249466
0.000873805
-0.000987632
0.000738247
-0.00166807
0.000680731
-0.00257985
0.000911694
-0.00379621
0.00121659
-0.00501679
0.00122151
-0.00382261
-0.00119454
-0.00933074
0.00550823
0.0335976
-0.0114348
-0.0268798
0.0415409
-0.0174196
0.0443261
-0.0036644
0.0464584
-0.00342978
0.0475028
-0.000382599
0.0476647
0.00163453
0.0470391
0.0028976
0.0456976
0.00377995
0.0437869
0.00439158
0.0413005
0.00522412
0.0380166
0.00656164
0.0347642
0.00573005
0.0320806
0.00402209
0.0299183
0.00293134
0.0279479
0.00289175
0.0262131
0.00267875
0.0246163
0.00257999
0.0230919
0.00252795
0.0216071
0.00249791
0.0201391
0.0024943
0.0186614
0.00252614
0.0174851
0.00201699
0.0163258
0.00201128
0.0151654
0.00202688
0.0139875
0.00206721
0.0127787
0.00212755
0.0115249
0.0022109
0.0102173
0.00231338
0.00884889
0.00242394
0.00740901
0.00252304
0.00590469
0.00259475
0.00436685
0.0026062
0.00284899
0.00251923
0.00142481
0.00229913
0.000164463
0.00199962
-0.00102442
0.00187044
-0.00230893
0.00219632
-0.0034016
0.00230913
-0.00383272
0.00165273
-0.00290489
-0.00212126
-0.0153227
0.0030876
0.0394717
-0.0190816
-0.0318249
0.0466913
-0.0246392
0.0514097
-0.00838278
0.0543034
-0.00632352
0.0558745
-0.00195366
0.0563094
0.00119958
0.0559317
0.0032753
0.0549481
0.00476357
0.053458
0.00588171
0.0514343
0.00724775
0.0486788
0.00931714
0.0457215
0.00868742
0.0430191
0.00672448
0.0405539
0.00539653
0.0381066
0.00533899
0.0358072
0.00497818
0.0336513
0.00473578
0.0316017
0.00457757
0.029628
0.00447162
0.0277006
0.00442166
0.0257781
0.00444867
0.024254
0.00354113
0.0227645
0.00350067
0.0212861
0.00350528
0.0197975
0.00355577
0.0182808
0.00364427
0.0167179
0.00377379
0.015094
0.00393747
0.0133962
0.00412217
0.0116127
0.00430674
0.00974404
0.00446356
0.00780955
0.00454029
0.00585627
0.00447225
0.00395399
0.00420105
0.00219089
0.00376243
0.000578421
0.00348273
-0.000940644
0.00371531
-0.00214038
0.00350903
-0.00265852
0.00217114
-0.00250527
-0.00227512
-0.0181839
0.000355707
0.0459663
-0.0275256
-0.0375223
0.0531638
-0.0318367
0.0589218
-0.0141408
0.06262
-0.0100217
0.0648794
-0.00421315
0.0658712
0.000207813
0.065829
0.00331754
0.0649995
0.00559302
0.0635847
0.00729654
0.0616523
0.00918009
0.0590877
0.0118817
0.0562976
0.0114776
0.053742
0.00928005
0.0513957
0.00774283
0.048981
0.00775375
0.0465473
0.00741182
0.0441365
0.00714657
0.0417488
0.00696535
0.0393841
0.00683632
0.0370369
0.00676882
0.034679
0.00680663
0.0327986
0.00542153
0.0309582
0.00534107
0.0291328
0.00533074
0.0272991
0.00538938
0.0254368
0.00550638
0.0235247
0.00568555
0.0215435
0.00591819
0.0194754
0.00618961
0.0173053
0.00647627
0.0150271
0.00674157
0.0126488
0.00691852
0.0102035
0.00691784
0.00774846
0.00665647
0.00537963
0.00613164
0.003219
0.00564366
0.0013187
0.00561569
-0.000230426
0.00505819
-0.00111437
0.0030551
-0.00181667
-0.00157286
-0.0181751
-0.00182532
0.0531112
-0.0367593
-0.0438775
0.0606384
-0.0393639
0.0672624
-0.0207648
0.0720833
-0.0148425
0.0753447
-0.00747463
0.077192
-0.00163941
0.0777686
0.00274094
0.0772893
0.00607231
0.0759925
0.00859336
0.0740202
0.0111523
0.0713663
0.0145356
0.0684032
0.0144407
0.0656531
0.0120302
0.0631899
0.010206
0.0607622
0.0101814
0.0583177
0.00985634
0.0558673
0.00959692
0.0533848
0.00944787
0.0508524
0.00936866
0.0482664
0.00935487
0.0456111
0.00946187
0.043452
0.00758067
0.0413126
0.00748043
0.0391732
0.00747016
0.0370128
0.00754976
0.0348115
0.00770765
0.0325472
0.00794977
0.0301985
0.00826701
0.0277442
0.00864415
0.0251653
0.00905537
0.0224493
0.0094576
0.0195927
0.00977491
0.016611
0.00989935
0.01354
0.00972737
0.0104595
0.009212
0.00757368
0.0085293
0.00506623
0.00812313
0.00292638
0.00719813
0.00138633
0.00459518
-0.000245236
5.84166e-05
-0.015561
-0.00285946
0.0609877
-0.0468698
-0.0508771
0.0691375
-0.0475138
0.0766102
-0.0282376
0.0825678
-0.0208001
0.0869379
-0.0118447
0.0898195
-0.00452105
0.0912839
0.00127656
0.091481
0.00587518
0.0906136
0.00946078
0.0888493
0.0129166
0.0862426
0.0171424
0.0831079
0.0175754
0.0800074
0.0151307
0.0771662
0.0130471
0.0744588
0.0128888
0.0718062
0.0125089
0.0692109
0.0121921
0.0666344
0.0120245
0.0640244
0.0119786
0.0613464
0.0120329
0.0585682
0.01224
0.0562717
0.00987721
0.0539651
0.00978696
0.0516303
0.00980496
0.0492473
0.00993264
0.0467969
0.010158
0.044257
0.0104895
0.0416048
0.010919
0.0388169
0.0114319
0.0358704
0.0120016
0.0327465
0.0125813
0.029431
0.0130902
0.0259212
0.0134092
0.022226
0.0134226
0.0183882
0.01305
0.0146344
0.0122832
0.0112599
0.0114977
0.00825589
0.0102022
0.00569721
0.00715386
0.00304563
0.00270987
-0.0108142
-0.00170117
0.0697036
-0.0580435
-0.05853
0.0787645
-0.0565746
0.0871735
-0.0366467
0.0942619
-0.0278885
0.0998194
-0.0174021
0.10386
-0.00856141
0.106397
-0.00126077
0.107521
0.0047517
0.107374
0.00960744
0.106125
0.0141658
0.103856
0.019411
0.100793
0.0206389
0.0974645
0.0184587
0.0942198
0.0162919
0.0910981
0.0160106
0.0880528
0.0155542
0.0851027
0.0151423
0.08224
0.0148871
0.0794187
0.0147999
0.0765911
0.0148605
0.0737091
0.015122
0.0713404
0.0122459
0.0689699
0.0121574
0.0665692
0.0122056
0.0641105
0.0123913
0.0615679
0.0127004
0.0589145
0.0131429
0.0561221
0.0137114
0.0531612
0.0143928
0.0500019
0.0151609
0.0466157
0.0159675
0.0429752
0.0167306
0.0390583
0.017326
0.0348456
0.0176353
0.0303322
0.0175633
0.0257035
0.0169119
0.0212834
0.0159178
0.0171351
0.0143505
0.0132313
0.0110577
0.00932825
0.0066128
-0.00436742
0.0028814
0.0793884
-0.0705648
-0.0668671
0.0896645
-0.0668507
0.0991803
-0.0461624
0.107435
-0.0361435
0.11422
-0.0241868
0.119494
-0.0138351
0.12324
-0.00500678
0.125484
0.00250684
0.126313
0.00877871
0.125872
0.0146072
0.124254
0.0210284
0.121591
0.0233024
0.118318
0.0217312
0.114842
0.0197686
0.11136
0.0194921
0.107899
0.0190156
0.1045
0.0185412
0.101198
0.0181882
0.0979838
0.0180146
0.0948271
0.0180171
0.0916902
0.018259
0.0891624
0.0147737
0.0866883
0.0146314
0.0842317
0.0146623
0.0817562
0.0148668
0.0792277
0.0152289
0.0766109
0.0157596
0.0738687
0.0164535
0.0709615
0.0173
0.0678464
0.018276
0.0644781
0.0193357
0.0608081
0.0204006
0.0567865
0.0213476
0.0523592
0.0220626
0.0474694
0.0224531
0.0422176
0.0221638
0.0368464
0.021289
0.0314551
0.0197419
0.0260033
0.0165095
0.0204828
0.0121332
0.00350197
0.0126134
0.0902025
-0.0848098
-0.0759575
0.102037
-0.0786854
0.112902
-0.057027
0.122431
-0.0456728
0.130488
-0.0322436
0.137036
-0.0203835
0.142062
-0.0100321
0.145555
-0.00098614
0.147554
0.00677909
0.148175
0.013986
0.147506
0.0216981
0.145584
0.025224
0.142722
0.0245933
0.139313
0.0231774
0.135673
0.0231317
0.131921
0.0227683
0.128133
0.0223293
0.124383
0.0219384
0.120701
0.021696
0.117091
0.0216275
0.113539
0.0218102
0.110707
0.0176058
0.107991
0.0173481
0.105358
0.0172944
0.102778
0.0174472
0.100217
0.0177896
0.0976419
0.0183347
0.0950152
0.0190801
0.0922948
0.0200204
0.0894315
0.0211392
0.0863675
0.0223997
0.083033
0.023735
0.0793463
0.0250343
0.0752094
0.0261994
0.0705059
0.0271566
0.0652285
0.0274412
0.0594586
0.0270589
0.0532104
0.0259901
0.0464258
0.0232942
0.0391544
0.0194046
0.0126067
0.0300497
0.102347
-0.101246
-0.0859113
0.116143
-0.0924809
0.128667
-0.0695509
0.13966
-0.0566657
0.149081
-0.0416647
0.156947
-0.0282499
0.163278
-0.0163632
0.168082
-0.00579019
0.171363
0.00349813
0.173226
0.0121237
0.173743
0.0211803
0.172873
0.0260945
0.17079
0.0266759
0.167824
0.0261433
0.164339
0.0266168
0.160536
0.0265714
0.156542
0.0263234
0.152466
0.0260142
0.148382
0.0257803
0.144326
0.0256837
0.140315
0.0258209
0.137097
0.0208232
0.134031
0.0204146
0.131097
0.0202287
0.128273
0.0202704
0.125541
0.0205221
0.122878
0.0209979
0.12026
0.0216978
0.117659
0.0226209
0.11504
0.0237584
0.112354
0.0250858
0.109535
0.0265542
0.106492
0.0280769
0.103104
0.0295878
0.0992066
0.0310539
0.0946913
0.0319565
0.0894646
0.0322856
0.0833622
0.0320925
0.0762128
0.0304435
0.0679362
0.0276812
0.0225816
0.0579613
0.116076
-0.120439
-0.0968835
0.132312
-0.108717
0.146882
-0.0841208
0.159614
-0.0693975
0.170566
-0.052617
0.179834
-0.0375175
0.187501
-0.02403
0.193629
-0.0119188
0.198224
-0.00109654
0.201407
0.0089412
0.203252
0.0193353
0.203656
0.0256902
0.202672
0.0276593
0.200537
0.0282792
0.197588
0.0295651
0.194069
0.0300909
0.190152
0.0302398
0.185984
0.0301822
0.181678
0.0300861
0.177309
0.0300529
0.172927
0.0302036
0.169349
0.0244011
0.165926
0.0238374
0.162653
0.0235017
0.159521
0.0234022
0.156522
0.023521
0.153648
0.0238715
0.150893
0.0244536
0.148246
0.0252676
0.145696
0.0263088
0.143221
0.0275607
0.140784
0.0289904
0.138326
0.0305355
0.135744
0.0321691
0.132885
0.0339128
0.129599
0.0352429
0.125688
0.0361968
0.120845
0.036935
0.114749
0.0365398
0.10711
0.0353197
0.0321823
0.0975096
0.131707
-0.143067
-0.109079
0.15096
-0.12797
0.168052
-0.101212
0.18289
-0.0842357
0.195629
-0.0653565
0.206452
-0.0483406
0.215526
-0.0331035
0.222986
-0.0193792
0.22889
-0.00700054
0.233388
0.00444364
0.236589
0.0161344
0.238368
0.023911
0.23869
0.0273373
0.2377
0.0292693
0.235666
0.0315992
0.232812
0.0329451
0.229332
0.0337198
0.225395
0.0341185
0.221149
0.034333
0.216703
0.0344983
0.212146
0.0347611
0.208324
0.0282225
0.204635
0.0275271
0.201088
0.0270489
0.197687
0.0268027
0.194435
0.0267729
0.191334
0.0269725
0.188388
0.0274004
0.185599
0.028056
0.182973
0.0289348
0.18051
0.0300235
0.178204
0.0312972
0.17603
0.032709
0.173936
0.034263
0.171819
0.0360296
0.169567
0.0374957
0.166988
0.0387749
0.163774
0.0401497
0.159549
0.0407648
0.153946
0.040923
0.0397934
0.146334
0.149638
-0.169946
-0.12276
0.172603
-0.150934
0.192798
-0.121408
0.210211
-0.101649
0.225093
-0.0802378
0.237716
-0.0609636
0.248339
-0.0437272
0.257189
-0.0282285
0.264398
-0.0142102
0.27017
-0.00132774
0.274674
0.0116303
0.277808
0.0207766
0.279499
0.0256463
0.279832
0.0289362
0.278995
0.0324364
0.277154
0.0347863
0.274484
0.0363898
0.271153
0.037449
0.26732
0.038166
0.263122
0.0386964
0.258678
0.039205
0.254805
0.0320959
0.251011
0.0313208
0.247329
0.0307307
0.243781
0.0303514
0.240379
0.0301743
0.237135
0.0302161
0.23406
0.0304763
0.231162
0.0309537
0.228453
0.0316438
0.225942
0.0325347
0.223634
0.0336051
0.221526
0.0348166
0.219596
0.0361936
0.217785
0.0378407
0.216038
0.0392425
0.214231
0.0405821
0.212145
0.0422356
0.209489
0.0434202
0.206
0.0444127
0.0448251
0.200968
0.170365
-0.202056
-0.138255
0.197881
-0.17845
0.22189
-0.145417
0.242463
-0.122222
0.259949
-0.0977233
0.274717
-0.0757316
0.287125
-0.056135
0.297494
-0.0385982
0.306051
-0.022767
0.313076
-0.0083529
0.318806
0.00590045
0.323204
0.016379
0.326207
0.0226428
0.327886
0.0272569
0.328374
0.031949
0.327773
0.0353868
0.326216
0.037947
0.323843
0.0398226
0.320797
0.0412114
0.31722
0.0422738
0.313246
0.043179
0.309574
0.0357676
0.3059
0.0349947
0.302281
0.0343497
0.298759
0.0338735
0.295365
0.0335685
0.292122
0.0334593
0.289047
0.0335506
0.286157
0.033844
0.283463
0.0343374
0.280977
0.035021
0.278705
0.0358774
0.276647
0.0368744
0.274788
0.0380527
0.273086
0.0395421
0.27152
0.0408094
0.270012
0.0420898
0.26843
0.0438178
0.266606
0.0452437
0.26442
0.0465993
0.0478663
0.261379
0.194502
-0.240582
-0.155976
0.227587
-0.211535
0.256275
-0.174105
0.280727
-0.146675
0.301401
-0.118397
0.318771
-0.0931013
0.3333
-0.070664
0.345415
-0.050713
0.355443
-0.0327953
0.363755
-0.0166648
0.370664
-0.00100858
0.376223
0.0108195
0.380423
0.0184433
0.383357
0.0243221
0.385145
0.0301616
0.385852
0.0346795
0.385569
0.0382299
0.384398
0.040994
0.382451
0.0431583
0.379848
0.0448769
0.376717
0.04631
0.373536
0.0389481
0.37025
0.038281
0.366938
0.0376616
0.363663
0.0371483
0.360474
0.0367575
0.357409
0.0365242
0.354498
0.0364613
0.351765
0.0365773
0.349227
0.0368755
0.346896
0.0373517
0.34478
0.0379941
0.342877
0.038777
0.341174
0.0397557
0.339633
0.0410827
0.338244
0.0421992
0.336953
0.0433808
0.335668
0.0451027
0.334307
0.0466043
0.332825
0.0480817
0.0497073
0.330984
0.222804
-0.286961
-0.176425
0.262693
-0.251424
0.297113
-0.208525
0.326329
-0.17589
0.350917
-0.142985
0.371471
-0.113655
0.388572
-0.0877649
0.402761
-0.0649021
0.414479
-0.0445134
0.424191
-0.0263771
0.432305
-0.00912264
0.438968
0.00415647
0.444252
0.0131594
0.448307
0.0202676
0.451273
0.0271958
0.453217
0.0327348
0.454214
0.0372335
0.454336
0.0408716
0.453666
0.0438285
0.452292
0.0462506
0.450318
0.0482845
0.447902
0.0413633
0.445276
0.0409069
0.442535
0.0404028
0.439757
0.0399266
0.437005
0.0395094
0.434331
0.0391983
0.431776
0.039016
0.429374
0.0389794
0.427149
0.0390997
0.425122
0.0393796
0.423301
0.0398148
0.421691
0.0403867
0.420282
0.0411652
0.419042
0.0423226
0.417969
0.0432723
0.417026
0.0443233
0.416143
0.0459855
0.415283
0.0474651
0.414421
0.0489431
0.0506763
0.413452
0.256168
-0.342932
-0.200197
0.304366
-0.299622
0.345806
-0.249965
0.380867
-0.210951
0.410268
-0.172386
0.434738
-0.138125
0.454994
-0.108021
0.471706
-0.0816142
0.485441
-0.058249
0.496771
-0.0377066
0.506203
-0.018555
0.513991
-0.00363092
0.520301
0.00684861
0.52536
0.0152095
0.529357
0.0231983
0.532395
0.029697
0.53456
0.0350687
0.535924
0.0395078
0.536553
0.0431994
0.536514
0.0462896
0.535882
0.0489164
0.534428
0.0428168
0.532683
0.0426517
0.530747
0.0423393
0.528704
0.0419697
0.526625
0.0415881
0.52457
0.0412527
0.52259
0.0409965
0.520724
0.0408457
0.519004
0.0408195
0.517455
0.0409283
0.516095
0.0411748
0.514934
0.0415475
0.513971
0.0421288
0.513185
0.0431086
0.512584
0.0438729
0.512149
0.0447583
0.511829
0.046306
0.511609
0.0476844
0.51148
0.0490721
0.0507754
0.511381
0.26841
-0.404249
-0.207093
0.321258
-0.35247
0.366579
-0.295285
0.404837
-0.24921
0.436834
-0.204383
0.463377
-0.164668
0.485258
-0.129902
0.503221
-0.0995777
0.517911
-0.0729387
0.529953
-0.0497485
0.539907
-0.0285092
0.548106
-0.0118295
0.554789
0.000165166
0.560239
0.00975945
0.564692
0.0187459
0.568288
0.0261003
0.571144
0.0322129
0.573346
0.0373064
0.574961
0.0415836
0.57605
0.0452011
0.576667
0.0482989
0.576243
0.0432412
0.575517
0.0433781
0.574576
0.0432796
0.573499
0.043047
0.572351
0.0427367
0.571187
0.042416
0.570057
0.0421268
0.569
0.0419031
0.568048
0.0417713
0.567227
0.0417486
0.566559
0.0418434
0.566057
0.0420494
0.565727
0.042459
0.56556
0.0432751
0.565573
0.0438604
0.565759
0.0445723
0.566088
0.045977
0.566562
0.0472101
0.567181
0.048453
0.0500459
0.567911
0.277463
-0.47013
-0.211582
0.334278
-0.409285
0.382911
-0.343918
0.4239
-0.2902
0.458115
-0.238598
0.486428
-0.192981
0.509695
-0.153169
0.528718
-0.118601
0.544205
-0.0884257
0.556826
-0.0623691
0.56718
-0.0388641
0.575664
-0.0203135
0.582577
-0.00674762
0.58824
0.00409631
0.592927
0.0140588
0.596819
0.0222092
0.600058
0.0289732
0.602756
0.0346083
0.604996
0.0393436
0.606843
0.0433546
0.60835
0.0467921
0.608702
0.042889
0.608775
0.0433051
0.608645
0.0434098
0.608378
0.0433135
0.608033
0.0430819
0.607659
0.04279
0.607299
0.0424869
0.606989
0.0422129
0.60676
0.0420008
0.606635
0.0418729
0.606636
0.0418426
0.606778
0.0419077
0.607069
0.0421674
0.60751
0.0428346
0.608116
0.0432537
0.608891
0.0437974
0.609818
0.0450504
0.610905
0.0461226
0.612159
0.0471991
0.0486433
0.613562
0.288654
-0.541005
-0.217779
0.3498
-0.470431
0.402074
-0.396192
0.446086
-0.334211
0.482773
-0.275285
0.513079
-0.223286
0.537924
-0.178014
0.558175
-0.138852
0.574601
-0.104852
0.587919
-0.0756869
0.598771
-0.0497158
0.607606
-0.0291489
0.61478
-0.0139211
0.620648
-0.00177196
0.62552
0.00918615
0.629612
0.0181172
0.633099
0.0254869
0.636114
0.0315929
0.638762
0.0366958
0.641121
0.0409958
0.643252
0.0446611
0.644164
0.0419768
0.644829
0.0426396
0.645316
0.0429231
0.645683
0.0429468
0.64598
0.0427845
0.646252
0.0425181
0.646536
0.0422026
0.646865
0.0418845
0.647264
0.0416014
0.647757
0.04138
0.648362
0.0412377
0.649095
0.0411753
0.649964
0.0412977
0.650975
0.0418243
0.652141
0.0420872
0.653469
0.0424693
0.654951
0.0435689
0.656596
0.0444773
0.658412
0.045383
0.046665
0.66039
0.30181
-0.617325
-0.225491
0.367676
-0.536296
0.423933
-0.45245
0.471264
-0.381542
0.510682
-0.314702
0.543201
-0.255806
0.569815
-0.204629
0.591457
-0.160494
0.60896
-0.122355
0.623092
-0.0898186
0.634539
-0.0611629
0.643803
-0.0384131
0.651288
-0.0214058
0.657386
-0.00787013
0.662439
0.0041333
0.666695
0.0138608
0.670359
0.0218235
0.67359
0.028362
0.676513
0.0337727
0.679225
0.0382842
0.681798
0.0420872
0.683115
0.0406607
0.684219
0.0415355
0.685173
0.0419685
0.686032
0.0420877
0.686841
0.0419755
0.687639
0.04172
0.68846
0.0413824
0.68933
0.041014
0.690274
0.0406571
0.691312
0.0403423
0.69246
0.04009
0.693731
0.039904
0.695136
0.0398928
0.696679
0.0402809
0.698374
0.0403924
0.700226
0.0406171
0.702233
0.0415626
0.704402
0.0423078
0.706741
0.0430437
0.0441603
0.709246
0.316853
-0.699569
-0.234609
0.387852
-0.607295
0.448457
-0.513055
0.499421
-0.432506
0.541836
-0.357118
0.576798
-0.290767
0.605376
-0.233207
0.628573
-0.183691
0.647292
-0.141074
0.662354
-0.104881
0.674496
-0.0733044
0.684269
-0.0481866
0.692125
-0.0292614
0.698491
-0.0142369
0.703742
-0.00111714
0.708157
0.00944554
0.711968
0.0180124
0.71536
0.0249702
0.718479
0.0306534
0.721441
0.0353227
0.724334
0.0391941
0.72594
0.039054
0.727367
0.0401095
0.728673
0.0406621
0.729911
0.0408499
0.731122
0.0407638
0.732344
0.0404986
0.733605
0.0401214
0.73493
0.0396885
0.736341
0.0392465
0.737854
0.0388294
0.739483
0.0384608
0.74124
0.0381467
0.743135
0.0379984
0.745172
0.0382438
0.747361
0.0382033
0.749707
0.0382708
0.752211
0.0390589
0.754878
0.0396405
0.757714
0.0402077
0.0411576
0.760717
0.333763
-0.788257
-0.245075
0.410341
-0.683873
0.475683
-0.578397
0.530613
-0.487436
0.576311
-0.402816
0.613955
-0.328412
0.644699
-0.26395
0.669622
-0.208614
0.689699
-0.161151
0.705811
-0.120994
0.718747
-0.0862402
0.729112
-0.058551
0.737402
-0.0375516
0.744083
-0.0209179
0.749561
-0.00659501
0.754147
0.00485961
0.758099
0.0140603
0.761626
0.0214429
0.764896
0.027383
0.768044
0.0321756
0.771173
0.036065
0.772989
0.0372377
0.774651
0.0384479
0.776219
0.0390937
0.777745
0.039324
0.77927
0.0392391
0.780827
0.0389411
0.782445
0.0385034
0.784146
0.0379872
0.78595
0.0374434
0.787869
0.0369098
0.789918
0.0364124
0.792104
0.0359599
0.794437
0.0356655
0.796922
0.0357589
0.799565
0.035561
0.802368
0.0354669
0.805336
0.0360913
0.808471
0.0365059
0.811775
0.0369029
0.0376833
0.81525
0.35256
-0.883948
-0.256869
0.435204
-0.766518
0.505702
-0.648895
0.564958
-0.546692
0.614243
-0.4521
0.654827
-0.368996
0.687951
-0.297075
0.714779
-0.235442
0.736363
-0.182734
0.753649
-0.13828
0.767482
-0.100073
0.778521
-0.0695906
0.787312
-0.0463426
0.794358
-0.0279634
0.800098
-0.0123356
0.804875
8.26255e-05
0.808974
0.00996128
0.812628
0.0177894
0.816025
0.0239861
0.819317
0.0288832
0.822627
0.0327553
0.824596
0.0352689
0.826429
0.0366142
0.828192
0.0373312
0.829935
0.0375809
0.8317
0.037474
0.833521
0.0371204
0.835424
0.0366001
0.837431
0.0359801
0.839559
0.0353156
0.841821
0.0346478
0.844227
0.034006
0.846786
0.033401
0.849504
0.0329478
0.852386
0.0328766
0.855435
0.0325121
0.858653
0.0322487
0.862045
0.0327002
0.865609
0.0329413
0.869348
0.0331638
0.0337696
0.873262
0.3733
-0.98725
-0.269998
0.462537
-0.855754
0.538648
-0.725006
0.602618
-0.610662
0.655818
-0.5053
0.699617
-0.412796
0.735353
-0.332811
0.764278
-0.264367
0.787526
-0.205983
0.806116
-0.156869
0.820953
-0.11491
0.832755
-0.0813923
0.842115
-0.0557035
0.849578
-0.0354263
0.85562
-0.0183775
0.860614
-0.00491125
0.864873
0.00570276
0.868652
0.0140098
0.872163
0.0204754
0.875575
0.0254709
0.879027
0.0293035
0.881107
0.0331893
0.883064
0.0346563
0.884968
0.0354276
0.886872
0.0356772
0.888818
0.0355274
0.890842
0.0350969
0.892969
0.0344729
0.895221
0.0337284
0.897613
0.0329233
0.900158
0.0321027
0.902865
0.0312991
0.90574
0.0305257
0.908789
0.0298987
0.912018
0.0296482
0.915424
0.0291055
0.91901
0.0286627
0.922781
0.0289298
0.926733
0.0289889
0.930867
0.0290302
0.0294542
0.935182
0.396066
-1.09882
-0.284491
0.492469
-0.952158
0.574688
-0.807225
0.643795
-0.679769
0.701267
-0.562772
0.748581
-0.46011
0.787178
-0.371407
0.818405
-0.295594
0.843487
-0.231065
0.863519
-0.1769
0.879474
-0.130866
0.89213
-0.0940479
0.902132
-0.0657063
0.910068
-0.0433624
0.916453
-0.0247618
0.921692
-0.0101503
0.926126
0.0012688
0.930036
0.0100994
0.933654
0.0168576
0.937168
0.0219565
0.940733
0.0257383
0.942892
0.0310311
0.944936
0.0326123
0.946938
0.0334256
0.948955
0.0336597
0.951033
0.0334492
0.953208
0.0329226
0.955505
0.0321752
0.957947
0.0312863
0.96055
0.0303212
0.963323
0.029329
0.966277
0.0283455
0.969416
0.0273869
0.972744
0.0265701
0.976268
0.0261246
0.979983
0.0253906
0.983889
0.0247564
0.987992
0.0248264
0.992288
0.0246931
0.996773
0.0245446
0.0247782
1.00145
0.420961
-1.21939
-0.300392
0.525158
-1.05636
0.614026
-0.896093
0.688729
-0.754472
0.750863
-0.624905
0.802017
-0.511264
0.843744
-0.413135
0.877497
-0.329347
0.904598
-0.258165
0.926221
-0.198524
0.943415
-0.14806
0.957022
-0.107655
0.967743
-0.0764276
0.976211
-0.05183
0.98298
-0.0315317
0.988494
-0.015664
0.993122
-0.00335852
0.997169
0.0060517
1.00089
0.0131365
1.00449
0.018354
1.00815
0.0220836
1.01036
0.0288209
1.01246
0.0305146
1.01452
0.0313623
1.01661
0.0315692
1.01877
0.0312835
1.02105
0.0306442
1.02347
0.0297556
1.02606
0.028704
1.02882
0.0275602
1.03177
0.0263781
1.03492
0.025197
1.03827
0.0240362
1.04182
0.0230133
1.04559
0.0223563
1.04957
0.021417
1.05374
0.0205787
1.05813
0.020438
1.06272
0.0201009
1.06752
0.0197527
0.0197858
1.07251
0.44811
-1.34974
-0.317759
0.560787
-1.16903
0.656894
-0.9922
0.737698
-0.835276
0.804917
-0.692124
0.860267
-0.566614
0.905421
-0.458288
0.941944
-0.36587
0.971261
-0.287482
0.994638
-0.221901
1.0132
-0.166624
1.02786
-0.122317
1.03939
-0.0879484
1.04845
-0.060891
1.05565
-0.0387327
1.06147
-0.0214835
1.06631
-0.00819769
1.0705
0.00185976
1.07432
0.00931564
1.078
0.0146767
1.08172
0.0183624
1.08395
0.0265837
1.08608
0.0283932
1.08817
0.0292725
1.09029
0.0294444
1.0925
0.0290721
1.09484
0.0283062
1.09733
0.0272607
1.10001
0.0260295
1.10288
0.0246898
1.10596
0.0233004
1.10925
0.0219046
1.11276
0.0205249
1.11649
0.0192796
1.12046
0.018395
1.12464
0.017236
1.12904
0.0161802
1.13366
0.0158146
1.1385
0.0152615
1.14355
0.0147028
0.0145248
1.14881
0.477661
-1.49074
-0.336665
0.599566
-1.29094
0.703561
-1.09619
0.791016
-0.922732
0.863785
-0.764894
0.92372
-0.626549
0.972624
-0.507192
1.01218
-0.40543
1.04394
-0.319234
1.06924
-0.247208
1.08932
-0.186701
1.10515
-0.138147
1.11756
-0.100356
1.12728
-0.0706112
1.13496
-0.0464124
1.14111
-0.0276406
1.14618
-0.0132669
1.15053
-0.00248265
1.15444
0.00539985
1.15818
0.0109396
1.16194
0.014599
1.16418
0.0243446
1.1663
0.0262786
1.16838
0.0271911
1.1705
0.0273241
1.17271
0.0268571
1.17507
0.0259534
1.17759
0.0247376
1.18031
0.0233122
1.18323
0.0217608
1.18639
0.0201479
1.18977
0.018521
1.19339
0.0169063
1.19725
0.0154229
1.20135
0.0142947
1.20568
0.0129017
1.21025
0.0116149
1.21505
0.0110101
1.22008
0.0102283
1.22534
0.00944794
0.0090475
1.23082
0.509777
-1.64333
-0.357192
0.641735
-1.4229
0.754325
-1.20878
0.849035
-1.01744
0.927866
-0.843725
0.992814
-0.691496
1.04582
-0.5602
1.08871
-0.448318
1.12314
-0.353659
1.15057
-0.27464
1.17231
-0.208446
1.18943
-0.155268
1.20282
-0.113746
1.21327
-0.0810612
1.22148
-0.0546212
1.22801
-0.0341682
1.23333
-0.0185838
1.23782
-0.00698018
1.24183
0.00139653
1.24561
0.00716092
1.24938
0.0108219
1.2516
0.0221311
1.25367
0.024204
1.25571
0.0251558
1.25778
0.02525
1.25995
0.0246836
1.26227
0.0236338
1.26477
0.0222368
1.26748
0.0206042
1.27042
0.0188272
1.27359
0.0169759
1.27701
0.0151028
1.28067
0.013238
1.2846
0.0115013
1.28878
0.0101139
1.2932
0.00847303
1.29788
0.00694179
1.3028
0.00608371
1.30797
0.00506065
1.31337
0.00404697
0.00341262
1.31901
0.544644
-1.80854
-0.379434
0.687557
-1.56581
0.809522
-1.33075
0.912152
-1.12007
0.997605
-0.929178
1.06803
-0.761926
1.12554
-0.617704
1.17208
-0.494858
1.20944
-0.391022
1.23921
-0.304408
1.26279
-0.232028
1.28134
-0.173814
1.29581
-0.128219
1.30707
-0.0923168
1.31586
-0.0634123
1.32279
-0.0411004
1.32837
-0.0241654
1.33303
-0.0116349
1.33711
-0.00268335
1.3409
0.00336361
1.34466
0.00706496
1.34682
0.019975
1.34881
0.0222065
1.35076
0.023209
1.35274
0.0232685
1.35482
0.0226015
1.35706
0.0214005
1.35948
0.0198139
1.36212
0.0179635
1.365
0.0159486
1.36813
0.0138458
1.37152
0.0117126
1.37517
0.00958372
1.3791
0.00757947
1.38329
0.00591827
1.38775
0.00401594
1.39246
0.00222736
1.39744
0.0011021
1.40268
-0.000174693
1.40816
-0.00143311
-0.00231283
1.41388
0.582469
-1.98751
-0.403496
0.73733
-1.72067
0.869525
-1.46294
0.980805
-1.23135
1.0735
-1.02187
1.14993
-0.838357
1.21236
-0.680134
1.2629
-0.545403
1.30349
-0.431611
1.33583
-0.336748
1.36144
-0.257636
1.38156
-0.193931
1.39723
-0.143888
1.40937
-0.10446
1.4188
-0.0728426
1.42617
-0.0484719
1.43203
-0.0300277
1.43684
-0.0164459
1.44099
-0.00682408
1.44477
-0.000423024
1.44847
0.00336999
1.45053
0.0179136
1.45241
0.0203298
1.45422
0.0213993
1.45605
0.0214329
1.45798
0.0206682
1.46007
0.019314
1.46235
0.0175323
1.46486
0.0154561
1.46761
0.0131933
1.47063
0.0108275
1.47392
0.00842202
1.47749
0.00601619
1.48134
0.00373128
1.48548
0.00178248
1.48988
-0.00039396
1.49456
-0.00245222
1.49952
-0.00385798
1.50475
-0.00540054
1.51023
-0.00691481
-0.00805109
1.51597
0.623481
-2.1815
-0.429492
0.79138
-1.88857
0.93475
-1.60631
1.05548
-1.35209
1.1561
-1.12249
1.2391
-0.921359
1.30693
-0.747965
1.36188
-0.600347
1.40601
-0.475748
1.44118
-0.371917
1.46902
-0.285475
1.49087
-0.21578
1.50786
-0.160876
1.52098
-0.117581
1.53111
-0.0829729
1.53896
-0.0563188
1.54511
-0.0361851
1.55008
-0.0214086
1.55426
-0.011004
1.558
-0.00416211
1.56158
-0.000211983
1.5635
0.0159914
1.5652
0.0186252
1.56682
0.019784
1.56845
0.0198056
1.57017
0.0189502
1.57203
0.0174445
1.5741
0.0154657
1.5764
0.0131583
1.57895
0.0106398
1.58178
0.00800175
1.58489
0.0053135
1.58828
0.00261962
1.59197
4.23131e-05
1.59596
-0.00220669
1.60024
-0.00466886
1.60479
-0.00700819
1.60964
-0.00870698
1.61477
-0.0105267
1.62016
-0.0123073
-0.0137108
1.62582
0.667931
-2.39188
-0.457549
0.850073
-2.07071
1.00566
-1.7619
1.13673
-1.48316
1.24602
-1.23177
1.33623
-1.01156
1.40998
-0.821725
1.46976
-0.660123
1.5178
-0.523787
1.55609
-0.410204
1.58639
-0.315774
1.61015
-0.239541
1.62859
-0.179317
1.64278
-0.131777
1.65368
-0.0938684
1.66204
-0.0646783
1.6685
-0.04265
1.67361
-0.0265137
1.6778
-0.0151945
1.68144
-0.00780734
1.68485
-0.00361835
1.68658
0.0142619
1.68805
0.0171541
1.6894
0.018431
1.69075
0.01846
1.69217
0.0175258
1.69374
0.0158748
1.69551
0.0137001
1.69751
0.0111593
1.69977
0.00838045
1.70231
0.00546322
1.70514
0.00248387
1.70826
-0.000507299
1.71169
-0.00338707
1.71543
-0.00594738
1.71947
-0.00870558
1.7238
-0.0113362
1.72843
-0.0133395
1.73335
-0.0154467
1.73855
-0.0175034
-0.0191841
1.74402
0.716097
-2.62017
-0.487802
0.913809
-2.26842
1.08275
-1.93084
1.22515
-1.62556
1.34394
-1.35056
1.44205
-1.10967
1.52232
-0.901994
1.58741
-0.725213
1.63975
-0.576121
1.68147
-0.451926
1.71448
-0.348787
1.74035
-0.265411
1.76039
-0.199361
1.77577
-0.147153
1.7875
-0.105599
1.79641
-0.0735886
1.80319
-0.0494328
1.80843
-0.0317468
1.81259
-0.0193586
1.81609
-0.0113013
1.81924
-0.00677297
1.82071
0.0127893
1.82188
0.015989
1.82289
0.0174204
1.82387
0.0174827
1.8249
0.0164874
1.82608
0.0147019
1.82744
0.012337
1.82903
0.00956444
1.83089
0.00652353
1.83303
0.0033232
1.83547
4.70671e-05
1.83821
-0.00324835
1.84126
-0.00643856
1.84463
-0.00931943
1.84831
-0.0123822
1.85229
-0.0153128
1.85658
-0.0176307
1.86117
-0.0200346
1.86604
-0.0223759
-0.0243427
1.8712
0.768285
-2.86806
-0.520399
0.983033
-2.48317
1.1666
-2.11441
1.32141
-1.78037
1.45063
-1.47978
1.55742
-1.21646
1.64484
-0.98942
1.71578
-0.796151
1.77285
-0.63319
1.81836
-0.497436
1.85437
-0.384795
1.88256
-0.293608
1.90437
-0.221171
1.92105
-0.163827
1.93369
-0.118241
1.94319
-0.0830892
1.9503
-0.056541
1.95564
-0.0370865
1.95973
-0.0234491
1.963
-0.0145732
1.96581
-0.00958294
1.96695
0.0116509
1.96772
0.0152173
1.96829
0.0168481
1.9688
0.016977
1.96934
0.0159444
1.97
0.014041
1.97084
0.0114965
1.97191
0.0084981
1.97323
0.00519744
1.97484
0.00171344
1.97675
-0.00186213
1.97897
-0.00546596
1.9815
-0.00897213
1.98437
-0.0121806
1.98754
-0.0155545
1.99102
-0.0187917
1.99482
-0.0214327
1.99893
-0.0241408
2.00332
-0.0267737
-0.0290339
2.00801
0.824829
-3.13739
-0.555496
1.05824
-2.71658
1.25784
-2.31401
1.42626
-1.94879
1.56692
-1.62044
1.68325
-1.33278
1.77855
-1.08472
1.85593
-0.873533
1.91822
-0.695479
1.96791
-0.547129
2.00723
-0.42411
2.03799
-0.324374
2.06175
-0.244928
2.07985
-0.181928
2.09348
-0.131875
2.10362
-0.0932204
2.11105
-0.0639784
2.11647
-0.0425042
2.12043
-0.0274076
2.12339
-0.0175372
2.12575
-0.011937
2.12646
0.0109382
2.12674
0.0149418
2.12676
0.0168268
2.12667