/*--------------------------------*- C++ -*----------------------------------*\
| =========                 |                                                 |
| \\      /  F ield         | OpenFOAM: The Open Source CFD Toolbox           |
|  \\    /   O peration     | Version:  5.x                                   |
|   \\  /    A nd           | Web:      www.OpenFOAM.org                      |
|    \\/     M anipulation  |                                                 |
\*---------------------------------------------------------------------------*/
FoamFile
{
    version     2.0;
    format      ascii;
    class       surfaceScalarField;
    location    "300";
    object      phi;
}
// * * * * * * * * * * * * * * * * * * * * * * * * * * * * * * * * * * * * * //

dimensions      [0 3 -1 0 0 0 0];

internalField   nonuniform List<scalar> 
83317
(
0.000487385
0.000127859
-0.000587411
0.000396417
9.10309e-05
0.000322392
7.40073e-05
0.000290258
3.21455e-05
0.000272546
1.7716e-05
0.000259075
1.34834e-05
0.000249637
9.4448e-06
0.000242947
6.69843e-06
0.000237613
5.33931e-06
0.000232821
4.7979e-06
0.000228653
4.68229e-06
0.000224276
3.9295e-06
0.000221275
3.59351e-06
0.000218823
1.82443e-06
0.000217837
1.61266e-06
0.00021728
-5.59764e-08
0.000216367
1.52717e-06
0.000215735
2.4319e-08
0.000214483
1.87904e-06
0.000213514
3.63266e-07
0.000212398
1.10389e-06
0.000211111
1.28654e-06
0.000210225
8.85733e-07
0.000208983
1.24287e-06
0.000208024
9.58e-07
0.000207004
1.02137e-06
0.000205736
1.26745e-06
0.000204756
9.80075e-07
0.000203961
7.95059e-07
0.000203265
6.94028e-07
0.000202384
8.82874e-07
0.000201428
1.56006e-06
0.000200843
3.93669e-08
0.000200198
1.17167e-06
0.000199625
6.02786e-08
0.000199253
8.4508e-07
0.000198868
-1.23382e-07
0.000198403
9.5879e-07
0.000198329
-4.13091e-07
0.000198838
-2.16074e-08
0.000199258
-8.98525e-07
0.000194959
4.67592e-06
0.000191296
3.27553e-06
0.000191004
5.69868e-07
0.000191019
-2.88783e-07
0.000191131
1.41763e-07
0.000190706
1.74852e-07
0.000190526
3.62361e-07
0.000190695
-3.48241e-07
0.000190948
-7.67109e-08
0.000190979
-1.78481e-07
0.000191045
7.81508e-08
0.000190808
7.93488e-08
0.000190576
4.0257e-07
0.000190394
1.52231e-08
0.00019026
2.07003e-07
0.000191173
-9.83268e-07
0.000191467
-2.00132e-07
0.00019177
-3.96996e-07
0.000192457
-6.06743e-07
0.000192825
-4.47162e-07
0.000193425
-5.84083e-07
0.000193695
-2.86392e-07
0.000193919
-3.17703e-07
0.00019369
3.24233e-07
0.000193233
2.69879e-07
0.00019305
3.70815e-07
0.000193248
-4.75715e-07
0.000193852
-3.26015e-07
0.000193482
-4.68847e-08
0.000192701
1.20376e-06
0.000192606
-4.8583e-07
0.000192168
1.02752e-06
0.00019096
3.22079e-07
0.000189643
2.20996e-06
0.00018834
-1.17768e-07
0.000186208
3.54669e-06
0.000183768
1.06145e-07
0.000180169
5.96714e-06
0.000180117
-5.10565e-06
9.38327e-05
9.1163e-05
-0.000425189
0.00051924
0.000737344
0.000255118
-0.00086448
0.000570752
0.000257649
0.00045297
0.000191773
0.000405254
7.98678e-05
0.000384601
3.83735e-05
0.000371363
2.67268e-05
0.000365355
1.54569e-05
0.000363304
8.75574e-06
0.000363158
5.49023e-06
0.000364046
3.91296e-06
0.000365141
3.86859e-06
0.000366102
2.72595e-06
0.000367559
2.45865e-06
0.000369579
-5.42338e-07
0.0003733
-1.76559e-06
0.000376618
-3.70932e-06
0.000380548
-2.07089e-06
0.000383805
-3.5594e-06
0.000387064
-1.0456e-06
0.000389946
-2.83886e-06
0.000391946
-9.04115e-07
0.000394055
-8.23494e-07
0.000395176
-2.35588e-07
0.000396218
2.00924e-07
0.000396686
4.89659e-07
0.000396656
1.05139e-06
0.000396852
1.07109e-06
0.000396301
1.53161e-06
0.000395513
1.58295e-06
0.000394425
1.78042e-06
0.000393525
1.78301e-06
0.000392534
2.87226e-06
0.000390904
1.38135e-06
0.000389417
2.94044e-06
0.000387839
1.36583e-06
0.00038619
2.7471e-06
0.0003847
1.09144e-06
0.000383009
2.91655e-06
0.000381057
1.27581e-06
0.000379206
2.09568e-06
0.00037739
6.57656e-07
0.000379241
3.03032e-06
0.000381994
3.14743e-07
0.000382431
2.82184e-07
0.000382049
-5.30322e-08
0.000381452
8.76702e-07
0.000381174
3.17557e-07
0.000380826
8.08923e-07
0.000380351
3.02678e-08
0.00037989
4.80991e-07
0.000379576
5.63342e-08
0.000379304
4.28505e-07
0.000379219
7.78774e-08
0.000379184
5.30196e-07
0.000379208
-9.88551e-08
0.00037925
2.0451e-07
0.000378777
-5.48292e-07
0.000378688
-5.95309e-08
0.00037863
-3.89779e-07
0.000378443
-3.76133e-07
0.000378449
-4.96076e-07
0.000378483
-6.10038e-07
0.000378336
-1.47251e-07
0.000378143
-1.76379e-07
0.000378073
4.46582e-07
0.000377855
3.84878e-07
0.000377587
7.40616e-07
0.000376977
-1.67567e-08
0.000376083
7.21613e-07
0.0003754
4.08067e-07
0.000374711
2.12412e-06
0.000373434
4.75329e-07
0.000372087
2.70102e-06
0.000370618
1.30277e-06
0.000368543
4.77212e-06
0.000366014
1.62796e-06
0.000362935
7.39932e-06
0.00035936
2.40495e-06
0.000353285
1.33487e-05
0.000353101
-7.78449e-06
0.000196503
0.00025045
-0.000867978
0.000639562
0.000977255
0.000412474
-0.00113497
0.000749123
0.000485817
0.000587867
0.000353026
0.000525059
0.000142681
0.000500105
6.33282e-05
0.000485779
4.10585e-05
0.000481719
1.95196e-05
0.000482918
7.55975e-06
0.00048665
1.75915e-06
0.000491868
-1.30312e-06
0.000496988
-1.0776e-06
0.000501804
-2.24272e-06
0.000506413
-1.95085e-06
0.000511023
-5.36506e-06
0.000517436
-7.97483e-06
0.00052269
-9.16183e-06
0.000528779
-7.96645e-06
0.000533738
-8.70566e-06
0.000538645
-5.75946e-06
0.000542977
-7.34967e-06
0.000546225
-4.15525e-06
0.000549428
-4.02713e-06
0.000551289
-2.09589e-06
0.000552996
-1.50571e-06
0.000553923
-4.37491e-07
0.000554402
5.72466e-07
0.000554741
7.31888e-07
0.000554301
1.9722e-06
0.000553757
2.12652e-06
0.000552692
2.84586e-06
0.000551566
2.90978e-06
0.000550196
4.41518e-06
0.000548573
2.84786e-06
0.000546815
4.85208e-06
0.000544867
3.16414e-06
0.000542799
4.95498e-06
0.000540558
3.18235e-06
0.00053831
5.31153e-06
0.000535787
3.65258e-06
0.000533129
4.90251e-06
0.000530236
3.40319e-06
0.000533832
-4.47712e-07
0.00053865
-4.61675e-06
0.000539114
-1.01075e-07
0.000538755
2.27651e-07
0.000538261
1.44477e-06
0.000537874
6.31288e-07
0.000537451
1.28562e-06
0.000536936
4.92596e-07
0.000536438
1.03091e-06
0.000536037
4.13702e-07
0.000535674
8.33912e-07
0.000535442
2.62471e-07
0.000535246
7.76996e-07
0.000535058
3.94508e-08
0.000534892
3.91739e-07
0.000534496
-1.73082e-07
0.000534317
1.48609e-07
0.000534169
-2.70354e-07
0.000533989
-1.71361e-07
0.000533906
-4.36577e-07
0.000533687
-3.86859e-07
0.000533391
1.43648e-07
0.000533049
1.38132e-07
0.000532714
8.09897e-07
0.000532377
6.64631e-07
0.000531784
1.39027e-06
0.000531035
6.4877e-07
0.000529972
1.86895e-06
0.000528831
1.41992e-06
0.000527784
3.29783e-06
0.00052612
1.96115e-06
0.00052409
4.9099e-06
0.000522
3.12344e-06
0.000519387
7.65599e-06
0.000515973
4.60745e-06
0.000511727
1.20771e-05
0.000507045
6.3727e-06
0.000499196
2.19152e-05
0.000499029
-9.21546e-06
0.000302412
0.000448537
-0.00136389
0.000798611
0.00126835
0.00059896
-0.00145491
0.000973156
0.000781029
0.00075801
0.000568158
0.000675386
0.00022531
0.000644144
9.45727e-05
0.000627837
5.73707e-05
0.00062501
2.235e-05
0.000628888
3.68582e-06
0.000635984
-5.33258e-06
0.000644908
-1.02242e-05
0.000653745
-9.77593e-06
0.000661911
-1.0525e-05
0.00066939
-9.27834e-06
0.000675828
-1.19718e-05
0.000683846
-1.58334e-05
0.000690383
-1.58544e-05
0.000697583
-1.50155e-05
0.000703615
-1.48853e-05
0.00070932
-1.13139e-05
0.000714456
-1.26265e-05
0.000718385
-8.0891e-06
0.000722131
-7.7732e-06
0.000724503
-4.46857e-06
0.00072655
-3.55218e-06
0.000727809
-1.6972e-06
0.000728553
-1.70815e-07
0.000728979
3.04828e-07
0.000728646
2.30587e-06
0.000728249
2.52313e-06
0.000727244
3.85047e-06
0.000726058
4.09604e-06
0.000724578
6.03597e-06
0.000722946
4.35445e-06
0.00072109
6.83136e-06
0.000719005
5.12936e-06
0.000716792
7.27826e-06
0.0007143
5.54961e-06
0.000711774
7.95761e-06
0.000709011
6.29676e-06
0.000706127
7.90847e-06
0.000702841
6.56898e-06
0.000706282
-3.79169e-06
0.000711337
-9.7626e-06
0.000711932
-6.30891e-07
0.00071165
4.45596e-07
0.000711258
1.89793e-06
0.00071082
1.00983e-06
0.000710384
1.7654e-06
0.000709909
9.24414e-07
0.000709463
1.52055e-06
0.000709068
7.74495e-07
0.000708714
1.22186e-06
0.000708433
5.04376e-07
0.000708184
1.06779e-06
0.000707914
2.6929e-07
0.000707671
6.52658e-07
0.00070746
2.033e-08
0.000707315
3.16942e-07
0.000707204
-1.82044e-07
0.000707167
-1.14307e-07
0.000707131
-4.20178e-07
0.000706948
-2.00304e-07
0.00070663
4.57928e-07
0.000706246
4.98468e-07
0.000705757
1.32416e-06
0.000705227
1.14738e-06
0.000704408
2.25529e-06
0.000703574
1.41388e-06
0.000702446
3.06789e-06
0.000700931
2.82922e-06
0.000699498
4.83751e-06
0.000697498
3.81579e-06
0.000694928
7.63335e-06
0.000692152
5.67078e-06
0.000688793
1.12388e-05
0.000684442
8.59403e-06
0.000678907
1.79712e-05
0.000672864
1.18254e-05
0.000662843
3.25424e-05
0.000662739
-1.04424e-05
0.00043865
0.000673867
-0.0019287
0.00100373
0.00161661
0.000807008
-0.00182509
0.00124657
0.00115111
0.000968324
0.000846404
0.000859375
0.000334263
0.000818713
0.000135233
0.000798762
7.73266e-05
0.000795654
2.54596e-05
0.00080122
-1.87819e-06
0.000811078
-1.51915e-05
0.00082331
-2.24538e-05
0.000835866
-2.22498e-05
0.000847552
-2.22836e-05
0.000858421
-2.00528e-05
0.000867342
-2.09963e-05
0.00087743
-2.58221e-05
0.000885825
-2.43475e-05
0.000894643
-2.37379e-05
0.000902263
-2.25968e-05
0.000909286
-1.82409e-05
0.000915713
-1.91427e-05
0.0009207
-1.30779e-05
0.000925389
-1.24617e-05
0.000928591
-7.67106e-06
0.000931284
-6.2445e-06
0.000933121
-3.53456e-06
0.000934264
-1.31344e-06
0.00093505
-4.81184e-07
0.00093497
2.38659e-06
0.000934756
2.73646e-06
0.000933882
4.72454e-06
0.000932767
5.21236e-06
0.000931311
7.58251e-06
0.00092964
5.94377e-06
0.000927722
8.8292e-06
0.000925532
7.24135e-06
0.000923199
9.68398e-06
0.000920557
8.11194e-06
0.000917828
1.07639e-05
0.000914833
9.21497e-06
0.000911745
1.10747e-05
0.000908184
1.00511e-05
0.000911388
-6.93254e-06
0.000916629
-1.50636e-05
0.000917517
-1.47632e-06
0.000917342
5.7888e-07
0.000917001
2.27885e-06
0.000916576
1.39535e-06
0.000916166
2.20369e-06
0.000915738
1.32453e-06
0.000915342
1.9441e-06
0.000914987
1.10683e-06
0.000914677
1.55366e-06
0.000914424
7.32293e-07
0.000914203
1.31566e-06
0.000913978
4.67695e-07
0.000913787
8.55142e-07
0.000913677
1.19367e-07
0.00091361
3.98649e-07
0.000913579
-1.6635e-07
0.000913648
-1.69388e-07
0.000913706
-4.90859e-07
0.000913623
-1.15163e-07
0.000913317
7.6136e-07
0.000912915
8.84533e-07
0.000912341
1.91385e-06
0.000911682
1.77545e-06
0.000910721
3.24735e-06
0.000909718
2.37145e-06
0.0009084
4.43142e-06
0.000906553
4.60537e-06
0.000904726
6.73281e-06
0.000902262
6.18256e-06
0.000899095
1.08981e-05
0.000895583
9.03483e-06
0.000891306
1.56647e-05
0.000885837
1.38253e-05
0.000878839
2.52074e-05
0.000871155
1.9115e-05
0.000858429
4.56596e-05
0.000858398
-1.1288e-05
0.000612746
0.000920314
-0.00257642
0.00126071
0.00203121
0.00103323
-0.00225758
0.00157451
0.00160783
0.00122115
0.00119976
0.00108
0.000475418
0.00102722
0.000188014
0.00100248
0.00010207
0.000998658
2.92811e-05
0.00100604
-9.25201e-06
0.00101911
-2.82634e-05
0.0010353
-3.86449e-05
0.00105232
-3.91915e-05
0.00106834
-3.83663e-05
0.00108354
-3.51671e-05
0.00109597
-3.3525e-05
0.00110912
-3.88744e-05
0.00112014
-3.54639e-05
0.00113129
-3.47915e-05
0.00114109
-3.24912e-05
0.00114998
-2.70428e-05
0.0011582
-2.74384e-05
0.00116466
-1.95462e-05
0.00117068
-1.84851e-05
0.00117504
-1.20306e-05
0.00117867
-9.87349e-06
0.00118134
-6.19803e-06
0.00118308
-3.05771e-06
0.00118443
-1.8297e-06
0.00118475
2.06904e-06
0.00118483
2.649e-06
0.00118419
5.37111e-06
0.00118323
6.16889e-06
0.00118187
9.02754e-06
0.00118021
7.53089e-06
0.00117827
1.084e-05
0.00117601
9.42825e-06
0.00117359
1.21748e-05
0.00117082
1.08037e-05
0.00116793
1.3727e-05
0.00116472
1.23465e-05
0.00116144
1.44354e-05
0.00115762
1.37948e-05
0.00116061
-9.86031e-06
0.00116609
-2.06008e-05
0.00116737
-2.71672e-06
0.00116736
5.51683e-07
0.0011671
2.57971e-06
0.00116673
1.72232e-06
0.00116639
2.57488e-06
0.00116603
1.6525e-06
0.00116572
2.28697e-06
0.00116544
1.36665e-06
0.00116521
1.80265e-06
0.00116503
8.84348e-07
0.00116489
1.48131e-06
0.00116478
5.5989e-07
0.0011647
9.4051e-07
0.0011647
1.12539e-07
0.00116475
3.58628e-07
0.00116484
-2.72496e-07
0.00116504
-3.5171e-07
0.00116523
-6.98677e-07
0.00116528
-1.59177e-07
0.00116501
1.02799e-06
0.00116461
1.26964e-06
0.00116398
2.5646e-06
0.00116322
2.49884e-06
0.00116214
4.36569e-06
0.00116092
3.54047e-06
0.00115935
6.04505e-06
0.00115714
6.74864e-06
0.00115486
9.07999e-06
0.00115183
9.12484e-06
0.00114795
1.4883e-05
0.00114356
1.32681e-05
0.00113819
2.11784e-05
0.00113137
2.041e-05
0.00112262
3.41892e-05
0.00111295
2.84066e-05
0.00109693
6.2072e-05
0.00109697
-1.21814e-05
0.000828776
0.00118929
-0.00332172
0.00157429
0.00252686
0.00127291
-0.00276694
0.00197007
0.00216465
0.00152593
0.0016439
0.00134617
0.000655185
0.0012786
0.000255581
0.00124804
0.000132634
0.00124345
3.38711e-05
0.00125308
-1.88868e-05
0.00127011
-4.5293e-05
0.00129119
-5.97222e-05
0.00131366
-6.1617e-05
0.00133502
-5.97662e-05
0.00135559
-5.56896e-05
0.0013726
-5.05886e-05
0.00138986
-5.60776e-05
0.00140439
-5.00486e-05
0.00141864
-4.89891e-05
0.00143133
-4.52274e-05
0.0014427
-3.83591e-05
0.00145326
-3.80472e-05
0.00146169
-2.79806e-05
0.0014695
-2.62914e-05
0.00147539
-1.79203e-05
0.00148029
-1.47775e-05
0.00148407
-9.98096e-06
0.00148667
-5.6539e-06
0.0014888
-3.95809e-06
0.00148969
1.17329e-06
0.00149024
2.10316e-06
0.00148994
5.6659e-06
0.00148925
6.86706e-06
0.00148807
1.0259e-05
0.00148649
9.06183e-06
0.0014846
1.27802e-05
0.00148231
1.16687e-05
0.00147984
1.46939e-05
0.00147696
1.36305e-05
0.00147395
1.67888e-05
0.00147056
1.56879e-05
0.00146709
1.79486e-05
0.00146302
1.78145e-05
0.00146583
-1.26242e-05
0.00147162
-2.64311e-05
0.00147339
-4.46059e-06
0.00147361
3.03412e-07
0.00147348
2.73238e-06
0.00147324
1.94641e-06
0.00147301
2.82265e-06
0.00147277
1.87279e-06
0.00147257
2.49835e-06
0.00147241
1.51417e-06
0.00147231
1.91459e-06
0.00147226
9.17358e-07
0.00147226
1.50282e-06
0.00147229
5.07987e-07
0.00147239
8.56458e-07
0.00147253
-4.09954e-08
0.00147276
1.4223e-07
0.00147302
-5.44513e-07
0.0014734
-7.19397e-07
0.00147378
-1.09251e-06
0.00147399
-3.68301e-07
0.00147379
1.22922e-06
0.00147341
1.63687e-06
0.00147273
3.25437e-06
0.00147189
3.32063e-06
0.00147066
5.61451e-06
0.00146921
4.96191e-06
0.00146735
7.93632e-06
0.00146471
9.34452e-06
0.0014619
1.19318e-05
0.00145819
1.2775e-05
0.00145343
1.97052e-05
0.00144799
1.86126e-05
0.00144131
2.79557e-05
0.00143285
2.87168e-05
0.00142197
4.52199e-05
0.00140989
4.02441e-05
0.00138986
8.23423e-05
0.00138995
-1.28252e-05
0.00109335
0.00148637
-0.00418035
0.00195214
0.00312112
0.00152105
-0.0033694
0.00245036
0.00283543
0.00189663
0.00219762
0.00167024
0.000881573
0.00158444
0.000341377
0.0015467
0.000170385
0.00154117
3.93984e-05
0.00155354
-3.1252e-05
0.00157537
-6.71155e-05
0.0016024
-8.67533e-05
0.00163151
-9.06768e-05
0.00165942
-8.77122e-05
0.00168661
-8.28343e-05
0.0017094
-7.3433e-05
0.00173199
-7.86088e-05
0.00175105
-6.91707e-05
0.00176935
-6.72301e-05
0.00178573
-6.16627e-05
0.00180031
-5.28862e-05
0.00181389
-5.16775e-05
0.00182488
-3.89713e-05
0.001835
-3.64139e-05
0.00184288
-2.58032e-05
0.00184947
-2.13655e-05
0.00185473
-1.52389e-05
0.00185849
-9.41194e-06
0.00186166
-7.13398e-06
0.00186336
-5.22155e-07
0.00186457
8.92005e-07
0.00186478
5.45072e-06
0.00186448
7.17283e-06
0.00186359
1.12027e-05
0.00186219
1.04103e-05
0.00186043
1.45992e-05
0.00185818
1.38687e-05
0.00185571
1.72074e-05
0.00185277
1.65152e-05
0.00184967
1.99375e-05
0.00184613
1.9173e-05
0.00184252
2.16137e-05
0.00183822
2.20644e-05
0.00184086
-1.52212e-05
0.00184703
-3.26427e-05
0.0018494
-6.79674e-06
0.00184995
-2.77904e-07
0.00185004
2.67227e-06
0.00184997
1.98968e-06
0.00184991
2.89527e-06
0.00184985
1.919e-06
0.00184983
2.53548e-06
0.00184985
1.48461e-06
0.00184994
1.83928e-06
0.00185008
7.59366e-07
0.00185027
1.32631e-06
0.00185051
2.49794e-07
0.00185083
5.51545e-07
0.00185118
-4.06721e-07
0.00185164
-3.0705e-07
0.00185214
-1.05142e-06
0.00185277
-1.33763e-06
0.00185341
-1.74141e-06
0.00185383
-7.90389e-07
0.00185373
1.32786e-06
0.0018534
1.95587e-06
0.00185269
3.97638e-06
0.00185177
4.22324e-06
0.00185038
7.02578e-06
0.00184866
6.65049e-06
0.00184646
1.01696e-05
0.0018433
1.2457e-05
0.00183986
1.54213e-05
0.00183534
1.72332e-05
0.00182951
2.55992e-05
0.00182279
2.52331e-05
0.00181452
3.63245e-05
0.00180408
3.89947e-05
0.0017906
5.88566e-05
0.00177558
5.50129e-05
0.00175067
0.000107511
0.00175078
-1.35146e-05
0.00141817
0.00181949
-0.00516896
0.00240693
0.00383495
0.00177059
-0.00408485
0.00303548
0.00363495
0.00234999
0.00288312
0.00206698
0.00116458
0.00195847
0.000449884
0.00191171
0.000217149
0.00190493
4.61805e-05
0.00192051
-4.68317e-05
0.00194809
-9.46976e-05
0.00198233
-0.000120998
0.0020195
-0.000127817
0.0020554
-0.000123633
0.00209071
-0.000118117
0.00212071
-0.00010346
0.00215006
-0.000107935
0.00217492
-9.40624e-05
0.0021984
-9.06726e-05
0.00221948
-8.27768e-05
0.00223817
-7.15417e-05
0.00225559
-6.91248e-05
0.00226985
-5.32302e-05
0.00228294
-4.95054e-05
0.00229338
-3.62499e-05
0.00230216
-3.01376e-05
0.00230934
-2.24188e-05
0.00231463
-1.47088e-05
0.00231919
-1.1695e-05
0.00232197
-3.30007e-06
0.0023241
-1.23488e-06
0.00232503
4.51769e-06
0.00232529
6.9119e-06
0.00232485
1.16771e-05
0.00232376
1.14704e-05
0.00232223
1.61612e-05
0.00232011
1.59621e-05
0.00231773
1.96164e-05
0.00231479
1.94231e-05
0.00231167
2.30882e-05
0.00230804
2.27711e-05
0.00230433
2.53564e-05
0.00229983
2.65272e-05
0.00230233
-1.76896e-05
0.00230894
-3.92765e-05
0.00231202
-9.86047e-06
0.00231302
-1.30035e-06
0.00231342
2.29001e-06
0.00231362
1.77851e-06
0.00231382
2.70458e-06
0.002314
1.72497e-06
0.00231423
2.31229e-06
0.0023145
1.20645e-06
0.00231486
1.49688e-06
0.00231526
3.41302e-07
0.00231573
8.66154e-07
0.00231626
-2.81915e-07
0.00231686
-5.19372e-08
0.00231751
-1.05866e-06
0.00231828
-1.07569e-06
0.00231909
-1.86488e-06
0.00232006
-2.2967e-06
0.00232103
-2.72343e-06
0.00232174
-1.49504e-06
0.00232179
1.27563e-06
0.00232154
2.19769e-06
0.00232082
4.70504e-06
0.00231981
5.2201e-06
0.00231824
8.61124e-06
0.00231622
8.65544e-06
0.00231361
1.27886e-05
0.00230984
1.62021e-05
0.00230564
1.96489e-05
0.00230015
2.26817e-05
0.00229304
3.27502e-05
0.00228475
3.34634e-05
0.00227455
4.65867e-05
0.0022617
5.17529e-05
0.00224505
7.5591e-05
0.00222645
7.34651e-05
0.00219561
0.000138491
0.00219564
-1.3875e-05
0.00181963
0.00219578
-0.00630494
0.00295569
0.0046934
0.00201401
-0.00493694
0.00374927
0.0045791
0.00290616
0.00372622
0.00255428
0.00151646
0.00241726
0.000586905
0.00235908
0.000275333
0.0023505
5.47654e-05
0.00236977
-6.61022e-05
0.0024042
-0.00012912
0.00244712
-0.000163911
0.00249403
-0.000174697
0.00253964
-0.000169272
0.00258488
-0.000163316
0.00262379
-0.000142416
0.00266165
-0.000145749
0.00269384
-0.000126289
0.00272389
-0.000120687
0.00275092
-0.000109845
0.00277481
-9.53951e-05
0.00279708
-9.1435e-05
0.0028155
-7.16466e-05
0.00283237
-6.63782e-05
0.00284609
-4.9966e-05
0.00285767
-4.17231e-05
0.00286733
-3.20763e-05
0.00287464
-2.20224e-05
0.00288102
-1.80695e-05
0.00288523
-7.51759e-06
0.0028886
-4.59967e-06
0.00289052
2.59831e-06
0.00289158
5.84864e-06
0.00289178
1.15187e-05
0.00289117
1.20472e-05
0.00289002
1.7346e-05
0.00288815
1.77984e-05
0.00288597
2.18254e-05
0.00288313
2.22281e-05
0.00288007
2.61786e-05
0.00287643
2.63779e-05
0.00287269
2.9127e-05
0.00286808
3.11112e-05
0.00287044
-2.00266e-05
0.00287754
-4.63987e-05
0.00288147
-1.37782e-05
0.00288308
-2.9285e-06
0.00288392
1.47453e-06
0.00288448
1.19315e-06
0.00288504
2.15926e-06
0.00288557
1.18391e-06
0.00288615
1.74278e-06
0.00288677
5.82174e-07
0.00288748
7.93755e-07
0.00288825
-4.4156e-07
0.0028891
3.22058e-08
0.00288999
-1.18734e-06
0.002891
-1.04835e-06
0.00289203
-2.09758e-06
0.00289322
-2.2576e-06
0.00289444
-3.09115e-06
0.00289585
-3.69867e-06
0.00289726
-4.14424e-06
0.00289834
-2.57251e-06
0.0028986
1.01293e-06
0.00289848
2.31222e-06
0.00289776
5.42764e-06
0.00289668
6.29296e-06
0.0028949
1.04027e-05
0.00289253
1.10091e-05
0.00288946
1.58776e-05
0.00288495
2.06796e-05
0.00287984
2.47964e-05
0.00287318
2.92947e-05
0.00286451
4.14716e-05
0.00285432
4.35802e-05
0.00284177
5.91994e-05
0.002826
6.74198e-05
0.0028055
9.61887e-05
0.00278254
9.6257e-05
0.0027445
0.000176714
0.00274423
-1.40113e-05
0.00231848
0.00262187
-0.00760561
0.00361926
0.00572634
0.0022405
-0.00595317
0.00462039
0.00568509
0.00358967
0.00475695
0.00315416
0.00195198
0.00298119
0.000759866
0.00290843
0.000348102
0.00289723
6.59607e-05
0.00292065
-8.95238e-05
0.00296314
-0.000171615
0.00301643
-0.0002172
0.00307509
-0.000233337
0.00313247
-0.000226669
0.00318978
-0.000220606
0.00323967
-0.000192323
0.0032881
-0.000194162
0.00332949
-0.000167702
0.00336783
-0.000159008
0.00340235
-0.000144378
0.00343281
-0.000125832
0.00346119
-0.00011984
0.00348486
-9.53122e-05
0.00350651
-8.80328e-05
0.00352438
-6.78332e-05
0.00353956
-5.68999e-05
0.00355239
-4.49095e-05
0.00356232
-3.19473e-05
0.00357104
-2.67954e-05
0.00357716
-1.36311e-05
0.00358217
-9.61008e-06
0.00358541
-6.49882e-07
0.00358758
3.68621e-06
0.00358868
1.04363e-05
0.00358877
1.19376e-05
0.0035882
1.79341e-05
0.00358675
1.92299e-05
0.00358493
2.36667e-05
0.00358231
2.48243e-05
0.00357945
2.90587e-05
0.00357591
2.99038e-05
0.00357226
3.27896e-05
0.00356762
3.57356e-05
0.00356989
-2.22824e-05
0.00357751
-5.4038e-05
0.00358246
-1.87137e-05
0.00358486
-5.33679e-06
0.00358629
5.55993e-08
0.00358737
1.04795e-07
0.00358841
1.11986e-06
0.00358941
1.76805e-07
0.00359047
6.92346e-07
0.00359156
-5.10094e-07
0.00359275
-3.98655e-07
0.00359401
-1.70548e-06
0.00359536
-1.30882e-06
0.00359675
-2.58355e-06
0.00359827
-2.56419e-06
0.00359981
-3.64443e-06
0.00360154
-3.98634e-06
0.0036033
-4.84847e-06
0.00360528
-5.67867e-06
0.00360726
-6.13022e-06
0.00360883
-4.13641e-06
0.00360938
4.56383e-07
0.00360945
2.24453e-06
0.00360877
6.10501e-06
0.00360761
7.4475e-06
0.00360561
1.24118e-05
0.00360283
1.37783e-05
0.00359921
1.95025e-05
0.00359383
2.60449e-05
0.00358762
3.10232e-05
0.00357956
3.73289e-05
0.00356901
5.20482e-05
0.00355651
5.60419e-05
0.00354111
7.46379e-05
0.00352178
8.67003e-05
0.00349661
0.00012141
0.00346834
0.000124435
0.00342156
0.000223576
0.00342063
-1.32888e-05
0.00294029
0.00310236
-0.00908767
0.00442241
0.00696958
0.00243672
-0.00716593
0.00568368
0.00697103
0.00443062
0.00601001
0.00389386
0.00248874
0.00367549
0.000978239
0.00358398
0.000439619
0.00356896
8.09858e-05
0.00359692
-0.00011748
0.00364882
-0.000223522
0.00371444
-0.00028281
0.00378717
-0.000306051
0.00385875
-0.00029826
0.00393071
-0.000292545
0.00399402
-0.000255654
0.00405552
-0.00025564
0.00410839
-0.000220596
0.00415712
-0.000207716
0.00420102
-0.000188297
0.00423972
-0.000164506
0.00427577
-0.000155917
0.00430604
-0.000125589
0.00433373
-0.000115716
0.00435684
-9.0947e-05
0.00437658
-7.6644e-05
0.00439346
-6.17868e-05
0.00440674
-4.52296e-05
0.0044185
-3.85556e-05
0.00442709
-2.22126e-05
0.00443426
-1.67839e-05
0.00443928
-5.66749e-06
0.00444293
3.47431e-08
0.00444527
8.12469e-06
0.00444635
1.08315e-05
0.00444662
1.76852e-05
0.00444582
2.00131e-05
0.00444456
2.49451e-05
0.00444235
2.70017e-05
0.00443986
3.15789e-05
0.00443657
3.31705e-05
0.00443316
3.62154e-05
0.00442865
4.02271e-05
0.00443088
-2.44963e-05
0.00443908
-6.22483e-05
0.0044452
-2.48206e-05
0.00444861
-8.76251e-06
0.00445083
-2.1543e-06
0.0044526
-1.67423e-06
0.0044543
-5.72128e-07
0.00445593
-1.4671e-06
0.00445762
-9.87088e-07
0.00445934
-2.23109e-06
0.00446118
-2.23328e-06
0.00446308
-3.61505e-06
0.00446509
-3.30647e-06
0.00446713
-4.63086e-06
0.00446932
-4.75735e-06
0.00447153
-5.8564e-06
0.00447397
-6.41942e-06
0.00447642
-7.30022e-06
0.00447914
-8.39683e-06
0.00448185
-8.84672e-06
0.00448405
-6.33409e-06
0.004485
-4.95552e-07
0.00448533
1.91405e-06
0.00448473
6.70239e-06
0.00448352
8.65637e-06
0.00448127
1.46684e-05
0.00447802
1.70111e-05
0.00447376
2.37749e-05
0.00446734
3.24468e-05
0.00445981
3.85741e-05
0.00445006
4.70551e-05
0.00443723
6.4912e-05
0.00442195
7.128e-05
0.00440308
9.35453e-05
0.00437943
0.000110272
0.00434859
0.000152321
0.00431387
0.000159035
0.00425653
0.000281043
0.00425428
-1.13285e-05
0.00371636
0.00364049
-0.0107656
0.00539436
0.00846641
0.00258362
-0.00861361
0.00698185
0.00845564
0.00546607
0.0075258
0.00480733
0.00314748
0.00453154
0.00125402
0.00441581
0.000555355
0.00439522
0.000101579
0.00442796
-0.000150227
0.00449075
-0.000286309
0.00457091
-0.000362969
0.00466045
-0.00039559
0.00474907
-0.000386882
0.00483873
-0.000382197
0.00491835
-0.000335281
0.00499591
-0.00033319
0.00506299
-0.000287686
0.00512467
-0.000269385
0.00518026
-0.000243899
0.00522927
-0.000213501
0.0052749
-0.00020156
0.00531345
-0.000164141
0.0053487
-0.000150965
0.00537842
-0.000120661
0.00540393
-0.000102158
0.00542594
-8.37949e-05
0.00544351
-6.28012e-05
0.00545915
-5.41968e-05
0.00547093
-3.39889e-05
0.00548091
-2.67676e-05
0.00548826
-1.30148e-05
0.00549389
-5.5969e-06
0.00549791
4.12373e-06
0.00550036
8.36756e-06
0.00550181
1.62456e-05
0.00550194
1.98697e-05
0.00550152
2.53764e-05
0.00549997
2.85432e-05
0.00549807
3.34864e-05
0.00549525
3.59829e-05
0.0054923
3.9168e-05
0.00548813
4.43941e-05
0.00549042
-2.67844e-05
0.00549922
-7.10561e-05
0.00550669
-3.22823e-05
0.00551138
-1.34616e-05
0.00551465
-5.41815e-06
0.00551733
-4.36023e-06
0.0055199
-3.14044e-06
0.00552238
-3.94352e-06
0.00552491
-3.51334e-06
0.00552745
-4.77524e-06
0.00553014
-4.91841e-06
0.00553288
-6.36076e-06
0.00553575
-6.17037e-06
0.00553863
-7.52118e-06
0.00554171
-7.82926e-06
0.00554478
-8.92826e-06
0.00554812
-9.76265e-06
0.00555146
-1.06396e-05
0.00555513
-1.20642e-05
0.00555877
-1.2493e-05
0.00556179
-9.3501e-06
0.00556327
-1.97746e-06
0.00556396
1.21901e-06
0.00556351
7.1555e-06
0.00556226
9.90455e-06
0.00555975
1.71831e-05
0.00555596
2.07903e-05
0.00555095
2.87907e-05
0.0055433
4.00925e-05
0.00553419
4.76863e-05
0.0055224
5.88292e-05
0.00550683
8.04908e-05
0.00548817
8.99333e-05
0.0054651
0.000116629
0.00543622
0.000139121
0.00539852
0.000190059
0.00535597
0.000201526
0.00528591
0.000351146
0.00528126
-6.79939e-06
0.00468494
0.00423688
-0.0126499
0.00656931
0.0102694
0.00265579
-0.0103417
0.0085673
0.0101578
0.00674174
0.00935137
0.00593682
0.0039524
0.00558851
0.00160232
0.00544138
0.0007025
0.00541272
0.000130246
0.00545026
-0.000187767
0.00552544
-0.000361491
0.00562264
-0.000460159
0.00573213
-0.000505068
0.00584109
-0.00049585
0.00595205
-0.00049314
0.00605139
-0.000434643
0.00614856
-0.000430337
0.00623311
-0.000372259
0.00631083
-0.00034708
0.00638094
-0.000314028
0.00644278
-0.000275319
0.00650033
-0.00025913
0.00654922
-0.000213033
0.00659392
-0.000195671
0.00663191
-0.000158646
0.00666469
-0.00013494
0.00669317
-0.000112271
0.00671619
-8.58211e-05
0.00673677
-7.47831e-05
0.00675264
-4.98596e-05
0.00676626
-4.03854e-05
0.00677664
-2.3394e-05
0.00678488
-1.38385e-05
0.00679111
-2.08632e-06
0.00679542
4.04761e-06
0.00679848
1.31983e-05
0.00679994
1.83981e-05
0.00680071
2.46136e-05
0.00680013
2.91011e-05
0.00679914
3.44927e-05
0.00679707
3.80368e-05
0.00679487
4.1387e-05
0.00679132
4.79316e-05
0.00679384
-2.92935e-05
0.0068033
-8.05303e-05
0.0068123
-4.12677e-05
0.00681858
-1.97503e-05
0.0068232
-1.00358e-05
0.00682709
-8.25113e-06
0.0068308
-6.84648e-06
0.00683437
-7.52102e-06
0.006838
-7.13353e-06
0.00684162
-8.39784e-06
0.00684541
-8.70415e-06
0.00684924
-1.01986e-05
0.00685322
-1.01493e-05
0.0068572
-1.15049e-05
0.00686141
-1.20329e-05
0.00686558
-1.31064e-05
0.00687009
-1.42689e-05
0.00687457
-1.51175e-05
0.00687944
-1.6936e-05
0.00688427
-1.73243e-05
0.00688833
-1.34145e-05
0.00689052
-4.16033e-06
0.00689171
2.18332e-08
0.00689148
7.39063e-06
0.00689024
1.11399e-05
0.00688745
1.99793e-05
0.00688305
2.51765e-05
0.00687716
3.46915e-05
0.00686804
4.9196e-05
0.00685706
5.86906e-05
0.00684282
7.30529e-05
0.00682395
9.93806e-05
0.00680121
0.000112644
0.00677307
0.000144794
0.00673786
0.000174267
0.00669185
0.000236115
0.00663983
0.000253468
0.00655452
0.000436549
0.00654573
1.77312e-06
0.0058928
0.00488994
-0.0147443
0.00798721
0.0124425
0.00261714
-0.0124041
0.0105046
0.0120957
0.00831416
0.0115418
0.00733513
0.00493144
0.00689541
0.00204203
0.00670743
0.000890484
0.00666718
0.000170489
0.00670916
-0.000229742
0.00679827
-0.000450608
0.00691524
-0.000577135
0.00704827
-0.000638094
0.00718139
-0.000628972
0.00731785
-0.000629593
0.00744091
-0.000557706
0.00756186
-0.000551288
0.00766777
-0.000478168
0.0077652
-0.000444509
0.00785323
-0.000402063
0.00793095
-0.000353029
0.00800327
-0.000331461
0.008065
-0.00027476
0.00812148
-0.000252148
0.00816978
-0.00020695
0.00821166
-0.000176818
0.00824826
-0.000148871
0.00827816
-0.000115721
0.008305
-0.000101623
0.00832609
-7.09497e-05
0.00834436
-5.86515e-05
0.00835865
-3.76858e-05
0.00837029
-2.54744e-05
0.00837943
-1.12279e-05
0.0083862
-2.72535e-06
0.00839143
7.9715e-06
0.0083947
1.51252e-05
0.00839713
2.21865e-05
0.00839794
2.82873e-05
0.00839826
3.41748e-05
0.00839732
3.89754e-05
0.00839623
4.24782e-05
0.00839368
5.04749e-05
0.00839668
-3.22905e-05
0.00840689
-9.07433e-05
0.0084176
-5.19677e-05
0.00842581
-2.79686e-05
0.00843218
-1.63984e-05
0.00843762
-1.36941e-05
0.00844281
-1.20404e-05
0.00844781
-1.2521e-05
0.00845286
-1.21812e-05
0.00845787
-1.34158e-05
0.00846309
-1.39144e-05
0.00846832
-1.54385e-05
0.00847374
-1.55688e-05
0.00847913
-1.68885e-05
0.00848478
-1.76902e-05
0.00849037
-1.8698e-05
0.00849637
-2.02599e-05
0.00850229
-2.10417e-05
0.00850869
-2.33351e-05
0.00851502
-2.36528e-05
0.00852042
-1.88204e-05
0.00852353
-7.26669e-06
0.0085254
-1.85148e-06
0.0085255
7.29253e-06
0.00852432
1.23128e-05
0.00852125
2.30536e-05
0.00851616
3.02632e-05
0.00850925
4.16066e-05
0.00849841
6.00338e-05
0.00848518
7.19194e-05
0.00846801
9.02189e-05
0.00844518
0.000122205
0.00841753
0.000140296
0.00838327
0.000179068
0.00834043
0.000217092
0.00828441
0.000292146
0.00822092
0.000316932
0.00811741
0.000540072
0.00810183
1.72912e-05
0.00739824
0.00559356
-0.0170416
0.00969554
0.0150638
0.00241785
-0.0148647
0.0128733
0.0142862
0.0102534
0.0141617
0.0090683