/*--------------------------------*- C++ -*----------------------------------*\
| =========                 |                                                 |
| \\      /  F ield         | OpenFOAM: The Open Source CFD Toolbox           |
|  \\    /   O peration     | Version:  5.x                                   |
|   \\  /    A nd           | Web:      www.OpenFOAM.org                      |
|    \\/     M anipulation  |                                                 |
\*---------------------------------------------------------------------------*/
FoamFile
{
    version     2.0;
    format      ascii;
    class       surfaceScalarField;
    location    "300";
    object      phi;
}
// * * * * * * * * * * * * * * * * * * * * * * * * * * * * * * * * * * * * * //

dimensions      [0 3 -1 0 0 0 0];

internalField   nonuniform List<scalar> 
21876
(
0.0119713
0.010875
-0.0224106
-0.000761753
0.0127334
-0.00451165
0.0037506
-0.00459033
7.93501e-05
-0.00420497
-0.000385034
-0.00383353
-0.000371295
-0.00357593
-0.000257638
-0.00336615
-0.000209831
-0.00317775
-0.000188465
-0.00301628
-0.000161611
-0.0028894
-0.000126831
-0.00279374
-9.58074e-05
-0.00273201
-6.17699e-05
-0.0027075
-2.47829e-05
-0.00272356
1.58042e-05
-0.00279201
6.82337e-05
-0.00292489
0.000132725
-0.00313011
0.000205011
-0.00341509
0.000284862
-0.00378345
0.000368011
-0.00422532
0.000441976
-0.00468479
0.000459283
-0.00516909
0.000484903
-0.00567141
0.000501511
-0.00617328
0.000502323
-0.0066554
0.000481383
-0.00708954
0.000434695
-0.00745007
0.000359548
-0.0077096
0.000259683
-0.00783605
0.00012571
-0.00779815
-3.81277e-05
-0.00759816
-0.000200557
-0.00723768
-0.0003618
-0.00668814
-0.000549004
-0.00592566
-0.000765269
-0.00491353
-0.00100883
-0.00364883
-0.00126448
-0.00210724
-0.00153919
-0.000103187
-0.00199797
0.00241773
-0.00252521
-0.00431844
0.00673964
0.0261457
0.0118347
-0.0271052
0.0143362
0.0245431
0.00113975
0.0169473
-0.00450068
0.00572016
-0.00514557
0.000260114
-0.0049296
-0.000587132
-0.00467702
-0.000510183
-0.00447175
-0.000415053
-0.00428708
-0.0003731
-0.00412505
-0.000323597
-0.00400005
-0.000251758
-0.0039157
-0.00018014
-0.00388156
-9.58698e-05
-0.00390963
3.18602e-06
-0.00400768
0.000113876
-0.00418223
0.000242805
-0.0044402
0.000390813
-0.00478818
0.000552995
-0.00522919
0.000725991
-0.00576044
0.000899137
-0.00637125
0.00105272
-0.00699204
0.00108028
-0.00762098
0.00111384
-0.00823297
0.00111376
-0.00879484
0.00106435
-0.00928158
0.000968434
-0.00967381
0.000827272
-0.00995771
0.000643783
-0.0101195
0.000421912
-0.0101545
0.000161068
-0.0100593
-0.000132849
-0.00980493
-0.000454631
-0.00935712
-0.000809376
-0.00869071
-0.00121526
-0.0077817
-0.00167473
-0.0065962
-0.00219431
-0.00511109
-0.0027503
-0.00326551
-0.0033851
-0.00103961
-0.00422371
0.00227616
-0.00584139
-0.00793545
0.00589394
0.0338263
0.00855014
-0.0305418
0.0295801
0.0287893
0.0160533
0.0304742
0.00242606
0.0193475
-0.00420754
0.0068938
-0.00561443
0.000819771
-0.00569549
-0.000429151
-0.00557507
-0.0005355
-0.0054292
-0.000519009
-0.0052868
-0.000466051
-0.00517693
-0.000361627
-0.00511142
-0.000245725
-0.00510257
-0.000104767
-0.00516641
6.68962e-05
-0.00531316
0.000260432
-0.00555153
0.000480976
-0.00588883
0.000727943
-0.00632778
0.000991763
-0.00686679
0.00126485
-0.00749863
0.00153078
-0.00821044
0.00176468
-0.00892236
0.0017919
-0.00963005
0.00182203
-0.0103091
0.00179207
-0.0109318
0.0016873
-0.0114793
0.00151522
-0.0119345
0.0012827
-0.0122819
0.000990301
-0.0125034
0.00064334
-0.0125817
0.000238691
-0.0124929
-0.00022207
-0.0122073
-0.000740731
-0.0116976
-0.0013201
-0.0109333
-0.00197929
-0.00988841
-0.00272105
-0.00852821
-0.00355258
-0.00681966
-0.00445817
-0.00468784
-0.00551544
-0.00211523
-0.00679365
0.00139898
-0.00935689
-0.0110921
0.00455688
0.0396173
0.00414636
-0.0352135
0.0411063
0.0273004
0.0337764
0.0378042
0.0185907
0.0345333
0.00390143
0.0215831
-0.00382791
0.0085491
-0.00602225
0.00176517
-0.00648101
-7.67477e-05
-0.00653484
-0.000465171
-0.00647831
-0.000522559
-0.00641433
-0.000425566
-0.0063841
-0.00027593
-0.00640866
-8.01884e-05
-0.00651073
0.000168956
-0.00670339
0.000453087
-0.00699621
0.000773808
-0.00739683
0.00112859
-0.00790657
0.0015015
-0.00852383
0.00188212
-0.00924249
0.00224936
-0.0100514
0.00257352
-0.0108634
0.00260391
-0.0116752
0.00263391
-0.0124645
0.00258136
-0.0132038
0.00242674
-0.013871
0.00218249
-0.0144426
0.00185451
-0.0148956
0.00144342
-0.0152041
0.000952101
-0.0153423
0.000377057
-0.0152806
-0.000283565
-0.0149883
-0.00103291
-0.0144362
-0.00187208
-0.0135891
-0.00282642
-0.0124182
-0.00389209
-0.0108885
-0.0050822
-0.00896513
-0.00638185
-0.00657003
-0.00791047
-0.00370016
-0.00966345
-0.000201971
-0.0128551
-0.0139186
0.00262457
0.0457464
-0.000586433
-0.0410138
0.0498178
0.0232289
0.0492634
0.0383587
0.0395499
0.0442468
0.0226433
0.0384897
0.00636587
0.0248265
-0.00296752
0.0110985
-0.00625986
0.00321559
-0.00724675
0.000521695
-0.00752783
-0.00024148
-0.00761067
-0.000342745
-0.00765829
-0.000228314
-0.00773236
-6.15149e-06
-0.0078771
0.00031367
-0.00811444
0.0006903
-0.00845679
0.00111604
-0.00891556
0.00158721
-0.00949446
0.00208029
-0.0101959
0.00258336
-0.0110175
0.00307089
-0.0119521
0.00350825
-0.012903
0.00355459
-0.0138664
0.00359761
-0.0148176
0.00353201
-0.015725
0.00333427
-0.0165595
0.00301658
-0.01729
0.00258513
-0.0178861
0.00203897
-0.0183151
0.00138096
-0.0185453
0.000606925
-0.0185432
-0.000285978
-0.0182748
-0.00130154
-0.0177071
-0.00244032
-0.0168006
-0.00373294
-0.0155245
-0.00516895
-0.0138452
-0.00676049
-0.0117358
-0.0084908
-0.00912872
-0.0105166
-0.00605734
-0.0127334
-0.00274451
-0.0161682
-0.0164904
-0.000172172
0.0531012
-0.0058349
-0.0478528
0.0579777
0.0183525
0.0614342
0.0349022
0.0591933
0.0464878
0.0476497
0.0500332
0.0289715
0.0435048
0.0104868
0.0295832
-0.00120619
0.0149085
-0.00613455
0.00545004
-0.0078606
0.00148454
-0.00848592
0.000282584
-0.0087735
5.92547e-05
-0.00896286
0.000183223
-0.00917353
0.000524327
-0.00946429
0.000981027
-0.00985989
0.00151162
-0.0103818
0.00210909
-0.0110399
0.00273833
-0.0118439
0.0033873
-0.0127975
0.00402447
-0.013899
0.00460967
-0.0150372
0.00469283
-0.0162049
0.00476527
-0.0173721
0.00469919
-0.0185015
0.00446361
-0.0195558
0.00407096
-0.0204966
0.00352594
-0.0212859
0.00282825
-0.0218847
0.00197993
-0.0222558
0.000978065
-0.0223614
-0.000180373
-0.0221634
-0.00149955
-0.0216247
-0.00297896
-0.020703
-0.00465476
-0.0193664
-0.00650561
-0.0175871
-0.00853963
-0.015355
-0.0107227
-0.0126277
-0.0132435
-0.00950544
-0.0158555
-0.0064949
-0.0191786
-0.0188902
-0.00409541
0.0620548
-0.0119782
-0.0559117
0.067401
0.0130063
0.0722108
0.0300924
0.0750177
0.0436809
0.0716078
0.0534431
0.0587751
0.0563374
0.0383494
0.050009
0.0171087
0.0361492
0.00212134
0.0204374
-0.00525044
0.00885631
-0.0081137
0.00314582
-0.00930111
0.00124667
-0.00986667
0.000748796
-0.0102433
0.000900981
-0.0106274
0.00136502
-0.0110935
0.00197768
-0.0116916
0.00270708
-0.0124443
0.00349099
-0.0133733
0.00431616
-0.0144912
0.00514229
-0.0158042
0.00592271
-0.0171827
0.00607127
-0.018613
0.00619566
-0.0200578
0.0061437
-0.0214726
0.00587842
-0.0228122
0.00541051
-0.0240303
0.00474401
-0.0250814
0.00387916
-0.0259199
0.00281839
-0.0265024
0.00156045
-0.0267864
0.000103529
-0.02673
-0.00155607
-0.0262932
-0.00341596
-0.0254326
-0.00551555
-0.0241176
-0.0078209
-0.0223304
-0.0103265
-0.0200844
-0.0129684
-0.0173708
-0.0159565
-0.014369
-0.0188565
-0.0117015
-0.0218459
-0.0211944
-0.00939731
0.0727206
-0.0192785
-0.0654204
0.0788934
0.00683344
0.0841434
0.0248424
0.0887958
0.0390284
0.0911238
0.0511151
0.0871398
0.0603214
0.0736114
0.0635373
0.0516537
0.0581068
0.0273236
0.0447676
0.00809495
0.0280849
-0.00283369
0.0140745
-0.00765148
0.00606441
-0.00973707
0.00283436
-0.0107335
0.00189735
-0.0113858
0.00201731
-0.0119823
0.0025741
-0.0126797
0.0034045
-0.013542
0.00435326
-0.0146134
0.00538747
-0.0159212
0.00645008
-0.017485
0.00748641
-0.0191559
0.00774228
-0.0209125
0.00795212
-0.0227065
0.00793768
-0.0244848
0.00765671
-0.0261932
0.00711886
-0.0277766
0.00632742
-0.0291816
0.00528416
-0.0303557
0.00399247
-0.0312489
0.00245369
-0.0318139
0.000668491
-0.0320057
-0.00136432
-0.0317831
-0.00363857
-0.0311045
-0.00619437
-0.0299434
-0.00898193
-0.0282956
-0.0119742
-0.0261971
-0.0150666
-0.0236717
-0.0184814
-0.0209581
-0.0215698
-0.0186109
-0.0241928
-0.0234652
-0.0163405
0.0853529
-0.027992
-0.0766396
0.0927093
-0.000522914
0.0986711
0.0188806
0.10377
0.0339295
0.108194
0.0466908
0.110304
0.0582115
0.106339
0.0675027
0.0928148
0.0716308
0.0698637
0.0677186
0.0425559
0.0553928
0.0183687
0.0382615
0.00234453
0.0220886
-0.00578337
0.0109622
-0.00938188
0.00549581
-0.0111368
0.0037722
-0.0121825
0.00361977
-0.0130894
0.0043113
-0.0140919
0.00535575
-0.0153145
0.00660999
-0.0168207
0.00795631
-0.0186551
0.00932074
-0.0206552
0.00974234
-0.0227939
0.0100908
-0.0250117
0.0101554
-0.0272434
0.00988837
-0.0294224
0.00929785
-0.0314829
0.00838804
-0.0333623
0.00716355
-0.0350002
0.00563041
-0.0363402
0.00379369
-0.03733
0.00165825
-0.0379229
-0.000771412
-0.0380783
-0.00348323
-0.0377595
-0.00651328
-0.0369467
-0.00979485
-0.0356489
-0.0132719
-0.0339163
-0.0167989
-0.0317927
-0.0206047
-0.0295199
-0.0238423
-0.0274558
-0.0262567
-0.0257594
-0.0251616
0.100353
-0.0384633
-0.0898818
0.109167
-0.0093367
0.116264
0.0117832
0.121964
0.0282295
0.126788
0.0418672
0.130962
0.0540373
0.133091
0.0653735
0.129694
0.0750277
0.116993
0.0804196
0.0940282
0.0783579
0.0644183
0.0678715
0.0348931
0.0516137
0.0122569
0.0335984
-0.00110508
0.0188577
-0.00751967
0.0101867
-0.0105661
0.00666616
-0.0123021
0.00604719
-0.0136592
0.00671284
-0.0150923
0.00804294
-0.0168038
0.00966786
-0.0189087
0.0114256
-0.021251
0.0120846
-0.0238051
0.0126449
-0.0265039
0.0128543
-0.0292712
0.0126557
-0.032027
0.0120536
-0.0346921
0.0110531
-0.0371914
0.00966281
-0.0394547
0.00789369
-0.0414178
0.00575674
-0.0430235
0.00326392
-0.044224
0.000428973
-0.0449802
-0.00272716
-0.0452638
-0.00622981
-0.0450608
-0.00999786
-0.0443888
-0.0139439
-0.0432975
-0.0178899
-0.04183
-0.0220719
-0.0401606
-0.0255112
-0.0384126
-0.0280045
-0.02807
-0.0361021
0.118191
-0.0511339
-0.105521
0.128783
-0.0199286
0.137318
0.00324838
0.144083
0.0214642
0.149412
0.0365388
0.153858
0.0495906
0.157751
0.0614812
0.160046
0.0727328
0.157665
0.0828004
0.146684
0.0893392
0.124997
0.0895583
0.0941849
0.0824254
0.0599697
0.0678135
0.0297794
0.049048
0.00887967
0.0310864
-0.00263687
0.0181827
-0.00816232
0.0115725
-0.0111009
0.00965134
-0.0131889
0.0101308
-0.0152322
0.0117111
-0.0176265
0.0138199
-0.0203107
0.0147688
-0.0232935
0.0156278
-0.0265092
0.01607
-0.0298742
0.0160206
-0.0332971
0.0154764
-0.0366861
0.0144419
-0.0399536
0.0129302
-0.0430186
0.0109586
-0.0458083
0.00854633
-0.0482599
0.00571544
-0.0503228
0.00249159
-0.0519586
-0.00109149
-0.0531479
-0.00504067
-0.0538783
-0.00926751
-0.0541656
-0.0136564
-0.0540441
-0.0180112
-0.0535373
-0.0225784
-0.0527056
-0.0263428
-0.0514763
-0.0292336
-0.0301903
-0.0493563
0.139413
-0.0665447
-0.124002
0.15221
-0.0327256
0.162498
-0.00704024
0.170648
0.0133144
0.176965
0.0302225
0.181827
0.0447282
0.185803
0.0575048
0.189343
0.0691929
0.191824
0.08032
0.190729
0.0904335
0.182243
0.0980445
0.163122
0.101547
0.133043
0.0978924
0.095816
0.0862746
0.0584292
0.0684732
0.0280712
0.0485407
0.008348
0.0312956
-0.00215995
0.0201592
-0.00743801
0.0154087
-0.0107626
0.0150357
-0.0137303
0.0167876
-0.0168095
0.0178481
-0.0202304
0.0190486
-0.0239819
0.0198214
-0.027989
0.0200276
-0.0321537
0.019641
-0.0363725
0.0186606
-0.0405459
0.0171035
-0.0445825
0.014995
-0.048402
0.0123657
-0.0519372
0.00925037
-0.0551348
0.00568908
-0.057956
0.00172944
-0.0603872
-0.00260955
-0.0624107
-0.00724414
-0.064029
-0.0120382
-0.0652477
-0.0167924
-0.0660674
-0.0217587
-0.0664327
-0.0259773
-0.0661532
-0.0295133
-0.0315949
-0.0647488
0.164668
-0.0853539
-0.145859
0.18021
-0.0482672
0.192669
-0.0194999
0.202506
0.00347734
0.210127
0.0226019
0.215896
0.0389592
0.220211
0.0531892
0.223633
0.0657714
0.226715
0.0772381
0.229255
0.087893
0.229462
0.0978376
0.223904
0.107105
0.20868
0.113117
0.181638
0.113316
0.144193
0.105918
0.101648
0.0910859
0.0615823
0.0713611
0.0306881
0.0510533
0.0113103
0.0347864
0.000979281
0.0253666
-0.00473991
0.0225068
-0.00886184
0.0219699
-0.0128837
0.0230704
-0.0172064
0.024144
-0.0218793
0.0247003
-0.0268338
0.0245953
-0.0319663
0.023793
-0.0371683
0.0223053
-0.0423377
0.0201643
-0.0473849
0.0174127
-0.0522361
0.0141015
-0.056834
0.0102867
-0.0611363
0.00603157
-0.0651346
0.00138851
-0.0687997
-0.00357924
-0.0721155
-0.0087225
-0.0750556
-0.0138525
-0.0776106
-0.0192037
-0.0796376
-0.0239505
-0.0809092
-0.0282418
-0.0314961
-0.0810083
0.194733
-0.108359
-0.171729
0.213678
-0.0672117
0.228837
-0.0346592
0.240765
-0.00845009
0.249975
0.0133919
0.256945
0.0319894
0.262082
0.0480521
0.265787
0.0620657
0.26859
0.0744357
0.271085
0.0853974
0.273462
0.0954613
0.274737
0.10583
0.272149
0.115704
0.261734
0.123731
0.239982
0.12767
0.205832
0.125236
0.161951
0.115243
0.114547
0.0984568
0.0715566
0.077777
0.0393033
0.05762
0.0192738
0.0425362
0.00875745
0.0324863
0.00225136
0.0295764
-0.00319637
0.0295916
-0.00867566
0.0301794
-0.0144601
0.0303797
-0.0205457
0.0298785
-0.0268473
0.0286069
-0.0332647
0.0265815
-0.0397015
0.0238495
-0.0460752
0.0204751
-0.0523197
0.0165312
-0.0583842
0.0120959
-0.0642596
0.00726382
-0.0698962
0.00205712
-0.0752544
-0.00336444
-0.0802775
-0.0088296
-0.0849681
-0.0145132
-0.0891277
-0.0197909
-0.0925596
-0.0248099
-0.029111
-0.0949446
0.230539
-0.136522
-0.202376
0.253682
-0.0903551
0.272188
-0.053165
0.286717
-0.022979
0.297897
0.00221199
0.306328
0.0235579
0.312541
0.0418388
0.316977
0.0576299
0.320034
0.0713789
0.322176
0.0832556
0.323996
0.0936413
0.326007
0.103818
0.327898
0.113813
0.327854
0.123776
0.322459
0.133065
0.307621
0.140074
0.280271
0.142593
0.240092
0.138636
0.190478
0.12739
0.138203
0.109895
0.0915306
0.0892086
0.058802
0.0652147
0.0383469
0.0500315
0.0259187
0.0420197
0.0172997
0.0387985
0.00991095
0.0377683
0.00264568
0.0371439
-0.00482844
0.036081
-0.0125437
0.034297
-0.0204422
0.0317481
-0.0284479
0.028481
-0.0364911
0.0245744
-0.044512
0.0201169
-0.0524993
0.0152511
-0.0603779
0.00993587
-0.0680838
0.00434144
-0.0755351
-0.00137825
-0.0827645
-0.00728371
-0.0895258
-0.0130295
-0.0956733
-0.0186622
-0.0238182
-0.100966
0.273198
-0.171004
-0.238716
0.301499
-0.118656
0.324131
-0.0757974
0.341883
-0.0407305
0.355518
-0.0114233
0.365764
0.0133119
0.373284
0.0343189
0.37865
0.0522633
0.382333
0.0676956
0.384716
0.0808727
0.386207
0.0921506
0.387391
0.102634
0.388872
0.112332
0.390883
0.121766
0.392597
0.13135
0.39163
0.141041
0.384211
0.150012
0.366231
0.156616
0.334843
0.158778
0.29002
0.154718
0.235447
0.143782
0.182026
0.118636
0.136085
0.0959723
0.101177
0.0769272
0.0768208
0.0631549
0.0600972
0.0544921
0.0477637
0.0494775
0.0374451
0.0463997
0.0278042
0.0439381
0.0182344
0.0413181
0.00852643
0.0381892
-0.00134908
0.0344503
-0.0113574
0.0301255
-0.0215046
0.0253987
-0.0317074
0.0201389
-0.0418915
0.0145259
-0.0519628
0.00869336
-0.0620024
0.0027563
-0.071717
-0.0033146
-0.0810044
-0.00937438
-0.0151934
-0.0896287
0.324033
-0.213199
-0.281838
0.358647
-0.15327
0.386347
-0.103497
0.408074
-0.0624573
0.424752
-0.0281019
0.437262
0.000801847
0.446408
0.0251729
0.452901
0.0457699
0.45735
0.063247
0.460237
0.0779858
0.461949
0.0904382
0.462896
0.101687
0.463542
0.111686
0.464485
0.120823
0.466271
0.129564
0.468902
0.138409
0.471209
0.147704
0.470486
0.157339
0.462767
0.166497
0.443835
0.17365
0.410769
0.176848
0.366687
0.162717
0.31602
0.14664
0.26459
0.128357
0.217791
0.109953
0.178928
0.0933553
0.148615
0.0797905
0.12549
0.0695254
0.107424
0.0620034
0.0924443
0.0562984
0.0791071
0.0515265
0.0665131
0.0470446
0.0541699
0.0424687
0.0417717
0.0377974
0.0292684
0.0326422
0.0166726
0.0271221
0.00405336
0.0213127
-0.00874935
0.0155594
-0.0214235
0.00935974
-0.0339409
0.00314328
-0.00308599
-0.0460481
0.348702
-0.259903
-0.301997
0.387007
-0.191576
0.417689
-0.13418
0.441772
-0.0865401
0.460267
-0.0465969
0.474137
-0.0130684
0.484259
0.0150507
0.491415
0.0386143
0.496282
0.0583802
0.499422
0.0748452
0.501295
0.0885657
0.502303
0.100679
0.502765
0.111224
0.503026
0.120562
0.503554
0.129036
0.50493
0.137033
0.507621
0.145013
0.511508
0.153452
0.515354
0.162651
0.516512
0.172491
0.511176
0.182185
0.496271
0.177622
0.47119
0.17172
0.43711
0.162437
0.396814
0.15025
0.353984
0.136185
0.31231
0.121464
0.274584
0.107251
0.242175
0.0944114
0.215113
0.0833606
0.192573
0.0740662
0.173425
0.0661937
0.156595
0.0592982
0.141147
0.0532459
0.126531
0.0472573
0.112375
0.0412785
0.098473
0.0352146
0.0844321
0.0296004
0.0704496
0.0233421
0.056433
0.01716
0.0107754
0.0425714
0.368307
-0.310426
-0.317784
0.409735
-0.233004
0.442941
-0.167386
0.469022
-0.112621
0.489066
-0.0666408
0.504107
-0.0281099
0.515085
0.00407282
0.522833
0.0308658
0.528078
0.0531354
0.53143
0.0714932
0.533402
0.086594
0.534451
0.0996294
0.534922
0.110752
0.535088
0.120396
0.535204
0.12892
0.535597
0.13664
0.536737
0.143873
0.539198
0.150991
0.543414
0.158436
0.549251
0.166654
0.555508
0.175927
0.559042
0.174088
0.557799
0.172963
0.550014
0.170222
0.534861
0.165403
0.512653
0.158392
0.484737
0.149381
0.453148
0.13884
0.420156
0.127403
0.387797
0.11572
0.357522
0.104341
0.330079
0.0936371
0.305602
0.0837744
0.283703
0.075145
0.264004
0.0669567
0.246031
0.0592518
0.229366
0.0518794
0.213317
0.0456489
0.197896
0.0387632
0.182784
0.0322725
0.0255581
0.168001
0.389868
-0.365007
-0.335287
0.434611
-0.277748
0.470491
-0.203265
0.498684
-0.140814
0.520362
-0.0883186
0.536635
-0.0443835
0.548514
-0.00780624
0.556891
0.0224885
0.562545
0.0474816
0.566132
0.0679064
0.568205
0.0845211
0.569261
0.0985739
0.569692
0.110321
0.569814
0.120274
0.569872
0.128862
0.570069
0.136443
0.570631
0.143312
0.571885
0.149737
0.57432
0.156001
0.578523
0.162451
0.584932
0.169518
0.592326
0.166694
0.599947
0.165341
0.606424
0.163746
0.610228
0.161599
0.610036
0.158584
0.604998
0.154419
0.594879
0.148959
0.580058
0.142224
0.561393
0.134385
0.540021
0.125713
0.517142
0.116516
0.493834
0.107082
0.470798
0.0981817
0.448645
0.0891099
0.427684
0.0802131
0.408032
0.0715314
0.389256
0.0644246
0.371561
0.0564587
0.354618
0.0492155
0.0417189
0.338457
0.413416
-0.423911
-0.354512
0.46169
-0.326022
0.500408
-0.241984
0.530838
-0.171245
0.554241
-0.111722
0.571812
-0.0619537
0.584634
-0.0206288
0.593666
0.0134565
0.599741
0.0414057
0.603567
0.0640813
0.605735
0.0823521
0.606777
0.0975328
0.607116
0.109982
0.607108
0.120282
0.60704
0.128931
0.607138
0.136344
0.607581
0.142868
0.608534
0.148784
0.61021
0.154325
0.612953
0.159709
0.617269
0.165202
0.622745
0.161219
0.629697
0.158388
0.637975
0.155468
0.647058
0.152516
0.656137
0.149505
0.66426
0.146296
0.670506
0.142713
0.674135
0.138595
0.674691
0.13383
0.672027
0.128377
0.666286
0.122257
0.657828
0.115541
0.647078
0.108932
0.634591
0.101597
0.620905
0.0938985
0.606515
0.0859222
0.591479
0.0794606
0.576327
0.0716102
0.561062
0.0644809
0.0568154
0.545966
0.439028
-0.487435
-0.375505
0.491069
-0.378062
0.53281
-0.283724
0.565615
-0.20405
0.590844
-0.136951
0.609779
-0.0808893
0.623588
-0.0344376
0.633298
0.00374596
0.639803
0.0349006
0.64386
0.0600241
0.646108
0.0801045
0.647108
0.0965329
0.647314
0.109775
0.647108
0.120489
0.646803
0.129235
0.646662
0.136486
0.646894
0.142636
0.647665
0.148013
0.649113
0.152877
0.65138
0.157441
0.654682
0.1619
0.658493
0.157408
0.663222
0.153659
0.669118
0.149572
0.676323
0.145311
0.684805
0.141023
0.694339
0.136763
0.704518
0.132534
0.714821
0.128292
0.724684
0.123967
0.733578
0.119483
0.741065
0.114769
0.746836
0.10977
0.750721
0.105047
0.752639
0.0996784
0.752634
0.093904
0.750837
0.0877186
0.74731
0.0829883
0.742299
0.0766209
0.735894
0.070886
0.0644306
0.728279
0.466811
-0.555904
-0.398342
0.522882
-0.434133
0.567849
-0.328691
0.603183
-0.239384
0.630347
-0.164116
0.650724
-0.101266
0.665565
-0.0492789
0.675977
-0.00666591
0.682916
0.0279614
0.687194
0.0557453
0.689497
0.0778016
0.690421
0.0956087
0.690452
0.109744
0.689991
0.120949
0.689375
0.129851
0.688881
0.13698
0.688741
0.142776
0.689147
0.147606
0.690254
0.15177
0.692184
0.15551
0.695046
0.159038
0.698155
0.154299
0.701724
0.15009
0.705872
0.145424
0.71074
0.140442
0.716469
0.135294
0.723151
0.130081
0.730803
0.124881
0.739348
0.119747
0.748612
0.114703
0.758346
0.109748
0.768252
0.104863
0.778012
0.10001
0.787361
0.095697
0.795992
0.0910473
0.803662
0.0862346
0.810183
0.0811969
0.815491
0.0776803
0.819422
0.0726897
0.821944
0.0683636
0.0634273
0.822948
0.496896
-0.62968
-0.42312
0.557287
-0.494525
0.605708
-0.377111
0.643742
-0.277419
0.672967
-0.193341
0.694869
-0.123168
0.710795
-0.0652046
0.721932
-0.0178042
0.72931
0.0205843
0.733796
0.051258
0.736127
0.0754709
0.736936
0.094799
0.736741
0.109939
0.735969
0.121721
0.734973
0.130848
0.734043
0.137909
0.733422
0.143397
0.73331
0.147718
0.733875
0.151205
0.735254
0.154132
0.737555
0.156737
0.740091
0.151762
0.742987
0.147194
0.74624
0.142171
0.749858
0.136824
0.753871
0.131281
0.758322
0.12563
0.763254
0.119948
0.7687
0.1143
0.774665
0.108738
0.781116
0.103297
0.787981
0.0979982
0.795149
0.0928417
0.802518
0.0883271
0.809908
0.0836575
0.81714
0.0790029
0.824034
0.0743025
0.830542
0.0711725
0.836419
0.066813
0.841591
0.06319
0.0591226
0.845896
0.529436
-0.709159
-0.449956
0.594469
-0.559558
0.646594
-0.429236
0.68752
-0.318344
0.718946
-0.224767
0.74247
-0.146692
0.759541
-0.0822758
0.771436
-0.0296993
0.779257
0.0127624
0.78394
0.046575
0.78627
0.0731408
0.786923
0.0941458
0.78645
0.110413
0.785303
0.122867
0.783856
0.132295
0.782413
0.139352
0.781223
0.144586
0.78049
0.14845
0.780382
0.151313
0.781034
0.153479
0.78256
0.155211
0.784317
0.150005
0.786423
0.145089
0.788854
0.13974
0.791575
0.134102
0.794549
0.128306
0.797743
0.122436
0.801129
0.116562
0.804688
0.110741
0.808407
0.10502
0.812269
0.0994342
0.816258
0.0940092
0.820347
0.0887531
0.824525
0.084149
0.828731
0.0794516
0.832903
0.0748314
0.836968
0.070237
0.840942
0.0671989
0.844687
0.0630686
0.848178
0.0596994
0.0559614
0.851339
0.564603
-0.794778
-0.478985
0.634632
-0.629586
0.690742
-0.485345
0.734773
-0.362376
0.768556
-0.25855
0.793813
-0.171949
0.8121
-0.100563
0.82479
-0.0423897
0.833068
0.00448392
0.837937
0.0417059
0.840239
0.0708389
0.840694
0.0936901
0.839889
0.111217
0.838306
0.12445
0.836338
0.134263
0.834304
0.141386
0.832463
0.146428
0.831022
0.149891
0.830146
0.152188
0.829969
0.153656
0.830593
0.154588
0.831418
0.149179
0.832561
0.143945
0.834008
0.138293
0.835728
0.132382
0.837682
0.126353
0.839822
0.120296
0.8421
0.114285
0.844465
0.108376
0.846872
0.102612
0.84928
0.0970254
0.851656
0.0916337
0.853967
0.0864414
0.856209
0.081908
0.858344
0.0773164
0.860349
0.0728265
0.862199
0.0683865
0.86393
0.0654691
0.865477
0.0615204
0.866854
0.0583232
0.0547738
0.868041
0.60259
-0.887013
-0.510355
0.678003
-0.704998
0.738405
-0.545747
0.785779
-0.40975
0.822097
-0.294869
0.849212
-0.199064
0.868797
-0.120149
0.88233
-0.0559221
0.891082
-0.00426912
0.896132
0.0366564
0.898381
0.0685892
0.8986
0.0934715
0.897412
0.112404
0.895332
0.126531
0.892774
0.13682
0.890076
0.144085
0.887504
0.148999
0.885275
0.152121
0.883553
0.15391
0.882468
0.154741
0.882116
0.15494
0.881934
0.149362
0.882033
0.143846
0.882405
0.137921
0.883026
0.13176
0.883869
0.125511
0.884893
0.119271
0.88606
0.113119
0.887322
0.107113
0.888636
0.101299
0.889957
0.0957039
0.891246
0.0903452
0.892464
0.0852225
0.893598
0.0807749
0.894607
0.0763062
0.89547
0.0719643
0.896163
0.0676926
0.896715
0.0649182
0.897078
0.0611557
0.897269
0.0581336
0.0547676
0.897274
0.643606
-0.986388
-0.54423
0.72483
-0.786221
0.789865
-0.610781
0.840846
-0.460731
0.879898
-0.33392
0.909013
-0.228179
0.929993
-0.141129
0.944425
-0.070354
0.953677
-0.0135214
0.958906
0.0314265
0.961083
0.0664127
0.961028
0.0935263
0.959409
0.114022
0.956773
0.129167
0.953561
0.140033
0.950127
0.147518
0.946753
0.152372
0.943661
0.155213
0.941022
0.156549
0.938962
0.1568
0.937577
0.156325
0.93634
0.150599
0.935359
0.144827
0.934629
0.138651
0.934132
0.132257
0.933846
0.125797
0.933741
0.119376
0.933784
0.113075
0.933943
0.106955
0.934181
0.10106
0.934465
0.0954203
0.934761
0.0900495
0.935038
0.084946
0.93528
0.080532
0.935456
0.0761314
0.935537
0.0718823
0.935506
0.0677247
0.935377
0.0650465
0.935112
0.0614218
0.934712
0.0585322
0.0553128
0.934168
0.687879
-1.09348
-0.580791
0.775383
-0.873726
0.845426
-0.680824
0.900308
-0.515612
0.942315
-0.375927
0.973593
-0.259456
0.996078
-0.163616
1.01148
-0.0857543
1.02126
-0.0233079
1.02668
0.0260097
1.02877
0.0643246
1.02841
0.0938876
1.02631
0.116118
1.02306
0.132415
1.01913
0.143963
1.0149
0.151754
1.01065
0.156617
1.00663
0.159235
1.00301
0.160172
0.999917
0.159892
0.99745
0.158792
0.99512
0.152928
0.993035
0.146912
0.991193
0.140493
0.989585
0.133866
0.988191
0.127191
0.98699
0.120578
0.985954
0.114111
0.985058
0.107851
0.984273
0.101845
0.983574
0.0961202
0.982933
0.09069
0.982329
0.0855514
0.981749
0.081112
0.981167
0.0767145
0.980559
0.0724892
0.97991
0.0683741
0.979234
0.0657218
0.978494
0.0621622
0.977691
0.0593344
0.0561934
0.976812
0.735657
-1.2089
-0.62023
0.829956
-0.968024
0.90542
-0.756287
0.964526
-0.574719
1.00974
-0.421137
1.04336
-0.293079
1.06748
-0.187735
1.08393
-0.102206
1.0943
-0.0336735
1.09991
0.0203907
1.1019
0.0623345
1.10121
0.0945835
1.09859
0.118734
1.09468
0.136328
1.08997
0.148671
1.08487
0.156857
1.07969
0.161799
1.07467
0.164251
1.07
0.164836
1.06583
0.164067
1.06224
0.162382
1.05878
0.156383
1.05557
0.150122
1.05261
0.143452
1.0499
0.136579
1.04742
0.129669
1.04516
0.122838
1.0431
0.116174
1.04121
0.109739
1.03948
0.10358
1.03788
0.0977236
1.03638
0.0921833
1.03498
0.0869548
1.03366
0.0824322
1.0324
0.0779763
1.03118
0.07371
1.02998
0.0695707
1.02883
0.0668775
1.02768
0.063314
1.02653
0.0604791
0.0573484
1.02538
0.787208
-1.33335
-0.662759
0.888864
-1.06968
0.970204
-0.837626
1.03389
-0.638408
1.08258
-0.469826
1.11876
-0.329251
1.14466
-0.213635
1.16226
-0.119806
1.17326
-0.0446756
1.1791
0.0145461
1.18099
0.0604445
1.17994
0.0956374
1.17676
0.121909
1.17213
0.140957
1.16659
0.154215
1.16056
0.162889
1.15438
0.167981
1.1483
0.170323
1.14254
0.1706
1.13723
0.169377
1.13248
0.167134
1.12787
0.160993
1.12351
0.154477
1.11943
0.147537
1.11562
0.140391
1.11207
0.133215
1.10878
0.126129
1.10573
0.119224
1.10291
0.112566
1.10028
0.106202
1.09785
0.100161
1.09558
0.0944539
1.09345
0.0890766
1.09148
0.084411
1.08962
0.079835
1.08786
0.0754659
1.08619
0.0712401
1.08463
0.0684441
1.08312
0.0648152
1.08169
0.0619128
0.0587335
1.0803
0.842821
-1.46757
-0.708602
0.952452
-1.17931
1.04017
-0.925341
1.10883
-0.707076
1.16131
-0.5223
1.20026
-0.368205
1.22811
-0.24148
1.24697
-0.138668
1.25868
-0.0563829
1.26478
0.0084414
1.26658
0.05865
1.26515
0.0970662
1.26138
0.125678
1.25599
0.146347
1.24955
0.16065
1.24253
0.169909
1.23529
0.175226
1.2281
0.177512
1.22118
0.17752
1.21469
0.17587
1.20873
0.173087
1.20294
0.166789
1.19742
0.159997
1.1922
0.152759
1.18728
0.145305
1.18268
0.13782
1.17838
0.130431
1.17437
0.123234
1.17063
0.116299
1.16717
0.109673
1.16394
0.103386
1.16095
0.0974503
1.15816
0.0918619
1.15558
0.0869908
1.15318
0.0822325
1.15095
0.0776991
1.14886
0.0733266
1.14694
0.0703681
1.14514
0.0666168
1.14346
0.0635912
0.0603104
1.14188
0.902807
-1.61238
-0.758002
1.02109
-1.29759
1.11572
-1.01998
1.18981
-0.781159
1.24641
-0.5789
1.2884
-0.410196
1.31838
-0.271462
1.33864
-0.158922
1.35113
-0.0688804
1.35754
0.00203285
1.35925
0.0569367
1.35744
0.0988814
1.35305
0.13007
1.34685
0.152544
1.33947
0.16803
1.3314
0.177978
1.32303
0.183594
1.31467
0.185877
1.30654
0.185652
1.29881
0.183598
1.29161
0.180285
1.28459
0.173806
1.27788
0.16671
1.2715
0.159137
1.26548
0.15133
1.25982
0.143486
1.25451
0.135739
1.24955
0.128192
1.24493
0.120917
1.24064
0.113966
1.23666
0.10737
1.23297
0.101142
1.22955
0.0952778
1.22641
0.0901373
1.2235
0.0851341
1.22083
0.0803754
1.21836
0.0757974
1.21611
0.0726176
1.21404
0.0686891
1.21214
0.0654871
0.0620551
1.21039
0.9675
-1.76866
-0.811217
1.09517
-1.42526
1.19733
-1.12214
1.27731
-0.861138
1.33841
-0.640002
1.38373
-0.455515
1.41606
-0.303792
1.43786
-0.180721
1.45124
-0.0822663
1.45801
-0.00473701
1.45967
0.0552829
1.45746
0.101087
1.45242
0.135111
1.44538
0.159588
1.437
0.176407
1.42782
0.187154
1.41827
0.193148
1.40866
0.195483
1.39926
0.195057
1.39024
0.192614
1.38175
0.188775
1.37347
0.182085
1.36554
0.174649
1.35798
0.166695
1.35082
0.158485
1.34408
0.150224
1.33777
0.142059
1.33186
0.134097
1.32636
0.126418
1.32125
0.119075
1.31652
0.112102
1.31215
0.105515
1.30812
0.0993104
1.30442
0.0938357
1.30103
0.088525
1.29792
0.0834805
1.29508
0.0786393
1.29252
0.0751801
1.29019
0.0710217
1.28808
0.0675919
0.0639614
1.28617
1.03726
-1.93739
-0.868526
1.17512
-1.56312
1.28547
-1.23248
1.37187
-0.947543
1.43789
-0.706023
1.48686
-0.504483
1.52178
-0.338711
1.5453
-0.204236
1.55969
-0.096658
1.56689
-0.0119383
1.56852
0.0536551
1.56592
0.103679
1.56021
0.14082
1.55228
0.167516
1.54286
0.185832
1.53252
0.197496
1.52171
0.203953
1.5108
0.206393
1.50006
0.205799
1.48969
0.20298
1.47986
0.19861
1.47027
0.191675
1.46106
0.183855
1.45228
0.175471
1.44397
0.166799
1.43613
0.15806
1.42878
0.14941
1.42191
0.140966
1.41552
0.132812
1.40958
0.125008
1.4041
0.117589
1.39904
0.110574
1.39439
0.103962
1.39013
0.0980878
1.38625
0.0924066
1.38271
0.0870162
1.3795
0.0818549
1.37662
0.0780588
1.37402
0.0736187
1.3717
0.069911
0.0660363
1.36963
1.11247
-2.11964
-0.930226
1.26141
-1.71206
1.38066
-1.35173
1.47408
-1.04095
1.54548
-0.777425
1.59846
-0.557456
1.63623
-0.376491
1.66166
-0.229665
1.6772
-0.112193
1.68492
-0.019657
1.68656
0.0520079
1.68359
0.106648
1.6772
0.147213
1.66835
0.176364
1.65783
0.196352
1.64626
0.209064
1.63414
0.216073
1.62186
0.218677
1.60971
0.217947
1.59793
0.214762
1.58668
0.209854
1.57572
0.202634
1.56519
0.194384
1.55515
0.185513
1.54563
0.176316
1.53666
0.167031
1.52825
0.157826
1.52038
0.148828
1.51307
0.140127
1.50629
0.131788
1.50002
0.123852
1.49426
0.11634
1.48897
0.109252
1.48414