/*--------------------------------*- C++ -*----------------------------------*\
| =========                 |                                                 |
| \\      /  F ield         | OpenFOAM: The Open Source CFD Toolbox           |
|  \\    /   O peration     | Version:  5.x                                   |
|   \\  /    A nd           | Web:      www.OpenFOAM.org                      |
|    \\/     M anipulation  |                                                 |
\*---------------------------------------------------------------------------*/
FoamFile
{
    version     2.0;
    format      ascii;
    class       surfaceScalarField;
    location    "300";
    object      phi;
}
// * * * * * * * * * * * * * * * * * * * * * * * * * * * * * * * * * * * * * //

dimensions      [0 3 -1 0 0 0 0];

internalField   nonuniform List<scalar> 
21876
(
0.0203072
-0.00346344
-0.0168475
0.0272417
-0.0069345
0.0278897
-0.000647989
0.0288337
-0.000944048
0.0283398
0.000493947
0.0270157
0.00132406
0.0253436
0.00167207
0.0235479
0.00179574
0.0217206
0.00182731
0.0197075
0.00201306
0.0173024
0.00240504
0.015478
0.00182444
0.0144778
0.0010002
0.0138875
0.000590319
0.0131848
0.000702713
0.0124663
0.000718477
0.011721
0.000745257
0.010962
0.000758998
0.0101961
0.000765909
0.00941975
0.000776324
0.00862543
0.000794314
0.00798726
0.000638124
0.00734018
0.000647102
0.00668191
0.000658269
0.00600673
0.000675361
0.00531141
0.000695421
0.00459518
0.000716566
0.00386095
0.000734484
0.00310112
0.000759804
0.00231204
0.000789579
0.00150718
0.000804708
0.00073796
0.000769338
5.22174e-05
0.000685473
-0.000526907
0.000578855
-0.00100253
0.000475542
-0.0014663
0.000463495
-0.00211649
0.000650283
-0.00291795
0.000801393
-0.00367698
0.000758463
-0.00273712
-0.00093962
-0.00688075
0.00414359
0.0245328
-0.00838307
-0.0196132
0.0303283
-0.01273
0.032372
-0.00269169
0.0339258
-0.00249786
0.0346783
-0.00025849
0.0347791
0.00122323
0.0343012
0.00214997
0.0333005
0.00279641
0.0318844
0.00324338
0.0300484
0.00384907
0.0276326
0.00482089
0.0252418
0.00421525
0.0232677
0.00297421
0.021674
0.00218402
0.0202186
0.00215814
0.0189302
0.00200688
0.0177379
0.0019376
0.016595
0.0019019
0.0154782
0.00188271
0.0143709
0.00188357
0.0132535
0.0019117
0.0123613
0.00153025
0.0114801
0.00152834
0.0105962
0.00154218
0.00969785
0.00157391
0.00877538
0.0016182
0.00781821
0.00167459
0.00681566
0.0017382
0.00576913
0.00180719
0.00468895
0.00187029
0.00358795
0.0019051
0.00248577
0.00187073
0.00142353
0.00174674
0.000468483
0.00153302
-0.000363955
0.00130739
-0.0011786
0.0012777
-0.00204743
0.00151921
-0.00271979
0.00147396
-0.00292026
0.000958761
-0.0021382
-0.00172245
-0.0113954
0.00237615
0.0288175
-0.013974
-0.0232266
0.0340847
-0.0179972
0.0375245
-0.00613153
0.0396282
-0.00460154
0.0407631
-0.00139339
0.0410687
0.000917646
0.0407783
0.00244032
0.0400413
0.00353342
0.0389311
0.00435364
0.0374278
0.00535233
0.035389
0.00685967
0.0332025
0.00640179
0.0312024
0.00497427
0.0293767
0.00400972
0.027567
0.00396789
0.0258651
0.00370872
0.0242659
0.00353686
0.0227405
0.00342722
0.0212662
0.00335705
0.0198206
0.00332912
0.0183732
0.00335911
0.0172215
0.0026819
0.0160928
0.00265705
0.0149695
0.00266546
0.0138362
0.00270732
0.0126796
0.00277478
0.0114862
0.00286781
0.0102443
0.00297983
0.00894847
0.00310274
0.00760003
0.0032188
0.00620882
0.00329641
0.00479526
0.00328461
0.00340055
0.00314164
0.00208851
0.00284525
0.000904645
0.00249141
-0.000177927
0.00236033
-0.00118156
0.00252286
-0.00191485
0.00220713
-0.00216843
0.00121223
-0.00191761
-0.0019729
-0.0136741
0.000361197
0.0335736
-0.0201405
-0.0274071
0.0388252
-0.0232488
0.0430149
-0.0103213
0.0457046
-0.00729123
0.0473405
-0.00302928
0.0480485
0.000209657
0.048
0.00248875
0.0473757
0.00415773
0.0463224
0.00540695
0.0448881
0.00678667
0.0429885
0.00875919
0.0409205
0.00846986
0.0390198
0.00687493
0.0372685
0.00576099
0.0354669
0.00576949
0.0336518
0.00552386
0.0318533
0.0053354
0.0300709
0.00520958
0.0283033
0.00512463
0.0265445
0.00508794
0.0247721
0.00513153
0.0233538
0.00410018
0.0219617
0.00404919
0.0205771
0.00405007
0.0191832
0.00410137
0.0177647
0.0041934
0.0163062
0.00432673
0.0147936
0.00449284
0.0132168
0.00467979
0.0115711
0.00486479
0.00985944
0.00500805
0.0080962
0.00504767
0.0063164
0.00492111
0.00457843
0.00458289
0.00295635
0.00411325
0.00151191
0.00380461
0.000264024
0.00377078
-0.000709558
0.00318076
-0.00120042
0.00170305
-0.00154816
-0.00162521
-0.013915
-0.00130736
0.0388236
-0.0268815
-0.0320826
0.044318
-0.0287433
0.0491337
-0.015137
0.0526319
-0.0107895
0.0549881
-0.0053854
0.0563089
-0.00111115
0.0567022
0.00209546
0.0563262
0.00453365
0.0553555
0.00637763
0.0538928
0.00824945
0.0519318
0.0107201
0.049743
0.0106587
0.0477049
0.00891303
0.0458696
0.00759623
0.0440548
0.0075843
0.0422233
0.00735535
0.0403832
0.00717555
0.0385159
0.00707684
0.0366092
0.0070313
0.0346597
0.00703745
0.0326547
0.00713658
0.0310207
0.0057341
0.0293986
0.00567129
0.0277732
0.0056755
0.0261288
0.00574576
0.0244505
0.0058717
0.022722
0.00605523
0.0209276
0.006287
0.0190544
0.00655288
0.0170926
0.00682653
0.0150383
0.00706245
0.0128962
0.00718994
0.0106891
0.00712825
0.00846151
0.00681063
0.00629672
0.00627811
0.0043419
0.00575949
0.00268433
0.00542833
0.00129575
0.00456924
0.000360846
0.00263798
-0.000630356
-0.000633822
-0.0122939
-0.00225135
0.0446327
-0.0342651
-0.0372491
0.0505842
-0.0346948
0.0560186
-0.0205713
0.06034
-0.015111
0.0634984
-0.00854373
0.0655648
-0.0031776
0.0665941
0.00106616
0.0666974
0.0044304
0.0660254
0.00704955
0.0647014
0.00957351
0.0627651
0.0126564
0.0604465
0.0129773
0.058153
0.0112065
0.0560451
0.00970412
0.0540297
0.00959973
0.0520488
0.00933621
0.0501026
0.00912173
0.0481621
0.0090174
0.0461891
0.00900424
0.0441583
0.00906826
0.0420459
0.00924897
0.0402957
0.00748439
0.0385349
0.00743209
0.0367499
0.00746056
0.0349258
0.00756989
0.0330481
0.00774958
0.0311001
0.00800332
0.0290654
0.00832181
0.0269285
0.00868996
0.0246755
0.00907959
0.022296
0.00944208
0.019784
0.00970189
0.0171468
0.00976536
0.0144068
0.00955052
0.0116318
0.00905306
0.00901889
0.00837233
0.00674105
0.00770613
0.00473857
0.0065717
0.00310168
0.00427487
0.00139802
0.00106991
-0.00912484
-0.00177103
0.0510837
-0.0424304
-0.0429184
0.0577035
-0.0413146
0.0638235
-0.0266913
0.0689673
-0.0202547
0.0729857
-0.0125622
0.0758896
-0.00608142
0.077691
-0.000735246
0.0784568
0.00366458
0.078295
0.00721132
0.077329
0.0105395
0.0756204
0.014365
0.0733369
0.0152607
0.0708655
0.0136779
0.0684561
0.0121136
0.066135
0.0119208
0.0638675
0.0116036
0.061665
0.0113242
0.0595192
0.0111632
0.0573944
0.011129
0.0552539
0.0112088
0.0530607
0.0114421
0.0512498
0.00929533
0.0494312
0.00925071
0.0475841
0.00930763
0.0456883
0.00946572
0.0437247
0.00971328
0.041673
0.010055
0.0395129
0.0104819
0.0372238
0.010979
0.0347859
0.0115175
0.03218
0.0120481
0.0293882
0.0124938
0.0263997
0.0127538
0.0232112
0.012739
0.0198539
0.0124104
0.0165181
0.0117082
0.013432
0.0107922
0.0105844
0.00941922
0.00797795
0.00688136
0.00540094
0.00364698
-0.00470661
0.00098277
0.0582734
-0.0515872
-0.0491165
0.0657848
-0.0488261
0.0727167
-0.0336231
0.0787128
-0.0262508
0.0836238
-0.0174733
0.0874222
-0.00987981
0.0900969
-0.00340995
0.09167
0.00209148
0.0922055
0.0066758
0.0918114
0.0109337
0.090557
0.0156194
0.0885427
0.017275
0.0860908
0.0161298
0.083494
0.0147104
0.0808953
0.0145195
0.0783127
0.0141862
0.0757757
0.0138612
0.0733073
0.0136317
0.0708967
0.0135396
0.0685203
0.0135852
0.066147
0.0138154
0.0642241
0.0112182
0.0623325
0.0111424
0.0604449
0.0111952
0.0585343
0.0113764
0.056575
0.0116727
0.0545402
0.0120898
0.0524023
0.0126198
0.0501322
0.0132491
0.047699
0.0139507
0.0450698
0.0146774
0.0422088
0.0153548
0.039082
0.0158806
0.0356557
0.0161653
0.0319128
0.0161533
0.0279832
0.0156378
0.0240723
0.0147031
0.0202295
0.013262
0.0164418
0.0106691
0.012699
0.00738977
0.000789041
0.00720342
0.0663199
-0.0620123
-0.0558948
0.0749748
-0.057481
0.0828968
-0.0415451
0.089827
-0.033181
0.0956675
-0.0233137
0.100395
-0.0146069
0.103999
-0.00701415
0.106475
-0.000385061
0.107855
0.00529646
0.108221
0.0105668
0.10764
0.0162008
0.106145
0.0187701
0.103969
0.018306
0.101398
0.0172812
0.098661
0.0172566
0.0958441
0.017003
0.0930041
0.0167013
0.0901927
0.0164431
0.0874306
0.0163017
0.0847176
0.0162981
0.0820425
0.0164906
0.0799019
0.0133588
0.0778409
0.0132034
0.0758353
0.0132009
0.0738598
0.0133519
0.0718892
0.0136433
0.0698967
0.0140823
0.0678529
0.0146637
0.0657246
0.0153774
0.0634731
0.0162021
0.0610526
0.0170979
0.058408
0.0179995
0.055477
0.0188116
0.0521892
0.0194531
0.0484721
0.0198704
0.0443623
0.0197476
0.0399603
0.0191051
0.0352949
0.0179272
0.0303599
0.0156041
0.0252327
0.012517
0.0072784
0.0187434
0.0753695
-0.0740483
-0.0633335
0.0854629
-0.0675744
0.0946034
-0.0506857
0.102608
-0.0411857
0.109449
-0.0301544
0.11514
-0.0202981
0.119698
-0.0115716
0.123128
-0.00381583
0.125438
0.00298669
0.126702
0.00930282
0.126974
0.0159285
0.126229
0.0195156
0.1246
0.0199345
0.12233
0.0195519
0.119681
0.0199055
0.116801
0.0198823
0.113785
0.0197176
0.110712
0.0195167
0.107633
0.0193802
0.104576
0.0193556
0.101551
0.0195152
0.0991225
0.0157874
0.0968048
0.0155211
0.0945831
0.0154227
0.0924404
0.0154945
0.0903605
0.0157233
0.0883256
0.0161172
0.0863157
0.0166736
0.0843063
0.0173868
0.0822656
0.0182428
0.0801508
0.0192127
0.0779035
0.0202468
0.0754479
0.0212672
0.0726866
0.0222145
0.0694998
0.0230572
0.0658287
0.0234188
0.0616337
0.0233
0.0568259
0.0227351
0.051334
0.021096
0.0451728
0.0186782
0.0146061
0.0378451
0.0856061
-0.0881099
-0.0715445
0.0974898
-0.0794581
0.108132
-0.0613281
0.117414
-0.0504673
0.125379
-0.0381192
0.132098
-0.0270176
0.137635
-0.0171082
0.142035
-0.00821609
0.145304
-0.00028242
0.14753
0.00707694
0.148766
0.0146924
0.148942
0.0193401
0.148101
0.0207748
0.146418
0.0212348
0.144141
0.0221833
0.141445
0.0225778
0.13846
0.0227024
0.135293
0.022684
0.132026
0.022647
0.128714
0.0226677
0.125393
0.022836
0.122683
0.0184973
0.120091
0.018113
0.117613
0.017901
0.115241
0.0178661
0.11297
0.0179946
0.110793
0.0182946
0.108702
0.018764
0.10669
0.0193994
0.104741
0.0201917
0.102832
0.0211214
0.100925
0.0221539
0.0989595
0.0232325
0.0968466
0.0243274
0.0944582
0.0254456
0.0916827
0.0261943
0.0883809
0.0266019
0.0843399
0.0267761
0.0793658
0.0260702
0.0733158
0.0247281
0.0220066
0.0659154
0.0972622
-0.104695
-0.0806774
0.111358
-0.0935543
0.123851
-0.0738208
0.134679
-0.0612948
0.143955
-0.0473961
0.151817
-0.0348792
0.158387
-0.0236779
0.163765
-0.0135944
0.167994
-0.00451184
0.171185
0.00388647
0.173414
0.0124636
0.174593
0.0181612
0.174701
0.0206667
0.173846
0.0220899
0.172223
0.0238059
0.169998
0.0248031
0.167313
0.0253872
0.164294
0.0257034
0.161047
0.025894
0.157654
0.0260599
0.154181
0.0263096
0.151272
0.0214061
0.148465
0.0209197
0.145769
0.0205973
0.143186
0.0204488
0.140719
0.0204618
0.138369
0.0206443
0.13614
0.0209937
0.134032
0.0215067
0.132048
0.0221763
0.130182
0.0229875
0.12842
0.0239156
0.126733
0.0249191
0.125066
0.0259946
0.123324
0.0271879
0.121407
0.0281108
0.119163
0.0288461
0.116348
0.0295908
0.112699
0.02972
0.107968
0.0294584
0.0282099
0.101765
0.110631
-0.1244
-0.0909254
0.127449
-0.110372
0.142217
-0.0885896
0.154933
-0.0740107
0.165781
-0.0582439
0.174963
-0.0440614
0.182671
-0.0313857
0.18907
-0.0199933
0.194259
-0.00970138
0.198387
-0.000241032
0.201575
0.00927527
0.203751
0.0159855
0.204863
0.0195543
0.204976
0.0219774
0.204226
0.024556
0.202736
0.0262933
0.200634
0.0274883
0.198047
0.0282912
0.195089
0.028852
0.191862
0.0292869
0.188454
0.0297173
0.185491
0.0243689
0.182592
0.0238184
0.179782
0.0234078
0.177075
0.0231552
0.174484
0.023053
0.172017
0.023112
0.16968
0.0233299
0.167484
0.0237034
0.165433
0.0242266
0.163534
0.0248868
0.161785
0.0256646
0.160177
0.0265272
0.158682
0.0274896
0.157244
0.028626
0.155806
0.0295485
0.154259
0.0303931
0.152418
0.0314319
0.150055
0.0320826
0.146963
0.0325508
0.0325267
0.142646
0.126079
-0.147945
-0.102534
0.146234
-0.130528
0.163798
-0.106154
0.178829
-0.0890416
0.191585
-0.0709994
0.202339
-0.0548152
0.211354
-0.0404012
0.218869
-0.0275076
0.225048
-0.0158805
0.230098
-0.0052908
0.23419
0.00518237
0.237299
0.012877
0.23938
0.0174733
0.240485
0.0208724
0.24071
0.0243308
0.240133
0.0268709
0.238849
0.0287722
0.236962
0.0301779
0.234579
0.0312347
0.231804
0.0320623
0.228736
0.0327852
0.225915
0.0271899
0.223098
0.0266359
0.220326
0.0261792
0.217632
0.025849
0.215039
0.0256462
0.212564
0.0255874
0.21022
0.0256741
0.208018
0.0259055
0.205967
0.0262774
0.204074
0.0267799
0.202341
0.0273975
0.200764
0.0281038
0.199327
0.0289271
0.19799
0.0299622
0.196729
0.0308096
0.195477
0.0316459
0.194117
0.0327916
0.192511
0.0336884
0.19055
0.0345119
0.0352257
0.187851
0.144064
-0.176199
-0.115809
0.168303
-0.154767
0.189296
-0.127147
0.207167
-0.106914
0.222256
-0.0860884
0.234913
-0.0674723
0.245481
-0.0509684
0.254272
-0.0362991
0.261529
-0.0231374
0.267523
-0.0112848
0.272484
0.000221781
0.27645
0.00891087
0.279415
0.0145084
0.281448
0.018839
0.282635
0.0231433
0.283026
0.0264799
0.282687
0.029112
0.281691
0.0311734
0.280123
0.0328026
0.278071
0.0341144
0.27563
0.0352264
0.273174
0.0296457
0.270646
0.0291645
0.268104
0.0287211
0.265595
0.0283577
0.263156
0.0280854
0.260815
0.0279288
0.258593
0.027896
0.256507
0.0279915
0.254568
0.0282158
0.252785
0.0285634
0.251159
0.0290236
0.249687
0.0295754
0.248355
0.0302588
0.247131
0.0311864
0.246001
0.0319398
0.24492
0.0327263
0.243813
0.0338988
0.24261
0.0348915
0.241268
0.0358542
0.0369056
0.239588
0.16515
-0.210218
-0.131132
0.194378
-0.183995
0.219571
-0.152339
0.240929
-0.128272
0.258881
-0.10404
0.273864
-0.0824561
0.28631
-0.0634136
0.296615
-0.0466046
0.305106
-0.0316277
0.312123
-0.0183018
0.317965
-0.00562077
0.322742
0.00413392
0.326506
0.0107447
0.329366
0.0159785
0.331426
0.0210835
0.332735
0.0251714
0.333345
0.0285013
0.333312
0.0312062
0.332696
0.0334189
0.331562
0.0352482
0.329987
0.0368017
0.328106
0.031527
0.326075
0.0311954
0.323965
0.0308311
0.321834
0.0304889
0.319728
0.0301911
0.317686
0.0299711
0.315737
0.0298447
0.313906
0.029823
0.312209
0.0299129
0.310657
0.0301148
0.309257
0.0304241
0.308007
0.0308255
0.306895
0.0313702
0.305896
0.0321861
0.305002
0.0328337
0.304183
0.033545
0.303382
0.0346998
0.302567
0.0357069
0.301717
0.0367034
0.0378785
0.300744
0.190009
-0.251277
-0.14895
0.22533
-0.219315
0.255665
-0.182674
0.281301
-0.153908
0.30277
-0.12551
0.320614
-0.1003
0.33536
-0.07816
0.347504
-0.0587482
0.357463
-0.0415863
0.365656
-0.0264951
0.372458
-0.0124225
0.378054
-0.0014621
0.382568
0.0062306
0.386164
0.012382
0.388984
0.0182641
0.3911
0.0230553
0.392576
0.027025
0.393465
0.030317
0.393816
0.033068
0.393678
0.0353862
0.393107
0.0373728
0.391947
0.0326873
0.390578
0.0325638
0.389075
0.0323342
0.3875
0.032064
0.385905
0.0317858
0.384335
0.0315417
0.382824
0.0313553
0.381403
0.0312446
0.380092
0.0312231
0.37891
0.0312974
0.377865
0.0314686
0.376964
0.031727
0.3762
0.0321339
0.375556
0.0328304
0.375033
0.0333566
0.374613
0.0339649
0.374254
0.0350589
0.373943
0.036018
0.37367
0.0369764
0.0381626
0.373386
0.199209
-0.296261
-0.154225
0.23794
-0.258047
0.271119
-0.215853
0.299097
-0.181885
0.322466
-0.148879
0.341824
-0.119658
0.357758
-0.0940935
0.370815
-0.071805
0.381469
-0.0522409
0.390182
-0.035208
0.397365
-0.0196057
0.403263
-0.00735959
0.408052
0.00144114
0.41194
0.00849434
0.415099
0.0151051
0.417634
0.0205207
0.419628
0.0250309
0.421145
0.0287997
0.422236
0.0319769
0.422944
0.0346781
0.423311
0.0370062
0.422923
0.0330746
0.422321
0.0331667
0.421567
0.0330878
0.420719
0.0329119
0.419825
0.0326798
0.418926
0.0324407
0.418057
0.0322245
0.417246
0.0320555
0.416516
0.0319528
0.415886
0.0319281
0.415367
0.0319871
0.41497
0.0321245
0.414695
0.032409
0.414533
0.0329917
0.414494
0.0333957
0.41457
0.0338889
0.414736
0.0348933
0.41499
0.0357639
0.41533
0.0366362
0.0377647
0.415728
0.206028
-0.344597
-0.157692
0.247669
-0.299687
0.283275
-0.25146
0.313252
-0.211862
0.338244
-0.17387
0.358895
-0.14031
0.37584
-0.111038
0.389669
-0.0856345
0.400905
-0.0634762
0.410039
-0.0443424
0.417514
-0.0270807
0.42362
-0.0134656
0.428578
-0.00351636
0.432623
0.00444881
0.435957
0.0117712
0.438712
0.0177662
0.440993
0.0227495
0.442882
0.0269109
0.444439
0.0304194
0.445714
0.033404
0.446744
0.0359758
0.446936
0.0328824
0.44693
0.0331731
0.446781
0.033237
0.446537
0.033155
0.446242
0.0329748
0.445932
0.0327511
0.445637
0.0325194
0.445383
0.0323091
0.445192
0.0321437
0.445081
0.0320393
0.445063
0.032005
0.445149
0.0320389
0.445343
0.0322148
0.445644
0.0326913
0.446061
0.0329784
0.446595
0.0333548
0.447232
0.0342565
0.447976
0.0350194
0.448831
0.0357817
0.0368151
0.44978
0.214425
-0.396598
-0.162424
0.259243
-0.344505
0.297517
-0.289734
0.329706
-0.244051
0.356505
-0.200669
0.378612
-0.162417
0.396707
-0.129134
0.411431
-0.100358
0.423348
-0.0753938
0.432988
-0.0539823
0.440823
-0.0349152
0.447182
-0.0198254
0.452328
-0.00866173
0.456521
0.000255147
0.45999
0.00830227
0.462892
0.0148643
0.465355
0.0202864
0.467479
0.0247876
0.469338
0.0285599
0.470991
0.0317506
0.472484
0.0344833
0.47309
0.0322762
0.473522
0.0327416
0.473828
0.0329306
0.474052
0.0329307
0.474231
0.0327957
0.474397
0.0325854
0.474577
0.0323399
0.474793
0.0320929
0.475065
0.0318718
0.475408
0.0316959
0.475835
0.0315776
0.476357
0.0315171
0.47698
0.0315924
0.477704
0.031967
0.478541
0.0321418
0.479492
0.0324032
0.480552
0.0331968
0.481726
0.0338451
0.483019
0.0344886
0.0354105
0.484424
0.224278
-0.452595
-0.168281
0.272556
-0.392782
0.313748
-0.330926
0.348366
-0.278668
0.37716
-0.229464
0.400883
-0.18614
0.420268
-0.148519
0.436003
-0.116093
0.448703
-0.0880935
0.458932
-0.0642116
0.467196
-0.0431794
0.473864
-0.0264936
0.479233
-0.0140301
0.48359
-0.00410228
0.487187
0.00470507
0.490207
0.0118451
0.492797
0.0176957
0.495077
0.0225079
0.497138
0.0264995
0.499049
0.029839
0.500866
0.0326661
0.501768
0.0313744
0.502521
0.0319891
0.503169
0.0322818
0.503754
0.0323463
0.504307
0.0322428
0.504856
0.0320356
0.505427
0.0317693
0.506038
0.0314815
0.506707
0.0312028
0.507448
0.0309556
0.508271
0.0307546
0.509186
0.030602
0.5102
0.0305787
0.511315
0.0308517
0.51254
0.0309164
0.513879
0.031064
0.51533
0.0317467
0.516896
0.0322782
0.518584
0.0328007
0.0336049
0.52039
0.23553
-0.512941
-0.175184
0.287571
-0.444823
0.331947
-0.375303
0.369222
-0.315944
0.400207
-0.260449
0.425713
-0.211645
0.446528
-0.169335
0.463395
-0.132959
0.476977
-0.101676
0.48788
-0.0751148
0.496645
-0.0519446
0.503679
-0.0335273
0.509312
-0.0196633
0.51386
-0.0086502
0.517596
0.000968784
0.520727
0.0087144
0.523422
0.0150012
0.525816
0.020114
0.528016
0.0242987
0.530108
0.0277471
0.532157
0.0306178
0.533269
0.0302623
0.534254
0.0310034
0.535158
0.0313781
0.536017
0.0314874
0.536862
0.0313978
0.537719
0.0311788
0.538609
0.0308793
0.53955
0.0305404
0.540557
0.0301961
0.541641
0.0298712
0.542813
0.0295826
0.54408
0.0293345
0.545449
0.0292096
0.546924
0.0293773
0.54851
0.0293307
0.55021
0.0293634
0.552025
0.0299316
0.553959
0.0303444
0.556015
0.0307449
0.0314287
0.558191
0.248167
-0.578015
-0.183093
0.304298
-0.500954
0.352143
-0.423148
0.39232
-0.35612
0.425703
-0.293832
0.453166
-0.239108
0.47556
-0.191728
0.493681
-0.151081
0.508249
-0.116243
0.519912
-0.0867778
0.52925
-0.0612827
0.536708
-0.0409855
0.542652
-0.0256068
0.547422
-0.0134208
0.551318
-0.00292692
0.554567
0.0054652
0.557359
0.0122094
0.559847
0.0176263
0.562153
0.0219922
0.564376
0.025524
0.566593
0.0284009
0.567855
0.0290008
0.569009
0.0298491
0.570101
0.0302863
0.571167
0.0304214
0.572237
0.0303277
0.573335
0.0300801
0.574483
0.0297321
0.575695
0.0293284
0.576984
0.0289063
0.578362
0.0284932
0.579837
0.028108
0.581415
0.0277566
0.583101
0.0275232
0.5849
0.0275784
0.586815
0.0274158
0.588849
0.02733
0.591002
0.0277782
0.593277
0.028069
0.595677
0.0283455
0.0289057
0.5982
0.262206
-0.648226
-0.191994
0.322783
-0.561531
0.374404
-0.474769
0.417744
-0.399461
0.453748
-0.329836
0.483355
-0.268715
0.507484
-0.215857
0.526991
-0.170588
0.542652
-0.131904
0.555164
-0.0992901
0.565149
-0.0712678
0.573092
-0.0489284
0.579393
-0.0319079
0.584422
-0.0184497
0.588502
-0.00700688
0.591884
0.00208363
0.594776
0.0093171
0.597349
0.0150529
0.599742
0.0195993
0.602066
0.0232003
0.604409
0.0260574
0.605777
0.027633
0.607052
0.028574
0.608281
0.0290575
0.609501
0.0292012
0.610743
0.0290864
0.61203
0.0287933
0.613381
0.0283807
0.614812
0.0278972
0.616335
0.0273832
0.61796
0.0268689
0.619692
0.0263754
0.621539
0.0259102
0.623503
0.0255587
0.62559
0.0254918
0.627799
0.0252062
0.630133
0.0249957
0.632595
0.0253166
0.635184
0.0254801
0.637901
0.0256289
0.0260612
0.640745
0.277689
-0.724021
-0.201895
0.343098
-0.626939
0.398828
-0.530498
0.445616
-0.44625
0.48448
-0.3687
0.516433
-0.300669
0.542464
-0.241887
0.563495
-0.191619
0.580364
-0.148773
0.59382
-0.112746
0.60453
-0.0819776
0.61302
-0.057419
0.619729
-0.0386161
0.625053
-0.0237746
0.629345
-0.0112983
0.632877
-0.001448
0.635878
0.0063161
0.638536
0.0123947
0.641005
0.0171303
0.643409
0.0207957
0.64585
0.0236164
0.647293
0.0261901
0.648653
0.0272138
0.64998
0.0277308
0.651312
0.0278689
0.652681
0.0277174
0.654112
0.0273632
0.655622
0.0268702
0.657228
0.0262915
0.65894
0.0256711
0.660767
0.0250418
0.662715
0.0244269
0.66479
0.0238361
0.666993
0.0233552
0.66933
0.0231552
0.671798
0.0227378
0.674399
0.0223947
0.677136
0.0225796
0.680007
0.022609
0.683012
0.0226246
0.0229233
0.686149
0.294679
-0.805884
-0.212816
0.365339
-0.697599
0.42554
-0.5907
0.476085
-0.496794
0.518069
-0.410684
0.552586
-0.335186
0.5807
-0.270001
0.603406
-0.214325
0.621606
-0.166973
0.636106
-0.127245
0.647622
-0.093494
0.656727
-0.0665232
0.663894
-0.0457834
0.669554
-0.0294353
0.674087
-0.0158305
0.677788
-0.00514952
0.680909
0.00319554
0.683654
0.00964929
0.686194
0.0145908
0.688665
0.0183238
0.691182
0.0210996
0.692676
0.0246964
0.694093
0.0257968
0.695486
0.0263382
0.696895
0.0264589
0.698355
0.0262575
0.699891
0.0258279
0.701521
0.0252399
0.703261
0.0245513
0.705122
0.0238099
0.707112
0.0230515
0.709237
0.022302
0.711501
0.0215729
0.713905
0.0209507
0.716455
0.0206057
0.719146
0.0200464
0.721979
0.0195618
0.724958
0.0196009
0.728078
0.0194884
0.731339
0.0193642
0.0195227
0.734739
0.313251
-0.894343
-0.224792
0.389622
-0.77397
0.45469
-0.655768
0.509328
-0.551432
0.554716
-0.456073
0.592035
-0.372504
0.622429
-0.300396
0.646972
-0.238868
0.666636
-0.186638
0.682288
-0.142897
0.694699
-0.105905
0.704487
-0.0763112
0.712168
-0.0534644
0.718206
-0.0354736
0.723009
-0.020634
0.726902
-0.00904189
0.730154
-5.66683e-05
0.732991
0.00681252
0.735597
0.0119844
0.738125
0.0157957
0.7407
0.018525
0.742225
0.0231719
0.743674
0.0243473
0.745105
0.0249072
0.746562
0.0250017
0.748081
0.0247393
0.749687
0.0242218
0.751401
0.0235255
0.753239
0.0227132
0.755212
0.021837
0.757328
0.0209358
0.759592
0.0200383
0.762006
0.0191581
0.764575
0.0183824
0.7673
0.0178802
0.770178
0.0171685
0.773207
0.0165326
0.776392
0.0164157
0.779728
0.0161525
0.783212
0.0158809
0.0158916
0.786843
0.333501
-0.989976
-0.237868
0.416084
-0.856553
0.486451
-0.726135
0.545549
-0.610529
0.594652
-0.505176
0.635031
-0.412883
0.667921
-0.333286
0.694477
-0.265425
0.71575
-0.20791
0.732672
-0.159819
0.746072
-0.119304
0.756619
-0.0868582
0.764872
-0.0617177
0.771332
-0.0419338
0.776439
-0.0257411
0.780544
-0.0131468
0.783941
-0.00345332
0.786873
0.00388005
0.789544
0.00931427
0.792118
0.0132216
0.794733
0.0159099
0.796269
0.0216352
0.797729
0.0228877
0.799173
0.0234635
0.800649
0.0235256
0.802195
0.0231936
0.803839
0.0225776
0.805603
0.021761
0.807504
0.0208126
0.809552
0.0197884
0.811757
0.0187315
0.814122
0.0176731
0.816651
0.0166293
0.819345
0.0156878
0.822209
0.0150161
0.825236
0.0141413
0.828425
0.0133441
0.83178
0.0130605
0.835295
0.0126374
0.838966
0.0122103
0.012065
0.842792
0.355537
-1.09341
-0.252099
0.444881
-0.945897
0.52102
-0.802274
0.58498
-0.674489
0.638137
-0.558332
0.68186
-0.456606
0.717481
-0.368907
0.746245
-0.294189
0.769285
-0.23095
0.787605
-0.178138
0.802096
-0.133796
0.813484
-0.0982457
0.822372
-0.0706062
0.829302
-0.048863
0.834746
-0.0311859
0.839086
-0.0174868
0.84264
-0.00700705
0.845672
0.000848132
0.848402
0.00658462
0.85101
0.0106129
0.853647
0.0132727
0.855177
0.0201053
0.856624
0.0214407
0.858055
0.0220329
0.859521
0.0220593
0.861063
0.0216513
0.862713
0.0209283
0.864493
0.0199813
0.86642
0.0188853
0.868507
0.0177014
0.870762
0.0164764
0.87319
0.0152448
0.875794
0.0140254
0.878576
0.0129062
0.881539
0.0120531
0.884676
0.0110043
0.887984
0.0100356
0.89147
0.00957454
0.895126
0.0089821
0.898945
0.00839086
0.0080812
0.902929
0.379482
-1.20535
-0.267546
0.476189
-1.0426
0.558618
-0.884703
0.627882
-0.743753
0.685465
-0.615915
0.732843
-0.503984
0.771454
-0.407518
0.802639
-0.325375
0.82762
-0.255931
0.847477
-0.197996
0.863173
-0.149492
0.87549
-0.110562
0.885081
-0.0801977
0.89253
-0.0563118
0.898348
-0.0370041
0.902946
-0.0220851
0.906669
-0.01073
0.909803
-0.00228588
0.912586
0.00380144
0.915216
0.00798371
0.917854
0.0106345
0.919356
0.0186027
0.920766
0.0200308
0.922156
0.0206435
0.923582
0.0206337
0.925087
0.0201455
0.926707
0.0193089
0.928465
0.0182231
0.93038
0.0169697
0.932467
0.0156153
0.934732
0.014211
0.937182
0.0127948
0.939819
0.0113883
0.942645
0.01008
0.945665
0.00903374
0.948868
0.00780043
0.952254
0.00665006
0.955828
0.00600098
0.95958
0.00522964
0.963505
0.00446562
0.00398292
0.967603
0.405473
-1.32654
-0.284282
0.510203
-1.14733
0.599492
-0.973992
0.674545
-0.818806
0.736963
-0.678333
0.78834
-0.555361
0.830225
-0.449403
0.864065
-0.359215
0.891177
-0.283043
0.912727
-0.219546
0.92975
-0.166516
0.943092
-0.123904
0.953461
-0.0905662
0.961483
-0.0643346
0.967713
-0.0432338
0.972593
-0.0269655
0.976497
-0.0146336
0.979734
-0.00552288
0.982562
0.000973497
0.985195
0.00535123
0.987808
0.00802065
0.98926
0.017151
0.990605
0.0186857
0.991922
0.0193264
0.993273
0.0192827
0.994706
0.0187132
0.996256
0.0177585
0.997952
0.0165271
0.999813
0.0151082
1.00185
0.0135739
1.00409
0.0119802
1.00651
0.0103688
1.00914
0.00876456
1.01196
0.00725634
1.01499
0.00600582
1.01821
0.00457781
1.02162
0.00323604
1.02524
0.00238843
1.02904
0.0014288
1.03302
0.000483376
-0.000181015
1.03718
0.433664
-1.45782
-0.302384
0.547144
-1.26081
0.643918
-1.07077
0.725293
-0.900181
0.792997
-0.746037
0.84875
-0.611114
0.894222
-0.494875
0.930975
-0.395968
0.96043
-0.312498
0.983842
-0.242958
1.00233
-0.185002
1.0168
-0.138377
1.02803
-0.101792
1.03668
-0.0729903
1.04337
-0.0499153
1.04855
-0.0321526
1.05265
-0.0187288
1.05599
-0.00886141
1.05885
-0.00188705
1.06146
0.00273744
1.06402
0.00546213
1.06539
0.0157781
1.06664
0.0174375
1.06785
0.0181176
1.06909
0.0180459
1.0704
0.0173962
1.07184
0.0163215
1.07343
0.0149401
1.07519
0.013349
1.07713
0.011627
1.07928
0.00983507
1.08163
0.00801904
1.08419
0.00620724
1.08695
0.00448912
1.08993
0.00302387
1.09312
0.00139153
1.09651
-0.000150995
1.1001
-0.00120719
1.1039
-0.0023642
1.10788
-0.00349946
-0.00435399
1.11205
0.464225
-1.60011
-0.321941
0.587253
-1.38384
0.692201
-1.17571
0.780486
-0.988466
0.853973
-0.819523
0.914518
-0.671659
0.963925
-0.544282
1.00388
-0.435919
1.03591
-0.344527
1.06137
-0.26842
1.08147
-0.205102
1.09719
-0.154099
1.10936
-0.113964
1.11871
-0.0823431
1.12589
-0.0570921
1.13141
-0.0376716
1.13571
-0.0230251
1.13914
-0.0122973
1.14202
-0.00476376
1.14459
0.00016999
1.14705
0.0029967
1.14831
0.0145169
1.14943
0.0163244
1.15048
0.0170592
1.15156
0.0169688
1.15271
0.0162436
1.15399
0.0150494
1.15541
0.0135156
1.15701
0.011748
1.15881
0.00983208
1.16081
0.00783454
1.16302
0.00580574
1.16545
0.00377779
1.1681
0.00184074
1.17097
0.000151149
1.17406
-0.0016944
1.17735
-0.00344638
1.18086
-0.00472066
1.18458
-0.00608368
1.1885
-0.00741676
-0.00846951
1.19262
0.497343
-1.7544
-0.343045
0.630799
-1.5173
0.744681
-1.2896
0.840524
-1.08431
0.920342
-0.899342
0.98614
-0.737456
1.03986
-0.598005
1.08333
-0.479385
1.11819
-0.37939
1.14591
-0.296141
1.16779
-0.226979
1.18489
-0.171197
1.1981
-0.127179
1.20822
-0.0924628
1.21594
-0.0648105
1.22182
-0.0435486
1.22632
-0.0275307
1.22985
-0.0158228
1.23272
-0.00763492
1.23521
-0.0023167
1.23753
0.000670683
1.23864
0.0134071
1.23958
0.0153915
1.24043
0.0162013
1.2413
0.0161056
1.24223
0.0153127
1.24327
0.0140027
1.24447
0.0123169
1.24585
0.0103704
1.24743
0.0082565
1.24921
0.00604777
1.25122
0.00379958
1.25345
0.00154822
1.2559
-0.000615598
1.25859
-0.00253811
1.2615
-0.00460481
1.26463
-0.00657407
1.26799
-0.0080752
1.27156
-0.00965218
1.27533
-0.0111905
-0.012449
1.27931
0.533224
-1.92183
-0.3658
0.678078
-1.66215
0.801733
-1.41325
0.90585
-1.18843
0.992606
-0.986098
1.06417
-0.809016
1.12263
-0.656469
1.16996
-0.526715
1.20794
-0.417371
1.23815
-0.326351
1.26199
-0.250818
1.28061
-0.189816
1.29497
-0.141544
1.30594
-0.103426
1.31425
-0.0731204
1.32051
-0.0498105
1.32523
-0.032252
1.32883
-0.0194266
1.33167
-0.0104727
1.33403
-0.00468008
1.33616
-0.00145977
1.33708
0.0124961
1.33777
0.0146923
1.33837
0.0156028
1.33896
0.0155197
1.3396
0.0146711
1.34035
0.0132526
1.34125
0.0114182
1.34233
0.0092933
1.3436
0.00697948
1.3451
0.00455603
1.34681
0.00208371
1.34876
-0.000396691
1.35093
-0.00279362
1.35335
-0.00495629
1.356
-0.00725086
1.35887
-0.00944415
1.36197
-0.0111799
1.3653
-0.0129779
1.36884
-0.014728
-0.016199
1.37259
0.572094
-2.10361
-0.390316
0.729419
-1.81948
0.863772
-1.5476
0.976956
-1.30161
1.07132
-1.08046
1.14921
-0.886903
1.21288
-0.720145
1.26447
-0.578297
1.30588
-0.458789
1.33884
-0.359306
1.36484
-0.276822
1.38514
-0.210112
1.40077
-0.157178
1.41266
-0.115316
1.42162
-0.0820758
1.42829
-0.0564847
1.43323
-0.0371935
1.4369
-0.023092
1.43967
-0.0132419
1.44186
-0.0068677
1.44372
-0.00332629
1.44438
0.0118409
1.44478
0.0142912
1.44505
0.015334
1.44528
0.015287
1.44555
0.0143993
1.44592
0.0128834
1.44643
0.0109073
1.44712
0.00860753
1.448
0.00609475
1.4491
0.00345552
1.45043
0.000756483
1.45199
-0.0019566
1.45379
-0.00459123
1.45583
-0.00699973
1.45811
-0.0095274
1.46061
-0.0119501
1.46336
-0.0139271
1.46634
-0.015952
1.46953
-0.0179192
-0.0196086
1.47294
0.614201
-2.30109
-0.416713
0.785183
-1.99046
0.93126
-1.69368