/*--------------------------------*- C++ -*----------------------------------*\
| =========                 |                                                 |
| \\      /  F ield         | OpenFOAM: The Open Source CFD Toolbox           |
|  \\    /   O peration     | Version:  5.x                                   |
|   \\  /    A nd           | Web:      www.OpenFOAM.org                      |
|    \\/     M anipulation  |                                                 |
\*---------------------------------------------------------------------------*/
FoamFile
{
    version     2.0;
    format      ascii;
    class       volVectorField;
    location    "300";
    object      U;
}
// * * * * * * * * * * * * * * * * * * * * * * * * * * * * * * * * * * * * * //

dimensions      [0 1 -1 0 0 0 0];

internalField   nonuniform List<vector> 
11040
(
(-4.54049 25.1951 0)
(-0.646091 30.6847 -1.52775e-19)
(5.70349 33.881 1.58403e-17)
(11.5952 32.8303 1.82963e-17)
(16.0603 29.5018 3.79206e-17)
(19.1296 25.3201 -1.81292e-17)
(21.0277 20.9557 -1.76471e-17)
(21.9511 16.8024 1.75948e-17)
(22.0744 13.0723 3.8416e-17)
(21.488 9.79739 1.2356e-18)
(19.8824 6.69127 1.65958e-17)
(17.6979 4.19851 -6.9867e-19)
(15.8096 2.69187 1.00612e-17)
(14.4962 1.91297 6.59553e-18)
(13.2027 1.32019 2.57119e-18)
(11.5927 0.754574 -8.05466e-19)
(9.67513 0.284242 3.34702e-18)
(7.54832 -0.0405606 8.62398e-19)
(5.2548 -0.222903 -1.01158e-18)
(2.78348 -0.27656 -1.49371e-17)
(0.480572 -0.155703 -2.27223e-17)
(-1.12665 0.0332054 -3.23187e-17)
(-2.01761 0.151335 -6.125e-17)
(-2.55888 0.238234 -3.88758e-18)
(-2.86085 0.308647 -1.64868e-20)
(-3.00555 0.364432 2.03573e-18)
(-3.06786 0.413261 -1.32526e-16)
(-3.1015 0.463066 2.08063e-18)
(-3.13776 0.514155 -1.35655e-16)
(-3.19546 0.566239 1.30827e-16)
(-3.28598 0.623056 2.02979e-18)
(-3.41872 0.687216 9.73103e-19)
(-3.59733 0.758229 -9.18552e-19)
(-3.80829 0.830218 0)
(-4.00415 0.889121 2.05368e-16)
(-4.09062 0.91278 0)
(-3.95883 0.87718 0)
(-3.57969 0.768017 -3.75051e-19)
(-2.78656 0.499173 4.45662e-19)
(-1.63777 -0.137746 -2.19499e-16)
(-1.56159 -1.00036 -1.9915e-16)
(-0.283743 24.4982 0)
(4.03734 28.622 0)
(11.745 30.1577 -8.945e-18)
(18.2942 28.8617 9.30663e-18)
(22.9831 26.7581 -2.24276e-17)
(26.2519 24.3953 2.27492e-17)
(28.3613 21.7126 1.0788e-17)
(29.43 18.7652 1.38207e-18)
(29.6079 15.708 -9.00948e-19)
(29.0582 12.7093 1.04519e-17)
(27.6646 9.672 -1.16203e-18)
(25.3511 7.05963 0)
(22.7415 5.18686 0)
(20.4235 3.88679 -3.02586e-18)
(18.3687 2.82147 -1.34132e-18)
(16.2808 1.96041 7.15513e-19)
(14.0284 1.29904 0)
(11.56 0.805861 -3.67612e-19)
(8.82643 0.462382 1.36886e-18)
(5.87638 0.261379 1.32413e-18)
(2.86648 0.18436 7.84547e-18)
(0.505724 0.199446 1.13303e-17)
(-0.922521 0.235182 1.71335e-18)
(-1.83576 0.276568 -2.99836e-17)
(-2.39789 0.322834 2.83697e-17)
(-2.72663 0.370068 2.03272e-18)
(-2.93235 0.42087 6.83678e-17)
(-3.08468 0.475031 -1.1076e-18)
(-3.2194 0.532386 7.35982e-17)
(-3.35962 0.594463 -7.32035e-17)
(-3.51331 0.662101 -7.36741e-17)
(-3.6815 0.735499 7.25773e-17)
(-3.85614 0.811661 -1.42094e-21)
(-4.01728 0.882974 -1.47845e-18)
(-4.12745 0.936102 -5.86758e-17)
(-4.13096 0.949458 0)
(-3.98 0.903472 -4.05656e-19)
(-3.56662 0.78725 9.6237e-17)
(-2.59665 0.562718 9.78938e-17)
(-0.773646 -0.0307278 9.13218e-17)
(-0.284385 -1.14835 1.30154e-16)
(1.50327 23.5609 0)
(5.47446 26.6959 0)
(10.904 28.2924 2.33597e-18)
(15.9797 28.1678 -6.75014e-18)
(20.0867 26.7787 6.95245e-18)
(23.4554 24.675 -8.27954e-18)
(26.1466 22.1727 -6.27794e-18)
(28.0957 19.4489 0)
(29.2735 16.6327 -9.60659e-18)
(29.7231 13.8364 -5.34768e-18)
(29.3849 10.9891 0)
(28.0908 8.45476 0)
(26.1637 6.48635 -3.46688e-18)
(24.0775 4.99319 -2.14769e-18)
(21.9449 3.73041 -3.75153e-20)
(19.6889 2.70195 3.93483e-20)
(17.2716 1.91177 0)
(14.6706 1.32743 0)
(11.8245 0.918211 -2.99791e-19)
(8.70113 0.648157 8.39212e-19)
(5.38135 0.480028 -9.45333e-19)
(2.56934 0.38165 4.47371e-18)
(0.646499 0.323344 -3.5706e-20)
(-0.684474 0.303113 -1.42679e-17)
(-1.55039 0.315355 -1.16046e-18)
(-2.10338 0.347866 -1.26167e-18)
(-2.47449 0.395874 -1.60436e-21)
(-2.73791 0.452391 1.41049e-18)
(-2.94454 0.514247 0)
(-3.1267 0.580443 0)
(-3.30043 0.649977 9.67314e-17)
(-3.4732 0.722081 -9.43967e-17)
(-3.64587 0.793373 4.50269e-17)
(-3.81057 0.856925 0)
(-3.94241 0.901341 4.02442e-17)
(-3.98794 0.903034 3.78684e-17)
(-3.87964 0.826753 0)
(-3.52186 0.651558 1.36083e-19)
(-2.62448 0.34329 -2.23503e-19)
(-0.825512 -0.364043 0)
(-0.225935 -1.70399 -5.60016e-17)
(3.32236 22.4918 1.04988e-19)
(7.0366 24.9482 -1.08557e-19)
(11.2779 26.2992 2.81577e-19)
(15.7184 26.4008 0)
(19.5921 25.3536 -7.17535e-18)
(22.7236 23.6182 0)
(25.1975 21.4699 1.39644e-17)
(27.0399 19.0728 1.27944e-20)
(28.2727 16.5656 1.34808e-18)
(28.9469 14.0637 8.17986e-18)
(29.067 11.53 1.17595e-18)
(28.4892 9.20596 2.71753e-18)
(27.3269 7.32693 6.14962e-18)
(25.8711 5.8572 1.67553e-18)
(24.2089 4.57991 0)
(22.2751 3.48516 1.96498e-19)
(20.0507 2.6024 2.53129e-19)
(17.5527 1.9285 7.26105e-19)
(14.7607 1.4451 4.84137e-19)
(11.6365 1.11166 -5.14524e-19)
(8.18687 0.871596 -2.80787e-18)
(5.04462 0.674897 -4.01174e-18)
(2.62584 0.510454 0)
(0.800138 0.402099 2.55803e-17)
(-0.450476 0.353608 -1.54881e-17)
(-1.27898 0.350382 1.45e-17)
(-1.83942 0.380365 -3.03071e-17)
(-2.22946 0.428983 0)
(-2.52077 0.487994 0)
(-2.75386 0.552959 0)
(-2.95548 0.621662 -3.45021e-17)
(-3.14371 0.693205 3.52986e-17)
(-3.32967 0.764027 -1.02272e-18)
(-3.51395 0.825922 -3.23909e-17)
(-3.67689 0.864989 -2.83713e-17)
(-3.76664 0.853692 -2.79225e-17)
(-3.71727 0.749156 -4.89746e-17)
(-3.44841 0.523114 -4.28228e-17)
(-2.69907 0.148221 -1.53899e-19)
(-1.11382 -0.601785 -3.54853e-17)
(-0.52835 -2.03557 2.1629e-17)
(5.14481 21.3195 0)
(8.40014 23.2465 1.60096e-19)
(11.7833 24.3602 -3.90752e-20)
(15.4348 24.6771 2.8692e-19)
(18.8383 24.0976 5.39407e-18)
(21.7531 22.8329 -4.99289e-18)
(24.1646 21.0747 -1.85788e-18)
(26.0342 18.9717 -6.44169e-18)
(27.3368 16.6811 0)
(28.1077 14.3419 -7.53682e-18)
(28.3857 11.9731 0)
(28.1137 9.76659 -1.66155e-18)
(27.365 7.94013 -3.31905e-18)
(26.3541 6.50091 0)
(25.1749 5.26962 4.84681e-19)
(23.7502 4.20153 0)
(22.0092 3.3162 0)
(19.9291 2.61691 -3.91531e-19)
(17.4781 2.09382 -5.72699e-19)
(14.6099 1.71418 0)
(11.2759 1.41567 2.10508e-18)
(8.01353 1.13476 0)
(5.20564 0.857302 0)
(2.83915 0.624123 -8.51925e-18)
(1.06659 0.473258 0)
(-0.155992 0.40342 1.17125e-17)
(-0.981822 0.394186 2.45369e-17)
(-1.54933 0.42042 0)
(-1.95836 0.46733 0)
(-2.26592 0.525443 0)
(-2.51286 0.590321 2.80758e-17)
(-2.72823 0.660271 2.38348e-17)
(-2.93349 0.731058 -2.47779e-17)
(-3.13871 0.792294 -7.71909e-19)
(-3.33214 0.826321 7.1203e-19)
(-3.46892 0.801443 0)
(-3.49058 0.668974 3.84011e-17)
(-3.33226 0.392987 -3.34458e-17)
(-2.77128 -0.0450997 3.01399e-17)
(-1.49354 -0.813921 2.71606e-17)
(-0.993512 -2.2289 3.66453e-20)
(6.81968 20.0852 -2.33386e-19)
(9.59443 21.5916 -3.0454e-20)
(12.3393 22.4973 7.29465e-19)
(15.3053 22.9164 -1.53076e-19)
(18.2286 22.6686 -6.36836e-19)
(20.8677 21.8178 4.89298e-18)
(23.1554 20.4797 -6.03926e-18)
(25.024 18.7557 5.26465e-18)
(26.4085 16.7722 2.37619e-18)
(27.3015 14.6588 -1.2073e-18)
(27.7231 12.4636 0)
(27.6446 10.3507 0)
(27.1217 8.52988 5.96965e-19)
(26.3333 7.06227 -6.32925e-19)
(25.4123 5.83488 -7.21761e-19)
(24.3397 4.79283 -2.60231e-19)
(23.0484 3.9374 8.3976e-19)
(21.4878 3.26573 1.50447e-19)
(19.5922 2.7621 1.16534e-18)
(17.2713 2.39133 -2.62102e-18)
(14.3946 2.08368 3.90297e-18)
(11.3486 1.76425 -2.1007e-18)
(8.41926 1.40267 1.24045e-18)
(5.6235 1.03513 1.53346e-18)
(3.26256 0.739257 -9.27466e-18)
(1.48725 0.552181 1.19807e-20)
(0.245849 0.465087 -2.32508e-17)
(-0.603791 0.445681 -1.91756e-17)
(-1.20034 0.465894 0)
(-1.63095 0.507822 0)
(-1.95684 0.563242 -2.02921e-17)
(-2.21997 0.628462 -4.41523e-17)
(-2.45307 0.697829 -1.29769e-18)
(-2.6785 0.75829 1.97533e-17)
(-2.89827 0.788117 1.96391e-17)
(-3.08151 0.751355 -1.78837e-17)
(-3.18092 0.593949 4.93493e-19)
(-3.14769 0.272664 5.48239e-17)
(-2.80066 -0.222935 -4.88663e-17)
(-1.8847 -1.00668 8.38427e-20)
(-1.52504 -2.32832 1.5882e-17)
(8.32718 18.827 0)
(10.6571 19.9989 -6.08441e-19)
(12.9021 20.7328 -1.35382e-18)
(15.3021 21.1734 -2.89564e-19)
(17.7506 21.1434 -2.78482e-19)
(20.066 20.6233 7.20045e-19)
(22.1669 19.666 -2.72245e-18)
(23.9748 18.3282 1.17883e-18)
(25.4055 16.6975 0)
(26.4195 14.8769 1.48542e-18)
(27.0104 12.9195 -2.84544e-18)
(27.1414 10.9564 2.53989e-18)
(26.833 9.17421 -2.82113e-19)
(26.2176 7.67247 0)
(25.437 6.41014 2.60057e-19)
(24.5366 5.35069 2.29484e-19)
(23.5002 4.49154 -2.30512e-19)
(22.3074 3.83276 -6.04673e-19)
(20.9145 3.36042 4.12182e-19)
(19.2335 3.03839 9.94948e-19)
(17.0804 2.78518 -1.10986e-18)
(14.633 2.50614 -1.52195e-18)
(12.009 2.14148 0)
(9.14777 1.69046 2.17028e-18)
(6.35302 1.24093 5.23557e-18)
(3.95356 0.882743 -7.90959e-18)
(2.11732 0.655977 5.71502e-18)
(0.810452 0.543711 1.77418e-17)
(-0.10187 0.507665 -2.44087e-18)
(-0.747407 0.515465 -2.43978e-21)
(-1.21726 0.550044 -1.44119e-17)
(-1.57257 0.603344 -4.68435e-18)
(-1.86003 0.667438 -1.57022e-17)
(-2.11663 0.726184 0)
(-2.36276 0.753201 -1.56637e-17)
(-2.58803 0.708206 1.55117e-17)
(-2.76349 0.532586 -1.39741e-17)
(-2.86056 0.176444 -4.66628e-17)
(-2.74022 -0.365074 2.03786e-17)
(-2.21157 -1.16334 7.0995e-20)
(-2.04525 -2.37105 -2.87379e-17)
(9.65864 17.5765 1.42055e-18)
(11.6006 18.485 -4.06866e-19)
(13.4453 19.0782 -2.8309e-19)
(15.3894 19.4934 1.17106e-18)
(17.4053 19.5883 -3.78687e-19)
(19.3781 19.3128 -7.78114e-19)
(21.2409 18.6752 1.74792e-18)
(22.922 17.6943 1.68582e-18)
(24.3357 16.4201 -1.38278e-18)
(25.4266 14.9242 0)
(26.1701 13.2523 -8.27246e-19)
(26.5162 11.503 1.36298e-19)
(26.4472 9.82786 -9.57941e-21)
(26.0397 8.33875 3.26315e-19)
(25.4119 7.05015 -5.64128e-20)
(24.6378 5.95619 5.86953e-20)
(23.7414 5.0608 0)
(22.7405 4.37235 0)
(21.6431 3.88916 -1.83749e-18)
(20.4272 3.59153 1.61674e-18)
(18.9644 3.40674 -1.07967e-18)
(17.2891 3.22757 1.12501e-18)
(15.3546 2.96309 1.33822e-18)
(12.9651 2.5535 0)
(10.2366 2.03818 1.80608e-18)
(7.46529 1.51528 -2.15033e-18)
(4.99489 1.08613 -5.22801e-18)
(3.03822 0.801245 0)
(1.60546 0.648067 0)
(0.585926 0.583704 2.09918e-18)
(-0.143074 0.573091 1.79291e-17)
(-0.675102 0.597941 1.53808e-17)
(-1.07639 0.646129 3.11212e-17)
(-1.40086 0.698383 1.93027e-18)
(-1.69069 0.723579 0)
(-1.96097 0.67614 -8.07995e-19)
(-2.20805 0.493047 1.27821e-17)
(-2.42833 0.119179 6.80621e-20)
(-2.52933 -0.449085 1.82837e-17)
(-2.38331 -1.25384 1.55639e-17)
(-2.46351 -2.35196 1.32366e-17)
(10.8195 16.361 -8.55203e-19)
(12.434 17.0641 -1.053e-20)
(13.9542 17.5419 1.13944e-18)
(15.5332 17.9099 -2.15658e-18)
(17.1762 18.0632 0)
(18.8198 17.9501 -5.66184e-19)
(20.421 17.5568 1.49581e-18)
(21.9254 16.8784 -1.07327e-18)
(23.2581 15.9341 3.44831e-19)
(24.3622 14.7646 7.91075e-19)
(25.2048 13.4011 3.83233e-20)
(25.7302 11.9117 -1.39704e-18)
(25.8931 10.4095 0)
(25.72 8.99834 -9.19016e-20)
(25.2905 7.7264 -1.8346e-19)
(24.6762 6.61787 2.94331e-19)
(23.9177 5.68662 6.44355e-19)
(23.0491 4.94869 -6.64827e-19)
(22.1078 4.41299 5.42162e-19)
(21.1278 4.07925 0)
(20.0882 3.90654 -2.05063e-18)
(19.0187 3.80532 3.69395e-18)
(17.8222 3.679 -3.13063e-18)
(16.2424 3.42812 -2.20819e-20)
(14.1803 3.01678 2.54779e-18)
(11.6952 2.47823 -2.89817e-18)
(9.02395 1.90121 0)
(6.49304 1.39069 1.03434e-17)
(4.36648 1.01847 4.97442e-18)
(2.73758 0.794842 2.92072e-18)
(1.54772 0.684641 -1.34295e-17)
(0.686376 0.646896 -3.72695e-18)
(0.058021 0.654867 3.9686e-18)
(-0.413686 0.685598 -1.89323e-18)
(-0.796313 0.703597 -1.0237e-17)
(-1.13569 0.65777 -1.53486e-18)
(-1.45978 0.481058 0)
(-1.79301 0.112742 2.01829e-17)
(-2.09265 -0.45527 -1.70892e-17)
(-2.29117 -1.24656 -1.44797e-17)
(-2.65396 -2.25004 0)
(11.8218 15.2023 0)
(13.1642 15.7467 0)
(14.4203 16.1296 0)
(15.7068 16.4431 5.95614e-18)
(17.0398 16.6125 -3.41263e-18)
(18.3881 16.5962 1.53348e-18)
(19.7301 16.3746 1.37989e-18)
(21.0309 15.9319 -3.47433e-19)
(22.2337 15.2676 -3.84651e-19)
(23.2892 14.398 7.31978e-20)
(24.1652 13.3386 -7.20435e-20)
(24.8078 12.1298 4.76842e-19)
(25.1587 10.8481 -1.25087e-19)
(25.2089 9.57683 8.3632e-20)
(24.9988 8.37667 7.79507e-19)
(24.5815 7.29356 -6.54611e-19)
(23.997 6.35338 -1.122e-18)
(23.2812 5.57774 1.1565e-18)
(22.4754 4.98235 -8.93125e-19)
(21.6285 4.5761 0)
(20.7822 4.34703 -2.98127e-18)
(20.0201 4.2425 2.12615e-18)
(19.2949 4.18888 8.50244e-19)
(18.4107 4.09357 -1.71534e-18)
(17.2081 3.88508 3.71517e-18)
(15.5609 3.52339 0)
(13.4549 3.01725 0)
(11.028 2.42777 -2.64512e-18)
(8.53639 1.84817 -1.56148e-17)
(6.25594 1.36617 -7.43121e-18)
(4.37205 1.02945 8.73475e-18)
(2.92805 0.834815 2.52785e-18)
(1.86295 0.746527 -1.4165e-17)
(1.08305 0.720875 -3.04435e-18)
(0.495553 0.711598 1.87594e-17)
(0.0203668 0.662872 -3.05805e-18)
(-0.410204 0.503714 -1.1229e-17)
(-0.858531 0.165684 1.24712e-18)
(-1.33071 -0.370087 1.5399e-17)
(-1.80999 -1.11858 0)
(-2.45532 -2.03571 0)
(12.6808 14.1165 0)
(13.7986 14.5387 0)
(14.8391 14.844 -2.16158e-19)
(15.8906 15.104 -4.16036e-18)
(16.9711 15.2659 0)
(18.067 15.3002 -3.42671e-18)
(19.1711 15.1896 -1.02426e-18)
(20.2649 14.9164 0)
(21.3101 14.4707 1.28683e-18)
(22.2697 13.854 -1.09266e-18)
(23.1179 13.0694 -2.45706e-19)
(23.8088 12.1354 -1.69129e-19)
(24.2838 11.0962 3.7563e-20)
(24.5137 10.0105 0)
(24.5088 8.93449 1.34139e-18)
(24.2976 7.92295 -1.1095e-18)
(23.9105 7.01187 0)
(23.3777 6.2286 0)
(22.7354 5.59385 -8.69481e-19)
(22.0261 5.12004 3.55602e-18)
(21.3005 4.80939 -1.8955e-18)
(20.6686 4.64066 0)
(20.1381 4.56563 2.66952e-18)
(19.6072 4.52041 9.8758e-20)
(18.9859 4.45194 -2.8933e-18)
(18.1451 4.30446 1.53673e-18)
(16.9548 4.0315 0)
(15.342 3.61512 0)
(13.3389 3.0793 -2.0235e-18)
(11.0901 2.48647 9.17007e-18)
(8.8119 1.91743 -5.31542e-18)
(6.7211 1.44404 6.22057e-18)
(4.96668 1.10659 3.58542e-18)
(3.59613 0.904032 0)
(2.56572 0.796552 6.64004e-18)
(1.78568 0.714846 6.70599e-21)
(1.14988 0.572168 2.12773e-17)
(0.547582 0.285833 0)
(-0.0843459 -0.183988 -1.80604e-17)
(-0.779187 -0.856875 1.47065e-17)
(-1.68018 -1.6837 0)
(13.4125 13.1144 0)
(14.345 13.4426 -2.37948e-18)
(15.2091 13.6848 2.1687e-18)
(16.0715 13.8961 0)
(16.9483 14.0394 3.43938e-18)
(17.8352 14.0951 -9.67395e-19)
(18.7331 14.0504 -1.17821e-17)
(19.6341 13.8904 1.32099e-17)
(20.5153 13.6034 -7.15705e-18)
(21.352 13.1835 -4.65745e-18)
(22.1267 12.6272 3.1457e-18)
(22.8053 11.9381 7.6236e-19)
(23.3366 11.1368 -1.17443e-18)
(23.6857 10.2577 7.01052e-19)
(23.8435 9.34398 -1.82872e-18)
(23.8177 8.44634 1.36646e-18)
(23.624 7.60433 9.58923e-19)
(23.2835 6.84938 5.60708e-19)
(22.8243 6.20661 2.41696e-18)
(22.2798 5.69203 -5.56104e-18)
(21.6903 5.3143 3.16341e-18)
(21.1578 5.07305 1.22295e-19)
(20.7114 4.93431 5.30978e-19)
(20.3036 4.85047 0)
(19.9151 4.7968 -3.54583e-18)
(19.4949 4.74316 1.18299e-18)
(18.9565 4.65053 3.82659e-18)
(18.1929 4.47578 -2.65153e-18)
(17.1096 4.18504 5.6794e-18)
(15.6635 3.76895 -3.05141e-18)
(13.8886 3.25027 0)
(11.896 2.67927 -5.62873e-18)
(9.84655 2.1192 -2.12666e-18)
(7.90771 1.62787 2.41003e-18)
(6.20746 1.2409 -1.63523e-17)
(4.81281 0.957554 -3.0486e-18)
(3.70633 0.728672 -6.51056e-18)
(2.78391 0.465594 6.95366e-18)
(1.92315 0.0868976 7.40289e-18)
(1.04712 -0.465791 -1.4564e-17)
(-0.0756536 -1.17718 -4.19512e-19)
(14.0325 12.2015 0)
(14.8119 12.4574 1.3011e-19)
(15.5313 12.6487 1.97015e-18)
(16.2409 12.8179 7.22112e-18)
(16.9542 12.9388 -4.23102e-18)
(17.6715 12.999 2.44025e-18)
(18.3972 12.9903 2.1526e-18)
(19.1298 12.9016 -1.13241e-17)
(19.8565 12.7224 2.17622e-18)
(20.563 12.4452 4.24234e-18)
(21.2389 12.0643 -5.72742e-18)
(21.8617 11.5758 3.54294e-18)
(22.3921 10.9849 1.78924e-18)
(22.7978 10.3078 -6.02083e-19)
(23.0622 9.57228 0)
(23.1788 8.81739 0)
(23.1502 8.07857 -4.54091e-18)
(22.9869 7.38694 -8.79558e-19)
(22.7071 6.76949 4.28527e-18)
(22.3357 6.2458 -3.13728e-19)
(21.902 5.82927 3.2991e-18)
(21.4876 5.53556 -6.51791e-18)
(21.1236 5.34009 3.34753e-18)
(20.7841 5.19858 0)
(20.4739 5.09733 -4.75256e-19)
(20.1885 5.02464 3.98879e-18)
(19.9069 4.96655 -5.06493e-18)
(19.5842 4.90171 4.22681e-18)
(19.1521 4.80002 -3.231e-18)
(18.531 4.62791 0)
(17.6516 4.35891 2.3657e-18)
(16.4794 3.98381 5.0097e-18)
(15.0301 3.51542 -2.69688e-18)
(13.3695 2.98495 2.93577e-18)
(11.595 2.43244 1.58852e-18)
(9.82665 1.89857 -3.63742e-18)
(8.17272 1.40997 5.99006e-18)
(6.68255 0.962013 -4.32895e-18)
(5.34264 0.522501 -3.55356e-18)
(4.12179 0.0285314 -6.51361e-19)
(2.7421 -0.542919 1.06389e-17)
(14.5553 11.3794 -2.0612e-18)
(15.2079 11.5796 -7.6907e-18)
(15.8083 11.7302 7.56131e-18)
(16.394 11.864 0)
(16.9764 11.9628 -2.10438e-19)
(17.5574 12.0188 0)
(18.1429 12.0272 -1.75753e-17)
(18.7343 11.9807 1.41853e-17)
(19.3254 11.871 1.01648e-17)
(19.9085 11.6916 -1.20865e-17)
(20.4787 11.4371 4.19766e-18)
(21.0223 11.1008 -2.13327e-18)
(21.5122 10.6804 -1.55751e-18)
(21.9232 10.1806 -3.43839e-18)
(22.2382 9.61645 2.90151e-20)
(22.4451 9.01364 3.44765e-18)
(22.5379 8.39879 -2.71799e-18)
(22.5178 7.79806 3.7335e-18)
(22.3938 7.23637 0)
(22.1816 6.73429 4.64758e-18)
(21.9013 6.30829 2.6208e-20)
(21.6127 5.9867 -5.07598e-18)
(21.3448 5.7549 4.48387e-20)
(21.0839 5.57148 0)
(20.8366 5.425 3.91561e-19)
(20.6079 5.30687 4.06424e-19)
(20.3996 5.21129 0)
(20.2074 5.13321 0)
(20.0157 5.06444 2.41871e-21)
(19.793 4.99028 0)
(19.4922 4.88901 -2.74203e-18)
(19.0576 4.73563 0)
(18.4382 4.50832 3.8924e-18)
(17.6008 4.19448 -4.05515e-18)
(16.5354 3.79264 0)
(15.2666 3.31526 2.24054e-18)
(13.8473 2.78391 -2.40327e-18)
(12.3325 2.21759 1.35096e-18)
(10.7639 1.63697 4.3603e-18)
(9.22709 1.04444 -3.99969e-19)
(7.48495 0.443174 -1.00644e-17)
(14.9944 10.6464 5.47378e-18)
(15.5417 10.8036 2.12374e-19)
(16.0438 10.9217 -3.34801e-18)
(16.5289 11.0265 -6.4054e-18)
(17.0061 11.1053 -1.50741e-17)
(17.4782 11.1532 1.79232e-17)
(17.9511 11.168 -4.28305e-19)
(18.4274 11.1449 -1.04715e-17)
(18.9045 11.0782 2.07026e-17)
(19.3788 10.9629 -5.53205e-19)
(19.8488 10.7946 -1.12631e-17)
(20.3071 10.5671 4.07967e-18)
(20.7359 10.2751 -7.64797e-18)
(21.1177 9.9176 1.16268e-17)
(21.439 9.50124 -1.94698e-18)
(21.6874 9.04084 0)
(21.8537 8.55349 -8.12543e-18)
(21.9337 8.058 7.35248e-18)
(21.9288 7.57408 7.88688e-18)
(21.8468 7.11997 -1.52231e-17)
(21.6995 6.71197 8.34106e-18)
(21.5261 6.38583 -4.36304e-19)
(21.352 6.13666 -3.72152e-20)
(21.1738 5.92908 -5.13066e-18)
(20.9975 5.75462 1.04209e-17)
(20.8276 5.60545 -5.66247e-18)
(20.6672 5.47534 5.2335e-18)
(20.5194 5.36025 -6.33954e-18)
(20.3856 5.2579 -6.53296e-18)
(20.2641 5.16614 5.8512e-18)
(20.1464 5.08055 1.49433e-18)
(20.0142 4.99228 2.27294e-18)
(19.8389 4.8875 -6.89611e-18)
(19.5853 4.74897 6.22567e-18)
(19.215 4.55828 -3.18694e-18)
(18.6963 4.30122 -1.66316e-18)
(18.0103 3.97115 0)
(17.1509 3.56588 -1.74925e-18)
(16.1065 3.09336 -1.84415e-18)
(14.9565 2.57034 -2.04734e-18)
(13.4726 1.98783 2.11022e-18)
(15.3617 9.99862 1.51728e-20)
(15.8212 10.1222 7.67661e-19)
(16.2418 10.2144 2.92894e-18)
(16.6447 10.2958 -5.56988e-18)
(17.0373 10.3573 2.2206e-17)
(17.4225 10.3961 -2.07006e-17)
(17.8056 10.4114 2.61521e-17)
(18.1896 10.4004 1.45592e-17)
(18.5738 10.359 -5.85754e-18)
(18.9568 10.2839 -7.92473e-19)
(19.3388 10.1722 -1.81939e-17)
(19.7162 10.0188 2.44817e-19)
(20.078 9.81824 0)
(20.413 9.56732 -3.49267e-18)
(20.7119 9.26813 3.63162e-18)
(20.9648 8.92817 -3.80573e-18)
(21.1629 8.55701 0)
(21.2999 8.16638 7.22714e-18)
(21.3734 7.7698 -1.5597e-17)
(21.3854 7.3811 5.55205e-18)
(21.3408 7.01369 -7.80661e-18)
(21.2615 6.70454 8.77178e-18)
(21.1673 6.45583 2.65914e-19)
(21.062 6.2394 -1.03656e-19)
(20.9513 6.05067 8.93844e-18)
(20.8395 5.88447 -9.00698e-18)
(20.7295 5.73557 2.88628e-19)
(20.6231 5.59928 5.89918e-19)
(20.5221 5.47197 -4.87298e-18)
(20.4284 5.35136 5.52004e-18)
(20.3434 5.23628 -6.18652e-19)
(20.2672 5.12581 6.25798e-19)
(20.1962 5.01801 -2.55115e-18)
(20.1218 4.90866 1.25888e-18)
(20.0288 4.79013 5.22608e-18)
(19.8966 4.65252 -1.3344e-18)
(19.7005 4.48513 1.3534e-18)
(19.4179 4.27701 -2.76617e-18)
(19.0116 4.01848 1.4371e-18)
(18.5081 3.71566 1.43471e-18)
(17.7464 3.33464 0)
(15.6669 9.42927 -8.39174e-18)
(16.0528 9.52629 1.54474e-17)
(16.4056 9.59797 1.53107e-17)
(16.741 9.66084 -4.05863e-17)
(17.065 9.70817 1.52085e-17)
(17.3807 9.73847 -3.34901e-17)
(17.6924 9.75169 2.81104e-17)
(18.003 9.74623 -4.18283e-17)
(18.3128 9.71947 4.0485e-17)
(18.6214 9.66903 -5.53946e-19)
(18.9299 9.59315 -1.73588e-17)
(19.2368 9.48825 -1.91035e-18)
(19.5353 9.34963 -1.52031e-17)
(19.8186 9.17396 1.50459e-17)
(20.081 8.9613 -1.40611e-17)
(20.3155 8.71499 1.56512e-17)
(20.5153 8.43973 0)
(20.6746 8.14195 -1.19737e-17)
(20.7896 7.82981 1.46142e-17)
(20.8591 7.51245 -1.318e-17)
(20.884 7.19934 -2.0146e-19)
(20.8728 6.92387 2.12527e-17)
(20.8398 6.69199 -1.10712e-19)
(20.7917 6.48205 -7.56887e-18)
(20.7336 6.29235 -1.43356e-23)
(20.6694 6.12047 0)
(20.6019 5.96347 -8.00506e-18)
(20.5333 5.81814 7.91279e-18)
(20.4645 5.68125 0)
(20.3962 5.54987 -5.14929e-19)
(20.329 5.42167 0)
(20.2638 5.29509 4.29937e-18)
(20.2012 5.16934 -4.84451e-18)
(20.1415 5.04409 -4.3963e-18)
(20.0836 4.9187 8.84438e-18)
(20.0239 4.79236 -5.01705e-18)
(19.9554 4.66332 -5.73644e-19)
(19.8693 4.52836 1.12444e-18)
(19.7469 4.38154 -1.14154e-18)
(19.5876 4.22538 0)
(19.3315 4.03564 -1.22143e-18)
(15.9082 8.95338 0)
(16.2351 9.03031 -2.10004e-17)
(16.5334 9.08677 5.46776e-19)
(16.8154 9.13581 2.90502e-17)
(17.0859 9.17233 1.86122e-17)
(17.3479 9.19566 -1.90153e-17)
(17.605 9.20621 1.823e-17)
(17.8598 9.20306 1.79716e-17)
(18.1128 9.18446 3.51881e-17)
(18.3643 9.14879 -4.46068e-17)
(18.6155 9.09489 4.43391e-18)
(18.8658 9.02015 4.23443e-18)
(19.1112 8.92097 -1.56767e-17)
(19.3475 8.79452 1.15323e-17)
(19.5711 8.6402 1.67817e-17)
(19.7777 8.45941 -1.28953e-17)
(19.9624 8.25425 -1.6024e-17)
(20.1207 8.02799 1.61051e-17)
(20.2489 7.78521 0)
(20.3451 7.53148 1.80394e-18)
(20.4079 7.27283 1.79612e-18)
(20.4381 7.03714 1.42798e-17)
(20.4449 6.83147 -2.85711e-17)
(20.436 6.63927 1.46071e-17)
(20.415 6.46037 7.35891e-18)
(20.3847 6.29399 -1.58715e-19)
(20.348 6.13886 -7.47512e-18)
(20.3067 5.99339 1.16984e-19)
(20.2622 5.85573 7.63734e-21)
(20.215 5.72395 7.76994e-18)
(20.1655 5.59616 -7.84682e-18)
(20.1135 5.47065 -4.00347e-18)
(20.0589 5.34606 4.26511e-18)
(20.0015 5.22147 -4.09016e-18)
(19.9413 5.09628 3.57301e-18)
(19.8783 4.97091 3.12759e-18)
(19.8119 4.84641 -1.57437e-18)
(19.7413 4.7236 5.37946e-19)
(19.6634 4.60288 0)
(19.5761 4.48788 0)
(19.4723 4.37296 -2.54833e-20)
(16.0927 8.57254 -9.41582e-18)
(16.3736 8.63469 1.05711e-17)
(16.6298 8.67985 -4.58975e-18)
(16.8709 8.71845 -9.02761e-18)
(17.1009 8.74652 0)
(17.3224 8.76398 1.78751e-17)
(17.5387 8.77145 -4.39941e-17)
(17.7519 8.76842 2.69896e-17)
(17.9628 8.75371 -8.8943e-18)
(18.1717 8.72623 8.55018e-18)
(18.3799 8.68527 -4.24791e-18)
(18.5872 8.62895 -3.74986e-17)
(18.7911 8.55449 6.47733e-17)
(18.9889 8.4596 -2.77975e-17)
(19.1784 8.34352 -3.68202e-18)
(19.3569 8.20674 -1.47779e-17)
(19.521 8.05009 4.54981e-17)
(19.6673 7.87514 -1.9899e-17)
(19.7929 7.68437 -3.03739e-17)
(19.8957 7.48108 1.24956e-17)
(19.974 7.26894 -3.50781e-18)
(20.0245 7.07046 0)
(20.0532 6.89253 0)
(20.0672 6.7223 -1.43073e-17)
(20.0688 6.56029 1.43185e-17)
(20.0601 6.40655 2.2182e-19)
(20.0433 6.26073 0)
(20.0199 6.1222 7.39666e-18)
(19.9913 5.99009 -7.40902e-18)
(19.9581 5.86345 5.76754e-20)
(19.9209 5.74126 -5.98921e-20)
(19.8797 5.62254 0)
(19.8345 5.5064 3.65881e-18)
(19.7848 5.39204 -3.86642e-18)
(19.7301 5.27865 4.8295e-19)
(19.67 5.16617 -4.87621e-19)
(19.6044 5.05511 0)
(19.533 4.94581 -4.97497e-19)
(19.4558 4.83933 -1.02416e-18)
(19.3726 4.73811 5.06154e-19)
(19.2861 4.64243 1.52867e-18)
(16.2368 8.26369 0)
(16.4811 8.31456 0)
(16.704 8.35105 -1.70852e-17)
(16.9129 8.38161 -3.38912e-17)
(17.1114 8.40313 5.17772e-17)
(17.3016 8.41585 -4.24692e-17)
(17.4865 8.4205 -1.66987e-17)
(17.668 8.41681 3.4513e-17)
(17.8467 8.40397 -3.41486e-17)
(18.0232 8.38121 3.44582e-17)
(18.1984 8.34809 0)
(18.3726 8.30325 0)
(18.544 8.24459 3.22799e-17)
(18.7109 8.17031 -6.29877e-17)
(18.872 8.07973 6.1279e-17)
(19.0254 7.97293 -3.0124e-17)
(19.1687 7.85015 -3.74521e-18)
(19.2996 7.71206 3.4339e-17)
(19.4157 7.55997 -2.33626e-17)
(19.5154 7.39573 0)
(19.5967 7.22152 1.71497e-18)
(19.6549 7.05533 0)
(19.6938 6.90326 -1.49528e-17)
(19.7197 6.75525 2.90384e-17)
(19.7339 6.61204 -1.40879e-17)
(19.738 6.47407 0)
(19.7335 6.34151 0)
(19.7216 6.21423 6.73472e-18)
(19.7034 6.09197 -7.18553e-18)
(19.6795 5.97434 -7.27927e-18)
(19.6507 5.8609 7.33036e-18)
(19.6172 5.75123 7.3752e-18)
(19.5792 5.64496 -7.39707e-18)
(19.5366 5.54172 0)
(19.4892 5.44105 -5.919e-20)
(19.4368 5.34295 0)
(19.3793 5.24768 -1.50011e-20)
(19.3162 5.15511 -6.04009e-20)
(19.2476 5.06563 2.06171e-18)
(19.1735 4.98026 -2.91536e-18)
(19.0953 4.89907 9.61646e-19)
(16.3515 8.00833 0)
(16.5661 8.05038 -1.99769e-18)
(16.7618 8.08005 0)
(16.9448 8.10432 1.60214e-17)
(17.1179 8.12066 -1.61012e-17)
(17.2833 8.12954 0)
(17.4433 8.13173 1.62482e-17)
(17.5998 8.1271 1.61183e-17)
(17.7533 8.11508 -4.17426e-17)
(17.9043 8.09512 0)
(18.0538 8.06693 3.30672e-17)
(18.2019 8.02955 -6.65708e-17)
(18.3476 7.98136 3.24477e-17)
(18.4896 7.92099 0)
(18.627 7.84787 -3.02827e-17)
(18.7587 7.76193 3.37008e-17)
(18.883 7.66316 3.27159e-17)
(18.9981 7.55181 -3.61268e-17)
(19.1024 7.42853 -3.48799e-18)
(19.1944 7.29438 0)
(19.2724 7.15059 0)
(19.3314 7.01151 -1.7718e-18)
(19.3738 6.88236 8.48533e-19)
(19.4048 6.75508 1.38852e-17)
(19.4255 6.63047 9.18593e-19)
(19.4367 6.50909 -1.38525e-17)
(19.4396 6.39134 1.39438e-17)
(19.435 6.27739 -1.3495e-17)
(19.4239 6.16729 -7.90962e-18)
(19.4069 6.06098 7.01251e-18)
(19.3844 5.95835 -7.08371e-18)
(19.357 5.85929 7.07147e-18)
(19.3249 5.76369 0)
(19.2883 5.67146 -7.63835e-18)
(19.2473 5.58238 7.2252e-18)
(19.2021 5.49658 0)
(19.1526 5.41432 1.40555e-20)
(19.0989 5.33548 1.89014e-18)
(19.0409 5.2602 -1.94278e-18)
(18.9789 5.18899 8.6873e-19)
(18.9134 5.12168 -9.08186e-19)
(16.4444 7.79389 0)
(16.6342 7.82888 1.84055e-18)
(16.8074 7.8531 -1.49642e-17)
(16.969 7.87235 2.99141e-17)
(17.1213 7.88456 -6.0966e-17)
(17.2664 7.89033 3.10252e-17)
(17.4063 7.89043 0)
(17.5426 7.88483 1.56069e-17)
(17.6758 7.87311 9.4724e-17)
(17.8064 7.85489 -6.41912e-17)
(17.9353 7.82998 0)
(18.0625 7.79766 -8.13517e-18)
(18.1874 7.75671 2.35463e-17)
(18.309 7.70607 -2.8976e-19)
(18.4269 7.64529 -3.00887e-17)
(18.5402 7.57426 3.30188e-17)
(18.6476 7.49289 -2.89253e-17)
(18.748 7.40124 2.8231e-17)
(18.84 7.29963 -2.81741e-17)
(18.9225 7.18866 -2.78139e-17)
(18.9941 7.06902 2.40545e-17)
(19.0501 6.95228 -1.20216e-17)
(19.0921 6.84274 1.53076e-17)
(19.1244 6.7339 -1.44013e-17)
(19.1476 6.62648 -2.57378e-18)
(19.1623 6.52106 1.35298e-17)
(19.1694 6.41811 0)
(19.1696 6.31794 0)
(19.1634 6.22073 -1.27912e-17)
(19.1514 6.12661 1.35993e-17)
(19.1342 6.03564 0)
(19.112 5.94786 8.64792e-19)
(19.0854 5.86332 8.66919e-19)
(19.0544 5.78203 7.3378e-18)
(19.0195 5.70389 -7.32651e-18)
(18.9808 5.62906 -3.47789e-18)
(18.9385 5.55779 3.4677e-18)
(18.8929 5.48997 -1.31096e-18)
(18.844 5.42571 3.50016e-18)
(18.7923 5.36533 -1.69523e-18)
(18.738 5.30881 -2.17023e-19)
(16.5205 7.6115 1.34029e-17)
(16.6895 7.64074 1.67515e-17)
(16.8436 7.66053 -1.76975e-19)
(16.9872 7.67572 0)
(17.1222 7.68461 0)
(17.2504 7.68786 0)
(17.3737 7.68622 0)
(17.4933 7.67972 -5.9536e-17)
(17.6099 7.66806 1.06035e-16)
(17.7238 7.65098 -6.14186e-17)
(17.8358 7.62834 6.14256e-17)
(17.946 7.59961 -3.90352e-17)
(18.0538 7.56387 6.92872e-17)
(18.1587 7.52029 -8.26032e-17)
(18.2603 7.46854 2.93675e-17)
(18.3579 7.40851 2.149e-17)
(18.4507 7.34009 -2.82659e-17)
(18.5378 7.26328 3.42658e-18)
(18.6182 7.17822 -3.47383e-18)
(18.691 7.08529 3.41104e-17)
(18.755 6.98486 3.01516e-17)
(18.8062 6.88634 -5.02112e-17)
(18.8456 6.79327 -1.63438e-18)
(18.8768 6.70034 0)
(18.9001 6.60816 1.62681e-18)
(18.9161 6.51728 -1.66496e-18)
(18.9252 6.42815 -1.15253e-17)
(18.9281 6.34112 1.31533e-17)
(18.9252 6.25643 -1.32004e-17)
(18.917 6.17429 1.31636e-17)
(18.9039 6.09484 1.32287e-17)
(18.8863 6.01818 -1.40061e-17)
(18.8646 5.94443 -8.18768e-19)
(18.8389 5.87365 6.64449e-18)
(18.8097 5.80579 -5.37373e-18)
(18.7772 5.74099 0)
(18.7417 5.67947 0)
(18.7033 5.62112 -4.13586e-19)
(18.6624 5.566 8.39702e-19)
(18.6193 5.51432 8.40456e-19)
(18.5741 5.4662 2.03595e-19)
(16.5836 7.45467 0)
(16.7347 7.47919 -3.13771e-18)
(16.8726 7.49534 2.56109e-17)
(17.0008 7.50722 -2.63478e-17)
(17.1211 7.51341 -5.33262e-17)
(17.235 7.51461 5.49681e-17)
(17.3443 7.51154 2.75339e-17)
(17.45 7.50426 -5.6948e-17)
(17.5527 7.49258 -5.73112e-17)
(17.6528 7.47629 5.85169e-17)
(17.7507 7.45532 0)
(17.8468 7.42926 -2.96926e-17)
(17.9405 7.39742 5.94998e-17)
(18.0314 7.35916 -6.56706e-17)
(18.1193 7.31424 0)
(18.2036 7.26257 -7.01334e-18)
(18.2839 7.20407 6.90198e-18)
(18.3592 7.13869 0)
(18.429 7.06654 3.30285e-18)
(18.4926 6.98784 -6.54928e-18)
(18.5489 6.90282 2.94778e-17)
(18.5946 6.81919 -2.92534e-17)
(18.6304 6.73986 3.25204e-18)
(18.6592 6.66044 2.40618e-17)
(18.6813 6.58145 -2.39782e-17)
(18.697 6.50339 1.5783e-18)
(18.7068 6.42665 -1.43448e-17)
(18.7111 6.35158 1.27284e-17)
(18.7102 6.27843 1.60547e-18)
(18.7047 6.20741 0)
(18.6948 6.13868 0)
(18.681 6.0724 0)
(18.6634 6.00866 -6.37749e-18)
(18.6424 5.94757 6.35449e-18)
(18.6183 5.88908 -7.8937e-19)
(18.5914 5.83333 -6.3835e-18)
(18.5619 5.78048 7.15925e-18)
(18.5301 5.73043 0)
(18.4961 5.68321 9.32698e-21)
(18.4605 5.63894 -1.58997e-18)
(18.423 5.59782 7.762e-19)
(16.6363 7.31859 1.13787e-17)
(16.7719 7.33917 0)
(16.8957 7.35231 -5.93109e-17)
(17.0107 7.36147 4.90267e-17)
(17.1183 7.36546 0)
(17.2201 7.36499 5.11344e-17)
(17.3175 7.36076 -2.2615e-19)
(17.4114 7.35285 5.33753e-17)
(17.5023 7.34112 -8.21001e-17)
(17.5906 7.32544 -5.51724e-17)
(17.6768 7.30576 5.63112e-17)
(17.7609 7.28179 1.40762e-17)
(17.8428 7.25299 0)
(17.9219 7.21889 0)
(17.9983 7.17931 -1.38035e-17)
(18.0714 7.13419 6.03195e-17)
(18.1408 7.08347 -1.19083e-16)
(18.206 7.02713 5.23599e-17)
(18.2664 6.96523 6.5154e-18)
(18.3215 6.89796 6.46493e-18)
(18.3705 6.82542 -3.13771e-18)
(18.4106 6.75402 4.7148e-17)
(18.4424 6.68615 -8.10112e-17)
(18.4684 6.61816 1.53181e-18)
(18.4885 6.55047 2.32027e-17)
(18.5032 6.48351 0)