/*--------------------------------*- C++ -*----------------------------------*\
| =========                 |                                                 |
| \\      /  F ield         | OpenFOAM: The Open Source CFD Toolbox           |
|  \\    /   O peration     | Version:  5.x                                   |
|   \\  /    A nd           | Web:      www.OpenFOAM.org                      |
|    \\/     M anipulation  |                                                 |
\*---------------------------------------------------------------------------*/
FoamFile
{
    version     2.0;
    format      ascii;
    class       volVectorField;
    location    "300";
    object      U;
}
// * * * * * * * * * * * * * * * * * * * * * * * * * * * * * * * * * * * * * //

dimensions      [0 1 -1 0 0 0 0];

internalField   nonuniform List<vector> 
11040
(
(1.69282 2.17013 0)
(1.84357 7.87441 -1.06698e-19)
(4.31625 12.8135 1.10297e-17)
(7.65254 15.6177 1.43619e-17)
(11.1741 16.8309 3.83124e-17)
(14.4219 16.8674 -2.11911e-17)
(17.2016 16.093 -2.21555e-17)
(19.4766 14.8106 2.35311e-17)
(21.1757 13.1537 5.63495e-17)
(22.2183 11.1898 1.83742e-18)
(22.3439 8.79994 3.13462e-17)
(21.84 6.53717 -1.9772e-18)
(21.3667 4.92588 3.26461e-17)
(21.2331 3.91351 3.44812e-17)
(21.124 3.05614 3.04384e-17)
(20.8555 2.24096 2.02055e-17)
(20.4444 1.49591 -1.81441e-17)
(19.9573 0.831958 -1.96826e-18)
(19.4255 0.241022 1.9953e-18)
(18.8608 -0.283521 1.54882e-17)
(18.2629 -0.743865 1.51792e-17)
(17.7262 -1.11099 1.58412e-17)
(17.2397 -1.38691 3.05174e-17)
(16.7584 -1.61895 1.96769e-18)
(16.2819 -1.81537 -2.55108e-20)
(15.8109 -1.98069 -9.81285e-19)
(15.3443 -2.11902 6.10236e-17)
(14.8797 -2.23369 -9.32571e-19)
(14.4141 -2.3273 6.09172e-17)
(13.9439 -2.40186 -5.85316e-17)
(13.4648 -2.45882 -9.34334e-19)
(12.9704 -2.49893 -4.49804e-19)
(12.4528 -2.5221 4.6059e-19)
(11.9025 -2.52712 0)
(11.3025 -2.51156 -1.14724e-16)
(10.6354 -2.47105 0)
(9.8702 -2.39618 0)
(8.98145 -2.27804 2.21063e-19)
(7.82714 -2.07729 -5.94577e-21)
(6.54639 -1.78787 1.26358e-16)
(3.83131 -1.41515 2.9553e-16)
(2.82533 2.9391 0)
(3.32875 7.36695 0)
(6.15851 11.1264 -6.64016e-18)
(9.62119 13.3079 8.83655e-18)
(13.1578 14.2401 -2.32455e-17)
(16.3925 14.2264 2.82805e-17)
(19.1501 13.5389 1.47877e-17)
(21.3786 12.3929 2.12288e-18)
(23.1385 10.9879 -1.00713e-18)
(24.5158 9.48772 2.22824e-17)
(25.4324 7.77518 -2.49718e-18)
(25.5263 6.18047 0)
(25.0712 4.98257 0)
(24.5616 4.07254 -2.08871e-17)
(24.1689 3.14785 -2.35913e-17)
(23.7296 2.26737 -1.84091e-17)
(23.2253 1.48454 0)
(22.6794 0.788598 1.27517e-18)
(22.0959 0.165305 -3.80982e-18)
(21.4734 -0.389011 -2.49469e-18)
(20.8115 -0.876173 -1.09398e-17)
(20.1971 -1.26221 -1.02747e-17)
(19.6527 -1.55504 -1.2572e-18)
(19.1193 -1.80438 2.14868e-17)
(18.5951 -2.01749 -1.87538e-17)
(18.0791 -2.19783 -1.26793e-18)
(17.5706 -2.34991 -3.91208e-17)
(17.0679 -2.47715 5.963e-19)
(16.5687 -2.58226 -3.88081e-17)
(16.0699 -2.66741 3.77032e-17)
(15.5678 -2.73421 3.77581e-17)
(15.0576 -2.7836 -3.78026e-17)
(14.5326 -2.81557 1.78733e-20)
(13.9853 -2.82899 8.37502e-19)
(13.4026 -2.82198 3.46004e-17)
(12.7709 -2.78999 0)
(12.0646 -2.72349 2.57148e-19)
(11.2713 -2.61486 -6.60467e-17)
(10.2551 -2.42191 -6.45178e-17)
(9.20388 -2.15927 -6.30897e-17)
(6.76033 -1.59969 -2.06056e-16)
(4.45729 3.38416 0)
(5.17724 6.91733 0)
(7.26842 10.0546 1.98887e-18)
(9.92887 12.1581 -5.84536e-18)
(12.7907 13.3486 6.81212e-18)
(15.591 13.7285 -1.00487e-17)
(18.1458 13.4352 -9.59676e-18)
(20.3512 12.6234 0)
(22.1542 11.4359 -1.81608e-17)
(23.5726 9.98438 -1.15668e-17)
(24.5927 8.27308 0)
(25.0345 6.68224 0)
(25.0308 5.44207 -1.56742e-17)
(24.8984 4.45598 -1.58497e-17)
(24.7512 3.47938 -1.98852e-18)
(24.497 2.56076 2.0291e-18)
(24.1304 1.7359 0)
(23.6921 0.99389 0)
(23.1987 0.323722 9.90504e-19)
(22.6525 -0.277017 -1.91267e-18)
(22.0545 -0.809248 1.92405e-18)
(21.4859 -1.23227 -6.02746e-18)
(20.9707 -1.55779 -5.04393e-20)
(20.4582 -1.83725 1.27496e-17)
(19.9485 -2.07722 1.00838e-18)
(19.4419 -2.28165 9.26522e-19)
(18.9382 -2.45523 8.24562e-21)
(18.4367 -2.60162 -9.45948e-19)
(17.9355 -2.72369 0)
(17.4323 -2.82374 0)
(16.9238 -2.90345 -5.69578e-17)
(16.4054 -2.96381 5.55385e-17)
(15.8714 -3.00487 -2.70368e-17)
(15.3149 -3.02548 0)
(14.7238 -3.02352 -2.63257e-17)
(14.0869 -2.99424 -2.57394e-17)
(13.3821 -2.92839 0)
(12.6032 -2.81535 -2.56541e-19)
(11.6325 -2.62089 1.88752e-19)
(10.6822 -2.32589 0)
(8.65129 -1.82118 9.13231e-17)
(6.11523 3.68243 -1.04263e-19)
(6.85989 6.52055 1.24197e-19)
(8.45333 9.09128 1.51769e-18)
(10.5787 10.9618 0)
(12.981 12.152 -1.04643e-17)
(15.4442 12.6649 0)
(17.7905 12.5634 2.18321e-17)
(19.8897 11.9575 -2.45883e-19)
(21.6567 10.9676 2.50136e-18)
(23.0592 9.71568 1.91171e-17)
(24.064 8.22408 2.81379e-18)
(24.5771 6.73986 8.7437e-18)
(24.7029 5.50717 2.75195e-17)
(24.6944 4.52072 1.24872e-17)
(24.6642 3.58657 0)
(24.5409 2.69454 -3.10982e-18)
(24.3007 1.87492 6.03196e-20)
(23.9753 1.12833 -3.06481e-18)
(23.5859 0.447728 -1.52899e-18)
(23.1381 -0.168491 1.54849e-18)
(22.6336 -0.719722 5.99726e-18)
(22.1434 -1.16335 6.39e-18)
(21.6899 -1.50842 0)
(21.2305 -1.80675 -2.66489e-17)
(20.7665 -2.06481 1.40012e-17)
(20.2991 -2.28672 -1.22854e-17)
(19.8294 -2.47683 2.42453e-17)
(19.3574 -2.6387 0)
(18.882 -2.77511 0)
(18.4012 -2.8883 0)
(17.9123 -2.97992 2.26776e-17)
(17.4118 -3.05091 -2.29301e-17)
(16.8945 -3.10127 6.97116e-19)
(16.3545 -3.12979 2.19717e-17)
(15.7807 -3.13413 2.01198e-17)
(15.1636 -3.10921 2.05613e-17)
(14.4837 -3.04614 3.94003e-17)
(13.7375 -2.93136 3.74973e-17)
(12.8222 -2.73979 1.46652e-19)
(11.9364 -2.41829 3.44535e-17)
(10.2219 -1.96361 -3.39924e-17)
(7.67317 3.85231 0)
(8.39786 6.12917 -5.41579e-19)
(9.64532 8.2018 -1.21214e-18)
(11.3093 9.8263 2.09767e-19)
(13.2631 10.9808 7.40425e-18)
(15.3528 11.6082 -9.74456e-18)
(17.4339 11.7091 -8.30868e-19)
(19.3756 11.3376 -1.35167e-17)
(21.0718 10.579 0)
(22.4695 9.53117 -1.79412e-17)
(23.5285 8.2264 0)
(24.1543 6.85271 -4.8055e-18)
(24.3957 5.64354 -1.45673e-17)
(24.4574 4.64671 0)
(24.4709 3.72273 9.78996e-18)
(24.4067 2.83752 0)
(24.2362 2.01732 0)
(23.9803 1.26809 2.53195e-18)
(23.6594 0.58279 2.49381e-18)
(23.2807 -0.0413344 0)
(22.8465 -0.603173 -4.83059e-18)
(22.4194 -1.05885 0)
(22.0209 -1.41597 0)
(21.6147 -1.72677 1.01691e-17)
(21.2019 -1.99759 0)
(20.7835 -2.23252 -9.98447e-18)
(20.3599 -2.43557 -1.97511e-17)
(19.931 -2.61013 0)
(19.4959 -2.75882 0)
(19.0529 -2.88369 0)
(18.6002 -2.98621 -1.9697e-17)
(18.1347 -3.06719 -1.64762e-17)
(17.6522 -3.12652 1.72488e-17)
(17.1473 -3.16288 5.34059e-19)
(16.6107 -3.17372 -5.38396e-19)
(16.0346 -3.15364 0)
(15.4024 -3.09407 -3.18959e-17)
(14.7135 -2.97898 3.07222e-17)
(13.8806 -2.79081 -2.95021e-17)
(13.0806 -2.45608 -2.73936e-17)
(11.6481 -2.02985 -5.38406e-20)
(9.11264 3.91346 2.01456e-19)
(9.78728 5.73453 2.82817e-19)
(10.782 7.39221 -1.74412e-18)
(12.0777 8.76868 1.15112e-18)
(13.6393 9.83522 -1.74526e-18)
(15.3702 10.5128 9.75021e-18)
(17.1666 10.765 -1.20056e-17)
(18.915 10.6003 1.07937e-17)
(20.5045 10.0664 6.07185e-18)
(21.8658 9.2377 -3.27818e-18)
(22.9561 8.1522 0)
(23.6881 6.93737 0)
(24.0579 5.78767 3.84002e-18)
(24.2063 4.78948 -3.95175e-18)
(24.2644 3.87027 -1.59022e-17)
(24.2416 2.99329 3.99014e-18)
(24.1181 2.17489 -8.04873e-18)
(23.9076 1.42376 5.96482e-20)
(23.6303 0.734737 -3.95456e-18)
(23.2954 0.104627 7.92544e-18)
(22.9061 -0.465017 -9.7869e-18)
(22.5196 -0.929312 4.15212e-18)
(22.157 -1.29489 -2.09484e-18)
(21.7867 -1.61428 -2.03835e-18)
(21.4102 -1.8937 1.02709e-17)
(21.0285 -2.13746 2.74989e-20)
(20.6422 -2.34946 1.81811e-17)
(20.2509 -2.53295 1.39441e-17)
(19.8539 -2.69046 0)
(19.4496 -2.82389 0)
(19.0359 -2.93465 1.43829e-17)
(18.61 -3.02341 3.10091e-17)
(18.1682 -3.08996 9.05625e-19)
(17.7062 -3.13281 -1.4405e-17)
(17.2161 -3.1492 -1.48767e-17)
(16.6921 -3.13352 1.40051e-17)
(16.1208 -3.0777 -4.18871e-19)
(15.5047 -2.96429 -5.0405e-17)
(14.7732 -2.78173 4.82321e-17)
(14.0804 -2.44813 -8.61466e-20)
(12.9277 -2.04986 -2.18137e-17)
(10.4219 3.88553 0)
(11.0318 5.33852 8.72708e-19)
(11.8375 6.65883 3.04004e-18)
(12.8496 7.80077 1.20795e-18)
(14.0822 8.74616 5.17816e-18)
(15.4844 9.41921 6.05766e-18)
(16.9914 9.76903 -1.088e-17)
(18.5176 9.77489 3.91592e-18)
(19.9635 9.45028 0)
(21.2549 8.8406 5.4706e-18)
(22.3461 7.97872 -1.12418e-17)
(23.1579 6.94799 1.17138e-17)
(23.6504 5.89678 -5.63896e-20)
(23.902 4.92712 0)
(24.0232 4.02391 3.30772e-18)
(24.0495 3.16237 2.03695e-20)
(23.9741 2.35038 3.29876e-18)
(23.8069 1.59888 3.31175e-18)
(23.5673 0.906897 -1.62756e-18)
(23.2672 0.271871 -2.81041e-18)
(22.9116 -0.304333 3.30715e-18)
(22.5543 -0.775945 3.4356e-18)
(22.2163 -1.14884 0)
(21.8697 -1.47548 -3.33724e-18)
(21.5166 -1.76188 -6.65416e-18)
(21.1584 -2.01243 8.41638e-18)
(20.7961 -2.23087 -4.92942e-18)
(20.4297 -2.4204 -1.31246e-17)
(20.0588 -2.58359 1.59852e-18)
(19.6822 -2.72242 -4.28577e-20)
(19.2981 -2.83824 9.43917e-18)
(18.9042 -2.93167 3.08145e-18)
(18.4976 -3.00237 1.06095e-17)
(18.0743 -3.04881 0)
(17.6281 -3.06821 1.15763e-17)
(17.1548 -3.05496 -1.19312e-17)
(16.6447 -3.00162 1.12633e-17)
(16.1027 -2.8905 4.17654e-17)
(15.4765 -2.71462 -1.95639e-17)
(14.8927 -2.39477 -7.16201e-20)
(14.009 -2.02599 3.59024e-17)
(11.5957 3.78875 -1.13117e-18)
(12.1369 4.94593 3.48221e-19)
(12.7981 5.99491 1.21644e-19)
(13.5962 6.92642 -3.92017e-18)
(14.564 7.73564 -2.3311e-18)
(15.6809 8.36237 -7.7974e-18)
(16.9131 8.75719 6.04341e-18)
(18.205 8.88605 1.02228e-17)
(19.4783 8.7386 -7.10098e-18)
(20.665 8.33319 0)
(21.7201 7.69118 -4.65467e-18)
(22.5736 6.86086 -1.83877e-19)
(23.1655 5.94498 -1.91996e-19)
(23.5226 5.04016 5.04665e-18)
(23.7227 4.17161 5.22735e-18)
(23.8102 3.336 -5.30538e-18)
(23.7913 2.53904 0)
(23.6746 1.79269 0)
(23.4777 1.1008 6.69225e-18)
(23.2148 0.462741 -5.74904e-18)
(22.8926 -0.118967 2.60076e-18)
(22.5625 -0.597267 -2.86427e-18)
(22.2459 -0.977058 -2.77117e-18)
(21.9188 -1.31041 0)
(21.5841 -1.60313 -2.72769e-18)
(21.2435 -1.85964 2.77327e-18)
(20.8982 -2.08362 5.44718e-18)
(20.5489 -2.2782 0)
(20.1954 -2.4459 0)
(19.8371 -2.58861 -1.29509e-18)
(19.4728 -2.70758 -1.03222e-17)
(19.1008 -2.80338 -8.89628e-18)
(18.7189 -2.87571 -1.87605e-17)
(18.3242 -2.92313 -1.24274e-18)
(17.9121 -2.94302 0)
(17.48 -2.9299 5.70897e-19)
(17.0217 -2.87715 -9.57306e-18)
(16.5432 -2.76834 1.09926e-19)
(16.0103 -2.59923 -1.69347e-17)
(15.5188 -2.30291 -1.54008e-17)
(14.8624 -1.96161 -1.49255e-17)
(12.6343 3.64111 6.4398e-19)
(13.1093 4.56163 1.07374e-20)
(13.6576 5.39362 -1.52904e-18)
(14.2947 6.1438 3.45692e-18)
(15.0555 6.81729 0)
(15.936 7.37176 4.43383e-18)
(16.9231 7.76739 -9.28394e-18)
(17.9862 7.96948 -5.94542e-18)
(19.0712 7.95562 5.66478e-18)
(20.1242 7.72444 6.79303e-18)
(21.1058 7.28422 4.36351e-19)
(21.9572 6.65639 -1.48823e-17)
(22.6124 5.90254 0)
(23.0616 5.09946 4.10752e-18)
(23.3464 4.29221 -8.43762e-18)
(23.505 3.49921 -4.2506e-18)
(23.5513 2.73043 -4.36096e-18)
(23.4942 1.99907 4.42547e-18)
(23.3492 1.31352 -2.189e-18)
(23.1308 0.676521 0)
(22.8477 0.0919172 5.44284e-18)
(22.5485 -0.391558 -9.21404e-18)
(22.2556 -0.777529 6.81581e-18)
(21.9493 -1.11724 -6.98856e-20)
(21.6331 -1.41607 -4.47995e-18)
(21.3094 -1.67835 4.5508e-18)
(20.98 -1.90763 0)
(20.6458 -2.1069 -1.09902e-17)
(20.3071 -2.27859 -4.34532e-18)
(19.9637 -2.42453 -2.18153e-18)
(19.6149 -2.54595 8.47772e-18)
(19.2596 -2.64339 2.05935e-18)
(18.8963 -2.71654 -2.07066e-18)
(18.5231 -2.76401 9.89555e-19)
(18.1367 -2.78328 5.89249e-18)
(17.7364 -2.76937 9.72714e-19)
(17.3191 -2.71662 0)
(16.8906 -2.61118 -1.47375e-17)
(16.4328 -2.44967 1.41695e-17)
(16.0114 -2.1836 1.30224e-17)
(15.5187 -1.87013 0)
(13.5429 3.45835 0)
(13.9568 4.1902 0)
(14.4154 4.84899 0)
(14.9303 5.44718 -9.25631e-18)
(15.5319 5.99546 6.60451e-18)
(16.2233 6.46663 -3.44753e-18)
(17.0033 6.83235 -4.01141e-18)
(17.8581 7.0641 -3.4947e-19)
(18.7551 7.13707 4.59042e-18)
(19.6567 7.03937 5.4162e-18)
(20.5336 6.76905 -5.57494e-18)
(21.3399 6.32855 6.40409e-18)
(22.0142 5.74682 -2.61014e-19)
(22.5266 5.07484 6.63609e-18)
(22.888 4.35891 -1.36849e-17)
(23.1203 3.63094 1.05811e-17)
(23.2372 2.9082 7.13227e-18)
(23.2473 2.2062 -7.22362e-18)
(23.1633 1.53744 3.62741e-18)
(22.9988 0.908802 0)
(22.7632 0.326344 8.04501e-18)
(22.5017 -0.159129 -5.68081e-18)
(22.2377 -0.54946 -1.84529e-18)
(21.9565 -0.894402 3.70403e-18)
(21.6625 -1.19871 -7.43579e-18)
(21.3586 -1.46637 0)
(21.0472 -1.70073 0)
(20.7297 -1.90456 3.68174e-18)
(20.4069 -2.08015 1.7915e-17)
(20.0791 -2.22926 7.03969e-18)
(19.7459 -2.35304 -6.96599e-18)
(19.407 -2.452 -1.68774e-18)
(19.0614 -2.52588 8.42798e-18)
(18.7081 -2.57345 1.62312e-18)
(18.345 -2.5925 -9.65205e-18)
(17.9723 -2.57875 1.59557e-18)
(17.5898 -2.52744 6.13281e-18)
(17.2026 -2.42794 -7.2747e-19)
(16.8038 -2.27695 -1.078e-17)
(16.4364 -2.0447 0)
(16.0489 -1.76424 0)
(14.3294 3.25396 0)
(14.6885 3.8356 0)
(15.0743 4.35623 -1.95899e-20)
(15.495 4.82946 5.36735e-18)
(15.9748 5.26823 0)
(16.5187 5.65629 6.21733e-18)
(17.1306 5.97521 3.36019e-18)
(17.8069 6.20448 0)
(18.5302 6.3226 -8.06345e-18)
(19.2777 6.31473 3.63469e-18)
(20.0307 6.17354 -5.21738e-19)
(20.7569 5.89035 4.83072e-18)
(21.4062 5.47182 -5.4324e-18)
(21.9429 4.94472 0)
(22.3575 4.34472 -1.10311e-17)
(22.6543 3.70572 1.1362e-17)
(22.8397 3.05003 0)
(22.9196 2.39584 0)
(22.9027 1.7588 2.94477e-18)
(22.8002 1.1499 -1.19106e-17)
(22.621 0.578044 5.87566e-18)
(22.405 0.0962946 0)
(22.1765 -0.294723 -6.07119e-18)
(21.9265 -0.642311 1.10818e-19)
(21.6601 -0.950329 6.15005e-18)
(21.3809 -1.2222 -2.98961e-18)
(21.0917 -1.46085 0)
(20.7948 -1.66877 0)
(20.4913 -1.84805 2.84417e-18)
(20.182 -2.00029 -1.15429e-17)
(19.8673 -2.12656 5.68046e-18)
(19.5472 -2.22737 -5.65167e-18)
(19.2214 -2.30252 -2.78243e-18)
(18.8898 -2.35102 0)
(18.5512 -2.37109 -3.97533e-18)
(18.2067 -2.35933 -3.78336e-20)
(17.8578 -2.31201 -1.13139e-17)
(17.5088 -2.22194 0)
(17.1591 -2.086 9.38603e-18)
(16.8372 -1.88866 -9.21088e-18)
(16.5171 -1.64778 0)
(15.0033 3.03914 0)
(15.3139 3.50115 2.57327e-18)
(15.6398 3.91158 -2.28416e-18)
(15.9868 4.28341 0)
(16.3728 4.62985 -5.29081e-18)
(16.803 4.9418 -2.28448e-19)
(17.2827 5.20808 2.30126e-17)
(17.813 5.41527 -3.03073e-17)
(18.386 5.54718 1.90334e-17)
(18.9896 5.59049 1.75207e-17)
(19.6139 5.53677 -1.45339e-17)
(20.239 5.37299 -4.04042e-18)
(20.8282 5.09288 8.27686e-18)
(21.3491 4.70547 -4.32292e-18)
(21.7836 4.23231 1.39414e-17)
(22.1229 3.70044 -9.23716e-18)
(22.3643 3.1318 -4.65289e-18)
(22.508 2.54528 -2.36282e-18)
(22.5581 1.95807 -8.46425e-18)
(22.5215 1.38412 1.83208e-17)
(22.4051 0.835046 -9.69689e-18)
(22.2413 0.365794 -3.08522e-19)
(22.0549 -0.0198333 -1.25396e-18)
(21.8425 -0.365447 0)
(21.6099 -0.673732 7.36719e-18)
(21.361 -0.94727 -2.47514e-18)
(21.0995 -1.18838 -7.22053e-18)
(20.828 -1.39913 4.85746e-18)
(20.5485 -1.58127 -9.4801e-18)
(20.2622 -1.73621 4.74647e-18)
(19.97 -1.86492 0)
(19.6725 -1.96789 6.86212e-18)
(19.3703 -2.04503 2.26737e-18)
(19.0637 -2.09567 -2.1708e-18)
(18.7526 -2.11852 1.2917e-17)
(18.4386 -2.11115 2.08599e-18)
(18.1243 -2.07096 4.09986e-18)
(17.8133 -1.99367 -4.02595e-18)
(17.5075 -1.8771 -3.92374e-18)
(17.2266 -1.7144 7.26645e-18)
(16.9545 -1.51678 2.31954e-19)
(15.575 2.82284 0)
(15.843 3.18943 -1.33063e-19)
(16.1191 3.51195 -2.17197e-18)
(16.4072 3.80224 -9.10235e-18)
(16.7205 4.07275 4.29091e-18)
(17.0633 4.31875 -5.09102e-18)
(17.4406 4.53382 -5.34935e-18)
(17.8553 4.70977 2.04935e-17)
(18.3046 4.83547 -5.52235e-18)
(18.7829 4.90078 -1.15536e-17)
(19.2864 4.89856 1.84996e-17)
(19.8043 4.81593 -1.26688e-17)
(20.3123 4.6415 -6.67557e-18)
(20.7858 4.37362 3.67631e-18)
(21.2061 4.02185 0)
(21.5587 3.60321 0)
(21.8338 3.13453 1.9572e-17)
(22.0261 2.63231 2.14661e-18)
(22.1341 2.11286 -1.58454e-17)
(22.1603 1.59101 1.01876e-18)
(22.1076 1.0799 -8.90927e-18)
(21.9998 0.634863 1.64806e-17)
(21.8599 0.263272 -8.10745e-18)
(21.6903 -0.0734229 0)
(21.4968 -0.376481 9.9073e-19)
(21.2839 -0.647402 -7.8857e-18)
(21.0554 -0.887681 9.94474e-18)
(20.8147 -1.09877 -7.74023e-18)
(20.5642 -1.28201 5.88156e-18)
(20.3057 -1.43852 0)
(20.0407 -1.56911 -3.74984e-18)
(19.7704 -1.67425 -7.38408e-18)
(19.4959 -1.75398 3.68787e-18)
(19.2182 -1.80795 -3.54138e-18)
(18.9378 -1.83543 -1.69078e-18)
(18.6568 -1.83491 3.45614e-18)
(18.3782 -1.8049 -5.08394e-18)
(18.1051 -1.7433 3.27035e-18)
(17.8401 -1.64916 2.39251e-18)
(17.5968 -1.52014 4.0448e-19)
(17.3639 -1.36523 -5.7526e-18)
(16.0553 2.61191 2.06226e-18)
(16.2858 2.90223 8.37358e-18)
(16.5201 3.15461 -7.93475e-18)
(16.7605 3.37974 0)
(17.0166 3.58884 6.9533e-20)
(17.2919 3.77974 0)
(17.5904 3.94891 2.60813e-17)
(17.9153 4.09162 -2.19554e-17)
(18.2662 4.20068 -1.88214e-17)
(18.641 4.26907 2.38676e-17)
(19.0392 4.29171 -1.01625e-17)
(19.4558 4.25801 5.22867e-18)
(19.8762 4.1562 5.69038e-18)
(20.2836 3.98012 1.17056e-17)
(20.6632 3.73158 3.16354e-19)
(21.0004 3.41868 -1.22597e-17)
(21.2829 3.05167 9.67084e-18)
(21.5016 2.6423 -1.27582e-17)
(21.6507 2.20371 0)
(21.7283 1.74927 -1.30749e-17)
(21.7334 1.29178 8.75709e-19)
(21.6797 0.884299 1.2821e-17)
(21.5876 0.537396 -1.00754e-19)
(21.4632 0.218663 0)
(21.3123 -0.0716352 -8.21131e-19)
(21.1393 -0.333758 -7.97745e-19)
(20.9484 -0.56822 0)
(20.7431 -0.775728 0)
(20.5263 -0.957078 2.18136e-20)
(20.3002 -1.11302 0)
(20.0669 -1.24414 4.59087e-18)
(19.8279 -1.35084 0)
(19.585 -1.43328 -5.89284e-18)
(19.3395 -1.49139 5.8579e-18)
(19.0926 -1.52496 0)
(18.8465 -1.53327 -2.80358e-18)
(18.6042 -1.51572 2.74449e-18)
(18.3684 -1.47174 -1.373e-18)
(18.1413 -1.40141 -3.98819e-18)
(17.9323 -1.30443 3.20203e-19)
(17.7337 -1.18876 7.18734e-18)
(16.4549 2.41135 -5.58329e-18)
(16.6526 2.64055 -2.23384e-19)
(16.8515 2.83693 3.65774e-18)
(17.0527 3.01023 7.2451e-18)
(17.2633 3.17025 1.8372e-17)
(17.4859 3.31624 -2.19132e-17)
(17.7237 3.44634 2.28133e-20)
(17.9794 3.55797 1.55561e-17)
(18.2535 3.64663 -3.16251e-17)
(18.5457 3.70781 -4.52101e-19)
(18.8568 3.7382 2.10084e-17)
(19.1852 3.72998 -8.8246e-18)
(19.5224 3.67332 1.84676e-17)
(19.8581 3.56125 -2.78442e-17)
(20.1823 3.39191 4.78752e-18)
(20.4832 3.16753 0)
(20.7492 2.89267 2.3487e-17)
(20.9707 2.57421 -2.08913e-17)
(21.1396 2.22099 -2.13307e-17)
(21.2511 1.84323 4.0142e-17)
(21.3011 1.45163 -2.12976e-17)
(21.2939 1.09387 9.99548e-19)
(21.2458 0.78246 8.43507e-20)
(21.1653 0.491579 1.06065e-17)
(21.0572 0.222829 -2.10295e-17)
(20.9257 -0.0228851 1.11681e-17)
(20.7746 -0.245087 -9.65833e-18)
(20.6076 -0.443692 1.16134e-17)
(20.4278 -0.618883 1.13693e-17)
(20.2376 -0.770962 -1.01245e-17)
(20.0394 -0.900247 -2.47979e-18)
(19.8352 -1.00701 -3.63209e-18)
(19.6268 -1.09143 1.08547e-17)
(19.4161 -1.15367 -9.49784e-18)
(19.2044 -1.1939 4.70752e-18)
(18.9941 -1.21196 2.29355e-18)
(18.7879 -1.2079 0)
(18.5878 -1.18204 2.19857e-18)
(18.3959 -1.13509 2.15369e-18)
(18.2183 -1.0676 2.13962e-18)
(18.0501 -0.98635 -2.05013e-18)
(16.7835 2.22447 -9.17435e-20)
(16.9526 2.40458 -8.27635e-19)
(17.1213 2.55632 -3.20459e-18)
(17.2901 2.68861 6.58496e-18)
(17.4641 2.80978 -2.55244e-17)
(17.6452 2.91982 2.60389e-17)
(17.8359 3.01781 -3.24252e-17)
(18.0383 3.10242 -2.02096e-17)
(18.2532 3.17091 6.19504e-18)
(18.4809 3.22047 -6.02245e-19)
(18.7227 3.2491 2.82576e-17)
(18.9783 3.25141 8.68465e-20)
(19.243 3.22001 0)
(19.511 3.14896 7.91193e-18)
(19.7759 3.03532 -8.00586e-18)
(20.0297 2.87847 8.05648e-18)
(20.2634 2.67937 0)
(20.4682 2.441 -1.72641e-17)
(20.6367 2.1684 3.69024e-17)
(20.7624 1.86827 -1.30733e-17)
(20.84 1.54824 1.74697e-17)
(20.8668 1.2482 -1.90441e-17)
(20.8545 0.980824 -5.3003e-19)
(20.812 0.726543 1.95921e-19)
(20.7431 0.487814 -1.70023e-17)
(20.651 0.266388 1.70206e-17)
(20.5392 0.0635199 -5.32571e-19)
(20.411 -0.120016 -1.05382e-18)
(20.2693 -0.283826 8.19568e-18)
(20.1166 -0.427764 -9.21788e-18)
(19.9553 -0.551834 1.01422e-18)
(19.7875 -0.656128 -9.99431e-19)
(19.6153 -0.740784 3.89933e-18)
(19.4405 -0.806035 -1.99469e-18)
(19.2647 -0.852282 -7.60717e-18)
(19.09 -0.879675 1.90162e-18)
(18.9187 -0.888586 -1.828e-18)
(18.7525 -0.879795 3.63778e-18)
(18.593 -0.854236 -1.78551e-18)
(18.4442 -0.812723 -1.73775e-18)
(18.3035 -0.760643 0)
(17.0502 2.0528 9.07997e-18)
(17.1943 2.19344 -1.68873e-17)
(17.3371 2.30973 -1.7557e-17)
(17.4788 2.40986 4.52744e-17)
(17.6229 2.5007 -1.67877e-17)
(17.7709 2.58252 3.97125e-17)
(17.9247 2.65495 -3.40989e-17)
(18.086 2.71735 5.165e-17)
(18.2553 2.76807 -5.24123e-17)
(18.4332 2.80538 -4.0053e-19)
(18.621 2.8281 2.39554e-17)
(18.8188 2.83266 3.11847e-18)
(19.024 2.81388 2.53917e-17)
(19.2334 2.76728 -2.54406e-17)
(19.4433 2.69015 2.65655e-17)
(19.6485 2.58095 -3.01176e-17)
(19.8427 2.43903 0)
(20.0195 2.26507 2.45896e-17)
(20.1724 2.06133 -2.99587e-17)
(20.2957 1.83163 2.68939e-17)
(20.3836 1.58082 1.28213e-19)
(20.43 1.34002 -4.16407e-17)
(20.4423 1.12057 4.60329e-19)
(20.4286 0.908172 1.41685e-17)
(20.3915 0.705512 2.69088e-23)
(20.3333 0.514712 0)
(20.2567 0.337438 1.35983e-17)
(20.1645 0.17489 -1.33736e-17)
(20.0591 0.0278633 0)
(19.9428 -0.103148 8.36444e-19)
(19.8179 -0.217873 0)
(19.6862 -0.316213 -6.42813e-18)
(19.5499 -0.398202 7.22162e-18)
(19.4106 -0.464041 6.25747e-18)
(19.2698 -0.514174 -1.24131e-17)
(19.1294 -0.548854 6.91753e-18)
(18.9913 -0.568531 7.52732e-19)
(18.8569 -0.574094 -1.47993e-18)
(18.7273 -0.566442 1.45522e-18)
(18.6051 -0.546364 0)
(18.4892 -0.517824 1.40331e-18)
(17.2556 1.90418 0)
(17.3789 2.01444 2.3043e-17)
(17.5004 2.1038 2.02245e-19)
(17.6201 2.17992 -3.13612e-17)
(17.7406 2.24825 -2.10591e-17)
(17.863 2.30915 2.09006e-17)
(17.9886 2.36253 -2.11004e-17)
(18.1189 2.4081 -2.12917e-17)
(18.2544 2.44489 -4.33929e-17)
(18.3954 2.47178 5.43163e-17)
(18.5431 2.48809 -5.53368e-18)
(18.6977 2.49143 -5.61934e-18)
(18.8578 2.47822 2.3122e-17)
(19.0213 2.44527 -1.73689e-17)
(19.1861 2.39046 -2.6759e-17)
(19.3491 2.31226 2.09055e-17)
(19.5059 2.20957 2.7704e-17)
(19.6521 2.08209 -2.77331e-17)
(19.7828 1.93059 0)
(19.8934 1.757 -3.14795e-18)
(19.979 1.56409 -3.14793e-18)
(20.0323 1.37528 -2.54311e-17)
(20.0576 1.19998 5.02501e-17)
(20.0619 1.02776 -2.5395e-17)
(20.0465 0.861123 -1.23907e-17)
(20.0133 0.702118 4.29183e-19)
(19.964 0.552456 1.22435e-17)
(19.9008 0.413457 -1.91562e-19)
(19.8256 0.28608 -1.15925e-20)
(19.7404 0.170994 -1.17201e-17)
(19.647 0.0686319 1.17767e-17)
(19.5472 -0.0207719 5.76881e-18)
(19.4425 -0.0971444 -6.10648e-18)
(19.3347 -0.160606 5.62502e-18)
(19.2249 -0.211538 -4.91029e-18)
(19.1148 -0.250166 -4.113e-18)
(19.0059 -0.276872 2.04793e-18)
(18.8991 -0.292465 -6.68231e-19)
(18.7956 -0.297682 0)
(18.6969 -0.293161 0)
(18.6028 -0.281645 7.04099e-21)
(17.4076 1.78194 1.01908e-17)
(17.5144 1.86958 -1.11033e-17)
(17.6192 1.93918 4.898e-18)
(17.7216 1.99783 9.72086e-18)
(17.8239 2.04984 0)
(17.9268 2.09558 -1.96456e-17)
(18.0315 2.13511 4.97127e-17)
(18.1389 2.16834 -2.97847e-17)
(18.2496 2.19465 1.01042e-17)
(18.3639 2.21334 -1.02806e-17)
(18.4826 2.22396 5.22585e-18)
(18.6059 2.2249 4.77772e-17)
(18.7329 2.21368 -8.55634e-17)
(18.8623 2.18803 3.76098e-17)
(18.9929 2.14643 5.54994e-18)
(19.1225 2.08763 2.23895e-17)
(19.2483 2.01059 -7.06531e-17)
(19.3673 1.91474 3.1136e-17)
(19.4758 1.8002 4.90243e-17)
(19.5705 1.6679 -2.0264e-17)
(19.6475 1.51936 5.83389e-18)
(19.6998 1.37197 0)
(19.73 1.23316 0)
(19.7435 1.09525 2.29072e-17)
(19.7412 0.960315 -2.27901e-17)
(19.7243 0.83016 -3.58342e-19)
(19.6939 0.706313 0)
(19.6518 0.590007 -1.10918e-17)
(19.5993 0.48219 1.10487e-17)
(19.5381 0.383559 -8.5973e-20)
(19.4694 0.294598 8.36191e-20)
(19.3949 0.215607 0)
(19.3158 0.146728 -4.95868e-18)
(19.2335 0.0879209 5.22524e-18)
(19.149 0.0388978 -6.4534e-19)
(19.0636 -0.000496221 6.36484e-19)
(18.9785 -0.0305345 0)
(18.8944 -0.0518798 6.18705e-19)
(18.8123 -0.0650906 1.21555e-18)
(18.7332 -0.0706449 -6.08189e-19)
(18.6574 -0.0703601 -1.75099e-18)
(17.5224 1.68061 0)
(17.6158 1.75102 0)
(17.707 1.80582 1.82571e-17)
(17.7957 1.85148 3.64853e-17)
(17.8836 1.89143 -5.44876e-17)
(17.9714 1.92601 4.60269e-17)
(18.0599 1.95537 1.885e-17)
(18.15 1.97952 -3.73079e-17)
(18.2421 1.99808 3.80848e-17)
(18.3364 2.01055 -3.82599e-17)
(18.4335 2.01667 0)
(18.5336 2.01531 0)
(18.636 2.00471 -4.01199e-17)
(18.74 1.98328 8.07063e-17)
(18.8446 1.94992 -8.16505e-17)
(18.9484 1.90372 4.10988e-17)
(19.0496 1.84382 5.17722e-18)
(19.1459 1.7697 -5.01614e-17)
(19.2349 1.68123 3.43788e-17)
(19.314 1.57885 0)
(19.3802 1.46341 -2.70285e-18)
(19.4278 1.34787 0)
(19.4581 1.23799 2.24272e-17)
(19.4754 1.12793 -4.33576e-17)
(19.4802 1.01938 2.09331e-17)
(19.4732 0.913781 0)
(19.4555 0.812431 0)
(19.428 0.716388 -9.58953e-18)
(19.3919 0.626489 1.01688e-17)
(19.3483 0.543375 1.00329e-17)
(19.2984 0.467506 -1.0059e-17)
(19.2433 0.399191 -9.82881e-18)
(19.1841 0.338597 9.81034e-18)
(19.1218 0.285738 0)
(19.0573 0.240413 7.40807e-20)
(18.9916 0.202532 0)
(18.9256 0.171923 1.81007e-20)
(18.8599 0.148068 7.15445e-20)
(18.7952 0.130561 -2.40092e-18)
(18.7323 0.119061 3.35909e-18)
(18.6715 0.112418 -1.08679e-18)
(17.6106 1.59535 0)
(17.6931 1.65236 2.09528e-18)
(17.773 1.69588 0)
(17.8505 1.7317 -1.67235e-17)
(17.9267 1.76255 1.68845e-17)
(18.0024 1.78877 0)
(18.0782 1.81054 -1.72984e-17)
(18.1547 1.82794 -1.76592e-17)
(18.2323 1.8407 4.4237e-17)
(18.3112 1.84851 0)
(18.3918 1.85116 -3.66229e-17)
(18.4743 1.84789 7.387e-17)
(18.5581 1.83742 -3.7172e-17)
(18.6427 1.81862 0)
(18.7275 1.79073 3.81595e-17)
(18.8114 1.75308 -4.3e-17)
(18.8931 1.70506 -4.36942e-17)
(18.9712 1.64624 4.86146e-17)
(19.0437 1.57645 4.95201e-18)
(19.1089 1.49592 0)
(19.1646 1.40512 0)
(19.206 1.31386 2.43512e-18)
(19.2341 1.22652 -1.2281e-18)
(19.2521 1.13861 -1.93431e-17)
(19.2603 1.05143 -1.19284e-18)
(19.2591 0.966107 1.91499e-17)
(19.2494 0.883684 -1.89958e-17)
(19.2318 0.805015 1.82923e-17)
(19.2072 0.730795 1.05059e-17)
(19.1764 0.661566 -9.291e-18)
(19.1403 0.597732 9.17598e-18)
(19.0999 0.539573 -9.12399e-18)
(19.0558 0.487258 0)
(19.009 0.440829 9.45673e-18)
(18.96 0.40015 -8.91834e-18)
(18.9097 0.365179 0)
(18.8588 0.335817 -1.69297e-20)
(18.8078 0.311673 -2.19781e-18)
(18.7571 0.292459 2.24755e-18)
(18.7074 0.277937 -9.7507e-19)
(18.659 0.267427 1.01106e-18)
(17.6796 1.52273 0)
(17.7528 1.56914 -1.91103e-18)
(17.8234 1.60391 1.5431e-17)
(17.8915 1.63215 -3.10789e-17)
(17.9581 1.65604 6.27211e-17)
(18.0239 1.67589 -3.16952e-17)
(18.0893 1.69192 0)
(18.155 1.70424 -1.63656e-17)
(18.2211 1.71266 -9.98077e-17)
(18.2879 1.71697 6.71087e-17)
(18.3556 1.71704 0)
(18.4243 1.71232 8.61433e-18)
(18.4937 1.70188 -2.62855e-17)
(18.5633 1.68492 -2.17636e-19)
(18.6327 1.66091 3.534e-17)
(18.7011 1.62938 -4.02222e-17)
(18.7675 1.58992 3.58553e-17)
(18.831 1.54219 -3.63144e-17)
(18.8901 1.48608 3.62566e-17)
(18.9436 1.42172 3.65557e-17)
(18.9898 1.3494 -3.17398e-17)
(19.025 1.27663 1.58728e-17)
(19.0499 1.20673 -2.01792e-17)
(19.0669 1.13622 1.90131e-17)
(19.0762 1.06606 3.33229e-18)
(19.0782 0.997126 -1.767e-17)
(19.0734 0.930225 0)
(19.0624 0.866028 0)
(19.0457 0.805087 1.61606e-17)
(19.024 0.747839 -1.71365e-17)
(18.998 0.694615 0)
(18.9684 0.64565 -1.0453e-18)
(18.9356 0.601094 -1.0358e-18)
(18.9005 0.560997 -8.75047e-18)
(18.8635 0.525267 8.69307e-18)
(18.8251 0.493893 4.038e-18)
(18.786 0.466822 -4.01326e-18)
(18.7465 0.443768 1.48543e-18)
(18.7069 0.424527 -3.92598e-18)
(18.6679 0.408937 1.88473e-18)
(18.6295 0.396639 2.34572e-19)
(17.7343 1.46022 -1.41038e-17)
(17.7995 1.49817 -1.76981e-17)
(17.8621 1.52607 -7.73376e-20)
(17.9223 1.54838 0)
(17.981 1.56687 0)
(18.0385 1.58182 0)
(18.0955 1.59348 0)
(18.1522 1.60194 6.11688e-17)
(18.209 1.6071 -1.08463e-16)
(18.266 1.60881 6.27298e-17)
(18.3234 1.60698 -6.39635e-17)
(18.3813 1.60121 4.01895e-17)
(18.4393 1.59084 -7.34969e-17)
(18.4971 1.5753 9.0194e-17)
(18.5544 1.5542 -3.29838e-17)
(18.6106 1.52726 -2.50001e-17)
(18.665 1.49417 3.3381e-17)
(18.7168 1.45473 -4.22528e-18)
(18.7651 1.40885 4.19627e-18)
(18.8089 1.35666 -4.22714e-17)
(18.847 1.29833 -3.79923e-17)
(18.8765 1.2397 6.29685e-17)
(18.8979 1.18333 2.09478e-18)
(18.9133 1.12642 0)
(18.9226 1.06972 -2.07177e-18)
(18.9261 1.01388 2.03193e-18)
(18.9242 0.95953 1.4201e-17)
(18.9174 0.907176 -1.61049e-17)
(18.9062 0.857245 1.59523e-17)
(18.8909 0.810077 -1.58394e-17)
(18.8721 0.765933 -1.56689e-17)
(18.8503 0.725001 1.65347e-17)
(18.826 0.687404 9.67151e-19)
(18.7996 0.653191 -7.61671e-18)
(18.7716 0.622297 6.15148e-18)
(18.7424 0.594724 0)
(18.7123 0.570452 0)
(18.6818 0.549263 4.60511e-19)
(18.651 0.531016 -9.07683e-19)
(18.6204 0.515601 -8.99343e-19)
(18.5901 0.502864 -2.18447e-19)
(17.7781 1.40595 0)
(17.8364 1.43705 3.21257e-18)
(17.8922 1.45951 -2.61505e-17)
(17.9457 1.47715 2.63116e-17)
(17.9975 1.4914 5.38622e-17)
(18.0481 1.50256 -5.46303e-17)
(18.098 1.51085 -2.80395e-17)
(18.1474 1.51638 5.66732e-17)
(18.1965 1.51908 5.79296e-17)
(18.2456 1.51886 -5.85667e-17)
(18.2946 1.51566 0)
(18.3437 1.50919 3.01509e-17)
(18.3926 1.49898 -6.0981e-17)
(18.441 1.48461 6.88295e-17)
(18.4887 1.46583 0)
(18.5352 1.44245 7.73213e-18)
(18.58 1.41428 -7.76353e-18)
(18.6225 1.38119 0)
(18.6621 1.34316 -3.93629e-18)
(18.698 1.30027 7.88504e-18)
(18.7293 1.25268 -3.50891e-17)
(18.7539 1.20497 3.50707e-17)
(18.7721 1.15911 -3.84078e-18)
(18.7855 1.11287 -2.87958e-17)
(18.7941 1.06678 2.85986e-17)
(18.7982 1.02136 -1.90473e-18)
(18.798 0.977069 1.69181e-17)
(18.794 0.934301 -1.49162e-17)
(18.7863 0.893376 -1.84032e-18)
(18.7755 0.854551 0)
(18.7619 0.818026 0)
(18.7458 0.783943 0)
(18.7276 0.752401 7.123e-18)
(18.7078 0.723439 -7.07095e-18)
(18.6865 0.697009 8.78435e-19)
(18.6642 0.673119 6.92613e-18)
(18.6411 0.651764 -7.73178e-18)
(18.6175 0.632782 0)
(18.5936 0.616071 4.14128e-21)
(18.5696 0.601556 1.67148e-18)
(18.5457 0.589212 -8.08365e-19)
(17.8135 1.35846 -1.1743e-17)
(17.8658 1.38399 0)
(17.9157 1.4021 5.99702e-17)
(17.9634 1.41603 -4.85323e-17)
(18.0094 1.42695 0)
(18.0541 1.43514 -5.0849e-17)
(18.0979 1.44082 -1.04375e-19)
(18.1412 1.44411 -5.29423e-17)
(18.1839 1.44496 8.06159e-17)
(18.2264 1.44332 5.48325e-17)
(18.2685 1.43915 -5.54572e-17)
(18.3105 1.43226 -1.40903e-17)
(18.352 1.42229 0)
(18.3928 1.40896 0)
(18.4327 1.39209 1.43543e-17)
(18.4715 1.37158 -6.51759e-17)
(18.5086 1.34731 1.30581e-16)
(18.5437 1.31921 -5.80859e-17)
(18.5762 1.28729 -7.2577e-18)
(18.6057 1.25166 -7.25794e-18)