/*--------------------------------*- C++ -*----------------------------------*\
| =========                 |                                                 |
| \\      /  F ield         | OpenFOAM: The Open Source CFD Toolbox           |
|  \\    /   O peration     | Version:  5.x                                   |
|   \\  /    A nd           | Web:      www.OpenFOAM.org                      |
|    \\/     M anipulation  |                                                 |
\*---------------------------------------------------------------------------*/
FoamFile
{
    version     2.0;
    format      ascii;
    class       volVectorField;
    location    "300";
    object      U;
}
// * * * * * * * * * * * * * * * * * * * * * * * * * * * * * * * * * * * * * //

dimensions      [0 1 -1 0 0 0 0];

internalField   nonuniform List<vector> 
11040
(
(-3.30829 18.6509 0)
(0.506621 5.70621 -2.18882e-18)
(-3.29497 -4.12857 0)
(-4.25981 -2.60704 2.33099e-17)
(-4.09775 -2.2061 2.53626e-17)
(-3.8694 -1.70619 3.06121e-17)
(-3.65635 -1.37244 -7.05943e-17)
(-3.4658 -1.12797 -3.43482e-17)
(-3.28828 -0.928969 3.96319e-17)
(-3.13078 -0.763059 4.2639e-17)
(-3.00251 -0.624577 0)
(-2.90455 -0.507559 -4.67172e-17)
(-2.83774 -0.406208 5.03655e-17)
(-2.80449 -0.317588 4.13366e-17)
(-2.80595 -0.238496 5.74709e-18)
(-2.84985 -0.165677 -4.6421e-17)
(-2.95139 -0.0966977 2.03385e-17)
(-3.11792 -0.0283466 -1.85769e-17)
(-3.35714 0.0426892 6.26057e-18)
(-3.6733 0.119086 3.6896e-18)
(-4.05756 0.20306 6.32591e-18)
(-4.47165 0.287766 9.94627e-18)
(-4.89409 0.369047 -1.01788e-17)
(-5.32808 0.451375 -2.75302e-20)
(-5.75959 0.535784 -1.64327e-17)
(-6.17277 0.619896 4.78465e-19)
(-6.54517 0.701582 -4.29917e-19)
(-6.85018 0.777295 -3.87762e-19)
(-7.0677 0.842925 3.73126e-19)
(-7.17467 0.893594 -1.14654e-17)
(-7.14155 0.924549 0)
(-6.95183 0.933414 -2.31054e-17)
(-6.63534 0.921026 0)
(-6.17051 0.880121 2.37893e-19)
(-5.54383 0.805061 -2.83186e-17)
(-4.7446 0.687138 3.19246e-17)
(-3.75216 0.519697 1.48689e-19)
(-2.49326 0.297977 -4.42058e-17)
(-0.983387 0.0270027 -5.33811e-17)
(0.190839 -0.209803 0)
(4.17478 -1.7179 4.69326e-17)
(-0.425707 21.9664 1.10947e-19)
(2.74439 15.965 6.31206e-19)
(0.662566 4.57544 4.04049e-19)
(-2.80615 -1.81446 -8.32616e-19)
(-3.81617 -2.17821 0)
(-3.92506 -1.86354 2.06062e-18)
(-3.83631 -1.51477 -2.35308e-18)
(-3.71611 -1.25879 0)
(-3.58795 -1.05815 0)
(-3.46614 -0.890266 0)
(-3.36477 -0.748466 3.38751e-18)
(-3.29169 -0.629603 -3.49724e-18)
(-3.25385 -0.527148 3.54344e-18)
(-3.2615 -0.437391 -3.14057e-17)
(-3.32257 -0.356762 -1.65313e-17)
(-3.4428 -0.280807 3.05571e-18)
(-3.6253 -0.205793 -1.11961e-17)
(-3.87561 -0.128428 1.13704e-17)
(-4.19709 -0.0445148 -1.13941e-18)
(-4.58766 0.0497396 -1.55766e-20)
(-5.03533 0.157054 9.56406e-21)
(-5.50253 0.26652 0)
(-5.96414 0.368772 5.66124e-18)
(-6.41054 0.469872 2.11752e-17)
(-6.81758 0.570571 -6.28649e-19)
(-7.16282 0.666383 -9.14432e-18)
(-7.43087 0.753683 1.50487e-20)
(-7.61316 0.829736 7.69929e-18)
(-7.70121 0.891934 7.32784e-18)
(-7.69014 0.937107 -2.16242e-19)
(-7.58359 0.964096 -6.60331e-18)
(-7.38143 0.97253 -1.34947e-17)
(-7.04734 0.954624 -2.17946e-19)
(-6.57163 0.903976 2.83579e-17)
(-5.94226 0.814539 -1.47292e-17)
(-5.15082 0.680751 -1.57302e-17)
(-4.17906 0.497341 -1.67989e-17)
(-2.96366 0.251551 3.52437e-17)
(-1.50624 -0.081349 0)
(-0.125746 -0.499507 0)
(3.37221 -1.41255 -2.46169e-19)
(0.377909 19.751 0)
(3.32652 19.923 -5.0731e-18)
(3.73882 13.5203 -3.62578e-18)
(0.994514 4.52326 1.3355e-18)
(-2.16074 -0.811974 9.16716e-18)
(-3.39623 -1.70769 -1.34189e-17)
(-3.68014 -1.57081 1.45128e-17)
(-3.70741 -1.33981 3.61421e-18)
(-3.66328 -1.14346 -3.88446e-18)
(-3.60147 -0.972336 -2.14367e-17)
(-3.54705 -0.819986 4.6003e-18)
(-3.51416 -0.68825 0)
(-3.51105 -0.571571 1.99888e-17)
(-3.54914 -0.46667 1.9823e-17)
(-3.63666 -0.371256 9.36031e-18)
(-3.7801 -0.280647 8.69069e-18)
(-3.98422 -0.190966 0)
(-4.2513 -0.0990416 0)
(-4.58042 -0.00129755 -1.59592e-18)
(-4.9661 0.105091 1.43852e-18)
(-5.39614 0.222548 7.48821e-21)
(-5.83602 0.340082 4.50726e-18)
(-6.25957 0.445281 9.9514e-19)
(-6.65897 0.543827 -8.22908e-18)
(-7.0176 0.637199 6.62969e-18)
(-7.32226 0.72263 0)
(-7.56408 0.797827 -5.60375e-18)
(-7.73561 0.860735 -5.21291e-18)
(-7.82861 0.909516 -5.24942e-18)
(-7.8352 0.941568 5.98566e-19)
(-7.74681 0.954239 4.36274e-18)
(-7.55061 0.94373 1.81754e-17)
(-7.22997 0.905056 -9.03205e-18)
(-6.77363 0.833127 -3.89874e-20)
(-6.17027 0.721627 9.21148e-18)
(-5.4126 0.565248 -9.43558e-18)
(-4.48553 0.359567 1.99221e-17)
(-3.33131 0.092496 -1.71771e-19)
(-1.94392 -0.274206 0)
(-0.564325 -0.800756 8.59356e-18)
(2.25 -1.6001 -6.25383e-18)
(0.724341 18.2093 0)
(2.86221 19.934 2.85555e-18)
(4.68128 18.4317 2.5506e-18)
(4.17766 12.1919 -3.37202e-18)
(1.36092 4.56466 -4.40581e-18)
(-1.65064 -0.163631 0)
(-2.98809 -1.25744 7.49996e-18)
(-3.41412 -1.29624 2.62892e-18)
(-3.54173 -1.16454 1.39586e-17)
(-3.56987 -1.01543 1.22177e-17)
(-3.57334 -0.865943 -3.29675e-18)
(-3.58357 -0.729059 1.05907e-17)
(-3.61455 -0.60302 -1.10465e-17)
(-3.67936 -0.485158 2.43694e-20)
(-3.78666 -0.37506 3.49739e-18)
(-3.94228 -0.269041 -9.82329e-18)
(-4.15041 -0.163989 0)
(-4.41191 -0.0578452 0)
(-4.72518 0.0521054 0)
(-5.08581 0.167499 -1.05046e-18)
(-5.48476 0.289755 -2.76071e-18)
(-5.89199 0.4082 -3.34863e-18)
(-6.28438 0.511753 -2.28099e-18)
(-6.65715 0.605425 -6.12791e-18)
(-6.99815 0.691186 0)
(-7.29623 0.767582 0)
(-7.54143 0.832989 4.09771e-18)
(-7.72377 0.884952 0)
(-7.83285 0.921223 0)
(-7.85822 0.938677 0)
(-7.7891 0.93414 -3.36417e-18)
(-7.61396 0.903668 -1.30586e-17)
(-7.32051 0.842952 6.46371e-18)
(-6.89735 0.746951 -6.36857e-18)
(-6.334 0.609158 6.51826e-18)
(-5.62442 0.423813 6.59571e-18)
(-4.75677 0.18619 -7.50493e-20)
(-3.68188 -0.11374 -6.91783e-18)
(-2.39908 -0.515315 6.7265e-18)
(-1.12526 -1.1048 -5.89414e-18)
(1.07549 -1.72134 -1.84694e-20)
(1.65476 17.3534 0)
(3.0168 18.7007 -7.14822e-19)
(4.61537 19.5669 6.56071e-19)
(5.60334 17.3505 7.52542e-18)
(4.63299 11.5938 -3.90723e-18)
(1.83577 4.89121 0)
(-1.05818 0.489611 -6.63688e-18)
(-2.54116 -0.823813 8.50406e-18)
(-3.12025 -1.03496 -8.5503e-18)
(-3.34394 -0.983527 0)
(-3.44497 -0.866064 0)
(-3.51124 -0.736633 -1.05835e-17)
(-3.57774 -0.608004 0)
(-3.66521 -0.481493 -1.12149e-17)
(-3.78563 -0.360482 0)
(-3.94507 -0.242684 5.07058e-18)
(-4.14831 -0.125923 0)
(-4.39695 -0.00954903 -4.21057e-18)
(-4.69097 0.108565 0)
(-5.02863 0.229526 0)
(-5.40442 0.354452 1.42908e-18)
(-5.79206 0.472938 -1.32956e-18)
(-6.17036 0.575254 3.49658e-18)
(-6.53511 0.665673 3.17101e-18)
(-6.87533 0.74575 -2.84955e-18)
(-7.17944 0.814223 -3.47274e-18)
(-7.43617 0.869524 0)
(-7.63425 0.909129 -3.65019e-19)
(-7.76249 0.930563 -2.087e-18)
(-7.80995 0.930531 -6.68854e-19)
(-7.76614 0.905736 2.91062e-18)
(-7.62098 0.852354 7.48866e-18)
(-7.36354 0.766364 -1.55981e-19)
(-6.98312 0.642848 1.49732e-19)
(-6.47035 0.475418 -4.94048e-18)
(-5.82075 0.25814 0)
(-5.02635 -0.0135447 -5.08128e-18)
(-4.04958 -0.347126 4.90142e-18)
(-2.90561 -0.777963 -6.12628e-20)
(-1.79122 -1.37765 3.46064e-20)
(-0.132855 -1.79129 -3.62018e-18)
(2.51789 16.6379 4.98123e-19)
(3.61447 17.6296 -4.19098e-19)
(4.67486 18.8107 2.4987e-18)
(5.87574 19.1123 -5.35568e-18)
(6.37725 16.7396 4.51126e-18)
(5.20461 11.5557 1.00101e-19)
(2.51248 5.53233 -8.62058e-20)
(-0.33813 1.23221 -1.34346e-17)
(-2.03041 -0.374218 -7.23092e-18)
(-2.77743 -0.763444 -7.18376e-18)
(-3.1065 -0.779858 0)
(-3.28108 -0.695357 0)
(-3.40188 -0.581812 0)
(-3.51624 -0.454348 4.35778e-18)
(-3.64921 -0.326339 -4.26819e-18)
(-3.81055 -0.19984 0)
(-4.00771 -0.0737296 3.71231e-18)
(-4.24435 0.0510188 3.32986e-18)
(-4.52284 0.176101 -3.02794e-18)
(-4.84428 0.301866 0)
(-5.20626 0.429056 -5.78225e-19)
(-5.58532 0.547755 3.12958e-18)
(-5.96046 0.649189 -4.7419e-18)
(-6.32676 0.736667 8.34939e-19)
(-6.67354 0.811046 5.3578e-18)
(-6.98886 0.870975 2.09426e-18)
(-7.2609 0.914799 3.20784e-18)
(-7.4781 0.939992 0)
(-7.62925 0.944054 2.22049e-18)
(-7.70368 0.923721 0)
(-7.69147 0.875676 1.80089e-18)
(-7.58377 0.796177 -3.46346e-18)
(-7.37057 0.681426 -4.09346e-18)
(-7.0424 0.526764 3.5641e-18)
(-6.5914 0.32624 -3.57906e-18)
(-6.01499 0.0744598 3.84286e-18)
(-5.30938 -0.231786 -3.996e-18)
(-4.45084 -0.596188 -3.798e-18)
(-3.47468 -1.04408 -3.82024e-18)
(-2.55229 -1.60089 3.3093e-18)
(-1.33691 -1.84281 2.94436e-18)
(3.32433 15.9602 0)
(4.25178 16.8459 1.70152e-18)
(5.0655 17.7492 -9.49311e-19)
(5.97105 18.7011 1.11793e-18)
(6.89655 18.7156 8.8231e-19)
(7.13027 16.5026 2.26187e-19)
(5.93448 11.9362 1.84857e-18)
(3.39054 6.45452 4.93672e-18)
(0.550593 2.14438 4.01661e-18)
(-1.40535 0.1335 5.81144e-18)
(-2.35814 -0.450032 -6.15333e-18)
(-2.81879 -0.550838 1.25628e-17)
(-3.06699 -0.503674 6.59591e-18)
(-3.2347 -0.397203 -2.03766e-17)
(-3.38952 -0.271138 6.76474e-18)
(-3.55613 -0.140447 -1.31082e-17)
(-3.74952 -0.00709948 6.11594e-18)
(-3.97712 0.124859 0)
(-4.24409 0.256651 -2.68669e-20)
(-4.55433 0.387553 -2.20948e-18)
(-4.9084 0.517768 -1.4068e-18)
(-5.28518 0.637593 8.9121e-19)
(-5.66304 0.73886 3.09946e-18)
(-6.03576 0.823798 -1.43198e-18)
(-6.39289 0.892408 -5.07248e-18)
(-6.72253 0.943176 -1.74101e-18)
(-7.01292 0.974279 -4.73263e-18)
(-7.2527 0.983234 2.42238e-18)
(-7.43106 0.967551 -4.60138e-19)
(-7.53785 0.924165 1.73184e-18)
(-7.56378 0.849849 -3.36151e-18)
(-7.50097 0.741009 2.02055e-18)
(-7.34077 0.594143 2.75622e-18)
(-7.07516 0.405002 -3.0996e-18)
(-6.69828 0.168496 6.14149e-18)
(-6.20967 -0.119362 -6.72427e-20)
(-5.60948 -0.458793 3.13872e-18)
(-4.88797 -0.848223 -9.59434e-20)
(-4.09631 -1.29738 9.2855e-20)
(-3.36804 -1.77807 -4.39789e-20)
(-2.48745 -1.89618 -2.46479e-18)
(4.13187 15.3316 3.90367e-19)
(4.88791 16.1524 -4.10831e-18)
(5.58701 16.8927 3.33485e-18)
(6.28037 17.6912 -1.99135e-18)
(7.06483 18.4574 -4.99215e-18)
(7.79741 18.4035 -2.92421e-18)
(7.91248 16.5253 -2.67255e-18)
(6.80594 12.6018 -3.127e-18)
(4.4551 7.624 -1.90532e-18)
(1.64023 3.284 3.0027e-18)
(-0.592389 0.79448 4.60908e-18)
(-1.82446 -0.0673702 -5.30501e-18)
(-2.45542 -0.289578 0)
(-2.78767 -0.280207 5.36813e-18)
(-3.00688 -0.185501 5.41406e-18)
(-3.19342 -0.0622153 5.31539e-18)
(-3.38791 0.0748233 -1.00663e-17)
(-3.60888 0.212929 2.33553e-18)
(-3.86593 0.351864 4.12987e-18)
(-4.16625 0.489243 -7.37672e-18)
(-4.51352 0.624403 3.35677e-18)
(-4.88931 0.747232 -7.13641e-19)
(-5.27174 0.849627 1.33943e-18)
(-5.65309 0.93273 1.16244e-18)
(-6.02277 0.995768 1.03621e-18)
(-6.36913 1.03698 2.90504e-18)
(-6.68072 1.05438 5.26212e-18)
(-6.94663 1.04555 -2.43102e-18)
(-7.15663 1.00807 7.61761e-19)
(-7.30129 0.939145 -1.06472e-18)
(-7.37206 0.835777 3.53822e-19)
(-7.3619 0.694669 -3.33532e-19)
(-7.26396 0.512812 -1.27518e-18)
(-7.07186 0.286603 3.08576e-19)
(-6.78201 0.0123059 -2.50846e-18)
(-6.396 -0.311686 -2.51205e-18)
(-5.91712 -0.681345 2.44726e-18)
(-5.34692 -1.08868 0)
(-4.74188 -1.52529 0)
(-4.18961 -1.92209 -4.41147e-18)
(-3.54627 -1.96654 4.18328e-18)
(4.92484 14.7538 -3.22131e-19)
(5.54538 15.492 0)
(6.13248 16.1704 0)
(6.72135 16.8054 0)
(7.34057 17.4935 5.7782e-18)
(8.02325 18.1388 2.44506e-18)
(8.63263 18.1431 0)
(8.72481 16.6842 2.13137e-18)
(7.7815 13.4329 -2.59124e-18)
(5.68429 9.00038 -3.16723e-18)
(2.95771 4.69467 2.32043e-18)
(0.480198 1.72507 0)
(-1.12387 0.420056 -4.50765e-18)
(-1.97665 0.0261843 -9.10953e-18)
(-2.43008 -0.0209365 5.46597e-21)
(-2.70785 0.0512408 8.83946e-18)
(-2.92811 0.176196 0)
(-3.14956 0.316132 -1.95735e-18)
(-3.39715 0.46263 5.37256e-18)
(-3.6854 0.608629 -3.13452e-18)
(-4.02227 0.751892 2.70188e-18)
(-4.39299 0.881033 2.46397e-18)
(-4.77664 0.987269 -2.27784e-18)
(-5.16493 1.0704 0)
(-5.54697 1.12881 0)
(-5.91104 1.1606 -1.65651e-18)
(-6.24584 1.16377 -4.45674e-18)
(-6.54091 1.13607 0)
(-6.78665 1.07522 -1.8764e-18)
(-6.9744 0.978744 5.99023e-19)
(-7.0965 0.844049 5.72733e-19)
(-7.14676 0.668395 1.09793e-18)
(-7.12024 0.449509 2.71361e-19)
(-7.01235 0.184735 9.99638e-19)
(-6.82168 -0.127804 2.47208e-19)
(-6.55134 -0.486575 -1.70666e-18)
(-6.20645 -0.882872 -2.14539e-18)
(-5.79506 -1.30241 -1.21311e-19)
(-5.36713 -1.7207 1.88843e-18)
(-4.96564 -2.04998 1.83467e-18)
(-4.48172 -2.06958 -3.55596e-18)
(5.69002 14.2204 0)
(6.2155 14.8751 0)
(6.7022 15.4953 3.83703e-18)
(7.19947 16.0674 -6.77173e-18)
(7.72288 16.6098 3.07744e-18)
(8.28146 17.1963 -2.42179e-18)
(8.88412 17.7655 2.14847e-18)
(9.42004 17.8821 -2.16469e-18)
(9.54584 16.8685 2.02645e-18)
(8.81872 14.3184 6.03136e-18)
(7.04202 10.5142 -2.2723e-18)
(4.48971 6.37107 3.1243e-18)
(1.85273 3.01107 -2.50293e-18)
(-0.160798 1.10808 -6.89799e-18)
(-1.32748 0.433002 0)
(-1.95975 0.278089 -7.66681e-18)
(-2.32106 0.325873 7.34896e-18)
(-2.58646 0.443524 3.44659e-18)
(-2.83707 0.59078 0)
(-3.11401 0.745892 0)
(-3.43616 0.901024 4.76426e-18)
(-3.79536 1.0412 -1.20392e-19)
(-4.17319 1.15575 -4.40306e-18)
(-4.56199 1.24269 8.6347e-19)
(-4.95144 1.29943 7.71135e-19)
(-5.33019 1.32375 2.06141e-18)
(-5.68715 1.31361 1.76179e-20)
(-6.01209 1.267 1.13365e-18)
(-6.29586 1.18206 -1.07873e-18)
(-6.53042 1.05687 -9.92333e-19)
(-6.70898 0.889509 9.28158e-19)
(-6.82624 0.678104 0)
(-6.87871 0.421378 -4.31239e-19)
(-6.86385 0.117941 -8.43658e-19)
(-6.7818 -0.231916 1.19044e-18)
(-6.63622 -0.623255 8.42713e-19)
(-6.4324 -1.04336 0)
(-6.17991 -1.47355 1.96492e-19)
(-5.91431 -1.87947 -1.76004e-18)
(-5.64268 -2.17493 0)
(-5.27098 -2.21749 1.49967e-18)
(6.42255 13.7249 0)
(6.87872 14.3048 0)
(7.29269 14.8588 0)
(7.70689 15.3854 3.19407e-18)
(8.14767 15.871 0)
(8.61964 16.3321 0)
(9.12602 16.83 -2.25597e-18)
(9.66658 17.342 3.71069e-18)
(10.1594 17.5734 -1.99982e-18)
(10.3483 16.9873 -8.51998e-18)
(9.8679 15.1439 1.54877e-19)
(8.45626 12.0411 -3.68934e-18)
(6.18535 8.24182 1.16695e-17)
(3.5336 4.67382 -6.481e-18)
(1.17614 2.17148 4.70586e-18)
(-0.42472 0.98651 0)
(-1.31737 0.649554 0)
(-1.81899 0.641233 2.01635e-20)
(-2.14803 0.752399 0)
(-2.43768 0.905116 0)
(-2.74832 1.07202 0)
(-3.09175 1.22793 -2.43097e-19)
(-3.45718 1.3568 -2.91786e-18)
(-3.83906 1.4535 2.29563e-18)
(-4.22835 1.51387 1.93006e-18)
(-4.61477 1.53501 -1.26626e-18)
(-4.98807 1.51484 -1.61485e-18)
(-5.33868 1.45178 9.44882e-19)
(-5.65809 1.34446 1.73407e-18)
(-5.93893 1.1916 -8.02648e-19)
(-6.17521 0.992146 -1.51188e-18)
(-6.36241 0.745457 7.30447e-19)
(-6.49772 0.451613 6.8563e-19)
(-6.58041 0.110904 6.5106e-19)
(-6.6113 -0.274232 -1.2826e-18)
(-6.59346 -0.695901 1.25725e-18)
(-6.53079 -1.13898 -3.14961e-19)
(-6.43094 -1.58346 4.59792e-19)
(-6.31357 -1.99304 -1.51667e-19)
(-6.16263 -2.29525 -1.19673e-18)
(-5.89393 -2.40569 1.22876e-18)
(7.11968 13.2629 0)
(7.52283 13.7771 3.24607e-18)
(7.88529 14.2675 -9.96026e-18)
(8.23789 14.7406 -8.66151e-18)
(8.60567 15.1899 -2.48392e-19)
(9.00163 15.6043 -3.19231e-19)
(9.42904 15.9965 5.5855e-18)
(9.88904 16.4155 -1.48447e-17)
(10.3795 16.8713 5.27652e-18)
(10.8442 17.1878 3.06266e-18)
(11.1052 16.9717 2.89391e-18)
(10.8687 15.7865 4.28691e-18)
(9.84888 13.4388 -6.12313e-18)
(7.96714 10.1792 1.62383e-19)
(5.4818 6.66906 2.37044e-18)
(2.93291 3.71293 -6.08905e-18)
(0.883818 1.87497 1.49069e-17)
(-0.417093 1.14393 -1.34685e-17)
(-1.14127 1.01962 1.34649e-17)
(-1.58167 1.11141 -1.19636e-17)
(-1.92615 1.27281 0)
(-2.26246 1.44294 2.22382e-19)
(-2.61287 1.59116 0)
(-2.98197 1.7048 -2.62726e-18)
(-3.36408 1.77631 2.07898e-18)
(-3.75068 1.80136 5.05876e-19)
(-4.13275 1.7775 -8.97527e-19)
(-4.50172 1.70334 -4.01051e-19)
(-4.84997 1.57807 -7.19922e-19)
(-5.17111 1.40133 6.59545e-19)
(-5.46009 1.17333 0)
(-5.71333 0.894879 0)
(-5.92864 0.56757 -5.60605e-19)
(-6.106 0.193286 -1.06237e-18)
(-6.24646 -0.223728 1.01732e-18)
(-6.35145 -0.67368 -5.02922e-19)
(-6.42261 -1.1408 0)
(-6.46427 -1.60672 0)
(-6.48338 -2.03933 -1.21683e-19)
(-6.4553 -2.38393 1.10197e-18)
(-6.31124 -2.5957 -1.01177e-18)
(7.77915 12.831 0)
(8.14034 13.2875 0)
(8.46391 13.7207 -8.0513e-20)
(8.77264 14.14 2.33563e-19)
(9.08632 14.545 1.40742e-17)
(9.41791 14.9299 -8.10095e-18)
(9.7759 15.2862 7.8255e-18)
(10.1632 15.6199 3.56311e-18)
(10.581 15.9687 4.35832e-18)
(11.0275 16.3613 -1.30758e-17)
(11.4695 16.7174 7.15654e-18)
(11.793 16.7763 3.68268e-18)
(11.7755 16.1588 -5.0929e-18)
(11.1465 14.5706 4.85916e-18)
(9.73086 12.0117 -4.20462e-18)
(7.59298 8.85149 -1.67597e-18)
(5.07924 5.72622 3.134e-18)
(2.70492 3.29539 0)
(0.914129 1.93899 1.23616e-17)
(-0.188098 1.50918 -8.53949e-18)
(-0.822059 1.53685 -8.05168e-18)
(-1.2424 1.69744 6.8754e-18)
(-1.60082 1.864 -5.98589e-18)
(-1.95853 1.99951 0)
(-2.32823 2.09007 -4.0536e-18)
(-2.70764 2.12811 3.97757e-18)
(-3.09036 2.10956 3.50158e-18)
(-3.46935 2.0327 -2.15181e-18)
(-3.8381 1.8973 0)
(-4.1911 1.70407 0)
(-4.52409 1.45454 0)
(-4.83418 1.15097 4.58564e-19)
(-5.11966 0.796488 4.29743e-19)
(-5.38075 0.394437 -4.13967e-19)
(-5.61826 -0.0494421 3.93451e-19)
(-5.83224 -0.524524 0)
(-6.02218 -1.016 0)
(-6.1894 -1.50905 0)
(-6.33274 -1.97882 -3.57588e-19)
(-6.43104 -2.38713 0)
(-6.43888 -2.712 0)
(8.39902 12.4266 0)
(8.726 12.8321 -4.84507e-18)
(9.01908 13.2143 4.75505e-18)
(9.29537 13.5837 -9.30454e-18)
(9.57023 13.9424 -4.24885e-18)
(9.85437 14.2897 1.48181e-17)
(10.1561 14.6213 -1.4226e-17)
(10.481 14.9292 1.60114e-19)
(10.832 15.214 -8.61196e-18)
(11.2105 15.5008 1.13372e-17)
(11.6164 15.8253 -9.61674e-18)
(12.0352 16.1728 6.78848e-19)
(12.4008 16.3982 1.77237e-17)
(12.5591 16.2183 -3.56424e-18)
(12.2839 15.3222 -1.25919e-18)
(11.3615 13.5437 -2.31024e-18)
(9.71257 10.9896 -2.42461e-18)
(7.48162 8.05249 0)
(5.03421 5.3031 5.24615e-18)
(2.83588 3.29165 -8.05661e-18)
(1.23773 2.28607 1.05359e-17)
(0.286097 2.07424 -1.1605e-17)
(-0.278986 2.18453 1.08089e-17)
(-0.693356 2.3422 -1.95715e-17)
(-1.06628 2.46036 8.59274e-18)
(-1.43638 2.52046 -2.16334e-19)
(-1.81193 2.51767 0)
(-2.19108 2.44968 -6.30205e-19)
(-2.56962 2.31586 -2.72806e-19)
(-2.94337 2.1173 1.87423e-18)
(-3.30886 1.8567 -1.74743e-18)
(-3.66358 1.5378 3.67981e-19)
(-4.00594 1.16532 -7.351e-19)
(-4.33615 0.743962 0)
(-4.654 0.280164 3.0518e-19)
(-4.95825 -0.21561 -2.88072e-19)
(-5.24685 -0.730334 0)
(-5.51909 -1.25278 -5.56024e-19)
(-5.76974 -1.76486 1.56363e-19)
(-5.98811 -2.24069 1.39302e-19)
(-6.15532 -2.66772 2.7588e-19)
(8.9778 12.0474 4.05794e-18)
(9.27604 12.4072 -7.63783e-20)
(9.54438 12.7439 0)
(9.79552 13.0681 -4.0641e-18)
(10.0414 13.3834 -1.11634e-17)
(10.2912 13.6902 5.53572e-19)
(10.5517 13.9885 6.48275e-18)
(10.8284 14.2745 -2.84059e-18)
(11.1248 14.5411 1.05473e-17)
(11.4434 14.7849 -5.58013e-19)
(11.7856 15.0196 -1.20455e-17)
(12.1542 15.2782 8.60409e-18)
(12.5462 15.5802 -1.23132e-17)
(12.9289 15.8695 -4.08632e-19)
(13.2088 15.9722 -1.44419e-18)
(13.2196 15.629 5.58645e-18)
(12.7585 14.6039 7.80129e-18)
(11.6672 12.8123 -7.69448e-18)
(9.92594 10.3986 -6.05964e-18)
(7.70903 7.73211 3.43298e-19)
(5.37022 5.31973 1.17903e-17)
(3.39909 3.68042 6.74451e-18)
(2.04031 2.94353 -7.56515e-18)
(1.17525 2.79963 -4.64633e-19)
(0.602407 2.881 0)
(0.166137 2.97508 0)
(-0.221692 3.00708 5.34994e-18)
(-0.599002 2.96293 -4.55666e-18)
(-0.97742 2.84432 1.29088e-19)
(-1.35865 2.65452 1.70764e-18)
(-1.74148 2.39732 -1.75392e-18)
(-2.12423 2.07741 -1.47821e-18)
(-2.50553 1.70035 9.23271e-19)
(-2.88554 1.27151 -1.08614e-18)
(-3.26351 0.797672 7.71509e-19)
(-3.63685 0.288608 4.83947e-19)
(-4.00261 -0.244393 4.63619e-19)
(-4.35941 -0.793136 -4.32069e-19)
(-4.70023 -1.3447 6.69751e-19)
(-5.02421 -1.88071 -2.14618e-19)
(-5.33704 -2.38897 -2.31499e-19)
(9.51387 11.6917 -6.96241e-18)
(9.78729 12.0101 3.63646e-18)
(10.0349 12.3057 0)
(10.266 12.589 2.02694e-17)
(10.49 12.8639 -1.36138e-17)
(10.7141 13.1321 0)
(10.9445 13.3942 1.13018e-17)
(11.1857 13.6495 5.3121e-18)
(11.4413 13.8951 -1.92131e-17)
(11.7136 14.125 1.88711e-17)
(12.004 14.3341 0)
(12.3146 14.5278 -1.60049e-17)
(12.6494 14.729 1.22345e-17)
(13.011 14.9671 1.88803e-18)
(13.3886 15.2415 -1.16932e-17)
(13.7352 15.4752 1.75048e-17)
(13.9465 15.4986 0)
(13.8634 15.0926 0)
(13.312 14.0781 -6.57458e-18)
(12.1731 12.4084 6.43505e-18)
(10.4507 10.2251 -7.54454e-18)
(8.41022 7.93707 7.92285e-18)
(6.42359 5.98236 -5.58538e-19)
(4.74643 4.61883 8.87426e-18)
(3.48898 3.89821 -9.76715e-18)
(2.6007 3.6378 -4.40684e-18)
(1.96511 3.5833 8.29118e-18)
(1.47467 3.55682 -3.83963e-18)
(1.05345 3.47718 3.34445e-18)
(0.65748 3.3209 -3.03494e-18)
(0.266006 3.08797 2.77654e-18)
(-0.128789 2.78507 1.15021e-20)
(-0.528491 2.42004 -2.23793e-18)
(-0.934536 1.99897 -9.44887e-19)
(-1.34687 1.52884 2.87608e-20)
(-1.76294 1.01885 6.04236e-19)
(-2.17964 0.478679 0)
(-2.59623 -0.0859805 0)
(-3.00519 -0.666253 -1.6738e-19)
(-3.41129 -1.24871 0)
(-3.84469 -1.81794 0)
(10.0046 11.3576 5.94847e-18)
(10.2559 11.6381 -3.08311e-18)
(10.4853 11.8967 -2.33594e-17)
(10.6996 12.1431 6.47822e-19)
(10.9063 12.3813 5.74076e-17)
(11.111 12.6134 -6.55256e-19)
(11.3189 12.8405 -5.65255e-18)
(11.5341 13.0626 -4.23218e-17)
(11.7596 13.2789 1.79721e-17)
(11.9978 13.4872 -1.63417e-17)
(12.2501 13.6828 1.61106e-17)
(12.5177 13.8615 -3.82546e-18)
(12.8026 14.0229 0)
(13.1079 14.1783 1.15838e-17)
(13.4387 14.3523 -1.15308e-17)
(13.7967 14.5676 8.91011e-18)
(14.1663 14.8129 -1.32738e-17)
(14.4951 15.0104 -1.04845e-17)
(14.6805 15.0121 1.06015e-17)
(14.5798 14.6378 1.30049e-18)
(14.0369 13.7405 5.90814e-19)
(13.0063 12.3505 -6.61494e-19)
(11.5951 10.655 3.27894e-19)
(9.97476 8.87863 3.5023e-19)
(8.34591 7.26519 5.87359e-18)
(6.88041 6.00124 -7.8475e-19)
(5.67455 5.15342 -6.14112e-18)
(4.73315 4.65415 -4.289e-20)
(4.00398 4.36342 1.60738e-19)
(3.42136 4.14941 -3.54503e-20)
(2.92796 3.92706 0)
(2.48149 3.65605 -1.75358e-18)
(2.05506 3.32432 1.71477e-18)
(1.63178 2.93248 0)
(1.20369 2.48647 4.33941e-20)
(0.769029 1.99514 0)
(0.328966 1.46738 0)
(-0.117925 0.907039 -7.56942e-20)
(-0.565289 0.31885 1.59423e-19)
(-1.01764 -0.287634 -6.98962e-20)
(-1.53945 -0.897236 0)
(10.4288 11.0583 0)
(10.6606 11.3057 2.15516e-17)
(10.874 11.5321 -3.28302e-17)
(11.074 11.7468 -1.04751e-17)
(11.2665 11.9535 -1.00878e-17)
(11.4562 12.1543 2.13727e-17)
(11.6473 12.3503 -9.90594e-18)
(11.8435 12.5421 -9.20967e-18)
(12.0474 12.7291 -8.65267e-18)
(12.2612 12.9104 0)
(12.4864 13.0842 0)
(12.7241 13.2481 7.313e-18)
(12.9755 13.3983 -1.37286e-17)
(13.2415 13.5317 5.59289e-19)
(13.5244 13.6515 -9.73235e-19)
(13.8293 13.7726 2.43425e-17)
(14.1631 13.919 7.96086e-19)
(14.5276 14.1088 -2.00826e-18)
(14.9058 14.3276 -9.24619e-18)
(15.2473 14.5061 -1.15028e-18)
(15.4531 14.515 1.00279e-17)
(15.3987 14.2256 -1.71378e-17)
(15.0124 13.5844 8.35941e-18)
(14.2877 12.6063 0)
(13.2755 11.3752 0)
(12.0719 10.0237 2.68567e-19)
(10.7963 8.70016 4.54971e-18)
(9.56258 7.52983 -4.45647e-18)
(8.45277 6.58231 -4.02605e-18)
(7.50183 5.85881 7.36687e-18)
(6.70393 5.30871 -6.7856e-18)
(6.03115 4.86237 3.16681e-18)
(5.45015 4.458 -5.5676e-20)
(4.92828 4.05204 4.05934e-20)
(4.44115 3.62039 -3.60694e-20)
(3.97282 3.154 -5.2197e-19)
(3.51356 2.65227 1.01228e-18)
(3.05243 2.11473 -4.46228e-19)
(2.58964 1.54415 0)
(2.12305 0.946263 6.27702e-20)
(1.55085 0.329506 0)
(10.7792 10.8021 4.961e-18)
(10.9944 11.0209 -1.9837e-17)
(11.194 11.2197 6.03993e-17)
(11.3819 11.4071 -4.04742e-17)
(11.5628 11.5866 0)
(11.7407 11.7603 0)
(11.919 11.9297 9.65212e-18)
(12.1009 12.0951 8.92741e-18)
(12.2889 12.2563 8.35276e-18)
(12.4848 12.4125 0)
(12.6901 12.5627 0)
(12.906 12.7058 -3.57529e-17)
(13.1338 12.8402 5.54956e-17)
(13.3739 12.963 -4.32649e-18)
(13.6268 13.0704 -2.60058e-17)
(13.8935 13.1615 3.12869e-18)
(14.1778 13.242 6.00741e-18)
(14.4867 13.3283 1.34452e-18)
(14.8292 13.4428 -2.64222e-18)
(15.2088 13.6003 0)
(15.6102 13.7848 1.09087e-19)
(15.9714 13.9318 -8.64573e-18)
(16.2163 13.9597 -8.97418e-20)
(16.2834 13.7974 1.61176e-17)
(16.1266 13.4 -5.14039e-19)
(15.7303 12.7624 -7.74915e-18)
(15.1122 11.92 -2.18085e-19)
(14.3195 10.9392 -3.89684e-18)
(13.4173 9.90133 3.31823e-18)
(12.4746 8.88377 9.68223e-20)
(11.5509 7.94355 -2.06912e-19)
(10.6863 7.10836 2.69532e-18)
(9.90003 6.37784 -1.39907e-18)
(9.1905 5.73105 -2.36569e-18)
(8.54832 5.14103 1.02589e-18)
(7.96148 4.58325 0)
(7.41787 4.03836 0)
(6.89892 3.48894 1.33579e-20)
(6.39836 2.92542 0)
(5.91459 2.34154 0)
(5.30583 1.73673 0)
(11.0708 10.5811 -4.54119e-18)
(11.2712 10.775 4.60589e-18)
(11.4585 10.9498 9.12741e-18)
(11.6355 11.1134 2.75815e-17)
(11.8062 11.2692 -3.81162e-17)
(11.9739 11.4192 1.89812e-17)
(12.1416 11.565 -1.89219e-17)
(12.312 11.7069 -4.37034e-17)
(12.4873 11.8448 2.50891e-17)
(12.6691 11.9782 -3.87221e-17)
(12.8588 12.1061 3.765e-17)
(13.0575 12.2279 3.51334e-18)
(13.2667 12.3427 3.46226e-18)
(13.487 12.449 6.56703e-18)
(13.7188 12.5447 3.22019e-18)
(13.9622 12.6269 2.4111e-17)
(14.2177 12.6927 -2.96097e-17)
(14.487 12.7429 2.2125e-17)
(14.7754 12.7847 -2.07475e-17)
(15.0923 12.8339 0)
(15.4495 12.9099 -1.16891e-18)
(15.8378 13.0177 0)
(16.2323 13.1401 1.04399e-18)
(16.6043 13.2423 -8.11827e-18)
(16.9132 13.2774 8.13105e-18)
(17.1171 13.1997 0)
(17.182 12.9757 4.78667e-19)
(17.0888 12.5915 3.94101e-19)
(16.8362 12.0542 -2.54523e-19)
(16.4398 11.3894 4.2515e-19)
(15.9275 10.6342 -2.39108e-19)
(15.3337 9.82926 -2.68319e-18)
(14.694 9.01156 2.88667e-18)
(14.036 8.20681 1.74567e-19)
(13.382 7.43127 -1.04002e-18)
(12.7475 6.69277 2.12479e-18)
(12.1422 5.99131 -1.01981e-18)
(11.5601 5.31666 0)
(11.0013 4.66183 0)
(10.4806 4.01609 0)
(9.81958 3.36799 -6.28413e-20)
(11.3158 10.3877 8.18726e-18)
(11.5027 10.5596 -2.956e-17)
(11.6785 10.7132 3.46592e-17)
(11.8454 10.856 3.46584e-17)
(12.0066 10.991 -3.57047e-17)
(12.165 11.1202 -3.33911e-19)
(12.3232 11.245 -3.63904e-17)
(12.4835 11.3659 -8.22832e-18)
(12.6478 11.4828 4.05665e-17)
(12.8176 11.5953 7.56499e-18)
(12.9942 11.7026 -7.20421e-18)
(13.1785 11.8041 0)
(13.3718 11.8991 1.64163e-17)
(13.5749 11.9864 -2.28747e-17)
(13.7886 12.065 -2.7763e-17)
(14.0132 12.1333 8.13288e-19)
(14.2489 12.1889 2.37486e-17)
(14.4956 12.2292 -1.93404e-17)
(14.7542 12.2521 4.63528e-17)
(15.0275 12.2589 -2.13357e-17)
(15.3225 12.2566 0)
(15.6395 12.2578 0)
(15.9775 12.2735 0)
(16.3386 12.3071 8.64623e-18)
(16.7147 12.3511 -9.70797e-18)
(17.0892 12.3875 7.83599e-18)
(17.4391 12.3913 -8.2538e-18)
(17.739 12.3358 7.07752e-18)
(17.9654 12.1988 -3.32663e-18)
(18.1009 11.9658 -3.75161e-18)
(18.1363 11.6324 -8.10795e-20)
(18.0706 11.2032 0)
(17.9105 10.6906 -1.59031e-19)
(17.6666 10.11 -1.50896e-19)
(17.3532 9.47881 1.2903e-18)
(16.986 8.81531 -1.47293e-18)
(16.582 8.13554 -1.79184e-19)
(16.1485 7.44602 0)
(15.6924 6.7556 0)
(15.2519 6.06838 2.77651e-19)
(14.6504 5.36706 -2.14014e-19)
(11.5233 10.2167 -7.55017e-18)
(11.6976 10.3691 0)
(11.8626 10.5039 -3.19099e-17)
(12.0197 10.6282 -3.22884e-17)
(12.1717 10.7449 3.34053e-17)
(12.3213 10.8556 -1.65624e-17)
(12.4705 10.9617 5.11925e-17)
(12.6214 11.0639 -1.66964e-17)
(12.7757 11.1619 0)
(12.9347 11.2554 0)
(13.0994 11.3439 0)
(13.2708 11.4265 -2.69516e-17)
(13.4498 11.5028 5.90298e-17)
(13.6373 11.5716 -3.19736e-17)
(13.834 11.632 2.43502e-17)
(14.0404 11.6829 -2.71436e-17)
(14.2571 11.7229 -2.291e-17)
(14.4842 11.7503 2.00733e-17)
(14.7219 11.7627 -2.13985e-17)
(14.9703 11.7572 2.14535e-17)
(15.2307 11.7318 2.61583e-18)
(15.4979 11.6888 -2.54641e-18)
(15.7703 11.6352 0)
(16.0546 11.5779 0)
(16.3548 11.5233 9.84897e-18)
(16.6726 11.4744 -8.74394e-18)
(17.0052 11.4292 -1.08954e-18)
(17.3453 11.3803 0)
(17.6815 11.3165 -1.02172e-18)
(18.0004 11.225 4.95541e-19)
(18.2879 11.0933 -3.10822e-18)
(18.5317 10.9115 3.50078e-18)
(18.7222 10.6736 0)
(18.8533 10.377 -3.19934e-18)
(18.9218 10.0227 1.63542e-18)
(18.9278 9.61579 1.29218e-18)
(18.8746 9.1637 1.66707e-18)
(18.7657 8.67146 -7.57414e-19)
(18.601 8.14665 -7.40241e-19)
(18.4117 7.60065 0)
(18.0851 7.01558 -2.07814e-19)
(11.7 10.0644 2.0634e-17)
(11.8625 10.1993 -1.44321e-17)
(12.017 10.3174 1.47526e-17)
(12.1646 10.4254 0)
(12.3078 10.5257 -9.25673e-17)
(12.4486 10.62 9.53471e-17)
(12.5892 10.7095 0)
(12.7311 10.7949 1.62439e-17)
(12.8757 10.876 0)
(13.0244 10.9525 0)
(13.1779 11.0238 0)
(13.3371 11.0893 5.25497e-17)
(13.5028 11.1484 -5.17311e-17)
(13.6756 11.2001 -6.2788e-18)
(13.8561 11.2435 0)
(14.0449 11.2774 0)
(14.2423 11.3008 0)
(14.4489 11.3123 0)
(14.6649 11.3103 -5.43676e-18)
(14.8903 11.2928 -5.41348e-18)
(15.1255 11.2568 -2.50195e-18)
(15.3627 11.2014 -1.99975e-17)
(15.597 11.1279 -2.04821e-18)
(15.8303 11.0376 2.17778e-17)
(16.0648 10.9335 0)
(16.303 10.8196 1.17779e-18)
(16.5477 10.6994 1.04954e-18)
(16.8002 10.5755 0)
(17.06 10.4484 -6.23985e-18)
(17.3246 10.3166 1.48512e-17)
(17.5894 10.1766 -1.09935e-17)
(17.8483 10.0237 7.83825e-18)
(18.0942 9.85322 -4.89156e-18)
(18.3207 9.6605 -5.05329e-19)
(18.5214 9.4418 0)
(18.6902 9.19518 4.09478e-19)
(18.8225 8.92038 -1.81948e-18)
(18.9164 8.6176 -4.91502e-19)
(18.9682 8.28762 1.80614e-18)
(18.9831 7.93693 -4.54138e-19)
(18.9357 7.55808 6.43268e-19)
(11.8512 9.9279 0)
(12.0025 10.0472 0)
(12.1468 10.1504 -2.11133e-19)
(12.2852 10.2438 -2.83717e-17)
(12.4195 10.3296 -1.02669e-19)
(12.5518 10.4094 1.46707e-19)
(12.6837 10.4842 0)
(12.8167 10.5547 4.57899e-17)
(12.952 10.6207 -8.9185e-17)
(13.0906 10.682 5.55109e-17)
(13.2333 10.7379 -5.38769e-17)
(13.3807 10.788 6.40588e-17)
(13.5335 10.8316 -8.71572e-17)
(13.6921 10.8679 5.48766e-17)
(13.857 10.8959 0)
(14.0286 10.9146 0)
(14.2071 10.9228 0)
(14.3929 10.9194 -5.60771e-18)
(14.5861 10.9029 2.65107e-18)
(14.787 10.8718 -2.14322e-19)
(14.9956 10.824 2.63697e-18)
(15.2052 10.7594 -2.72021e-18)
(15.4104 10.6788 -2.68334e-18)
(15.611 10.5816 -2.35707e-18)
(15.8061 10.4678 2.46359e-18)
(15.9956 10.3384 1.29668e-18)
(16.1801 10.1949 1.19528e-18)
(16.3603 10.0393 1.17873e-18)
(16.5373 9.87381 -1.06364e-18)
(16.7118 9.70042 1.09714e-17)
(16.8837 9.5206 -9.76297e-18)
(17.0523 9.33523 4.28156e-18)
(17.2163 9.14448 -7.50336e-18)
(17.3737 8.94796 4.70307e-18)
(17.5221 8.74486 -4.17175e-18)
(17.6582 8.53471 4.14841e-18)
(17.7785 8.31709 0)
(17.8814 8.09163 4.745e-19)
(17.9649 7.85774 -5.45177e-19)
(18.022 7.6176 -5.19879e-19)
(18.0713 7.37196 5.1023e-19)
(11.981 9.80507 0)
(12.1215 9.91034 2.41028e-17)
(12.256 10.0003 -1.74508e-19)
(12.3853 10.0808 -5.20707e-17)
(12.5109 10.1539 8.1498e-17)
(12.6347 10.2208 -5.57074e-17)
(12.758 10.2826 0)
(12.8821 10.3398 0)
(13.0081 10.3925 3.53861e-19)
(13.1368 10.4403 1.08144e-16)
(13.2688 10.4827 -1.0347e-16)