/*--------------------------------*- C++ -*----------------------------------*\
| =========                 |                                                 |
| \\      /  F ield         | OpenFOAM: The Open Source CFD Toolbox           |
|  \\    /   O peration     | Version:  5.x                                   |
|   \\  /    A nd           | Web:      www.OpenFOAM.org                      |
|    \\/     M anipulation  |                                                 |
\*---------------------------------------------------------------------------*/
FoamFile
{
    version     2.0;
    format      ascii;
    class       volVectorField;
    location    "300";
    object      wallShearStress;
}
// * * * * * * * * * * * * * * * * * * * * * * * * * * * * * * * * * * * * * //

dimensions      [0 2 -2 0 0 0 0];

internalField   uniform (0 0 0);

boundaryField
{
    inlet
    {
        type            calculated;
        value           uniform (0 0 0);
    }
    outlet
    {
        type            calculated;
        value           uniform (0 0 0);
    }
    walls
    {
        type            calculated;
        value           nonuniform List<vector> 
82
(
(0.314627 -1.73377 -1.50463e-36)
(0.0116036 -2.41667 1.13747e-20)
(-0.341683 -2.95169 -1.44178e-18)
(-0.844251 -2.93952 -1.54855e-18)
(-1.21801 -2.62312 -3.34921e-18)
(-1.45733 -2.18782 1.6011e-18)
(-1.5764 -1.73736 1.46991e-18)
(-1.5988 -1.3271 -1.30685e-18)
(-1.5476 -0.97955 -2.79789e-18)
(-1.43406 -0.693713 -8.75802e-20)
(-1.2276 -0.437675 -1.039e-18)
(-0.991595 -0.242986 3.89756e-20)
(-0.811585 -0.136117 -5.20633e-19)
(-0.696728 -0.0880676 -3.17426e-19)
(-0.591439 -0.0573225 -1.16308e-19)
(-0.471563 -0.029801 3.29429e-20)
(-0.345083 -0.00961776 -1.19357e-19)
(-0.225609 0.00139117 -2.59262e-20)
(-0.122238 0.00507881 2.35965e-20)
(-0.0429709 0.00414943 2.30623e-19)
(-0.00347541 0.000978188 1.62969e-19)
(0.0105439 -0.000586352 3.03862e-19)
(0.0255008 -0.00217102 7.75616e-19)
(0.0371522 -0.00360539 5.65615e-20)
(0.0444058 -0.00483074 2.52745e-22)
(0.0480208 -0.00579102 -3.25327e-20)
(0.0495496 -0.00662635 2.14174e-18)
(0.0503299 -0.00750837 -3.3788e-20)
(0.0511834 -0.00844988 2.21487e-18)
(0.0526151 -0.00945597 -2.15648e-18)
(0.0549568 -0.0106257 -3.39918e-20)
(0.0585237 -0.0120421 -1.66804e-20)
(0.0635157 -0.0137153 1.62416e-20)
(0.069655 -0.0154905 -3.00927e-36)
(0.0755505 -0.0169144 -3.87682e-18)
(0.0781179 -0.0172252 0)
(0.073796 -0.0157059 -2.35099e-38)
(0.0622979 -0.0122219 6.49804e-21)
(0.0412536 -0.00572471 -4.36794e-21)
(0.0180876 0.00355351 2.30316e-18)
(0.0171891 0.0197226 2.24565e-18)
(0.385484 -1.20923 -4.59329e-19)
(0.274153 -0.608784 -6.76131e-20)
(0.144965 -0.262675 -3.479e-18)
(0.0423301 -0.0802229 -1.71156e-18)
(-0.00130708 -0.0123017 -1.16671e-18)
(-0.0277199 0.00458852 -1.96327e-18)
(-0.0771523 0.0278479 -4.62413e-18)
(-0.134616 0.049681 -2.21877e-18)
(-0.192935 0.0668245 1.99842e-18)
(-0.257284 0.0857633 1.38799e-19)
(-0.33209 0.102778 -4.27292e-18)
(-0.402327 0.105837 1.96208e-18)
(-0.460823 0.098974 3.85145e-21)
(-0.512413 0.0897565 1.22702e-18)
(-0.559615 0.0792549 1.89626e-18)
(-0.601379 0.0668302 -1.15958e-19)
(-0.637196 0.052826 -1.03444e-36)
(-0.667355 0.0378569 -7.47192e-19)
(-0.692253 0.0224488 -5.23948e-20)
(-0.712416 0.00702706 -3.95187e-19)
(-0.727801 -0.00794012 6.89652e-22)
(-0.739153 -0.0217747 5.64237e-37)
(-0.746276 -0.0330023 -8.03026e-19)
(-0.751717 -0.04303 -6.92416e-19)
(-0.755987 -0.0521059 1.44096e-18)
(-0.759443 -0.0603783 1.40518e-18)
(-0.762418 -0.0679387 2.74098e-18)
(-0.765166 -0.0748756 1.33661e-18)
(-0.767865 -0.0812809 4.04138e-20)
(-0.770689 -0.087254 -1.30936e-18)
(-0.773795 -0.0928934 -1.25647e-18)
(-0.777353 -0.0983072 2.42786e-18)
(-0.781532 -0.103608 2.36085e-18)
(-0.786521 -0.10891 -2.29242e-18)
(-0.792505 -0.114329 1.70881e-20)
(-0.799757 -0.119989 -1.68296e-20)
(-0.808502 -0.126035 -1.17549e-38)
(-0.820023 -0.13274 -5.87747e-39)
(-0.832307 -0.140222 3.66693e-21)
(-0.861443 -0.15017 -1.83605e-18)
(-0.85864 -0.159811 1.66297e-21)
)
;
    }
    frontAndBack
    {
        type            empty;
    }
}


// ************************************************************************* //
