/*--------------------------------*- C++ -*----------------------------------*\
| =========                 |                                                 |
| \\      /  F ield         | OpenFOAM: The Open Source CFD Toolbox           |
|  \\    /   O peration     | Version:  5.x                                   |
|   \\  /    A nd           | Web:      www.OpenFOAM.org                      |
|    \\/     M anipulation  |                                                 |
\*---------------------------------------------------------------------------*/
FoamFile
{
    version     2.0;
    format      ascii;
    class       volVectorField;
    location    "300";
    object      wallShearStress;
}
// * * * * * * * * * * * * * * * * * * * * * * * * * * * * * * * * * * * * * //

dimensions      [0 2 -2 0 0 0 0];

internalField   uniform (0 0 0);

boundaryField
{
    inlet
    {
        type            calculated;
        value           uniform (0 0 0);
    }
    outlet
    {
        type            calculated;
        value           uniform (0 0 0);
    }
    walls
    {
        type            calculated;
        value           nonuniform List<vector> 
82
(
(0.116375 -0.818956 -7.52316e-37)
(-0.027693 -1.20756 7.13722e-21)
(-0.216776 -1.53374 -8.36516e-19)
(-0.496718 -1.57548 -9.43927e-19)
(-0.729199 -1.47993 -2.20208e-18)
(-0.899084 -1.30426 1.1029e-18)
(-1.00396 -1.09546 1.06304e-18)
(-1.0529 -0.884696 -9.97406e-19)
(-1.05787 -0.690411 -2.25973e-18)
(-1.02478 -0.519016 -7.32459e-20)
(-0.931946 -0.354011 -1.00643e-18)
(-0.814095 -0.219858 5.08042e-20)
(-0.725949 -0.140813 -7.72086e-19)
(-0.679015 -0.102615 -7.09681e-19)
(-0.639371 -0.0763625 -5.52472e-19)
(-0.590581 -0.0511118 -3.15555e-19)
(-0.535468 -0.0290509 2.38113e-19)
(-0.479659 -0.0113839 1.87801e-20)
(-0.424838 0.00220539 -1.87467e-20)
(-0.371107 0.0121563 -9.52115e-20)
(-0.318315 0.0188276 -6.10311e-20)
(-0.273155 0.0220317 -3.52751e-20)
(-0.234851 0.0230364 -1.89776e-20)
(-0.198838 0.0227552 2.69682e-21)
(-0.165095 0.0214465 1.34136e-21)
(-0.133725 0.019318 -3.72817e-21)
(-0.104877 0.0165541 2.99811e-19)
(-0.0789308 0.0133576 -6.14765e-21)
(-0.0563289 0.0101428 4.12376e-19)
(-0.036697 0.00711684 -4.3922e-19)
(-0.0206933 0.0043275 -7.16851e-21)
(-0.00886409 0.00203265 -4.00053e-21)
(-0.00212752 0.000540707 3.72307e-21)
(0.00148476 -0.000270683 -7.52316e-37)
(0.00506491 -0.00114852 -1.25966e-18)
(0.00890205 -0.00241938 1.50463e-36)
(0.0156328 -0.00476683 -7.64071e-38)
(0.0279711 -0.00790785 2.47741e-21)
(0.0422446 -0.00833351 -2.56963e-21)
(0.0459313 -0.000350679 1.18468e-18)
(0.0213094 0.00975969 1.178e-18)
(0.142995 -0.532684 -2.28997e-19)
(0.0878969 -0.240356 -3.23917e-20)
(0.0327204 -0.0851447 -1.5474e-18)
(-0.000121453 -0.0158582 -6.55542e-19)
(-0.0165118 0.00149914 -7.9641e-19)
(-0.0499718 0.0201546 -1.02849e-18)
(-0.089332 0.0368804 -2.12346e-18)
(-0.128231 0.0490182 -9.89965e-19)
(-0.164921 0.0580481 8.76869e-19)
(-0.204941 0.0691229 5.92045e-20)
(-0.251339 0.0785875 -1.7459e-18)
(-0.292443 0.0774175 7.79541e-19)
(-0.323947 0.069576 2.09874e-21)
(-0.350371 0.0609929 4.69566e-19)
(-0.373819 0.052329 7.14984e-19)
(-0.39361 0.0429841 -4.33429e-20)
(-0.40948 0.0331011 -4.70198e-38)
(-0.421727 0.0230309 -2.72393e-19)
(-0.430686 0.0130577 -1.90253e-20)
(-0.436729 0.00340171 -1.41769e-19)
(-0.439872 -0.00569878 3.53022e-22)
(-0.441231 -0.0138266 -5.17218e-37)
(-0.440822 -0.0202613 -2.8496e-19)
(-0.439657 -0.0258962 -2.45118e-19)
(-0.437971 -0.0308907 5.09437e-19)
(-0.435907 -0.0353327 4.96982e-19)
(-0.433609 -0.0392805 9.70811e-19)
(-0.431184 -0.0427972 4.74382e-19)
(-0.428702 -0.0459442 1.43901e-20)
(-0.426235 -0.0487847 -4.6725e-19)
(-0.423847 -0.0513787 -4.49923e-19)
(-0.421603 -0.0537887 8.72521e-19)
(-0.41955 -0.0560724 8.52107e-19)
(-0.417712 -0.058279 -8.31701e-19)
(-0.416078 -0.0604524 6.25827e-21)
(-0.414686 -0.0626335 -6.1717e-21)
(-0.413441 -0.0648606 0)
(-0.412838 -0.0672206 -1.46937e-39)
(-0.411201 -0.0697009 1.40962e-21)
(-0.416814 -0.0727881 -7.15739e-19)
(-0.399152 -0.0759015 6.53825e-22)
)
;
    }
    frontAndBack
    {
        type            empty;
    }
}


// ************************************************************************* //
