/*--------------------------------*- C++ -*----------------------------------*\
| =========                 |                                                 |
| \\      /  F ield         | OpenFOAM: The Open Source CFD Toolbox           |
|  \\    /   O peration     | Version:  5.x                                   |
|   \\  /    A nd           | Web:      www.OpenFOAM.org                      |
|    \\/     M anipulation  |                                                 |
\*---------------------------------------------------------------------------*/
FoamFile
{
    version     2.0;
    format      ascii;
    class       volVectorField;
    location    "300";
    object      wallShearStress;
}
// * * * * * * * * * * * * * * * * * * * * * * * * * * * * * * * * * * * * * //

dimensions      [0 2 -2 0 0 0 0];

internalField   uniform (0 0 0);

boundaryField
{
    inlet
    {
        type            calculated;
        value           uniform (0 0 0);
    }
    outlet
    {
        type            calculated;
        value           uniform (0 0 0);
    }
    walls
    {
        type            calculated;
        value           nonuniform List<vector> 
82
(
(0.205678 -1.42288 -7.52316e-37)
(-0.0440205 -2.10138 1.23684e-20)
(-0.370492 -2.67255 -1.45241e-18)
(-0.856262 -2.74744 -1.63656e-18)
(-1.26019 -2.58291 -3.81187e-18)
(-1.556 -2.27805 1.90646e-18)
(-1.74016 -1.91446 1.83373e-18)
(-1.8282 -1.54688 -1.71755e-18)
(-1.84001 -1.20783 -3.88999e-18)
(-1.78523 -0.908522 -1.26204e-19)
(-1.62512 -0.619884 -1.72904e-18)
(-1.42147 -0.385153 8.69011e-20)
(-1.27059 -0.246924 -1.31763e-18)
(-1.19252 -0.180315 -1.20726e-18)
(-1.1273 -0.134698 -9.37731e-19)
(-1.04576 -0.0907141 -5.33861e-19)
(-0.952488 -0.0520416 4.01253e-19)
(-0.857413 -0.0208117 3.13253e-20)
(-0.763648 0.00345336 -3.12745e-20)
(-0.671444 0.0214625 -1.55717e-19)
(-0.580533 0.0337989 -9.68064e-20)
(-0.502568 0.040037 -5.14356e-20)
(-0.436173 0.0423219 -1.44002e-20)
(-0.373474 0.0423056 5.82498e-21)
(-0.3144 0.0404346 2.33527e-21)
(-0.259077 0.0370672 -7.04077e-21)
(-0.207618 0.0325693 5.58753e-19)
(-0.160175 0.0273562 -1.14085e-20)
(-0.116881 0.0216871 7.90244e-19)
(-0.0787761 0.0157136 -8.59675e-19)
(-0.0478195 0.0100669 -1.38454e-20)
(-0.0242082 0.00540066 -7.45904e-21)
(-0.00866671 0.00206788 6.58934e-21)
(-0.000749513 0.000269632 0)
(0.00405747 -0.000898279 -1.93138e-18)
(0.00981716 -0.00274476 0)
(0.0198855 -0.00643065 -2.05712e-37)
(0.0409962 -0.0120717 4.824e-21)
(0.0689094 -0.0137885 -4.84997e-21)
(0.0796526 -0.000676579 2.37409e-18)
(0.0360436 0.0158709 2.16288e-18)
(0.250313 -0.924311 -3.97091e-19)
(0.153673 -0.415621 -5.58689e-20)
(0.0577796 -0.146576 -2.66952e-18)
(0.000766068 -0.0267144 -1.09709e-18)
(-0.0246359 0.00167666 -1.29537e-18)
(-0.0800503 0.0325435 -1.76767e-18)
(-0.146784 0.061746 -3.64472e-18)
(-0.212904 0.0823072 -1.66096e-18)
(-0.275033 0.096802 1.47597e-18)
(-0.343356 0.115339 1.01327e-19)
(-0.422614 0.131839 -3.02603e-18)
(-0.493055 0.13064 1.36162e-18)
(-0.547402 0.118021 3.55341e-21)
(-0.593153 0.103876 8.26921e-19)
(-0.633859 0.089415 1.26268e-18)
(-0.668361 0.0736814 -7.66572e-20)
(-0.696179 0.0569465 3.76158e-37)
(-0.717801 0.0398237 -4.84231e-19)
(-0.733788 0.0228149 -3.38358e-20)
(-0.744775 0.0063071 -2.53105e-19)
(-0.750772 -0.0092798 5.95133e-22)
(-0.753647 -0.0232367 -9.40395e-38)
(-0.75341 -0.0343117 -5.10165e-19)
(-0.751836 -0.0440257 -4.39295e-19)
(-0.749315 -0.0526401 9.14171e-19)
(-0.746073 -0.0602995 8.93006e-19)
(-0.742357 -0.0671048 1.74668e-18)
(-0.738365 -0.0731633 8.54615e-19)
(-0.734235 -0.0785818 2.59767e-20)
(-0.730079 -0.0834688 -8.43965e-19)
(-0.726024 -0.0879297 -8.13659e-19)
(-0.722183 -0.0920688 1.57998e-18)
(-0.718605 -0.0959826 1.54533e-18)
(-0.715323 -0.0997504 -1.51089e-18)
(-0.712303 -0.103444 1.14e-20)
(-0.709593 -0.10713 -1.12454e-20)
(-0.70701 -0.110867 -1.17549e-38)
(-0.705345 -0.114796 -1.46937e-39)
(-0.701698 -0.118887 2.59524e-21)
(-0.709845 -0.123849 -1.32059e-18)
(-0.678189 -0.128955 1.21091e-21)
)
;
    }
    frontAndBack
    {
        type            empty;
    }
}


// ************************************************************************* //
