/*--------------------------------*- C++ -*----------------------------------*\
| =========                 |                                                 |
| \\      /  F ield         | OpenFOAM: The Open Source CFD Toolbox           |
|  \\    /   O peration     | Version:  5.x                                   |
|   \\  /    A nd           | Web:      www.OpenFOAM.org                      |
|    \\/     M anipulation  |                                                 |
\*---------------------------------------------------------------------------*/
FoamFile
{
    version     2.0;
    format      ascii;
    class       volScalarField;
    location    "400";
    object      nut;
}
// * * * * * * * * * * * * * * * * * * * * * * * * * * * * * * * * * * * * * //

dimensions      [0 2 -1 0 0 0 0];

internalField   nonuniform List<scalar> 
11040
(
0.00248109
0.00133131
0.000428262
0.000604201
0.000546445
0.000468728
0.000466429
0.000443372
0.000411735
0.000385911
0.000365211
0.000350049
0.000340818
0.000336708
0.000337806
0.000343443
0.000352627
0.000364921
0.00038045
0.000399967
0.000424758
0.000453201
0.00048263
0.000512496
0.000541431
0.000568227
0.000592068
0.000612387
0.000628987
0.000642124
0.000654764
0.00067078
0.00069503
0.000721815
0.000719756
0.000632428
0.00047001
0.000433351
0.000457452
0.000510329
0.000612397
0.0052346
0.00395449
0.00300067
0.00305383
0.00259707
0.00198053
0.00151922
0.00123577
0.00102358
0.000879055
0.00076749
0.000683124
0.00062744
0.000593443
0.000582619
0.000589296
0.000604241
0.000622067
0.000640821
0.000662921
0.000699868
0.000754019
0.000813342
0.000877915
0.000946781
0.00101888
0.00109385
0.00117173
0.00125327
0.00133991
0.00143164
0.00152906
0.00163283
0.0017422
0.00185256
0.00195704
0.00206146
0.0021862
0.00234647
0.0026282
0.00326572
0.0108285
0.00804746
0.00589232
0.00502032
0.00497971
0.00461668
0.0035938
0.00292652
0.00241019
0.00206549
0.00180445
0.00159441
0.0014507
0.00135077
0.00129404
0.00127223
0.00128202
0.00131792
0.00137908
0.00146562
0.00157904
0.00171572
0.00186628
0.00203161
0.00220873
0.0023941
0.00258564
0.00278186
0.00298208
0.00318574
0.00339267
0.00360394
0.0038208
0.00404488
0.00427736
0.0045191
0.00477589
0.00505795
0.00540319
0.00598295
0.00716307
0.0180328
0.0138203
0.0101383
0.0077389
0.00688153
0.00688388
0.00650004
0.00553563
0.00456972
0.00390902
0.00343313
0.00301949
0.00272831
0.00251777
0.0023909
0.00233257
0.00233997
0.00240136
0.00251389
0.00267672
0.00288807
0.00313765
0.00341356
0.00371683
0.00404157
0.00438137
0.00473179
0.00508943
0.0054526
0.00582051
0.00619222
0.0065687
0.006952
0.00734598
0.00775481
0.00818367
0.00864
0.00913726
0.00972923
0.0106536
0.0123186
0.0261233
0.0215762
0.0160638
0.0121017
0.00967888
0.00888296
0.00898574
0.00885475
0.00805681
0.00680444
0.00591132
0.00516116
0.00464204
0.00424941
0.0039967
0.00385835
0.00383909
0.00391753
0.00408508
0.00434117
0.00467892
0.00508176
0.00553152
0.00602746
0.00655876
0.00711468
0.00768691
0.00826848
0.00885561
0.0094475
0.0100421
0.0106403
0.0112452
0.0118629
0.0125001
0.0131654
0.0138703
0.0146377
0.0155354
0.0168419
0.018981
0.0348641
0.0305162
0.0244172
0.0188295
0.0146233
0.0120407
0.0111893
0.0114257
0.0115864
0.0110213
0.00993383
0.00858208
0.00760741
0.00682906
0.0063106
0.0060141
0.00591743
0.00598931
0.00620656
0.00657367
0.00707219
0.00767503
0.00835677
0.00911266
0.00992336
0.0107718
0.0116437
0.0125264
0.0134114
0.0142989
0.0151847
0.0160691
0.0169562
0.017855
0.0187749
0.0197277
0.0207308
0.0218191
0.0230744
0.024792
0.0274112
0.0441235
0.0401188
0.0343214
0.0278054
0.0221861
0.0177343
0.0148839
0.0138645
0.0141737
0.0146315
0.0143802
0.0134999
0.0122482
0.0108864
0.00987414
0.00920755
0.0088565
0.00881654
0.00905045
0.00953464
0.0102274
0.0110795
0.0120592
0.0131559
0.0143354
0.0155707
0.0168396
0.01812
0.019393
0.0206617
0.0219187
0.0231625
0.0243977
0.0256369
0.0268929
0.0281814
0.0295262
0.0309758
0.032626
0.0347722
0.0378863
0.0537145
0.0501151
0.0449191
0.0385776
0.0318885
0.0261589
0.0214444
0.0182461
0.0169409
0.0172104
0.0179441
0.0180979
0.0175175
0.0164747
0.0152446
0.0140686
0.0132618
0.0129227
0.0130108
0.0135022
0.0143634
0.0155071
0.0168522
0.0183827
0.0200384
0.0217756
0.0235605
0.025361
0.0271312
0.0288825
0.0306035
0.0322885
0.0339413
0.0355783
0.0372175
0.0388791
0.0405942
0.0424262
0.0444839
0.0470512
0.0506907
0.0634123
0.0602706
0.0557279
0.0500639
0.0435422
0.0367773
0.0308683
0.0258339
0.0221988
0.0204705
0.0205445
0.0214966
0.0221375
0.0219901
0.0213131
0.0203931
0.0194978
0.0188632
0.0186976
0.0190895
0.0200358
0.0214488
0.0231993
0.0252334
0.027457
0.0297991
0.032206
0.0346277
0.0370251
0.0393794
0.0416721
0.0438895
0.0460304
0.0481155
0.0501702
0.0522213
0.0543084
0.0565116
0.0589518
0.0619014
0.0660494
0.0729718
0.0703116
0.0664356
0.0615514
0.0557965
0.0492702
0.0424756
0.0363534
0.0309689
0.0268326
0.0245444
0.024232
0.0252581
0.0264304
0.0269214
0.0267928
0.026421
0.0261199
0.0261325
0.0266511
0.0278004
0.0295443
0.0317476
0.0343658
0.0372744
0.0403597
0.0435414
0.0467401
0.0498904
0.0529569
0.0559153
0.0587405
0.0614176
0.0639659
0.0664242
0.0688347
0.0712463
0.0737516
0.0764919
0.0797427
0.0842705
0.0821484
0.0799586
0.0767462
0.0726414
0.0677578
0.0621069
0.0557273
0.0489833
0.0425631
0.0368614
0.0322258
0.0292705
0.0283654
0.0292255
0.0308642
0.0321979
0.0329097
0.0333944
0.0340769
0.0352644
0.0371589
0.0397625
0.0428906
0.0464278
0.0502335
0.0542223
0.0583427
0.0624941
0.0665533
0.0704563
0.0741827
0.0776987
0.0809584
0.0839606
0.0867601
0.0894338
0.0920474
0.094699
0.0975561
0.100911
0.105543
0.0907218
0.0889657
0.0863788
0.0830269
0.0789903
0.0743028
0.0689026
0.0627826
0.0561708
0.0494322
0.0435078
0.0384145
0.0347427
0.0330625
0.0334571
0.0353129
0.0375693
0.0395035
0.0412716
0.0434424
0.0464499
0.0503669
0.0549944
0.0602054
0.0657959
0.071556
0.0772905
0.0828361
0.0880671
0.0929396
0.0975026
0.101781
0.105669
0.10908
0.112071
0.114808
0.117403
0.119919
0.122549
0.125643
0.12995
0.0985223
0.0971452
0.0951101
0.0924485
0.0892066
0.0854179
0.0810369
0.0760099
0.070285
0.0639283
0.0572792
0.0511556
0.0456032
0.0411823
0.0385612
0.0381407
0.0397638
0.0427122
0.0461279
0.0497466
0.0540527
0.0593975
0.0656842
0.0728123
0.0805485
0.0886297
0.0967669
0.104765
0.112439
0.119624
0.12616
0.131906
0.136717
0.140543
0.143504
0.14599
0.148285
0.150247
0.152066
0.154315
0.157639
0.105447
0.104384
0.102812
0.100744
0.0982079
0.0952252
0.0917592
0.0877878
0.0832297
0.0780162
0.0721511
0.0658499
0.0593803
0.053565
0.0485603
0.0449985
0.043503
0.0443671
0.0474096
0.0521146
0.0580305
0.0649558
0.0728963
0.0819033
0.091759
0.10215
0.112753
0.123295
0.133543
0.143295
0.15238
0.160649
0.167921
0.174121
0.17917
0.182991
0.185505
0.186697
0.186955
0.187677
0.189287
0.111457
0.110647
0.109448
0.107864
0.105916
0.103621
0.100943
0.0978645
0.0943519
0.0903468
0.0857674
0.0805557
0.0747202
0.0684702
0.0625501
0.0570989
0.0526588
0.0499327
0.0495346
0.0518301
0.0569445
0.0645382
0.0739439
0.0847663
0.096682
0.109344
0.122374
0.135435
0.148236
0.160523
0.172088
0.18277
0.192432
0.20099
0.208364
0.214483
0.2193
0.222814
0.224998
0.225911
0.225867
0.116584
0.115969
0.115062
0.113859
0.112379
0.110636
0.108604
0.106267
0.103605
0.100593
0.0971814
0.093282
0.0887998
0.0836821
0.0780664
0.072083
0.0664982
0.0614897
0.0576612
0.0557568
0.0565345
0.0604976
0.0677768
0.0783145
0.0914757
0.106231
0.121717
0.13738
0.152826
0.167744
0.181894
0.195097
0.207217
0.218171
0.22789
0.236306
0.243398
0.249217
0.253763
0.257063
0.259276
0.120908
0.120445
0.119759
0.118848
0.117726
0.11641
0.114882
0.113129
0.111141
0.108901
0.106387
0.103554
0.10033
0.0966216
0.0923672
0.0875165
0.0821951
0.0765386
0.0713088
0.066728
0.0634416
0.0622687
0.0638623
0.0687857
0.0775125
0.0901169
0.105918
0.123579
0.141773
0.159643
0.176739
0.192814
0.207712
0.221363
0.233715
0.244717
0.254356
0.262708
0.269786
0.275608
0.280256
0.124365
0.124017
0.123485
0.122778
0.121911
0.120898
0.119731
0.118409
0.116915
0.115241
0.113377
0.111298
0.108971
0.106347
0.103354
0.0999076
0.0959431
0.0915137
0.0865781
0.0812481
0.0763171
0.0721803
0.0694319
0.0686024
0.0703478
0.0753801
0.0842737
0.0971562
0.113455
0.13195
0.151225
0.170171
0.188146
0.204897
0.22033
0.234388
0.247066
0.258468
0.268621
0.277523
0.285201
0.127017
0.12674
0.126317
0.125756
0.125077
0.124277
0.123359
0.122327
0.121169
0.119885
0.118465
0.116896
0.115159
0.113234
0.111087
0.108668
0.105898
0.102736
0.0991244
0.0951997
0.0907773
0.0858802
0.0815336
0.0778983
0.0753564
0.074419
0.0757112
0.079904
0.087541
0.0988106
0.113383
0.130419
0.148793
0.167461
0.185638
0.202832
0.218823
0.233674
0.247402
0.259971
0.271379
0.129084
0.128856
0.128512
0.128058
0.127508
0.126863
0.126129
0.125302
0.124385
0.123368
0.122253
0.121032
0.119693
0.118224
0.116612
0.114835
0.112858
0.110629
0.108092
0.105247
0.102225
0.0988118
0.0951162
0.0910431
0.0872133
0.0838702
0.0813164
0.0799622
0.0803092
0.082893
0.0881718
0.0963927
0.107492
0.121116
0.136653
0.153343
0.170467
0.187592
0.204373
0.220553
0.236012
0.13073
0.130541
0.130256
0.129887
0.129434
0.128903
0.1283
0.127624
0.126877
0.12606
0.125164
0.12419
0.12313
0.121977
0.120724
0.11936
0.117872
0.116237
0.114425
0.11239
0.110144
0.107727
0.105344
0.102693
0.0997554
0.0966117
0.0932102
0.090123
0.0875223
0.0856795
0.0849423
0.0856895
0.0882734
0.0929721
0.0999276
0.109103
0.120302
0.13334
0.147935
0.163774
0.180605
0.132068
0.131909
0.131673
0.131365
0.130987
0.130548
0.130046
0.129487
0.128869
0.128195
0.127464
0.126674
0.125817
0.124892
0.123894
0.12282
0.121659
0.120404
0.11904
0.117546
0.115895
0.114118
0.112302
0.110434
0.108628
0.106688
0.104492
0.102072
0.099499
0.0968359
0.0942798
0.0921079
0.0905281
0.0897801
0.0901195
0.0917829
0.0949593
0.0998313
0.106532
0.115183
0.126029
0.133175
0.133041
0.132846
0.132585
0.132268
0.131896
0.131476
0.131006
0.13049
0.129929
0.129322
0.128668
0.127966
0.127213
0.126406
0.125542
0.124615
0.123622
0.122555
0.121406
0.120161
0.118839
0.117468
0.116054
0.114635
0.113215
0.111885
0.110501
0.10898
0.10728
0.105399
0.103379
0.101286
0.0991843
0.0972183
0.0956353
0.094583
0.0942223
0.0947442
0.0963556
0.099421
0.134104
0.133991
0.133826
0.133604
0.133335
0.133022
0.132663
0.132266
0.131827
0.131353
0.130844
0.130299
0.129717
0.129096
0.128433
0.127726
0.126975
0.126175
0.125322
0.124412
0.123441
0.122424
0.121382
0.120307
0.119205
0.11809
0.116992
0.115912
0.114859
0.113899
0.112893
0.111783
0.110545
0.109161
0.107638
0.106014
0.104347
0.102688
0.101101
0.0997259
0.098762
0.134894
0.1348
0.134659
0.134472
0.134243
0.133973
0.133667
0.133324
0.13295
0.132546
0.132115
0.131653
0.131162
0.130642
0.130091
0.129509
0.128894
0.128242
0.127552
0.12682
0.126044
0.125238
0.124421
0.123588
0.122738
0.121872
0.120996
0.120119
0.119252
0.118418
0.117611
0.116841
0.116154
0.115445
0.114669
0.113804
0.11284
0.111761
0.110565
0.109268
0.107853
0.135573
0.135495
0.135376
0.135215
0.135017
0.134785
0.134519
0.134224
0.133902
0.133556
0.133185
0.132791
0.132374
0.131935
0.131472
0.130987
0.130476
0.129938
0.129372
0.128776
0.128149
0.127501
0.126849
0.126188
0.12552
0.124844
0.12416
0.123469
0.122773
0.122079
0.12139
0.120719
0.120079
0.119466
0.118887
0.118386
0.117893
0.117364
0.116782
0.116128
0.115359
0.136163
0.136099
0.135998
0.13586
0.135687
0.135484
0.135254
0.134998
0.134719
0.134421
0.1341
0.133761
0.133404
0.13303
0.132638
0.132227
0.131797
0.131349
0.130881
0.130391
0.129879
0.129353
0.128826
0.128296
0.127763
0.12723
0.126693
0.126154
0.125611
0.125062
0.124509
0.123953
0.123398
0.122849
0.122316
0.12181
0.121334
0.120901
0.120536
0.120184
0.119811
0.136679
0.136629
0.136544
0.136425
0.136274
0.136096
0.135893
0.135668
0.135424
0.135161
0.134883
0.134591
0.134283
0.133963
0.133627
0.133277
0.132914
0.132537
0.132146
0.131739
0.131316
0.130884
0.130453
0.130024
0.129594
0.129167
0.128741
0.128316
0.127889
0.12746
0.12703
0.126602
0.126179
0.12576
0.125346
0.124939
0.124544
0.124172
0.123834
0.123521
0.123235
0.137135
0.137097
0.137026
0.136923
0.136792
0.136635
0.136457
0.136258
0.136042
0.135811
0.135566
0.135309
0.13504
0.134762
0.134473
0.134173
0.133865
0.133546
0.133216
0.132874
0.132522
0.132165
0.131811
0.131459
0.13111
0.130762
0.130416
0.13007
0.129732
0.129418
0.129135
0.128868
0.128608
0.128349
0.128088
0.127824
0.127557
0.127285
0.127013
0.126743
0.126487
0.137541
0.137512
0.137454
0.137366
0.137252
0.137116
0.136959
0.136784
0.136592
0.136387
0.13617
0.135943
0.135707
0.135461
0.135209
0.134949
0.134682
0.134409
0.134129
0.133841
0.133546
0.133249
0.132956
0.132664
0.132374
0.132086
0.131808
0.131558
0.131338
0.131137
0.13095
0.130772
0.1306
0.130432
0.130265
0.130099
0.129931
0.12976
0.129584
0.129405
0.129232
0.137904
0.137884
0.137837
0.137764
0.137667
0.137549
0.137412
0.137258
0.137089
0.136907
0.136714
0.136512
0.136302
0.136085
0.135863
0.135634
0.135401
0.135164
0.134922
0.134676
0.134426
0.134175
0.133927
0.13368
0.133445
0.133238
0.133058
0.132896
0.132748
0.132609
0.132478
0.132353
0.132233
0.132118
0.132005
0.131896
0.131789
0.131681
0.131573
0.131465
0.131367
0.138229
0.138218
0.138184
0.138126
0.138046
0.137946
0.137827
0.137692
0.137542
0.13738
0.137209
0.137029
0.136842
0.136649
0.136452
0.13625
0.136045
0.135837
0.135626
0.135413
0.135196
0.134978
0.13477
0.134588
0.134432
0.134295
0.134172
0.134059
0.133954
0.133856
0.133763
0.133675
0.133592
0.133513
0.133437
0.133364
0.133293
0.133224
0.133157
0.13309
0.133038
0.138523
0.138522
0.138502
0.13846
0.138397
0.138313
0.138212
0.138094
0.137962
0.137818
0.137665
0.137504
0.137337
0.137165
0.136989
0.13681
0.136629
0.136445
0.136259
0.136071
0.135885
0.135717
0.135575
0.135453
0.135344
0.135246
0.135157
0.135074
0.134998
0.134927
0.134862
0.134801
0.134744
0.134691
0.13464
0.134593
0.134548
0.134504
0.134462
0.134422
0.134397
0.138789
0.138802
0.138797
0.138772
0.138725
0.138657
0.138571
0.138469
0.138353
0.138226
0.138089
0.137946
0.137796
0.137643
0.137485
0.137325
0.137163
0.137002
0.136848
0.136703
0.136572
0.136457
0.136356
0.136265
0.136183
0.136108
0.13604
0.135978
0.135921
0.135869
0.135822
0.135779
0.13574
0.135704
0.135672
0.135642
0.135614
0.135588
0.135563
0.13554
0.135531
0.139034
0.139063
0.139076
0.139066
0.139035
0.138983
0.138912
0.138825
0.138725
0.138613
0.138491
0.138363
0.13823
0.138091
0.137951
0.137814
0.137686
0.137568
0.137458
0.137354
0.137258
0.13717
0.137091
0.137019
0.136953
0.136894
0.13684
0.136791
0.136747
0.136708
0.136674
0.136643
0.136616
0.136592
0.136571
0.136552
0.136536
0.136521
0.136507
0.136495
0.136496
0.139261
0.13931
0.139339
0.139346
0.13933
0.139295
0.139242
0.139173
0.139089
0.138993
0.138887
0.138775
0.138661
0.138552
0.138448
0.13835
0.138257
0.138168
0.138082
0.138001
0.137923
0.137851
0.137785
0.137725
0.137671
0.137621
0.137577
0.137538
0.137503
0.137473
0.137447
0.137424
0.137405
0.137389
0.137375
0.137364
0.137355
0.137347
0.137341
0.137335
0.137342
0.139477
0.139544
0.139588
0.13961
0.139612
0.139598
0.139569
0.139525
0.139468
0.1394
0.139328
0.139256
0.139182
0.139106
0.139028
0.138951
0.138874
0.138798
0.138725
0.138653
0.138586
0.138523
0.138464
0.138411
0.138364
0.138321
0.138283
0.138249
0.13822
0.138196
0.138175
0.138158
0.138144
0.138133
0.138124
0.138118
0.138113
0.13811
0.138107
0.138106
0.138116
0.13968
0.13976
0.139814
0.139849
0.13987
0.139878
0.139875
0.139862
0.139839
0.139809
0.13977
0.139726
0.139676
0.139622
0.139565
0.139506
0.139445
0.139385
0.139325
0.139266
0.139209
0.139156
0.139106
0.139061
0.13902
0.138983
0.138951
0.138923
0.138899
0.138879
0.138862
0.138849
0.138839
0.138832
0.138827
0.138824
0.138822
0.138822
0.138823
0.138824
0.138835
0.13986
0.139937
0.139984
0.140013
0.140031
0.140042
0.140047
0.140046
0.140039
0.140028
0.140012
0.139993
0.139971
0.139945
0.139915
0.139883
0.139848
0.139811
0.139774
0.139736
0.139698
0.139662
0.139628
0.139596
0.139567
0.139541
0.139518
0.139498
0.139482
0.139468
0.139458
0.13945
0.139445
0.139442
0.139441
0.139442
0.139444
0.139446
0.13945
0.139454
0.139466
0.13998
0.140033
0.140066
0.140091
0.140111
0.140127
0.140139
0.140147
0.140151
0.140151
0.140148
0.140143
0.140135
0.140126
0.140114
0.140101
0.140087
0.14007
0.140053
0.140036
0.140018
0.14
0.139983
0.139967
0.139952
0.13994
0.139929
0.13992
0.139913
0.139907
0.139904
0.139903
0.139904
0.139906
0.139909
0.139914
0.139919
0.139925
0.139931
0.139937
0.13995
0.140046
0.140082
0.140112
0.140138
0.140162
0.140183
0.1402
0.140215
0.140227
0.140235
0.140241
0.140244
0.140245
0.140245
0.140243
0.14024
0.140235
0.140231
0.140226
0.14022
0.140215
0.140209
0.140204
0.1402
0.140196
0.140194
0.140192
0.140192
0.140193
0.140195
0.140198
0.140202
0.140207
0.140213
0.14022
0.140227
0.140234
0.140242
0.14025
0.140257
0.140268
0.140077
0.14011
0.14014
0.140168
0.140195
0.14022
0.140244
0.140264
0.140283
0.140298
0.14031
0.140321
0.140329
0.140335
0.14034
0.140343
0.140346
0.140347
0.140348
0.140349
0.14035
0.140351
0.140353
0.140354
0.140357
0.14036
0.140363
0.140367
0.140372
0.140378
0.140384
0.140391
0.140398
0.140406
0.140413
0.140421
0.140429
0.140436
0.140443
0.140449
0.140457
0.140094
0.140124
0.140154
0.140184
0.140215
0.140244
0.140273
0.1403
0.140325
0.140347
0.140366
0.140383
0.140398
0.14041
0.140421
0.140429
0.140437
0.140443
0.140449
0.140454
0.140459
0.140463
0.140468
0.140473
0.140478
0.140483
0.140489
0.140495
0.140501
0.140508
0.140515
0.140522
0.140529
0.140536
0.140543
0.14055
0.140556
0.140561
0.140566
0.14057
0.140574
0.140098
0.140127
0.140157
0.140189
0.140222
0.140257
0.140292
0.140325
0.140357
0.140386
0.140413
0.140437
0.140458
0.140477
0.140493
0.140507
0.140519
0.14053
0.140539
0.140548
0.140556
0.140563
0.14057
0.140577
0.140584
0.14059
0.140597
0.140603
0.14061
0.140616
0.140623
0.140629
0.140635
0.140641
0.140646
0.140651
0.140655
0.140658
0.140661
0.140662
0.14066
0.140093
0.14012
0.140149
0.140181
0.140218
0.140257
0.140299
0.140341
0.140382
0.14042
0.140456
0.140488
0.140517
0.140542
0.140564
0.140583
0.140599
0.140614
0.140627
0.140638
0.140649
0.140658
0.140667
0.140675
0.140683
0.14069
0.140697
0.140704
0.14071
0.140717
0.140722
0.140728
0.140733
0.140737
0.140741
0.140744
0.140746
0.140747
0.140747
0.140745
0.140736
0.140079
0.140102
0.140128
0.140159
0.140197
0.140241
0.14029
0.140343
0.140398
0.140451
0.1405
0.140545
0.140584
0.140619
0.140648
0.140673
0.140694
0.140712
0.140727
0.140739
0.14075
0.14076
0.140768
0.140776
0.140783
0.140789
0.140795
0.140801
0.140806
0.140811
0.140815
0.140818
0.140821
0.140824
0.140825
0.140826
0.140826
0.140824
0.140821
0.140813
0.140806
0.140055
0.140071
0.140092
0.140118
0.140152
0.140195
0.140248
0.140313
0.140388
0.140469
0.140547
0.14062
0.140685
0.140742
0.140792
0.140834
0.140869
0.140897
0.14092
0.140937
0.140951
0.140961
0.140969
0.140974
0.140977
0.14098
0.140981
0.140982
0.140982
0.140981
0.140981
0.140979
0.140977
0.140975
0.140972
0.140969
0.140965
0.14096
0.140951
0.140938
0.140934
0.140021
0.140027
0.140036
0.140049
0.140066
0.140091
0.140127
0.140178
0.140251
0.140348
0.140509
0.14059
0.140651
0.140706
0.140761
0.140814
0.140866
0.140915
0.140961
0.141002
0.14104
0.141073
0.141103
0.141128
0.141149
0.141168
0.141183
0.141195
0.141205
0.141213
0.141218
0.141222
0.141224
0.141224
0.141223
0.14122
0.141216
0.14121
0.141201
0.141189
0.141186
0.0164436
0.0404172
0.0732795
0.1101
0.143101
0.168087
0.185072
0.195981
0.202874
0.207284
0.210153
0.211955
0.212856
0.21285
0.211858
0.209799
0.206635
0.202408
0.197242
0.191352
0.185016
0.178553
0.17229
0.166532
0.161538
0.157489
0.154473
0.152471
0.151377
0.151017
0.151198
0.151729
0.152455
0.153257
0.154057
0.154808
0.155489
0.156095
0.156632
0.157114
0.157554
0.157962
0.158347
0.158724
0.1591
0.159484
0.159888
0.160322
0.160796
0.161321
0.161899
0.162493
0.163078
0.163645
0.164183
0.164685
0.165145
0.165553
0.165901
0.166181
0.166385
0.166507
0.166541
0.166483
0.166331
0.166086
0.165758
0.165352
0.164881
0.164322
0.163659
0.162725
0.161362
0.158562
0.0199807
0.0451908
0.0785172
0.115198
0.14782
0.17249
0.189302
0.20011
0.206888
0.211129
0.213782
0.215355
0.216044
0.21586
0.214725
0.212547
0.209278
0.204953
0.199693
0.193709
0.187284
0.180737
0.174402
0.16859
0.163562
0.1595
0.156485
0.15449
0.153397
0.153029
0.153187
0.153684
0.154366
0.15512
0.155871
0.156575
0.157212
0.157779
0.158283
0.158739
0.159156
0.159547
0.15992
0.160287
0.160655
0.161033
0.16143
0.161854
0.162313
0.162815
0.163345
0.163871
0.164378
0.164856
0.165299
0.165702
0.166058
0.166361
0.166603
0.166777
0.166877
0.166899
0.166836
0.166687
0.16645
0.166129
0.165729
0.165259
0.164727
0.16411
0.163397
0.162451
0.16112
0.158356
0.0235627
0.0506134
0.0845319
0.121023
0.153256
0.177704
0.194487
0.205334
0.212094
0.216208
0.218638
0.21994
0.220358
0.219931
0.218592
0.216244
0.212829
0.208375
0.202993
0.196888
0.190336
0.183656
0.177183
0.171237
0.166086
0.161915
0.158808
0.156735
0.155573
0.155139
0.155234
0.155668
0.15629
0.156987
0.157685
0.158341
0.158937
0.15947
0.159945
0.160377
0.160776
0.161152
0.161513
0.161868
0.162226
0.162592
0.162973
0.163376
0.163803
0.16426
0.164723
0.16517
0.165588
0.165971
0.166315
0.166616
0.166869
0.16707
0.167213
0.167291
0.167302
0.167239
0.167099
0.166879
0.166579
0.1662
0.165747
0.165225
0.164641
0.163972
0.163213
0.162248
0.160926
0.15815
0.0276262
0.0567949
0.0914123
0.127684
0.159498
0.183764
0.200614
0.211607
0.218442
0.222489
0.22472
0.22574
0.225851
0.225134
0.223541
0.22098
0.217384
0.212772
0.207245
0.200992
0.194276
0.187412
0.180734
0.174567
0.169191
0.164804
0.161498
0.15925
0.157936
0.157373
0.157357
0.157697
0.158238
0.158867
0.159508
0.160116
0.160673
0.161173
0.161623
0.162035
0.162419
0.162783
0.163133
0.163477
0.163823
0.164172
0.164531
0.164902
0.165286
0.16568
0.166066
0.166426
0.16675
0.167034
0.167275
0.167473
0.167625
0.167727
0.167775
0.167767
0.167697
0.167563
0.16736
0.167086
0.166739
0.166317
0.165822
0.165258
0.164626
0.163906
0.163099
0.162106
0.160763
0.157935
0.0336204
0.0638457
0.0992449
0.135273
0.166606
0.190674
0.207624
0.218828
0.225816
0.229874
0.231963
0.232731
0.232538
0.231514
0.229641
0.226839
0.22304
0.218252
0.212562
0.20614
0.199231
0.192135
0.185183
0.178704
0.172994
0.168271
0.164646
0.162109
0.160547
0.159777
0.159592
0.159797
0.160232
0.160777
0.161352
0.161909
0.162427
0.162898
0.163326
0.163722
0.164094
0.164448
0.164789
0.165124
0.165456
0.165787
0.16612
0.166454
0.166786
0.167111
0.167413
0.167682
0.167909
0.168091
0.168228
0.168321
0.168371
0.168375
0.168332
0.16824
0.168097
0.1679
0.167645
0.167328
0.166946
0.166491
0.165965
0.165362
0.164685
0.163913
0.163053
0.162014
0.160619
0.157707
0.0417231
0.0718787
0.108125
0.143849
0.174604
0.198393
0.215407
0.226839
0.234042
0.238194
0.24023
0.24082
0.240372
0.239066
0.236922
0.233881
0.229879
0.224914
0.219058
0.21246
0.205338
0.197973
0.190686
0.183809
0.177654
0.172465
0.168382
0.165425
0.163497
0.162423
0.161995
0.162012
0.162303
0.162741
0.163237
0.163737
0.164214
0.164656
0.165065
0.165447
0.165811
0.166158
0.166493
0.166819
0.16714
0.167452
0.167759
0.168055
0.168334
0.16859
0.168809
0.168986
0.169113
0.169193
0.169224
0.169211
0.169156
0.16906
0.168924
0.168749
0.168535
0.168278
0.167976
0.167623
0.167213
0.166734
0.16618
0.165544
0.164819
0.16399
0.163067
0.161964
0.16049
0.157471
0.0520011
0.081392
0.118151
0.15342
0.183453
0.206826
0.223808
0.235434
0.242882
0.247214
0.249309
0.249834
0.249229
0.247715
0.245353
0.242113
0.237941
0.232826
0.226826
0.220064
0.212731
0.20508
0.197415
0.190068
0.183362
0.177575
0.172888
0.169358
0.166922
0.165422
0.164653
0.164408
0.164503
0.164798
0.165193
0.165623
0.166052
0.166463
0.166852
0.167224
0.167581
0.167925
0.168256
0.168578
0.168889
0.169186
0.169467
0.169727
0.169958
0.17015
0.170294
0.170385
0.170418
0.170396
0.17032
0.170197
0.170033
0.169831
0.169596
0.169332
0.169041
0.168721
0.16837
0.16798
0.167543
0.167043
0.166465
0.165795
0.165024
0.164134
0.163139
0.161954
0.16038
0.157232
0.0647298
0.0935024
0.129363
0.163922
0.193042
0.215811
0.232614
0.244358
0.252053
0.256636
0.258911
0.259514
0.258891
0.257293
0.254816
0.251462
0.247195
0.241995
0.235907
0.229027
0.221516
0.213595
0.205543
0.19768
0.190343
0.183837
0.178393
0.174124
0.171013
0.168934
0.167696
0.167086
0.16691
0.167009
0.167266
0.167602
0.167969
0.168341
0.168707
0.169067
0.169419
0.169762
0.170093
0.170413
0.170719
0.171005
0.171267
0.171497
0.171686
0.171824
0.171902
0.171915
0.17186
0.17174
0.171557
0.171321
0.171041
0.170724
0.170379
0.170014
0.169634
0.16924
0.168831
0.168399
0.167932
0.167411
0.166812
0.166113
0.165297
0.164344
0.163269
0.161989
0.160295
0.156996
0.0801377
0.108083
0.141703
0.175216
0.203162
0.225108
0.241556
0.253309
0.261223
0.26611
0.268681
0.269517
0.269045
0.267527
0.265084
0.261749
0.257507
0.252336
0.246259
0.23935
0.231738
0.223607
0.215205
0.206832
0.198824
0.191513
0.185179
0.18
0.176027
0.173186
0.171312
0.170199
0.169643
0.169464
0.169526
0.169728
0.170007
0.170324
0.170658
0.171
0.171346
0.171688
0.172021
0.172343
0.172648
0.172929
0.173179
0.173388
0.173546
0.173642
0.173666
0.173613
0.173479
0.173265
0.172977
0.172624
0.172219
0.171774
0.171304
0.17082
0.170332
0.169848
0.169366
0.168881
0.168379
0.167835
0.167217
0.166493
0.165636
0.164621
0.163462
0.162073
0.160241
0.156772
0.0982875
0.124796
0.155219
0.187073
0.213498
0.234392
0.250308
0.261948
0.270032
0.27525
0.278213
0.279428
0.279285
0.278037
0.275815
0.272673
0.268619
0.263636
0.257721
0.250923
0.24334
0.235118
0.226467
0.217655
0.209006
0.200863
0.19355
0.187316
0.182292
0.17848
0.175767
0.173969
0.17288
0.172305
0.172081
0.172086
0.172231
0.172462
0.172744
0.173057
0.173388
0.173727
0.174062
0.174388
0.174697
0.174979
0.175226
0.175426
0.175566
0.175635
0.17562
0.175515
0.175313
0.175014
0.174622
0.174149
0.17361
0.173023
0.172407
0.171782
0.171163
0.170563
0.169987
0.169432
0.168882
0.16831
0.167674
0.166932
0.166041
0.164967
0.163723
0.162217
0.160231
0.156567
0.119084
0.143443
0.170331
0.199103
0.223636
0.243281
0.258506
0.269916
0.278104
0.283654
0.287074
0.28879
0.289141
0.288355
0.286557
0.283808
0.280136
0.275536
0.269982
0.263489
0.256122
0.247994
0.239268
0.230173
0.221002
0.212093
0.203797
0.196423
0.190194
0.185203
0.18142
0.178711
0.176886
0.175745
0.175102
0.174807
0.174745
0.174837
0.175029
0.175288
0.175589
0.175913
0.176246
0.176575
0.17689
0.17718
0.177432
0.177635
0.177773
0.177832
0.177797
0.177657
0.177403
0.17703
0.176541
0.175947
0.175266
0.174521
0.173737
0.172942
0.17216
0.171413
0.170713
0.170061
0.169445
0.168835
0.16818
0.167425
0.166511
0.165386
0.164059
0.16243
0.160273
0.156386
0.14236
0.163902
0.186934
0.210853
0.233167
0.251402
0.265812
0.276892
0.285102
0.290955
0.294856
0.297146
0.298117
0.297962
0.296779
0.294624
0.291541
0.287535
0.282571
0.276619
0.269712
0.261923
0.253373
0.244241
0.234774
0.225285
0.216122
0.207637
0.200129
0.193799
0.188721
0.184846
0.182034
0.180099
0.178845
0.178096
0.177709
0.177575
0.177614
0.177772
0.178012
0.178301
0.178618
0.178943
0.179263
0.179563
0.179829
0.180046
0.180197
0.180265
0.180231
0.180078
0.179791
0.179362
0.178787
0.178076
0.177247
0.176328
0.175351
0.174352
0.173369
0.172434
0.171569
0.170785
0.170075
0.169409
0.168731
0.167967
0.16704
0.165878
0.164475
0.162723
0.16038
0.156237
0.168125
0.186201
0.204887
0.223682
0.24201
0.258602
0.272072
0.282717
0.29083
0.296929
0.301283
0.304147
0.30579
0.306376
0.30595
0.304551
0.302238
0.29903
0.294878
0.28972
0.283545
0.276393
0.268336
0.259495
0.250065
0.240308
0.230545
0.221133
0.212423
0.204706
0.198174
0.192895
0.188819
0.18581
0.183688
0.182268
0.181378
0.180878
0.180659
0.18064
0.180761
0.180975
0.181248
0.181552
0.181868
0.182175
0.182457
0.182697
0.182875
0.18297
0.18296
0.182819
0.182527
0.182063
0.18142
0.180601
0.179623
0.178515
0.177318
0.17608
0.174849
0.173674
0.172593
0.171629
0.170785
0.170037
0.169322
0.168552
0.167626
0.166441
0.164976
0.163104
0.160564
0.156126
0.197119
0.211231
0.225401
0.239481
0.253065
0.26575
0.277753
0.287704
0.295441
0.301687
0.306354
0.309662
0.311939
0.31331
0.313695
0.313109
0.311657
0.309399
0.306243
0.302085
0.2969
0.290695
0.283481
0.275319
0.266343
0.25675
0.246804
0.236831
0.227188
0.218226
0.210237
0.203414
0.197833
0.193456
0.19016
0.18778
0.186136
0.185064
0.184422
0.184097
0.184003
0.184072
0.184249
0.184496
0.184783
0.185083
0.185376
0.185642
0.185857
0.185997
0.186033
0.185934
0.185665
0.185199
0.184513
0.183602
0.182477
0.181171
0.179728
0.178207
0.176676
0.1752
0.173837
0.17263
0.171598
0.170727
0.169953
0.169173
0.168259
0.167071
0.165563
0.163583
0.160837
0.156058
0.230254
0.240349
0.250323
0.260256
0.269782
0.278634
0.286641
0.293707
0.300082
0.306192
0.310692
0.314058
0.316783
0.318921
0.320037
0.320131
0.31945
0.318177
0.316114
0.31306
0.309011
0.303999
0.297958
0.290864
0.282792
0.273867
0.264274
0.254271
0.244179
0.234352
0.225139
0.216839
0.209657
0.203688
0.198919
0.195251
0.192535
0.190605
0.189298
0.188473
0.18801
0.187813
0.187806
0.18793
0.18814
0.188402
0.188686
0.188969
0.189223
0.18942
0.189524
0.189494
0.189284
0.18885
0.188154
0.187175
0.185916
0.184403
0.182688
0.180841
0.178946
0.177093
0.175368
0.173838
0.172545
0.171493
0.170624
0.169822
0.168929
0.16776
0.166234
0.164164
0.161209
0.156039
0.263733
0.271591
0.279027
0.286006
0.292452
0.298297
0.303479
0.307955
0.311688
0.314584
0.316568
0.318924
0.32153
0.32436
0.325803
0.326096
0.325788
0.325402
0.324347
0.322282
0.319303
0.315568
0.310901
0.305165
0.29839
0.290626
0.281957
0.272555
0.262663
0.252584
0.242661
0.233242
0.224632
0.217055
0.210639
0.205404
0.201284
0.198157
0.19587
0.194268
0.193206
0.192559
0.192221
0.19211
0.192159
0.19232
0.192553
0.192825
0.193106
0.19336
0.193546
0.193612
0.193497
0.193135
0.192467
0.191451
0.190072
0.18835
0.186335
0.18411
0.18178
0.179462
0.177274
0.175319
0.173671
0.17236
0.171342
0.170494
0.169625
0.168497
0.166981
0.164849
0.161691
0.156075
0.285175
0.291265
0.29705
0.302507
0.307598
0.312283
0.316525
0.320296
0.323588
0.326419
0.328818
0.330829
0.33236
0.333277
0.33341
0.332853
0.331853
0.332187
0.331736
0.330131