/*--------------------------------*- C++ -*----------------------------------*\
| =========                 |                                                 |
| \\      /  F ield         | OpenFOAM: The Open Source CFD Toolbox           |
|  \\    /   O peration     | Version:  5.x                                   |
|   \\  /    A nd           | Web:      www.OpenFOAM.org                      |
|    \\/     M anipulation  |                                                 |
\*---------------------------------------------------------------------------*/
FoamFile
{
    version     2.0;
    format      ascii;
    class       volScalarField;
    location    "400";
    object      nut;
}
// * * * * * * * * * * * * * * * * * * * * * * * * * * * * * * * * * * * * * //

dimensions      [0 2 -1 0 0 0 0];

internalField   nonuniform List<scalar> 
11040
(
0.00313493
0.00376632
0.00408989
0.00417235
0.00406649
0.00386664
0.00365093
0.00347431
0.0033149
0.00313927
0.00290374
0.00267028
0.00249338
0.00236806
0.00224919
0.00213151
0.00201488
0.00190304
0.00179597
0.00169164
0.00158788
0.00149559
0.00141324
0.0013312
0.00124827
0.00116335
0.00107545
0.000988238
0.000952965
0.000981217
0.000857334
0.000628697
0.000436852
0.000396313
0.000357052
0.000324841
0.000350493
0.000599389
0.000738779
0.000755035
0.000760688
0.00791383
0.00848161
0.00775051
0.00699802
0.00624505
0.00558921
0.00510242
0.00503858
0.00505187
0.00500505
0.00487758
0.00470252
0.00455739
0.00440675
0.00422164
0.00402933
0.00384912
0.00368618
0.00353915
0.00340542
0.0032834
0.00318194
0.00309449
0.00301303
0.00293722
0.00286564
0.00279702
0.00273312
0.00269445
0.002684
0.0026189
0.00250772
0.00234969
0.0021915
0.00198799
0.00176234
0.00167721
0.00182272
0.00221432
0.00283911
0.00328883
0.0161133
0.0169811
0.0159628
0.0146822
0.0132584
0.0118383
0.0105289
0.00936926
0.00837807
0.00752614
0.00673326
0.00615619
0.00603762
0.00599197
0.00592595
0.00584595
0.00575337
0.00565448
0.00555668
0.00546427
0.00537831
0.00530926
0.00524764
0.00518598
0.0051242
0.00506233
0.00499985
0.00493735
0.00488005
0.00482957
0.00476641
0.00468988
0.00460108
0.00451651
0.00440764
0.0042002
0.00408017
0.00434847
0.00484862
0.00546915
0.00628818
0.0254705
0.0264276
0.0253407
0.0236949
0.0217631
0.0197639
0.0178266
0.0159899
0.0142863
0.0127084
0.0111625
0.00982334
0.0088408
0.00810291
0.0077902
0.00765114
0.00755418
0.00748057
0.00742267
0.00737566
0.00733634
0.00730984
0.007287
0.00726211
0.00723346
0.00720045
0.00716231
0.00711862
0.00707029
0.00701797
0.00695833
0.0068937
0.00683114
0.00678583
0.00675435
0.00665504
0.00655291
0.00681907
0.00750244
0.00858616
0.00963256
0.0356311
0.0365637
0.0355076
0.0336633
0.0313854
0.0289122
0.0264074
0.0239109
0.0215307
0.0192837
0.0170607
0.0150602
0.0134598
0.0121951
0.011145
0.0102721
0.00978226
0.00954212
0.009403
0.00931827
0.00927025
0.00925142
0.009245
0.00924204
0.00923877
0.00923302
0.00922258
0.00920553
0.00918053
0.00914687
0.00910442
0.00905703
0.00901476
0.0089962
0.00901892
0.00902801
0.00900379
0.0092631
0.0100892
0.0115941
0.01333
0.0462079
0.0470647
0.0460975
0.0442151
0.041771
0.0389342
0.0359111
0.0328617
0.0298993
0.0270474
0.0241855
0.0215301
0.0193082
0.0175138
0.0159702
0.0146239
0.0135036
0.0125453
0.0120019
0.0116937
0.0115091
0.0114044
0.0113422
0.0113011
0.011276
0.0112615
0.0112524
0.0112441
0.0112328
0.011216
0.0111926
0.0111652
0.0111435
0.0111462
0.0112027
0.0112991
0.0113884
0.0116617
0.0125033
0.0141565
0.0169222
0.0568797
0.0576169
0.0567644
0.0549699
0.0524985
0.0495341
0.0462856
0.0429052
0.0395239
0.0361833
0.0327663
0.0295039
0.0266714
0.0243006
0.0222147
0.0203628
0.0187227
0.0172591
0.015992
0.0150421
0.0144992
0.0141617
0.0139225
0.013746
0.0136196
0.0135254
0.0134537
0.0133978
0.0133522
0.013313
0.0132777
0.0132474
0.0132289
0.0132373
0.0133023
0.0134431
0.0136342
0.0139503
0.0147142
0.0162377
0.0191204
0.0672918
0.0679155
0.0671921
0.0655672
0.0632232
0.0603506
0.0571215
0.053658
0.0500867
0.0464557
0.0426577
0.0389218
0.0355571
0.0326361
0.0300043
0.0276226
0.0254682
0.023515
0.0217364
0.0201351
0.0187836
0.0179111
0.0173587
0.0169578
0.0166466
0.0163928
0.0161786
0.015994
0.0158324
0.0156902
0.0155662
0.0154621
0.0153841
0.0153446
0.0153669
0.0154833
0.0157039
0.0160516
0.0167119
0.0179462
0.0203568
0.0772039
0.0777104
0.0771068
0.075691
0.0735873
0.070961
0.0679417
0.0646179
0.0610931
0.0574052
0.0534567
0.0494548
0.0457144
0.0423456
0.0392373
0.036368
0.0337251
0.0312906
0.0290425
0.0269593
0.0250317
0.0234762
0.0223684
0.0215534
0.0209276
0.0204125
0.0199635
0.0195572
0.0191821
0.018833
0.0185094
0.0182154
0.0179598
0.0177565
0.017626
0.0176004
0.0177125
0.0179868
0.018509
0.0194212
0.021128
0.0863769
0.086778
0.0862839
0.0850891
0.0832798
0.0809876
0.0783045
0.0752856
0.072005
0.0684613
0.0645856
0.0605485
0.0566424
0.0530058
0.0495924
0.0463653
0.0433267
0.0404767
0.0378046
0.0352956
0.0329318
0.0309273
0.0293189
0.0279991
0.0269374
0.0260547
0.0252849
0.0245842
0.0239265
0.0232975
0.0226917
0.0221107
0.0215629
0.0210639
0.0206348
0.020308
0.0201245
0.0201233
0.0203614
0.0209032
0.02193
0.09466
0.0949736
0.0945756
0.0935917
0.0920841
0.0901544
0.087866
0.0852305
0.0823025
0.0790972
0.0755304
0.0717198
0.0679072
0.0642263
0.0606539
0.0572149
0.0539243
0.0508003
0.0478155
0.044965
0.0422427
0.0399046
0.0379435
0.036187
0.0346927
0.0334231
0.0323093
0.0312951
0.0303417
0.0294236
0.0285256
0.0276412
0.026772
0.0259275
0.0251232
0.0243891
0.0237661
0.0232963
0.0230386
0.0230466
0.0233641
0.101987
0.102231
0.101911
0.101114
0.0998842
0.098302
0.0964107
0.0941994
0.0917128
0.0889535
0.0858444
0.0824577
0.0789717
0.0754931
0.0720103
0.0685639
0.065186
0.0619021
0.058724
0.0556553
0.0526987
0.0501266
0.0479219
0.0458482
0.0439332
0.0422744
0.0408316
0.039534
0.0383258
0.0371686
0.0360367
0.0349135
0.0337913
0.0326687
0.0315485
0.0304497
0.0294029
0.0284379
0.0276057
0.0269692
0.0264804
0.108363
0.108546
0.108285
0.107642
0.106653
0.105379
0.103851
0.10205
0.100012
0.0977336
0.0951473
0.0922915
0.0892726
0.0861763
0.0830007
0.0797919
0.0765655
0.073348
0.0701619
0.0670243
0.0639463
0.0612315
0.0588871
0.056661
0.0545383
0.0525242
0.0506515
0.0489984
0.0475345
0.0461855
0.0448964
0.0436317
0.0423726
0.0411029
0.0398122
0.0385059
0.0371998
0.0359032
0.0346445
0.0334834
0.0322763
0.11383
0.113957
0.11374
0.113223
0.112435
0.11142
0.110203
0.108766
0.107136
0.105308
0.103229
0.100902
0.0984146
0.0958142
0.0930916
0.0902746
0.0873864
0.0844592
0.0814949
0.0785087
0.0755158
0.0728253
0.0704674
0.0682082
0.0660353
0.0639375
0.0619078
0.0599544
0.0580945
0.0564011
0.054886
0.0534812
0.0521299
0.050796
0.049452
0.0480888
0.0467065
0.0452965
0.0438633
0.0424511
0.0408486
0.118445
0.118534
0.118356
0.117942
0.117319
0.116518
0.115556
0.114421
0.113135
0.111695
0.110048
0.108212
0.106238
0.10415
0.101934
0.0996025
0.0971701
0.0946506
0.0920574
0.0894019
0.0867032
0.0842301
0.0820152
0.0798638
0.0777738
0.0757473
0.0737698
0.0718327
0.0699302
0.0680687
0.0662599
0.0645238
0.0629305
0.0614702
0.0600766
0.0587072
0.0573404
0.0559511
0.0545273
0.053094
0.0514325
0.12233
0.122389
0.122239
0.121906
0.121421
0.120785
0.120024
0.119132
0.118124
0.117
0.11572
0.114298
0.112766
0.111136
0.109387
0.107532
0.105586
0.103545
0.101414
0.0991979
0.0969042
0.0947673
0.0928279
0.0909229
0.0890527
0.0872165
0.0854121
0.0836355
0.0818814
0.080144
0.0784183
0.0767077
0.0750162
0.0733536
0.0717204
0.0701669
0.0687279
0.0673488
0.0659822
0.0646239
0.0630799
0.125585
0.125622
0.125494
0.125225
0.124838
0.124335
0.123735
0.123037
0.122251
0.121377
0.120389
0.119297
0.118123
0.116866
0.11552
0.114088
0.112575
0.11098
0.109312
0.107562
0.105732
0.104
0.102407
0.100828
0.0992643
0.0977155
0.0961814
0.094661
0.0931523
0.0916525
0.0901578
0.0886646
0.0871691
0.0856675
0.0841524
0.0826315
0.0811195
0.0796128
0.0781107
0.0766772
0.075157
0.128183
0.128207
0.128101
0.127882
0.12757
0.127168
0.12669
0.126141
0.125518
0.124827
0.124052
0.123201
0.12229
0.121317
0.120278
0.119176
0.118011
0.116782
0.115489
0.114131
0.112707
0.111349
0.110089
0.108833
0.107582
0.106339
0.105101
0.103874
0.102651
0.101432
0.100213
0.0989933
0.0977699
0.0965395
0.0952934
0.094031
0.0927534
0.0914503
0.0901197
0.0887769
0.0873444
0.130183
0.130198
0.130109
0.12993
0.129673
0.12935
0.128959
0.128512
0.128008
0.127452
0.126837
0.12616
0.125437
0.124668
0.123849
0.122984
0.122073
0.121114
0.120106
0.119049
0.11794
0.116878
0.115888
0.114899
0.113913
0.112931
0.111953
0.110979
0.110008
0.109039
0.108074
0.107109
0.106142
0.10517
0.104187
0.103193
0.102188
0.101162
0.100111
0.0990399
0.0978955
0.131752
0.131762
0.131688
0.131538
0.131324
0.131054
0.13073
0.130359
0.129948
0.129491
0.128989
0.128439
0.127854
0.127239
0.126582
0.12589
0.125164
0.124403
0.123605
0.122771
0.121899
0.121061
0.120278
0.119497
0.118719
0.117945
0.117174
0.116407
0.115643
0.114881
0.114121
0.113362
0.112603
0.111845
0.111081
0.110311
0.109535
0.108746
0.107942
0.107123
0.106262
0.133014
0.133023
0.132961
0.132834
0.132652
0.132423
0.132153
0.131841
0.131495
0.131113
0.130695
0.130245
0.129764
0.129259
0.128723
0.128161
0.127574
0.12696
0.126321
0.125654
0.12496
0.124292
0.123667
0.123045
0.122426
0.121812
0.121198
0.120588
0.119985
0.119387
0.118791
0.118197
0.117605
0.117016
0.116424
0.11583
0.115234
0.11463
0.114017
0.113396
0.112754
0.13405
0.134058
0.134005
0.133897
0.13374
0.133544
0.133312
0.13305
0.132755
0.132435
0.132083
0.131705
0.131303
0.130882
0.130442
0.129979
0.129496
0.128995
0.128475
0.127935
0.127376
0.126838
0.126334
0.125833
0.125334
0.124843
0.124352
0.123865
0.123384
0.12291
0.12244
0.121974
0.121511
0.121052
0.120592
0.120133
0.119674
0.119212
0.118744
0.118273
0.117793
0.134913
0.134922
0.134876
0.134782
0.134647
0.134477
0.134276
0.134049
0.133799
0.133524
0.133226
0.132905
0.132567
0.132213
0.131843
0.131459
0.131061
0.130647
0.130218
0.129775
0.129319
0.12888
0.128469
0.128062
0.127658
0.12726
0.126865
0.126474
0.126087
0.125707
0.125333
0.124966
0.124603
0.124243
0.123884
0.123527
0.123172
0.122816
0.122458
0.122099
0.121738
0.135643
0.135651
0.135612
0.13553
0.135412
0.135263
0.135089
0.134891
0.134674
0.134436
0.134179
0.133904
0.133616
0.133317
0.133003
0.132679
0.132345
0.132001
0.131647
0.131281
0.130906
0.130544
0.130206
0.129871
0.129542
0.129218
0.128897
0.12858
0.128267
0.12796
0.127658
0.127362
0.127074
0.126789
0.126508
0.126228
0.125952
0.125676
0.1254
0.125127
0.124854
0.136266
0.136273
0.136239
0.136168
0.136065
0.135934
0.135781
0.135608
0.135418
0.135212
0.13499
0.134754
0.134505
0.134248
0.133981
0.133707
0.133424
0.133133
0.132835
0.132531
0.132221
0.13192
0.131639
0.131362
0.13109
0.130822
0.130558
0.130299
0.130044
0.129795
0.12955
0.129311
0.129078
0.128849
0.128625
0.128406
0.12819
0.127976
0.127762
0.127551
0.127343
0.136802
0.136809
0.13678
0.136717
0.136627
0.136512
0.136377
0.136224
0.136057
0.135876
0.135683
0.135478
0.135264
0.135041
0.134811
0.134576
0.134335
0.134089
0.133837
0.13358
0.13332
0.133069
0.132835
0.132604
0.132378
0.132155
0.131937
0.131723
0.131514
0.131309
0.13111
0.130915
0.130726
0.130541
0.13036
0.130184
0.130012
0.129844
0.129678
0.129514
0.129355
0.137267
0.137274
0.137249
0.137195
0.137115
0.137013
0.136894
0.136759
0.13661
0.136451
0.136281
0.136102
0.135915
0.135722
0.135525
0.135323
0.135115
0.134904
0.13469
0.134473
0.134253
0.134041
0.133844
0.13365
0.13346
0.133274
0.133092
0.132914
0.132741
0.132573
0.132409
0.132249
0.132095
0.131944
0.131798
0.131655
0.131517
0.131382
0.13125
0.13112
0.130997
0.137673
0.137681
0.13766
0.137612
0.137541
0.137451
0.137345
0.137224
0.137093
0.136951
0.136801
0.136643
0.13648
0.136312
0.136141
0.135965
0.135786
0.135606
0.135422
0.135236
0.13505
0.134871
0.134703
0.134539
0.134379
0.134222
0.134069
0.13392
0.133776
0.133636
0.1335
0.133369
0.133242
0.133119
0.132999
0.132883
0.132771
0.132662
0.132556
0.132453
0.132356
0.13803
0.138039
0.138021
0.137979
0.137916
0.137836
0.13774
0.137633
0.137516
0.13739
0.137256
0.137116
0.136972
0.136825
0.136674
0.136521
0.136367
0.13621
0.136052
0.135894
0.135735
0.135582
0.135438
0.135298
0.135161
0.135029
0.1349
0.134775
0.134654
0.134537
0.134424
0.134315
0.13421
0.134109
0.134011
0.133916
0.133825
0.133737
0.133651
0.133568
0.133491
0.138345
0.138355
0.13834
0.138303
0.138247
0.138175
0.138089
0.137993
0.137888
0.137776
0.137657
0.137533
0.137405
0.137275
0.137142
0.137008
0.136873
0.136737
0.136601
0.136464
0.136328
0.136196
0.136073
0.135953
0.135836
0.135723
0.135613
0.135508
0.135406
0.135307
0.135213
0.135122
0.135035
0.134951
0.13487
0.134792
0.134718
0.134646
0.134576
0.134509
0.134448
0.138624
0.138636
0.138624
0.13859
0.13854
0.138475
0.138398
0.138312
0.138219
0.138119
0.138013
0.137903
0.13779
0.137674
0.137557
0.137439
0.13732
0.1372
0.137082
0.136963
0.136847
0.136733
0.136626
0.136523
0.136423
0.136326
0.136233
0.136143
0.136056
0.135973
0.135894
0.135817
0.135744
0.135675
0.135608
0.135543
0.135482
0.135423
0.135367
0.135312
0.135263
0.138874
0.138886
0.138875
0.138845
0.1388
0.138742
0.138674
0.138597
0.138514
0.138425
0.138332
0.138234
0.138134
0.138031
0.137928
0.137823
0.137718
0.137614
0.13751
0.137406
0.137305
0.137206
0.137114
0.137024
0.136938
0.136855
0.136775
0.136698
0.136624
0.136554
0.136486
0.136422
0.136361
0.136303
0.136247
0.136194
0.136143
0.136095
0.136048
0.136004
0.135964
0.139096
0.139109
0.1391
0.139073
0.139032
0.138981
0.138921
0.138854
0.138781
0.138702
0.13862
0.138533
0.138444
0.138354
0.138262
0.13817
0.138077
0.137985
0.137894
0.137804
0.137716
0.13763
0.137549
0.137471
0.137396
0.137324
0.137255
0.137189
0.137126
0.137066
0.137009
0.136955
0.136903
0.136854
0.136808
0.136763
0.136721
0.136682
0.136644
0.136607
0.136575
0.139296
0.139308
0.1393
0.139276
0.13924
0.139196
0.139145
0.139087
0.139023
0.138955
0.138882
0.138806
0.138728
0.138648
0.138567
0.138486
0.138404
0.138323
0.138243
0.138164
0.138087
0.138012
0.137941
0.137874
0.137809
0.137746
0.137687
0.13763
0.137576
0.137525
0.137476
0.13743
0.137386
0.137345
0.137306
0.137269
0.137234
0.137201
0.13717
0.13714
0.137114
0.139475
0.139487
0.139479
0.139458
0.139429
0.139393
0.13935
0.139301
0.139247
0.139188
0.139125
0.139059
0.13899
0.13892
0.138849
0.138777
0.138705
0.138634
0.138563
0.138494
0.138427
0.138361
0.1383
0.138241
0.138184
0.13813
0.138078
0.138029
0.137983
0.137939
0.137897
0.137858
0.137821
0.137786
0.137753
0.137722
0.137693
0.137666
0.13764
0.137616
0.137595
0.139636
0.139646
0.139639
0.139623
0.139601
0.139574
0.13954
0.139501
0.139456
0.139406
0.139353
0.139295
0.139236
0.139175
0.139112
0.139049
0.138986
0.138924
0.138862
0.138802
0.138743
0.138686
0.138632
0.13858
0.138531
0.138484
0.138439
0.138396
0.138356
0.138318
0.138283
0.138249
0.138218
0.138189
0.138161
0.138135
0.138111
0.138088
0.138067
0.138047
0.13803
0.139779
0.139786
0.139782
0.139773
0.139759
0.139741
0.139716
0.139687
0.139652
0.139612
0.139568
0.139521
0.139471
0.139419
0.139366
0.139312
0.139258
0.139203
0.13915
0.139097
0.139046
0.138997
0.13895
0.138905
0.138862
0.138821
0.138782
0.138745
0.138711
0.138678
0.138648
0.13862
0.138593
0.138569
0.138546
0.138525
0.138506
0.138488
0.138472
0.138457
0.138446
0.139902
0.139907
0.139906
0.139904
0.139899
0.139889
0.139875
0.139855
0.139832
0.139804
0.139773
0.139738
0.139701
0.139661
0.13962
0.139577
0.139534
0.13949
0.139446
0.139403
0.139362
0.139321
0.139282
0.139244
0.139208
0.139175
0.139143
0.139113
0.139085
0.13906
0.139037
0.139016
0.138997
0.138981
0.138967
0.138955
0.138945
0.138937
0.13893
0.138926
0.138924
0.139991
0.139996
0.139998
0.14
0.139999
0.139995
0.139989
0.13998
0.139969
0.139955
0.139939
0.139922
0.139902
0.139881
0.139858
0.139834
0.13981
0.139784
0.139759
0.139734
0.139711
0.139687
0.139663
0.13964
0.139618
0.139597
0.139578
0.139559
0.139543
0.139528
0.139515
0.139503
0.139493
0.139484
0.139477
0.139471
0.139467
0.139463
0.139461
0.13946
0.139461
0.140035
0.140039
0.140042
0.140045
0.140045
0.140045
0.140043
0.14004
0.140035
0.14003
0.140023
0.140015
0.140006
0.139997
0.139986
0.139975
0.139963
0.139951
0.13994
0.139928
0.139916
0.139904
0.139893
0.139882
0.139872
0.139861
0.139852
0.139843
0.139834
0.139827
0.13982
0.139814
0.139809
0.139805
0.139801
0.139798
0.139796
0.139795
0.139794
0.139793
0.139794
0.140057
0.140062
0.140065
0.140068
0.14007
0.140072
0.140073
0.140073
0.140072
0.140071
0.140069
0.140066
0.140063
0.140059
0.140055
0.14005
0.140045
0.14004
0.140034
0.140029
0.140024
0.140018
0.140013
0.140008
0.140003
0.139999
0.139994
0.13999
0.139986
0.139983
0.13998
0.139977
0.139975
0.139973
0.139971
0.13997
0.13997
0.139969
0.139969
0.139969
0.13997
0.140068
0.140072
0.140076
0.140079
0.140082
0.140085
0.140088
0.14009
0.140092
0.140093
0.140094
0.140095
0.140095
0.140095
0.140094
0.140093
0.140092
0.140091
0.140089
0.140088
0.140086
0.140084
0.140082
0.140081
0.140079
0.140077
0.140075
0.140074
0.140073
0.140071
0.14007
0.140069
0.140069
0.140068
0.140068
0.140068
0.140068
0.140068
0.140069
0.140069
0.14007
0.140071
0.140075
0.140078
0.140082
0.140086
0.140089
0.140093
0.140097
0.1401
0.140104
0.140107
0.14011
0.140112
0.140114
0.140116
0.140118
0.140119
0.140121
0.140121
0.140122
0.140123
0.140124
0.140124
0.140124
0.140124
0.140125
0.140125
0.140125
0.140125
0.140125
0.140126
0.140126
0.140126
0.140127
0.140127
0.140128
0.140128
0.140129
0.14013
0.140131
0.140132
0.140068
0.140071
0.140075
0.140078
0.140082
0.140086
0.140091
0.140095
0.1401
0.140104
0.140109
0.140113
0.140117
0.140121
0.140125
0.140128
0.140132
0.140135
0.140137
0.14014
0.140142
0.140145
0.140147
0.140148
0.14015
0.140152
0.140153
0.140155
0.140156
0.140157
0.140158
0.140159
0.14016
0.140161
0.140163
0.140164
0.140165
0.140166
0.140167
0.140168
0.140169
0.14006
0.140063
0.140065
0.140069
0.140073
0.140077
0.140082
0.140087
0.140092
0.140097
0.140102
0.140107
0.140112
0.140116
0.140121
0.140126
0.14013
0.140135
0.140139
0.140142
0.140146
0.14015
0.140153
0.140156
0.140158
0.140161
0.140164
0.140166
0.140168
0.14017
0.140172
0.140174
0.140175
0.140177
0.140178
0.14018
0.140181
0.140182
0.140184
0.140185
0.140186
0.140047
0.140049
0.140052
0.140055
0.140058
0.140062
0.140066
0.140071
0.140075
0.14008
0.140085
0.14009
0.140095
0.1401
0.140105
0.140109
0.140114
0.140119
0.140124
0.140128
0.140133
0.140137
0.140141
0.140145
0.140149
0.140152
0.140155
0.140158
0.140161
0.140164
0.140166
0.140169
0.140171
0.140173
0.140175
0.140176
0.140178
0.14018
0.140181
0.140182
0.140184
0.140031
0.140032
0.140034
0.140036
0.140039
0.140042
0.140045
0.140048
0.140051
0.140055
0.140058
0.140062
0.140065
0.140069
0.140072
0.140075
0.140079
0.140082
0.140085
0.140089
0.140093
0.140097
0.140101
0.140105
0.140109
0.140113
0.140117
0.14012
0.140124
0.140128
0.140131
0.140134
0.140137
0.14014
0.140142
0.140145
0.140147
0.140149
0.140151
0.140153
0.140155
0.140011
0.140012
0.140012
0.140013
0.140014
0.140015
0.140016
0.140018
0.140019
0.14002
0.140022
0.140023
0.140024
0.140024
0.140024
0.140023
0.140021
0.140018
0.140003
0.139998
0.139995
0.139993
0.139992
0.139992
0.139991
0.139992
0.139992
0.139993
0.139994
0.139995
0.139996
0.139998
0.139999
0.14
0.140002
0.140003
0.140004
0.140005
0.140006
0.140007
0.140009
0.0036725
0.00451074
0.00520598
0.00652494
0.00843826
0.01072
0.0132273
0.0158924
0.0186722
0.0215493
0.0245068
0.027528
0.0306118
0.0337484
0.0369277
0.0401409
0.0433828
0.0466456
0.0499206
0.0532
0.0564769
0.0597435
0.0629914
0.0662124
0.069399
0.072544
0.0756405
0.0786817
0.0816613
0.0845734
0.0874127
0.0901743
0.0928537
0.0954469
0.0979508
0.100362
0.10268
0.104901
0.107025
0.109052
0.110981
0.112815
0.114554
0.116201
0.117758
0.119228
0.120615
0.121921
0.12315
0.124306
0.125392
0.126411
0.127368
0.128266
0.129108
0.129899
0.13064
0.131337
0.131992
0.132607
0.133186
0.133732
0.134246
0.134732
0.135191
0.135625
0.136037
0.136428
0.136802
0.13716
0.137504
0.137845
0.138134
0.138627
0.00777713
0.00832727
0.00779707
0.00764723
0.00844488
0.0100906
0.012271
0.0147595
0.0174364
0.0202481
0.023164
0.02616
0.0292279
0.0323569
0.0355345
0.0387506
0.0420025
0.0452798
0.0485726
0.0518724
0.0551732
0.0584665
0.0617436
0.0649957
0.0682153
0.0713951
0.0745278
0.0776065
0.0806246
0.083576
0.0864553
0.0892573
0.0919774
0.0946115
0.0971562
0.0996084
0.101966
0.104227
0.10639
0.108455
0.110422
0.112292
0.114066
0.115746
0.117335
0.118836
0.120251
0.121584
0.122838
0.124017
0.125125
0.126164
0.127139
0.128054
0.128913
0.129717
0.130473
0.131182
0.131848
0.132473
0.133062
0.133616
0.134139
0.134631
0.135097
0.135537
0.135955
0.136351
0.136729
0.137091
0.137438
0.137782
0.138072
0.13857
0.0118719
0.0130906
0.0123677
0.0111426
0.0104117
0.0106668
0.0119029
0.0138477
0.016225
0.0188644
0.021677
0.0246112
0.0276414
0.0307498
0.0339202
0.0371389
0.0403996
0.0436916
0.0470034
0.0503262
0.0536554
0.0569809
0.0602929
0.0635825
0.0668418
0.0700636
0.07324
0.0763638
0.0794281
0.0824266
0.0853536
0.0882036
0.0909721
0.0936545
0.0962473
0.0987473
0.101152
0.103459
0.105668
0.107777
0.109787
0.111699
0.113513
0.115232
0.116858
0.118393
0.119841
0.121205
0.122487
0.123693
0.124825
0.125888
0.126884
0.127819
0.128695
0.129517
0.130287
0.13101
0.131689
0.132326
0.132925
0.133489
0.13402
0.134521
0.134994
0.135442
0.135865
0.136267
0.13665
0.137016
0.137367
0.137714
0.138006
0.138509
0.0146506
0.0171572
0.0172339
0.016055
0.0145662
0.0134766
0.0132344
0.0139672
0.0155297
0.0176753
0.020196
0.0229572
0.025883
0.0289297
0.0320677
0.0352744
0.0385364
0.0418408
0.0451741
0.0485251
0.0518867
0.055249
0.0586015
0.0619347
0.0652412
0.068513
0.0717418
0.0749196
0.0780391
0.0810939
0.0840778
0.0869853
0.0898112
0.0925511
0.0952008
0.0977572
0.100217
0.102579
0.104841
0.107002
0.109063
0.111023
0.112884
0.114647
0.116316
0.117891
0.119377
0.120775
0.122091
0.123328
0.124488
0.125577
0.126598
0.127555
0.128452
0.129293
0.13008
0.130819
0.131512
0.132163
0.132774
0.133349
0.133891
0.134401
0.134882
0.135337
0.135767
0.136175
0.136564
0.136935
0.137289
0.13764
0.137935
0.138443
0.0164243
0.0201167
0.0212206
0.0208161
0.0195978
0.0181128
0.0168459
0.0161958
0.0163909
0.0174442
0.0192097
0.0214899
0.0241188
0.0269841
0.0300143
0.033162
0.0363968
0.0396967
0.0430429
0.0464195
0.0498154
0.0532196
0.0566202
0.0600064
0.0633693
0.0667006
0.0699911
0.0732328
0.076418
0.0795398
0.0825916
0.0855675
0.0884619
0.0912699
0.0939874
0.0966105
0.0991363
0.101562
0.103887
0.106109
0.108229
0.110246
0.112161
0.113977
0.115695
0.117317
0.118846
0.120286
0.121641
0.122913
0.124107
0.125226
0.126275
0.127258
0.128179
0.129041
0.129849
0.130606
0.131316
0.131982
0.132607
0.133194
0.133747
0.134268
0.134758
0.135222
0.13566
0.136075
0.13647
0.136846
0.137205
0.137561
0.137858
0.138372
0.0185748
0.0221227
0.0238644
0.0243878
0.0240265
0.0230479
0.0217499
0.0204709
0.0195478
0.0192537
0.019733
0.0209767
0.0228637
0.0252355
0.0279514
0.0309059
0.0340277
0.0372685
0.0405935
0.0439761
0.0473969
0.05084
0.0542909
0.0577361
0.0611643
0.0645656
0.0679301
0.0712486
0.0745127
0.0777148
0.0808478
0.0839053
0.0868814
0.0897708
0.0925689
0.0952716
0.0978755
0.100378
0.102777
0.105071
0.107261
0.109345
0.111325
0.113202
0.114978
0.116655
0.118236
0.119725
0.121124
0.122438
0.123671
0.124826
0.125909
0.126922
0.12787
0.128758
0.129589
0.130367
0.131096
0.131779
0.13242
0.133022
0.133588
0.13412
0.134622
0.135095
0.135542
0.135965
0.136367
0.136749
0.137114
0.137474
0.137775
0.138295
0.0217996
0.0238989
0.0253741
0.026424
0.0269639
0.026904
0.0263011
0.0253284
0.0242044
0.0231881
0.0225453
0.0224914
0.0231406
0.0244895
0.0264454
0.0288767
0.0316569
0.0346854
0.037888
0.0412112
0.0446164
0.0480751
0.0515644
0.0550653
0.0585618
0.0620405
0.0654895
0.0688976
0.0722551
0.0755531
0.0787835
0.0819391
0.0850134
0.0880006
0.0908955
0.0936936
0.0963912
0.0989853
0.101473
0.103854
0.106127
0.108291
0.110347
0.112297
0.114142
0.115885
0.117528
0.119074
0.120527
0.121891
0.123169
0.124367
0.125488
0.126537
0.127518
0.128436
0.129294
0.130096
0.130848
0.131551
0.132211
0.132829
0.13341
0.133956
0.13447
0.134954
0.135411
0.135844
0.136253
0.136643
0.137014
0.13738
0.137685
0.138211
0.0232875
0.0255099
0.026953
0.0275306
0.0284219
0.0290737
0.0293088
0.0291451
0.0285965
0.0277829
0.0268861
0.0261177
0.0256954
0.0258026
0.0265474
0.0279436
0.0299254
0.0323845
0.0352061
0.0382901
0.0415586
0.0449533
0.0484308
0.0519577
0.0555077
0.0590597
0.0625965
0.0661032
0.0695668
0.0729762
0.0763216
0.0795941
0.0827862
0.085891
0.0889027
0.091816
0.0946268
0.0973314
0.099927
0.102412
0.104785
0.107045
0.109194
0.111232
0.11316
0.114981
0.116697
0.118313
0.11983
0.121253
0.122587
0.123835
0.125003
0.126094
0.127114
0.128067
0.128957
0.129788
0.130566
0.131293
0.131974
0.132612
0.133211
0.133772
0.134301
0.134798
0.135267
0.135709
0.136129
0.136527
0.136905
0.137277
0.137586
0.13812
0.0235517
0.0258179
0.027761
0.0290837
0.0299333
0.0303112
0.0307371
0.0312101
0.0313626
0.0312416
0.0308772
0.0303168
0.0296811
0.0291456
0.0289026
0.0291216
0.029914
0.0313143
0.0332845
0.0357388
0.0385737
0.0416909
0.0450085
0.048462
0.0520015
0.0555887
0.0591937
0.0627926
0.0663657
0.0698969
0.0733723
0.0767805
0.0801113
0.0833564
0.0865083
0.0895607
0.0925085
0.0953472
0.0980735
0.100685
0.10318
0.105558
0.107818
0.109962
0.111991
0.113908
0.115714
0.117412
0.119007
0.120503
0.121903
0.123212
0.124436
0.125578
0.126645
0.12764
0.128568
0.129435
0.130244
0.130999
0.131706
0.132366
0.132985
0.133566
0.134111
0.134623
0.135105
0.13556
0.13599
0.136398
0.136784
0.137164
0.137479
0.138021
0.0235621
0.025343
0.0272528
0.0290901
0.0306663
0.031791
0.0324743
0.0328333
0.0326735
0.0329442
0.0332385
0.0333068
0.0331556
0.0328472
0.0324729
0.0321655
0.0320872
0.0323957
0.0332091
0.0345836
0.0365093
0.038925
0.041742
0.044866
0.0482116
0.0517077
0.055298
0.0589382
0.0625934
0.066236
0.0698438
0.0733988
0.0768861
0.0802934
0.0836105
0.086829
0.0899418
0.0929431
0.0958285
0.0985945
0.101239
0.10376
0.106158
0.108433
0.110586
0.112619
0.114534
0.116335
0.118025
0.119609
0.121091
0.122475
0.123767
0.124972
0.126095
0.127141
0.128116
0.129025
0.129871
0.130661
0.131398
0.132086
0.132729
0.133332
0.133896
0.134426
0.134924
0.135394
0.135836
0.136256
0.136652
0.13704
0.137362
0.137913
0.0243393
0.0255093
0.0268617
0.0283696
0.0299789
0.0315815
0.0330247
0.0341689
0.0348427
0.0351932
0.0353157
0.0351282
0.0351857
0.0353259
0.0353755
0.0353034
0.0351715
0.0350838
0.0351699
0.0355679
0.0363969
0.0377311
0.0395885
0.0419352
0.0447014
0.0478014
0.0511492
0.0546687
0.0582963
0.0619808
0.0656816
0.0693663
0.0730093
0.0765901
0.0800921
0.0835021
0.0868094
0.0900052
0.093083
0.0960375
0.0988649
0.101563
0.10413
0.106566
0.108873
0.11105
0.113102
0.11503
0.116838
0.118531
0.120114
0.121591
0.122967
0.124249
0.125442
0.126552
0.127584
0.128544
0.129436
0.130267
0.131041
0.131762
0.132435
0.133064
0.133652
0.134203
0.13472
0.135206
0.135664
0.136096
0.136504
0.136902
0.137232
0.137794
0.026919
0.0276159
0.0284349
0.0293476
0.0303685
0.0315154
0.0327821
0.0341176
0.0354087
0.0365283
0.0373796
0.0378588
0.0380429
0.0380106
0.0377567
0.0376029
0.0376112
0.0376705
0.0377282
0.0378315
0.0380751
0.0385706
0.0394262
0.0407242
0.0425049
0.0447616
0.0474478
0.0504918
0.0538129
0.0573322
0.0609801
0.0646984
0.0684393
0.0721651
0.0758453
0.0794561
0.0829785
0.0863977
0.0897019
0.0928823
0.0959323
0.0988471
0.101624
0.104261
0.106758
0.109116
0.111338
0.113426
0.115383
0.117213
0.118923
0.120516
0.121999
0.123377
0.124658
0.125847
0.12695
0.127973
0.128923
0.129805
0.130624
0.131385
0.132094
0.132755
0.133372
0.133948
0.134488
0.134994
0.135469
0.135918
0.136339
0.13675
0.13709
0.137665
0.0322666
0.0325958
0.0330137
0.0334653
0.033945
0.0344674
0.0350595
0.0357523
0.0365656
0.0374889
0.0384745
0.0394344
0.0402645
0.0408774
0.0411911
0.0412224
0.0410398
0.0406807
0.040298
0.0401595
0.0402172
0.0404106
0.0407624
0.0413422
0.0422335
0.0435112
0.0452245
0.0473872
0.0499758
0.0529379
0.0562033
0.059696
0.0633437
0.0670816
0.0708553
0.0746202
0.0783401
0.0819866
0.0855373
0.0889748
0.092286
0.0954611
0.0984934
0.101378
0.104114
0.106699
0.109136
0.111425
0.11357
0.115576
0.117446
0.119188
0.120806
0.122308
0.1237
0.124989
0.126182
0.127286
0.128307
0.129253
0.130129
0.130941
0.131695
0.132395
0.133047
0.133654
0.134221
0.134752
0.135249
0.135716
0.136155
0.13658
0.136931
0.137522
0.0405105
0.0405514
0.040661
0.0407773
0.0408847
0.0409811
0.041073
0.0411755
0.0413133
0.0415179
0.0418201
0.042239
0.0427684
0.0433717
0.0439815
0.0445093
0.0448709
0.0449928
0.0448429
0.0444802
0.0439815
0.0433592
0.0430277
0.0430289
0.0433218
0.0438962
0.0447861
0.0460396
0.0476963
0.0497747
0.0522658
0.055134
0.0583233
0.0617659
0.0653912
0.0691319
0.0729279
0.0767278
0.080489
0.0841772
0.0877654
0.0912325
0.0945631
0.0977458
0.100773
0.103641
0.106348
0.108893
0.111278
0.113508
0.115587
0.117519
0.119313
0.120973
0.122509
0.123928
0.125237
0.126445
0.127559
0.128586
0.129534
0.13041
0.13122
0.13197
0.132666
0.133311
0.133912
0.134473
0.134996
0.135487
0.135945
0.136389
0.136754
0.137363
0.0509018
0.0507388
0.050627
0.0505109
0.050375
0.0502131
0.0500224
0.0498028
0.049558
0.0492977
0.0490393
0.0488079
0.048634
0.0485471
0.048568
0.0486976
0.0489116
0.0491589
0.0493647
0.0494467
0.049339
0.048974
0.0483965
0.0476948
0.0469395
0.046347
0.0461881
0.0464778
0.0471912
0.0483253
0.0498862
0.0518739
0.0542734
0.0570523
0.0601625
0.0635442
0.067132
0.0708601
0.0746662
0.0784945
0.0822962
0.0860308
0.0896655
0.0931744
0.0965385
0.0997439
0.102782
0.105647
0.108338
0.110856
0.113203
0.115385
0.117407
0.119276
0.121001
0.12259
0.124052
0.125396
0.126631
0.127765
0.128807
0.129766
0.130648
0.131462
0.132212
0.132907
0.13355
0.134148
0.134704
0.135224
0.135707
0.136172
0.136556
0.137188
0.0624564
0.0621619
0.0619048
0.0616396
0.0613542
0.061043
0.0607019
0.0603271
0.0599154
0.0594647
0.0589749
0.0584497
0.0578982
0.0573361
0.0567863
0.0562767
0.0558359
0.0554867
0.0552377
0.0550752
0.0549618
0.054836
0.0546198
0.0542451
0.0536574
0.0528536
0.0519175
0.0509682
0.0500796
0.0496705
0.0498472
0.0505989
0.0518931
0.0536952
0.0559632
0.0586457