/*--------------------------------*- C++ -*----------------------------------*\
| =========                 |                                                 |
| \\      /  F ield         | OpenFOAM: The Open Source CFD Toolbox           |
|  \\    /   O peration     | Version:  5.x                                   |
|   \\  /    A nd           | Web:      www.OpenFOAM.org                      |
|    \\/     M anipulation  |                                                 |
\*---------------------------------------------------------------------------*/
FoamFile
{
    version     2.0;
    format      ascii;
    class       volScalarField;
    location    "400";
    object      nut;
}
// * * * * * * * * * * * * * * * * * * * * * * * * * * * * * * * * * * * * * //

dimensions      [0 2 -1 0 0 0 0];

internalField   nonuniform List<scalar> 
41860
(
5.17529e-06
8.17745e-06
1.75779e-05
2.06293e-05
1.63089e-05
1.28138e-05
8.68511e-06
5.91126e-06
4.13683e-06
2.95718e-06
2.12287e-06
1.6372e-06
1.20342e-06
1.0423e-06
8.0534e-07
7.43886e-07
6.42526e-07
5.78051e-07
5.39674e-07
9.24786e-07
1.01948e-06
5.67523e-07
1.27742e-06
5.61686e-07
1.37541e-06
5.52105e-07
5.4322e-07
1.36087e-06
5.30975e-07
5.26742e-07
5.17476e-07
1.45096e-06
1.47223e-06
5.03235e-07
1.44055e-06
4.96624e-07
1.43028e-06
1.44789e-06
1.13287e-06
5.02062e-07
1.16586e-06
1.09553e-06
4.53717e-07
4.54457e-07
1.28481e-06
4.51471e-07
4.50682e-07
4.49501e-07
4.48825e-07
4.47974e-07
4.47604e-07
4.47557e-07
4.4765e-07
4.48993e-07
4.4994e-07
1.20474e-06
1.16776e-06
4.50613e-07
1.13854e-06
4.52351e-07
4.58806e-07
4.54438e-07
1.36295e-06
4.54853e-07
1.35987e-06
4.64107e-07
1.06155e-06
1.03221e-06
4.63292e-07
4.55506e-07
1.03511e-06
4.58384e-07
4.56167e-07
1.21652e-06
1.0506e-06
4.37842e-07
1.04288e-06
1.01068e-06
9.92004e-07
3.84622e-07
9.90665e-07
1.45476e-07
0.000180169
0.000216239
0.000282884
0.000300312
0.000276618
0.000254937
0.000224244
0.000197934
0.00017625
0.000157731
0.000140884
0.000128536
0.000114718
0.000108562
9.78821e-05
9.46919e-05
8.83696e-05
8.35636e-05
8.02399e-05
7.37745e-05
7.2139e-05
6.78147e-05
6.57066e-05
6.37676e-05
6.14503e-05
6.08901e-05
5.87727e-05
5.83815e-05
5.71329e-05
5.68086e-05
5.5757e-05
5.57868e-05
5.57053e-05
5.49823e-05
5.58647e-05
5.5341e-05
5.67498e-05
5.72308e-05
5.84958e-05
5.97492e-05
6.12724e-05
6.29667e-05
4.97873e-05
4.97345e-05
5.01308e-05
4.94301e-05
4.95332e-05
4.95022e-05
4.956e-05
4.94659e-05
4.95396e-05
4.96738e-05
4.98201e-05
5.03115e-05
5.0637e-05
5.10701e-05
5.13942e-05
5.09908e-05
5.20078e-05
5.1536e-05
5.27814e-05
5.21728e-05
5.34729e-05
5.27575e-05
5.40642e-05
5.44027e-05
5.44288e-05
5.47845e-05
5.49967e-05
5.47791e-05
5.51771e-05
5.54078e-05
5.57296e-05
5.53362e-05
5.49958e-05
5.47894e-05
5.46944e-05
5.39677e-05
5.32314e-05
5.15279e-05
5.35485e-05
3.07409e-07
0.000232838
0.000272924
0.000360403
0.000384796
0.000355425
0.000327989
0.000289198
0.000256199
0.00022938
0.000206959
0.000187453
0.000173085
0.000159819
0.000153028
0.000147723
0.000145964
0.000145106
0.00014469
0.000144167
0.000143887
0.000142954
0.000144701
0.000142099
0.000143401
0.000140903
0.000141695
0.000141215
0.000137991
0.000139014
0.000137757
0.000136679
0.000133726
0.000132573
0.00013331
0.000130554
0.000131341
0.000128898
0.000128229
0.00012801
0.000129017
0.000127643
0.000127833
0.000126468
0.000126106
0.000124339
0.000125403
0.000125078
0.00012478
0.00012452
0.000124293
0.00012411
0.00012397
0.000123864
0.000123816
0.000123795
0.000122472
0.000122558
0.000123839
0.000122756
0.000124034
0.000124304
0.000124338
0.00012318
0.000124603
0.000123421
0.000124928
0.000123806
0.000123947
0.000125015
0.000125168
0.000123855
0.000124877
0.000124865
0.000123155
0.000122835
0.000123526
0.000121834
0.00012084
0.000119842
0.000118772
0.000119778
6.44219e-07
0.000323198
0.000367453
0.000434943
0.000472951
0.000463381
0.000433547
0.000406204
0.000383433
0.000362803
0.000343499
0.000326412
0.00030529
0.000292166
0.000273633
0.00027118
0.000265322
0.000264446
0.000262499
0.000259784
0.000258345
0.000254919
0.000254487
0.000250295
0.000249172
0.000245479
0.000243925
0.000241942
0.00023764
0.000236785
0.000234139
0.000231849
0.000228215
0.000225922
0.000225084
0.000221774
0.000221141
0.000218227
0.000216721
0.000215388
0.000215226
0.000213464
0.000212885
0.000211508
0.00021045
0.000208621
0.000208923
0.000208182
0.000207516
0.000206913
0.000206408
0.000205946
0.000205543
0.0002052
0.000204871
0.000204629
0.000203499
0.000203394
0.000204263
0.000203291
0.000204218
0.000204224
0.000204337
0.000203487
0.000204437
0.00020355
0.00020436
0.000203527
0.000203551
0.000204126
0.000204344
0.000203126
0.000203611
0.000203447
0.000202078
0.000201416
0.000201471
0.000199862
0.000198461
0.000197059
0.000194948
0.000196339
1.33451e-06
0.00045011
0.000545566
0.000642883
0.000698244
0.000720328
0.000681805
0.000657733
0.000632008
0.00060295
0.000572266
0.000543065
0.000506817
0.000481947
0.000447533
0.000434834
0.000420143
0.000414363
0.000407996
0.000401289
0.000396799
0.000389946
0.000386033
0.000379667
0.000375193
0.000369879
0.000365212
0.000361176
0.000355563
0.000352134
0.000347691
0.000343719
0.00033925
0.000335469
0.000332552
0.000328621
0.000326115
0.000322722
0.000320179
0.000317825
0.00031624
0.000314149
0.00031286
0.000310184
0.000308115
0.000306263
0.000305442
0.000304191
0.000303051
0.000302007
0.00030109
0.000300256
0.000299516
0.000298864
0.000298273
0.000297783
0.000296939
0.000296624
0.00029678
0.000296164
0.000296422
0.00029634
0.000296307
0.000295912
0.000296203
0.000295766
0.000295962
0.000295472
0.000295381
0.000295374
0.000295439
0.000294545
0.000294402
0.000294059
0.00029293
0.000291962
0.000291253
0.00028973
0.000287842
0.000285929
0.000282552
0.00028411
2.71511e-06
0.000616846
0.000786407
0.000992416
0.00108046
0.0011152
0.00105423
0.00101177
0.000966449
0.000916923
0.000865843
0.000817046
0.000761223
0.000719382
0.000667478
0.000640475
0.000613851
0.000600353
0.000587525
0.000575265
0.000565999
0.000554572
0.000546308
0.000536438
0.000528137
0.000519984
0.000511921
0.000505133
0.000497292
0.000491075
0.000484358
0.000478261
0.000472182
0.000466543
0.000461548
0.000456358
0.000452028
0.0004476
0.000443793
0.000440319
0.000437409
0.000434632
0.000432604
0.000427978
0.0004245
0.000422154
0.000420321
0.000418421
0.000416676
0.000415076
0.000413639
0.000412339
0.000411175
0.000410137
0.000409214
0.000408415
0.000407558
0.000406995
0.000406629
0.000406109
0.00040589
0.0004057
0.000405492
0.000405267
0.000405155
0.000404879
0.000404721
0.000404344
0.000404133
0.000403721
0.000403629
0.00040282
0.000402225
0.000401687
0.000400502
0.00039921
0.000397899
0.000396192
0.000393744
0.000391212
0.000386733
0.000387649
5.37377e-06
0.000847852
0.00108327
0.00143788
0.00156916
0.00160069
0.00151065
0.00144075
0.00136988
0.00129558
0.00122053
0.00114874
0.00107074
0.00100885
0.000937568
0.000893683
0.000852392
0.000828495
0.000807145
0.000787665
0.000772009
0.000754732
0.000741126
0.000726482
0.000713656
0.000701536
0.000689572
0.00067929
0.000668321
0.000658954
0.000649399
0.000640669
0.000632275
0.000624345
0.000617089
0.000610065
0.000603783
0.000597821
0.000592481
0.000587655
0.000583392
0.000579596
0.000576749
0.000569717
0.000564364
0.000561082
0.000558243
0.000555526
0.000553027
0.000550732
0.000548658
0.000546779
0.000545088
0.000543572
0.000542226
0.000541045
0.00053994
0.000539072
0.000538302
0.000537661
0.000537095
0.000536749
0.000536351
0.000536107
0.00053574
0.000535441
0.000535058
0.000534623
0.000534279
0.00053358
0.000533333
0.000532429
0.000531491
0.000530736
0.000529321
0.000527659
0.000525835
0.000523758
0.000520688
0.000517432
0.000512037
0.000511255
1.02121e-05
0.00118422
0.00144269
0.00196577
0.00214696
0.00216822
0.00204534
0.00194404
0.00184501
0.00174384
0.00164269
0.00154563
0.00144326
0.00135883
0.00126608
0.00120297
0.00114435
0.00110723
0.00107503
0.00104638
0.00102257
0.000997931
0.0009777
0.000956948
0.000938589
0.000921381
0.000904695
0.000890063
0.000875074
0.000861933
0.000848874
0.000836895
0.000825514
0.000814768
0.000804854
0.000795459
0.000786903
0.000778949
0.000771744
0.000765256
0.000759453
0.000754337
0.000750537
0.000740689
0.000732917
0.000728284
0.000724294
0.000720566
0.00071713
0.000713979
0.00071112
0.000708527
0.000706187
0.000704083
0.000702209
0.000700553
0.000699045
0.000697798
0.000696639
0.000695741
0.000694857
0.000694301
0.000693684
0.000693325
0.00069275
0.000692334
0.000691764
0.000691183
0.000690687
0.000689739
0.000689327
0.00068824
0.00068699
0.000685994
0.000684265
0.000682188
0.000679865
0.000677314
0.000673576
0.000669485
0.000663395
0.000659536
1.83488e-05
0.00163272
0.0018808
0.0025814
0.00281806
0.00282478
0.00266565
0.00253032
0.00240145
0.0022719
0.002143
0.0020187
0.00188989
0.00178055
0.00166408
0.00157934
0.00150069
0.00144728
0.00140153
0.00136136
0.00132734
0.00129348
0.00126501
0.00123661
0.0012114
0.00118782
0.00116531
0.00114529
0.00112528
0.00110752
0.00109013
0.00107414
0.00105904
0.00104483
0.00103168
0.00101933
0.00100802
0.000997583
0.000988091
0.000979552
0.000971899
0.000965131
0.000960187
0.000947151
0.000936331
0.000929885
0.000924486
0.000919502
0.000914912
0.000910704
0.000906878
0.000903408
0.000900269
0.000897439
0.000894912
0.000892671
0.000890634
0.000888919
0.000887319
0.000886064
0.000884829
0.000884001
0.000883125
0.00088259
0.000881806
0.000881221
0.00088046
0.000879686
0.000879018
0.000877822
0.000877226
0.000875917
0.000874346
0.000873084
0.000871004
0.000868475
0.000865634
0.000862547
0.000858112
0.000853072
0.000846606
0.000837844
3.07414e-05
0.00221456
0.00242513
0.00329766
0.00359476
0.00358327
0.00338424
0.00321251
0.00305242
0.00289329
0.00273518
0.00258184
0.00242449
0.00228793
0.00214529
0.00203639
0.00193492
0.00186192
0.0017995
0.001745
0.00169828
0.00165292
0.00161421
0.00157629
0.00154254
0.00151107
0.00148132
0.00145464
0.00142838
0.00140491
0.00138217
0.00136124
0.00134153
0.00132303
0.00130593
0.00128991
0.00127522
0.0012617
0.00124939
0.00123831
0.00122839
0.00121957
0.00121321
0.00119666
0.00118208
0.00117325
0.00116608
0.00115953
0.00115352
0.00114801
0.00114299
0.00113844
0.00113431
0.00113059
0.00112726
0.00112429
0.0011216
0.0011193
0.00111717
0.00111546
0.00111381
0.00111263
0.00111144
0.00111068
0.00110966
0.00110887
0.0011079
0.0011069
0.00110604
0.00110458
0.00110378
0.00110223
0.00110033
0.00109877
0.00109633
0.00109332
0.00108994
0.00108628
0.00108114
0.00107503
0.00106868
0.00105264
4.76869e-05
0.00296164
0.00311367
0.00413227
0.00449393
0.00446021
0.00421717
0.0040067
0.00381417
0.00362447
0.0034359
0.00325183
0.00306393
0.00289781
0.00272646
0.00259072
0.00246347
0.0023674
0.00228479
0.0022126
0.00215021
0.00209055
0.00203911
0.00198937
0.00194499
0.0019037
0.00186495
0.00182999
0.00179599
0.00176543
0.00173606
0.001709
0.0016836
0.00165981
0.0016378
0.00161725
0.00159838
0.00158103
0.00156524
0.00155101
0.00153826
0.00152688
0.00151876
0.00149839
0.00147925
0.00146733
0.00145791
0.00144941
0.00144163
0.0014345
0.00142802
0.00142213
0.00141679
0.00141196
0.00140763
0.00140377
0.00140027
0.00139725
0.00139447
0.00139219
0.00139003
0.00138841
0.00138684
0.00138579
0.00138451
0.00138347
0.00138226
0.00138101
0.00137994
0.0013782
0.00137717
0.00137539
0.00137313
0.00137127
0.00136846
0.00136497
0.00136103
0.00135677
0.00135097
0.00134365
0.00133813
0.00131185
6.87069e-05
0.00391463
0.00398257
0.00510723
0.00553631
0.00547541
0.00518364
0.00493201
0.00470603
0.00448506
0.00426502
0.00404881
0.00382841
0.00363049
0.00342777
0.00326238
0.00310623
0.00298343
0.00287675
0.002783
0.00270138
0.00262403
0.0025568
0.00249239
0.00243475
0.00238128
0.00233129
0.00228606
0.00224243
0.00220306
0.00216545
0.00213078
0.0020983
0.00206793
0.00203984
0.00201365
0.00198961
0.0019675
0.00194737
0.0019292
0.00191293
0.00189833
0.00188796
0.00186352
0.00183897
0.00182307
0.00181075
0.00179982
0.00178984
0.00178071
0.0017724
0.00176486
0.00175802
0.00175183
0.00174626
0.00174129
0.00173678
0.00173287
0.00172929
0.0017263
0.00172351
0.00172134
0.00171929
0.00171787
0.00171629
0.00171496
0.00171349
0.00171196
0.00171065
0.00170864
0.00170734
0.00170533
0.00170273
0.00170055
0.0016974
0.00169344
0.00168895
0.0016841
0.00167772
0.00166906
0.00166537
0.00162536
9.30233e-05
0.00512377
0.00506818
0.00624887
0.00674674
0.00665212
0.00630618
0.00601092
0.00575075
0.00549822
0.00524613
0.00499665
0.00474205
0.00451022
0.00427347
0.00407548
0.00388716
0.00373382
0.00359888
0.00347918
0.00337419
0.00327511
0.00318836
0.00310581
0.00303166
0.00296303
0.00289902
0.002841
0.00278536
0.00273501
0.00268715
0.00264299
0.0026017
0.00256314
0.00252749
0.00249427
0.00246377
0.0024357
0.00241017
0.00238705
0.00236637
0.00234772
0.00233442
0.00230566
0.00227481
0.00225385
0.00223782
0.0022238
0.00221107
0.00219946
0.00218889
0.00217929
0.00217058
0.00216269
0.00215559
0.00214925
0.00214349
0.00213847
0.0021339
0.00213002
0.00212645
0.00212359
0.00212095
0.00211906
0.00211711
0.00211544
0.00211368
0.00211185
0.00211029
0.002108
0.00210642
0.00210421
0.00210128
0.00209879
0.00209533
0.00209096
0.00208596
0.00208055
0.00207372
0.00206359
0.00206303
0.00200557
0.000120141
0.00665039
0.00641822
0.00758825
0.00815452
0.0080175
0.00761103
0.00726969
0.00697497
0.00669115
0.00640701
0.00612367
0.00583352
0.00556591
0.00529249
0.00505892
0.00483497
0.00464713
0.0044795
0.00432906
0.00419599
0.00407047
0.00395974
0.00385482
0.00376016
0.00367272
0.00359121
0.00351725
0.00344665
0.00338256
0.00332191
0.00326589
0.00321361
0.00316481
0.0031197
0.0030777
0.00303912
0.00300359
0.00297127
0.00294193
0.00291568
0.0028919
0.00287478
0.00284142
0.00280336
0.00277606
0.00275526
0.00273734
0.00272117
0.00270645
0.00269305
0.00268089
0.00266984
0.00265985
0.00265084
0.00264277
0.00263547
0.00262905
0.00262325
0.00261826
0.00261372
0.00260999
0.00260661
0.00260413
0.00260174
0.00259967
0.00259757
0.00259543
0.00259359
0.00259103
0.00258917
0.00258678
0.00258359
0.0025808
0.00257712
0.00257241
0.002567
0.0025611
0.00255403
0.0025423
0.00254648
0.00246813
0.000150055
0.00856872
0.00809438
0.00916245
0.00979178
0.00960232
0.00912816
0.00873837
0.0084094
0.00809545
0.0077801
0.00746303
0.00713653
0.00683168
0.00651913
0.006247
0.00598382
0.00575738
0.00555245
0.00536615
0.0051998
0.0050425
0.00490259
0.0047703
0.00465031
0.00453957
0.00443629
0.00434246
0.00425321
0.00417194
0.0040953
0.00402444
0.00395841
0.0038968
0.00383985
0.00378682
0.00373812
0.0036932
0.00365233
0.00361513
0.00358183
0.00355153
0.00352938
0.00349104
0.0034449
0.00340978
0.00338289
0.00336
0.00333948
0.00332087
0.00330392
0.00328857
0.00327461
0.00326197
0.00325057
0.00324035
0.00323112
0.00322295
0.00321561
0.00320922
0.00320348
0.00319865
0.00319433
0.0031911
0.00318816
0.00318561
0.00318314
0.00318064
0.00317851
0.00317572
0.00317357
0.00317106
0.00316767
0.00316466
0.00316085
0.00315594
0.00315027
0.003144
0.00313699
0.00312355
0.00313432
0.003033
0.000183112
0.0109681
0.0101737
0.011017
0.011683
0.0114336
0.0108862
0.010447
0.0100864
0.00974572
0.00940179
0.00905249
0.00868986
0.00834703
0.00799329
0.00767979
0.0073738
0.00710458
0.00685767
0.00663019
0.00642502
0.00623012
0.00605515
0.00588972
0.00573871
0.00559929
0.00546908
0.00535056
0.00523811
0.0051354
0.00503879
0.00494935
0.00486609
0.00478841
0.0047166
0.00464973
0.00458829
0.00453154
0.00447987
0.00443273
0.00439047
0.00435188
0.00432308
0.00427918
0.00422412
0.00417955
0.00414493
0.0041157
0.0040897
0.00406618
0.00404479
0.00402541
0.0040078
0.00399185
0.00397745
0.00396452
0.00395286
0.0039425
0.00393322
0.00392508
0.00391782
0.00391161
0.00390611
0.0039019
0.00389826
0.00389513
0.00389221
0.00388933
0.0038869
0.0038839
0.00388149
0.00387892
0.00387545
0.00387231
0.00386852
0.00386361
0.00385789
0.00385143
0.00384487
0.00382966
0.00384891
0.00372558
0.000219789
0.0139554
0.0127508
0.0132092
0.0138317
0.0135049
0.0128853
0.0124037
0.0120242
0.0116694
0.0113061
0.0109305
0.0105349
0.0101553
0.00975956
0.00940265
0.00905069
0.00873475
0.0084413
0.00816737
0.00791776
0.00767918
0.00746278
0.00725783
0.00706934
0.006895
0.00673174
0.00658276
0.00644163
0.00631224
0.00619076
0.00607812
0.00597331
0.0058755
0.00578505
0.00570079
0.00562331
0.00555165
0.00548633
0.00542658
0.00537291
0.00532375
0.00528616
0.00523581
0.00517103
0.00511527
0.00507096
0.00503368
0.00500072
0.00497101
0.00494403
0.00491959
0.00489737
0.00487726
0.00485908
0.00484274
0.00482802
0.00481489
0.00480317
0.0047928
0.00478363
0.00477568
0.00476868
0.00476319
0.00475865
0.00475478
0.00475133
0.00474802
0.00474526
0.0047421
0.00473946
0.0047369
0.0047335
0.00473036
0.00472678
0.00472211
0.00471665
0.00471025
0.00470464
0.00468765
0.00471709
0.00457784
0.000260506
0.0176585
0.01594
0.0158099
0.016232
0.0157742
0.0150805
0.0145705
0.0141975
0.0138587
0.0135029
0.0131207
0.012705
0.0122963
0.0118624
0.0114628
0.0110636
0.0106982
0.0103545
0.0100295
0.00973029
0.00944216
0.00917792
0.00892679
0.00869386
0.00847767
0.00827443
0.00808831
0.00791205
0.00774979
0.00759755
0.00745609
0.00732446
0.00720154
0.00708777
0.00698172
0.00688407
0.00679364
0.00671106
0.00663535
0.00656715
0.00650456
0.00645536
0.00639715
0.00632182
0.00625311
0.00619684
0.0061494
0.00610764
0.00607012
0.00603608
0.00600525
0.00597725
0.00595187
0.00592893
0.00590827
0.00588969
0.00587306
0.00585824
0.00584507
0.00583347
0.00582331
0.00581439
0.00580725
0.00580151
0.00579668
0.00579255
0.00578873
0.0057856
0.00578232
0.00577949
0.00577702
0.00577387
0.00577092
0.00576777
0.00576364
0.00575881
0.00575279
0.00574871
0.00573002
0.00577081
0.00562794
0.000305489
0.0222308
0.0198782
0.018904
0.0188864
0.0182059
0.0174241
0.0168962
0.0165534
0.0162649
0.0159564
0.0156059
0.0152024
0.0147885
0.0143321
0.0138989
0.0134573
0.0130437
0.0126492
0.0122706
0.0119183
0.0115761
0.0112584
0.0109549
0.0106707
0.0104056
0.010155
0.00992447
0.00970592
0.00950372
0.00931392
0.00913708
0.00897235
0.00881835
0.00867561
0.00854242
0.00841959
0.00830564
0.00820135
0.00810549
0.00801887
0.0079392
0.00787486
0.00780665
0.00771983
0.00763642
0.00756572
0.00750557
0.00745273
0.00740537
0.00736245
0.00732358
0.00728828
0.00725627
0.00722731
0.00720119
0.00717773
0.00715665
0.00713791
0.00712118
0.00710649
0.00709353
0.00708216
0.00707285
0.00706549
0.0070594
0.00705437
0.00704991
0.00704632
0.00704292
0.00703994
0.00703766
0.00703493
0.00703236
0.0070299
0.00702666
0.00702287
0.00701761
0.00701567
0.00699547
0.00704805
0.00691396
0.000936411
0.027858
0.0247255
0.0225853
0.0218083
0.0207804
0.0198837
0.0193421
0.0190451
0.0188328
0.0186068
0.0183302
0.0179833
0.0176056
0.0171618
0.0167211
0.0162553
0.0158051
0.0153667
0.014938
0.0145337
0.0141364
0.0137624
0.0134025
0.0130617
0.0127415
0.0124368
0.0121547
0.0118866
0.0116371
0.0114023
0.0111829
0.010978
0.0107861
0.0106079
0.0104413
0.0102873
0.0101442
0.0100129
0.0098918
0.00978198
0.00968081
0.0095969
0.00951565
0.00941607
0.0093163
0.0092286
0.00915289
0.00908623
0.00902655
0.00897251
0.00892355
0.00887908
0.00883872
0.00880219
0.00876919
0.00873954
0.00871284
0.00868913
0.00866788
0.00864926
0.00863275
0.00861824
0.00860611
0.00859657
0.00858875
0.00858248
0.00857714
0.00857294
0.00856937
0.00856625
0.00856419
0.00856205
0.00856007
0.00855855
0.00855652
0.00855422
0.00855009
0.0085509
0.00852944
0.0085935
0.00847139
0.00259199
0.0347586
0.0306629
0.0269377
0.0250147
0.0234866
0.0224369
0.0218807
0.0216387
0.0215191
0.0213999
0.0212297
0.0209799
0.0206836
0.0202981
0.0198919
0.0194381
0.0189795
0.0185186
0.0180551
0.0176098
0.0171644
0.0167379
0.0163226
0.0159241
0.015546
0.0151828
0.0148438
0.01452
0.0142165
0.0139299
0.0136607
0.0134085
0.0131716
0.0129509
0.0127441
0.0125523
0.0123736
0.0122091
0.012057
0.0119184
0.0117905
0.0116818
0.0115834
0.0114693
0.0113516
0.0112444
0.0111501
0.0110665
0.0109916
0.0109238
0.0108622
0.0108064
0.0107556
0.0107096
0.0106679
0.0106305
0.0105967
0.0105667
0.0105398
0.0105162
0.0104952
0.0104767
0.0104609
0.0104484
0.0104382
0.0104302
0.0104236
0.0104185
0.0104146
0.0104113
0.0104094
0.0104079
0.0104067
0.0104063
0.0104058
0.0104053
0.0104026
0.0104066
0.0103842
0.0104588
0.0103368
0.00591676
0.0429758
0.0378628
0.0319894
0.0285105
0.0263121
0.0250611
0.0244867
0.0243062
0.0242897
0.0242926
0.0242504
0.0241272
0.0239487
0.0236636
0.023337
0.0229401
0.0225156
0.0220689
0.0216018
0.0211409
0.0206677
0.0202038
0.0197443
0.0192954
0.0188636
0.0184434
0.018047
0.0176653
0.0173042
0.0169612
0.0166367
0.0163313
0.0160431
0.0157733
0.0155197
0.0152836
0.0150629
0.0148587
0.0146693
0.0144959
0.0143354
0.0141961
0.0140756
0.0139446
0.0138074
0.0136786
0.0135627
0.013459
0.0133657
0.013281
0.0132042
0.0131343
0.0130706
0.013013
0.0129606
0.0129135
0.0128709
0.0128331
0.012799
0.0127691
0.0127425
0.0127189
0.0126984
0.0126821
0.0126686
0.0126582
0.0126497
0.0126433
0.0126388
0.012635
0.0126332
0.0126323
0.0126318
0.0126326
0.0126336
0.0126352
0.0126341
0.0126414
0.012618
0.0127018
0.0125733
0.00907292
0.0520114
0.0462232
0.0376491
0.0322582
0.0292283
0.0277246
0.027129
0.027016
0.0271108
0.0272458
0.0273455
0.0273695
0.0273349
0.0271821
0.0269723
0.0266738
0.0263277
0.0259388
0.0255095
0.0250714
0.0246043
0.0241322
0.0236532
0.0231741
0.0227042
0.0222387
0.0217932
0.0213591
0.0209433
0.0205446
0.0201641
0.0198033
0.0194604
0.0191376
0.0188325
0.018547
0.0182788
0.0180294
0.017797
0.0175829
0.0173843
0.0172085
0.0170605
0.0169095
0.0167515
0.0165995
0.0164596
0.0163329
0.016218
0.0161136
0.0160184
0.0159318
0.0158527
0.0157809
0.0157156
0.0156567
0.0156034
0.0155559
0.015513
0.0154754
0.0154418
0.015412
0.0153856
0.0153642
0.0153464
0.0153326
0.0153215
0.015313
0.0153073
0.0153026
0.0153005
0.0152999
0.0152999
0.0153017
0.0153041
0.0153076
0.0153078
0.0153182
0.0152934
0.0153844
0.0152378
0.0126485
0.06141
0.0552143
0.0436484
0.0361213
0.0321646
0.030375
0.0297639
0.0297267
0.0299404
0.0302143
0.0304654
0.0306523
0.0307807
0.0307834
0.0307184
0.0305513
0.030322
0.0300309
0.0296816
0.0293081
0.028888
0.0284464
0.0279836
0.0275068
0.0270271
0.0265407
0.0260665
0.0255965
0.0251391
0.0246947
0.0242655
0.0238541
0.0234596
0.0230849
0.0227282
0.022392
0.0220741
0.0217766
0.0214978
0.0212391
0.0209982
0.0207815
0.020601
0.020427
0.0202471
0.0200713
0.0199064
0.0197547
0.0196159
0.0194891
0.019373
0.0192671
0.0191701
0.0190819
0.0190014
0.0189287
0.0188627
0.0188037
0.0187504
0.0187035
0.0186616
0.0186243
0.0185908
0.018563
0.0185397
0.0185212
0.0185064
0.018495
0.0184872
0.0184809
0.0184778
0.0184769
0.018477
0.0184793
0.0184825
0.0184872
0.0184879
0.0185003
0.0184732
0.0185687
0.0183938
0.0166608
0.070864
0.0643102
0.0494441
0.0397535
0.0349603
0.0329213
0.0323309
0.032384
0.0327248
0.0331409
0.0335483
0.033911
0.0342173
0.0343933
0.034495
0.0344858
0.0344051
0.034245
0.034013
0.0337433
0.0334095
0.0330382
0.0326315
0.032196
0.031743
0.03127
0.0307983
0.03032
0.0298455
0.0293763
0.0289162
0.028469
0.0280348
0.0276179
0.0272169
0.0268354
0.0264718
0.0261285
0.0258044
0.0255014
0.0252173
0.0249583
0.0247428
0.024544
0.0243418
0.0241431
0.0239539
0.0237772
0.0236139
0.0234636
0.0233252
0.0231984
0.0230819
0.0229756
0.0228783
0.0227902
0.0227099
0.022638
0.0225729
0.0225154
0.022464
0.0224181
0.0223763
0.022341
0.0223109
0.0222866
0.022267
0.0222515
0.0222407
0.0222319
0.0222269
0.0222249
0.022224
0.0222258
0.0222288
0.0222336
0.0222335
0.022246
0.0222147
0.0223111
0.0221029
0.021101
0.0800891
0.0728642
0.0550146
0.0430216
0.0375986
0.0354075
0.0348522
0.0349716
0.0354025
0.0359562
0.0365187
0.0370671
0.0375602
0.0379218
0.0382075
0.038379
0.0384749
0.0384741
0.038393
0.038262
0.0380499
0.0377856
0.0374736
0.0371184
0.0367304
0.036309
0.0358767
0.035425
0.0349659
0.0345021
0.0340385
0.0335801
0.0331281
0.032688
0.0322593
0.0318467
0.0314491
0.0310701
0.0307088
0.0303677
0.0300457
0.0297483
0.0294995
0.0292766
0.0290541
0.0288355
0.0286251
0.0284264
0.0282405
0.0280679
0.027908
0.0277608
0.0276248
0.0275004
0.0273858
0.027282
0.0271868
0.0271016
0.0270241
0.0269554
0.026894
0.0268391
0.0267885
0.026745
0.0267073
0.0266763
0.0266508
0.0266303
0.0266155
0.0266031
0.0265953
0.0265911
0.0265881
0.0265882
0.0265897
0.026593
0.0265902
0.0266004
0.0265625
0.0266551
0.0264154
0.0259363
0.0887397
0.0803772
0.0614816
0.0472462
0.0407401
0.0383286
0.0377237
0.0378154
0.0382382
0.0388247
0.0394532
0.0401013
0.0407164
0.0412621
0.0417423
0.042112
0.0424096
0.0425906
0.0426928
0.0427335
0.0426747
0.0425515
0.0423713
0.0421335
0.0418474
0.0415162
0.0411615
0.0407736
0.0403661
0.0399429
0.0395093
0.0390712
0.0386308
0.0381946
0.0377631
0.0373419
0.0369308
0.036534
0.0361516
0.0357867
0.0354389
0.0351136
0.0348393
0.0345976
0.0343598
0.0341271
0.0339019
0.0336872
0.0334843
0.0332943
0.0331167
0.0329524
0.0327997
0.0326594
0.0325296
0.0324116
0.0323031
0.0322055
0.0321166
0.0320377
0.0319669
0.0319036
0.0318448
0.0317936
0.0317483
0.0317106
0.031679
0.031653
0.0316338
0.0316172
0.0316059
0.0315986
0.0315927
0.03159
0.0315886
0.0315888
0.0315815
0.0315869
0.03154
0.0316234
0.0313604
0.0311592
0.0963757
0.0868801
0.0689906
0.0539531
0.0460949
0.0429405
0.0418277
0.0415937
0.0417836
0.0422094
0.0427465
0.0433467
0.0439615
0.0445588
0.0451292
0.0456119
0.0460735
0.0464429
0.0467603
0.0470017
0.0471218
0.047172
0.047161
0.0470757
0.0469266
0.0467249
0.0464862
0.0461994
0.0458814
0.0455361
0.0451693
0.0447868
0.0443921
0.0439925
0.0435891
0.0431883
0.0427907
0.0424015
0.0420213
0.0416538
0.0412997
0.0409642
0.0406785
0.0404285
0.0401848
0.0399471
0.0397167
0.0394956
0.0392848
0.0390858
0.0388983
0.0387236
0.0385603
0.0384096
0.0382696
0.0381418
0.0380238
0.0379176
0.0378205
0.0377341
0.0376567
0.0375874
0.0375225
0.0374655
0.0374145
0.0373714
0.0373348
0.0373043
0.0372811
0.0372608
0.0372462
0.037236
0.037227
0.0372211
0.0372164
0.0372125
0.0371997
0.0371985
0.0371417
0.0372105
0.0369371
0.0368096
0.10253
0.0930095
0.0773209
0.0628888
0.0543213
0.0500275
0.0478897
0.0469333
0.046602
0.0466325
0.0468799
0.0472437
0.0476978
0.048182
0.0487002
0.0491762
0.0496658
0.0501062
0.0505251
0.0508982
0.0512019
0.051455
0.0516498
0.0517446
0.0517647
0.0517334
0.0516482
0.0514992
0.0513097
0.0510818
0.0508203
0.0505314
0.05022
0.0498934
0.0495533
0.0492067
0.0488551
0.0485042
0.0481552
0.0478127
0.047478
0.0471565
0.0468795
0.046637
0.0464013
0.0461718
0.045949
0.0457343
0.045528
0.045332
0.0451458
0.0449713
0.0448071
0.044655
0.0445129
0.0443829
0.0442625
0.0441539
0.0440545
0.0439662
0.043887
0.0438164
0.04375
0.0436915
0.0436385
0.0435936
0.0435551
0.0435227
0.0434981
0.0434762
0.0434602
0.0434486
0.043438
0.0434302
0.043423
0.0434159
0.0433984
0.0433904
0.0433254
0.0433752
0.0431081
0.0429333
0.107133
0.0992533
0.0861315
0.0730457
0.0640824
0.0585592
0.0552993
0.0535098
0.0525672
0.0521163
0.0519709
0.0519886
0.0521672
0.0524131
0.0527487
0.0530943
0.0534783
0.0538635
0.0542567
0.0546433
0.0550026
0.055344
0.0556468
0.055916
0.0561294
0.0563112
0.0564072
0.0564277
0.0564056
0.0563346
0.0562169
0.0560609
0.0558728
0.0556586
0.0554203
0.0551658
0.0548969
0.0546197
0.0543362
0.0540514
0.0537675
0.0534896
0.053247
0.0530329
0.0528239
0.0526199
0.0524211
0.0522287
0.0520426
0.0518647
0.0516944
0.051534
0.0513821
0.0512409
0.0511084
0.0509871
0.0508744
0.0507731
0.0506803
0.0505984
0.0505252
0.0504606
0.0503996
0.0503462
0.0502978
0.0502569
0.0502222
0.0501932
0.0501719
0.0501529
0.0501396
0.0501306
0.050122
0.0501158
0.0501096
0.0501025
0.0500837
0.0500717
0.0500036
0.0500328
0.0497909
0.0495212
0.111545
0.105436
0.0949465
0.083265
0.0732837
0.0663869
0.0624331
0.0601598
0.0588398
0.0580519
0.0575728
0.057283
0.0571959
0.0571916
0.0572973
0.0574434
0.0576438
0.0578835
0.0581514
0.0584474
0.0587487
0.0590643
0.0593719
0.0596829
0.0599755
0.0602577
0.0605107
0.0607181
0.0608997
0.0610156
0.061072
0.061085
0.061059
0.0609955
0.060898
0.0607749
0.060628
0.0604633
0.0602831
0.060093
0.059896
0.0596966
0.0595186
0.0593583
0.0591996
0.0590428
0.0588884
0.0587378
0.0585908
0.0584493
0.0583127
0.0581834
0.0580603
0.0579457
0.0578379
0.0577394
0.0576481
0.0575667
0.0574926
0.0574284
0.057372
0.0573234
0.0572778
0.057239
0.0572043
0.0571763
0.0571537
0.0571361
0.0571257
0.0571169
0.0571135
0.0571137
0.0571138
0.0571156
0.0571167
0.0571159
0.0571027
0.057093
0.0570312
0.057043
0.0568446
0.0564842
0.116342
0.111638
0.103316
0.0932783
0.0837686
0.0760796
0.07033
0.0668278
0.0648711
0.0636977
0.0629949
0.0625604
0.0623417
0.0621769
0.0620886
0.0620443
0.0620651
0.0621391
0.0622418
0.0623875
0.062556
0.06276
0.0629844
0.0632353
0.0635018
0.0637812
0.0640672
0.0643434
0.0646179
0.0648716
0.0651034
0.0653097
0.0654717
0.0655838
0.0656572
0.0656997
0.0657098
0.0656933
0.0656535
0.0655957
0.0655229
0.0654392
0.0653591
0.0652812
0.0651996
0.0651151
0.0650288
0.0649426
0.0648565
0.0647726
0.0646903
0.0646122
0.0645373
0.0644681
0.0644031
0.0643449
0.0642916
0.064246
0.0642059
0.0641738
0.0641479
0.0641286
0.0641112
0.0640993
0.0640904
0.064087
0.0640879
0.0640927
0.0641037
0.0641156
0.0641321
0.0641514
0.06417
0.0641896
0.0642079
0.0642232
0.0642263
0.0642295
0.0641875
0.064192
0.0640533
0.0636421
0.120474
0.117189
0.110871
0.102882
0.0947785
0.087542
0.0814359
0.076634
0.0729821
0.0705022
0.0690692
0.0681694
0.0675673
0.0671075
0.0668257
0.0666504
0.0665752
0.0665182
0.0664611
0.0664426
0.0664506
0.0665019
0.0665901
0.0667169
0.0668788
0.0670689
0.0672875
0.0675239
0.0677823
0.068052
0.0683325
0.0686155
0.0688953
0.0691612
0.0694119
0.0696322
0.0698124
0.0699626
0.0700872
0.0701888
0.0702695
0.0703329
0.0703801
0.0704107
0.0704312
0.0704435
0.0704492
0.0704505
0.0704479
0.0704435
0.0704373
0.0704316
0.0704259
0.0704225
0.0704202
0.0704216
0.0704252
0.0704336
0.070445
0.0704618
0.0704826
0.070508
0.070534
0.070564
0.0705954
0.070631
0.0706693
0.0707103
0.0707561
0.070802
0.0708515
0.0709027
0.0709528
0.0710033
0.0710519
0.0710969
0.0711309
0.071162
0.0711571
0.0711728
0.0711073
0.0707078
0.123928
0.12172
0.1173
0.111481
0.105
0.0985751
0.0928448
0.0880198
0.0840338
0.0807818
0.0782087
0.0760372
0.0743192
0.0730383
0.0722553
0.0717391
0.0713707
0.0710759
0.0708162
0.0706356