/*--------------------------------*- C++ -*----------------------------------*\
| =========                 |                                                 |
| \\      /  F ield         | OpenFOAM: The Open Source CFD Toolbox           |
|  \\    /   O peration     | Version:  5.x                                   |
|   \\  /    A nd           | Web:      www.OpenFOAM.org                      |
|    \\/     M anipulation  |                                                 |
\*---------------------------------------------------------------------------*/
FoamFile
{
    version     2.0;
    format      ascii;
    class       volScalarField;
    location    "400";
    object      nut;
}
// * * * * * * * * * * * * * * * * * * * * * * * * * * * * * * * * * * * * * //

dimensions      [0 2 -1 0 0 0 0];

internalField   nonuniform List<scalar> 
11040
(
0.00332778
0.00390779
0.00419858
0.00424387
0.00406688
0.00380238
0.0035762
0.00338018
0.00317711
0.00294438
0.00265391
0.00237942
0.00216519
0.00199885
0.00182957
0.00164651
0.00143744
0.00107834
0.000776366
0.000632014
0.000546867
0.000466033
0.000403528
0.000440028
0.000540886
0.000545328
0.000497465
0.000432876
0.000415783
0.000414397
0.000421895
0.00043803
0.000463414
0.000496497
0.000531912
0.000556335
0.000539986
0.000457372
0.000441032
0.00052701
0.000891079
0.00771719
0.00824165
0.00749517
0.00672104
0.00599104
0.00536043
0.00528392
0.00531718
0.00528217
0.0051412
0.0049501
0.00480002
0.00469306
0.00457164
0.00439144
0.00418807
0.00398019
0.00373506
0.00347572
0.00326989
0.00297854
0.00256677
0.00215005
0.00192492
0.00169823
0.00148406
0.00131833
0.00116483
0.00105842
0.000979275
0.000936442
0.00093118
0.000968961
0.00105316
0.00118667
0.0013697
0.00158848
0.00182061
0.00211598
0.00273502
0.00433147
0.0157412
0.016541
0.0154619
0.0141348
0.0126552
0.0111909
0.0098777
0.0087511
0.00781728
0.00699347
0.00649183
0.00631735
0.00625834
0.00625276
0.00622187
0.0061483
0.00603379
0.00587935
0.00569637
0.00551792
0.00531685
0.00511456
0.00488957
0.00453812
0.00401401
0.003513
0.0031571
0.00283485
0.00260227
0.00241988
0.0023009
0.00226695
0.00233411
0.00251321
0.00280741
0.00321158
0.00370211
0.00424082
0.00484767
0.00594399
0.00888187
0.024921
0.0257875
0.024611
0.0228864
0.0208842
0.01882
0.0168211
0.0149362
0.0132069
0.0116127
0.0101138
0.00887989
0.00820842
0.00796439
0.0078577
0.00779771
0.00774192
0.00766574
0.00755987
0.00744019
0.00732683
0.00727204
0.00724861
0.00716524
0.00694222
0.00652667
0.00593268
0.00534881
0.00492867
0.00459586
0.00436307
0.0042691
0.0043461
0.00462007
0.00510124
0.00578093
0.00661246
0.00753356
0.00854164
0.010181
0.0143216
0.0349301
0.0357474
0.0345714
0.0326151
0.0302344
0.0276733
0.0250936
0.0225362
0.0201033
0.0178082
0.015546
0.013508
0.011914
0.0106986
0.0100618
0.00970009
0.00947807
0.00932933
0.00921428
0.00912109
0.00907134
0.00912605
0.00928486
0.00948204
0.00960404
0.00955151
0.00928426
0.00884249
0.00829964
0.00776879
0.00736763
0.00716655
0.00721865
0.007573
0.00825334
0.00925327
0.0104829
0.0118452
0.0132854
0.0154349
0.0204166
0.0453857
0.0461068
0.0449943
0.0429703
0.0403907
0.0374369
0.0343163
0.0311814
0.0281416
0.0252175
0.0222881
0.0195568
0.017245
0.0153329
0.0137315
0.0124955
0.0118161
0.0113517
0.0110081
0.0107658
0.0106493
0.0107143
0.0109769
0.0114091
0.0118894
0.0122615
0.0124179
0.0123411
0.0120779
0.0117095
0.0113484
0.0111336
0.0112034
0.0116448
0.012511
0.0138503
0.0155085
0.017344
0.019184
0.0217107
0.0270456
0.055974
0.0565617
0.0555456
0.0535866
0.0509529
0.0478384
0.0444498
0.0409399
0.037439
0.0339876
0.0304686
0.0270995
0.0241387
0.0216038
0.019319
0.0172604
0.0154696
0.0143321
0.0135048
0.0128538
0.0123991
0.012234
0.0123933
0.0128866
0.0136367
0.0144525
0.0151278
0.0155469
0.015706
0.0156729
0.0155657
0.0155574
0.0158673
0.0166809
0.0180569
0.0198849
0.0219639
0.0242709
0.0263943
0.0290859
0.0340872
0.0663442
0.0668115
0.0659151
0.0641118
0.0615856
0.0585327
0.055123
0.0514835
0.0477416
0.0439469
0.0399934
0.0361019
0.0325649
0.0294398
0.0265621
0.0238813
0.0213523
0.0190608
0.0174088
0.0160848
0.0149883
0.0142578
0.013966
0.0141424
0.0148189
0.0158823
0.0170754
0.0181257
0.0188883
0.0193648
0.0196562
0.0199553
0.0205523
0.0217632
0.0237936
0.0266138
0.0298719
0.0329415
0.0351512
0.0377072
0.041704
0.076256
0.0766069
0.07583
0.0742316
0.0719354
0.0691091
0.0658815
0.0623428
0.0586006
0.0546957
0.0505311
0.0463113
0.0423405
0.0387148
0.0353112
0.0320926
0.0290192
0.0260272
0.0233235
0.0211346
0.0192204
0.0176939
0.0166304
0.0160323
0.0160483
0.0167475
0.0180299
0.0196062
0.0211221
0.0223519
0.0232756
0.0240453
0.0249661
0.0264614
0.0289236
0.0324793
0.0368845
0.0415387
0.0454737
0.0478249
0.0505531
0.0854672
0.0857194
0.0850594
0.0836869
0.0816858
0.0791878
0.0762835
0.073027
0.0694977
0.0656978
0.0615551
0.0572407
0.0530432
0.0490898
0.0453188
0.0416845
0.0381689
0.0347236
0.0313392
0.0283056
0.0255874
0.0232766
0.0213843
0.0198071
0.0187238
0.018331
0.0187654
0.0200082
0.0218265
0.0238326
0.025674
0.027233
0.0286916
0.0304801
0.033145
0.0370689
0.0422142
0.0480992
0.0538839
0.0585305
0.0612346
0.0938183
0.093994
0.0934437
0.092295
0.0906065
0.0884781
0.085971
0.0830963
0.0799099
0.0764264
0.0725581
0.068424
0.0642672
0.0602143
0.0562313
0.0523315
0.048513
0.0447637
0.0410044
0.0373666
0.0340247
0.0311319
0.0286239
0.0262572
0.0241395
0.0224523
0.0214171
0.0212373
0.0220137
0.0236634
0.0259025
0.0283455
0.0307188
0.0330932
0.0359404
0.0398682
0.0451888
0.051697
0.0587013
0.0651972
0.0701849
0.101233
0.101353
0.100899
0.0999546
0.0985625
0.0967986
0.0947042
0.0922671
0.0895292
0.0864922
0.0830727
0.0793428
0.0754839
0.071598
0.0676643
0.0637153
0.0597699
0.0558348
0.0518847
0.0478865
0.0440753
0.0408252
0.0379865
0.0352071
0.0324951
0.02993
0.0276576
0.0258833
0.0248371
0.0247134
0.025598
0.0274133
0.0299288
0.0328834
0.0362031
0.0401485
0.0451851
0.0515806
0.0590345
0.0667048
0.0735204
0.107705
0.107781
0.107406
0.106636
0.105506
0.104073
0.102365
0.100363
0.0980977
0.0955623
0.0926825
0.0894945
0.0861076
0.0826029
0.0789687
0.0752436
0.0714342
0.0675524
0.0636011
0.0595554
0.0554302
0.0517781
0.0487329
0.0458304
0.0429666
0.0401129
0.037302
0.0346254
0.0322334
0.0303249
0.0291159
0.0287911
0.0294515
0.031088
0.033626
0.0370282
0.0414128
0.0470478
0.0540363
0.0619799
0.0700149
0.11327
0.113307
0.112993
0.11237
0.111462
0.110313
0.108944
0.107335
0.105509
0.103459
0.101123
0.0985012
0.0956808
0.0927037
0.0895519
0.0862472
0.0828036
0.0792397
0.0755437
0.0717089
0.0677151
0.0639962
0.0606654
0.0575451
0.0546443
0.0518244
0.0490089
0.0461804
0.0433701
0.0406567
0.0381669
0.0360681
0.0345452
0.033766
0.0338564
0.0348977
0.0369607
0.0401932
0.0448066
0.0509254
0.0583883
0.117977
0.117992
0.117733
0.117231
0.116508
0.115595
0.114508
0.113231
0.111785
0.110162
0.108303
0.106222
0.103967
0.101558
0.0989716
0.0962153
0.0932942
0.0902124
0.0869699
0.0835627
0.0799847
0.0765913
0.0734499
0.070326
0.0672586
0.0643371
0.0615998
0.0589338
0.0562679
0.05358
0.0508856
0.048236
0.0457193
0.043454
0.0415726
0.0402194
0.0395233
0.0396036
0.0406123
0.0427294
0.0462591
0.121944
0.121941
0.121724
0.121318
0.120751
0.120024
0.119162
0.118156
0.11702
0.11575
0.114301
0.112684
0.110928
0.109042
0.106997
0.104799
0.102457
0.0999563
0.0972912
0.0944548
0.0914386
0.0885472
0.0858448
0.0831095
0.0803464
0.0775792
0.0748439
0.072155
0.0695759
0.0671057
0.0646734
0.062239
0.0597902
0.0573435
0.0549347
0.0526371
0.0505424
0.0487313
0.0473051
0.0463778
0.0460948
0.12527
0.125254
0.12507
0.12474
0.124286
0.123709
0.123028
0.122238
0.121351
0.120364
0.119246
0.118004
0.116658
0.115205
0.113633
0.111941
0.110126
0.108182
0.106107
0.103885
0.101501
0.0991917
0.0970131
0.0947976
0.0925453
0.0902556
0.0879329
0.0855859
0.0832345
0.0808999
0.0785894
0.0763057
0.0740705
0.0718875
0.0697308
0.0675848
0.0654511
0.0633324
0.061261
0.059299
0.0573855
0.127921
0.1279
0.127746
0.127477
0.127108
0.126646
0.126101
0.12548
0.124776
0.123996
0.12312
0.122155
0.121115
0.119996
0.118789
0.117494
0.116108
0.114624
0.113035
0.111335
0.109513
0.107737
0.106053
0.104337
0.10259
0.100812
0.0990025
0.0971642
0.0952942
0.0933953
0.0914741
0.0895374
0.087595
0.0856546
0.0837128
0.0817719
0.0798328
0.0778779
0.0759066
0.074021
0.0720703
0.129961
0.129936
0.129805
0.129582
0.129278
0.128905
0.12846
0.127953
0.127384
0.126756
0.126061
0.125295
0.124473
0.123591
0.122646
0.121637
0.120561
0.119415
0.118193
0.116889
0.115497
0.114137
0.112846
0.111531
0.110196
0.108839
0.107461
0.106062
0.104639
0.103193
0.101726
0.100234
0.098719
0.097182
0.0956193
0.094036
0.0924379
0.090814
0.0891601
0.0874942
0.085746
0.131559
0.131533
0.131422
0.131234
0.130979
0.130667
0.130298
0.129878
0.129414
0.128899
0.128331
0.12771
0.127046
0.126342
0.125587
0.124784
0.123933
0.123031
0.122075
0.12106
0.119982
0.118931
0.117932
0.116919
0.115894
0.114856
0.113806
0.112743
0.111667
0.110576
0.109472
0.108352
0.107216
0.106065
0.104891
0.103695
0.10248
0.101238
0.0999666
0.0986695
0.0973046
0.132842
0.132818
0.132723
0.132563
0.132347
0.132082
0.131774
0.131421
0.131031
0.1306
0.130129
0.12962
0.129075
0.128499
0.127885
0.127236
0.126551
0.12583
0.125069
0.124266
0.123419
0.122593
0.121811
0.12102
0.120223
0.119421
0.118608
0.11779
0.116969
0.116141
0.115307
0.114465
0.113614
0.112756
0.111884
0.110999
0.110102
0.109185
0.108247
0.107289
0.106292
0.133892
0.133872
0.13379
0.133653
0.133467
0.13324
0.132975
0.132678
0.132346
0.131985
0.131589
0.131162
0.130707
0.130229
0.129725
0.129192
0.128633
0.128046
0.127431
0.126787
0.126111
0.125453
0.124831
0.124205
0.123574
0.122944
0.122309
0.121672
0.121033
0.120396
0.119757
0.119116
0.118471
0.117824
0.117171
0.116511
0.115845
0.115167
0.114478
0.113776
0.113055
0.134768
0.13475
0.13468
0.134561
0.1344
0.134202
0.133974
0.133717
0.133435
0.133125
0.13279
0.132428
0.132047
0.131645
0.131223
0.130782
0.130321
0.129839
0.129335
0.12881
0.128263
0.127732
0.127229
0.126727
0.126222
0.125721
0.125217
0.124714
0.124211
0.123711
0.123214
0.122719
0.122225
0.12173
0.121233
0.120733
0.120231
0.119724
0.11921
0.11869
0.118163
0.135507
0.135492
0.13543
0.135327
0.135186
0.135014
0.134815
0.134591
0.134346
0.134079
0.133791
0.133481
0.133155
0.132816
0.13246
0.132089
0.131704
0.131304
0.13089
0.130458
0.130011
0.129576
0.129166
0.128757
0.128351
0.127947
0.127542
0.12714
0.126739
0.126342
0.125948
0.125557
0.125172
0.124788
0.124404
0.124021
0.123638
0.123252
0.122864
0.122475
0.122085
0.136138
0.136125
0.136071
0.13598
0.135857
0.135706
0.135532
0.135336
0.135122
0.134891
0.134641
0.134375
0.134095
0.133804
0.133501
0.133188
0.132861
0.132525
0.132178
0.13182
0.131452
0.131093
0.130755
0.130418
0.130086
0.129755
0.129426
0.129101
0.128779
0.12846
0.128145
0.127834
0.127527
0.127224
0.126923
0.126626
0.126331
0.126035
0.125739
0.125442
0.125149
0.136681
0.13667
0.136623
0.136543
0.136435
0.136303
0.136149
0.135977
0.135789
0.135587
0.13537
0.135139
0.134898
0.134646
0.134385
0.134116
0.133839
0.133555
0.133262
0.132961
0.132654
0.132355
0.132075
0.131796
0.13152
0.131248
0.130978
0.130712
0.130449
0.130191
0.129936
0.129686
0.12944
0.129198
0.128958
0.128723
0.128491
0.128262
0.128033
0.127806
0.127583
0.137153
0.137143
0.137102
0.137033
0.136938
0.136821
0.136686
0.136535
0.136369
0.13619
0.136
0.135799
0.135588
0.13537
0.135146
0.134915
0.134677
0.134433
0.134185
0.133931
0.133672
0.13342
0.133184
0.132952
0.132722
0.132495
0.132272
0.132052
0.131836
0.131624
0.131417
0.131213
0.131014
0.130819
0.130627
0.130438
0.130253
0.130071
0.129891
0.129714
0.129542
0.137564
0.137557
0.137522
0.137462
0.137379
0.137276
0.137157
0.137022
0.136876
0.136718
0.136549
0.136372
0.136188
0.135999
0.135805
0.135604
0.135399
0.135191
0.134977
0.13476
0.134541
0.134329
0.134129
0.133932
0.133739
0.133548
0.133362
0.133179
0.133
0.132825
0.132654
0.132487
0.132325
0.132166
0.13201
0.131858
0.13171
0.131564
0.13142
0.13128
0.131145
0.137926
0.137921
0.137892
0.13784
0.137768
0.137677
0.137572
0.137452
0.137322
0.137182
0.137032
0.136876
0.136713
0.136547
0.136376
0.136201
0.136024
0.135844
0.135661
0.135476
0.135289
0.135108
0.134937
0.13477
0.134606
0.134445
0.134288
0.134135
0.133985
0.13384
0.133698
0.13356
0.133427
0.133296
0.13317
0.133046
0.132926
0.132808
0.132693
0.132581
0.132474
0.138245
0.138243
0.138221
0.138176
0.138113
0.138033
0.137939
0.137833
0.137717
0.137592
0.137459
0.13732
0.137176
0.137028
0.136878
0.136724
0.136569
0.136412
0.136255
0.136095
0.135935
0.13578
0.135634
0.13549
0.13535
0.135214
0.135081
0.134952
0.134826
0.134704
0.134586
0.134472
0.134361
0.134254
0.134149
0.134048
0.13395
0.133855
0.133762
0.133672
0.133587
0.138529
0.138531
0.138514
0.138476
0.138421
0.13835
0.138266
0.138171
0.138067
0.137956
0.137837
0.137713
0.137586
0.137455
0.137321
0.137186
0.13705
0.136912
0.136775
0.136637
0.1365
0.136366
0.136239
0.136116
0.135996
0.135879
0.135766
0.135656
0.13555
0.135447
0.135348
0.135253
0.13516
0.135071
0.134985
0.134902
0.134822
0.134744
0.134668
0.134595
0.134527
0.138782
0.138788
0.138776
0.138744
0.138696
0.138633
0.138558
0.138473
0.13838
0.13828
0.138175
0.138064
0.137951
0.137834
0.137716
0.137596
0.137476
0.137355
0.137235
0.137114
0.136995
0.136879
0.136769
0.136663
0.136559
0.136459
0.136362
0.136268
0.136178
0.136091
0.136008
0.135927
0.13585
0.135775
0.135704
0.135635
0.135569
0.135505
0.135443
0.135383
0.135329
0.13901
0.13902
0.139012
0.138985
0.138942
0.138885
0.138819
0.138743
0.138661
0.138572
0.138478
0.13838
0.138279
0.138176
0.138071
0.137965
0.137858
0.137752
0.137645
0.13754
0.137436
0.137334
0.137239
0.137146
0.137057
0.13697
0.136887
0.136806
0.136729
0.136655
0.136584
0.136516
0.136451
0.136388
0.136328
0.136271
0.136216
0.136163
0.136113
0.136064
0.136019
0.139214
0.139228
0.139223
0.1392
0.139162
0.139113
0.139055
0.138988
0.138916
0.138838
0.138754
0.138667
0.138578
0.138486
0.138393
0.138299
0.138204
0.13811
0.138017
0.137924
0.137833
0.137744
0.137661
0.13758
0.137502
0.137427
0.137354
0.137285
0.137219
0.137155
0.137094
0.137036
0.136981
0.136929
0.136878
0.13683
0.136784
0.136741
0.136699
0.136659
0.136622
0.1394
0.139417
0.139414
0.139394
0.139362
0.13932
0.13927
0.139214
0.139151
0.139083
0.13901
0.138934
0.138855
0.138773
0.138691
0.138607
0.138524
0.13844
0.138358
0.138276
0.138196
0.138118
0.138044
0.137973
0.137905
0.13784
0.137777
0.137717
0.137659
0.137605
0.137553
0.137503
0.137456
0.137411
0.137369
0.137328
0.13729
0.137253
0.137219
0.137186
0.137156
0.139568
0.139586
0.139584
0.139569
0.139543
0.139511
0.139471
0.139425
0.139373
0.139315
0.139253
0.139186
0.139117
0.139045
0.138972
0.138898
0.138824
0.13875
0.138677
0.138604
0.138534
0.138465
0.1384
0.138338
0.138278
0.13822
0.138165
0.138113
0.138063
0.138016
0.137971
0.137928
0.137888
0.13785
0.137814
0.137779
0.137747
0.137717
0.137688
0.13766
0.137636
0.13972
0.139738
0.139737
0.139727
0.139711
0.139689
0.139661
0.139626
0.139585
0.139539
0.139487
0.139431
0.139372
0.13931
0.139246
0.139181
0.139115
0.139049
0.138984
0.13892
0.138858
0.138797
0.13874
0.138684
0.138631
0.13858
0.138532
0.138486
0.138442
0.138401
0.138362
0.138325
0.13829
0.138258
0.138227
0.138198
0.138171
0.138146
0.138122
0.1381
0.138081
0.139854
0.139869
0.139872
0.13987
0.139864
0.139853
0.139837
0.139815
0.139787
0.139755
0.139717
0.139675
0.139629
0.13958
0.139528
0.139473
0.139417
0.139361
0.139305
0.139249
0.139195
0.139142
0.139092
0.139043
0.138996
0.138951
0.138909
0.138869
0.138832
0.138797
0.138764
0.138734
0.138706
0.138681
0.138657
0.138636
0.138617
0.1386
0.138585
0.138571
0.138561
0.13996
0.139972
0.139978
0.139981
0.139982
0.139979
0.139973
0.139964
0.139951
0.139936
0.139917
0.139895
0.139871
0.139844
0.139814
0.139783
0.13975
0.139715
0.139679
0.139642
0.139606
0.139569
0.139532
0.139497
0.139463
0.13943
0.139398
0.139369
0.139341
0.139316
0.139292
0.13927
0.139251
0.139233
0.139218
0.139204
0.139192
0.139181
0.139172
0.139165
0.139161
0.140018
0.140026
0.140032
0.140036
0.140039
0.14004
0.140039
0.140036
0.140031
0.140025
0.140018
0.140008
0.139997
0.139985
0.139972
0.139957
0.139941
0.139925
0.139908
0.13989
0.139873
0.139855
0.139837
0.139819
0.139801
0.139783
0.139766
0.13975
0.139734
0.13972
0.139706
0.139694
0.139683
0.139673
0.139664
0.139656
0.139649
0.139643
0.139638
0.139634
0.139632
0.140046
0.140054
0.14006
0.140065
0.140069
0.140072
0.140074
0.140076
0.140076
0.140075
0.140073
0.14007
0.140066
0.140061
0.140056
0.140049
0.140042
0.140035
0.140027
0.14002
0.140012
0.140004
0.139996
0.139988
0.13998
0.139972
0.139965
0.139957
0.13995
0.139944
0.139938
0.139932
0.139927
0.139922
0.139918
0.139914
0.139911
0.139909
0.139906
0.139905
0.139904
0.140061
0.140068
0.140074
0.14008
0.140085
0.14009
0.140094
0.140098
0.140101
0.140103
0.140105
0.140106
0.140107
0.140106
0.140106
0.140104
0.140102
0.1401
0.140097
0.140094
0.140091
0.140088
0.140085
0.140082
0.140078
0.140075
0.140072
0.140069
0.140066
0.140064
0.140061
0.140059
0.140057
0.140055
0.140054
0.140052
0.140051
0.140051
0.14005
0.14005
0.14005
0.140066
0.140073
0.140079
0.140085
0.140091
0.140097
0.140103
0.140108
0.140114
0.140119
0.140123
0.140127
0.140131
0.140134
0.140136
0.140138
0.140139
0.14014
0.140141
0.140142
0.140142
0.140142
0.140141
0.140141
0.14014
0.14014
0.140139
0.140138
0.140138
0.140137
0.140137
0.140136
0.140136
0.140136
0.140136
0.140136
0.140136
0.140136
0.140136
0.140137
0.140137
0.140065
0.140071
0.140077
0.140083
0.140089
0.140096
0.140103
0.14011
0.140117
0.140123
0.14013
0.140136
0.140142
0.140147
0.140152
0.140157
0.140161
0.140165
0.140168
0.140171
0.140173
0.140176
0.140178
0.140179
0.140181
0.140182
0.140183
0.140184
0.140185
0.140186
0.140186
0.140187
0.140188
0.140189
0.14019
0.14019
0.140191
0.140192
0.140193
0.140194
0.140195
0.140058
0.140063
0.140069
0.140074
0.140081
0.140088
0.140095
0.140103
0.14011
0.140118
0.140126
0.140134
0.140142
0.140149
0.140156
0.140163
0.140169
0.140175
0.14018
0.140185
0.140189
0.140194
0.140197
0.140201
0.140204
0.140207
0.140209
0.140212
0.140214
0.140216
0.140218
0.140219
0.140221
0.140223
0.140224
0.140226
0.140227
0.140228
0.14023
0.140231
0.140232
0.140047
0.140051
0.140055
0.14006
0.140066
0.140072
0.140079
0.140087
0.140095
0.140103
0.140112
0.14012
0.140129
0.140138
0.140146
0.140154
0.140162
0.14017
0.140177
0.140183
0.14019
0.140195
0.140201
0.140206
0.14021
0.140215
0.140218
0.140222
0.140225
0.140228
0.140231
0.140234
0.140236
0.140238
0.14024
0.140242
0.140244
0.140246
0.140247
0.140249
0.14025
0.140031
0.140034
0.140037
0.14004
0.140045
0.14005
0.140055
0.140061
0.140068
0.140075
0.140083
0.140091
0.140099
0.140108
0.140117
0.140125
0.140134
0.140143
0.140151
0.140159
0.140168
0.140175
0.140183
0.14019
0.140197
0.140203
0.14021
0.140215
0.140221
0.140226
0.14023
0.140235
0.140239
0.140242
0.140246
0.140249
0.140252
0.140255
0.140258
0.14026
0.140262
0.140011
0.140012
0.140013
0.140015
0.140017
0.140019
0.140021
0.140024
0.140027
0.140031
0.140035
0.140039
0.140044
0.140049
0.140055
0.140062
0.140065
0.140068
0.14007
0.140074
0.140077
0.140081
0.140085
0.14009
0.140094
0.140099
0.140103
0.140107
0.140112
0.140116
0.14012
0.140124
0.140127
0.140131
0.140134
0.140137
0.14014
0.140143
0.140145
0.140147
0.14015
0.00615006
0.00821907
0.00902394
0.0102459
0.0126592
0.0160509
0.0200024
0.0242579
0.0286595
0.0331165
0.0375745
0.0419965
0.0463549
0.0506287
0.0548032
0.0588687
0.0628184
0.0666481
0.0703551
0.073938
0.0773958
0.0807285
0.0839362
0.0870197
0.0899798
0.0928168
0.0955311
0.0981232
0.100595
0.102947
0.105184
0.107308
0.109321
0.111228
0.113031
0.114733
0.116338
0.11785
0.119273
0.12061
0.121865
0.123043
0.124147
0.125181
0.126149
0.127057
0.127908
0.128707
0.129458
0.130164
0.13083
0.131459
0.132052
0.132613
0.133143
0.133644
0.134118
0.134566
0.13499
0.135391
0.13577
0.136128
0.136468
0.136789
0.137094
0.137383
0.137657
0.137919
0.138169
0.138408
0.138637
0.138855
0.139044
0.139307
0.0130953
0.015927
0.015508
0.0142129
0.0140667
0.0158518
0.0190786
0.0230443
0.02734
0.0317673
0.0362311
0.0406749
0.0450645
0.0493752
0.05359
0.0576979
0.0616914
0.0655654
0.0693171
0.0729447
0.0764472
0.0798241
0.0830756
0.0862024
0.0892051
0.092084
0.0948392
0.0974711
0.099981
0.102371
0.104643
0.106801
0.108848
0.110786
0.112619
0.11435
0.115983
0.117521
0.118969
0.120329
0.121607
0.122806
0.123929
0.124981
0.125966
0.126889
0.127753
0.128564
0.129326
0.130042
0.130717
0.131354
0.131955
0.132522
0.133058
0.133565
0.134045
0.134498
0.134926
0.135331
0.135714
0.136077
0.13642
0.136745
0.137052
0.137344
0.137621
0.137885
0.138137
0.138378
0.138609
0.13883
0.13902
0.13929
0.0203501
0.0249439
0.0247666
0.0220949
0.0191678
0.0179225
0.0190949
0.0220786
0.0259856
0.0302615
0.0346849
0.0391318
0.0435479
0.047897
0.0521572
0.0563149
0.0603604
0.0642878
0.0680936
0.0717755
0.0753321
0.0787628
0.0820674
0.0852465
0.0883006
0.09123
0.0940343
0.096714
0.0992699
0.101704
0.104019
0.106218
0.108304
0.110279
0.112148
0.113912
0.115577
0.117146
0.118622
0.12001
0.121313
0.122536
0.123681
0.124754
0.125759
0.126699
0.127579
0.128404
0.129178
0.129906
0.130591
0.131237
0.131846
0.132422
0.132965
0.133479
0.133964
0.134423
0.134856
0.135266
0.135654
0.13602
0.136367
0.136695
0.137006
0.137301
0.137581
0.137847
0.138102
0.138345
0.138578
0.138801
0.138994
0.13927
0.0270782
0.0339058
0.0349739
0.0323938
0.0281015
0.0240086
0.0218707
0.0224074
0.0250397
0.0287823
0.0330007
0.037373
0.0417863
0.0461628
0.0504674
0.0546797
0.058785
0.0627749
0.0666451
0.0703923
0.0740143
0.07751
0.0808789
0.0841214
0.0872378
0.0902281
0.0930918
0.095829
0.0984404
0.100928
0.103294
0.105541
0.107673
0.109693
0.111604
0.113408
0.115111
0.116715
0.118224
0.119643
0.120976
0.122227
0.123399
0.124497
0.125523
0.126483
0.127382
0.128223
0.129012
0.129754
0.13045
0.131107
0.131726
0.13231
0.132861
0.133382
0.133874
0.13434
0.134779
0.135195
0.135587
0.135958
0.136309
0.136642
0.136956
0.137254
0.137537
0.137806
0.138063
0.138309
0.138544
0.13877
0.138965
0.139248
0.0333703
0.0425091
0.0452102
0.0436115
0.0393919
0.0340004
0.0290419
0.0260868
0.0258848
0.0279892
0.0314501
0.0355178
0.0398197
0.0441667
0.0484933
0.0527549
0.0569216
0.0609808
0.0649253
0.0687495
0.0724495
0.0760232
0.0794697
0.0827889
0.0859807
0.0890448
0.0919805
0.0947873
0.0974658
0.100017
0.102445
0.104751
0.106939
0.109011
0.110972
0.112824
0.114571
0.116217
0.117765
0.119221
0.120589
0.121872
0.123075
0.124201
0.125254
0.126238
0.127158
0.128019
0.128825
0.129581
0.130292
0.130961
0.131591
0.132185
0.132746
0.133275
0.133775
0.134247
0.134694
0.135115
0.135514
0.13589
0.136246
0.136583
0.136901
0.137203
0.13749
0.137762
0.138022
0.13827
0.138507
0.138736
0.138933
0.139224
0.0393227
0.0505797
0.0549562
0.0547931
0.051552
0.0463208
0.0402128
0.0345754
0.0308023
0.0296946
0.0310497
0.0340279
0.0378402
0.0419949
0.0462631
0.0505322
0.0547389
0.058862
0.0628856
0.0667962
0.0705862
0.0742517
0.0777908
0.0812022
0.084485
0.0876384
0.0906611
0.0935524
0.0963122
0.0989417
0.101443
0.10382
0.106075
0.108211
0.110232
0.112141
0.113941
0.115637
0.117232
0.118732
0.12014
0.121461
0.1227
0.12386
0.124944
0.125957
0.126902
0.127785
0.128612
0.129386
0.130113
0.130796
0.131439
0.132045
0.132616
0.133155
0.133664
0.134145
0.134599
0.135027
0.135432
0.135815
0.136176
0.136518
0.136841
0.137147
0.137437
0.137713
0.137976
0.138227
0.138467
0.138699
0.138898
0.139197
0.0449729
0.0577929
0.0637325
0.0652218
0.0634776
0.059346
0.0535829
0.0470614
0.040893
0.0362912
0.0341145
0.0344395
0.0366699
0.0400271
0.0439351
0.0480665
0.0522501
0.0564066
0.0604946
0.0644879
0.0683722
0.07214
0.0757857
0.0793055
0.0826966
0.085957
0.0890847
0.0920781
0.0949365
0.0976606
0.100252
0.102714
0.10505
0.107263
0.109357
0.111335
0.1132
0.114956
0.116608
0.118159
0.119616
0.120982
0.122264
0.123464
0.124585
0.125631
0.126607
0.127517
0.128368
0.129163
0.129909
0.130609
0.131267
0.131887
0.13247
0.133021
0.13354
0.13403
0.134493
0.13493
0.135342
0.135731
0.136098
0.136446
0.136774
0.137085
0.13738
0.13766
0.137926
0.13818
0.138423
0.138659
0.13886
0.139166
0.0501569
0.0636975
0.0710165
0.0742025
0.0742223
0.0717476
0.0672992
0.0614098
0.0547559
0.0482286
0.0428558
0.0395068
0.0385336
0.0396644
0.0422716
0.0457339
0.0496136
0.0536605
0.057743
0.0617895
0.0657602
0.0696328
0.073394
0.0770354
0.0805512
0.0839373
0.0871899
0.0903062
0.0932841
0.0961232
0.0988247
0.101391
0.103826
0.106133
0.108315
0.110375
0.112319
0.114148
0.115868
0.117483
0.118999
0.12042
0.121752
0.122999
0.124164
0.125251
0.126263
0.127206
0.128086
0.128907
0.129675
0.130396
0.131072
0.131707
0.132306
0.132869
0.133401
0.133902
0.134374
0.13482
0.135241
0.135638
0.136012
0.136366
0.136701
0.137017
0.137317
0.137601
0.137871
0.138129
0.138375
0.138614
0.138819
0.139132
0.0561428
0.0678849
0.0762388
0.0810075
0.0828389
0.0823133
0.079759
0.0754709
0.0698307
0.0633505
0.0567131
0.050747
0.0462699
0.0438281
0.0435039
0.0449529
0.0476332
0.0510423
0.0548252
0.0587661
0.0627417
0.0666825
0.0705486
0.0743159
0.0779693
0.0814991
0.0848981
0.0881606
0.0912828
0.0942623
0.0970987
0.0997935
0.10235
0.104771
0.10706
0.109223
0.111262
0.113181
0.114985
0.116678
0.118265
0.119752
0.121145
0.12245
0.123668
0.124804
0.12586
0.126843
0.127757
0.12861
0.129405
0.13015
0.130847
0.131502
0.132118
0.132697
0.133242
0.133756
0.134241
0.134697
0.135128
0.135533
0.135916
0.136278
0.136619
0.136942
0.137247
0.137536
0.137811
0.138073
0.138323
0.138566
0.138773
0.139095
0.0637224
0.0705126
0.0790244
0.0849987
0.0883958
0.0898524
0.089469
0.0873222
0.0836179
0.0786191
0.0726768
0.0662753
0.0600439
0.0546871
0.0508283
0.0488304
0.048697
0.0501271
0.0526794
0.0559339
0.0595736
0.0633908
0.0672593
0.0711036
0.0748783
0.078555
0.0821152
0.0855462
0.0888392
0.0919881
0.0949899
0.0978437
0.100551
0.103114
0.105538
0.107825
0.109982
0.112011
0.113918
0.115706
0.117382
0.118951
0.120419
0.121793
0.123076
0.124272
0.125382
0.126413
0.127371
0.128261
0.12909
0.129864
0.130588
0.131266
0.131902
0.1325
0.133062
0.133591
0.134089
0.134558
0.135
0.135416
0.135809
0.136179
0.136528
0.136858
0.137169
0.137464
0.137744
0.138011
0.138265
0.138512
0.138723
0.139053
0.073644
0.0768595
0.0802396
0.0863314
0.0903161
0.0933773
0.0950848
0.0951912
0.093863
0.0911789
0.0872405
0.0822433
0.0765096
0.070487
0.0647244
0.059803
0.0562225
0.0542784
0.0539965
0.0551633
0.0574318
0.0604399
0.0638877
0.0675609
0.071319
0.0750733
0.0787678
0.0823666
0.085846
0.0891901
0.092389
0.095437
0.0983318
0.101074
0.103666
0.106111
0.108414
0.110581
0.112615
0.114523
0.116308
0.117979
0.119541
0.121001
0.122363
0.123631
0.124808
0.125899
0.126911
0.127848
0.128719
0.129529
0.130285
0.130991
0.131652
0.132273
0.132855
0.133402
0.133916
0.1344
0.134855
0.135284
0.135687
0.136068
0.136426
0.136764
0.137083
0.137385
0.137671
0.137943
0.138202
0.138453
0.138667
0.139006
0.0784644
0.0821253
0.0852692
0.0879945
0.0895587
0.0930871
0.096045
0.097775
0.0986919
0.0985893
0.0972844
0.0947528
0.0911135
0.0865519
0.0813344
0.0758295
0.0704956
0.0658261
0.0622614
0.0600972
0.0594253
0.060135
0.0619732
0.0646319
0.0678228
0.0713168
0.0749503
0.0786134
0.082234
0.0857648
0.0891754
0.0924462
0.0955657
0.0985281
0.101332
0.103977
0.106468
0.108809
0.111005
0.113063
0.114987
0.116785
0.118464
0.120031
0.121492
0.122851
0.124111
0.125277
0.126355
0.127352
0.128275
0.129131
0.129927
0.130668
0.13136
0.132008
0.132614
0.133183
0.133717
0.134219
0.13469
0.135133
0.13555
0.135942
0.136311
0.136658
0.136986
0.137296
0.137589
0.137867
0.138132
0.138389
0.138607
0.138955
0.0761193
0.0805477
0.0845185
0.0879174
0.0906165
0.0930402
0.094806
0.0957941
0.0977435
0.0996235
0.100657
0.100685
0.0998068
0.09795
0.0950817
0.0912917
0.0867938
0.0818987
0.0769915
0.0724973
0.0688245
0.0662936
0.065077
0.065175
0.0664377
0.0686231
0.0714636
0.0747172
0.0781923
0.0817501
0.0852956
0.0887656
0.0921195
0.0953321
0.098389
0.101283
0.104012
0.106577
0.108982
0.111233
0.113335
0.115297
0.117125
0.118828
0.120413
0.121886
0.123251
0.124512
0.125675
0.126747
0.127737
0.128651
0.129498
0.130283
0.131014
0.131696
0.132332
0.132928
0.133486
0.134009
0.1345
0.13496
0.135393
0.135799
0.13618
0.13654
0.136878
0.137197
0.137498
0.137784
0.138054
0.138317
0.13854
0.138898
0.0646971
0.0698463
0.074799
0.0794642
0.0837321
0.0875781
0.090893
0.0935862
0.0958389
0.0975131
0.098491
0.0992384
0.100543
0.101427
0.101422
0.100439
0.0985369
0.0957671
0.0922323
0.0881341
0.0837749
0.0795253
0.075773
0.0728648
0.0710497
0.0704385
0.0709964
0.0725693
0.0749337
0.0778501
0.0811032
0.0845211
0.0879784
0.091389
0.0946967
0.0978665
0.100878
0.103721
0.106393
0.108894
0.111229
0.113404
0.115428
0.117308
0.119054
0.120674
0.122172
0.123555
0.124828
0.125998
0.127074
0.128063
0.128975
0.129818
0.130599
0.131323
0.131998
0.132627
0.133215
0.133764
0.134279
0.13476
0.135211
0.135635
0.136032
0.136404
0.136755
0.137085
0.137396
0.13769
0.137968
0.138238
0.138466
0.138834
0.0495429
0.0527379
0.0564205
0.0606304
0.0653368
0.0704507
0.0757999
0.0811245
0.0861373
0.0905304
0.0940365
0.0965809
0.0984089
0.0995984
0.100133
0.100611
0.101253
0.101463
0.100844
0.0993039
0.0969187
0.0938335
0.0902594
0.0864839
0.0828501
0.0797111
0.0773741
0.0760511
0.0758275
0.0766603
0.0784027
0.0808483
0.0837766
0.0869882
0.0903228
0.0936629
0.0969283
0.100068
0.103051
0.105862
0.108495
0.11095
0.113232
0.115348
0.117308
0.11912
0.120794
0.122336
0.123752
0.125051
0.126241
0.12733
0.128329
0.129246
0.130091
0.130872
0.131596
0.132267
0.132892
0.133475
0.134018
0.134526
0.135001
0.135445
0.13586
0.13625
0.136615
0.136958
0.13728
0.137585
0.137872
0.13815
0.138385
0.138764
0.0465724
0.0473908
0.0485285
0.0500151
0.051913
0.0542975
0.0572485
0.0608343
0.0650858
0.0699602
0.0753005
0.0808246
0.0861738
0.0909552
0.0948154
0.0976553
0.0995952
0.100716
0.10102
0.101156
0.101307
0.101046
0.100053
0.0982607
0.0957754
0.0928041
0.0896234
0.0865563
0.0839315
0.0820334
0.0810576
0.0810839
0.0820744
0.0838957
0.0863576
0.0892539
0.0923957
0.0956294
0.0988419
0.101957
0.104926
0.107723
0.110336
0.112764
0.115011
0.117085
0.118994
0.120749
0.122358
0.123829
0.125171