/*--------------------------------*- C++ -*----------------------------------*\
| =========                 |                                                 |
| \\      /  F ield         | OpenFOAM: The Open Source CFD Toolbox           |
|  \\    /   O peration     | Version:  5.x                                   |
|   \\  /    A nd           | Web:      www.OpenFOAM.org                      |
|    \\/     M anipulation  |                                                 |
\*---------------------------------------------------------------------------*/
FoamFile
{
    version     2.0;
    format      ascii;
    class       volScalarField;
    location    "400";
    object      nut;
}
// * * * * * * * * * * * * * * * * * * * * * * * * * * * * * * * * * * * * * //

dimensions      [0 2 -1 0 0 0 0];

internalField   nonuniform List<scalar> 
11040
(
0.00235942
0.00283637
0.00306828
0.00311715
0.00302664
0.00287125
0.00270049
0.00256098
0.00243999
0.00230979
0.00213603
0.00196187
0.00182898
0.00173446
0.00164468
0.0015558
0.00146788
0.00138362
0.00130284
0.00122396
0.00114527
0.00107501
0.00101206
0.00094909
0.000885135
0.000819136
0.000747802
0.000646258
0.00047254
0.000412079
0.000365447
0.000331533
0.000304804
0.00027653
0.000250666
0.000233336
0.000244513
0.000294163
0.000348282
0.000388079
0.000565028
0.00622303
0.00666405
0.00607896
0.00547977
0.00488151
0.0043655
0.00392143
0.00382495
0.00382589
0.00378959
0.00369196
0.00354546
0.00342487
0.00330597
0.00316224
0.0030144
0.00287706
0.00275357
0.00264249
0.00254153
0.00244919
0.00237211
0.00230509
0.00224217
0.00218305
0.00212647
0.00206957
0.00199896
0.0018862
0.00180185
0.00173941
0.00171122
0.00162447
0.00152329
0.0013865
0.00126892
0.00122899
0.00132424
0.00151085
0.0018274
0.00245539
0.0128109
0.0134937
0.0126674
0.0116317
0.0104874
0.00935363
0.00830968
0.00738145
0.00658519
0.00589764
0.00526244
0.00474401
0.0046308
0.00459084
0.00452769
0.00445437
0.00437349
0.0042903
0.00421034
0.00413617
0.00406775
0.00401271
0.00396317
0.0039132
0.00386279
0.00381199
0.00375992
0.00370293
0.00363409
0.00356972
0.00351111
0.00346446
0.00340711
0.00334632
0.00323895
0.00306513
0.00301823
0.00323929
0.00353255
0.00387424
0.00470457
0.0204955
0.0212625
0.0203587
0.0189957
0.0174076
0.015774
0.0141982
0.0127085
0.0113304
0.0100564
0.00881513
0.00773373
0.00693694
0.006343
0.00604903
0.00592146
0.00582932
0.00575835
0.0057026
0.00565732
0.00561938
0.00559287
0.00556981
0.00554481
0.00551651
0.00548453
0.00544823
0.00540637
0.00535716
0.00530476
0.00525182
0.00520438
0.00516346
0.00513825
0.00510346
0.00500414
0.0049599
0.00521376
0.00567845
0.00637704
0.00720911
0.0290437
0.0298097
0.0289083
0.0273403
0.0254187
0.0233444
0.0212547
0.0191822
0.0172181
0.0153743
0.0135629
0.0119416
0.010648
0.00962847
0.00877655
0.00807099
0.00763878
0.00743153
0.00731015
0.00723229
0.00718376
0.00715958
0.00714576
0.00713408
0.00712164
0.00710687
0.0070881
0.00706369
0.00703226
0.00699456
0.00695297
0.00691383
0.00688635
0.00688657
0.0069113
0.00690437
0.00690731
0.00718091
0.00782973
0.00891795
0.00999874
0.0381961
0.0389206
0.0380703
0.0364205
0.0342946
0.0318439
0.0292533
0.0266618
0.0241642
0.0217769
0.0194003
0.0172108
0.0153893
0.0139249
0.0126701
0.0115796
0.0106677
0.00988255
0.00942038
0.00915881
0.00900178
0.00890997
0.00885139
0.0088084
0.00877731
0.00875391
0.0087339
0.00871364
0.00869028
0.00866255
0.00863141
0.00860213
0.00858548
0.00860084
0.00866372
0.00874181
0.00882584
0.00911181
0.0098376
0.0111424
0.0131713
0.0477303
0.0483749
0.0476006
0.0459715
0.0437462
0.0411005
0.0382305
0.0352753
0.0323492
0.0294844
0.0265824
0.0238354
0.0214677
0.0194976
0.0177738
0.0162501
0.0149052
0.0137069
0.0126707
0.0118682
0.0114186
0.0111402
0.0109408
0.0107922
0.010684
0.0106003
0.010533
0.0104765
0.0104266
0.0103804
0.0103375
0.0103013
0.0102808
0.0102939
0.010365
0.010494
0.0106615
0.0109681
0.011664
0.0129507
0.0152301
0.0573715
0.0579384
0.0572562
0.0557217
0.0535288
0.0508692
0.0479136
0.0447815
0.0415907
0.0383823
0.0350658
0.0318384
0.0289581
0.0264763
0.0242558
0.0222579
0.0204596
0.0188356
0.0173627
0.0160368
0.0149038
0.0141694
0.0137118
0.0133844
0.0131319
0.0129255
0.0127498
0.012596
0.0124585
0.0123347
0.0122243
0.0121304
0.0120609
0.0120303
0.0120625
0.0121793
0.0123805
0.0127019
0.0133131
0.0144145
0.0164466
0.0669132
0.0673922
0.0667991
0.0654042
0.0633529
0.0608203
0.057944
0.0548183
0.0515475
0.0481689
0.0446015
0.0410327
0.0377353
0.0347942
0.0321055
0.0296425
0.0273885
0.0253236
0.0234259
0.021675
0.0200576
0.0187399
0.0177912
0.0171086
0.0165964
0.0161797
0.0158173
0.0154887
0.0151838
0.0148987
0.0146337
0.0143931
0.0141859
0.0140261
0.0139344
0.0139392
0.0140634
0.014328
0.0148171
0.0156592
0.0171829
0.0761122
0.0765068
0.0759994
0.074769
0.0729266
0.0706184
0.0679489
0.0649842
0.0618061
0.0584215
0.0547779
0.05104
0.047473
0.0441925
0.0411481
0.0382974
0.0356359
0.0331585
0.0308506
0.0286956
0.0266751
0.0249641
0.0235758
0.0224331
0.0215318
0.0207975
0.0201647
0.0195914
0.0190536
0.0185393
0.0180448
0.0175726
0.0171316
0.0167361
0.0164059
0.0161701
0.0160629
0.0161151
0.016376
0.0169078
0.0178751
0.0847693
0.0850892
0.0846615
0.0836031
0.0819998
0.0799694
0.0775879
0.0748798
0.071912
0.0687096
0.0652041
0.0615203
0.0578913
0.0544371
0.0511297
0.0479841
0.0450066
0.042207
0.0395541
0.0370391
0.034653
0.0326149
0.0309084
0.0293716
0.0280678
0.0269744
0.0260274
0.0251726
0.024373
0.0236055
0.0228573
0.022124
0.0214088
0.020722
0.0200785
0.0195054
0.019038
0.0187121
0.0185753
0.0186724
0.019049
0.0927389
0.0929951
0.0926375
0.0917437
0.0903817
0.0886451
0.0865887
0.0842122
0.0815737
0.0786847
0.0754809
0.072048
0.0685712
0.0651545
0.0617852
0.058498
0.0553181
0.0522632
0.0493383
0.0465411
0.0438687
0.0415599
0.0395923
0.0377492
0.0360579
0.0346032
0.0333438
0.0322164
0.0311712
0.030174
0.0292024
0.0282431
0.027291
0.0263469
0.0254159
0.0245164
0.0236764
0.0229231
0.0223001
0.0218572
0.0215622
0.0999342
0.100133
0.0998315
0.0990854
0.0979489
0.0964954
0.0947648
0.0927467
0.0904873
0.08799
0.0851951
0.0821549
0.0789911
0.075796
0.0725705
0.0693601
0.0661787
0.0630495
0.0599905
0.0570135
0.0541242
0.0515987
0.0494346
0.047393
0.0454579
0.0436354
0.0419755
0.0405287
0.0392429
0.0380539
0.0369169
0.0358034
0.0346993
0.0335929
0.0324777
0.0313613
0.0302598
0.0291842
0.0281616
0.0272403
0.0263135
0.106317
0.106457
0.106199
0.105581
0.104646
0.10345
0.102022
0.100349
0.098469
0.0963803
0.0940312
0.0914355
0.0887
0.0858793
0.0829698
0.0800037
0.0770076
0.0740143
0.0710249
0.0680537
0.0651132
0.062499
0.0602299
0.0580737
0.0560151
0.0540411
0.0521472
0.050343
0.0486726
0.0471927
0.0458577
0.0446049
0.0433933
0.0421967
0.0409951
0.039784
0.0385665
0.0373378
0.0361059
0.0349069
0.0335774
0.111864
0.111964
0.111747
0.11124
0.110481
0.109508
0.108344
0.106981
0.105447
0.10374
0.101807
0.0996747
0.0974061
0.0950329
0.0925457
0.0899637
0.0873058
0.0845906
0.0818344
0.0790506
0.0762589
0.0737308
0.0714913
0.0693372
0.0672632
0.0652688
0.0633373
0.0614592
0.0596328
0.0578683
0.0561823
0.054637
0.0532423
0.0519409
0.0506793
0.0494324
0.0481886
0.0469295
0.045649
0.0443672
0.0429088
0.116647
0.116714
0.116528
0.116112
0.115507
0.114716
0.113773
0.112673
0.111437
0.110065
0.108515
0.106804
0.104977
0.103049
0.101
0.0988496
0.096619
0.0943062
0.0919198
0.0894694
0.0869651
0.0846595
0.0825898
0.0805775
0.0786206
0.0767168
0.074862
0.0730506
0.0712761
0.0695325
0.0678161
0.0661379
0.0645038
0.0629228
0.0614378
0.0600727
0.0587866
0.0575274
0.0562673
0.0550083
0.0535943
0.120736
0.120777
0.120616
0.120275
0.119782
0.119144
0.118386
0.117506
0.11652
0.115429
0.114201
0.112851
0.111408
0.109873
0.10824
0.106517
0.104711
0.102823
0.100867
0.0988356
0.0967316
0.0947622
0.0929675
0.0912047
0.0894747
0.0877764
0.0861086
0.0844696
0.0828564
0.0812653
0.079692
0.0781325
0.076584
0.0750443
0.0735123
0.0720007
0.07052
0.069069
0.067692
0.0664092
0.065051
0.12405
0.124076
0.123939
0.123657
0.123253
0.122735
0.12212
0.121416
0.12062
0.119741
0.118759
0.117685
0.116541
0.115324
0.114032
0.112668
0.111234
0.10973
0.108159
0.10652
0.104814
0.1032
0.101713
0.100242
0.0987881
0.0973527
0.095935
0.0945392
0.093159
0.091792
0.090436
0.0890885
0.0877468
0.086407
0.0850605
0.0837077
0.0823518
0.0809841
0.0796097
0.0782442
0.0768201
0.126634
0.126649
0.126532
0.126297
0.125962
0.12554
0.125031
0.12445
0.123797
0.123079
0.122287
0.121419
0.120495
0.119515
0.118477
0.117385
0.116238
0.115037
0.113781
0.112469
0.111101
0.109797
0.108588
0.107386
0.106196
0.105016
0.103847
0.10269
0.101542
0.100404
0.0992781
0.098158
0.0970418
0.0959271
0.0948069
0.093681
0.0925502
0.0914041
0.0902394
0.089059
0.0878188
0.12868
0.128689
0.12859
0.128391
0.128107
0.127751
0.127325
0.126839
0.126301
0.125704
0.12505
0.124336
0.123579
0.122784
0.121939
0.121051
0.120122
0.119151
0.118139
0.117083
0.115983
0.114931
0.113951
0.112977
0.112011
0.111053
0.110103
0.109161
0.108226
0.107298
0.106376
0.10546
0.104548
0.103642
0.102732
0.10182
0.100905
0.0999795
0.099041
0.09809
0.0970999
0.130337
0.130343
0.130258
0.130088
0.129845
0.129541
0.129183
0.128771
0.128314
0.127812
0.127263
0.126672
0.126044
0.125384
0.124687
0.123957
0.123196
0.122403
0.121579
0.120721
0.119832
0.118978
0.118181
0.11739
0.116606
0.11583
0.115056
0.114289
0.113534
0.112785
0.112042
0.111304
0.110571
0.109843
0.109114
0.108384
0.107655
0.106919
0.106175
0.105424
0.104652
0.131703
0.131709
0.131636
0.131488
0.131278
0.131015
0.130706
0.130356
0.129965
0.12954
0.129074
0.128575
0.128045
0.127492
0.126914
0.126307
0.125676
0.125022
0.124344
0.123642
0.122916
0.122218
0.121566
0.12092
0.120277
0.119645
0.119016
0.118393
0.117778
0.117173
0.116575
0.115983
0.115396
0.114815
0.114235
0.113657
0.11308
0.1125
0.111915
0.111328
0.110731
0.132848
0.132853
0.132789
0.13266
0.132477
0.132247
0.131978
0.131674
0.13134
0.130973
0.130576
0.130149
0.129701
0.129232
0.128743
0.128236
0.127711
0.127166
0.126602
0.126022
0.125424
0.124849
0.124312
0.123781
0.123254
0.122736
0.122222
0.121713
0.121212
0.120719
0.120236
0.119761
0.119292
0.118828
0.118366
0.117907
0.117451
0.116994
0.116536
0.116077
0.115616
0.133819
0.133823
0.133766
0.133653
0.133492
0.13329
0.133054
0.132788
0.132496
0.132177
0.131834
0.131466
0.131082
0.130683
0.130267
0.129837
0.129393
0.128937
0.128469
0.127985
0.127489
0.127012
0.126566
0.126126
0.125693
0.125267
0.124845
0.124428
0.124018
0.123616
0.123221
0.122834
0.122456
0.122085
0.121716
0.121352
0.120991
0.120631
0.120272
0.119916
0.119561
0.13465
0.134653
0.134603
0.134503
0.13436
0.134182
0.133974
0.133739
0.133483
0.133206
0.132907
0.13259
0.132257
0.131913
0.131557
0.131191
0.130813
0.130425
0.130029
0.129624
0.129212
0.128813
0.12844
0.128073
0.127712
0.127357
0.127008
0.126665
0.126328
0.125999
0.125676
0.12536
0.125052
0.12475
0.124454
0.124165
0.12388
0.123597
0.123315
0.123036
0.122762
0.135367
0.13537
0.135325
0.135236
0.13511
0.134952
0.134767
0.13456
0.134333
0.134089
0.133829
0.133551
0.133264
0.132964
0.132656
0.13234
0.132017
0.131689
0.131351
0.131008
0.13066
0.130326
0.130014
0.129705
0.129403
0.129107
0.128816
0.128531
0.128252
0.12798
0.127715
0.127456
0.127204
0.126958
0.126718
0.126483
0.126254
0.12603
0.125809
0.125591
0.125378
0.13599
0.135993
0.135953
0.135875
0.135762
0.135622
0.135457
0.135273
0.135071
0.134855
0.134625
0.134383
0.134131
0.133871
0.133605
0.133333
0.133053
0.13277
0.132482
0.132191
0.131896
0.131612
0.131346
0.131087
0.130833
0.130583
0.130339
0.130101
0.129869
0.129644
0.129424
0.129211
0.129003
0.128802
0.128606
0.128415
0.12823
0.128048
0.127871
0.127698
0.127532
0.136536
0.136539
0.136504
0.136434
0.136333
0.136208
0.136061
0.135897
0.135717
0.135525
0.135321
0.135107
0.134886
0.134659
0.134427
0.13419
0.133948
0.133704
0.133456
0.133206
0.132955
0.132714
0.132488
0.132267
0.132051
0.131839
0.131634
0.131434
0.131239
0.131051
0.130868
0.130691
0.13052
0.130354
0.130193
0.130037
0.129886
0.129739
0.129596
0.129457
0.129325
0.137016
0.137019
0.136989
0.136926
0.136836
0.136724
0.136593
0.136446
0.136285
0.136114
0.135932
0.135742
0.135546
0.135345
0.135141
0.134934
0.134725
0.134513
0.134299
0.134085
0.133869
0.133662
0.133467
0.133278
0.133094
0.132914
0.13274
0.132571
0.132407
0.132249
0.132097
0.131949
0.131807
0.13167
0.131537
0.131409
0.131286
0.131166
0.131049
0.130937
0.130831
0.137441
0.137445
0.137418
0.137362
0.137282
0.137181
0.137063
0.136931
0.136788
0.136634
0.136472
0.136303
0.136128
0.135951
0.13577
0.135587
0.135403
0.135219
0.135034
0.134848
0.134663
0.134484
0.134316
0.134154
0.133995
0.133842
0.133693
0.13355
0.133411
0.133278
0.133149
0.133026
0.132907
0.132793
0.132683
0.132578
0.132476
0.132378
0.132283
0.132192
0.132107
0.137818
0.137823
0.137799
0.137749
0.137677
0.137587
0.137481
0.137363
0.137234
0.137097
0.136952
0.136801
0.136646
0.136487
0.136327
0.136165
0.136003
0.135841
0.135679
0.135518
0.135359
0.135204
0.135058
0.134917
0.134781
0.134649
0.134522
0.134399
0.134281
0.134168
0.13406
0.133956
0.133856
0.133761
0.133669
0.133581
0.133498
0.133417
0.133339
0.133265
0.133196
0.138155
0.13816
0.138139
0.138095
0.13803
0.137949
0.137854
0.137748
0.137633
0.13751
0.13738
0.137245
0.137107
0.136966
0.136824
0.13668
0.136537
0.136394
0.136251
0.13611
0.135971
0.135836
0.13571
0.135588
0.13547
0.135356
0.135246
0.135141
0.135041
0.134944
0.134852
0.134764
0.13468
0.1346
0.134524
0.134451
0.134381
0.134314
0.134251
0.13419
0.134134
0.138456
0.138462
0.138444
0.138404
0.138346
0.138274
0.138189
0.138094
0.137991
0.137881
0.137765
0.137645
0.137522
0.137396
0.137269
0.137142
0.137015
0.136888
0.136763
0.136639
0.136518
0.1364
0.136289
0.136183
0.13608
0.135981
0.135887
0.135796
0.13571
0.135627
0.135549
0.135474
0.135403
0.135336
0.135271
0.13521
0.135152
0.135097
0.135044
0.134994
0.134949
0.138726
0.138732
0.138717
0.138682
0.13863
0.138566
0.138491
0.138406
0.138315
0.138217
0.138114
0.138006
0.137896
0.137785
0.137672
0.137559
0.137446
0.137334
0.137223
0.137114
0.137008
0.136905
0.136808
0.136715
0.136625
0.13654
0.136458
0.136379
0.136305
0.136234
0.136167
0.136103
0.136043
0.135986
0.135932
0.13588
0.135832
0.135786
0.135742
0.135701
0.135664
0.138968
0.138976
0.138962
0.138931
0.138886
0.13883
0.138764
0.13869
0.138609
0.138523
0.138431
0.138336
0.138238
0.138139
0.138039
0.137938
0.137838
0.137739
0.137641
0.137545
0.137452
0.137361
0.137276
0.137195
0.137116
0.137042
0.13697
0.136903
0.136838
0.136777
0.13672
0.136665
0.136614
0.136565
0.136519
0.136476
0.136436
0.136397
0.136361
0.136327
0.136297
0.139187
0.139194
0.139183
0.139157
0.139119
0.139071
0.139014
0.13895
0.13888
0.138804
0.138723
0.138639
0.138552
0.138464
0.138375
0.138286
0.138198
0.13811
0.138023
0.137939
0.137857
0.137777
0.137702
0.137631
0.137562
0.137497
0.137435
0.137376
0.13732
0.137268
0.137218
0.137171
0.137127
0.137086
0.137047
0.137011
0.136977
0.136945
0.136914
0.136886
0.136862
0.139383
0.139391
0.139383
0.139362
0.139331
0.139292
0.139245
0.13919
0.13913
0.139064
0.138994
0.13892
0.138844
0.138767
0.138688
0.138609
0.138531
0.138453
0.138377
0.138303
0.13823
0.138161
0.138095
0.138032
0.137972
0.137915
0.137861
0.13781
0.137761
0.137716
0.137673
0.137633
0.137595
0.13756
0.137527
0.137496
0.137467
0.13744
0.137415
0.137392
0.137372
0.139561
0.139569
0.139563
0.139549
0.139526
0.139496
0.139459
0.139414
0.139364
0.139309
0.139249
0.139186
0.13912
0.139053
0.138984
0.138915
0.138846
0.138778
0.138711
0.138645
0.138582
0.138521
0.138463
0.138408
0.138355
0.138305
0.138258
0.138213
0.138171
0.138132
0.138095
0.13806
0.138028
0.137998
0.13797
0.137944
0.137919
0.137897
0.137876
0.137857
0.137841
0.139719
0.139727
0.139725
0.139718
0.139704
0.139684
0.139657
0.139624
0.139585
0.139542
0.139494
0.139442
0.139388
0.139332
0.139274
0.139215
0.139156
0.139097
0.139039
0.138982
0.138927
0.138874
0.138823
0.138775
0.138729
0.138685
0.138644
0.138605
0.138569
0.138535
0.138503
0.138474
0.138447
0.138422
0.1384
0.138379
0.138361
0.138344
0.138329
0.138316
0.138306
0.139855
0.139863
0.139866
0.139865
0.139859
0.139848
0.139832
0.139811
0.139787
0.139758
0.139725
0.13969
0.139651
0.13961
0.139567
0.139523
0.139478
0.139433
0.139388
0.139344
0.139302
0.13926
0.139221
0.139183
0.139147
0.139112
0.13908
0.13905
0.139022
0.138997
0.138975
0.138954
0.138936
0.13892
0.138907
0.138896
0.138886
0.138879
0.138873
0.138869
0.138868
0.139953
0.139959
0.139962
0.139963
0.139961
0.139956
0.139949
0.139939
0.139928
0.139914
0.139898
0.139881
0.139861
0.139841
0.139819
0.139796
0.139772
0.139748
0.139723
0.139699
0.139676
0.139653
0.13963
0.139608
0.139587
0.139566
0.139547
0.139528
0.139512
0.139497
0.139483
0.139471
0.139461
0.139452
0.139444
0.139438
0.139432
0.139429
0.139426
0.139424
0.139424
0.14
0.140005
0.140008
0.14001
0.14001
0.140008
0.140006
0.140002
0.139997
0.139991
0.139985
0.139977
0.139968
0.139958
0.139948
0.139937
0.139926
0.139914
0.139903
0.139891
0.13988
0.139868
0.139857
0.139847
0.139836
0.139826
0.139817
0.139808
0.139799
0.139792
0.139785
0.139779
0.139773
0.139768
0.139764
0.139761
0.139758
0.139756
0.139754
0.139753
0.139753
0.140025
0.140029
0.140032
0.140034
0.140036
0.140036
0.140037
0.140036
0.140036
0.140034
0.140032
0.140029
0.140026
0.140022
0.140018
0.140013
0.140008
0.140003
0.139998
0.139993
0.139988
0.139982
0.139977
0.139972
0.139968
0.139963
0.139959
0.139954
0.139951
0.139947
0.139944
0.139941
0.139938
0.139936
0.139934
0.139933
0.139931
0.13993
0.13993
0.139929
0.13993
0.140037
0.14004
0.140043
0.140045
0.140048
0.14005
0.140052
0.140054
0.140055
0.140056
0.140057
0.140057
0.140057
0.140057
0.140056
0.140056
0.140054
0.140053
0.140052
0.14005
0.140049
0.140047
0.140045
0.140044
0.140042
0.14004
0.140039
0.140037
0.140036
0.140035
0.140033
0.140032
0.140032
0.140031
0.14003
0.14003
0.14003
0.140029
0.140029
0.14003
0.14003
0.140039
0.140042
0.140044
0.140047
0.14005
0.140053
0.140056
0.140058
0.140061
0.140064
0.140066
0.140068
0.14007
0.140072
0.140074
0.140075
0.140077
0.140078
0.140079
0.14008
0.14008
0.140081
0.140082
0.140082
0.140082
0.140083
0.140083
0.140083
0.140084
0.140084
0.140084
0.140084
0.140084
0.140084
0.140085
0.140085
0.140085
0.140086
0.140086
0.140087
0.140087
0.140035
0.140037
0.140039
0.140041
0.140044
0.140047
0.14005
0.140053
0.140056
0.140059
0.140062
0.140065
0.140067
0.14007
0.140073
0.140075
0.140078
0.14008
0.140083
0.140085
0.140088
0.14009
0.140092
0.140094
0.140096
0.140097
0.140099
0.140101
0.140102
0.140103
0.140104
0.140106
0.140107
0.140108
0.140109
0.140109
0.14011
0.140111
0.140112
0.140113
0.140113
0.140024
0.140026
0.140027
0.140029
0.140031
0.140033
0.140036
0.140038
0.140041
0.140043
0.140045
0.140047
0.140049
0.140051
0.140053
0.140054
0.140055
0.140057
0.140058
0.14006
0.140062
0.140064
0.140067
0.14007
0.140072
0.140075
0.140078
0.140081
0.140083
0.140086
0.140089
0.140091
0.140093
0.140095
0.140097
0.140099
0.140101
0.140103
0.140104
0.140105
0.140107
0.140009
0.14001
0.14001
0.140011
0.140012
0.140013
0.140014
0.140015
0.140016
0.140017
0.140017
0.140018
0.140018
0.140017
0.140016
0.140013
0.140008
0.140001
0.13998
0.139968
0.139959
0.139952
0.139946
0.139941
0.139937
0.139934
0.139932
0.13993
0.139929
0.139929
0.139929
0.139929
0.139929
0.13993
0.13993
0.139931
0.139932
0.139932
0.139933
0.139934
0.139935
0.00280479
0.00352246
0.00420087
0.00541225
0.00710894
0.00910792
0.0113073
0.0136502
0.0161042
0.0186524
0.0212776
0.0239719
0.0267315
0.0295473
0.0324099
0.0353162
0.0382602
0.0412345
0.044232
0.0472478
0.0502761
0.0533106
0.0563446
0.059372
0.0623865
0.0653815
0.0683504
0.0712872
0.0741862
0.0770417
0.0798485
0.0826016
0.0852961
0.0879278
0.0904927
0.0929872
0.0954079
0.0977521
0.100017
0.102202
0.104303
0.106321
0.108255
0.110105
0.111872
0.113557
0.115163
0.116691
0.118143
0.11952
0.120825
0.12206
0.123228
0.124333
0.125376
0.126361
0.12729
0.128167
0.128994
0.129774
0.13051
0.131205
0.13186
0.132479
0.133064
0.133617
0.13414
0.134635
0.135105
0.13555
0.135971
0.136381
0.136723
0.137298
0.00590641
0.00636065
0.0060439
0.00611145
0.0069778
0.00851831
0.0104796
0.0126902
0.0150637
0.0175589
0.0201492
0.0228197
0.0255626
0.0283677
0.0312231
0.0341289
0.0370766
0.0400577
0.0430642
0.0460922
0.0491353
0.0521864
0.0552387
0.0582862
0.0613226
0.064341
0.0673347
0.0702974
0.0732233
0.0761069
0.0789426
0.0817252
0.08445
0.0871124
0.0897083
0.0922341
0.0946863
0.0970621
0.0993588
0.101574
0.103707
0.105756
0.10772
0.1096
0.111396
0.11311
0.114744
0.116299
0.117776
0.119177
0.120505
0.121762
0.122951
0.124074
0.125135
0.126136
0.127081
0.127972
0.128813
0.129605
0.130353
0.131058
0.131724
0.132352
0.132946
0.133506
0.134037
0.134538
0.135014
0.135464
0.13589
0.136306
0.136651
0.137232
0.00904511
0.00998099
0.00945591
0.00861069
0.00824997
0.00873797
0.0100187
0.0118466
0.0140069
0.0163763
0.0188891
0.0215102
0.024221
0.0270069
0.0298532
0.0327554
0.0357052
0.0386923
0.041708
0.0447505
0.0478116
0.050883
0.0539575
0.0570297
0.060093
0.0631402
0.066164
0.0691582
0.072117
0.0750345
0.0779049
0.080723
0.0834837
0.0861826
0.0888153
0.091378
0.0938673
0.09628
0.0986135
0.100866
0.103035
0.105119
0.107118
0.109032
0.110862
0.112609
0.114275
0.11586
0.117366
0.118795
0.120149
0.12143
0.122642
0.123786
0.124867
0.125888
0.12685
0.127757
0.128613
0.12942
0.13018
0.130898
0.131574
0.132213
0.132816
0.133385
0.133923
0.134433
0.134915
0.135372
0.135803
0.136224
0.136573
0.137161
0.0112329
0.0131325
0.0132096
0.0123258
0.0112593
0.0106089
0.010726
0.0116614
0.0132496
0.0152784
0.017589
0.0200868
0.0227205
0.025459
0.0282789
0.0311677
0.0341143
0.037107
0.0401349
0.0431935
0.0462745
0.0493689
0.0524688
0.0555705
0.0586664
0.0617482
0.0648083
0.0678404
0.0708387
0.073797
0.0767092
0.0795698
0.0823735
0.0851158
0.0877923
0.0903988
0.0929318
0.095388
0.0977648
0.10006
0.102271
0.104397
0.106436
0.10839
0.110259
0.112044
0.113746
0.115366
0.116905
0.118365
0.119749
0.121058
0.122296
0.123466
0.124569
0.125611
0.126593
0.127519
0.128392
0.129214
0.12999
0.130721
0.13141
0.13206
0.132673
0.133252
0.133799
0.134317
0.134806
0.135271
0.135709
0.136135
0.136489
0.137084
0.0126463
0.0154708
0.0164001
0.0160857
0.0151331
0.0140295
0.0132045
0.012987
0.0135233
0.0147661
0.0165572
0.0187296
0.0211608
0.0237732
0.0265168
0.0293608
0.0322847
0.0352713
0.0383058
0.041379
0.0444818
0.0476039
0.0507362
0.0538731
0.0570069
0.0601291
0.0632318
0.066309
0.0693546
0.0723617
0.0753239
0.0782352
0.0810904
0.0838845
0.0866129
0.0892715
0.0918563
0.0943641
0.0967918
0.0991369
0.101397
0.103572
0.10566
0.10766
0.109574
0.111402
0.113146
0.114806
0.116384
0.11788
0.119298
0.12064
0.121908
0.123105
0.124236
0.125302
0.126307
0.127254
0.128146
0.128987
0.129778
0.130525
0.131228
0.131891
0.132516
0.133106
0.133664
0.13419
0.134688
0.13516
0.135606
0.136039
0.136398
0.137
0.0141042
0.0170496
0.0186528
0.0190582
0.018727
0.0179164
0.0169114
0.0160238
0.0155455
0.0156817
0.0165
0.0179377
0.0198643
0.0221466
0.0246801
0.0273929
0.0302379
0.0331822
0.0362005
0.0392755
0.0423935
0.0455416
0.0487084
0.0518853
0.055064
0.0582354
0.0613907
0.0645226
0.0676246
0.0706897
0.073711
0.0766825
0.0795988
0.0824546
0.085245
0.0879655
0.090612
0.0931808
0.0956689
0.0980736
0.100393
0.102625
0.104768
0.106823
0.10879
0.110669
0.112461
0.114168
0.11579
0.117329
0.118786
0.120165
0.121468
0.122699
0.123859
0.124954
0.125985
0.126956
0.127871
0.128732
0.129543
0.130307
0.131026
0.131704
0.132343
0.132945
0.133514
0.134051
0.134559
0.13504
0.135493
0.135933
0.136299
0.13691
0.0170762
0.0183348
0.0200605
0.0208926
0.0212944
0.0211628
0.0206127
0.0198182
0.0189912
0.0183695
0.0181732
0.0185506
0.0195448
0.021104
0.023123
0.0254889
0.0281082
0.0309113
0.0338479
0.0368824
0.0399891
0.0431477
0.0463413
0.0495567
0.0527828
0.0560089
0.0592247
0.0624215
0.0655913
0.0687266
0.0718199
0.0748646
0.0778546
0.0807843
0.0836487
0.086443
0.0891628
0.0918043
0.0943643
0.0968397
0.0992282
0.101528
0.103738
0.105857
0.107885
0.109824
0.111674
0.113435
0.115109
0.116697
0.118201
0.119624
0.120968
0.122236
0.123433
0.12456
0.125621
0.126621
0.127562
0.128447
0.12928
0.130064
0.130801
0.131496
0.13215
0.132767
0.133349
0.133898
0.134416
0.134907
0.135369
0.135818
0.13619
0.136811
0.0187044
0.0202813
0.0214333
0.0218395
0.0227247
0.0231745
0.0232955
0.0230839
0.0225927
0.0219528
0.0213398
0.020948
0.020957
0.0214903
0.0225899
0.0242202
0.0262974
0.0287244
0.0314126
0.0342918
0.0373098
0.0404276
0.0436155
0.0468505
0.0501149
0.0533935
0.0566727
0.059941
0.0631884
0.0664056
0.0695843
0.0727166
0.0757956
0.078815
0.0817691
0.0846526
0.087461
0.0901899
0.092836
0.0953959
0.0978672
0.100248
0.102536
0.104731
0.106834
0.108843
0.11076
0.112585
0.114321
0.115967
0.117526
0.119001
0.120393
0.121707
0.122945
0.124111
0.125208
0.126241
0.127212
0.128125
0.128983
0.12979
0.13055
0.131264
0.131936
0.132569
0.133166
0.133728
0.134259
0.134761
0.135233
0.135692
0.136072
0.136704
0.0192414
0.0210442
0.0225259
0.0234461
0.024031
0.0242178
0.02474
0.0250962
0.0251836
0.0250335
0.0246899
0.0242446
0.0238397
0.02364
0.0238009
0.0244355
0.0255926
0.0272558
0.0293613
0.0318246
0.0345621
0.037503
0.040591
0.0437827
0.0470449
0.0503517
0.0536822
0.0570187
0.0603468
0.0636541
0.0669296
0.0701636
0.0733475
0.0764737
0.0795356
0.0825269
0.0854424
0.0882774
0.0910278
0.09369
0.0962612
0.0987391
0.101122
0.103408
0.105598
0.107692
0.10969
0.111592
0.113401
0.115117
0.116741
0.118277
0.119727
0.121095
0.122382
0.123594
0.124734
0.125805
0.126812
0.127758
0.128647
0.129481
0.130266
0.131003
0.131696
0.132347
0.132961
0.133539
0.134084
0.134599
0.135084
0.135553
0.135942
0.136586
0.0193638
0.0209369
0.0225487
0.0239984
0.0251492
0.0258703
0.0262958
0.0264491
0.0266392
0.0269022
0.0270362
0.0269971
0.0268239
0.0265846
0.0263834
0.0263549
0.0266371
0.0273398
0.0285225
0.0301881
0.032293
0.0347668
0.0375319
0.0405166
0.0436607
0.0469165
0.050246
0.053619
0.0570112
0.060403
0.0637782
0.0671228
0.070425
0.0736747
0.0768632
0.0799829
0.0830271
0.08599
0.0888668
0.0916533
0.094346
0.0969421
0.0994395
0.101837
0.104133
0.106329
0.108424
0.11042
0.112316
0.114116
0.115819
0.117429
0.118949
0.12038
0.121728
0.122995
0.124186
0.125304
0.126353
0.127338
0.128262
0.129129
0.129943
0.130707
0.131424
0.132098
0.132732
0.133328
0.13389
0.13442
0.134918
0.135399
0.135798
0.136457
0.0199796
0.0210784
0.0223346
0.0236974
0.0250843
0.0263654
0.0274234
0.0281547
0.0285771
0.0287663
0.0287254
0.0287601
0.0288866
0.0289662
0.0289556
0.0289015
0.0288868
0.0290164
0.0294067
0.030162
0.0313514
0.0329968
0.0350757
0.0375338
0.0403018
0.0433096
0.0464939
0.0498018
0.0531899
0.0566235
0.0600746
0.0635204
0.0669424
0.070325
0.0736553
0.0769226
0.0801177
0.0832328
0.0862615
0.0891983
0.0920386
0.0947789
0.0974164
0.0999492
0.102376
0.104696
0.106911
0.109019
0.111024
0.112925
0.114724
0.116425
0.118028
0.119538
0.120958
0.122293
0.123545
0.124719
0.12582
0.126852
0.127819
0.128725
0.129574
0.13037
0.131116
0.131816
0.132474
0.133091
0.133672
0.134219
0.134733
0.135229
0.13564
0.136316
0.0220249
0.0227068
0.0235071
0.0244019
0.025395
0.0264815
0.0276257
0.0287493
0.0297508
0.0305389
0.0310348
0.0312644
0.0312929
0.0311354
0.0310032
0.0310173
0.0310905
0.0311725
0.0313048
0.0315678
0.032055
0.0328576
0.0340469
0.0356597
0.0376934
0.040112
0.0428581
0.0458658
0.0490711
0.0524163
0.0558531
0.0593415
0.0628487
0.0663483
0.0698188
0.0732424
0.0766049
0.0798942
0.0831006
0.0862161
0.0892341
0.0921494
0.0949579
0.0976567
0.100244
0.102718
0.105079
0.107328
0.109465
0.111491
0.113409
0.11522
0.116927
0.118533
0.120043
0.121459
0.122787
0.124031
0.125195
0.126284
0.127303
0.128256
0.129148
0.129982
0.130763
0.131495
0.13218
0.132823
0.133427
0.133995
0.134527
0.13504
0.135464
0.136159
0.0263771
0.0267286
0.027166
0.0276448
0.0281626
0.0287326
0.0293742
0.0301015
0.0309092
0.0317628
0.0325958
0.033325
0.0338756
0.034182
0.0342445
0.0341207
0.0338506
0.0335261
0.0334127
0.0334745
0.0336628
0.0340005
0.0345508
0.0353867
0.0365718
0.0381478
0.0401262
0.0424882
0.0451902
0.0481748
0.0513798
0.0547455
0.058219
0.0617548
0.0653151
0.068869
0.0723911
0.0758609
0.0792617
0.0825801
0.0858053
0.0889286
0.0919434
0.0948445
0.0976283
0.100292
0.102836
0.105258
0.10756
0.109742
0.111807
0.113756
0.115592
0.117319
0.11894
0.120458
0.12188
0.12321
0.124452
0.125612
0.126695
0.127706
0.12865
0.129532
0.130355
0.131124
0.131844
0.132517
0.133148
0.133741
0.134294
0.134827
0.135269
0.135986
0.0333302
0.0334153
0.0335669
0.0337321
0.0338984
0.0340658
0.0342425
0.0344437
0.0346906
0.0350052
0.0354018
0.0358763
0.0364008
0.0369224
0.0373712
0.0376787
0.037788
0.0376673
0.0373678
0.0369543
0.036446
0.0361611
0.0361613
0.0364215
0.0369394
0.0377517
0.0389039
0.0404307
0.0423465
0.0446419
0.0472852
0.050228
0.0534131
0.0567818
0.0602783
0.0638526
0.0674621
0.0710705
0.074648
0.0781704
0.0816179
0.0849748
0.0882287
0.09137
0.0943916
0.0972882
0.100057
0.102695
0.105203
0.107582
0.109831
0.111954
0.113953
0.11583
0.117591
0.119239
0.120779
0.122217
0.123558
0.124807
0.12597
0.127054
0.128063
0.129002
0.129878
0.130694
0.131455
0.132166
0.13283
0.133452
0.134032
0.134588
0.135049
0.135794
0.042457
0.0423412
0.0422762
0.0422119
0.0421351
0.0420409
0.0419279
0.0417978
0.0416564
0.0415153
0.0413921
0.0413085
0.0412861
0.0413395
0.0414689
0.0416542
0.0418544
0.0420103
0.0420567
0.0419419
0.0416162
0.0411145
0.0405098
0.0398656
0.0393467
0.0392004
0.0394477
0.0400761
0.0410928
0.0425109
0.0443334
0.0465468
0.0491207
0.0520106
0.0551631
0.0585211
0.0620283
0.0656322
0.0692858
0.0729483
0.0765849
0.0801667
0.0836703
0.0870768
0.0903714
0.0935432
0.0965839
0.0994883
0.102253
0.104877
0.107359
0.109702
0.111907
0.113978
0.115917
0.11773
0.119422
0.120998
0.122464
0.123827
0.125093
0.126268
0.12736
0.128373
0.129313
0.130188
0.131
0.131757
0.132462
0.13312
0.133732
0.134318
0.134802
0.135578
0.0530264
0.0527707
0.0525528
0.05233
0.0520914
0.0518321
0.0515488
0.0512388
0.0509
0.0505321
0.0501376
0.0497227
0.0492989
0.048883
0.0484953
0.0481566
0.0478828
0.0476788
0.047532
0.0474113
0.0472675
0.0470399
0.0466755
0.0461337
0.0454126
0.0445837
0.0437471