/*--------------------------------*- C++ -*----------------------------------*\
| =========                 |                                                 |
| \\      /  F ield         | OpenFOAM: The Open Source CFD Toolbox           |
|  \\    /   O peration     | Version:  5.x                                   |
|   \\  /    A nd           | Web:      www.OpenFOAM.org                      |
|    \\/     M anipulation  |                                                 |
\*---------------------------------------------------------------------------*/
FoamFile
{
    version     2.0;
    format      ascii;
    class       volScalarField;
    location    "400";
    object      nut;
}
// * * * * * * * * * * * * * * * * * * * * * * * * * * * * * * * * * * * * * //

dimensions      [0 2 -1 0 0 0 0];

internalField   nonuniform List<scalar> 
11040
(
0.00180844
0.00196058
0.0023642
0.00268078
0.00282515
0.00286739
0.0028548
0.00280882
0.00273331
0.00262992
0.00247714
0.00234806
0.00226609
0.00220746
0.00214378
0.00207871
0.00201422
0.00195313
0.00189854
0.00185027
0.0018054
0.00176725
0.00173409
0.00170299
0.00167376
0.00164595
0.001619
0.00159258
0.00156641
0.0015402
0.00151346
0.00148559
0.00145588
0.00142344
0.00138679
0.00134433
0.00129321
0.00123037
0.00114289
0.00103866
0.000782246
0.00816672
0.00857713
0.00795396
0.00728059
0.0065739
0.0059058
0.00530344
0.00476449
0.00429
0.00388091
0.00348292
0.00333684
0.0032798
0.00314998
0.0029843
0.00282535
0.00268721
0.00256858
0.00248397
0.00242913
0.00238798
0.00235105
0.0023182
0.00228994
0.00226717
0.00224789
0.00223053
0.00221501
0.00220188
0.00219132
0.0021831
0.00217698
0.00217293
0.00217098
0.00217124
0.00217363
0.00217831
0.00218312
0.00218879
0.00218181
0.00211265
0.0163961
0.0170022
0.016261
0.0151871
0.0139386
0.0126683
0.0114557
0.0103223
0.0092788
0.00830375
0.00732966
0.0064866
0.00583956
0.00534508
0.00491031
0.00452803
0.00418949
0.00390371
0.00376047
0.0036939
0.00363798
0.00358266
0.00354321
0.00352108
0.00350993
0.00350125
0.0034928
0.00348678
0.00348474
0.00348585
0.00348843
0.0034914
0.00349423
0.00349627
0.00349613
0.00349209
0.00348325
0.00346225
0.00343388
0.0033666
0.00322002
0.0257837
0.0265194
0.0257684
0.0243979
0.022706
0.0208869
0.0190673
0.0172921
0.015618
0.0140458
0.0124808
0.0110856
0.0099735
0.00909658
0.00832864
0.00765862
0.00707327
0.00655618
0.00610387
0.00571177
0.00536743
0.00511528
0.00500217
0.00495162
0.00491497
0.00487424
0.00484032
0.00482214
0.00481708
0.00481791
0.00482106
0.00482636
0.00483358
0.0048412
0.00484653
0.00484631
0.00483807
0.00481069
0.00476489
0.00466254
0.00440167
0.0359167
0.036739
0.036063
0.0345487
0.0325643
0.0302953
0.0279184
0.0254849
0.0231459
0.0209275
0.0187287
0.0167457
0.0151518
0.013883
0.0127589
0.0117674
0.0109018
0.0101314
0.00943658
0.00880972
0.00824533
0.00778813
0.00742869
0.00711589
0.00684058
0.00660637
0.00646828
0.00640253
0.00636257
0.00632551
0.00629593
0.00627915
0.00627194
0.00626825
0.00626361
0.00625424
0.0062368
0.00619881
0.00613684
0.0060216
0.00569181
0.0464465
0.0473162
0.046756
0.0452354
0.0431139
0.0405001
0.0376421
0.0347176
0.0318477
0.0290566
0.0262354
0.0236123
0.0214244
0.019668
0.018157
0.0168376
0.0156969
0.0146472
0.0136829
0.0128077
0.0120166
0.0113679
0.0108341
0.010347
0.00990568
0.00950473
0.00914496
0.00882637
0.00854281
0.00830263
0.00815513
0.00807509
0.00801792
0.0079657
0.00791826
0.00787193
0.00782028
0.00774837
0.00764865
0.00750353
0.00711897
0.0570556
0.0579239
0.057491
0.0560672
0.0539291
0.0512318
0.0482162
0.0450386
0.0418256
0.038611
0.0352816
0.0320833
0.0293094
0.0269967
0.0249642
0.0231625
0.0215699
0.0201548
0.0188902
0.01776
0.0167358
0.0158759
0.0151318
0.014461
0.0138647
0.0133184
0.012814
0.0123472
0.0119138
0.0115095
0.0111363
0.0107951
0.0104805
0.010233
0.0100696
0.00994046
0.00981469
0.00967147
0.00949807
0.00928383
0.00880942
0.0674127
0.0682593
0.0679459
0.0666825
0.0646746
0.0621084
0.0591693
0.0559785
0.0526514
0.0492231
0.0455863
0.0419778
0.0387213
0.0358969
0.0333504
0.0310454
0.028966
0.0270924
0.0254036
0.0238817
0.0225136
0.0213683
0.0204111
0.0195458
0.0187636
0.0180522
0.0173999
0.0167968
0.0162344
0.0157055
0.0152032
0.0147217
0.0142546
0.0137996
0.0133568
0.0129269
0.0125666
0.0122639
0.0119588
0.0116256
0.0110044
0.0772889
0.078063
0.0778414
0.076766
0.0749915
0.0726901
0.0699964
0.0669933
0.063772
0.0603533
0.0566448
0.0528489
0.0492883
0.0460796
0.0431173
0.0403792
0.0378585
0.0355448
0.0334248
0.0314847
0.0297143
0.0282447
0.0270407
0.0259514
0.02496
0.0240527
0.0232173
0.0224429
0.0217195
0.0210381
0.0203901
0.019767
0.0191605
0.0185616
0.0179585
0.0173415
0.0167114
0.0160567
0.015409
0.0148383
0.014009
0.0864355
0.0871116
0.0869576
0.086072
0.0845724
0.0826021
0.0802539
0.077573
0.0746252
0.0713932
0.0678207
0.0640669
0.0604215
0.0570286
0.0538513
0.0508362
0.0479919
0.0453294
0.0428449
0.0405323
0.0383846
0.0365937
0.0351293
0.0337988
0.032581
0.0314606
0.0304241
0.0294596
0.0285561
0.0277031
0.0268908
0.0261095
0.0253496
0.0246006
0.0238476
0.0230794
0.0222852
0.0214402
0.0205272
0.0195813
0.0183669
0.0946863
0.095259
0.0951529
0.0944412
0.0932144
0.0915865
0.0896193
0.0873133
0.0847226
0.0818583
0.078642
0.0751805
0.0717037
0.0683437
0.0650803
0.0619355
0.0589262
0.056079
0.0533632
0.0507829
0.0483436
0.0462852
0.044585
0.0430262
0.0415891
0.0402598
0.0390245
0.0378702
0.0367851
0.0357578
0.0347776
0.033834
0.0329165
0.0320138
0.0311093
0.030192
0.0292506
0.0282599
0.0271922
0.0260767
0.0245254
0.101968
0.102441
0.102366
0.101803
0.100822
0.0995112
0.0979135
0.0960087
0.0938463
0.0914288
0.088686
0.0856812
0.0825794
0.0794816
0.0763767
0.0733007
0.0702839
0.0673537
0.0645273
0.0618151
0.0592289
0.0570088
0.0551284
0.0533844
0.0517677
0.0502715
0.0488718
0.0475553
0.0463108
0.0451279
0.0439962
0.0429049
0.041844
0.0408017
0.0397602
0.0387089
0.0376373
0.036521
0.0353343
0.0341103
0.0324495
0.108285
0.108662
0.108605
0.108163
0.107391
0.106354
0.105084
0.103557
0.101813
0.099852
0.097614
0.0951316
0.0924987
0.0898015
0.087041
0.0842589
0.081461
0.0786729
0.0759184
0.0732176
0.0705871
0.0682925
0.0663341
0.0645022
0.0627858
0.0611752
0.05966
0.0582292
0.0568721
0.0555781
0.0543369
0.0531372
0.0519759
0.0508336
0.0496922
0.0485426
0.0473766
0.0461712
0.0449052
0.043607
0.0419267
0.113688
0.113975
0.113928
0.113584
0.112983
0.112173
0.111176
0.109974
0.108599
0.107048
0.105276
0.103281
0.101152
0.0989343
0.0966219
0.0942373
0.0917997
0.0893426
0.0868616
0.0843727
0.0818937
0.0796869
0.077773
0.0759616
0.0742447
0.0726165
0.07107
0.0695978
0.0681918
0.0668436
0.0655447
0.0642859
0.0630588
0.0618532
0.0606529
0.0594499
0.0582372
0.0569931
0.0557008
0.0543807
0.0527452
0.118237
0.118461
0.118426
0.118162
0.117699
0.117069
0.116291
0.115351
0.11428
0.113073
0.111683
0.110133
0.10847
0.106721
0.104874
0.102942
0.100938
0.0988724
0.0967592
0.0946109
0.0924501
0.0904897
0.0887482
0.0870748
0.0854697
0.08394
0.0824726
0.0810617
0.0797022
0.0783887
0.0771152
0.0758755
0.0746628
0.0734688
0.0722797
0.07109
0.069895
0.0686758
0.0674199
0.0661406
0.064616
0.12206
0.122234
0.122207
0.122002
0.121654
0.121158
0.120548
0.119818
0.118987
0.118056
0.116987
0.1158
0.114525
0.113178
0.111737
0.11022
0.108647
0.107011
0.105316
0.10357
0.101781
0.100132
0.0986529
0.0972173
0.095826
0.0944789
0.0931749
0.0919117
0.0906865
0.0894958
0.088335
0.087206
0.0860976
0.0850027
0.0839101
0.0828166
0.0817199
0.0806043
0.0794612
0.0782986
0.0769586
0.125262
0.125398
0.125377
0.125216
0.124943
0.124556
0.124081
0.123516
0.122874
0.122156
0.121338
0.120435
0.119467
0.118434
0.117337
0.116181
0.114971
0.113708
0.112405
0.111055
0.109659
0.108356
0.107172
0.106013
0.104881
0.103776
0.102698
0.101646
0.100618
0.0996139
0.09863
0.0976641
0.0967133
0.0957736
0.0948363
0.0938999
0.092963
0.0920133
0.0910451
0.0900624
0.0889632
0.12782
0.12793
0.127913
0.127786
0.127568
0.127264
0.126888
0.126449
0.125942
0.125379
0.124743
0.124045
0.1233
0.122507
0.121666
0.120781
0.119856
0.11889
0.117885
0.116842
0.115765
0.114752
0.113826
0.112916
0.112024
0.111151
0.110295
0.109463
0.108648
0.107849
0.107063
0.10629
0.105527
0.104773
0.10402
0.103269
0.102519
0.101761
0.100992
0.100213
0.0993642
0.12979
0.129879
0.129867
0.129763
0.129585
0.129344
0.129038
0.128681
0.128274
0.127822
0.127322
0.12677
0.126183
0.12556
0.124902
0.124212
0.123493
0.122744
0.121966
0.12116
0.120326
0.119539
0.118815
0.118103
0.117405
0.11672
0.11605
0.115393
0.114749
0.114117
0.113501
0.112896
0.1123
0.11171
0.111123
0.110539
0.109958
0.109373
0.108782
0.108187
0.107551
0.131336
0.13141
0.1314
0.131314
0.131165
0.130964
0.130712
0.130418
0.130089
0.129719
0.129311
0.128864
0.128391
0.127897
0.127371
0.126822
0.126252
0.12566
0.125048
0.124416
0.123764
0.123146
0.122577
0.122017
0.121469
0.120931
0.120405
0.119889
0.119384
0.11889
0.118405
0.117929
0.117462
0.117005
0.116552
0.116103
0.115658
0.115212
0.114764
0.114315
0.113845
0.132579
0.132642
0.132633
0.13256
0.132434
0.132263
0.132055
0.131808
0.131532
0.131224
0.130886
0.130523
0.130135
0.12973
0.129303
0.128859
0.128399
0.127924
0.127435
0.126931
0.126415
0.125924
0.125472
0.125028
0.124593
0.124168
0.123748
0.123338
0.12294
0.122552
0.122173
0.121801
0.121438
0.121083
0.120733
0.120388
0.120048
0.119709
0.11937
0.119032
0.118685
0.133597
0.133651
0.133643
0.133581
0.133472
0.133326
0.133147
0.132941
0.132706
0.132449
0.132165
0.131861
0.131537
0.131201
0.130852
0.130487
0.130111
0.129724
0.129328
0.128921
0.128507
0.128112
0.127748
0.127392
0.127041
0.126701
0.126366
0.126039
0.12572
0.125413
0.125114
0.124823
0.124539
0.124263
0.123992
0.123725
0.123464
0.123205
0.122947
0.122692
0.122435
0.134446
0.134492
0.134484
0.13443
0.134336
0.134209
0.134054
0.133876
0.133678
0.133457
0.133218
0.132959
0.132689
0.132406
0.132113
0.131812
0.131503
0.131184
0.130858
0.130526
0.130189
0.129868
0.129572
0.129282
0.128998
0.128724
0.128454
0.128191
0.127936
0.127688
0.12745
0.127221
0.126999
0.126783
0.126572
0.126365
0.126163
0.125963
0.125766
0.125572
0.12538
0.135161
0.1352
0.135193
0.135146
0.135063
0.134952
0.134818
0.134662
0.13449
0.1343
0.134095
0.133874
0.133644
0.133407
0.13316
0.132906
0.132647
0.132383
0.132116
0.131841
0.131564
0.1313
0.131056
0.130819
0.130588
0.130365
0.130146
0.129932
0.129725
0.129525
0.129332
0.129146
0.12897
0.128799
0.128632
0.12847
0.128313
0.128159
0.128008
0.127861
0.127718
0.135771
0.135804
0.135798
0.135756
0.135683
0.135586
0.135468
0.135332
0.135181
0.135018
0.13484
0.134651
0.134453
0.134249
0.13404
0.133827
0.133607
0.133385
0.133159
0.132932
0.132704
0.132485
0.132283
0.132086
0.131896
0.131711
0.13153
0.131356
0.131187
0.131024
0.130868
0.130718
0.130574
0.130436
0.130303
0.130177
0.130054
0.129935
0.129819
0.129706
0.129598
0.136296
0.136324
0.136318
0.136281
0.136217
0.136131
0.136026
0.135907
0.135774
0.13563
0.135477
0.135313
0.135143
0.134967
0.134787
0.134604
0.134418
0.134231
0.134041
0.133849
0.133658
0.133476
0.133308
0.133144
0.132986
0.132832
0.132683
0.132539
0.1324
0.132266
0.132138
0.132016
0.131899
0.131787
0.13168
0.131577
0.13148
0.131387
0.131297
0.13121
0.131128
0.13675
0.136775
0.136769
0.136736
0.136679
0.136603
0.136511
0.136405
0.136287
0.136161
0.136025
0.135883
0.135735
0.135584
0.135429
0.135273
0.135113
0.134952
0.134791
0.13463
0.134469
0.134315
0.134173
0.134036
0.133903
0.133774
0.13365
0.13353
0.133415
0.133304
0.133199
0.133098
0.133003
0.132911
0.132824
0.132741
0.132662
0.132587
0.132515
0.132447
0.132384
0.137147
0.137168
0.137163
0.137134
0.137083
0.137016
0.136933
0.136839
0.136735
0.136623
0.136503
0.136378
0.136249
0.136118
0.135984
0.135848
0.135711
0.135573
0.135435
0.135297
0.13516
0.135031
0.13491
0.134793
0.134681
0.134572
0.134467
0.134367
0.134271
0.134179
0.134092
0.134009
0.13393
0.133855
0.133783
0.133716
0.133652
0.133591
0.133533
0.133478
0.133429
0.137496
0.137514
0.13751
0.137483
0.137439
0.137378
0.137305
0.137221
0.137128
0.137028
0.136922
0.136811
0.136698
0.136582
0.136464
0.136346
0.136228
0.136108
0.13599
0.135872
0.135756
0.135644
0.135541
0.135441
0.135346
0.135253
0.135165
0.13508
0.135
0.134923
0.13485
0.134781
0.134716
0.134654
0.134595
0.13454
0.134488
0.134438
0.134392
0.134347
0.134308
0.137803
0.13782
0.137816
0.137792
0.137752
0.137698
0.137633
0.137558
0.137475
0.137386
0.137292
0.137193
0.137092
0.13699
0.136886
0.136782
0.136679
0.136575
0.136473
0.136372
0.136272
0.136177
0.136087
0.136002
0.13592
0.135841
0.135766
0.135694
0.135626
0.135562
0.135501
0.135443
0.135388
0.135337
0.135289
0.135243
0.135201
0.13516
0.135122
0.135087
0.135055
0.138076
0.13809
0.138087
0.138066
0.138031
0.137982
0.137924
0.137856
0.137783
0.137703
0.137619
0.137532
0.137442
0.137351
0.137259
0.137168
0.137076
0.136986
0.136897
0.136809
0.136724
0.136641
0.136564
0.13649
0.13642
0.136352
0.136288
0.136227
0.136169
0.136115
0.136063
0.136015
0.135969
0.135926
0.135886
0.135849
0.135814
0.135781
0.13575
0.135721
0.135696
0.138319
0.138332
0.138329
0.138311
0.138279
0.138235
0.138183
0.138123
0.138057
0.137986
0.137911
0.137833
0.137753
0.137672
0.137591
0.13751
0.137429
0.13735
0.137272
0.137195
0.137121
0.137049
0.136982
0.136918
0.136858
0.136799
0.136744
0.136692
0.136643
0.136597
0.136553
0.136512
0.136474
0.136438
0.136405
0.136374
0.136345
0.136318
0.136293
0.136269
0.136249
0.138536
0.138547
0.138545
0.138529
0.138501
0.138462
0.138415
0.138361
0.138302
0.138238
0.138171
0.138102
0.138031
0.137959
0.137887
0.137815
0.137744
0.137674
0.137605
0.137538
0.137474
0.137411
0.137353
0.137297
0.137244
0.137194
0.137147
0.137102
0.13706
0.13702
0.136983
0.136949
0.136917
0.136887
0.136859
0.136833
0.136809
0.136787
0.136766
0.136747
0.136731
0.13873
0.138741
0.138739
0.138725
0.1387
0.138665
0.138623
0.138575
0.138522
0.138465
0.138405
0.138343
0.13828
0.138216
0.138152
0.138088
0.138025
0.137964
0.137903
0.137844
0.137788
0.137733
0.137683
0.137634
0.137588
0.137545
0.137504
0.137465
0.137429
0.137395
0.137364
0.137335
0.137307
0.137282
0.137259
0.137237
0.137217
0.137199
0.137182
0.137166
0.137154
0.138905
0.138915
0.138914
0.138902
0.138879
0.138848
0.138811
0.138768
0.138721
0.13867
0.138616
0.138561
0.138505
0.138448
0.138391
0.138334
0.138279
0.138224
0.138171
0.138119
0.13807
0.138022
0.137978
0.137935
0.137896
0.137858
0.137822
0.137789
0.137758
0.137729
0.137702
0.137677
0.137654
0.137633
0.137613
0.137595
0.137578
0.137563
0.137549
0.137536
0.137526
0.139062
0.139072
0.139071
0.139061
0.139041
0.139014
0.13898
0.138942
0.1389
0.138855
0.138807
0.138758
0.138708
0.138657
0.138607
0.138557
0.138508
0.138459
0.138412
0.138367
0.138324
0.138282
0.138243
0.138206
0.138171
0.138139
0.138108
0.138079
0.138052
0.138027
0.138004
0.137983
0.137963
0.137945
0.137928
0.137913
0.137899
0.137887
0.137875
0.137865
0.137857
0.139204
0.139213
0.139213
0.139204
0.139187
0.139163
0.139134
0.1391
0.139063
0.139023
0.138981
0.138937
0.138893
0.138848
0.138803
0.138759
0.138715
0.138673
0.138631
0.138591
0.138553
0.138517
0.138483
0.138451
0.138421
0.138392
0.138365
0.13834
0.138317
0.138296
0.138276
0.138257
0.13824
0.138225
0.138211
0.138198
0.138187
0.138176
0.138167
0.138158
0.138152
0.139332
0.139341
0.139342
0.139335
0.13932
0.139299
0.139274
0.139244
0.139211
0.139176
0.139139
0.1391
0.139061
0.139021
0.138982
0.138943
0.138904
0.138867
0.138831
0.138796
0.138762
0.138731
0.138701
0.138673
0.138646
0.138621
0.138598
0.138576
0.138556
0.138538
0.138521
0.138505
0.13849
0.138477
0.138465
0.138455
0.138445
0.138436
0.138428
0.138421
0.138416
0.139448
0.139457
0.139459
0.139453
0.139441
0.139423
0.139401
0.139375
0.139347
0.139316
0.139284
0.13925
0.139215
0.139181
0.139146
0.139112
0.139078
0.139045
0.139013
0.138983
0.138954
0.138926
0.1389
0.138875
0.138852
0.138831
0.13881
0.138792
0.138774
0.138758
0.138743
0.13873
0.138718
0.138706
0.138696
0.138687
0.138679
0.138671
0.138665
0.138659
0.138655
0.139553
0.139562
0.139565
0.139561
0.139551
0.139536
0.139518
0.139496
0.139472
0.139445
0.139417
0.139388
0.139358
0.139328
0.139298
0.139268
0.139238
0.13921
0.139182
0.139155
0.13913
0.139106
0.139083
0.139062
0.139042
0.139023
0.139005
0.138989
0.138974
0.13896
0.138947
0.138936
0.138925
0.138916
0.138907
0.138899
0.138892
0.138886
0.138881
0.138876
0.138873
0.139648
0.139657
0.139661
0.139658
0.139651
0.13964
0.139625
0.139607
0.139587
0.139565
0.139541
0.139516
0.139491
0.139465
0.139439
0.139413
0.139388
0.139363
0.139339
0.139316
0.139294
0.139273
0.139254
0.139235
0.139218
0.139202
0.139187
0.139173
0.13916
0.139148
0.139137
0.139127
0.139118
0.13911
0.139102
0.139096
0.13909
0.139085
0.139081
0.139077
0.139074
0.139734
0.139744
0.139748
0.139748
0.139743
0.139735
0.139724
0.13971
0.139694
0.139676
0.139657
0.139636
0.139615
0.139594
0.139572
0.139551
0.139529
0.139508
0.139488
0.139469
0.139451
0.139433
0.139416
0.139401
0.139386
0.139372
0.139359
0.139347
0.139336
0.139326
0.139317
0.139309
0.139302
0.139295
0.139289
0.139284
0.13928
0.139276
0.139273
0.13927
0.139269
0.139812
0.139822
0.139827
0.139828
0.139827
0.139822
0.139814
0.139805
0.139793
0.13978
0.139765
0.13975
0.139734
0.139717
0.1397
0.139683
0.139666
0.13965
0.139634
0.139619
0.139604
0.13959
0.139577
0.139564
0.139553
0.139542
0.139532
0.139522
0.139514
0.139506
0.139499
0.139493
0.139488
0.139483
0.139479
0.139476
0.139474
0.139472
0.139471
0.13947
0.13947
0.139881
0.139891
0.139897
0.1399
0.1399
0.139898
0.139894
0.139889
0.139882
0.139873
0.139864
0.139854
0.139844
0.139833
0.139821
0.13981
0.139799
0.139788
0.139777
0.139767
0.139758
0.139748
0.13974
0.139732
0.139724
0.139717
0.139711
0.139705
0.1397
0.139695
0.139691
0.139688
0.139685
0.139683
0.139681
0.13968
0.139679
0.139679
0.139679
0.139679
0.13968
0.139938
0.139946
0.13995
0.139953
0.139953
0.139953
0.139951
0.139948
0.139945
0.139941
0.139936
0.139931
0.139926
0.13992
0.139914
0.139908
0.139902
0.139896
0.13989
0.139885
0.13988
0.139875
0.13987
0.139865
0.139861
0.139857
0.139854
0.139851
0.139848
0.139845
0.139843
0.139841
0.139839
0.139837
0.139836
0.139835
0.139834
0.139834
0.139833
0.139833
0.139833
0.139973
0.139976
0.139978
0.139979
0.139979
0.139979
0.139978
0.139977
0.139975
0.139973
0.139971
0.139968
0.139965
0.139961
0.139958
0.139954
0.139951
0.139947
0.139943
0.139939
0.139936
0.139933
0.139929
0.139926
0.139923
0.13992
0.139918
0.139915
0.139913
0.139911
0.139909
0.139907
0.139906
0.139904
0.139903
0.139901
0.1399
0.139899
0.139898
0.139897
0.139896
0.139989
0.139991
0.139992
0.139993
0.139993
0.139993
0.139992
0.139992
0.139991
0.13999
0.139989
0.139987
0.139985
0.139983
0.139981
0.139978
0.139975
0.139972
0.139969
0.139965
0.139961
0.139957
0.139953
0.139949
0.139944
0.13994
0.139936
0.139933
0.139929
0.139926
0.139923
0.13992
0.139917
0.139915
0.139913
0.139911
0.13991
0.139908
0.139906
0.139905
0.139904
0.139998
0.139998
0.139999
0.139999
0.139999
0.139999
0.139999
0.139999
0.139999
0.139998
0.139998
0.139997
0.139997
0.139995
0.139994
0.139993
0.139991
0.139988
0.139985
0.13998
0.139975
0.139967
0.139958
0.13995
0.139942
0.139934
0.139927
0.13992
0.139914
0.139908
0.139902
0.139897
0.139892
0.139887
0.139883
0.139879
0.139875
0.139871
0.139868
0.139865
0.139862
0.00194703
0.00281485
0.00349112
0.0040794
0.00462899
0.00515821
0.005678
0.00619911
0.00673054
0.00728461
0.00787303
0.0085045
0.0091852
0.00991988
0.0107117
0.0115641
0.0124807
0.0134633
0.0145125
0.0156272
0.0168058
0.0180468
0.0193484
0.0207085
0.0221244
0.0235929
0.0251108
0.0266755
0.0282839
0.0299333
0.0316204
0.0333423
0.035096
0.036879
0.0386885
0.0405221
0.042377
0.0442508
0.0461411
0.0480458
0.0499627
0.0518897
0.0538246
0.0557656
0.0577107
0.059658
0.061606
0.0635527
0.0654967
0.0674361
0.0693696
0.0712955
0.0732125
0.0751191
0.0770139
0.0788955
0.0807626
0.0826139
0.0844482
0.0862642
0.0880608
0.0898368
0.0915911
0.0933225
0.09503
0.0967125
0.0983691
0.0999989
0.1016
0.103175
0.10471
0.106265
0.107556
0.10987
0.00288577
0.00349237
0.00401648
0.00453001
0.00502517
0.00550255
0.00596835
0.00643183
0.00689954
0.00738873
0.00791101
0.00847297
0.00907959
0.00973591
0.0104454
0.0112145
0.0120491
0.0129521
0.0139241
0.0149641
0.0160707
0.0172434
0.0184809
0.019781
0.0211406
0.0225561
0.0240245
0.0255428
0.0271082
0.0287174
0.0303669
0.0320534
0.033774
0.035526
0.0373067
0.0391131
0.0409426
0.0427925
0.0446604
0.0465441
0.0484415
0.0503502
0.0522682
0.0541933
0.0561237
0.0580576
0.0599933
0.0619289
0.0638628
0.0657933
0.067719
0.0696383
0.0715497
0.073452
0.0753436
0.0772232
0.0790896
0.0809413
0.0827774
0.0845964
0.0863973
0.0881789
0.0899401
0.0916797
0.0933969
0.0950905
0.0967595
0.0984031
0.10002
0.101612
0.103164
0.10474
0.106048
0.1084
0.00395435
0.00457955
0.00509737
0.00553576
0.00593248
0.00631284
0.00668764
0.00706395
0.00744308
0.00785624
0.00830412
0.00878615
0.00930521
0.00986651
0.0104732
0.0111387
0.0118708
0.012672
0.0135428
0.0144825
0.0154916
0.0165715
0.0177217
0.0189401
0.0202228
0.021566
0.0229668
0.0244226
0.0259302
0.0274858
0.0290854
0.0307255
0.032403
0.0341151
0.0358588
0.0376309
0.0394283
0.0412483
0.0430885
0.0449465
0.04682
0.0487065
0.0506039
0.0525099
0.0544228
0.0563406
0.0582615
0.0601838
0.0621056
0.0640253
0.0659415
0.0678525
0.0697571
0.0716536
0.0735408
0.0754173
0.0772818
0.0791331
0.0809698
0.082791
0.0845953
0.0863818
0.0881492
0.0898964
0.0916226
0.0933266
0.0950075
0.0966645
0.098296
0.0999042
0.101474
0.10307
0.104395
0.106785
0.00501934
0.00562805
0.00618088
0.00666237
0.00708687
0.00747594
0.00784363
0.00819925
0.00854892
0.00890525
0.0092775
0.00967142
0.0100915
0.0105432
0.0110279
0.0115764
0.012189
0.0128647
0.0136044
0.014409
0.0152837
0.0162348
0.0172623
0.0183633
0.0195339
0.0207705
0.022072
0.0234363
0.0248595
0.026337
0.0278639
0.0294367
0.0310524
0.0327079
0.0343996
0.0361236
0.0378764
0.0396552
0.0414575
0.0432808
0.0451223
0.0469793
0.0488493
0.0507302
0.0526201
0.0545168
0.0564186
0.0583235
0.0602295
0.062135
0.0640386
0.0659386
0.0678336
0.0697221
0.0716027
0.073474
0.0753347
0.0771837
0.0790196
0.0808414
0.0826478
0.0844377
0.0862101
0.0879638
0.0896979
0.0914114
0.0931033
0.0947728
0.0964183
0.0980423
0.0996289
0.101245
0.102586
0.105013
0.00620544
0.00676171
0.00730086
0.007803
0.00826888
0.00870844
0.00912867
0.00953424
0.00992905
0.0103179
0.010706
0.0110986
0.0115001
0.0119152
0.0123465
0.0128056
0.0133018
0.0138409
0.014428
0.0150661
0.0157726
0.016559
0.0174216
0.0183573
0.0193636
0.0204408
0.0215929
0.0228181
0.0241113
0.025467
0.0268797
0.0283471
0.0298668
0.0314345
0.0330458
0.0346956
0.0363799
0.0380962
0.0398416
0.0416129
0.0434069
0.0452202
0.0470501
0.0488943
0.0507507
0.0526171
0.0544913
0.056371
0.0582542
0.0601391
0.0620242
0.063908
0.0657887
0.0676648
0.0695347
0.0713971
0.0732507
0.0750942
0.0769264
0.0787461
0.0805522
0.0823433
0.0841185
0.0858767
0.0876169
0.0893382
0.0910394
0.09272
0.0943782
0.0960165
0.0976189
0.0992534
0.10061
0.103072
0.00756795
0.00809362
0.00861837
0.00912344
0.00960846
0.0100825
0.0105513
0.0110166
0.0114787
0.0119384
0.0123962
0.0128529
0.0133094
0.0137673
0.014228
0.0146948
0.0151725
0.0156662
0.0161812
0.0167218
0.0172969
0.0179177
0.0185915
0.0193229
0.0201141
0.0209761
0.0219232
0.0229493
0.0240485
0.0252163
0.0264491
0.02775
0.0291167
0.0305433
0.0320239
0.0335519
0.0351243
0.0367388
0.038392
0.0400793
0.0417965
0.0435392
0.0453045
0.0470901
0.0488935
0.0507119
0.0525424
0.0543822
0.0562292
0.0580815
0.0599373
0.0617949
0.0636523
0.0655077
0.0673595
0.069206
0.0710461
0.0728784
0.0747017
0.0765145
0.0783156
0.0801038
0.0818779
0.083637
0.0853801
0.087106
0.0888139
0.0905029
0.0921712
0.0938217
0.0954377
0.0970888
0.09846
0.100954
0.00922713
0.00975926
0.0103021
0.0108323
0.0113461
0.011852
0.0123581
0.0128678
0.0133822
0.0139017
0.0144256
0.0149528
0.015482
0.016012
0.0165414
0.0170695
0.0175966
0.0181238
0.0186531
0.0191868
0.0197286
0.0202842
0.0208602
0.0214631
0.0220985
0.022774
0.0235014
0.0242876
0.025136
0.0260478
0.0270266
0.0280905
0.0292315
0.0304418
0.0317161
0.0330473
0.0344382
0.0358871
0.0373885
0.0389362
0.0405243
0.042148
0.0438048
0.0454922
0.0472067
0.0489443
0.0507011
0.0524736
0.0542594
0.0560565
0.0578627
0.0596757
0.061493
0.0633123
0.0651317
0.0669496
0.0687645
0.0705749
0.0723794
0.0741764
0.0759643
0.0777418
0.0795079
0.0812614
0.0830013
0.0847265
0.0864359
0.0881285
0.0898028
0.0914612
0.0930872
0.0947511
0.0961339
0.0986551
0.0114078
0.0119804
0.0125789
0.0131693
0.0137415
0.0143002
0.0148536
0.0154063
0.0159613
0.0165207
0.0170855
0.0176559
0.0182313
0.0188107
0.0193926
0.0199752
0.0205569
0.0211362
0.0217119
0.0222838
0.0228518
0.0234173
0.0239824
0.0245506
0.0251255
0.0257119
0.0263166
0.026947
0.02761
0.0283114
0.0290565
0.0298567
0.0307181
0.0316427
0.032631
0.0336784
0.0348066
0.0360091
0.0372768
0.0386032
0.0399822
0.0414101
0.042888
0.0444125
0.0459778
0.0475784
0.0492088
0.0508651
0.0525454
0.0542471
0.0559673
0.0577023
0.0594488
0.0612036
0.0629647
0.0647303
0.0664987
0.0682678
0.0700358
0.0718004
0.0735598
0.0753127
0.0770579
0.0787941
0.0805201
0.0822346
0.0839362
0.085624
0.0872961
0.0889552
0.0905843
0.0922548
0.0936439
0.096184
0.0144204
0.0150639
0.0157453
0.0164178
0.0170671
0.0176937
0.0183044
0.0189046
0.0194977
0.020087
0.020675
0.0212635
0.0218539
0.0224468
0.0230423
0.0236402
0.0242397
0.0248397
0.0254388
0.0260356
0.0266287
0.0272168
0.0277994
0.0283764
0.0289485
0.0295168
0.0300839
0.0306532
0.0312291
0.0318163
0.0324199
0.0330466
0.0337038
0.0343978
0.0351343
0.0359153
0.036751
0.0376474
0.0386057
0.0396251
0.0407028
0.0418429
0.0430557
0.0443318
0.045663
0.047043
0.0484657
0.0499293
0.0514338
0.0529754
0.0545491
0.0561497
0.0577723
0.0594133
0.0610709
0.0627432
0.0644276
0.066121
0.0678206
0.0695232
0.0712268
0.0729301
0.0746314
0.0763294
0.0780222
0.0797082
0.0813855
0.0830529
0.0847086
0.0863552
0.0879753
0.0896409
0.091027
0.0935709
0.0187103
0.0193857
0.0201241
0.0208581
0.0215679
0.0222493
0.0229064
0.0235437
0.0241647
0.0247727
0.0253708
0.0259616
0.0265473
0.0271296
0.0277101
0.0282899
0.0288698
0.0294503
0.0300312
0.0306124
0.0311931
0.0317724
0.0323492
0.0329223
0.0334907
0.0340536
0.0346106
0.035162
0.0357087
0.0362523
0.0367951
0.0373401
0.0378914
0.0384537
0.0390323
0.0396314
0.040257
0.0409158
0.0416136
0.0423547
0.0431419
0.0439784
0.0448716
0.045824
0.0468345
0.0479009
0.0490187
0.0501961
0.051437
0.0527324
0.0540744
0.0554573
0.0568753
0.0583259
0.0598097
0.0613239
0.0628637
0.0644245
0.0660023
0.0675926
0.0691937
0.0708046
0.0724232
0.0740469
0.0756732
0.0772994
0.0789232
0.0805434
0.0821577
0.0837687
0.0853588
0.0869991
0.0883661
0.0908869
0.0246756
0.0252537
0.0259548
0.0266829
0.0274008
0.028095
0.0287636
0.0294089
0.0300332
0.030639
0.0312291
0.0318059
0.0323717
0.0329285
0.0334781
0.034022
0.0345618
0.0350987
0.0356338
0.0361679
0.0367014
0.0372348
0.0377679
0.0383006
0.0388323
0.0393621
0.0398892
0.0404128
0.040932
0.0414465
0.0419561
0.0424612
0.0429627
0.0434622
0.043962
0.0444647
0.0449735
0.0454925
0.0460264
0.0465797
0.0471568
0.0477618
0.0484001
0.0490768
0.0497958
0.0505598
0.0513693
0.0522279
0.0531406
0.0541081
0.0551283
0.0561984
0.0573139
0.0584796
0.0597024
0.0609734
0.0622849
0.0636312
0.0650076
0.0664083
0.0678359
0.0692891
0.070764
0.0722561
0.0737616
0.0752768
0.0767988
0.0783265
0.0798581
0.0813952
0.0829197
0.0845008
0.0858209
0.0882727
0.032459
0.03288
0.0333909
0.033987
0.0346235
0.0352635
0.0358918
0.0365029
0.0370953
0.0376694
0.0382268
0.038769
0.0392976
0.0398142
0.0403201
0.0408169
0.0413059
0.0417883
0.0422653
0.0427382
0.0432079
0.0436753
0.0441414
0.0446066
0.0450715
0.0455363
0.0460011
0.0464657
0.0469295
0.047392
0.0478527
0.0483107
0.0487658
0.0492175
0.049666
0.0501118
0.0505555
0.0509986
0.051443
0.051891
0.0523456
0.0528096
0.0532865
0.0537804
0.0542954
0.0548353
0.0554033
0.0560028
0.0566381
0.0573129
0.0580298
0.05879
0.0595933
0.0604414
0.0613386
0.0622855
0.0632798
0.0643181
0.0653977
0.0665118
0.0676804
0.0688938
0.0701438
0.0714244
0.072731
0.0740593
0.075407
0.0767754
0.078162
0.0795668
0.0809708
0.0824385
0.0836675
0.0859761
0.0418042
0.042099
0.0424631
0.0428359
0.0432421
0.043725
0.0442438
0.0447676
0.0452855
0.0457936
0.0462899
0.0467734
0.0472441
0.0477028
0.0481504
0.0485878
0.0490159
0.0494355
0.0498476
0.0502529
0.0506525
0.0510473
0.0514382
0.0518261
0.0522119
0.0525962
0.0529797
0.053363
0.0537466
0.0541307
0.0545155
0.0549008
0.0552863
0.0556716
0.0560563
0.0564401
0.0568226
0.0572037
0.0575834
0.0579622
0.0583409
0.0587204
0.0591023
0.0594884
0.059881
0.0602827
0.0606961
0.061124
0.0615696
0.0620362
0.0625272
0.0630456
0.0635938
0.0641738
0.0647887
0.0654416
0.0661341
0.0668667
0.0676394
0.0684496
0.0693031
0.0702013
0.0711424
0.0721229
0.0731397
0.0741884
0.0752733
0.076402
0.077566
0.0787617
0.0799701
0.0812484
0.0823226
0.0843808
0.0524887
0.0526445
0.0528666
0.0530957
0.0533264
0.0535634
0.053816
0.054135
0.0545128
0.0549115
0.0553099
0.0557025
0.0560887
0.0564682
0.05684
0.0572034
0.0575582
0.0579046
0.0582432
0.0585747
0.0588996
0.0592186
0.0595322
0.0598409
0.0601455
0.0604468
0.0607453
0.061042
0.0613374
0.0616323
0.0619273
0.0622228
0.0625194
0.0628175
0.0631171
0.0634182
0.0637207
0.0640245
0.0643294
0.064635
0.0649412
0.065248
0.0655555
0.0658639
0.0661739
0.0664864
0.0668023
0.0671232
0.0674505
0.0677863
0.0681327
0.0684921
0.0688668
0.069259
0.0696713
0.0701064
0.0705668
0.0710547
0.0715721
0.0721195
0.072699
0.0733133
0.0739638
0.0746507
0.0753737
0.0761311
0.0769231
0.0777533
0.0786214
0.0795274
0.0804569
0.0814572
0.0823007
0.0839818
0.0642452
0.0642557
0.0643247
0.0644005
0.0644772
0.0645579
0.0646463
0.0647463
0.0648609
0.0649911
0.0651635
0.0653972
0.0656649
0.065942
0.0662159
0.0664839
0.0667472
0.0670065
0.0672618
0.0675125
0.0677579
0.0679976
0.0682319
0.0684609
0.0686851
0.0689052
0.0691215
0.0693346
0.0695448
0.0697529
0.0699593
0.0701646
0.0703696
0.0705748
0.0707809
0.0709883
0.0711976
0.0714092
0.0716232
0.0718398
0.0720591
0.0722811
0.0725056
0.0727327
0.0729622
0.0731941
0.0734286
0.0736659
0.0739064
0.0741508
0.0743997
0.0746543
0.0749158
0.0751855
0.0754649
0.0757558
0.0760601
0.0763796