/*--------------------------------*- C++ -*----------------------------------*\
| =========                 |                                                 |
| \\      /  F ield         | OpenFOAM: The Open Source CFD Toolbox           |
|  \\    /   O peration     | Version:  5.x                                   |
|   \\  /    A nd           | Web:      www.OpenFOAM.org                      |
|    \\/     M anipulation  |                                                 |
\*---------------------------------------------------------------------------*/
FoamFile
{
    version     2.0;
    format      ascii;
    class       volScalarField;
    location    "400";
    object      p;
}
// * * * * * * * * * * * * * * * * * * * * * * * * * * * * * * * * * * * * * //

dimensions      [0 2 -2 0 0 0 0];

internalField   nonuniform List<scalar> 
41860
(
-0.359161
49908.4
27121
89251.1
100080
110542
118844
125580
131405
136390
140730
144554
148026
151112
153985
156535
158954
161185
163272
165246
167087
168854
170523
172130
173669
175150
176584
177965
179316
180622
181909
183157
184393
185595
186792
187960
189124
190264
191403
192521
193643
194735
195746
196632
197512
198354
199191
200008
200806
201601
202368
203142
203885
204638
205364
206100
206812
207531
208233
208935
209628
210312
211004
211728
212446
213192
213938
214714
215496
216306
217146
218005
218910
219854
220841
221884
223012
224201
225558
226856
228882
229029
371.356
49923.6
27109.4
89195.9
100066
110529
118834
125572
131399
136384
140726
144550
148023
151109
153982
156533
158953
161184
163270
165245
167086
168853
170522
172129
173668
175150
176583
177965
179315
180622
181909
183156
184393
185595
186792
187959
189123
190263
191403
192521
193643
194735
195746
196632
197512
198354
199191
200008
200806
201601
202368
203142
203885
204638
205364
206100
206812
207531
208233
208935
209628
210312
211004
211728
212446
213192
213938
214714
215496
216306
217146
218005
218910
219854
220841
221884
223012
224201
225558
226856
228882
229025
933.308
49949.3
27105.7
89127.9
100051
110515
118823
125563
131391
136378
140720
144545
148019
151106
153980
156531
158950
161182
163268
165244
167084
168851
170521
172128
173667
175149
176582
177964
179314
180621
181909
183156
184392
185594
186792
187959
189123
190263
191403
192521
193643
194735
195746
196632
197511
198354
199191
200008
200806
201601
202368
203142
203885
204638
205364
206100
206812
207531
208233
208935
209628
210311
211004
211727
212446
213192
213938
214714
215496
216306
217146
218005
218910
219854
220841
221884
223012
224201
225558
226855
228882
229020
1624.77
49987.4
27110.9
89056.4
100035
110501
118812
125554
131383
136372
140715
144541
148015
151103
153977
156528
158948
161180
163267
165242
167083
168850
170520
172127
173666
175148
176582
177963
179314
180621
181908
183156
184392
185594
186791
187959
189123
190263
191403
192520
193643
194735
195745
196632
197511
198354
199190
200008
200805
201601
202367
203142
203885
204638
205363
206100
206812
207531
208233
208935
209628
210311
211004
211727
212446
213192
213938
214713
215496
216306
217146
218005
218909
219854
220841
221884
223012
224201
225558
226855
228883
229015
2494.64
50043.7
27126.6
88975.1
100019
110485
118799
125543
131375
136365
140709
144536
148011
151099
153974
156526
158946
161178
163265
165241
167082
168849
170519
172126
173665
175147
176581
177963
179313
180620
181908
183155
184391
185594
186791
187958
189122
190263
191402
192520
193642
194734
195745
196631
197511
198354
199190
200008
200805
201601
202367
203142
203885
204638
205363
206099
206811
207531
208233
208935
209628
210311
211004
211727
212446
213192
213938
214713
215495
216306
217146
218005
218909
219854
220841
221884
223012
224201
225558
226855
228883
229008
3592.15
50124.5
27157.1
88878.6
100000
110467
118785
125531
131365
136356
140702
144530
148006
151095
153970
156522
158943
161175
163263
165239
167080
168847
170517
172125
173664
175146
176580
177962
179313
180620
181907
183155
184391
185593
186791
187958
189122
190262
191402
192520
193642
194734
195745
196631
197511
198354
199190
200008
200805
201600
202367
203142
203884
204638
205363
206099
206811
207531
208232
208935
209628
210311
211004
211727
212446
213192
213938
214713
215495
216306
217146
218004
218909
219854
220841
221884
223012
224201
225558
226855
228883
229000
4951.31
50236.1
27205.9
88763.3
99979.1
110445
118768
125517
131353
136346
140694
144523
148000
151090
153965
156519
158940
161172
163260
165236
167078
168846
170516
172123
173663
175145
176579
177961
179312
180619
181906
183154
184390
185593
186790
187957
189122
190262
191402
192519
193642
194734
195745
196631
197511
198353
199190
200007
200805
201600
202367
203141
203884
204638
205363
206099
206811
207531
208232
208935
209628
210311
211004
211727
212446
213192
213938
214713
215495
216306
217146
218004
218909
219854
220841
221884
223012
224201
225558
226855
228883
228991
6610.47
50385.6
27276.3
88625
99954.3
110420
118748
125500
131339
136334
140684
144514
147992
151083
153960
156514
158936
161169
163257
165234
167076
168843
170514
172121
173662
175144
176578
177960
179311
180618
181905
183153
184390
185592
186789
187957
189121
190261
191401
192519
193641
194734
195744
196631
197510
198353
199190
200007
200805
201600
202367
203141
203884
204638
205363
206099
206811
207531
208232
208935
209628
210311
211004
211727
212446
213192
213938
214713
215495
216306
217146
218004
218909
219854
220841
221884
223012
224200
225557
226855
228884
228980
8618.22
50582.2
27373.9
88459.1
99925.1
110390
118724
125480
131322
136320
140672
144504
147984
151076
153954
156509
158931
161165
163254
165231
167073
168841
170512
172120
173660
175142
176577
177959
179310
180617
181904
183152
184389
185591
186789
187956
189121
190261
191401
192519
193641
194733
195744
196630
197510
198353
199189
200007
200804
201600
202367
203141
203884
204637
205363
206099
206811
207531
208232
208934
209628
210311
211004
211727
212446
213192
213938
214713
215495
216306
217146
218004
218909
219854
220841
221883
223011
224200
225557
226855
228884
228967
11032.5
50837.6
27505.8
88260.2
99890.6
110355
118695
125457
131302
136304
140658
144492
147974
151067
153946
156502
158925
161160
163249
165227
167069
168838
170509
172117
173658
175141
176575
177957
179308
180616
181903
183151
184388
185590
186788
187956
189120
190260
191400
192518
193641
194733
195743
196630
197510
198352
199189
200007
200804
201599
202366
203141
203884
204637
205363
206099
206811
207531
208232
208934
209627
210311
211004
211727
212446
213192
213938
214713
215495
216306
217146
218004
218909
219853
220841
221883
223011
224200
225557
226855
228884
228951
13919.7
51166.8
27681.3
88022.1
99849.8
110313
118661
125429
131278
136284
140641
144478
147961
151057
153937
156495
158919
161154
163244
165222
167066
168835
170506
172115
173655
175138
176573
177955
179307
180614
181902
183150
184387
185589
186787
187955
189119
190260
191400
192518
193640
194732
195743
196629
197509
198352
199189
200006
200804
201599
202366
203141
203884
204637
205362
206099
206811
207530
208232
208934
209627
210311
211004
211727
212446
213192
213937
214713
215495
216306
217146
218004
218909
219853
220841
221883
223011
224200
225557
226854
228884
228932
17355.5
51589.3
27912.2
87737.4
99801.4
110263
118621
125395
131250
136260
140621
144461
147947
151045
153927
156486
158911
161147
163239
165217
167061
168831
170503
172111
173653
175136
176571
177953
179305
180613
181901
183149
184386
185588
186786
187954
189118
190259
191399
192517
193639
194732
195742
196629
197509
198352
199188
200006
200804
201599
202366
203140
203883
204637
205362
206098
206810
207530
208232
208934
209627
210311
211004
211727
212446
213192
213937
214713
215495
216306
217146
218004
218909
219853
220841
221883
223011
224200
225557
226854
228885
228911
21424.8
52129.9
28213
87398.2
99744.2
110205
118574
125356
131216
136232
140598
144441
147930
151030
153914
156475
158902
161139
163232
165211
167056
168826
170498
172108
173649
175133
176568
177951
179303
180611
181899
183147
184384
185587
186785
187953
189117
190258
191398
192516
193639
194731
195742
196628
197508
198351
199188
200005
200803
201598
202366
203140
203883
204636
205362
206098
206810
207530
208232
208934
209627
210311
211003
211727
212446
213192
213937
214713
215495
216306
217146
218004
218909
219853
220841
221883
223011
224200
225558
226854
228885
228885
26221.6
52821
28602.7
86995.1
99676.3
110136
118518
125309
131177
136200
140571
144418
147910
151013
153900
156463
158891
161130
163224
165204
167050
168821
170494
172104
173646
175130
176565
177948
179300
180609
181897
183146
184383
185586
186784
187952
189116
190257
191397
192515
193638
194730
195741
196628
197507
198351
199187
200005
200803
201598
202365
203140
203883
204636
205362
206098
206810
207530
208231
208934
209627
210311
211003
211727
212446
213192
213937
214713
215495
216306
217146
218004
218909
219853
220841
221884
223011
224200
225558
226854
228885
228857
31847.8
53705
29105.2
86517.8
99595.5
110055
118452
125254
131130
136161
140538
144390
147886
150993
153882
156448
158878
161119
163214
165196
167043
168814
170488
172099
173641
175126
176562
177945
179298
180606
181895
183144
184381
185584
186782
187950
189115
190256
191396
192514
193637
194730
195740
196627
197507
198350
199187
200004
200802
201598
202365
203139
203882
204636
205361
206098
206810
207529
208231
208934
209627
210311
211003
211727
212446
213192
213937
214713
215495
216306
217146
218004
218909
219854
220841
221884
223012
224200
225558
226853
228885
228825
38411.6
54836.8
29751.7
85955.2
99499.2
109961
118374
125190
131075
136115
140499
144358
147859
150970
153862
156431
158863
161106
163203
165186
167034
168807
170481
172093
173636
175121
176558
177942
179295
180603
181892
183141
184379
185582
186780
187949
189114
190255
191395
192513
193636
194729
195739
196626
197506
198349
199186
200004
200802
201597
202364
203139
203882
204635
205361
206097
206810
207529
208231
208933
209627
210311
211003
211727
212446
213192
213938
214713
215495
216306
217146
218005
218909
219854
220841
221884
223012
224201
225558
226853
228885
228790
46023.5
56288.1
30582.7
85295.6
99383.4
109851
118283
125113
131011
136061
140454
144319
147826
150942
153838
156410
158846
161091
163190
165175
167024
168798
170474
172086
173630
175116
176553
177938
179291
180600
181889
183139
184376
185580
186779
187947
189112
190253
191394
192512
193635
194728
195738
196625
197505
198349
199185
200003
200801
201596
202364
203138
203882
204635
205361
206097
206809
207529
208231
208933
209627
210311
211004
211727
212446
213192
213938
214713
215495
216306
217146
218005
218910
219854
220841
221884
223012
224201
225558
226852
228884
228753
54791
58152.2
31651.5
84527.8
99242.8
109723
118175
125024
130935
135998
140401
144275
147787
150909
153810
156387
158825
161074
163175
165162
167013
168788
170465
172079
173624
175110
176548
177933
179287
180597
181886
183136
184374
185578
186776
187945
189110
190252
191392
192511
193634
194727
195737
196624
197504
198348
199185
200003
200800
201596
202363
203138
203881
204635
205361
206097
206809
207529
208231
208933
209627
210311
211004
211727
212446
213192
213938
214713
215496
216306
217146
218005
218910
219854
220842
221884
223012
224201
225559
226852
228883
228714
64810.4
60549.3
33028.5
83644.1
99071
109576
118050
124919
130846
135924
140339
144222
147743
150871
153777
156359
158801
161053
163157
165146
167000
168777
170455
172070
173616
175104
176542
177928
179282
180593
181882
183133
184371
185575
186774
187943
189108
190250
191391
192510
193633
194726
195736
196623
197503
198347
199184
200002
200800
201595
202363
203137
203881
204634
205360
206096
206809
207529
208230
208933
209627
210311
211004
211727
212446
213192
213938
214714
215496
216307
217147
218006
218910
219855
220842
221885
223013
224202
225559
226852
228882
228674
76153.8
63632.6
34807.3
82643.3
98859.7
109406
117903
124796
130741
135837
140266
144161
147690
150827
153739
156327
158774
161029
163137
165128
166984
168764
170443
172060
173607
175096
176536
177922
179277
180588
181878
183129
184368
185572
186771
187941
189106
190248
191389
192508
193631
194725
195735
196622
197502
198346
199183
200001
200799
201595
202362
203137
203881
204634
205360
206096
206809
207528
208230
208933
209627
210311
211004
211727
212447
213193
213939
214714
215497
216307
217147
218006
218911
219855
220843
221885
223013
224202
225560
226851
228882
228635
88858.3
67594.4
37112.5
81536.9
98599.6
109214
117734
124654
130620
135737
140182
144090
147629
150776
153695
156289
158742
161002
163113
165108
166967
168748
170430
172048
173597
175087
176528
177915
179271
180583
181874
183125
184364
185569
186769
187939
189104
190246
191387
192507
193630
194724
195734
196621
197501
198345
199182
200000
200799
201594
202362
203136
203880
204633
205360
206096
206809
207528
208231
208933
209627
210312
211005
211728
212447
213193
213940
214715
215497
216308
217148
218007
218912
219856
220844
221886
223014
224203
225561
226851
228884
228604
102919
72671
40110.4
80358.2
98279.6
109000
117541
124490
130480
135620
140085
144008
147559
150716
153644
156247
158705
160970
163086
165085
166947
168731
170415
172036
173586
175078
176520
177908
179265
180577
181869
183121
184360
185566
186766
187936
189102
190244
191385
192505
193628
194723
195733
196620
197500
198345
199181
200000
200798
201594
202362
203136
203880
204633
205360
206096
206809
207528
208231
208933
209627
210313
211006
211729
212448
213194
213941
214716
215499
216309
217149
218008
218913
219857
220845
221887
223015
224204
225562
226851
228887
228591
118269
79145.7
44021.5
79177.1
97888.5
108768
117326
124304
130320
135487
139973
143914
147479
150649
153586
156198
158663
160934
163056
165059
166925
168712
170399
172021
173574
175067
176510
177900
179258
180571
181864
183117
184356
185563
186763
187934
189099
190243
191384
192504
193627
194722
195732
196619
197499
198344
199181
199999
200798
201593
202362
203136
203880
204633
205360
206096
206809
207528
208231
208934
209628
210314
211007
211730
212450
213195
213942
214717
215500
216310
217150
218010
218914
219859
220846
221889
223017
224205
225563
226851
228892
228603
134732
87339.1
49133.9
78122.7
97418.9
108525
117093
124098
130140
135337
139848
143808
147389
150573
153521
156143
158616
160894
163022
165029
166900
168691
170380
172006
173560
175056
176501
177892
179251
180565
181858
183112
184352
185560
186760
187931
189097
190241
191382
192502
193626
194721
195731
196618
197498
198343
199180
199999
200798
201593
202362
203135
203881
204633
205361
206096
206810
207529
208232
208934
209629
210315
211009
211731
212451
213197
213944
214719
215502
216312
217152
218012
218916
219861
220848
221891
223019
224207
225565
226851
228897
228645
151968
97572.4
55811.8
77418.5
96877.6
108280
116852
123875
129944
135172
139708
143691
147288
150489
153448
156082
158564
160850
162985
164997
166873
168668
170361
171989
173546
175044
176490
177883
179244
180559
181853
183108
184348
185557
186757
187929
189095
190239
191381
192501
193625
194721
195730
196618
197497
198343
199180
199999
200798
201593
202362
203136
203881
204633
205361
206096
206811
207530
208233
208936
209630
210317
211011
211733
212454
213199
213946
214721
215504
216314
217155
218014
218918
219863
220851
221893
223021
224209
225567
226851
228902
228714
169451
110096
64491.6
77430.5
96312
108054
116628
123648
129736
134995
139559
143565
147180
150398
153370
156017
158508
160803
162945
164963
166845
168644
170340
171972
173531
175031
176480
177874
179236
180553
181848
183104
184345
185554
186754
187928
189094
190238
191380
192501
193624
194721
195730
196618
197497
198344
199180
199999
200798
201594
202363
203136
203882
204634
205363
206097
206812
207531
208235
208937
209632
210320
211014
211736
212457
213202
213949
214724
215507
216318
217158
218017
218922
219866
220854
221896
223023
224211
225569
226852
228907
228807
186463
124966
75644.8
78712.9
95856.1
107879
116458
123440
129531
134817
139406
143436
147067
150304
153289
155950
158451
160754
162905
164929
166817
168620
170320
171955
173518
175020
176471
177867
179230
180548
181844
183101
184343
185553
186753
187927
189093
190239
191380
192502
193625
194723
195731
196619
197498
198345
199181
200000
200800
201595
202365
203138
203884
204636
205365
206099
206814
207533
208237
208940
209635
210323
211018
211740
212461
213205
213953
214728
215512
216321
217162
218022
218925
219870
220858
221900
223026
224214
225570
226853
228910
228918
202136
141869
89685.2
82029.5
95800.8
107816
116401
123296
129353
134653
139263
143313
146959
150213
153210
155884
158395
160708
162867
164897
166790
168598
170302
171941
173506
175011
176464
177861
179226
180546
181842
183101
184342
185553
186754
187928
189094
190240
191381
192504
193627
194726
195733
196621
197499
198347
199183
200003
200802
201597
202368
203140
203887
204638
205368
206102
206817
207535
208240
208943
209639
210328
211023
211745
212466
213210
213959
214732
215517
216327
217167
218027
218930
219875
220862
221904
223030
224217
225572
226855
228909
229044
215569
159973
106784
88317.8
96688.5
107991
116533
123286
129248
134530
139149
143212
146867
150135
153141
155829
158348
160669
162836
164871
166770
168582
170290
171931
173499
175007
176461
177860
179226
180547
181844
183103
184345
185557
186757
187932
189098
190244
191385
192508
193630
194730
195737
196625
197503
198351
199187
200006
200806
201600
202372
203143
203891
204642
205372
206105
206822
207539
208245
208947
209644
210334
211030
211751
212473
213217
213965
214739
215523
216333
217173
218033
218936
219881
220868
221909
223034
224220
225572
226857
228902
229183
226045
177933
126588
98519.2
99412.4
108696
116956
123507
129289
134494
139094
143158
146812
150087
153097
155794
158319
160645
162819
164858
166762
168578
170287
171931
173501
175010
176466
177866
179233
180554
181851
183111
184353
185565
186765
187940
189105
190252
191392
192515
193637
194738
195743
196631
197508
198358
199193
200012
200812
201606
202378
203148
203897
204647
205378
206111
206828
207545
208251
208954
209651
210342
211039
211759
212482
213225
213974
214747
215532
216341
217181
218041
218943
219887
220874
221914
223037
224223
225571
226859
228886
229333
233329
194219
147973
113190
105204
110562
117867
124088
129591
134624
139150
143186
146822
150092
153096
155795
158322
160650
162827
164867
166774
168591
170302
171947
173517
175027
176483
177883
179250
180571
181867
183128
184368
185581
186779
187955
189119
190265
191404
192527
193648
194750
195754
196641
197517
198367
199202
200021
200821
201614
202387
203156
203906
204655
205387
206118
206836
207553
208259
208962
209660
210353
211050
211769
212493
213235
213985
214757
215542
216351
217190
218050
218952
219895
220881
221920
223041
224225
225568
226860
228857
229483
237757
207569
169086
131954
115303
114696
119724
125221
130309
135047
139403
143355
146940
150183
153166
155857
158376
160698
162873
164911
166817
168632
170342
171985
173554
175063
176518
177917
179282
180602
181897
183156
184395
185607
186803
187978
189140
190286
191423
192546
193665
194768
195770
196657
197531
198381
199215
200034
200834
201626
202399
203168
203918
204666
205398
206129
206847
207563
208270
208973
209672
210366
211064
211783
212507
213248
213998
214770
215555
216363
217202
218062
218962
219904
220889
221926
223044
224226
225560
226858
228810
229622
240055
217449
187846
153109
130215
122491
123449
127304
131657
135936
139990
143763
147237
150414
153347
156010
158508
160814
162979
165005
166906
168714
170419
172058
173622
175128
176579
177975
179337
180654
181945
183203
184438
185648
186841
188015
189174
190319
191453
192575
193692
194794
195794
196680
197552
198402
199235
200053
200853
201644
202417
203184
203935
204681
205414
206144
206863
207578
208285
208989
209688
210384
211083
211800
212525
213265
214016
214786
215571
216378
217216
218075
218974
219915
220897
221931
223045
224223
225546
226849
228742
229730
240966
224199
202748
173904
148902
134885
130360
131160
134040
137528
141096
144554
147821
150864
153702
156303
158755
161028
163168
165174
167060
168855
170549
172178
173733
175232
176676
178066
179422
180734
182020
183273
184504
185710
186899
188069
189225
190366
191498
192617
193730
194832
195829
196713
197583
198432
199263
200080
200880
201669
202442
203207
203959
204703
205437
206165
206884
207599
208306
209009
209709
210406
211107
211823
212547
213287
214037
214806
215590
216397
217233
218091
218987
219926
220905
221936
223043
224215
225522
226830
228646
229786
241026
228577
213458
191674
168702
151296
141445
137984
138258
140278
142996
145924
148847
151654
154326
156811
159176
161385
163478
165447
167305
169075
170749
172362
173902
175389
176821
178201
179547
180852
182130
183376
184600
185800
186983
188148
189298
190435
191561
192677
193786
194886
195879
196760
197627
198474
199304
200119
200917
201704
202476
203240
203991
204734
205467
206194
206912
207626
208333
209037
209737
210435
211137
211852
212576
213315
214064
214832
215615
216420
217254
218110
219003
219938
220912
221937
223035
224199
225484
226791
228516
229768
240560
231233
220559
205108
186567
169334
156243
148587
145370
145003
146221
148212
150541
152954
155352
157640
159858
161957
163966
165870
167678
169407
171048
172632
174149
175615
177029
178394
179726
181018
182284
183520
184734
185925
187099
188257
189400
190530
191650
192760
193864
194959
195948
196825
197688
198533
199360
200172
200968
201753
202523
203285
204034
204776
205507
206233
206951
207663
208370
209073
209773
210473
211175
211889
212613
213349
214098
214863
215644
216447
217278
218131
219019
219949
220916
221933
223018
224169
225427
226723
228342
229654
239765
232682
224992
214306
200620
186046
172577
162349
155863
152566
151575
152021
153320
155047
156981
158947
160926
162844
164715
166511
168235
169897
171484
173023
174501
175936
177322
178663
179974
181247
182496
183717
184917
186096
187258
188405
189537
190659
191770
192873
193968
195058
196041
196913
197770
198611
199435
200243
201036
201818
202586
203345
204092
204831
205561
206285
207001
207712
208418
209120
209820
210520
211223
211936
212658
213393
214139
214902
215680
216479
217306
218153
219036
219957
220916
221920
222988
224119
225342
226613
228117
229433
238765
233292
227603
220160
210517
199434
187751
177194
168848
163056
159638
158053
157809
158418
159567
160988
162570
164198
165846
167471
169060
170614
172114
173581
175001
176386
177730
179035
180314
181560
182784
183983
185163
186324
187470
188602
189721
190830
191929
193021
194107
195188
196163
197029
197880
198715
199534
200337
201126
201904
202669
203423
204168
204904
205631
206352
207066
207775
208480
209181
209880
210580
211283
211994
212713
213445
214188
214947
215721
216516
217336
218177
219051
219961
220906
221893
222939
224042
225220
226447
227828
229097
237640
233333
229012
223693
216951
208989
199931
190733
182303
175300
170071
166535
164505
163625
163612
164169
165104
166257
167546
168899
170276
171661
173026
174382
175709
177017
178297
179548
180780
181985
183174
184341
185493
186629
187752
188863
189964
191055
192139
193216
194288
195358
196323
197180
198023
198851
199662
200460
201243
202015
202775
203525
204266
204997
205721
206438
207150
207856
208558
209257
209955
210654
211355
212064
212780
213508
214247
215001
215768
216556
217368
218199
219061
219957
220883
221848
222863
223929
225050
226216
227469
228651
236451
233002
229635
225711
220912
215278
208668
201477
194205
187382
181489
176736
173233
170865
169499
168924
168934
169367
170095
171018
172063
173185
174342
175528
176716
177908
179091
180260
181421
182566
183702
184824
185936
187036
188127
189209
190283
191351
192413
193471
194525
195578
196530
197375
198207
199025
199828
200618
201394
202158
202912
203656
204390
205117
205836
206548
207255
207957
208656
209352
210047
210743
211442
212147
212859
213582
214314
215061
215821
216599
217400
218217
219063
219939
220842
221776
222753
223771
224826
225913
227038
228107
235249
232441
229756
226765
223246
219206
214469
209158
203470
197690
192178
187194
182972
179590
177073
175368
174330
173857
173822
174126
174673
175397
176237
177164
178144
179162
180200
181249
182307
183364
184423
185479
186532
187581
188626
189668
190706
191741
192773
193804
194833
195864
196797
197628
198446
199251
200042
200820
201586
202341
203086
203822
204549
205268
205980
206686
207388
208084
208778
209469
210160
210851
211546
212245
212951
213667
214391
215128
215877
216642
217428
218228
219053
219904
220776
221673
222603
223561
224541
225537
226537
227483
234081
231763
229576
227230
224566
221588
218157
214298
210060
205554
200973
196499
192339
188639
185504
183008
181090
179742
178882
178449
178360
178544
178936
179491
180163
180925
181752
182623
183530
184459
185409
186369
187339
188315
189296
190280
191267
192257
193248
194242
195237
196236
197145
197956
198755
199543
200317
201081
201833
202575
203308
204033
204750
205459
206162
206860
207553
208242
208928
209612
210296
210981
211668
212360
213057
213763
214476
215200
215934
216683
217449
218227
219025
219844
220678
221529
222404
223295
224193
225092
225974
226800
232995
231054
229237
227343
225255
222981
220420
217572
214434
211035
207457
203794
200171
196718
193536
190751
188356
186412
184894
183794
183066
182660
182529
182622
182898
183320
183858
184484
185183
185933
186729
187556
188411
189287
190179
191085
192002
192930
193865
194808
195759
196716
197592
198376
199150
199914
200667
201411
202145
202871
203588
204298
205000
205697
206388
207074
207756
208434
209110
209784
210459
211134
211811
212491
213176
213868
214567
215274
215990
216717
217459
218208
218974
219755
220544
221344
222156
222975
223789
224593
225369
226091
232036
230376
228830
227251
225552
223741
221745
219561
217174
214584
211819
208921
205951
202995
200117
197442
194974
192801
190934
189402
188200
187304
186697
186338
186201
186250
186458
186796
187241
187772
188376
189037
189746
190493
191273
192080
192909
193757
194622
195502
196395
197301
198134
198884
199626
200362
201089
201808
202519
203223
203921
204612
205298
205978
206653
207324
207992
208657
209320
209981
210642
211304
211968
212634
213304
213979
214659
215347
216039
216742
217455
218173
218902
219641
220382
221127
221878
222627
223363
224082
224770
225407
231210
229762
228419
227068
225641
224145
222529
220787
218906
216877
214708
212414
210019
207575
205115
202734
200435
198302
196355
194642
193179
191968
191014
190295
189801
189508
189395
189439
189617
189910
190300
190772
191313
191912
192560
193250
193974
194729
195510
196315
197140
197983
198766
199475
200180
200881
201576
202266
202950
203630
204304
204973
205637
206298
206955
207608
208259
208907
209553
210199
210844
211490
212137
212786
213438
214093
214752
215417
216084
216759
217441
218124
218814
219510
220204
220896
221587
222271
222938
223585
224201
224770
230498
229219
228033
226854
225628
224360
223011
221578
220049
218415
216674
214833
212897
210896
208842
206804
204776
202824
200970
199259
197718
196359
195206
194247
193491
192923
192536
192315
192240
192297
192469
192742
193103
193539
194041
194598
195204
195852
196537
197254
198000
198772
199496
200157
200819
201479
202137
202792
203445
204094
204741
205384
206024
206661
207296
207928
208559
209187
209814
210441
211067
211694
212321
212950
213580
214213
214848
215487
216126
216771
217420
218067
218718
219370
220016
220657
221293
221919
222525
223110
223666
224181
229882
228740
227681
226639
225566
224470
223319
222111
220837
219488
218061
216556
214973
213328
211623
209905
208163
206447
204770
203170
201675
200298
199071
197992
197076
196322
195730
195296
195006
194852
194821
194902
195083
195352
195700
196117
196595
197126
197704
198324
198981
199672
200329
200936
201547
202160
202776
203392
204007
204623
205237
205850
206462
207072
207682
208289
208896
209501
210106
210710
211314
211918
212523
213128
213734
214342
214950
215561
216170
216782
217397
218007
218617
219227
219827
220420
221005
221577
222130
222662
223167
223638
229347
228320
227367
226434
225485
224523
223524
222487
221404
220267
219074
217822
216508
215143
213722
212279
210799
209318
207845
206406
205025
203716
202506
201400
200417
199561
198840
198257
197804
197480
197277
197187
197202
197312
197510
197785
198131
198540
199006
199522
200083
200685
201268
201814
202368
202929
203497
204068
204642
205219
205797
206376
206955
207535
208114
208694
209273
209852
210431
211009
211588
212166
212745
213325
213904
214484
215063
215643
216221
216799
217377
217950
218521
219088
219645
220192
220730
221255
221760
222246
222708
223140
228883
227952
227089
226248
225399
224546
223668
222764
221828
220855
219840
218781
217675
216529
215335
214118
212863
211596
210319
209053
207816
206617
205481
204412
203431
202544
201761
201092
200532
200086
199751
199522
199396
199366
199426
199568
199787
200075
200426
200835
201296
201805
202309
202789
203282
203786
204300
204823
205351
205884
206422
206963
207506
208051
208597
209145
209693
210242
210792
211342
211892
212442
212992
213543
214092
214642
215190
215738
216282
216825
217367
217902
218434
218960
219475
219980
220475
220957
221420
221866
222290
222689
228477
227631
226844
226082
225317
224553
223773
222977
222159
221314
220438
219531
218588
217614
216601
215567
214500
213416
212316
211215
210125
209052
208018
207024
206089
205221
204430
203726
203111
202591
202166
201836
201600
201456
201398
201423
201526
201700
201942
202247
202608
203021
203444
203855
204283
204727
205185
205654
206133
206620
207113
207612
208115
208622
209132
209645
210159
210675
211192
211710
212229
212748
213267
213786
214304
214821
215336
215850
216360
216868
217373
217870
218364
218851
219326
219791
220246
220689
221115
221524
221915
222284
228124
227350
226631
225936
225243
224554
223857
223149
222426
221684
220921
220134
219321
218483
217615
216730
215817
214887
213941
212987
212035
211088
210164
209262
208399
207581
206818
206120
205490
204937
204461
204067
203754
203524
203374
203302
203305
203380
203523
203729
203995
204317
204659
205000
205363
205745
206144