/*--------------------------------*- C++ -*----------------------------------*\
| =========                 |                                                 |
| \\      /  F ield         | OpenFOAM: The Open Source CFD Toolbox           |
|  \\    /   O peration     | Version:  5.x                                   |
|   \\  /    A nd           | Web:      www.OpenFOAM.org                      |
|    \\/     M anipulation  |                                                 |
\*---------------------------------------------------------------------------*/
FoamFile
{
    version     2.0;
    format      ascii;
    class       volScalarField;
    location    "400";
    object      p;
}
// * * * * * * * * * * * * * * * * * * * * * * * * * * * * * * * * * * * * * //

dimensions      [0 2 -2 0 0 0 0];

internalField   nonuniform List<scalar> 
11040
(
0.0131413
-93.4641
-333.792
-377.646
-376.303
-369.502
-353.473
-326.997
-293.49
-254.396
-209.832
-151.87
-97.7316
-56.4796
-24.0868
8.74936
40.7365
69.8853
95.2888
115.657
129.609
136.362
139.511
141.451
142.816
143.848
144.625
145.178
145.541
145.743
145.804
145.737
145.565
145.347
145.253
145.645
146.79
148.621
152.363
158.747
154.453
52.4145
-41.1489
-191.744
-257.512
-281.978
-296.561
-300.002
-290.128
-269.315
-239.703
-202.416
-151.369
-100.218
-58.9566
-25.9869
6.84627
38.8844
68.274
94.0324
114.85
129.244
136.242
139.462
141.418
142.787
143.828
144.616
145.18
145.554
145.766
145.834
145.773
145.603
145.376
145.254
145.598
146.684
148.429
151.948
157.983
151.391
88.0029
-6.20942
-112.605
-196.993
-238.538
-260.148
-268.512
-263.567
-247.529
-222.625
-190.355
-146.245
-99.0102
-58.6044
-25.8093
6.23956
37.8015
67.0764
92.9329
114.058
128.863
136.168
139.491
141.448
142.796
143.831
144.621
145.191
145.572
145.792
145.869
145.815
145.649
145.418
145.272
145.557
146.561
148.214
151.511
157.404
149.346
114.676
29.9782
-48.7451
-127.326
-176.178
-205.738
-222.848
-226.905
-218.81
-200.753
-174.656
-137.823
-95.5982
-57.0278
-24.7595
6.26443
37.0536
65.985
91.7974
113.162
128.39
136.091
139.582
141.542
142.862
143.872
144.65
145.218
145.604
145.829
145.913
145.867
145.704
145.468
145.292
145.5
146.386
147.901
150.915
156.573
148.304
136.731
64.0784
3.04915
-64.8928
-116.911
-152.446
-175.977
-187.349
-186.673
-175.566
-155.972
-126.54
-90.2269
-54.4509
-23.1237
6.67834
36.3497
64.6329
90.2086
111.754
127.5
135.8
139.637
141.682
142.99
143.965
144.716
145.272
145.654
145.88
145.97
145.932
145.775
145.531
145.318
145.43
146.161
147.491
150.176
155.357
147.912
154.438
94.0221
45.2306
-11.4779
-61.205
-99.1497
-126.962
-144.295
-150.541
-146.499
-133.76
-111.825
-82.0838
-50.1284
-20.468
7.78345
35.9478
63.1932
88.2192
109.749
126.005
135.109
139.546
141.828
143.18
144.125
144.837
145.366
145.731
145.951
146.044
146.014
145.863
145.612
145.358
145.356
145.896
146.997
149.328
153.811
147.924
168.649
119.329
79.5826
33.0206
-11.2255
-48.2154
-77.763
-99.0566
-110.948
-113.463
-107.577
-93.1282
-70.4696
-43.4126
-16.3807
9.86903
36.1367
61.9164
86.0009
107.188
123.794
133.795
139.099
141.875
143.41
144.369
145.037
145.521
145.854
146.056
146.143
146.117
145.971
145.714
145.416
145.291
145.612
146.456
148.416
152.082
148.176
180.015
140.07
107.412
69.4708
31.8138
-1.92076
-30.8581
-53.9032
-69.6059
-77.4401
-77.7405
-70.3306
-54.8716
-33.6023
-10.2682
13.3478
37.289
61.1513
83.8533
104.268
120.902
131.653
137.944
141.548
143.56
144.69
145.351
145.772
146.051
146.217
146.284
146.253
146.11
145.846
145.506
145.255
145.346
145.925
147.512
150.391
148.49
189.03
156.707
129.77
98.9469
67.7295
38.4334
11.8827
-10.8923
-28.4324
-39.9047
-45.1608
-43.8503
-35.1715
-20.1186
-1.43138
18.7755
39.8751
61.358
82.2359
101.433
117.666
128.776
135.847
140.429
143.26
144.908
145.784
146.203
146.39
146.473
146.494
146.443
146.293
146.024
145.649
145.285
145.157
145.483
146.721
148.986
148.793
196.083
169.845
147.577
122.56
97.0631
72.4605
49.2593
28.2457
10.6342
-2.67599
-11.2861
-14.7
-11.8467
-2.83256
10.6547
26.7324
44.4174
63.0346
81.647
99.2138
114.618
125.651
133.081
138.406
142.087
144.52
145.993
146.745
147.007
146.991
146.87
146.726
146.545
146.27
145.876
145.436
145.138
145.244
146.175
148.043
149.104
201.508
180.102
161.654
141.34
120.672
100.438
80.8545
62.4354
46.0461
32.4638
22.1468
15.6183
14.0167
17.7774
26.1003
37.641
51.4278
66.7069
82.5985
98.1165
112.263
122.865
130.308
135.974
140.183
143.254
145.422
146.825
147.572
147.806
147.696
147.401
147.036
146.648
146.221
145.759
145.378
145.34
146.052
147.69
149.513
205.605
188.042
172.725
156.203
139.498
123.054
106.903
91.3286
76.8895
64.1489
53.5093
45.4164
40.9022
40.6389
44.4389
51.5387
61.2326
72.8512
85.6221
98.6682
111.102
120.917
128.116
133.826
138.245
141.619
144.189
146.111
147.453
148.256
148.581
148.526
148.202
147.705
147.1
146.487
146.01
145.896
146.491
148.07
150.264
208.641
194.151
181.406
167.935
154.432
141.142
128.004
115.143
102.901
91.63
81.6216
73.2032
67.2007
64.2993
64.6424
67.9182
73.7568
81.6988
91.1486
101.396
111.693
120.315
126.97
132.47
136.899
140.386
143.109
145.236
146.883
148.113
148.947
149.402
149.512
149.339
148.955
148.465
147.984
147.725
148.069
149.464
151.61
210.848
198.837
188.211
177.195
166.26
155.536
144.923
134.456
124.332
114.751
105.89
97.9651
91.5743
87.2909
85.3758
85.7857
88.4184
93.048
99.294
106.651
114.544
121.605
127.37
132.361
136.573
140.035
142.825
145.05
146.816
148.213
149.307
150.136
150.715
151.062
151.199
151.22
151.249
151.452
152.045
153.508
155.241
212.416
202.423
193.551
184.516
175.636
166.975
158.423
149.971
141.722
133.789
126.255
119.25
113.178
108.463
105.357
103.935
104.243
106.234
109.72
114.399
119.881
125.184
129.788
133.979
137.701
140.926
143.66
145.939
147.817
149.357
150.621
151.671
152.56
153.333
154.021
154.681
155.387
156.261
157.388
159.317
160.957
213.516
205.183
197.767
190.331
183.095
176.082
169.189
162.384
155.718
149.251
143.012
137.067
131.68
127.139
123.638
121.273
120.148
120.306
121.696
124.174
127.514
131.098
134.44
137.658
140.677
143.444
145.927
148.12
150.039
151.711
153.172
154.465
155.638
156.748
157.854
159.021
160.312
161.823
163.562
165.94
168.063
214.324
207.364
201.159
195.02
189.102
183.403
177.832
172.349
166.977
161.743
156.653
151.732
147.148
143.088
139.683
137.014
135.181
134.26
134.265
135.155
136.825
138.942
141.114
143.355
145.595
147.776
149.853
151.799
153.611
155.295
156.866
158.348
159.771
161.173
162.598
164.1
165.73
167.572
169.657
172.177
174.838
214.876
209.002
203.751
198.611
193.699
188.999
184.427
179.947
175.567
171.3
167.141
163.093
159.263
155.772
152.705
150.118
148.09
146.693
145.965
145.91
146.491
147.565
148.837
150.276
151.827
153.44
155.072
156.69
158.281
159.839
161.368
162.877
164.383
165.907
167.477
169.12
170.866
172.76
174.832
177.136
179.663
215.229
210.193
205.681
201.304
197.154
193.205
189.383
185.654
182.02
178.484
175.039
171.68
168.476
165.508
162.831
160.481
158.518
156.998
155.96
155.426
155.392
155.816
156.486
157.356
158.387
159.542
160.782
162.08
163.417
164.784
166.177
167.597
169.049
170.544
172.096
173.716
175.415
177.214
179.124
181.149
183.307
215.472
211.1
207.173
203.394
199.834
196.463
193.215
190.06
186.997
184.023
181.13
178.312
175.614
173.093
170.783
168.71
166.915
165.442
164.324
163.585
163.235
163.285
163.58
164.073
164.741
165.555
166.484
167.507
168.604
169.766
170.985
172.256
173.578
174.953
176.386
177.879
179.434
181.058
182.752
184.511
186.339
215.65
211.816
208.366
205.066
201.977
199.063
196.268
193.565
190.95
188.419
185.963
183.576
181.289
179.142
177.158
175.354
173.76
172.408
171.325
170.534
170.048
169.9
169.974
170.231
170.655
171.226
171.922
172.722
173.612
174.581
175.62
176.722
177.883
179.1
180.372
181.696
183.07
184.494
185.966
187.478
189.029
215.791
212.401
209.346
206.44
203.733
201.191
198.761
196.422
194.166
191.991
189.886
187.848
185.897
184.061
182.358
180.8
179.406
178.201
177.207
176.443
175.921
175.682
175.635
175.75
176.018
176.423
176.946
177.574
178.293
179.093
179.966
180.904
181.901
182.951
184.051
185.197
186.382
187.606
188.864
190.148
191.454
215.908
212.892
210.169
207.592
205.202
202.965
200.836
198.794
196.833
194.949
193.132
191.379
189.705
188.13
186.667
185.324
184.116
183.061
182.176
181.476
180.971
180.703
180.599
180.633
180.803
181.095
181.495
181.992
182.574
183.234
183.962
184.751
185.594
186.486
187.423
188.398
189.406
190.443
191.506
192.587
193.681
216.012
213.312
210.872
208.573
206.449
204.469
202.591
200.797
199.08
197.437
195.859
194.343
192.899
191.544
190.285
189.129
188.088
187.173
186.399
185.777
185.317
185.054
184.928
184.921
185.03
185.247
185.559
185.957
186.431
186.975
187.581
188.241
188.95
189.701
190.491
191.312
192.16
193.033
193.924
194.828
195.739
216.107
213.679
211.482
209.419
207.522
205.759
204.093
202.508
200.998
199.557
198.18
196.862
195.612
194.441
193.357
192.362
191.467
190.68
190.011
189.47
189.063
188.822
188.695
188.669
188.743
188.91
189.159
189.482
189.872
190.322
190.826
191.377
191.97
192.6
193.262
193.95
194.66
195.39
196.134
196.887
197.645
216.196
214.003
212.016
210.158
208.455
206.878
205.393
203.986
202.65
201.382
200.175
199.025
197.939
196.926
195.989
195.134
194.365
193.69
193.117
192.652
192.301
192.09
191.973
191.941
191.995
192.127
192.33
192.596
192.919
193.294
193.715
194.175
194.671
195.198
195.752
196.327
196.92
197.528
198.148
198.775
199.404
216.28
214.291
212.488
210.808
209.273
207.856
206.527
205.273
204.088
202.966
201.904
200.898
199.952
199.073
198.264
197.527
196.868
196.291
195.802
195.407
195.109
194.929
194.826
194.795
194.838
194.948
195.116
195.338
195.609
195.922
196.274
196.66
197.076
197.516
197.979
198.459
198.954
199.461
199.977
200.499
201.021
216.362
214.551
212.909
211.383
209.995
208.717
207.524
206.402
205.346
204.352
203.415
202.531
201.705
200.941
200.241
199.606
199.041
198.55
198.135
197.801
197.551
197.4
197.314
197.288
197.325
197.418
197.56
197.748
197.976
198.24
198.536
198.86
199.209
199.578
199.965
200.366
200.779
201.202
201.632
202.067
202.501
216.44
214.786
213.285
211.895
210.635
209.479
208.403
207.396
206.453
205.57
204.741
203.963
203.24
202.575
201.969
201.423
200.939
200.52
200.17
199.889
199.681
199.557
199.486
199.467
199.5
199.581
199.704
199.864
200.058
200.281
200.531
200.805
201.097
201.407
201.732
202.068
202.413
202.767
203.126
203.488
203.85
216.515
214.999
213.622
212.352
211.205
210.156
209.183
208.277
207.432
206.645
205.91
205.225
204.591
204.011
203.486
203.016
202.602
202.246
201.95
201.716
201.544
201.444
201.388
201.375
201.407
201.478
201.585
201.722
201.888
202.078
202.29
202.521
202.768
203.029
203.302
203.584
203.873
204.169
204.469
204.772
205.074
216.587
215.193
213.927
212.762
211.713
210.758
209.877
209.059
208.301
207.598
206.945
206.34
205.784
205.278
204.823
204.418
204.064
203.762
203.514
203.319
203.178
203.099
203.055
203.048
203.078
203.143
203.236
203.355
203.498
203.661
203.841
204.037
204.246
204.466
204.696
204.933
205.176
205.424
205.675
205.93
206.182
216.657
215.369
214.201
213.13
212.169
211.296
210.495
209.756
209.073
208.444
207.863
207.329
206.84
206.399
206.005
205.656
205.353
205.098
204.889
204.728
204.614
204.552
204.519
204.517
204.547
204.605
204.688
204.792
204.915
205.054
205.208
205.375
205.552
205.739
205.933
206.133
206.337
206.546
206.757
206.97
207.181
216.723
215.53
214.448
213.46
212.576
211.777
211.047
210.376
209.761
209.197
208.68
208.207
207.778
207.392
207.051
206.751
206.493
206.277
206.103
205.97
205.878
205.831
205.807
205.809
205.839
205.892
205.965
206.056
206.163
206.283
206.415
206.557
206.708
206.866
207.03
207.199
207.371
207.547
207.725
207.904
208.082
216.786
215.677
214.671
213.756
212.94
212.207
211.539
210.929
210.374
209.867
209.406
208.987
208.61
208.274
207.978
207.721
207.501
207.319
207.174
207.066
206.993
206.957
206.941
206.947
206.976
207.025
207.09
207.17
207.263
207.366
207.48
207.602
207.73
207.864
208.004
208.146
208.292
208.441
208.59
208.742
208.891
216.845
215.81
214.872
214.021
213.266
212.59
211.978
211.423
210.92
210.464
210.053
209.682
209.35
209.057
208.801
208.58
208.394
208.242
208.122
208.034
207.976
207.951
207.941
207.95
207.978
208.023
208.081
208.152
208.233
208.323
208.42
208.525
208.634
208.749
208.867
208.988
209.111
209.237
209.363
209.491
209.617
216.9
215.93
215.052
214.258
213.557
212.931
212.369
211.862
211.405
210.995
210.628
210.299
210.008
209.753
209.532
209.343
209.185
209.058
208.96
208.889
208.845
208.828
208.823
208.835
208.862
208.903
208.956
209.018
209.089
209.167
209.251
209.341
209.435
209.532
209.633
209.736
209.84
209.946
210.053
210.161
210.267
216.952
216.038
215.212
214.469
213.815
213.234
212.715
212.251
211.836
211.467
211.138
210.847
210.592
210.37
210.179
210.019
209.886
209.78
209.7
209.644
209.611
209.601
209.601
209.614
209.641
209.679
209.726
209.782
209.844
209.912
209.985
210.062
210.142
210.225
210.311
210.398
210.487
210.577
210.667
210.758
210.848
217
216.135
215.355
214.655
214.042
213.501
213.021
212.595
212.218
211.884
211.59
211.333
211.108
210.916
210.753
210.617
210.506
210.419
210.355
210.311
210.288
210.283
210.287
210.302
210.328
210.363
210.406
210.456
210.51
210.57
210.633
210.699
210.768
210.84
210.913
210.987
211.062
211.138
211.215
211.292
211.367
217.043
216.22
215.479
214.818
214.241
213.736
213.29
212.897
212.553
212.251
211.989
211.761
211.565
211.398
211.259
211.144
211.053
210.982
210.931
210.899
210.883
210.884
210.891
210.906
210.932
210.965
211.004
211.047
211.096
211.148
211.203
211.26
211.319
211.38
211.443
211.506
211.57
211.634
211.699
211.764
211.827
217.083
216.295
215.588
214.959
214.414
213.938
213.523
213.16
212.845
212.573
212.337
212.136
211.965
211.822
211.704
211.608
211.533
211.477
211.439
211.416
211.407
211.412
211.421
211.439
211.464
211.495
211.53
211.57
211.613
211.659
211.707
211.756
211.808
211.86
211.913
211.967
212.021
212.076
212.13
212.185
212.238
217.117
216.359
215.68
215.08
214.561
214.112
213.722
213.386
213.097
212.85
212.64
212.462
212.314
212.191
212.092
212.014
211.954
211.91
211.882
211.867
211.863
211.872
211.884
211.902
211.926
211.955
211.988
212.024
212.062
212.103
212.145
212.188
212.232
212.277
212.323
212.368
212.415
212.461
212.507
212.553
212.598
217.148
216.413
215.756
215.179
214.683
214.256
213.89
213.577
213.312
213.087
212.899
212.743
212.615
212.511
212.429
212.366
212.319
212.287
212.268
212.261
212.264
212.275
212.29
212.31
212.334
212.362
212.393
212.426
212.461
212.497
212.534
212.572
212.611
212.649
212.688
212.728
212.767
212.806
212.844
212.883
212.92
217.173
216.455
215.817
215.258
214.78
214.373
214.027
213.734
213.489
213.285
213.118
212.98
212.87
212.783
212.716
212.667
212.632
212.61
212.599
212.597
212.604
212.619
212.635
212.655
212.679
212.706
212.735
212.765
212.797
212.829
212.862
212.895
212.929
212.963
212.996
213.03
213.063
213.096
213.129
213.162
213.194
217.194
216.488
215.862
215.317
214.853
214.461
214.132
213.857
213.631
213.445
213.296
213.176
213.083
213.011
212.959
212.923
212.9
212.888
212.886
212.891
212.904
212.922
212.942
212.964
212.989
213.016
213.045
213.073
213.103
213.133
213.162
213.192
213.222
213.251
213.28
213.309
213.338
213.365
213.393
213.42
213.446
217.21
216.511
215.893
215.358
214.905
214.525
214.209
213.949
213.738
213.568
213.435
213.331
213.253
213.195
213.155
213.129
213.115
213.111
213.115
213.125
213.141
213.161
213.182
213.205
213.23
213.257
213.284
213.311
213.338
213.365
213.392
213.419
213.445
213.471
213.497
213.522
213.547
213.571
213.594
213.617
213.64
217.222
216.523
215.91
215.38
214.935
214.564
214.259
214.011
213.813
213.657
213.537
213.448
213.384
213.341
213.315
213.303
213.302
213.309
213.323
213.341
213.364
213.389
213.415
213.441
213.469
213.497
213.524
213.551
213.578
213.604
213.63
213.655
213.678
213.702
213.724
213.746
213.767
213.787
213.807
213.826
213.844
217.227
216.518
215.899
215.37
214.927
214.563
214.267
214.031
213.846
213.704
213.598
213.522
213.469
213.436
213.418
213.413
213.418
213.431
213.449
213.471
213.496
213.523
213.549
213.577
213.604
213.632
213.659
213.685
213.711
213.736
213.76
213.783
213.805
213.826
213.847
213.866
213.885
213.903
213.92
213.937
213.953
217.224
216.497
215.866
215.33
214.884
214.522
214.232
214.005
213.831
213.703
213.612
213.553
213.52
213.507
213.51
213.526
213.55
213.58
213.613
213.646
213.68
213.715
213.748
213.781
213.812
213.843
213.872
213.899
213.925
213.95
213.973
213.995
214.016
214.035
214.054
214.071
214.087
214.103
214.117
214.131
214.144
160.207
164.897
171.114
176.056
181.201
186.612
191.808
196.603
200.92
204.717
207.994
210.776
213.105
215.028
216.595
217.852
218.847
219.62
220.208
220.644
220.957
221.169
221.302
221.37
221.389
221.37
221.321
221.249
221.162
221.063
220.956
220.845
220.733
220.62
220.508
220.4
220.295
220.194
220.097
220.004
219.916
219.833
219.753
219.678
219.607
219.54
219.477
219.417
219.36
219.307
219.256
219.209
219.164
219.121
219.081
219.043
219.007
218.973
218.941
218.911
218.882
218.855
218.829
218.805
218.783
218.762
218.742
218.725
218.709
218.696
218.682
218.678
218.662
218.684
156.539
162.837
169.421
174.933
180.463
186.102
191.468
196.393
200.805
204.672
207.995
210.807
213.153
215.086
216.655
217.911
218.901
219.668
220.25
220.68
220.986
221.192
221.319
221.382
221.397
221.373
221.321
221.246
221.156
221.056
220.947
220.835
220.721
220.608
220.496
220.387
220.281
220.18
220.083
219.99
219.902
219.819
219.74
219.665
219.594
219.528
219.464
219.405
219.349
219.296
219.245
219.198
219.153
219.111
219.071
219.034
218.998
218.965
218.933
218.903
218.874
218.847
218.822
218.798
218.776
218.755
218.736
218.719
218.703
218.69
218.677
218.673
218.657
218.679
153.26
159.602
166.991
173.439
179.524
185.484
191.074
196.158
200.684
204.63
208.007
210.853
213.218
215.159
216.731
217.984
218.968
219.728
220.301
220.722
221.02
221.219
221.338
221.396
221.405
221.377
221.321
221.243
221.15
221.047
220.937
220.823
220.708
220.594
220.481
220.372
220.266
220.164
220.067
219.975
219.887
219.804
219.725
219.651
219.58
219.514
219.451
219.392
219.336
219.283
219.233
219.187
219.142
219.1
219.061
219.024
218.988
218.955
218.924
218.894
218.866
218.839
218.814
218.791
218.769
218.748
218.729
218.712
218.697
218.684
218.671
218.668
218.652
218.675
150.546
156.36
164.137
171.523
178.325
184.723
190.607
195.897
200.561
204.599
208.036
210.919
213.305
215.255
216.826
218.074
219.05
219.799
220.362
220.773
221.061
221.25
221.362
221.412
221.415
221.381
221.32
221.239
221.143
221.037
220.925
220.81
220.693
220.578
220.465
220.355
220.249
220.147
220.05
219.958
219.87
219.787
219.709
219.635
219.565
219.499
219.436
219.377
219.322
219.27
219.22
219.174
219.13
219.089
219.05
219.013
218.978
218.945
218.914
218.884
218.857
218.83
218.806
218.782
218.761
218.741
218.722
218.705
218.69
218.678
218.665
218.663
218.647
218.67
148.907
153.925
161.392
169.321
176.836
183.781
190.045
195.595
200.437
204.589
208.095
211.017
213.423
215.379
216.948
218.188
219.152
219.888
220.437
220.834
221.109
221.288
221.389
221.431
221.426
221.386
221.32
221.234
221.135
221.026
220.911
220.794
220.676
220.56
220.446
220.335
220.229
220.127
220.031
219.939
219.851
219.769
219.691
219.617
219.547
219.482
219.42
219.362
219.307
219.255
219.206
219.16
219.117
219.076
219.037
219.001
218.966
218.934
218.903
218.874
218.847
218.821
218.797
218.774
218.752
218.733
218.714
218.698
218.683
218.672
218.659
218.657
218.642
218.665
148.173
152.39
159.219
167.205
175.184
182.659
189.371
195.24
200.301
204.601
208.197
211.163
213.587
215.545
217.107
218.332
219.28
219.998
220.529
220.909
221.169
221.333
221.422
221.453
221.44
221.392
221.32
221.229
221.125
221.013
220.895
220.776
220.657
220.539
220.424
220.313
220.207
220.105
220.008
219.917
219.83
219.748
219.67
219.597
219.528
219.463
219.402
219.344
219.29
219.239
219.191
219.145
219.102
219.062
219.024
218.988
218.954
218.922
218.892
218.863
218.836
218.811
218.787
218.764
218.743
218.724
218.706
218.69
218.676
218.665
218.653
218.651
218.636
218.659
148.153
151.759
157.934
165.596
173.674
181.482
188.604
194.832
200.15
204.624
208.335
211.366
213.812
215.768
217.315
218.519
219.442
220.136
220.644
221.002
221.242
221.389
221.463
221.481
221.456
221.4
221.319
221.222
221.114
220.997
220.877
220.755
220.634
220.515
220.399
220.288
220.181
220.08
219.983
219.892
219.806
219.724
219.647
219.575
219.507
219.442
219.382
219.325
219.271
219.221
219.173
219.129
219.086
219.047
219.009
218.974
218.94
218.909
218.879
218.851
218.825
218.8
218.776
218.754
218.734
218.715
218.697
218.682
218.668
218.657
218.646
218.644
218.63
218.653
148.797
152.048
157.663
164.826
172.669
180.52
187.873
194.403
199.994
204.665
208.501
211.61
214.098
216.061
217.589
218.762
219.651
220.312
220.788
221.118
221.332
221.457
221.512
221.514
221.476
221.408
221.319
221.215
221.1
220.979
220.855
220.731
220.608
220.487
220.371
220.259
220.152
220.051
219.955
219.864
219.778
219.698
219.622
219.55
219.483
219.419
219.359
219.303
219.251
219.201
219.154
219.11
219.069
219.03
218.993
218.958
218.926
218.895
218.866
218.838
218.812
218.788
218.765
218.744
218.724
218.705
218.688
218.673
218.659
218.649
218.638
218.637
218.623
218.647
150.027
153.206
158.403
165.054
172.477
180.093
187.42
194.078
199.869
204.734
208.708
211.894
214.422
216.403
217.926
219.072
219.92
220.536
220.971
221.263
221.445
221.541
221.573
221.555
221.501
221.42
221.319
221.206
221.084
220.958
220.83
220.702
220.577
220.455
220.338
220.225
220.119
220.018
219.922
219.832
219.747
219.667
219.592
219.522
219.455
219.393
219.334
219.279
219.228
219.179
219.133
219.09
219.05
219.011
218.976
218.942
218.91
218.879
218.851
218.824
218.799
218.775
218.753
218.732
218.712
218.695
218.678
218.664
218.65
218.641
218.63
218.629
218.616
218.641
151.665
155.044
160.07
166.274
173.233
180.45
187.517
194.076
199.895
204.865
208.956
212.225
214.792
216.78
218.293
219.42
220.238
220.814
221.201
221.446
221.585
221.646
221.648
221.606
221.531
221.433
221.32
221.196
221.066
220.933
220.8
220.669
220.541
220.417
220.299
220.186
220.08
219.979
219.884
219.795
219.711
219.633
219.559
219.49
219.425
219.363
219.306
219.252
219.202
219.154
219.11
219.068
219.028
218.991
218.956
218.923
218.892
218.863
218.835
218.809
218.784
218.761
218.74
218.719
218.701
218.683
218.667
218.653
218.641
218.632
218.622
218.621
218.609
218.634
153.392
157.194
162.357
168.336
174.882
181.654
188.337
194.61
200.26
205.17
209.275
212.588
215.195
217.194
218.688
219.781
220.564
221.106
221.458
221.662
221.758
221.776
221.741
221.667
221.567
221.45
221.32
221.184
221.044
220.903
220.764
220.629
220.498
220.372
220.253
220.14
220.034
219.934
219.84
219.752
219.67
219.593
219.521
219.453
219.389
219.33
219.274
219.222
219.173
219.127
219.083
219.043
219.004
218.968
218.935
218.903
218.873
218.844
218.817
218.792
218.769
218.746
218.725
218.706
218.688
218.671
218.656
218.642
218.63
218.622
218.613
218.613
218.601
218.626
155.022
159.264
164.723
170.775
177.127
183.564
189.847
195.744
201.093
205.785
209.759
213.014
215.61
217.612
219.095
220.155
220.891
221.384
221.693
221.864
221.929
221.917
221.848
221.741
221.611
221.469
221.32
221.168
221.017
220.867
220.722
220.581
220.447
220.32
220.199
220.086
219.98
219.882
219.789
219.703
219.622
219.547
219.477
219.411
219.349
219.292
219.238
219.187
219.14
219.095
219.054
219.015
218.978
218.943
218.911
218.88
218.851
218.824
218.798
218.774
218.751
218.73
218.71
218.691
218.674
218.658
218.643
218.631
218.619
218.611
218.603
218.604
218.593
218.618
157.06
161.459
166.962
173.084
179.406
185.698
191.728
197.314
202.336
206.736
210.479
213.57
216.064
218.013
219.465
220.498
221.201
221.649
221.906
222.025
222.052
222.014
221.926
221.802
221.653
221.489
221.319
221.149
220.983
220.823
220.669
220.524
220.386
220.256
220.135
220.022
219.917
219.82
219.729
219.645
219.567
219.494
219.426
219.362
219.303
219.248
219.196
219.148
219.102
219.06
219.02
218.983
218.948
218.915
218.884
218.855
218.827
218.801
218.777
218.754
218.732
218.712
218.693
218.675
218.659
218.644
218.63
218.618
218.608
218.6
218.593
218.594
218.584
218.61
161.16
164.829
169.664
175.544
181.668
187.719
193.519
198.897
203.707
207.865
211.362
214.246
216.576
218.406
219.781
220.767
221.439
221.861
222.082
222.157
222.136
222.055
221.936
221.792
221.635
221.469
221.295
221.117
220.94
220.769
220.606
220.453
220.312
220.18
220.058
219.946
219.842
219.747
219.658
219.577
219.501
219.431
219.366
219.306
219.25
219.197
219.148
219.102
219.06
219.02
218.982
218.947
218.914
218.883
218.854
218.826
218.8
218.776
218.753
218.731
218.711
218.692
218.674
218.657
218.642
218.628
218.615
218.604
218.595
218.588
218.582
218.584
218.575
218.601
167.101
170.309
174.41
179.735
185.31
190.719
195.888
200.703
205.04
208.831
212.075
214.776
216.952
218.65
219.934
220.867
221.511
221.921
222.139
222.21
222.176
222.071
221.918
221.738
221.552
221.37
221.193
221.02
220.851
220.685
220.523
220.368
220.222
220.088
219.965
219.854
219.752
219.66
219.575
219.497
219.425
219.358
219.297
219.24
219.188
219.139
219.093
219.05
219.011
218.973
218.939
218.906
218.875
218.847
218.82
218.794
218.77
218.748
218.727
218.707
218.688
218.67
218.654
218.638
218.624
218.611
218.6
218.59
218.581
218.576
218.57
218.573
218.565
218.592
173.01
175.906
179.234
183.533
188.212
192.898
197.513
201.96
206.084
209.756
212.908
215.516
217.585
219.147
220.266
221.025
221.512
221.804
221.959
222.015
221.994
221.913
221.782
221.614
221.428
221.235
221.042
220.857
220.685
220.526
220.377
220.237
220.103
219.976
219.856
219.746
219.645
219.555
219.474
219.401
219.334
219.272
219.216
219.163
219.115
219.07
219.029
218.99
218.954
218.92
218.889
218.859
218.832
218.806
218.781
218.758
218.737
218.716
218.697
218.679
218.662
218.646
218.631
218.617
218.604
218.593
218.582
218.574
218.566
218.562
218.557
218.561
218.554
218.582
178.299
180.91
183.674
186.903
190.439
194.094
197.795
201.479
205.049
208.404
211.46
214.152
216.436
218.293
219.734
220.791
221.503
221.915
222.084
222.073
221.945
221.761
221.559
221.36
221.17
220.987
220.806
220.628
220.457
220.297
220.149
220.016
219.897
219.791
219.693
219.601
219.515
219.433
219.358
219.289
219.227
219.17
219.12
219.073
219.03
218.99
218.954
218.92
218.888
218.859
218.831
218.806
218.781
218.759
218.738
218.717
218.699
218.681
218.664
218.648
218.633
218.619
218.606
218.594
218.583
218.572
218.564
218.556
218.55
218.547
218.543
218.548
218.543
218.571
182.135
184.345
186.654
189.143
191.816
194.616
197.488
200.389
203.268
206.068
208.736
211.224
213.489
215.497
217.218
218.635
219.744
220.554
221.096
221.411
221.544
221.534
221.42
221.238
221.019
220.793
220.578
220.383
220.21
220.056
219.916
219.788
219.673
219.571
219.481
219.403
219.334
219.272
219.213
219.157
219.104
219.056
219.011
218.97
218.934
218.9
218.869
218.841
218.815
218.79
218.767
218.746
218.726
218.707
218.689
218.672
218.656
218.641
218.627
218.614
218.601
218.59
218.579
218.568
218.559
218.551
218.543
218.537
218.533
218.531
218.529
218.535
218.531
218.56
185.246
187.072
188.985
190.977
193.074
195.268
197.527
199.822
202.123
204.397
206.609
208.725
210.716
212.555
214.223
215.705
216.991
218.078
218.963
219.651
220.146
220.465
220.63
220.673
220.624
220.51
220.357
220.185
220.009
219.843
219.695
219.568
219.459
219.365
219.283
219.21
219.146
219.09
219.043
219.001
218.963
218.927
218.892
218.86
218.83
218.803
218.778
218.756
218.735
218.716
218.698
218.681
218.665
218.651
218.637
218.624
218.611
218.599
218.588
218.578
218.568
218.558
218.549
218.541
218.534
218.527
218.522
218.517
218.514
218.514
218.513
218.521
218.518
218.548
187.943
189.428
190.98
192.581
194.255
196
197.8
199.638
201.495
203.351
205.184
206.97
208.687
210.313
211.832
213.228
214.492
215.617
216.602
217.447
218.155
218.731
219.18
219.507
219.719
219.829
219.855
219.816
219.733
219.623
219.501
219.378
219.263
219.162
219.078
219.01
218.954
218.907
218.867
218.832
218.804
218.779
218.758
218.737
218.718
218.699
218.681
218.665
218.65
218.636
218.624
218.612
218.601
218.591
218.581
218.572
218.563
218.554
218.546
218.539
218.532
218.525
218.518
218.512
218.507
218.502
218.499
218.496
218.495
218.496
218.497
218.505
218.504
218.536
190.365
191.562
192.81
194.098
195.442
196.843
198.292
199.776
201.285
202.807
204.328
205.83
207.299
208.718
210.071
211.345
212.53
213.616
214.599
215.477
216.251
216.924
217.502
217.99
218.39
218.707
218.943
219.102
219.19
219.216
219.196
219.143
219.071
218.99
218.908
218.834
218.77
218.721
218.684
218.657
218.637
218.622
218.609
218.599
218.591
218.583
218.576
218.567
218.559
218.551
218.544
218.538
218.532
218.527
218.521
218.516
218.511
218.507
218.502
218.497
218.493
218.489
218.485
218.482
218.479
218.476
218.474
218.473
218.474
218.476
218.479
218.489
218.49
218.523
192.563
193.522
194.522
195.557
196.64
197.769
198.938
200.142
201.373
202.624
203.885
205.146
206.395
207.621
208.811
209.955
211.041
212.061
213.008
213.877
214.665
215.372
215.999
216.55
217.03
217.444
217.798
218.094
218.333
218.517
218.645
218.721
218.752
218.747
218.717
218.672
218.622
218.571
218.527
218.493
218.471
218.459
218.454
218.453
218.454
218.455
218.458
218.46
218.461
218.461
218.461
218.46
218.459
218.459
218.458
218.457
218.457
218.456
218.455
218.453
218.452
218.451
218.45
218.449
218.448
218.448
218.448
218.449
218.452
218.456
218.461
218.472
218.475
218.509
194.597
195.363
196.16
196.991
197.862
198.771
199.715
200.691
201.695
202.721
203.765
204.818
205.873
206.922
207.956
208.966
209.942
210.878
211.766
212.6
213.374
214.086
214.734
215.318
215.84
216.303
216.71
217.068
217.38
217.651
217.881
218.072
218.221
218.328
218.395
218.427
218.432
218.417
218.393
218.364
218.337
218.316
218.305
218.303
218.309
218.319
218.331
218.342
218.353
218.362
218.37
218.377
218.382
218.386
218.391
218.395
218.398
218.401
218.404
218.407
218.409
218.411
218.413
218.414
218.416
218.418
218.421
218.424
218.428
218.434
218.441
218.454
218.459
218.495
196.496
197.104
197.737
198.402
199.1
199.83
200.591
201.381
202.197
203.037
203.896
204.771
205.656