/*--------------------------------*- C++ -*----------------------------------*\
| =========                 |                                                 |
| \\      /  F ield         | OpenFOAM: The Open Source CFD Toolbox           |
|  \\    /   O peration     | Version:  5.x                                   |
|   \\  /    A nd           | Web:      www.OpenFOAM.org                      |
|    \\/     M anipulation  |                                                 |
\*---------------------------------------------------------------------------*/
FoamFile
{
    version     2.0;
    format      ascii;
    class       volScalarField;
    location    "400";
    object      p;
}
// * * * * * * * * * * * * * * * * * * * * * * * * * * * * * * * * * * * * * //

dimensions      [0 2 -2 0 0 0 0];

internalField   nonuniform List<scalar> 
11040
(
0.0012283
-25.9691
-106.673
-175.807
-239.262
-293.364
-336.12
-368.543
-392.08
-407.026
-412.702
-400.744
-384.757
-375.784
-372.944
-366.628
-358.206
-349.456
-340.503
-331.082
-321.226
-312.081
-304.062
-296.248
-288.59
-281.059
-273.675
-266.409
-259.228
-252.099
-244.982
-237.829
-230.578
-223.154
-215.467
-207.396
-198.865
-189.653
-179.845
-168.651
-158.73
-9.57498
-35.6321
-96.4571
-154.871
-211.143
-262.93
-306.742
-341.831
-368.505
-386.84
-396.373
-390.946
-379.626
-372.222
-369.472
-363.932
-356.202
-347.911
-339.307
-330.18
-320.562
-311.581
-303.693
-295.972
-288.39
-280.923
-273.591
-266.368
-259.224
-252.127
-245.039
-237.913
-230.689
-223.294
-215.639
-207.607
-199.125
-189.967
-180.248
-169.04
-159.628
-23.3
-47.2184
-93.9978
-145.145
-197.022
-246.911
-290.813
-326.918
-354.889
-374.552
-385.918
-384.708
-376.156
-369.073
-365.929
-361.136
-354.088
-346.21
-337.926
-329.085
-319.707
-310.918
-303.149
-295.523
-288.021
-280.626
-273.351
-266.178
-259.076
-252.016
-244.962
-237.868
-230.676
-223.314
-215.697
-207.711
-199.291
-190.209
-180.616
-169.518
-160.536
-38.3228
-60.2389
-96.6334
-138.986
-184.253
-229.634
-271.49
-307.428
-336.342
-357.838
-371.943
-375.204
-370.151
-364.331
-361.339
-357.401
-351.183
-343.859
-336.009
-327.552
-318.497
-309.949
-302.341
-294.85
-287.463
-280.169
-272.978
-265.875
-258.835
-251.829
-244.824
-237.776
-230.631
-223.319
-215.756
-207.837
-199.503
-190.534
-181.115
-170.244
-161.685
-54.0484
-73.774
-102.209
-136.243
-174.527
-214.538
-253.235
-288.063
-317.307
-340.099
-356.337
-363.584
-362.463
-358.583
-356.012
-352.847
-347.552
-340.91
-333.582
-325.582
-316.917
-308.664
-301.263
-293.945
-286.707
-279.542
-272.458
-265.447
-258.489
-251.557
-244.62
-237.637
-230.557
-223.316
-215.832
-208.012
-199.808
-191.01
-181.842
-171.348
-163.292
-69.8767
-87.2671
-109.686
-136.607
-168.03
-202.105
-236.547
-269.068
-297.68
-321.156
-339.144
-349.876
-352.723
-351.312
-349.598
-347.292
-343.06
-337.265
-330.572
-323.115
-314.92
-307.021
-299.876
-292.772
-285.717
-278.71
-271.762
-264.87
-258.018
-251.184
-244.336
-237.439
-230.449
-223.304
-215.931
-208.248
-200.222
-191.666
-182.832
-172.877
-165.333
-85.275
-100.347
-118.233
-139.415
-164.627
-192.766
-222.316
-251.51
-278.447
-301.735
-320.756
-334.17
-340.663
-342.119
-341.814
-340.558
-337.514
-332.744
-326.837
-320.041
-312.418
-304.952
-298.121
-291.281
-284.45
-277.639
-270.86
-264.118
-257.4
-250.689
-243.958
-237.176
-230.304
-223.289
-216.065
-208.565
-200.774
-192.538
-184.125
-174.864
-167.801
-99.8366
-112.758
-127.193
-143.893
-163.84
-186.511
-211.039
-236.238
-260.562
-282.693
-301.851
-316.959
-326.433
-330.824
-332.398
-332.446
-330.713
-327.148
-322.208
-316.214
-309.287
-302.351
-295.908
-289.397
-282.848
-276.28
-269.714
-263.158
-256.609
-250.053
-243.47
-236.835
-230.117
-223.27
-216.24
-208.978
-201.487
-193.654
-185.742
-177.295
-170.704
-113.304
-124.32
-136.088
-149.342
-165.033
-182.991
-202.804
-223.792
-244.867
-264.962
-283.305
-299.011
-310.511
-317.489
-321.171
-322.777
-322.482
-320.277
-316.491
-311.464
-305.376
-299.083
-293.119
-287.017
-280.82
-274.557
-268.258
-261.939
-255.605
-249.247
-242.854
-236.408
-229.884
-223.251
-216.466
-209.499
-202.373
-195.02
-187.677
-180.106
-174.016
-125.538
-134.906
-144.584
-155.193
-167.544
-181.637
-197.334
-214.311
-231.901
-249.353
-266.05
-281.291
-293.708
-302.55
-308.203
-311.482
-312.715
-311.978
-309.509
-305.616
-300.521
-294.998
-289.617
-284.018
-278.257
-272.375
-266.411
-260.392
-254.33
-248.226
-242.076
-235.871
-229.596
-223.232
-216.751
-210.141
-203.442
-196.631
-189.907
-183.207
-177.665
-136.482
-144.444
-152.46
-161.027
-170.793
-181.826
-194.12
-207.566
-221.806
-236.378
-250.869
-264.785
-277.049
-286.808
-293.918
-298.721
-301.447
-302.198
-301.142
-298.523
-294.567
-289.946
-285.259
-280.269
-275.042
-269.628
-264.079
-258.434
-252.715
-246.933
-241.092
-235.192
-229.231
-223.201
-217.089
-210.902
-204.692
-198.469
-192.394
-186.512
-181.548
-146.137
-152.904
-159.581
-166.554
-174.33
-182.988
-192.576
-203.09
-214.365
-226.155
-238.225
-250.276
-261.54
-271.268
-279.081
-284.964
-288.946
-291.06
-291.397
-290.116
-287.407
-283.802
-279.918
-275.642
-271.05
-266.201
-261.16
-255.976
-250.682
-245.3
-239.844
-234.325
-228.751
-223.128
-217.456
-211.757
-206.089
-200.485
-195.07
-189.931
-185.536
-154.542
-160.294
-165.877
-171.591
-177.829
-184.661
-192.145
-200.321
-209.129
-218.453
-228.188
-238.181
-247.931
-256.878
-264.62
-270.96
-275.755
-278.93
-280.483
-280.477
-279.033
-276.513
-273.514
-270.043
-266.181
-261.994
-257.554
-252.923
-248.145
-243.251
-238.265
-233.209
-228.102
-222.96
-217.797
-212.644
-207.561
-202.59
-197.826
-193.358
-189.491
-161.766
-166.653
-171.332
-176.038
-181.077
-186.503
-192.37
-198.726
-205.563
-212.834
-220.507
-228.523
-236.582
-244.307
-251.374
-257.551
-262.617
-266.41
-268.846
-269.901
-269.611
-268.156
-266.069
-263.453
-260.388
-256.939
-253.185
-249.195
-245.021
-240.701
-236.272
-231.762
-227.2
-222.613
-218.02
-213.461
-208.992
-204.654
-200.519
-196.658
-193.271
-167.901
-172.045
-175.971
-179.862
-183.955
-188.293
-192.917
-197.874
-203.172
-208.802
-214.763
-221.047
-227.483
-233.837
-239.889
-245.441
-250.28
-254.217
-257.117
-258.892
-259.512
-258.992
-257.765
-255.987
-253.731
-251.058
-248.043
-244.758
-241.257
-237.587
-233.788
-229.897
-225.948
-221.974
-218
-214.066
-210.225
-206.51
-202.974
-199.671
-196.728
-173.026
-176.533
-179.826
-183.053
-186.395
-189.885
-193.553
-197.438
-201.554
-205.904
-210.502
-215.357
-220.376
-225.423
-230.359
-235.046
-239.315
-242.999
-245.956
-248.071
-249.272
-249.458
-248.948
-247.911
-246.407
-244.485
-242.211
-239.651
-236.858
-233.88
-230.758
-227.534
-224.243
-220.92
-217.592
-214.298
-211.082
-207.972
-205.006
-202.224
-199.701
-177.207
-180.165
-182.924
-185.605
-188.344
-191.166
-194.093
-197.156
-200.368
-203.737
-207.277
-211.003
-214.865
-218.783
-222.675
-226.455
-230.003
-233.193
-235.905
-238.03
-239.483
-240.105
-240.109
-239.652
-238.772
-237.509
-235.912
-234.038
-231.933
-229.64
-227.199
-224.649
-222.023
-219.356
-216.674
-214.01
-211.401
-208.869
-206.441
-204.147
-202.03
-180.422
-182.937
-185.265
-187.515
-189.791
-192.107
-194.482
-196.941
-199.494
-202.147
-204.915
-207.809
-210.8
-213.84
-216.882
-219.87
-222.726
-225.361
-227.684
-229.607
-231.054
-231.857
-232.151
-232.065
-231.625
-230.854
-229.793
-228.481
-226.958
-225.258
-223.417
-221.467
-219.439
-217.363
-215.26
-213.161
-211.093
-209.074
-207.124
-205.266
-203.524
-182.837
-185.004
-186.996
-188.913
-190.835
-192.772
-194.739
-196.755
-198.829
-200.965
-203.176
-205.47
-207.828
-210.221
-212.617
-214.983
-217.265
-219.402
-221.329
-222.979
-224.291
-225.114
-225.535
-225.653
-225.484
-225.044
-224.36
-223.464
-222.383
-221.146
-219.782
-218.317
-216.776
-215.183
-213.558
-211.924
-210.304
-208.711
-207.16
-205.67
-204.254
-184.672
-186.557
-188.282
-189.937
-191.582
-193.227
-194.883
-196.566
-198.282
-200.036
-201.836
-203.689
-205.582
-207.494
-209.405
-211.292
-213.119
-214.843
-216.418
-217.796
-218.929
-219.692
-220.142
-220.357
-220.343
-220.112
-219.683
-219.078
-218.32
-217.43
-216.428
-215.338
-214.178
-212.968
-211.723
-210.463
-209.203
-207.955
-206.731
-205.545
-204.405
-186.091
-187.745
-189.252
-190.694
-192.119
-193.532
-194.945
-196.368
-197.809
-199.271
-200.759
-202.279
-203.821
-205.37
-206.911
-208.43
-209.9
-211.292
-212.572
-213.706
-214.66
-215.33
-215.761
-216.008
-216.075
-215.971
-215.709
-215.306
-214.777
-214.139
-213.408
-212.6
-211.732
-210.818
-209.871
-208.903
-207.93
-206.958
-205.998
-205.059
-204.149
-187.205
-188.664
-189.992
-191.259
-192.503
-193.729
-194.946
-196.164
-197.388
-198.621
-199.866
-201.129
-202.4
-203.669
-204.926
-206.159
-207.35
-208.478
-209.518
-210.446
-211.237
-211.809
-212.197
-212.442
-212.547
-212.516
-212.361
-212.093
-211.725
-211.268
-210.735
-210.138
-209.489
-208.8
-208.08
-207.34
-206.59
-205.836
-205.086
-204.347
-203.625
-188.088
-189.384
-190.561
-191.682
-192.776
-193.847
-194.905
-195.956
-197.006
-198.056
-199.109
-200.169
-201.228
-202.279
-203.313
-204.323
-205.295
-206.212
-207.059
-207.817
-208.468
-208.949
-209.287
-209.513
-209.629
-209.639
-209.551
-209.374
-209.116
-208.788
-208.398
-207.956
-207.471
-206.951
-206.404
-205.838
-205.26
-204.676
-204.091
-203.511
-202.941
-188.796
-189.952
-191.002
-191.999
-192.967
-193.909
-194.834
-195.749
-196.656
-197.558
-198.456
-199.353
-200.244
-201.122
-201.98
-202.814
-203.612
-204.363
-205.055
-205.674
-206.208
-206.608
-206.897
-207.098
-207.212
-207.242
-207.195
-207.078
-206.897
-206.659
-206.372
-206.043
-205.679
-205.285
-204.868
-204.435
-203.989
-203.536
-203.08
-202.625
-202.175
-189.368
-190.403
-191.344
-192.236
-193.097
-193.931
-194.745
-195.546
-196.335
-197.115
-197.887
-198.652
-199.406
-200.145
-200.863
-201.555
-202.215
-202.833
-203.401
-203.908
-204.347
-204.678
-204.922
-205.096
-205.201
-205.24
-205.217
-205.14
-205.011
-204.838
-204.625
-204.378
-204.103
-203.803
-203.484
-203.15
-202.806
-202.454
-202.097
-201.739
-201.384
-189.833
-190.764
-191.611
-192.412
-193.182
-193.924
-194.644
-195.349
-196.04
-196.718
-197.385
-198.042
-198.685
-199.311
-199.915
-200.494
-201.043
-201.555
-202.022
-202.44
-202.8
-203.073
-203.278
-203.427
-203.52
-203.561
-203.553
-203.501
-203.409
-203.281
-203.122
-202.935
-202.725
-202.496
-202.25
-201.991
-201.724
-201.448
-201.169
-200.887
-200.606
-190.214
-191.054
-191.82
-192.543
-193.233
-193.896
-194.537
-195.16
-195.768
-196.361
-196.941
-197.508
-198.06
-198.593
-199.104
-199.591
-200.05
-200.476
-200.863
-201.207
-201.503
-201.729
-201.9
-202.027
-202.108
-202.147
-202.147
-202.112
-202.046
-201.95
-201.829
-201.687
-201.525
-201.348
-201.157
-200.956
-200.746
-200.53
-200.31
-200.087
-199.864
-190.526
-191.288
-191.983
-192.637
-193.26
-193.855
-194.427
-194.981
-195.518
-196.039
-196.545
-197.037
-197.513
-197.969
-198.404
-198.816
-199.202
-199.557
-199.879
-200.164
-200.409
-200.595
-200.738
-200.845
-200.915
-200.95
-200.955
-200.931
-200.882
-200.81
-200.717
-200.607
-200.482
-200.344
-200.194
-200.036
-199.871
-199.701
-199.526
-199.349
-199.171
-190.784
-191.477
-192.111
-192.705
-193.268
-193.804
-194.317
-194.811
-195.288
-195.748
-196.192
-196.62
-197.032
-197.425
-197.797
-198.147
-198.472
-198.77
-199.039
-199.276
-199.478
-199.633
-199.752
-199.842
-199.901
-199.933
-199.939
-199.923
-199.886
-199.831
-199.759
-199.673
-199.575
-199.466
-199.349
-199.224
-199.093
-198.957
-198.818
-198.676
-198.534
-190.998
-191.631
-192.21
-192.752
-193.263
-193.748
-194.21
-194.652
-195.077
-195.484
-195.875
-196.25
-196.608
-196.947
-197.267
-197.565
-197.841
-198.092
-198.317
-198.514
-198.682
-198.811
-198.91
-198.986
-199.036
-199.063
-199.07
-199.059
-199.031
-198.988
-198.932
-198.864
-198.786
-198.7
-198.607
-198.507
-198.403
-198.294
-198.183
-198.069
-197.954
-191.176
-191.755
-192.287
-192.783
-193.249
-193.689
-194.106
-194.504
-194.883
-195.245
-195.591
-195.92
-196.232
-196.526
-196.801
-197.057
-197.291
-197.504
-197.693
-197.858
-197.998
-198.104
-198.188
-198.251
-198.293
-198.317
-198.324
-198.316
-198.294
-198.26
-198.216
-198.162
-198.1
-198.031
-197.956
-197.876
-197.792
-197.705
-197.615
-197.523
-197.431
-191.324
-191.856
-192.346
-192.802
-193.228
-193.628
-194.007
-194.366
-194.706
-195.029
-195.335
-195.625
-195.899
-196.155
-196.392
-196.612
-196.812
-196.992
-197.151
-197.29
-197.406
-197.495
-197.565
-197.618
-197.653
-197.674
-197.68
-197.674
-197.657
-197.63
-197.594
-197.551
-197.501
-197.446
-197.385
-197.321
-197.253
-197.182
-197.109
-197.035
-196.96
-191.448
-191.939
-192.392
-192.812
-193.203
-193.569
-193.914
-194.238
-194.545
-194.834
-195.106
-195.362
-195.602
-195.825
-196.031
-196.22
-196.391
-196.545
-196.679
-196.796
-196.893
-196.967
-197.026
-197.07
-197.1
-197.117
-197.122
-197.118
-197.104
-197.083
-197.054
-197.019
-196.979
-196.934
-196.885
-196.832
-196.777
-196.72
-196.66
-196.599
-196.538
-191.551
-192.006
-192.426
-192.815
-193.175
-193.511
-193.826
-194.121
-194.398
-194.657
-194.9
-195.127
-195.338
-195.533
-195.712
-195.875
-196.022
-196.152
-196.267
-196.365
-196.446
-196.508
-196.557
-196.594
-196.619
-196.634
-196.638
-196.635
-196.624
-196.607
-196.583
-196.555
-196.522
-196.485
-196.445
-196.403
-196.357
-196.31
-196.262
-196.212
-196.162
-191.638
-192.061
-192.452
-192.813
-193.147
-193.456
-193.745
-194.013
-194.264
-194.498
-194.715
-194.916
-195.103
-195.274
-195.43
-195.571
-195.697
-195.808
-195.905
-195.988
-196.056
-196.108
-196.149
-196.18
-196.201
-196.213
-196.217
-196.214
-196.205
-196.191
-196.172
-196.149
-196.122
-196.092
-196.059
-196.024
-195.987
-195.949
-195.909
-195.868
-195.827
-191.71
-192.105
-192.471
-192.808
-193.118
-193.405
-193.67
-193.916
-194.143
-194.354
-194.549
-194.729
-194.893
-195.044
-195.179
-195.302
-195.41
-195.505
-195.588
-195.657
-195.715
-195.758
-195.793
-195.819
-195.836
-195.846
-195.85
-195.847
-195.84
-195.828
-195.812
-195.793
-195.771
-195.746
-195.719
-195.691
-195.66
-195.629
-195.596
-195.562
-195.529
-191.771
-192.142
-192.486
-192.801
-193.091
-193.357
-193.602
-193.827
-194.035
-194.226
-194.401
-194.561
-194.707
-194.839
-194.958
-195.064
-195.158
-195.239
-195.309
-195.368
-195.416
-195.452
-195.481
-195.503
-195.518
-195.526
-195.528
-195.527
-195.52
-195.511
-195.498
-195.482
-195.464
-195.443
-195.421
-195.397
-195.373
-195.346
-195.32
-195.292
-195.264
-191.822
-192.171
-192.496
-192.794
-193.065
-193.313
-193.54
-193.748
-193.938
-194.112
-194.27
-194.413
-194.543
-194.659
-194.763
-194.855
-194.935
-195.005
-195.064
-195.114
-195.155
-195.185
-195.209
-195.227
-195.239
-195.246
-195.248
-195.246
-195.241
-195.233
-195.222
-195.209
-195.194
-195.177
-195.159
-195.139
-195.119
-195.097
-195.075
-195.052
-195.029
-191.865
-192.196
-192.504
-192.786
-193.041
-193.274
-193.486
-193.678
-193.853
-194.011
-194.153
-194.282
-194.397
-194.5
-194.591
-194.67
-194.74
-194.799
-194.85
-194.892
-194.926
-194.951
-194.971
-194.986
-194.996
-195.001
-195.003
-195.001
-194.997
-194.99
-194.981
-194.97
-194.958
-194.944
-194.929
-194.913
-194.896
-194.878
-194.86
-194.841
-194.822
-191.9
-192.216
-192.51
-192.778
-193.02
-193.24
-193.438
-193.617
-193.778
-193.922
-194.052
-194.167
-194.27
-194.36
-194.44
-194.509
-194.569
-194.62
-194.662
-194.698
-194.726
-194.747
-194.763
-194.776
-194.783
-194.788
-194.789
-194.787
-194.783
-194.777
-194.77
-194.761
-194.75
-194.739
-194.726
-194.713
-194.699
-194.684
-194.669
-194.654
-194.639
-191.93
-192.233
-192.515
-192.772
-193.003
-193.21
-193.397
-193.564
-193.713
-193.846
-193.964
-194.068
-194.159
-194.239
-194.309
-194.369
-194.42
-194.463
-194.499
-194.529
-194.552
-194.569
-194.583
-194.593
-194.599
-194.603
-194.603
-194.602
-194.598
-194.593
-194.587
-194.579
-194.571
-194.561
-194.551
-194.54
-194.529
-194.517
-194.504
-194.492
-194.479
-191.954
-192.247
-192.52
-192.767
-192.989
-193.187
-193.364
-193.52
-193.659
-193.782
-193.889
-193.983
-194.065
-194.135
-194.196
-194.248
-194.292
-194.329
-194.359
-194.383
-194.402
-194.416
-194.427
-194.434
-194.439
-194.441
-194.441
-194.439
-194.436
-194.432
-194.426
-194.419
-194.412
-194.404
-194.395
-194.386
-194.377
-194.367
-194.357
-194.346
-194.336
-191.974
-192.26
-192.525
-192.765
-192.979
-193.169
-193.338
-193.486
-193.616
-193.729
-193.827
-193.912
-193.985
-194.048
-194.101
-194.146
-194.183
-194.214
-194.239
-194.259
-194.274
-194.285
-194.294
-194.3
-194.304
-194.305
-194.305
-194.303
-194.3
-194.296
-194.291
-194.286
-194.28
-194.273
-194.266
-194.258
-194.251
-194.243
-194.235
-194.226
-194.218
-191.99
-192.271
-192.531
-192.766
-192.974
-193.158
-193.32
-193.461
-193.583
-193.688
-193.778
-193.855
-193.921
-193.976
-194.022
-194.061
-194.092
-194.118
-194.138
-194.153
-194.165
-194.173
-194.179
-194.183
-194.184
-194.184
-194.183
-194.181
-194.177
-194.173
-194.169
-194.163
-194.158
-194.152
-194.145
-194.139
-194.132
-194.126
-194.119
-194.112
-194.105
-192.003
-192.28
-192.537
-192.768
-192.972
-193.152
-193.308
-193.443
-193.559
-193.658
-193.742
-193.812
-193.871
-193.92
-193.96
-193.993
-194.019
-194.04
-194.057
-194.069
-194.079
-194.085
-194.089
-194.092
-194.093
-194.092
-194.091
-194.089
-194.086
-194.082
-194.078
-194.074
-194.069
-194.064
-194.059
-194.053
-194.048
-194.042
-194.037
-194.031
-194.026
-192.013
-192.29
-192.545
-192.774
-192.976
-193.152
-193.304
-193.435
-193.546
-193.639
-193.717
-193.782
-193.835
-193.878
-193.913
-193.94
-193.962
-193.978
-193.989
-193.997
-194.002
-194.005
-194.005
-194.005
-194.003
-194
-193.997
-193.993
-193.989
-193.984
-193.98
-193.975
-193.97
-193.965
-193.96
-193.955
-193.95
-193.945
-193.94
-193.935
-193.931
-192.021
-192.301
-192.559
-192.79
-192.992
-193.167
-193.317
-193.443
-193.55
-193.638
-193.71
-193.77
-193.817
-193.856
-193.886
-193.909
-193.927
-193.94
-193.949
-193.956
-193.96
-193.962
-193.962
-193.961
-193.96
-193.957
-193.953
-193.95
-193.946
-193.941
-193.937
-193.932
-193.928
-193.923
-193.919
-193.914
-193.91
-193.906
-193.902
-193.898
-193.894
-192.025
-192.313
-192.577
-192.812
-193.017
-193.193
-193.342
-193.467
-193.57
-193.655
-193.723
-193.777
-193.819
-193.851
-193.875
-193.892
-193.903
-193.909
-193.911
-193.911
-193.908
-193.904
-193.898
-193.892
-193.885
-193.878
-193.871
-193.864
-193.858
-193.851
-193.845
-193.839
-193.834
-193.828
-193.824
-193.819
-193.815
-193.811
-193.807
-193.803
-193.8
-139.513
-157.375
-167.207
-168.989
-171.206
-174.162
-176.538
-178.338
-179.885
-181.262
-182.46
-183.5
-184.413
-185.22
-185.934
-186.569
-187.134
-187.638
-188.089
-188.492
-188.854
-189.18
-189.472
-189.735
-189.972
-190.186
-190.378
-190.552
-190.709
-190.851
-190.979
-191.095
-191.2
-191.295
-191.381
-191.459
-191.529
-191.593
-191.651
-191.704
-191.751
-191.795
-191.834
-191.87
-191.903
-191.933
-191.96
-191.986
-192.009
-192.03
-192.05
-192.068
-192.085
-192.101
-192.116
-192.13
-192.144
-192.157
-192.169
-192.181
-192.193
-192.205
-192.216
-192.228
-192.239
-192.25
-192.262
-192.274
-192.286
-192.297
-192.31
-192.318
-192.339
-192.32
-140.718
-157.286
-167.203
-169.062
-171.254
-174.205
-176.583
-178.38
-179.926
-181.301
-182.498
-183.536
-184.448
-185.253
-185.967
-186.6
-187.164
-187.666
-188.116
-188.518
-188.879
-189.203
-189.495
-189.757
-189.992
-190.205
-190.397
-190.57
-190.726
-190.867
-190.994
-191.109
-191.213
-191.307
-191.393
-191.47
-191.54
-191.603
-191.661
-191.713
-191.76
-191.803
-191.842
-191.878
-191.91
-191.94
-191.967
-191.992
-192.015
-192.036
-192.055
-192.073
-192.09
-192.106
-192.121
-192.135
-192.148
-192.161
-192.173
-192.185
-192.197
-192.208
-192.219
-192.231
-192.242
-192.253
-192.265
-192.276
-192.288
-192.3
-192.313
-192.321
-192.342
-192.322
-142.581
-157.328
-167.243
-169.218
-171.339
-174.267
-176.646
-178.439
-179.978
-181.35
-182.544
-183.58
-184.49
-185.293
-186.005
-186.636
-187.198
-187.699
-188.147
-188.548
-188.908
-189.23
-189.52
-189.781
-190.015
-190.227
-190.417
-190.589
-190.744
-190.884
-191.011
-191.125
-191.228
-191.322
-191.406
-191.483
-191.552
-191.614
-191.671
-191.723
-191.77
-191.812
-191.851
-191.886
-191.918
-191.947
-191.974
-191.999
-192.021
-192.042
-192.061
-192.079
-192.096
-192.111
-192.126
-192.139
-192.153
-192.165
-192.177
-192.189
-192.201
-192.212
-192.223
-192.234
-192.245
-192.257
-192.268
-192.279
-192.291
-192.302
-192.316
-192.324
-192.345
-192.324
-145.269
-157.68
-167.341
-169.478
-171.494
-174.363
-176.738
-178.521
-180.048
-181.414
-182.603
-183.635
-184.54
-185.341
-186.049
-186.678
-187.238
-187.737
-188.183
-188.582
-188.94
-189.261
-189.549
-189.808
-190.042
-190.252
-190.441
-190.611
-190.765
-190.904
-191.029
-191.143
-191.245
-191.337
-191.421
-191.497
-191.565
-191.627
-191.683
-191.734
-191.78
-191.822
-191.86
-191.895
-191.927
-191.956
-191.982
-192.006
-192.028
-192.049
-192.068
-192.085
-192.101
-192.117
-192.131
-192.145
-192.157
-192.17
-192.182
-192.193
-192.205
-192.216
-192.227
-192.238
-192.249
-192.26
-192.271
-192.283
-192.294
-192.306
-192.319
-192.327
-192.348
-192.326
-148.779
-158.505
-167.543
-169.879
-171.765
-174.521
-176.874
-178.641
-180.148
-181.5
-182.681
-183.705
-184.604
-185.399
-186.104
-186.729
-187.285
-187.781
-188.225
-188.621
-188.977
-189.296
-189.582
-189.84
-190.071
-190.279
-190.467
-190.636
-190.789
-190.926
-191.05
-191.162
-191.263
-191.355
-191.438
-191.512
-191.58
-191.641
-191.697
-191.747
-191.792
-191.834
-191.871
-191.905
-191.936
-191.965
-191.991
-192.014
-192.036
-192.056
-192.075
-192.092
-192.108
-192.123
-192.137
-192.15
-192.163
-192.175
-192.187
-192.198
-192.209
-192.22
-192.231
-192.242
-192.253
-192.264
-192.275
-192.286
-192.298
-192.309
-192.322
-192.33
-192.352
-192.328
-152.976
-159.975
-167.969
-170.477
-172.218
-174.786
-177.083
-178.82
-180.294
-181.622
-182.786
-183.798
-184.687
-185.474
-186.172
-186.791
-187.343
-187.835
-188.274
-188.668
-189.02
-189.336
-189.62
-189.875
-190.105
-190.311
-190.497
-190.664
-190.815
-190.951
-191.074
-191.184
-191.284
-191.375
-191.456
-191.53
-191.596
-191.657
-191.711
-191.761
-191.805
-191.846
-191.883
-191.916
-191.947
-191.975
-192
-192.023
-192.045
-192.064
-192.082
-192.099
-192.115
-192.129
-192.143
-192.156
-192.168
-192.18
-192.192
-192.203
-192.214
-192.225
-192.235
-192.246
-192.257
-192.268
-192.279
-192.29
-192.301
-192.312
-192.325
-192.333
-192.356
-192.331
-157.689
-162.194
-168.763
-171.315
-172.914
-175.219
-177.405
-179.092
-180.514
-181.8
-182.937
-183.929
-184.8
-185.574
-186.261
-186.871
-187.415
-187.901
-188.335
-188.723
-189.072
-189.384
-189.665
-189.917
-190.143
-190.347
-190.531
-190.696
-190.845
-190.979
-191.1
-191.209
-191.308
-191.397
-191.477
-191.549
-191.615
-191.674
-191.728
-191.776
-191.82
-191.86
-191.896
-191.929
-191.958
-191.986
-192.01
-192.033
-192.054
-192.073
-192.091
-192.107
-192.122
-192.136
-192.15
-192.163
-192.175
-192.186
-192.197
-192.208
-192.219
-192.229
-192.24
-192.25
-192.261
-192.272
-192.283
-192.293
-192.305
-192.316
-192.329
-192.337
-192.359
-192.334
-162.678
-165.142
-170.061
-172.446
-173.897
-175.882
-177.886
-179.489
-180.838
-182.062
-183.156
-184.115
-184.96
-185.712
-186.381
-186.978
-187.51
-187.985
-188.411
-188.793
-189.135
-189.442
-189.718
-189.966
-190.189
-190.39
-190.57
-190.733
-190.879
-191.011
-191.13
-191.237
-191.334
-191.421
-191.5
-191.571
-191.635
-191.693
-191.746
-191.793
-191.836
-191.875
-191.91
-191.942
-191.971
-191.998
-192.022
-192.044
-192.064
-192.083
-192.1
-192.116
-192.13
-192.144
-192.157
-192.17
-192.181
-192.193
-192.203
-192.214
-192.224
-192.235
-192.245
-192.255
-192.266
-192.276
-192.287
-192.298
-192.309
-192.32
-192.332
-192.341
-192.363
-192.337
-167.694
-168.679
-171.958
-173.935
-175.199
-176.83
-178.577
-180.05
-181.299
-182.437
-183.467
-184.378
-185.184
-185.905
-186.549
-187.124
-187.638
-188.099
-188.512
-188.883
-189.216
-189.516
-189.785
-190.027
-190.245
-190.441
-190.617
-190.776
-190.92
-191.049
-191.165
-191.27
-191.364
-191.45
-191.527
-191.596
-191.659
-191.715
-191.766
-191.812
-191.854
-191.892
-191.926
-191.957
-191.985
-192.011
-192.034
-192.056
-192.075
-192.093
-192.11
-192.125
-192.139
-192.153
-192.165
-192.177
-192.189
-192.199
-192.21
-192.22
-192.23
-192.24
-192.25
-192.26
-192.271
-192.281
-192.291
-192.302
-192.313
-192.324
-192.336
-192.345
-192.368
-192.341
-172.586
-172.611
-174.469
-175.849
-176.846
-178.106
-179.532
-180.815
-181.93
-182.954
-183.895
-184.739
-185.492
-186.169
-186.777
-187.322
-187.812
-188.252
-188.648
-189.003
-189.323
-189.611
-189.871
-190.104
-190.315
-190.505
-190.675
-190.83
-190.968
-191.094
-191.207
-191.308
-191.4
-191.483
-191.557
-191.624
-191.685
-191.74
-191.789
-191.834
-191.874
-191.911
-191.944
-191.974
-192.001
-192.026
-192.048
-192.069
-192.088
-192.105
-192.121
-192.135
-192.149
-192.162
-192.174
-192.185
-192.196
-192.207
-192.217
-192.227
-192.237
-192.246
-192.256
-192.266
-192.276
-192.286
-192.296
-192.307
-192.318
-192.328
-192.341
-192.349
-192.372
-192.345
-177.316
-176.755
-177.514
-178.225
-178.864
-179.74
-180.802
-181.835
-182.773
-183.65
-184.472
-185.225
-185.906
-186.523
-187.082
-187.588
-188.044
-188.455
-188.827
-189.162
-189.464
-189.737
-189.983
-190.205
-190.405
-190.586
-190.749
-190.896
-191.029
-191.149
-191.257
-191.354
-191.442
-191.522
-191.593
-191.658
-191.716
-191.769
-191.816
-191.859
-191.897
-191.932
-191.964
-191.993
-192.019
-192.042
-192.064
-192.083
-192.101
-192.118
-192.133
-192.147
-192.16
-192.172
-192.184
-192.195
-192.205
-192.215
-192.225
-192.234
-192.244
-192.253
-192.262
-192.272
-192.281
-192.291
-192.301
-192.312
-192.322
-192.333
-192.345
-192.353
-192.376
-192.35
-181.894
-180.973
-180.951
-181.04
-181.263
-181.744
-182.423
-183.155
-183.868
-184.563
-185.234
-185.866
-186.451
-186.989
-187.484
-187.936
-188.347
-188.721
-189.06
-189.368
-189.647
-189.899
-190.127
-190.334
-190.521
-190.69
-190.843
-190.981
-191.105
-191.218
-191.32
-191.412
-191.494
-191.569
-191.637
-191.698
-191.753
-191.802
-191.847
-191.888
-191.924
-191.957
-191.987
-192.014
-192.039
-192.061
-192.081
-192.1
-192.116
-192.132
-192.146
-192.159
-192.172
-192.183
-192.194
-192.204
-192.214
-192.224
-192.233
-192.242
-192.251
-192.26
-192.269
-192.278
-192.287
-192.297
-192.307
-192.317
-192.327
-192.338
-192.35
-192.358
-192.38
-192.356
-186.303
-185.156
-184.611
-184.203
-184.015
-184.104
-184.4
-184.802
-185.253
-185.729
-186.216
-186.697
-187.159
-187.596
-188.006
-188.387
-188.739
-189.064
-189.361
-189.633
-189.881
-190.107
-190.312
-190.499
-190.668
-190.822
-190.961
-191.087
-191.202
-191.305
-191.398
-191.483
-191.559
-191.628
-191.69
-191.747
-191.797
-191.843
-191.885
-191.922
-191.956
-191.987
-192.014
-192.039
-192.062
-192.082
-192.101
-192.118
-192.134
-192.148
-192.161
-192.174
-192.185
-192.196
-192.206
-192.215
-192.225
-192.233
-192.242
-192.251
-192.259
-192.268
-192.276
-192.285
-192.294
-192.303
-192.313
-192.322
-192.333
-192.343
-192.355
-192.363
-192.384
-192.363
-190.476
-189.198
-188.32
-187.562
-187.027
-186.76
-186.698
-186.772
-186.938
-187.17
-187.446
-187.748
-188.059
-188.37
-188.673
-188.965
-189.242
-189.502
-189.745
-189.97
-190.178
-190.37
-190.546
-190.707
-190.854
-190.988
-191.11
-191.221
-191.322
-191.413
-191.496
-191.571
-191.639
-191.701
-191.756
-191.807
-191.852
-191.893
-191.93
-191.964
-191.994
-192.022
-192.046
-192.069
-192.089
-192.108
-192.124
-192.14
-192.154
-192.167
-192.179
-192.19
-192.2
-192.21
-192.219
-192.228
-192.236
-192.244
-192.252
-192.26
-192.268
-192.276
-192.284
-192.292
-192.301
-192.31
-192.319
-192.328
-192.338
-192.349
-192.36
-192.369
-192.389
-192.371
-194.296
-192.969
-191.903
-190.932
-190.15
-189.597
-189.23
-189.006
-188.895
-188.876
-188.928
-189.031
-189.17
-189.332
-189.508
-189.69
-189.874
-190.054
-190.228
-190.395
-190.552
-190.7
-190.838
-190.967
-191.085
-191.194
-191.295
-191.387
-191.471
-191.547
-191.617
-191.68
-191.738
-191.79
-191.837
-191.88
-191.919
-191.954
-191.986
-192.014
-192.04
-192.064
-192.085
-192.104
-192.122
-192.138
-192.152
-192.165
-192.177
-192.188
-192.199
-192.208
-192.217
-192.226
-192.234
-192.241
-192.249
-192.256
-192.263
-192.271
-192.278
-192.285
-192.293
-192.301
-192.309
-192.317
-192.326
-192.335
-192.345
-192.355
-192.366
-192.375
-192.393
-192.379
-197.618
-196.318
-195.182
-194.116
-193.194
-192.446
-191.854
-191.391
-191.041
-190.792
-190.626
-190.529
-190.487
-190.487
-190.52
-190.577
-190.65
-190.735
-190.827
-190.921
-191.017
-191.11
-191.202
-191.289
-191.372
-191.45
-191.523
-191.59
-191.653
-191.711
-191.765
-191.813
-191.858
-191.899
-191.936
-191.969
-192
-192.028
-192.053
-192.075
-192.096
-192.115
-192.131
-192.147
-192.16
-192.173
-192.185
-192.195
-192.205
-192.214
-192.222
-192.23
-192.237
-192.244
-192.251
-192.257
-192.264
-192.27
-192.276
-192.282
-192.289
-192.296
-192.302
-192.31
-192.317
-192.325
-192.333
-192.342
-192.351
-192.361
-192.372
-192.381
-192.397
-192.389
-200.285
-199.08
-197.97
-196.91
-195.947
-195.105
-194.379
-193.756
-193.233
-192.801
-192.452
-192.177
-191.965
-191.807
-191.694
-191.618
-191.572
-191.551
-191.548
-191.559
-191.581
-191.611
-191.645
-191.683
-191.722
-191.762
-191.801
-191.839
-191.876
-191.911
-191.944
-191.975
-192.004
-192.03
-192.054
-192.077
-192.097
-192.116
-192.133
-192.148
-192.162
-192.175
-192.187
-192.197
-192.207
-192.215
-192.223
-192.231
-192.237
-192.244
-192.249
-192.255
-192.26
-192.265
-192.27
-192.275
-192.28
-192.285
-192.291
-192.296
-192.301
-192.307
-192.313
-192.319
-192.326
-192.334
-192.341
-192.35
-192.359
-192.368
-192.379
-192.388
-192.402
-192.399
-202.091
-201.029
-200.016
-199.035
-198.114
-197.27
-196.503
-195.811
-195.195
-194.653
-194.183
-193.779
-193.436
-193.149
-192.911
-192.718
-192.561
-192.438
-192.341
-192.268
-192.214
-192.175
-192.148
-192.131
-192.122
-192.119
-192.121
-192.125
-192.132
-192.141
-192.151
-192.161
-192.171
-192.181
-192.191
-192.2
-192.209
-192.217
-192.225
-192.232
-192.238
-192.244
-192.25
-192.255
-192.259
-192.263
-192.267
-192.271
-192.274
-192.277
-192.281
-192.284
-192.287
-192.29
-192.293