/*--------------------------------*- C++ -*----------------------------------*\
| =========                 |                                                 |
| \\      /  F ield         | OpenFOAM: The Open Source CFD Toolbox           |
|  \\    /   O peration     | Version:  5.x                                   |
|   \\  /    A nd           | Web:      www.OpenFOAM.org                      |
|    \\/     M anipulation  |                                                 |
\*---------------------------------------------------------------------------*/
FoamFile
{
    version     2.0;
    format      ascii;
    class       surfaceScalarField;
    location    "400";
    object      phi;
}
// * * * * * * * * * * * * * * * * * * * * * * * * * * * * * * * * * * * * * //

dimensions      [0 3 -1 0 0 0 0];

internalField   nonuniform List<scalar> 
21876
(
0.0202975
-0.00346125
-0.0168356
0.0272304
-0.00693294
0.02788
-0.000649527
0.0288255
-0.000945483
0.0283336
0.000491869
0.0270115
0.00132207
0.025341
0.0016705
0.0235464
0.00179461
0.0217199
0.00182652
0.0197075
0.00201241
0.0173031
0.0024044
0.0154791
0.00182394
0.0144793
0.000999851
0.0138893
0.000590004
0.013187
0.000702336
0.0124689
0.000718051
0.0117241
0.000744788
0.0109656
0.000758481
0.0102003
0.000765323
0.00942463
0.000775659
0.00863109
0.000793537
0.00799363
0.00063743
0.0073473
0.000646338
0.00668984
0.000657459
0.00601546
0.000674541
0.00532077
0.000694812
0.00460468
0.00071653
0.00387053
0.000734542
0.00311111
0.00075955
0.00232236
0.000789261
0.00151756
0.000804561
0.000747816
0.000769678
6.12301e-05
0.000686203
-0.000518458
0.000579278
-0.000994464
0.000475849
-0.00145821
0.000463482
-0.00210931
0.000651261
-0.00291392
0.00080459
-0.00367625
0.000761851
-0.00273778
-0.000938376
-0.00687987
0.004142
0.0245204
-0.00838173
-0.0195999
0.0303151
-0.0127277
0.0323599
-0.00269427
0.0339144
-0.00250004
0.0346674
-0.000261099
0.0347691
0.00122038
0.0342925
0.00214713
0.0332933
0.00279375
0.0318788
0.00324099
0.0300444
0.00384685
0.0276301
0.00481871
0.0252406
0.00421343
0.0232676
0.00297281
0.0216748
0.00218288
0.0202201
0.00215704
0.0189324
0.00200577
0.0177407
0.00193643
0.0165986
0.00190064
0.0154826
0.0018813
0.0143762
0.001882
0.0132598
0.0019099
0.0123686
0.00152863
0.0114884
0.00152658
0.0106056
0.00154029
0.00970836
0.00157191
0.00878713
0.00161631
0.00783149
0.00167295
0.0068304
0.00173674
0.00578478
0.00180597
0.00470514
0.00186934
0.00360445
0.00190458
0.0025022
0.00187108
0.00143927
0.00174821
0.000482733
0.001535
-0.000350899
0.00130896
-0.00116581
0.001278
-0.00203596
0.00152146
-0.00271127
0.00148007
-0.00291416
0.000964736
-0.00213483
-0.00171836
-0.0113902
0.00237521
0.028803
-0.013973
-0.0232118
0.0340701
-0.0179947
0.0375103
-0.00613453
0.039615
-0.00460468
0.0407509
-0.00139698
0.0410574
0.000913874
0.0407679
0.00243658
0.0400319
0.00352979
0.0389227
0.00435018
0.0374207
0.00534887
0.0353833
0.00685606
0.0331983
0.00639846
0.0311997
0.00497145
0.0293753
0.00400726
0.0275668
0.00396556
0.0258661
0.00370646
0.0242679
0.00353458
0.0227437
0.00342486
0.0212705
0.00335451
0.0198262
0.00332632
0.0183801
0.00335595
0.0172296
0.00267909
0.0161022
0.00265401
0.0149803
0.00266221
0.0138484
0.00270388
0.0126933
0.00277135
0.0115017
0.0028645
0.0102615
0.00297669
0.00896723
0.00310002
0.00762006
0.0032166
0.00622975
0.003295
0.00481663
0.0032845
0.00342162
0.00314339
0.00210801
0.00284875
0.000922124
0.00249497
-0.000161946
0.00236212
-0.00116715
0.00252674
-0.00190302
0.00221586
-0.00215892
0.0012205
-0.00191159
-0.00196537
-0.0136633
0.000361578
0.0335571
-0.0201394
-0.0273906
0.0388088
-0.0232465
0.0429988
-0.0103245
0.0456893
-0.00729524
0.0473262
-0.00303389
0.0480353
0.000204826
0.0479879
0.00248392
0.0473647
0.00415304
0.0463124
0.00540248
0.044879
0.00678221
0.0429806
0.00875449
0.0409137
0.00846537
0.0390143
0.00687088
0.0372643
0.00575722
0.0354641
0.00576577
0.0336504
0.00552015
0.0318534
0.00533164
0.0300725
0.00520569
0.0283065
0.00512051
0.0265494
0.00508348
0.0247787
0.00512657
0.023362
0.0040958
0.0219715
0.00404451
0.0205887
0.00404508
0.0191966
0.00409609
0.0177801
0.00418798
0.0163236
0.00432128
0.0148131
0.00448753
0.0132385
0.00467494
0.0115947
0.00486066
0.00988453
0.00500509
0.00812229
0.00504656
0.0063427
0.00492268
0.00460366
0.00458749
0.0029794
0.00411903
0.00153246
0.00380894
0.000282368
0.00377686
-0.000693806
0.00319209
-0.00118727
0.00171398
-0.00153843
-0.00161418
-0.0138978
-0.001304
0.0388051
-0.0268802
-0.0320643
0.0442997
-0.0287411
0.0491155
-0.0151403
0.0526144
-0.0107941
0.0549714
-0.00539092
0.0562933
-0.00111705
0.0566878
0.00208946
0.0563131
0.00452774
0.0553436
0.00637196
0.0538819
0.00824384
0.0519221
0.0107143
0.0497343
0.0106531
0.0476973
0.00890794
0.0458631
0.00759136
0.0440495
0.00757938
0.0422194
0.00735031
0.0403807
0.0071703
0.0385151
0.00707129
0.0366102
0.00702536
0.0346627
0.00703098
0.0326599
0.0071294
0.0310279
0.00572779
0.0294079
0.00566456
0.0277846
0.00566835
0.0261425
0.00573819
0.0244667
0.00586385
0.0227407
0.00604722
0.020949
0.00627903
0.0190785
0.00654534
0.0171193
0.00681981
0.0150673
0.00705719
0.012927
0.00718702
0.0107211
0.00712875
0.00849333
0.00681533
0.00632681
0.00628561
0.00436896
0.00576685
0.00270847
0.00543736
0.00131724
0.00458327
0.00037926
0.00265195
-0.000615374
-0.000619376
-0.0122705
-0.0022426
0.0446122
-0.0342635
-0.0372289
0.0505639
-0.0346928
0.0559983
-0.0205747
0.0603202
-0.015116
0.0634792
-0.00854998
0.0655466
-0.00318447
0.0665771
0.00105905
0.0666816
0.00442323
0.0660109
0.00704257
0.0646882
0.00956659
0.0627532
0.0126493
0.0604358
0.0129705
0.0581435
0.0112003
0.0560367
0.00969817
0.0540224
0.00959371
0.0520427
0.00933001
0.0500978
0.0091152
0.0481587
0.00901039
0.0461875
0.00899659
0.0441586
0.00905981
0.0420486
0.00923947
0.0403004
0.00747595
0.0385419
0.00742307
0.0367594
0.00745092
0.034938
0.00755962
0.0330632
0.0077388
0.0311184
0.00799216
0.029087
0.00831049
0.0269535
0.00867894
0.0247041
0.00906939
0.0223278
0.00943349
0.0198188
0.00969602
0.017184
0.00976351
0.0144454
0.00955387
0.0116699
0.00906098
0.00905444
0.00838229
0.00677336
0.00771842
0.00476801
0.00658861
0.00312731
0.00429267
0.00142013
0.0010879
-0.00909634
-0.00175399
0.0510612
-0.0424285
-0.0428962
0.0576812
-0.0413128
0.0638011
-0.0266946
0.0689451
-0.02026
0.0729641
-0.012569
0.0758687
-0.00608906
0.0776711
-0.000743347
0.0784381
0.00365626
0.0782776
0.00720306
0.077313
0.0105313
0.0756058
0.0143565
0.0733238
0.0152525
0.0708537
0.0136703
0.0684455
0.0121064
0.0661256
0.0119136
0.0638594
0.0115962
0.0616581
0.0113165
0.0595136
0.0111549
0.0573902
0.01112
0.0552514
0.0111986
0.0530602
0.0114306
0.0512512
0.00928494
0.0494348
0.0092395
0.0475902
0.00929552
0.0456972
0.0094527
0.0437366
0.00969941
0.0416884
0.0100404
0.039532
0.0104668
0.0372471
0.0109638
0.0348135
0.011503
0.032212
0.0120351
0.0294245
0.0124836
0.0264401
0.012748
0.023255
0.012739
0.0198995
0.0124165
0.016563
0.0117188
0.0134745
0.0108069
0.0106243
0.00943884
0.00801384
0.00690311
0.0054326
0.00366918
-0.0046745
0.0010108
0.0582489
-0.051585
-0.0490923
0.0657604
-0.0488243
0.0726922
-0.0336264
0.0786884
-0.0262562
0.0835997
-0.0174804
0.0873987
-0.00988803
0.0900742
-0.00341887
0.0916483
0.00208215
0.092185
0.00666637
0.0917922
0.0109241
0.0905392
0.0156095
0.0885265
0.0172653
0.086076
0.0161208
0.0834807
0.0147017
0.0808834
0.0145109
0.0783022
0.0141775
0.0757665
0.0138522
0.0732993
0.0136221
0.0708901
0.0135292
0.0685152
0.0135736
0.0661436
0.0138022
0.0642223
0.0112062
0.0623325
0.0111294
0.0604469
0.0111811
0.0585386
0.011361
0.056582
0.0116561
0.0545504
0.012072
0.0524161
0.0126011
0.0501502
0.0132298
0.0477217
0.0139315
0.0450976
0.0146592
0.0422421
0.0153391
0.039121
0.0158691
0.0357004
0.0161596
0.0319624
0.0161545
0.0280354
0.0156458
0.0241249
0.0147174
0.0202811
0.0132826
0.0164904
0.0106938
0.0127431
0.00741651
0.00082394
0.00724472
0.0662932
-0.0620097
-0.0558686
0.0749482
-0.0574793
0.0828702
-0.0415483
0.0898004
-0.0331865
0.095641
-0.023321
0.100368
-0.0146155
0.103973
-0.00702367
0.106451
-0.000395206
0.107831
0.00528603
0.108199
0.010556
0.107619
0.0161896
0.106125
0.0187589
0.103951
0.0182955
0.101381
0.0172709
0.0986458
0.0172464
0.0958305
0.0169928
0.0929919
0.0166908
0.090182
0.016432
0.0874214
0.0162898
0.0847099
0.016285
0.0820363
0.0164758
0.079897
0.0133455
0.0778374
0.013189
0.0758334
0.0131852
0.0738596
0.0133348
0.071891
0.0136248
0.0699007
0.0140622
0.0678597
0.0146422
0.0657347
0.0153548
0.0634872
0.0161789
0.0610715
0.017075
0.0584325
0.0179781
0.0555081
0.0187935
0.0522276
0.0194401
0.048518
0.0198641
0.0444149
0.0197489
0.0400177
0.0191145
0.0353554
0.0179449
0.0304207
0.0156286
0.0252909
0.0125463
0.00731458
0.0188003
0.0753408
-0.0740453
-0.0633051
0.0854342
-0.0675728
0.0945746
-0.0506887
0.102579
-0.0411911
0.10942
-0.0301617
0.115111
-0.020307
0.119669
-0.0115816
0.123101
-0.00382659
0.125411
0.00297547
0.126676
0.00929107
0.12695
0.0159161
0.126205
0.0195031
0.124578
0.0199225
0.122309
0.0195402
0.119662
0.0198937
0.116784
0.0198705
0.11377
0.0197055
0.110697
0.019504
0.107621
0.0193667
0.104565
0.0193409
0.101542
0.0194989
0.0991143
0.0157728
0.0967979
0.0155054
0.0945773
0.0154058
0.0924359
0.0154763
0.0903573
0.0157034
0.0883238
0.0160957
0.0863155
0.0166505
0.084308
0.0173622
0.0822698
0.0182172
0.0801582
0.0191866
0.0779151
0.0202212
0.0754651
0.0212436
0.0727108
0.0221945
0.0695324
0.0230425
0.0658703
0.023411
0.0616844
0.0233004
0.0568847
0.0227446
0.0513988
0.0211145
0.0452405
0.0187046
0.0146402
0.0379149
0.0855752
-0.0881066
-0.071514
0.0974589
-0.0794564
0.108101
-0.061331
0.117383
-0.0504726
0.125348
-0.0381266
0.132067
-0.0270265
0.137604
-0.0171184
0.142005
-0.00822726
0.145274
-0.000294222
0.147501
0.00706445
0.148738
0.0146791
0.148914
0.0193266
0.148075
0.0207615
0.146394
0.0212216
0.144118
0.02217
0.141424
0.0225645
0.13844
0.0226887
0.135275
0.0226698
0.132009
0.022632
0.128699
0.0226515
0.12538
0.0228181
0.122671
0.0184814
0.12008
0.0180962
0.117603
0.017883
0.115232
0.0178468
0.112962
0.0179738
0.110785
0.0182723
0.108696
0.0187402
0.106684
0.0193741
0.104736
0.0201652
0.102828
0.0210939
0.100923
0.0221263
0.0989611
0.0232057
0.0968528
0.0243028
0.0944709
0.0254244
0.0917038
0.0261782
0.0884118
0.0265924
0.0843818
0.0267746
0.0794185
0.0260778
0.0733781
0.0247449
0.0220325
0.0659858
0.0972291
-0.104691
-0.0806447
0.111325
-0.0935526
0.123818
-0.0738234
0.134645
-0.0612999
0.143922
-0.0474034
0.151784
-0.0348881
0.158353
-0.0236882
0.163732
-0.0136058
0.167962
-0.00452403
0.171153
0.00387347
0.173382
0.0124497
0.174562
0.0181468
0.174671
0.0206524
0.173817
0.0220756
0.172196
0.0237913
0.169972
0.0247884
0.167289
0.0253721
0.164271
0.0256877
0.161025
0.0258775
0.157634
0.0260422
0.154162
0.0262903
0.151255
0.0213891
0.148449
0.0209018
0.145754
0.0205783
0.143172
0.0204287
0.140705
0.0204404
0.138356
0.0206215
0.136127
0.0209695
0.134019
0.0214813
0.132035
0.0221497
0.130169
0.0229601
0.128407
0.0238878
0.126722
0.0248915
0.125056
0.0259682
0.123317
0.0271635
0.121406
0.0280896
0.119169
0.0288294
0.116363
0.02958
0.112725
0.0297162
0.108007
0.0294626
0.0282231
0.101817
0.110595
-0.124396
-0.0908903
0.127413
-0.110371
0.142182
-0.088592
0.154897
-0.0740156
0.165745
-0.058251
0.174927
-0.0440703
0.182635
-0.031396
0.189034
-0.0200048
0.194224
-0.0097138
0.198352
-0.000254371
0.20154
0.00926089
0.203717
0.0159705
0.20483
0.0195392
0.204943
0.0219621
0.204194
0.0245404
0.202705
0.0262774
0.200605
0.027472
0.198019
0.0282742
0.195062
0.0288342
0.191837
0.0292679
0.18843
0.0296968
0.185468
0.0243509
0.18257
0.0237997
0.17976
0.0233882
0.177055
0.0231345
0.174464
0.0230312
0.171996
0.023089
0.16966
0.0233057
0.167463
0.0236782
0.165413
0.0242004
0.163513
0.02486
0.161763
0.0256374
0.160154
0.0265002
0.158659
0.0274633
0.157222
0.0286009
0.155786
0.0295255
0.154242
0.030373
0.152407
0.0314155
0.150052
0.032071
0.14697
0.0325447
0.0325275
0.142666
0.126041
-0.14794
-0.102496
0.146196
-0.130526
0.16376
-0.106156
0.178791
-0.0890465
0.191546
-0.0710065
0.2023
-0.054824
0.211316
-0.0404115
0.21883
-0.0275192
0.225009
-0.0158931
0.230059
-0.00530433
0.234153
0.00516775
0.237261
0.0128616
0.239343
0.0174577
0.240448
0.0208565
0.240675
0.0243144
0.240098
0.026854
0.238815
0.0287549
0.236929
0.0301599
0.234548
0.0312158
0.231773
0.0320424
0.228706
0.0327638
0.225886
0.0271712
0.223069
0.0266165
0.220298
0.0261591
0.217605
0.025828
0.215012
0.0256243
0.212536
0.0255645
0.210192
0.0256503
0.207989
0.0258808
0.205937
0.026252
0.204043
0.026754
0.202309
0.0273714
0.200732
0.0280778
0.199294
0.0289015
0.197957
0.0299375
0.196696
0.0307864
0.195444
0.0316247
0.194087
0.0327728
0.192485
0.0336726
0.19053
0.0344996
0.0352177
0.18784
0.144023
-0.176195
-0.115769
0.168262
-0.154765
0.189255
-0.127149
0.207126
-0.106918
0.222215
-0.0860953
0.234872
-0.067481
0.245439
-0.0509786
0.254231
-0.0363106
0.261488
-0.02315
0.267482
-0.0112984
0.272442
0.000207049
0.276409
0.00889538
0.279374
0.0144926
0.281408
0.0188226
0.282596
0.0231264
0.282987
0.0264625
0.282648
0.0290939
0.281653
0.0311547
0.280086
0.032783
0.278035
0.0340937
0.275594
0.0352044
0.273139
0.0296265
0.270611
0.0291448
0.268069
0.0287008
0.26556
0.0283367
0.263121
0.0280637
0.260779
0.0279064
0.258556
0.0278729
0.256469
0.0279678
0.25453
0.0281915
0.252745
0.0285387
0.251118
0.0289988
0.249645
0.0295506
0.248312
0.0302344
0.247087
0.0311626
0.245956
0.0319171
0.244876
0.032705
0.24377
0.0338791
0.242569
0.0348737
0.24123
0.0358386
0.0368927
0.239555
0.165107
-0.210212
-0.131089
0.194335
-0.183993
0.219527
-0.152341
0.240885
-0.128276
0.258836
-0.104047
0.27382
-0.0824648
0.286265
-0.0634238
0.296571
-0.0466161
0.305061
-0.0316403
0.312078
-0.0183154
0.317921
-0.00563553
0.322698
0.00411838
0.326462
0.0107287
0.329322
0.015962
0.331382
0.0210663
0.332691
0.0251536
0.333302
0.0284829
0.33327
0.0311871
0.332654
0.0333989
0.331521
0.0352272
0.329946
0.0367794
0.328065
0.0315076
0.326034
0.0311756
0.323924
0.030811
0.321792
0.0304683
0.319686
0.0301699
0.317643
0.0299495
0.315693
0.0298226
0.313861
0.0298004
0.312162
0.0298899
0.310609
0.0300916
0.309207
0.0304008
0.307956
0.0308022
0.306843
0.0313472
0.305842
0.0321635
0.304947
0.0328118
0.304128
0.0335241
0.303327
0.0346799
0.302513
0.0356883
0.301665
0.0366862
0.0378629
0.300695
0.189963
-0.251271
-0.148905
0.225283
-0.219313
0.255618
-0.182676
0.281253
-0.153912
0.302723
-0.125516
0.320566
-0.100308
0.335313
-0.0781702
0.347456
-0.0587597
0.357415
-0.0415989
0.365608
-0.0265088
0.37241
-0.0124373
0.378006
-0.00147762
0.38252
0.00621459
0.386117
0.0123654
0.388936
0.0182469
0.391052
0.0230374
0.392529
0.0270065
0.393418
0.0302978
0.393769
0.033048
0.393631
0.0353651
0.39306
0.0373507
0.391899
0.032668
0.390531
0.0325443
0.389027
0.0323144
0.387452
0.0320439
0.385856
0.0317654
0.384285
0.031521
0.382773
0.0313343
0.38135
0.0312233
0.380038
0.0312016
0.378854
0.0312758
0.377808
0.0314469
0.376905
0.0317054
0.376139
0.0321125
0.375494
0.0328092
0.37497
0.0333359
0.374549
0.0339448
0.374189
0.0350394
0.373878
0.0359993
0.373606
0.0369586
0.0381456
0.373323
0.199164
-0.296255
-0.15418
0.237895
-0.258044
0.271074
-0.215855
0.299051
-0.181889
0.32242
-0.148885
0.341778
-0.119667
0.357711
-0.0941035
0.370768
-0.0718164
0.381423
-0.0522534
0.390135
-0.0352216
0.397319
-0.0196203
0.403216
-0.00737503
0.408005
0.0014252
0.411893
0.00847782
0.415052
0.0150879
0.417586
0.0205029
0.41958
0.0250125
0.421098
0.0287806
0.422189
0.031957
0.422896
0.0346574
0.423263
0.0369845
0.422875
0.0330556
0.422272
0.0331475
0.421518
0.0330685
0.420669
0.0328924
0.419774
0.0326602
0.418874
0.0324209
0.418004
0.0322046
0.417192
0.0320355
0.416461
0.0319327
0.415829
0.0319079
0.415309
0.031967
0.41491
0.0321045
0.414633
0.0323891
0.41447
0.0329719
0.41443
0.0333763
0.414505
0.0338699
0.41467
0.0348746
0.414923
0.0357457
0.415263
0.0366186
0.0377475
0.415662
0.205984
-0.344589
-0.157649
0.247625
-0.299684
0.283231
-0.251461
0.313208
-0.211866
0.338199
-0.173877
0.358851
-0.140318
0.375795
-0.111048
0.389624
-0.0856459
0.40086
-0.0634886
0.409994
-0.0443559
0.417469
-0.0270953
0.423575
-0.0134809
0.428532
-0.00353218
0.432578
0.00443242
0.435911
0.0117542
0.438666
0.0177486
0.440947
0.0227313
0.442835
0.0268921
0.444393
0.0303998
0.445666
0.0333836
0.446696
0.0359546
0.446888
0.0328639
0.446881
0.0331545
0.446731
0.0332183
0.446487
0.0331363
0.446192
0.032956
0.44588
0.0327323
0.445584
0.0325005
0.44533
0.0322902
0.445137
0.0321248
0.445025
0.0320204
0.445006
0.0319862
0.44509
0.0320202
0.445283
0.0321963
0.445582
0.0326728
0.445998
0.0329602
0.446531
0.0333369
0.447167
0.0342388
0.447911
0.0350019
0.448765
0.0357646
0.0367983
0.449714
0.214383
-0.39659
-0.162382
0.2592
-0.344501
0.297474
-0.289735
0.329663
-0.244055
0.356461
-0.200675
0.378568
-0.162425
0.396664
-0.129144
0.411387
-0.100369
0.423304
-0.0754062
0.432944
-0.0539956
0.440778
-0.0349296
0.447138
-0.0198406
0.452283
-0.00867738
0.456477
0.000238962
0.459945
0.00828551
0.462847
0.014847
0.46531
0.0202686
0.467433
0.0247692
0.469292
0.0285408
0.470944
0.0317308
0.472436
0.0344627
0.473042
0.0322582
0.473473
0.0327235
0.473779
0.0329126
0.474002
0.0329127
0.47418
0.0327777
0.474345
0.0325674
0.474524
0.032322
0.474739
0.032075
0.47501
0.0318539
0.475352
0.0316782
0.475779
0.0315599
0.476299
0.0314996
0.47692
0.031575
0.477644
0.0319496
0.478479
0.0321246
0.47943
0.0323862
0.480489
0.03318
0.481662
0.0338285
0.482954
0.0344722
0.0353943
0.484358
0.224237
-0.452587
-0.16824
0.272514
-0.392778
0.313706
-0.330927
0.348324
-0.278672
0.377118
-0.229469
0.40084
-0.186147
0.420225
-0.148528
0.43596
-0.116104
0.44866
-0.0881057
0.458889
-0.0642248
0.467153
-0.0431936
0.473821
-0.0265085
0.479189
-0.0140456
0.483546
-0.00411822
0.487143
0.00468859
0.490162
0.0118281
0.492752
0.0176782
0.495032
0.0224899
0.497091
0.026481
0.499002
0.0298198
0.500819
0.0326463
0.50172
0.0313568
0.502472
0.0319717
0.50312
0.0322645
0.503704
0.0323291
0.504256
0.0322255
0.504805
0.0320184
0.505375
0.0317523
0.505985
0.0314645
0.506653
0.031186
0.507392
0.0309388
0.508214
0.0307379
0.509129
0.0305855
0.510141
0.0305623
0.511255
0.0308353
0.51248
0.0309002
0.513818
0.031048
0.515267
0.0317308
0.516834
0.0322624
0.518521
0.032785
0.0335894
0.520326
0.23549
-0.512932
-0.175144
0.28753
-0.444818
0.331906
-0.375303
0.369181
-0.315947
0.400166
-0.260454
0.425671
-0.211652
0.446486
-0.169344
0.463353
-0.13297
0.476935
-0.101688
0.487838
-0.0751278
0.496602
-0.0519586
0.503636
-0.033542
0.509269
-0.0196785
0.513817
-0.00866585
0.517552
0.000952642
0.520683
0.00869781
0.523377
0.0149842
0.52577
0.0200965
0.52797
0.0242807
0.530062
0.0277286
0.532109
0.0305987
0.533221
0.0302454
0.534206
0.0309866
0.535109
0.0313614
0.535967
0.0314708
0.536811
0.0313814
0.537667
0.0311625
0.538556
0.0308631
0.539497
0.0305243
0.540502
0.0301801
0.541586
0.0298553
0.542757
0.0295669
0.544024
0.0293189
0.545392
0.0291942
0.546865
0.0293619
0.54845
0.0293154
0.55015
0.0293483
0.551964
0.0299166
0.553897
0.0303295
0.555952
0.0307301
0.0314139
0.558127
0.248127
-0.578005
-0.183054
0.304258
-0.500949
0.352102
-0.423147
0.392279
-0.356123
0.425662
-0.293837
0.453125
-0.239115
0.475518
-0.191738
0.49364
-0.151092
0.508207
-0.116255
0.51987
-0.0867906
0.529207
-0.0612964
0.536665
-0.0409999
0.542609
-0.0256217
0.547379
-0.0134361
0.551274
-0.00294269
0.554523
0.00544903
0.557314
0.0121928
0.559801
0.0176094
0.562107
0.0219748
0.56433
0.0255061
0.566546
0.0283826
0.567807
0.0289845
0.56896
0.029833
0.570051
0.0302703
0.571117
0.0304055
0.572186
0.030312
0.573284
0.0300646
0.57443
0.0297167
0.575641
0.0293132
0.57693
0.0288912
0.578307
0.0284782
0.579781
0.0280931
0.581358
0.0277419
0.583044
0.0275086
0.584842
0.0275639
0.586756
0.0274015
0.588788
0.0273158
0.590941
0.027764
0.593216
0.0280548
0.595614
0.0283315
0.0288917
0.598136
0.262167
-0.648216
-0.191956
0.322744
-0.561525
0.374364
-0.474768
0.417704
-0.399463
0.453707
-0.329841
0.483315
-0.268722
0.507443
-0.215866
0.526949
-0.170598
0.54261
-0.131916
0.555122
-0.0993025
0.565107
-0.0712812
0.57305
-0.0489425
0.57935
-0.0319224
0.584379
-0.0184646
0.588458
-0.00702223
0.59184
0.00206792
0.594731
0.00930104
0.597304
0.0150365
0.599696
0.0195826
0.602019
0.0231831
0.604362
0.0260399
0.605729
0.0276173
0.607004
0.0285585
0.608232
0.0290422
0.609451
0.0291861
0.610692
0.0290714
0.611978
0.0287786
0.613329
0.0283661
0.614759
0.0278827
0.616281
0.0273689
0.617905
0.0268548
0.619636
0.0263614
0.621482
0.0258964
0.623446
0.025545
0.625531
0.0254782
0.62774
0.0251927
0.630073
0.0249824
0.632534
0.0253033
0.635122
0.0254668
0.637838
0.0256157
0.026048
0.640682
0.277651
-0.72401
-0.201857
0.343059
-0.626933
0.398789
-0.530497
0.445577
-0.446251
0.48444
-0.368704
0.516393
-0.300675
0.542423
-0.241896
0.563455
-0.191629
0.580323
-0.148784
0.593779
-0.112758
0.604488
-0.0819906
0.612978
-0.0574327
0.619686
-0.0386302
0.62501
-0.0237891
0.629301
-0.0113132
0.632833
-0.00146319
0.635833
0.00630061
0.638491
0.0123789
0.640959
0.0171142
0.643363
0.0207793
0.645803
0.0235997
0.647245
0.0261752
0.648605
0.027199
0.649931
0.0277162
0.651262
0.0278545
0.65263
0.0277032
0.65406
0.0273492
0.655569
0.0268564
0.657174
0.0262779
0.658886
0.0256576
0.660712
0.0250285
0.662659
0.0244138
0.664733
0.0238231
0.666935
0.0233424
0.669271
0.0231425
0.671739
0.0227251
0.674339
0.0223822
0.677075
0.0225671
0.679945
0.0225966
0.682949
0.0226123
0.0229111
0.686086
0.294641
-0.805873
-0.212779
0.365301
-0.697593
0.425502
-0.590698
0.476046
-0.496796
0.51803
-0.410688
0.552547
-0.335192
0.580661
-0.270009
0.603366
-0.214335
0.621566
-0.166984
0.636065
-0.127257
0.647581
-0.0935065
0.656685
-0.0665364
0.663851
-0.045797
0.669512
-0.0294493
0.674043
-0.0158448
0.677744
-0.00516416
0.680864
0.00318066
0.683609
0.00963417
0.686148
0.0145754
0.688619
0.0183082
0.691135
0.0210837
0.692628
0.0246821
0.694044
0.0257828
0.695436
0.0263244
0.696845
0.0264453
0.698304
0.0262441
0.699839
0.0258147
0.701468
0.0252269
0.703207
0.0245385
0.705068
0.0237973
0.707057
0.0230391
0.709181
0.0222897
0.711444
0.0215608
0.713847
0.0209387
0.716396
0.0205938
0.719086
0.0200347
0.721918
0.0195502
0.724896
0.0195893
0.728016
0.0194769
0.731275
0.0193527
0.0195113
0.734675
0.313215
-0.894332
-0.224756
0.389585
-0.773963
0.454653
-0.655766
0.50929
-0.551433
0.554678
-0.456077
0.591996
-0.37251
0.62239
-0.300403
0.646932
-0.238877
0.666596
-0.186648
0.682247
-0.142908
0.694657
-0.105917
0.704445
-0.0763239
0.712125
-0.0534775
0.718163
-0.0354871
0.722966
-0.0206477
0.726858
-0.00905592
0.730109
-7.09018e-05
0.732946
0.0067981
0.735551
0.0119698
0.738078
0.0157809
0.740652
0.01851
0.742176
0.0231583
0.743625
0.024334
0.745055
0.0248941
0.746511
0.0249888
0.748029
0.0247267
0.749634
0.0242094
0.751348
0.0235133
0.753185
0.0227013
0.755157
0.0218252
0.757272
0.0209242
0.759535
0.0200269
0.761949
0.0191469
0.764516
0.0183713
0.767241
0.0178692
0.770118
0.0171576
0.773146
0.0165219
0.776331
0.016405
0.779666
0.0161419
0.783148
0.0158704
0.0158811
0.786778
0.333465
-0.989964
-0.237833
0.416048
-0.856546
0.486415
-0.726133
0.545512
-0.61053
0.594614
-0.505179
0.634992
-0.412888
0.667882
-0.333293
0.694438
-0.265433
0.71571
-0.20792
0.732632
-0.15983
0.746031
-0.119316
0.756577
-0.0868703
0.76483
-0.0617302
0.77129
-0.0419466
0.776396
-0.0257543
0.7805
-0.0131602
0.783896
-0.00346684
0.786828
0.00386639
0.789497
0.00930049
0.792071
0.0132076
0.794685
0.0158959
0.796221
0.0216224
0.797679
0.0228752
0.799122
0.0234512
0.800598
0.0235135
0.802143
0.0231818
0.803786
0.0225661
0.80555
0.0217497
0.807449
0.0208015
0.809497
0.0197775
0.811701
0.0187208
0.814065
0.0176625
0.816593
0.016619
0.819286
0.0156776
0.82215
0.0150061
0.825176
0.0141314
0.828363
0.0133343
0.831718
0.0130507
0.835232
0.0126277
0.838902
0.0122007
0.0120555
0.842727
0.355502
-1.0934
-0.252064
0.444846
-0.94589
0.520984
-0.802271
0.584944
-0.674489
0.6381
-0.558335
0.681822
-0.456611
0.717443
-0.368914
0.746207
-0.294197
0.769246
-0.23096
0.787565
-0.178148
0.802056
-0.133807
0.813443
-0.0982571
0.822331
-0.070618
0.829259
-0.0488751
0.834703
-0.0311983
0.839042
-0.0174994
0.842595
-0.0070198
0.845627
0.000835279
0.848355
0.00657169
0.850963
0.0105999
0.853599
0.0132596
0.855128
0.0200933
0.856575
0.021429
0.858004
0.0220215
0.85947
0.0220481
0.861011
0.0216403
0.86266
0.0209175
0.864439
0.0199708
0.866365
0.018875
0.868451
0.0176913
0.870705
0.0164665
0.873133
0.0152351
0.875736
0.0140159
0.878516
0.0128969
0.881479
0.0120439
0.884615
0.0109953
0.887922
0.0100267
0.891407
0.00956571
0.895062
0.00897335
0.89888
0.00838221
0.00807261
0.902863
0.379447
-1.20534
-0.267512
0.476154
-1.0426
0.558583
-0.8847
0.627846
-0.743753
0.685428
-0.615917
0.732806
-0.503988
0.771416
-0.407524
0.802601
-0.325382
0.827581
-0.255939
0.847438
-0.198005
0.863133
-0.149502
0.875449
-0.110573
0.88504
-0.0802088
0.892488
-0.0563232
0.898305
-0.0370158
0.902903
-0.0220969
0.906625
-0.0107419
0.909758
-0.00229786
0.91254
0.00378942
0.915168
0.00797167
0.917806
0.0106224
0.919307
0.0185916
0.920716
0.02002
0.922105
0.0206329
0.92353
0.0206233
0.925035
0.0201355
0.926653
0.019299
0.92841
0.0182134
0.930325
0.0169603
0.93241
0.0156062
0.934675
0.0142021
0.937124
0.012786
0.93976
0.0113797
0.942585
0.0100716
0.945604
0.00902547
0.948807
0.00779231
0.952191
0.00664209
0.955764
0.00599308
0.959516
0.00522184
0.96344
0.00445792
0.00397528
0.967537
0.405439
-1.32653
-0.284248
0.510169
-1.14733
0.599458
-0.973988
0.67451
-0.818805
0.736928
-0.678334
0.788304
-0.555365
0.830188
-0.449408
0.864028
-0.359222
0.891139
-0.283051
0.912688
-0.219554
0.929711
-0.166525
0.943052
-0.123914
0.95342
-0.0905765
0.961442
-0.0643451
0.96767
-0.0432446
0.97255
-0.0269764
0.976453
-0.0146446
0.979689
-0.00553393
0.982516
0.000962446
0.985147
0.00534019
0.98776
0.00800966
0.989211
0.0171408
0.990555
0.0186757
0.991871
0.0193167
0.993221
0.0192733
0.994653
0.018704
0.996202
0.0177495
0.997897
0.0165184
0.999758
0.0150997
1.0018
0.0135657
1.00403
0.0119722
1.00645
0.010361
1.00908
0.00875691
1.0119
0.00724886
1.01493
0.00599848
1.01815
0.00457062
1.02156
0.00322899
1.02517
0.00238147
1.02897
0.00142195
1.03295
0.00047662
-0.000187702
1.03712
0.433631
-1.45781
-0.302352
0.547111
-1.26081
0.643885
-1.07076
0.725259
-0.90018
0.792963
-0.746038
0.848715
-0.611117
0.894187
-0.49488
0.930939
-0.395974
0.960393
-0.312505
0.983804
-0.242966
1.00229
-0.185011
1.01676
-0.138386
1.02799
-0.101802
1.03664
-0.073
1.04332
-0.0499252
1.04851
-0.0321625
1.0526
-0.0187388
1.05594
-0.00887145
1.0588
-0.00189706
1.06141
0.00272748
1.06397
0.00545225
1.06534
0.0157689
1.06659
0.0174286
1.0678
0.0181088
1.06903
0.0180374
1.07035
0.017388
1.07179
0.0163135
1.07337
0.0149323
1.07513
0.0133415
1.07708
0.0116197
1.07922
0.00982795
1.08157
0.00801212
1.08413
0.00620052
1.08689
0.00448256
1.08987
0.00301746
1.09306
0.00138528
1.09644
-0.000157105
1.10004
-0.0012132
1.10383
-0.00237012
1.10781
-0.00350527
-0.00435972
1.11198
0.464193
-1.60009
-0.321909
0.587221
-1.38383
0.692169
-1.17571
0.780454
-0.988464
0.85394
-0.819524
0.914485
-0.671661
0.96389
-0.544286
1.00384
-0.435925
1.03587
-0.344533
1.06133
-0.268427
1.08143
-0.205109
1.09715
-0.154107
1.10932
-0.113972
1.11867
-0.0823518
1.12585
-0.0571009
1.13137
-0.0376805
1.13566
-0.023034
1.1391
-0.0123062
1.14197
-0.00477267
1.14454
0.000161155
1.147
0.00298798
1.14826
0.0145087
1.14937
0.0163165
1.15043
0.0170515
1.15151
0.0169613
1.15266
0.0162363
1.15393
0.0150424
1.15535
0.0135088
1.15695
0.0117414
1.15875
0.00982571
1.16075
0.00782836
1.16296
0.00579976
1.16539
0.003772
1.16804
0.00183512
1.17091
0.000145673
1.17399
-0.00169972
1.17729
-0.00345156
1.1808
-0.00472574
1.18452
-0.00608866
1.18844
-0.00742163
-0.0084743
1.19255
0.497313
-1.75439
-0.343014
0.630768
-1.51729
0.74465
-1.28959
0.840493
-1.08431
0.920311
-0.899342
0.986108
-0.737458
1.03983
-0.598008
1.08329
-0.479389
1.11816
-0.379395
1.14588
-0.296147
1.16775
-0.226985
1.18485
-0.171204
1.19806
-0.127186
1.20818
-0.0924704
1.2159
-0.0648182
1.22178
-0.0435564
1.22628
-0.0275385
1.2298
-0.0158306
1.23267
-0.00764266
1.23516
-0.00232434
1.23748
0.00066318
1.23859
0.0134
1.23953
0.0153846
1.24038
0.0161946
1.24124
0.0160991
1.24217
0.0153064
1.24322
0.0139967
1.24442
0.0123111
1.24579
0.0103648
1.24737
0.00825109
1.24915
0.00604255
1.25116
0.00379456
1.25339
0.00154337
1.25584
-0.000620279
1.25853
-0.00254265
1.26144
-0.0046092
1.26457
-0.00657833
1.26792
-0.00807935
1.27149
-0.00965623
1.27526
-0.0111944
-0.0124529
1.27924
0.533194
-1.92182
-0.36577
0.678049
-1.66214
0.801703
-1.41325
0.90582
-1.18842
0.992576
-0.986098
1.06414
-0.809017
1.1226
-0.656471
1.16993
-0.526718
1.20791
-0.417375
1.23812
-0.326356
1.26195
-0.250823
1.28057
-0.189822
1.29494
-0.14155
1.3059
-0.103432
1.31421
-0.073127
1.32047
-0.0498171
1.32519
-0.0322587
1.32879
-0.0194332
1.33163
-0.0104792
1.33399
-0.00468648
1.33612
-0.00146601
1.33703
0.0124901
1.33772
0.0146865
1.33832
0.0155972
1.33891
0.0155143
1.33955
0.0146659
1.3403
0.0132476
1.34119
0.0114134
1.34227
0.00928869
1.34355
0.00697505
1.34504
0.00455179
1.34675
0.00207964
1.3487
-0.000400594
1.35087
-0.00279736
1.35329
-0.0049599
1.35594
-0.00725434
1.3588
-0.00944749
1.36191
-0.0111832
1.36523
-0.0129811
1.36877
-0.014731
-0.016202
1.37252
0.572066
-2.10359
-0.390288
0.729391
-1.81947
0.863744
-1.5476
0.976927
-1.30161
1.07129
-1.08046
1.14918
-0.886903
1.21285
-0.720146
1.26444
-0.5783
1.30585
-0.458792
1.33881
-0.35931
1.36481
-0.276826
1.3851
-0.210116
1.40074
-0.157183
1.41263
-0.115321
1.42158
-0.082081
1.42825
-0.05649
1.43319
-0.0371988
1.43686
-0.0230973
1.43963
-0.0132471
1.44181
-0.00687279
1.44368
-0.00333121
1.44433
0.0118361
1.44473
0.0142865
1.445
0.0153296
1.44523
0.0152827
1.4455
0.0143952
1.44587
0.0128795
1.44638
0.0109035
1.44706
0.00860393
1.44795
0.00609131
1.44905
0.00345225
1.45037
0.000753368
1.45193
-0.00195957
1.45373
-0.00459405
1.45577
-0.00700243
1.45805
-0.00952997
1.46055
-0.0119525
1.4633
-0.0139295
1.46627
-0.0159542
1.46946
-0.0179214
-0.0196107
1.47287
0.614175
-2.30108
-0.416686