/*--------------------------------*- C++ -*----------------------------------*\
| =========                 |                                                 |
| \\      /  F ield         | OpenFOAM: The Open Source CFD Toolbox           |
|  \\    /   O peration     | Version:  5.x                                   |
|   \\  /    A nd           | Web:      www.OpenFOAM.org                      |
|    \\/     M anipulation  |                                                 |
\*---------------------------------------------------------------------------*/
FoamFile
{
    version     2.0;
    format      ascii;
    class       surfaceScalarField;
    location    "400";
    object      phi;
}
// * * * * * * * * * * * * * * * * * * * * * * * * * * * * * * * * * * * * * //

dimensions      [0 3 -1 0 0 0 0];

internalField   nonuniform List<scalar> 
21876
(
0.0131898
0.00876988
-0.0219102
0.000404794
0.0127949
-0.00394506
0.00436977
-0.00443061
0.000503115
-0.00415407
-0.000266372
-0.00382332
-0.00032539
-0.00360166
-0.000219239
-0.0034436
-0.000155801
-0.00331668
-0.000124072
-0.00322186
-9.2759e-05
-0.0031508
-6.84284e-05
-0.00310047
-4.8318e-05
-0.00307123
-2.66068e-05
-0.00306256
-6.60121e-06
-0.00307774
1.74906e-05
-0.00312424
4.84575e-05
-0.00320633
8.44875e-05
-0.00332952
0.00012531
-0.00349783
0.000170761
-0.00371467
0.000218914
-0.00397368
0.000260476
-0.00423923
0.000268123
-0.00451408
0.000276613
-0.00478619
0.000274122
-0.00503745
0.00025293
-0.00525203
0.000216427
-0.00541509
0.000164602
-0.00551017
9.69288e-05
-0.00552231
1.36223e-05
-0.00545156
-6.90498e-05
-0.00530212
-0.000148062
-0.00506773
-0.0002329
-0.00474336
-0.000323006
-0.0043195
-0.000422622
-0.00378698
-0.000531375
-0.00313178
-0.000654043
-0.00235109
-0.000781749
-0.00146443
-0.000883347
-0.00036399
-0.00110099
0.00113223
-0.00149317
-0.00309855
0.00423375
0.025807
0.00881079
-0.0258402
0.0160585
0.022548
0.00315956
0.017275
-0.00334474
0.00701555
-0.00469055
0.00108553
-0.00470632
-0.000306213
-0.0045535
-0.000370133
-0.00442704
-0.000280195
-0.00432418
-0.000224749
-0.0042493
-0.000165764
-0.00419948
-0.000116385
-0.00417326
-7.28317e-05
-0.00417502
-2.29647e-05
-0.00420857
2.88636e-05
-0.00427637
8.7193e-05
-0.00438184
0.000155753
-0.00452791
0.00023253
-0.0047179
0.000317354
-0.00495115
0.000406224
-0.0052241
0.00049413
-0.00552835
0.000566639
-0.00582628
0.000568088
-0.00611583
0.000567905
-0.00637943
0.000539441
-0.00659927
0.000474289
-0.00676259
0.000381433
-0.00686038
0.000263838
-0.00688722
0.000125445
-0.00684229
-3.00226e-05
-0.00671399
-0.000195816
-0.00648829
-0.000372693
-0.00615934
-0.000560458
-0.00572136
-0.000759998
-0.00516444
-0.000978202
-0.00448243
-0.00121231
-0.00366637
-0.00146885
-0.00270604
-0.00174129
-0.00156895
-0.00201953
-0.000293628
-0.00237624
0.00156619
-0.00335252
-0.0055253
0.00399329
0.0322413
0.00540219
-0.0288373
0.029802
0.0249871
0.0182858
0.0287936
0.00506646
0.0202384
-0.00254136
0.00869696
-0.00481399
0.00196891
-0.00523422
5.15602e-05
-0.00526975
-0.000243444
-0.00523425
-0.00025876
-0.00519622
-0.000202555
-0.00517226
-0.000138911
-0.00516709
-7.68563e-05
-0.00518851
-1.33239e-07
-0.00524127
8.26381e-05
-0.00532837
0.000175505
-0.0054553
0.000283642
-0.00562517
0.000403669
-0.005841
0.000534115
-0.00610218
0.000668623
-0.00640534
0.000798093
-0.00674208
0.000903856
-0.00707147
0.000898691
-0.00739029
0.000887544
-0.00768135
0.000831489
-0.0079268
0.000720577
-0.00811234
0.000567816
-0.00822597
0.000378232
-0.00825664
0.000156952
-0.00819385
-9.20552e-05
-0.00802534
-0.000363606
-0.0077412
-0.000656116
-0.00733431
-0.000966778
-0.00679826
-0.00129541
-0.00612229
-0.0016538
-0.00530075
-0.0020335
-0.0043262
-0.00244317
-0.00318654
-0.00288179
-0.00182979
-0.0033749
-0.000300162
-0.00390593
0.00169543
-0.00534677
-0.00761914
0.00379103
0.0374553
0.00114027
-0.0331936
0.0396453
0.0227978
0.0344808
0.0339597
0.021485
0.0332361
0.0072503
0.0229334
-0.00156641
0.0107871
-0.00480742
0.00329384
-0.00572218
0.00067266
-0.0059802
7.04844e-07
-0.00607287
-0.000108541
-0.00611691
-9.34905e-05
-0.00615007
-4.24313e-05
-0.00619664
4.77519e-05
-0.00626973
0.000157028
-0.00637558
0.000282745
-0.00652279
0.00043226
-0.00671612
0.000598549
-0.00696035
0.00077998
-0.00725698
0.000967019
-0.00760396
0.0011468
-0.00799327
0.00129476
-0.00837844
0.00128543
-0.00875426
0.00126475
-0.00910144
0.00117999
-0.0093989
0.00101927
-0.00962802
0.000798184
-0.0097721
0.000523498
-0.00981568
0.000201735
-0.00974483
-0.000161814
-0.00954675
-0.000560611
-0.00921106
-0.000990874
-0.00872911
-0.00144778
-0.00809355
-0.00193012
-0.00729234
-0.00245415
-0.00631983
-0.00300518
-0.00516958
-0.00359275
-0.00383075
-0.00422001
-0.00224475
-0.00496029
-0.000450211
-0.00570015
0.0016845
-0.00748095
-0.00960295
0.00366874
0.0431804
-0.0034832
-0.0385635
0.0472214
0.0187559
0.0478696
0.0333124
0.0407212
0.0403858
0.0262387
0.037417
0.0105461
0.0264806
6.06738e-05
0.0137802
-0.00449678
0.00523122
-0.0060684
0.00157337
-0.00665074
0.00047489
-0.00692235
0.000179118
-0.00707464
0.000110857
-0.00718748
0.000161596
-0.00730363
0.000274082
-0.00744184
0.000421852
-0.0076196
0.00061088
-0.00784647
0.00082634
-0.00813089
0.00106526
-0.00847765
0.0013147
-0.00888673
0.00155656
-0.0093512
0.00175967
-0.00981658
0.00175165
-0.0102746
0.00172341
-0.0107023
0.00160843
-0.0110744
0.00139199
-0.0113672
0.00109165
-0.0115594
0.000716288
-0.0116314
0.000274342
-0.0115662
-0.000226383
-0.011349
-0.000777198
-0.0109677
-0.00137163
-0.0104118
-0.00200323
-0.00967277
-0.00266862
-0.00873718
-0.0033894
-0.00759937
-0.00414263
-0.00625403
-0.00493792
-0.00469403
-0.00578032
-0.00286287
-0.00679074
-0.000795284
-0.00776755
0.00149932
-0.00977464
-0.0116319
0.00352948
0.0500652
-0.0086737
-0.0448767
0.0547273
0.0140933
0.0583901
0.0296496
0.0577641
0.0410126
0.0491466
0.0460349
0.0332203
0.0424075
0.0156408
0.0313603
0.00282243
0.0180503
-0.00361175
0.00800847
-0.00613467
0.00299877
-0.00720554
0.00125099
-0.00773313
0.000639417
-0.00804185
0.000471331
-0.00827174
0.000505017
-0.00848182
0.000633072
-0.00871527
0.000845549
-0.00899491
0.00110734
-0.00933692
0.00140872
-0.00975224
0.00173156
-0.0102448
0.00205061
-0.0108101
0.00232648
-0.0113835
0.00232643
-0.0119526
0.00229374
-0.0124898
0.00214688
-0.012965
0.00186821
-0.0133488
0.0014766
-0.0136147
0.000983217
-0.0137384
0.00039913
-0.0136991
-0.00026475
-0.0134787
-0.000996609
-0.0130625
-0.00178703
-0.0124379
-0.00262697
-0.0115952
-0.00351057
-0.0105195
-0.00446439
-0.00920549
-0.00545602
-0.00764958
-0.00649336
-0.00585033
-0.00757909
-0.00376008
-0.00888048
-0.00141487
-0.0101123
0.00106023
-0.012249
-0.013824
0.00325274
0.0584137
-0.0147611
-0.0523326
0.0636175
0.00888767
0.0682128
0.0250544
0.0714287
0.0377964
0.0699225
0.0475416
0.0603364
0.0519938
0.0430929
0.0486042
0.0232953
0.0378485
0.00740574
0.0238987
-0.00165005
0.0120554
-0.00566895
0.00527077
-0.00749845
0.00246985
-0.0084182
0.00139199
-0.0089677
0.00105542
-0.00935708
0.00102338
-0.00970612
0.00119558
-0.0100759
0.0014782
-0.0105036
0.00183742
-0.0110133
0.00224229
-0.0116165
0.00265465
-0.012314
0.00302464
-0.0130293
0.00304252
-0.0137456
0.00301079
-0.01443
0.00283199
-0.0150463
0.00248526
-0.0155591
0.00199006
-0.0159354
0.00136015
-0.0161452
0.000609662
-0.0161625
-0.000246726
-0.0159651
-0.00119342
-0.0155346
-0.00221684
-0.0148563
-0.00330473
-0.0139188
-0.00444743
-0.0127063
-0.00567648
-0.0112141
-0.00694763
-0.00944174
-0.0082655
-0.00739525
-0.00962542
-0.00503949
-0.0112359
-0.0024197
-0.0127317
0.000258811
-0.0149269
-0.016269
0.0027045
0.0683469
-0.0219683
-0.0611412
0.0744359
0.00279756
0.0794959
0.0199936
0.0839545
0.0333378
0.0868087
0.0446872
0.0848835
0.0539191
0.0748633
0.0586247
0.0566117
0.0561003
0.0344442
0.0460666
0.0148895
0.0316105
0.00222191
0.0179389
-0.00423046
0.00892279
-0.00726145
0.00442381
-0.00882954
0.00262441
-0.00973711
0.00193189
-0.0103694
0.00182888
-0.0109154
0.00202526
-0.0114786
0.00240184
-0.0121195
0.00288432
-0.012868
0.00340438
-0.0137363
0.00389427
-0.0146361
0.00394351
-0.0155463
0.00392202
-0.0164276
0.00371427
-0.017237
0.0032956
-0.0179315
0.00268541
-0.0184704
0.00189994
-0.0188169
0.000956975
-0.0189383
-0.000124571
-0.0188066
-0.00132432
-0.0183995
-0.00262327
-0.017699
-0.00400451
-0.0166924
-0.00545339
-0.015363
-0.00700529
-0.0137081
-0.00860207
-0.0117309
-0.0102423
-0.00944692
-0.011909
-0.00683384
-0.0138486
-0.00395265
-0.0156123
-0.00104485
-0.017834
-0.0190405
0.0017269
0.0801373
-0.0305536
-0.071556
0.087399
-0.0044648
0.0932595
0.0141323
0.0981381
0.0284588
0.102376
0.0404487
0.105028
0.0512672
0.103135
0.0605171
0.0932858
0.0659501
0.0745616
0.0647908
0.0503013
0.0558711
0.0267597
0.0414806
0.00923688
0.0264462
-0.000942484
0.0146038
-0.00602408
0.00770694
-0.00865115
0.00455999
-0.0101503
0.00332911
-0.0111575
0.00303359
-0.0119911
0.00323656
-0.0128303
0.00372461
-0.0137684
0.00434353
-0.0148516
0.00497845
-0.0159857
0.00507861
-0.0171472
0.00508435
-0.0182892
0.00485715
-0.0193605
0.0043677
-0.0203088
0.00363448
-0.0210843
0.00267619
-0.0216411
0.00151462
-0.0219387
0.000173781
-0.0219418
-0.00132054
-0.0216224
-0.00294194
-0.020959
-0.00466725
-0.0199369
-0.00647483
-0.0185393
-0.00840224
-0.0167659
-0.0103749
-0.0146253
-0.0123826
-0.0121426
-0.0143914
-0.00930584
-0.0166849
-0.00619338
-0.0187243
-0.00303779
-0.0209891
-0.0221884
0.000110544
0.0941792
-0.040857
-0.0838759
0.102857
-0.0131433
0.109861
0.007128
0.115444
0.022875
0.120033
0.0358592
0.124004
0.0472962
0.126594
0.0579269
0.125137
0.0674071
0.116115
0.0738127
0.0977802
0.0742059
0.0721833
0.0670777
0.0446024
0.0540273
0.0212766
0.03793
0.00572093
0.0232632
-0.00286746
0.0131491
-0.00731843
0.00778089
-0.00982608
0.0055421
-0.0114354
0.0048466
-0.0127108
0.00500099
-0.0139466
0.00558033
-0.015304
0.00633685
-0.0167244
0.00649993
-0.0181987
0.00655954
-0.019676
0.00633527
-0.0210949
0.00578737
-0.0223912
0.0049315
-0.0235035
0.00378908
-0.024375
0.00238682
-0.0249552
0.000754547
-0.0251995
-0.00107551
-0.0250724
-0.00306846
-0.0245473
-0.00519173
-0.0236071
-0.00741457
-0.0222353
-0.00977343
-0.0204341
-0.0121757
-0.0182178
-0.0145985
-0.0156207
-0.0169883
-0.0126374
-0.0196677
-0.00936044
-0.0220008
-0.00597305
-0.0243759
-0.0257189
-0.00244227
0.110922
-0.0533132
-0.0984664
0.121332
-0.023553
0.129735
-0.00127514
0.136403
0.0162071
0.141607
0.0306552
0.145815
0.0430885
0.149465
0.054276
0.152065
0.0648073
0.151343
0.0745345
0.143819
0.0817306
0.126945
0.0839515
0.101055
0.079917
0.0702364
0.0687491
0.040817
0.0526828
0.0182043
0.035762
0.00400586
0.0219798
-0.00376805
0.0133164
-0.00803258
0.0091121
-0.0106796
0.00764887
-0.0126552
0.00755707
-0.0144885
0.00817132
-0.0162937
0.00830616
-0.0181556
0.00842238
-0.0200484
0.00822903
-0.0219101
0.00764985
-0.0236663
0.00668833
-0.025242
0.0053654
-0.026567
0.00371234
-0.0275779
0.00176603
-0.0282189
-0.000434087
-0.0284431
-0.0028436
-0.0282172
-0.00541732
-0.0275196
-0.00811155
-0.0263346
-0.0109581
-0.0246652
-0.0138446
-0.022531
-0.0167326
-0.0199719
-0.0195468
-0.0169882
-0.0226512
-0.0136755
-0.0253128
-0.0101515
-0.0278997
-0.0295357
-0.00633419
0.1309
-0.0684492
-0.115763
0.143461
-0.0361135
0.153566
-0.01138
0.161577
0.00819616
0.167789
0.0244442
0.172523
0.0383543
0.176262
0.0505369
0.179517
0.0615532
0.1821
0.0719508
0.182253
0.0815784
0.176757
0.0894468
0.162344
0.0943299
0.137792
0.0933014
0.105402
0.0850729
0.0706546
0.0705095
0.0399964
0.052638
0.0177436
0.0355698
0.00414658
0.0227096
-0.0034272
0.0152236
-0.00790051
0.0120313
-0.0110589
0.0113307
-0.0136293
0.0108775
-0.0160787
0.0108728
-0.0185252
0.0106763
-0.0209559
0.0100815
-0.0233066
0.00903967
-0.025497
0.00755636
-0.0274455
0.00566143
-0.0290762
0.00339719
-0.0303211
0.00081136
-0.0311209
-0.00204334
-0.0314304
-0.00510732
-0.0312209
-0.0083207
-0.0304748
-0.0117036
-0.0291933
-0.0151259
-0.0273971
-0.0185283
-0.0251289
-0.0218149
-0.0223938
-0.0253857
-0.0192808
-0.0284257
-0.0158499
-0.03133
-0.0333795
-0.0120059
0.154753
-0.0869077
-0.136293
0.169989
-0.0513488
0.1822
-0.0235911
0.191839
-0.00144225
0.199306
0.0169779
0.204955
0.0327056
0.209137
0.046355
0.212328
0.0583631
0.215087
0.0691918
0.21752
0.0791448
0.21848
0.0884868
0.215248
0.0975629
0.204235
0.104314
0.182853
0.106454
0.151331
0.102032
0.113386
0.0905832
0.0752308
0.0737253
0.0431217
0.0548191
0.0204892
0.0378566
0.00671544
0.0258056
-0.0012663
0.0193131
-0.00617208
0.0157841
-0.00997653
0.0146778
-0.0133998
0.0141005
-0.0166842
0.0133665
-0.0198631
0.0122195
-0.022891
0.0105849
-0.0256931
0.00846431
-0.0281896
0.00589426
-0.0303056
0.00292812
-0.0319745
-0.000373928
-0.0331387
-0.00394235
-0.0337585
-0.00770047
-0.033813
-0.0116485
-0.0332951
-0.0156435
-0.0322216
-0.0196012
-0.0306308
-0.0234054
-0.0285371
-0.0274788
-0.026012
-0.0309504
-0.0230847
-0.0342568
-0.0367863
-0.0196778
0.183254
-0.109467
-0.160693
0.201803
-0.0698972
0.21663
-0.0384184
0.228282
-0.0130931
0.237265
0.00799549
0.24405
0.0259206
0.249038
0.0413676
0.252593
0.0548081
0.255167
0.0666183
0.257318
0.076994
0.259404
0.0864002
0.260936
0.0960315
0.259862
0.105389
0.252787
0.113529
0.236233
0.118585
0.208437
0.11838
0.170731
0.111431
0.127717
0.0978336
0.0860044
0.0795695
0.051713
0.0600973
0.0277198
0.0433069
0.0137161
0.0297883
0.00520031
0.0231946
-0.000838216
0.0201398
-0.00587352
0.018403
-0.0104664
0.0168132
-0.0147857
0.0149054
-0.0188456
0.012525
-0.0225982
0.00964821
-0.0259799
0.00631044
-0.0289265
0.00257391
-0.0313794
-0.00148898
-0.0332873
-0.00579147
-0.0346284
-0.010307
-0.0353832
-0.0148876
-0.0355615
-0.0194228
-0.0351891
-0.0237767
-0.0342983
-0.0283697
-0.0329309
-0.0323168
-0.0311117
-0.036076
-0.0391009
-0.0287961
0.217339
-0.13707
-0.189735
0.239973
-0.0925311
0.258038
-0.0564832
0.272186
-0.0272411
0.283042
-0.00285943
0.291195
0.017768
0.297169
0.0353932
0.301402
0.050576
0.304266
0.0637544
0.306163
0.0750966
0.307622
0.0849412
0.309205
0.0944494
0.310915
0.103678
0.31154
0.112905
0.308344
0.121782
0.297647
0.129076
0.276227
0.132851
0.242932
0.13113
0.199743
0.122758
0.151748
0.108093
0.105813
0.0892421
0.0705243
0.0650778
0.0460856
0.0476342
0.0300902
0.0361364
0.0192579
0.0292366
0.0110841
0.0249885
0.00419101
0.0217998
-0.00202222
0.0187396
-0.00776544
0.0153927
-0.0130828
0.0116291
-0.0179577
0.00744995
-0.0223532
0.00290766
-0.0262229
-0.0019209
-0.0295434
-0.00698542
-0.0322765
-0.0121538
-0.0344166
-0.0172819
-0.0359777
-0.0222151
-0.0370196
-0.0273269
-0.0375494
-0.0317866
-0.0376009
-0.0360237
-0.0395405
-0.0371609
0.25814
-0.170855
-0.224354
0.285793
-0.120184
0.307846
-0.0785361
0.325081
-0.0444761
0.338259
-0.0160368
0.3481
0.0079275
0.355257
0.0282369
0.360295
0.0455376
0.363682
0.0603675
0.365788
0.0729907
0.366977
0.0837525
0.367756
0.0936702
0.368702
0.102733
0.370191
0.111416
0.371813
0.120161
0.371809
0.12908
0.367031
0.137629
0.353688
0.144474
0.328706
0.147739
0.291181
0.145619
0.243315
0.137109
0.193945
0.114448
0.148648
0.0929322
0.111412
0.0733732
0.0832046
0.0574455
0.0626316
0.045563
0.0474194
0.0370134
0.0355327
0.030628
0.0255864
0.0253403
0.0167977
0.0204194
0.00878544
0.0154633
0.00139207
0.0103025
-0.00543511
0.00490725
-0.0117335
-0.000685784
-0.0174582
-0.00642839
-0.0225792
-0.0121598
-0.0270841
-0.0177097
-0.0310658
-0.0233442
-0.0344648
-0.0283873
-0.037332
-0.0331556
-0.037208
-0.0396643
0.307018
-0.212197
-0.265675
0.340818
-0.153984
0.367768
-0.105486
0.388807
-0.0655145
0.404856
-0.0320849
0.41679
-0.00400681
0.425406
0.0196214
0.431403
0.03954
0.435383
0.056388
0.437826
0.0705481
0.439114
0.0824651
0.439622
0.0931622
0.439752
0.102603
0.440032
0.111135
0.441024
0.11917
0.442933
0.127171
0.445041
0.135521
0.445262
0.144253
0.440217
0.152785
0.425993
0.159844
0.399451
0.163651
0.362332
0.151568
0.317834
0.137431
0.270518
0.120691
0.224967
0.102997
0.184572
0.0859591
0.150852
0.0707348
0.123624
0.0578569
0.101735
0.0472313
0.0837904
0.0383652
0.0685931
0.0306617
0.055278
0.0236192
0.0432836
0.0169025
0.0322123
0.010387
0.0219248
0.00385963
0.0123575
-0.0025912
0.00349927
-0.00885112
-0.00481607
-0.0150277
-0.0124367
-0.0207664
-0.0194282
-0.026163
-0.0308854
-0.0257507
0.331406
-0.257974
-0.28563
0.368805
-0.191383
0.398629
-0.135309
0.4219
-0.0887861
0.439633
-0.0498169
0.452785
-0.0171591
0.462232
0.0101754
0.468742
0.0330294
0.472985
0.0521453
0.475516
0.0680181
0.476788
0.0811934
0.477196
0.0927542
0.477042
0.102757
0.47663
0.111548
0.476357
0.119443
0.476749
0.12678
0.478304
0.133966
0.481113
0.141445
0.484349
0.14955
0.485918
0.158275
0.482543
0.167027
0.471161
0.16295
0.450801
0.157792
0.421952
0.14954
0.386508
0.138443
0.347235
0.125233
0.307124
0.110846
0.268747
0.0962355
0.233796
0.0821832
0.202971
0.0691914
0.176181
0.0574522
0.152896
0.0469064
0.132444
0.0373545
0.114109
0.0287237
0.0974626
0.0205064
0.0821674
0.0127052
0.0680127
0.00530397
0.054606
-0.00161977
0.0421088
-0.00826911
0.0303961
-0.0144491
-0.0200303
0.0195411
0.351152
-0.307528
-0.301597
0.391613
-0.231844
0.42388
-0.167575
0.449053
-0.113959
0.468223
-0.0689861
0.482421
-0.0313575
0.492588
9.29206e-06
0.499548
0.0260686
0.504021
0.0476735
0.506606
0.0654329
0.507809
0.0799909
0.508074
0.092489
0.50774
0.103091
0.507069
0.11222
0.506288
0.120223
0.505672
0.127396
0.505618
0.13402
0.506643
0.14042
0.509209
0.146984
0.513357
0.154127
0.518233
0.162152
0.521197
0.159986
0.52039
0.1586
0.514079
0.155851
0.501253
0.151269
0.481824
0.144662
0.456581
0.13609
0.426958
0.12586
0.3947
0.114441
0.361535
0.102358
0.328892
0.090095
0.29776
0.0780395
0.268665
0.0664495
0.241627
0.0557629
0.216661
0.0454728
0.193612
0.0357556
0.1723
0.0266161
0.152168
0.0185128
0.133412
0.010487
0.115814
0.0031495
-0.00366773
0.0994518
0.372906
-0.361114
-0.319319
0.416639
-0.275577
0.451513
-0.20245
0.478715
-0.14116
0.499418
-0.0896893
0.514735
-0.0466737
0.525674
-0.0109292
0.533125
0.0186176
0.537859
0.0429397
0.540524
0.0627681
0.541664
0.0788509
0.54176
0.0923932
0.541194
0.103659
0.540268
0.113146
0.539217
0.121275
0.538224
0.12839
0.537472
0.134772
0.537225
0.140668
0.537887
0.146322
0.539977
0.152037
0.543935
0.158195
0.548861
0.15506
0.554152
0.153309
0.558622
0.151382
0.560881
0.149011
0.55964
0.145903
0.553963
0.141767
0.543404
0.136419
0.528032
0.129814
0.508353
0.122037
0.485174
0.113274
0.459446
0.103768
0.432123
0.0937723
0.403913
0.0839741
0.375571
0.0738145
0.347641
0.063687
0.320517
0.0537398
0.293974
0.0450569
0.26856
0.0359012
0.244194
0.0275163
0.0193511
0.221175
0.396708
-0.419014
-0.338807
0.443941
-0.32281
0.481606
-0.240113
0.510976
-0.17053
0.533319
-0.112032
0.549831
-0.0631853
0.561596
-0.0226939
0.569573
0.0106403
0.574591
0.0379231
0.577345
0.0600134
0.578425
0.0777723
0.57834
0.0924779
0.577504
0.104495
0.576255
0.114395
0.574865
0.122665
0.573542
0.129712
0.572443
0.135872
0.571698
0.141413
0.571465
0.146556
0.572003
0.151498
0.573723
0.156475
0.57636
0.152424
0.580204
0.149465
0.585152
0.146434
0.590755
0.143408
0.596276
0.140381
0.600812
0.137232
0.603439
0.133792
0.60336
0.129893
0.599996
0.125401
0.593033
0.120237
0.582421
0.114381
0.568332
0.107861
0.551022
0.101285
0.530959
0.0938775
0.508669
0.0859777
0.484716
0.0776929
0.45919
0.0705838
0.432899
0.0621921
0.406067
0.0543491
0.0460635
0.379354
0.422639
-0.481539
-0.360114
0.473627
-0.373797
0.51428
-0.280767
0.545974
-0.202223
0.570072
-0.136131
0.587864
-0.0809762
0.600514
-0.035344
0.609055
0.00209986
0.614375
0.0326036
0.617225
0.0571633
0.618237
0.0767606
0.617958
0.0927578
0.616828
0.105625
0.61521
0.116014
0.613401
0.124475
0.611641
0.131473
0.610116
0.137397
0.608964
0.142566
0.608284
0.147236
0.608169
0.151614
0.60876
0.155885
0.609668
0.151517
0.611229
0.147904
0.613666
0.143997
0.617107
0.139968
0.621519
0.135969
0.626678
0.132073
0.632179
0.128291
0.637484
0.124588
0.641992
0.120894
0.645108
0.117121
0.646305
0.113184
0.645165
0.109001
0.641378
0.105072
0.634766
0.100491
0.625292
0.095452
0.613058
0.0899282
0.597998
0.0856441
0.580517
0.079675
0.560747
0.0741188
0.0676307
0.539181
0.45081
-0.54903
-0.383317
0.50583
-0.428816
0.549693
-0.32463
0.583881
-0.23641
0.609863
-0.162113
0.629026
-0.100139
0.642625
-0.0489426
0.651768
-0.00704271
0.657411
0.0269606
0.660363
0.0542119
0.661301
0.0758228
0.66081
0.0932494
0.659362
0.107074
0.657343
0.118032
0.65507
0.126747
0.652801
0.133743
0.650741
0.139458
0.649052
0.144254
0.647856
0.148433
0.647234
0.152237
0.64724
0.155879
0.64735
0.151407
0.647722
0.147533
0.648457
0.143264
0.649683
0.138742
0.651531
0.134121
0.654091
0.129514
0.657376
0.125007
0.661302
0.120663
0.665683
0.116512
0.670249
0.112557
0.67466
0.108773
0.678551
0.105112
0.681568
0.102056
0.683338
0.0987207
0.683547
0.095244
0.681947
0.0915285
0.678307
0.0892846
0.672507
0.0854748
0.664428
0.0821978
0.0780272
0.654033
0.481352
-0.621864
-0.408518
0.540712
-0.488175
0.588029
-0.371947
0.624899
-0.27328
0.652907
-0.19012
0.673544
-0.120776
0.688162
-0.0635601
0.697951
-0.0168311
0.703941
0.0209711
0.707
0.0511533
0.707857
0.074966
0.707136
0.0939706
0.705343
0.108868
0.702891
0.120485
0.700117
0.129522
0.697292
0.136568
0.694634
0.142115
0.692318
0.146571
0.690479
0.150272
0.689217
0.153499
0.688597
0.156499
0.688094
0.151911
0.687792
0.147835
0.687684
0.143372
0.687781
0.138646
0.688116
0.133786
0.688747
0.128883
0.689736
0.124019
0.691137
0.119262
0.692979
0.11467
0.695251
0.110285
0.697894
0.10613
0.700804
0.102202
0.703857
0.0990026
0.706858
0.0957203
0.709595
0.0925069
0.711849
0.0892757
0.713445
0.0876877
0.714121
0.0848
0.713687
0.0826318
0.0798537
0.711861
0.514421
-0.70045
-0.435834
0.578456
-0.55221
0.629495
-0.422986
0.669257
-0.313041
0.699448
-0.220312
0.721676
-0.143003
0.737392
-0.079276
0.747877
-0.0273163
0.754241
0.0146082
0.757415
0.047979
0.758184
0.0741971
0.757216
0.0949393
0.755051
0.111033
0.752132
0.123404
0.748818
0.132837
0.745396
0.13999
0.742097
0.145415
0.739101
0.149567
0.73655
0.152824
0.734552
0.155498
0.733182
0.157868
0.731956
0.153137
0.730959
0.148832
0.730171
0.14416
0.729561
0.139256
0.729101
0.134245
0.728774
0.12921
0.728575
0.124218
0.728513
0.119324
0.728609
0.114574
0.72889
0.110005
0.729381
0.105639
0.730097
0.101486
0.731057
0.0980438
0.732234
0.0945437
0.733588
0.091153
0.735057
0.0878073
0.736617
0.0861289
0.738125
0.0832921
0.7395
0.0812574
0.0787916
0.740562
0.550187
-0.785239
-0.465398
0.619267
-0.621289
0.674323
-0.478042
0.717207
-0.355925
0.749758
-0.252862
0.773705
-0.166949
0.79061
-0.096181
0.801851
-0.0385572
0.808621
0.00783882
0.811923
0.0446772
0.8126
0.0735202
0.811367
0.0961725
0.808804
0.113596
0.805385
0.126823
0.801492
0.13673
0.797433
0.14405
0.79345
0.149398
0.789734
0.153283
0.786432
0.156126
0.783653
0.158278
0.781477
0.160045
0.779449
0.155166
0.777664
0.150617
0.776117
0.145708
0.774785
0.140588
0.77364
0.135391
0.772647
0.130203
0.771773
0.125093
0.770989
0.120109
0.770274
0.11529
0.769617
0.110662
0.769018
0.106239
0.768483
0.102021
0.768041
0.0984868
0.767701
0.0948837
0.767481
0.0913733
0.767393
0.0878949
0.767485
0.0860378
0.767729
0.0830481
0.768139
0.0808471
0.0782477
0.768683
0.588842
-0.87672
-0.497359
0.663369
-0.695816
0.722767
-0.53744
0.769029
-0.402186
0.804134
-0.287967
0.829944
-0.192759
0.848141
-0.114378
0.860206
-0.0506222
0.867421
0.000623722
0.870868
0.0412307
0.871452
0.0729364
0.86994
0.0976845
0.866955
0.116581
0.863004
0.130775
0.858496
0.141238
0.853759
0.148787
0.849053
0.154105
0.844578
0.157758
0.840489
0.160215
0.836901
0.161866
0.833896
0.16305
0.831041
0.158021
0.828437
0.153221
0.826085
0.14806
0.823978
0.142696
0.822097
0.137271
0.82042
0.13188
0.81892
0.126593
0.817565
0.121464
0.816327
0.116529
0.815177
0.111812
0.814095
0.107322
0.813061
0.103054
0.812079
0.099469
0.811137
0.0958248
0.81024
0.0922713
0.809392
0.0887418
0.808637
0.0867934
0.807967
0.0837168
0.807418
0.0813965
0.0786642
0.807001
0.630592
-0.975432
-0.531881
0.711008
-0.77623
0.775103
-0.601535
0.825023
-0.452105
0.8629
-0.325843
0.890735
-0.220594
0.910339
-0.133982
0.923307
-0.0635894
0.931015
-0.00708403
0.934629
0.0376171
0.935123
0.0724422
0.933321
0.0994871
0.929891
0.120012
0.925377
0.135289
0.920218
0.146397
0.914766
0.15424
0.909296
0.159575
0.904025
0.16303
0.899116
0.165124
0.894692
0.166291
0.890839
0.166903
0.887147
0.161714
0.883718
0.156651
0.88056
0.151219
0.877672
0.145586
0.875042
0.139901
0.87266
0.134264
0.870504
0.128749
0.868556
0.123413
0.866791
0.118293
0.865189
0.113415
0.863723
0.108787
0.862376
0.104402
0.861135
0.10071
0.859979
0.0969815
0.858891
0.0933587
0.857862
0.0897711
0.856911
0.0877442
0.856015
0.0846125
0.855189
0.0822224
0.0794216
0.854432
0.675664
-1.08195
-0.569139
0.76245
-0.863017
0.831633
-0.670717
0.885521
-0.505992
0.926408
-0.36673
0.956449
-0.250634
0.977592
-0.155124
0.991552
-0.0775488
0.999809
-0.0153411
1.00362
0.0338065
1.00403
0.0720295
1.00193
0.101588
0.998036
0.123908
0.99293
0.140395
0.987086
0.152241
0.98088
0.160446
0.974609
0.165847
0.968504
0.169135
0.962742
0.170887
0.957454
0.17158
0.952735
0.171623
0.948192
0.166257
0.943934
0.16091
0.939973
0.15518
0.936312
0.149246
0.932949
0.143265
0.929872
0.137341
0.927069
0.131553
0.924524
0.125958
0.922221
0.120597
0.920142
0.115495
0.918268
0.110661
0.916582
0.106089
0.915075
0.102217
0.913724
0.0983324
0.91251
0.0945727
0.911415
0.0908662
0.910452
0.0887064
0.909586
0.0854797
0.908815
0.0829925
0.080114
0.908123
0.7243
-1.19693
-0.609326
0.817984
-0.956699
0.892682
-0.745415
0.950878
-0.564187
0.99504
-0.410893
1.02749
-0.283082
1.05032
-0.177953
1.06537
-0.0926034
1.07425
-0.0242147
1.07829
0.0297615
1.07864
0.0716841
1.07623
0.103992
1.07186
0.128288
1.06613
0.146121
1.05957
0.158805
1.05257
0.167444
1.04546
0.172958
1.03848
0.176112
1.03183
0.177538
1.02565
0.177761
1.02004
0.177232
1.01463
0.171667
1.00953
0.16601
1.00477
0.159948
1.00034
0.153675
0.996249
0.147355
0.992494
0.141097
0.989061
0.134986
0.98594
0.129081
0.983111
0.123425
0.980563
0.118044
0.978277
0.112948
0.976238
0.108129
0.974439
0.104015
0.97286
0.099913
0.971478
0.0959536
0.970279
0.092066
0.969275
0.0897095
0.968427
0.0863288
0.967731
0.0836881
0.080682
0.967163
0.776766
-1.32105
-0.652648
0.877921
-1.05786
0.958602
-0.826094
1.02148
-0.627064
1.06921
-0.458623
1.10429
-0.31816
1.12897
-0.202633
1.14524
-0.108871
1.15481
-0.0337835
1.15914
0.0254357
1.15943
0.0713854
1.15673
0.106698
1.15185
0.133165
1.14548
0.152491
1.13817
0.166122
1.13034
0.175271
1.12235
0.180949
1.11446
0.183998
1.10689
0.185112
1.09978
0.184868
1.09326
0.183755
1.08696
0.177967
1.08101
0.171966
1.07542
0.165534
1.07022
0.158878
1.06541
0.152169
1.06098
0.145527
1.05693
0.139039
1.05324
0.13277
1.0499
0.126763
1.0469
0.121047
1.04421
0.115632
1.04183
0.110512
1.03974
0.106103
1.03793
0.101729
1.03636
0.0975165
1.03503
0.0933961
1.03395
0.0907892
1.03308
0.0872039
1.03241
0.0843587
0.0811761
1.03191
0.833342
-1.45506
-0.699325
0.942599
-1.16711
1.02977
-0.91327
1.09775
-0.695033
1.14937
-0.510246
1.18733
-0.356118
1.21405
-0.229351
1.23166
-0.126486
1.24202
-0.0441387
1.24668
0.0207727
1.24696
0.0711051
1.24396
0.1097
1.23858
0.138551
1.23154
0.15953
1.22344
0.174224
1.21475
0.183964
1.20584
0.189861
1.197
0.192835
1.18846
0.19365
1.1804
0.192935
1.17293
0.191224
1.16572
0.185182
1.15888
0.178801
1.15246
0.171956
1.14647
0.164867
1.14093
0.157718
1.13582
0.150636
1.13114
0.143715
1.12689
0.137023
1.12304
0.130608
1.11959
0.1245
1.11652
0.11871
1.11379
0.113233
1.11142
0.108474
1.10938
0.103776
1.10763
0.0992617
1.10617
0.0948615
1.105
0.0919564
1.10408
0.0881234
1.10341
0.0850313
0.0816325
1.10295
0.894336
-1.5998
-0.749595
1.01238
-1.28515
1.10661
-1.0075
1.18012
-0.768547
1.236
-0.566118
1.27711
-0.397233
1.30608
-0.258317
1.32519
-0.1456
1.33644
-0.0553864
1.34151
0.0157047
1.34181
0.070806
1.33853
0.112984
1.33263
0.144451
1.3249
0.167257
1.31598
0.183141
1.30639
0.193561
1.29652
0.199733
1.28669
0.202666
1.27715
0.203192
1.26808
0.202001
1.25963
0.199672
1.25147
0.193345
1.24373
0.186543
1.23645
0.179237
1.22965
0.171664
1.22335
0.16402
1.21755
0.15644
1.21224
0.149026
1.20741
0.141852
1.20305
0.134969
1.19914
0.128409
1.19567
0.122187
1.1926
0.116298
1.18994
0.111134
1.18766
0.10606
1.18572
0.101195
1.18412
0.0964693
1.18285
0.0932195
1.18188
0.0890984
1.18119
0.0857201
0.0820698
1.18075
0.960073
-1.75617
-0.80371
1.08765
-1.41273
1.18955
-1.1094
1.2691
-0.8481
1.32962
-0.626633
1.3742
-0.441811
1.40565
-0.289764
1.42643
-0.166388
1.4387
-0.0676487
1.44425
0.0101511
1.44462
0.0704415
1.44107
0.116532
1.43465
0.150867
1.42622
0.175691
1.41646
0.192903
1.40592
0.204099
1.39505
0.210609
1.38418
0.213535
1.37358
0.213785
1.36347
0.212112
1.354
0.209143
1.34486
0.202494
1.33617
0.195227
1.328
0.187411
1.32036
0.179299
1.31328
0.1711
1.30676
0.162962
1.30079
0.154994
1.29537
0.147276
1.29048
0.139864
1.28609
0.132793
1.2822
0.12608
1.27878
0.119723
1.27581
0.114099
1.27327
0.108599
1.27113
0.103334
1.26937
0.0982369
1.26799
0.0945965
1.26694
0.0901475
1.26621
0.0864445
0.082509
1.26578
1.03091
-1.92513
-0.861941
1.16883
-1.55065
1.27907
-1.21964
1.36521
-0.934238
1.4308
-0.692224
1.47919
-0.490194
1.51338
-0.323954
1.53603
-0.189043
1.54945
-0.0810664
1.55558
0.004017
1.55607
0.0699537
1.55229
0.120315
1.54536
0.157794
1.53621
0.184843
1.52558
0.203536
1.51406
0.215616
1.50214
0.222533
1.49018
0.22549
1.47849
0.225479
1.46728
0.223316
1.45674
0.219684
1.44656
0.212675
1.43689
0.204898
1.42778
0.196518
1.41927
0.187809
1.41137
0.178995
1.4041
0.170236
1.39744
0.16165
1.39139
0.153325
1.38593
0.145322
1.38105
0.137679
1.37671
0.130416
1.3729
0.123534
1.3696
0.117396
1.36678
0.111417
1.36441
0.105704
1.36245
0.100191
1.36093
0.0961144
1.35978
0.0912983
1.35899
0.087233
0.082979
1.35852
1.10721
-2.10777
-0.924575
1.25637
-1.69982
1.37569
-1.33896
1.46901
-1.02756
1.54016
-0.763373
1.59272
-0.542759
1.62995
-0.36118
1.65469
-0.213788
1.66943
-0.0958012
1.67625
-0.0028089
1.67694
0.0692711
1.67296
0.124294
1.66553
0.165221
1.65565
0.194724
1.64412
0.215066
1.63159
0.228148
1.61857
0.23555
1.60547
0.238584
1.59263
0.238329
1.58027
0.235672
1.5686
0.231353
1.55733
0.223945
1.54662
0.215609
1.53652
0.206611
1.52709
0.197245
1.51833