/*--------------------------------*- C++ -*----------------------------------*\
| =========                 |                                                 |
| \\      /  F ield         | OpenFOAM: The Open Source CFD Toolbox           |
|  \\    /   O peration     | Version:  5.x                                   |
|   \\  /    A nd           | Web:      www.OpenFOAM.org                      |
|    \\/     M anipulation  |                                                 |
\*---------------------------------------------------------------------------*/
FoamFile
{
    version     2.0;
    format      ascii;
    class       surfaceScalarField;
    location    "400";
    object      phi;
}
// * * * * * * * * * * * * * * * * * * * * * * * * * * * * * * * * * * * * * //

dimensions      [0 3 -1 0 0 0 0];

internalField   nonuniform List<scalar> 
83317
(
0.00049342
0.000125726
-0.000601833
0.000399967
9.34869e-05
0.000325349
7.46067e-05
0.000293428
3.19267e-05
0.000275741
1.76887e-05
0.000261631
1.4117e-05
0.00025124
1.03942e-05
0.000243613
7.63114e-06
0.000237525
6.08961e-06
0.000232169
5.35855e-06
0.000227457
4.98747e-06
0.000222522
4.69799e-06
0.000218746
4.04359e-06
0.000215118
3.33992e-06
0.000213096
2.32109e-06
0.000211727
1.07804e-06
0.000210239
1.78869e-06
0.000209159
7.84823e-07
0.00020752
1.95591e-06
0.000206225
1.00058e-06
0.000204847
1.36871e-06
0.000203314
1.53237e-06
0.000202225
1.08922e-06
0.000200809
1.41659e-06
0.000199723
1.08569e-06
0.000198626
1.09746e-06
0.000197267
1.35828e-06
0.000196194
1.07311e-06
0.000195308
8.87238e-07
0.000194382
9.25068e-07
0.000193196
1.18801e-06
0.000192076
1.4267e-06
0.000191474
3.45373e-07
0.00019077
9.82608e-07
0.00019013
3.70816e-07
0.000189703
6.67689e-07
0.000189193
2.3313e-07
0.000188868
5.70334e-07
0.000188909
-2.82413e-07
0.000189225
-7.86099e-08
0.000189482
-4.90409e-07
0.000185147
4.51551e-06
0.000181464
3.49786e-06
0.000181098
5.08125e-07
0.000180839
1.2024e-07
0.000180878
1.07605e-07
0.000180574
1.61179e-07
0.000180324
3.72999e-07
0.000180172
3.07532e-08
0.000180075
2.19466e-07
0.000179988
-1.41636e-08
0.000179945
1.36193e-07
0.000179871
-3.04567e-08
0.000179823
1.41284e-07
0.000179546
1.86909e-07
0.000179321
2.65773e-07
0.000179842
-5.58394e-07
0.000180015
-1.22499e-07
0.000180204
-2.38431e-07
0.000180735
-4.75347e-07
0.000180989
-3.06351e-07
0.000181128
-1.07732e-07
0.000181276
-1.76514e-07
0.000181381
-1.08508e-07
0.000181239
1.45972e-07
0.000180969
2.32182e-07
0.000180661
3.50315e-07
0.000180692
-1.08591e-07
0.000180961
-1.92405e-07
0.000180454
3.74359e-07
0.000179697
8.83441e-07
0.000179441
7.22941e-08
0.00017863
1.01066e-06
0.000177293
1.05837e-06
0.000176081
1.486e-06
0.000174646
9.8646e-07
0.000172412
2.6917e-06
0.000169943
1.76582e-06
0.000166379
4.28975e-06
0.000166229
-1.29359e-06
8.52685e-05
8.23945e-05
-0.000416793
0.000502072
0.000745794
0.000264143
-0.000884067
0.000575611
0.000263686
0.000457242
0.000192967
0.000409918
7.92551e-05
0.000389296
3.83121e-05
0.000375103
2.83137e-05
0.00036761
1.78897e-05
0.000363991
1.12537e-05
0.000362436
7.64625e-06
0.000362162
5.6337e-06
0.000362339
4.95929e-06
0.000362543
4.36807e-06
0.000363139
3.59082e-06
0.000363903
2.41919e-06
0.00036635
3.59035e-08
0.000368605
-1.33348e-06
0.000371752
-1.19754e-06
0.000374399
-2.01862e-06
0.000377163
-6.38684e-07
0.000379637
-1.62524e-06
0.000381292
-2.93161e-07
0.000383114
-2.89455e-07
0.000383982
2.21371e-07
0.000384806
5.9268e-07
0.000385069
8.22768e-07
0.000384847
1.31995e-06
0.000384895
1.30955e-06
0.000384203
1.76654e-06
0.000383271
1.81901e-06
0.00038214
2.05692e-06
0.000381197
2.1316e-06
0.000380082
2.70427e-06
0.000378367
1.92853e-06
0.000376772
2.72579e-06
0.000375078
1.92305e-06
0.000373309
2.56344e-06
0.000371666
1.72697e-06
0.000369807
2.56008e-06
0.000367668
1.72628e-06
0.000365679
2.03854e-06
0.000363714
1.34745e-06
0.000365463
2.86493e-06
0.000368153
7.07187e-07
0.000368508
2.30417e-07
0.0003681
4.53716e-07
0.000367356
9.29513e-07
0.000366854
5.86864e-07
0.000366365
9.2689e-07
0.000365858
4.71522e-07
0.000365374
7.70335e-07
0.000364926
3.81739e-07
0.00036451
6.00171e-07
0.000364151
2.70532e-07
0.000363828
5.15381e-07
0.000363726
2.4112e-07
0.000363643
3.69719e-07
0.000363093
-2.80646e-08
0.000362836
1.62509e-07
0.000362602
-3.10666e-08
0.000362205
-4.89665e-08
0.000362024
-1.52195e-07
0.00036196
-2.83067e-08
0.000361617
1.51165e-07
0.000361231
2.7539e-07
0.000360857
5.20366e-07
0.000360395
6.75479e-07
0.000359956
8.13396e-07
0.000359121
6.8307e-07
0.00035808
8.88302e-07
0.00035722
1.16829e-06
0.000356254
1.91917e-06
0.00035476
1.47175e-06
0.000353276
2.60782e-06
0.000351657
2.52474e-06
0.000349369
3.9204e-06
0.000346712
3.39756e-06
0.000343558
6.0874e-06
0.00033996
4.98359e-06
0.00033404
1.06052e-05
0.000333744
-1.79193e-06
0.0001811
0.00023582
-0.000851048
0.000615373
0.000988247
0.000436006
-0.00116036
0.000755398
0.000496553
0.000593438
0.000354924
0.00053119
0.000141506
0.000506279
6.32224e-05
0.000490704
4.3892e-05
0.000484658
2.39366e-05
0.000483696
1.22175e-05
0.000485404
5.93805e-06
0.000488892
2.14692e-06
0.000492719
1.22555e-06
0.000496552
4.53855e-07
0.000500183
5.04399e-08
0.000503424
-9.20654e-07
0.000508316
-4.75726e-06
0.000512249
-5.36246e-06
0.00051734
-6.19274e-06
0.000521515
-6.28605e-06
0.000525781
-4.80697e-06
0.000529584
-5.51676e-06
0.00053238
-3.09126e-06
0.000535207
-3.11706e-06
0.000536737
-1.30872e-06
0.000538158
-8.28656e-07
0.00053883
1.51474e-07
0.000539073
1.07628e-06
0.000539211
1.17167e-06
0.000538589
2.38822e-06
0.000537882
2.52687e-06
0.000536701
3.23728e-06
0.000535495
3.33757e-06
0.000534007
4.28002e-06
0.000532233
3.62777e-06
0.000530333
4.70749e-06
0.000528242
3.93613e-06
0.000526019
4.85828e-06
0.00052363
4.03252e-06
0.000521154
5.11115e-06
0.000518391
4.41556e-06
0.000515562
4.94144e-06
0.000512472
4.36598e-06
0.000515942
-5.48217e-07
0.000520691
-4.0969e-06
0.000521028
-6.47899e-08
0.000520574
8.67478e-07
0.000519914
1.63403e-06
0.0005193
1.1576e-06
0.0005187
1.5642e-06
0.000518075
1.06108e-06
0.00051747
1.41223e-06
0.000516888
9.32481e-07
0.000516337
1.1802e-06
0.00051583
7.45916e-07
0.000515347
1.02662e-06
0.000514958
6.0272e-07
0.000514585
7.54611e-07
0.000514046
4.99545e-07
0.000513646
5.78437e-07
0.000513271
3.29265e-07
0.000512859
3.79551e-07
0.000512535
1.5587e-07
0.00051217
3.45898e-07
0.000511624
6.89606e-07
0.000511029
8.68663e-07
0.000510373
1.17887e-06
0.000509696
1.33907e-06
0.000508845
1.67738e-06
0.000507837
1.66697e-06
0.00050656
2.19105e-06
0.000505156
2.5263e-06
0.000503803
3.31066e-06
0.000501884
3.33165e-06
0.000499671
4.87982e-06
0.000497363
4.74792e-06
0.000494476
6.89196e-06
0.0004909
6.8349e-06
0.000486542
1.0591e-05
0.000481832
9.47626e-06
0.000474184
1.84776e-05
0.000473882
-1.94083e-06
0.000278782
0.000431363
-0.00133743
0.00076518
0.00128243
0.000641107
-0.00148751
0.000981222
0.000797778
0.0007652
0.000570938
0.000683382
0.000223327
0.000652239
9.43671e-05
0.000634324
6.18095e-05
0.000628856
2.94069e-05
0.000629784
1.12921e-05
0.000634056
1.66744e-06
0.00064052
-4.31601e-06
0.0006475
-5.68053e-06
0.00065428
-6.38646e-06
0.00066064
-6.24245e-06
0.000665686
-6.04265e-06
0.000671991
-1.09873e-05
0.000676937
-1.03803e-05
0.000682886
-1.20687e-05
0.000687921
-1.13912e-05
0.000692802
-9.6116e-06
0.000697253
-1.00332e-05
0.000700596
-6.43762e-06
0.000703848
-6.36932e-06
0.000705787
-3.24744e-06
0.000707459
-2.5002e-06
0.000708385
-7.75263e-07
0.000708828
6.33808e-07
0.000708998
1.00179e-06
0.000708425
2.96101e-06
0.000707806
3.14619e-06
0.000706611
4.43207e-06
0.000705259
4.69058e-06
0.000703597
6.01333e-06
0.000701778
5.39181e-06
0.000699736
6.81283e-06
0.000697459
6.15157e-06
0.000695047
7.32466e-06
0.000692349
6.66449e-06
0.000689582
7.93493e-06
0.000686559
7.38028e-06
0.000683429
8.12892e-06
0.000679874
7.86295e-06
0.000683155
-3.78343e-06
0.00068812
-9.1056e-06
0.000688547
-4.58838e-07
0.000688089
1.29313e-06
0.000687481
2.27637e-06
0.000686803
1.80216e-06
0.000686143
2.25303e-06
0.000685463
1.71133e-06
0.00068481
2.09519e-06
0.000684175
1.54553e-06
0.000683574
1.80143e-06
0.000683008
1.28584e-06
0.000682465
1.59172e-06
0.000681936
1.11132e-06
0.000681427
1.27224e-06
0.00068096
9.58164e-07
0.00068053
1.02106e-06
0.000680126
7.21168e-07
0.000679785
7.33789e-07
0.000679442
4.86664e-07
0.000678986
8.09695e-07
0.000678348
1.3197e-06
0.000677643
1.57285e-06
0.000676798
2.02381e-06
0.000675909
2.21966e-06
0.000674759
2.83895e-06
0.000673585
2.82111e-06
0.000672131
3.66152e-06
0.000670278
4.3512e-06
0.000668492
5.12825e-06
0.000666158
5.62536e-06
0.000663289
7.8015e-06
0.000660225
7.74156e-06
0.000656567
1.06155e-05
0.000651993
1.12958e-05
0.0006463
1.63931e-05
0.000640209
1.53953e-05
0.000630423
2.84435e-05
0.000630144
-2.02218e-06
0.000405429
0.000656433
-0.00189165
0.000959661
0.00163449
0.000872802
-0.00186648
0.00125683
0.00117545
0.000977494
0.000850276
0.000869671
0.000331152
0.000829205
0.000134832
0.000807215
8.38007e-05
0.000800646
3.59771e-05
0.000802292
9.64665e-06
0.000808376
-4.41725e-06
0.000817299
-1.3238e-05
0.000827288
-1.56255e-05
0.000837031
-1.61677e-05
0.000846506
-1.56744e-05
0.000853981
-1.35653e-05
0.000862233
-1.91917e-05
0.000868779
-1.69745e-05
0.000876073
-1.93149e-05
0.000882451
-1.78156e-05
0.000888438
-1.5549e-05
0.000893994
-1.56344e-05
0.000898233
-1.06784e-05
0.000902286
-1.04227e-05
0.000904928
-5.88988e-06
0.000907134
-4.70633e-06
0.000908539
-2.1802e-06
0.000909294
-1.21276e-07
0.000909742
5.54074e-07
0.000909346
3.35664e-06
0.00090884
3.65247e-06
0.000907703
5.5694e-06
0.000906342
6.05087e-06
0.000904634
7.76827e-06
0.000902721
7.26488e-06
0.000900558
9.01926e-06
0.000898115
8.55279e-06
0.000895522
9.95549e-06
0.000892602
9.53998e-06
0.000889583
1.09938e-05
0.000886272
1.0652e-05
0.000882858
1.15824e-05
0.000878946
1.17371e-05
0.000881934
-6.74077e-06
0.000887046
-1.42467e-05
0.000887712
-1.1027e-06
0.000887289
1.69501e-06
0.000886671
2.91765e-06
0.000885956
2.49441e-06
0.000885258
2.97165e-06
0.000884544
2.4066e-06
0.000883857
2.80236e-06
0.00088319
2.19534e-06
0.000882562
2.44468e-06
0.000881969
1.86279e-06
0.0008814
2.17561e-06
0.000880842
1.65407e-06
0.000880311
1.80989e-06
0.000879849
1.41386e-06
0.000879418
1.46087e-06
0.000879015
1.11627e-06
0.000878696
1.06235e-06
0.000878364
8.0942e-07
0.000877898
1.28123e-06
0.000877186
2.02774e-06
0.000876376
2.38179e-06
0.000875371
3.03086e-06
0.000874288
3.29492e-06
0.000872904
4.22967e-06
0.000871466
4.24577e-06
0.000869717
5.42476e-06
0.000867437
6.6049e-06
0.000865174
7.41152e-06
0.000862282
8.48393e-06
0.000858706
1.1408e-05
0.000854821
1.15804e-05
0.000850182
1.53019e-05
0.00084442
1.69824e-05
0.000837207
2.36892e-05
0.000829448
2.30339e-05
0.000817003
4.10119e-05
0.000816743
-2.00823e-06
0.000569375
0.000904043
-0.00252743
0.00120517
0.0020537
0.00112848
-0.00230939
0.00158742
0.00164175
0.00123263
0.00120505
0.00109295
0.000470837
0.0010405
0.000187289
0.00101325
0.00011105
0.00100504
4.41842e-05
0.0010074
7.29515e-06
0.0010156
-1.26246e-05
0.00102751
-2.51384e-05
0.00104113
-2.92053e-05
0.00105452
-2.95936e-05
0.00106788
-2.89931e-05
0.00107867
-2.44037e-05
0.00108985
-3.03232e-05
0.00109877
-2.59395e-05
0.00110809
-2.85879e-05
0.00111637
-2.61418e-05
0.00112397
-2.31036e-05
0.00113109
-2.27939e-05
0.00113661
-1.62004e-05
0.00114183
-1.56374e-05
0.00114547
-9.53313e-06
0.00114847
-7.70935e-06
0.00115058
-4.28683e-06
0.00115183
-1.36606e-06
0.00115273
-3.52182e-07
0.00115264
3.4503e-06
0.00115234
3.94513e-06
0.00115134
6.56955e-06
0.00115006
7.33764e-06
0.00114837
9.50181e-06
0.00114639
9.21375e-06
0.00114413
1.1314e-05
0.00114154
1.11045e-05
0.00113878
1.27491e-05
0.00113565
1.26259e-05
0.0011324
1.42863e-05
0.0011288
1.42173e-05
0.00112509
1.53199e-05
0.00112083
1.59681e-05
0.00112352
-9.40567e-06
0.00112882
-1.95707e-05
0.0011298
-2.06996e-06
0.00112946
2.01554e-06
0.00112885
3.55168e-06
0.00112812
3.20069e-06
0.00112741
3.70071e-06
0.00112668
3.11827e-06
0.00112598
3.51953e-06
0.00112531
2.8599e-06
0.00112467
3.08989e-06
0.00112408
2.44265e-06
0.00112351
2.75709e-06
0.00112296
2.18579e-06
0.00112245
2.32529e-06
0.001122
1.86446e-06
0.00112159
1.87405e-06
0.00112121
1.48739e-06
0.00112092
1.36036e-06
0.00112063
1.09698e-06
0.00112018
1.7347e-06
0.0011194
2.80254e-06
0.00111849
3.29556e-06
0.00111732
4.19779e-06
0.00111604
4.57141e-06
0.00111441
5.86233e-06
0.00111265
5.99194e-06
0.00111054
7.55172e-06
0.00110778
9.34825e-06
0.00110495
1.0256e-05
0.00110138
1.20333e-05
0.00109697
1.58556e-05
0.00109211
1.63958e-05
0.00108628
2.11663e-05
0.00107909
2.41065e-05
0.00107005
3.27934e-05
0.00106027
3.27044e-05
0.00104459
5.68117e-05
0.00104432
-1.976e-06
0.000774645
0.00117395
-0.00325912
0.00150635
0.00255496
0.00140432
-0.00283109
0.00198616
0.00221057
0.0015401
0.00165111
0.00136219
0.000648751
0.00129512
0.000254357
0.00126156
0.000144614
0.00125155
5.41963e-05
0.00125489
3.95162e-06
0.00126578
-2.35127e-05
0.0012814
-4.07624e-05
0.00129948
-4.72632e-05
0.00131739
-4.75192e-05
0.00133552
-4.71033e-05
0.00135056
-3.94634e-05
0.00136565
-4.53906e-05
0.0013778
-3.81176e-05
0.00138989
-4.06526e-05
0.00140073
-3.70023e-05
0.00141051
-3.28583e-05
0.00141971
-3.20211e-05
0.00142696
-2.34507e-05
0.00143375
-2.2425e-05
0.00143873
-1.45169e-05
0.00144284
-1.18168e-05
0.00144591
-7.35941e-06
0.00144787
-3.3233e-06
0.00144942
-1.90847e-06
0.00144979
3.08546e-06
0.00144985
3.88809e-06
0.00144909
7.32491e-06
0.00144796
8.46639e-06
0.00144636
1.11338e-05
0.00144436
1.11834e-05
0.00144206
1.3647e-05
0.00143935
1.37898e-05
0.00143644
1.56803e-05
0.00143311
1.59289e-05
0.00142962
1.77954e-05
0.00142573
1.80822e-05
0.00142174
1.93372e-05
0.00141711
2.0579e-05
0.00141951
-1.17917e-05
0.00142505
-2.51229e-05
0.00142644
-3.44715e-06
0.00142624
2.20253e-06
0.00142567
4.13713e-06
0.00142496
3.89132e-06
0.00142427
4.41038e-06
0.00142355
3.82373e-06
0.00142286
4.21587e-06
0.0014222
3.51275e-06
0.00142159
3.70945e-06
0.00142102
3.00487e-06
0.00142048
3.30431e-06
0.00141998
2.68131e-06
0.00141952
2.78997e-06
0.00141909
2.2821e-06
0.00141874
2.2311e-06
0.00141842
1.80877e-06
0.00141819
1.59275e-06
0.00141796
1.31887e-06
0.00141755
2.15075e-06
0.00141671
3.64213e-06
0.00141569
4.3158e-06
0.00141435
5.54056e-06
0.00141284
6.06697e-06
0.00141094
7.7702e-06
0.00140881
8.11455e-06
0.00140626
1.0112e-05
0.00140293
1.26622e-05
0.00139944
1.37583e-05
0.00139505
1.63948e-05
0.00138963
2.13003e-05
0.00138358
2.24115e-05
0.00137633
2.84517e-05
0.00136739
3.29937e-05
0.00135614
4.40982e-05
0.0013439
4.48689e-05
0.00132428
7.6512e-05
0.00132397
-1.82453e-06
0.00102706
0.00147102
-0.00410218
0.00187012
0.00315603
0.00169639
-0.00344811
0.0024703
0.00289631
0.00191392
0.00220748
0.00168981
0.000872867
0.00160476
0.000339402
0.00156351
0.00018587
0.00155141
6.62987e-05
0.00155602
-6.65546e-07
0.00157022
-3.77039e-05
0.00159042
-6.09632e-05
0.00161395
-7.07697e-05
0.00163739
-7.09816e-05
0.00166139
-7.10718e-05
0.0016817
-5.9806e-05
0.00170183
-6.54937e-05
0.0017182
-5.45111e-05
0.00173396
-5.63811e-05
0.00174811
-5.11777e-05
0.00176074
-4.54668e-05
0.00177265
-4.39478e-05
0.00178216
-3.29657e-05
0.001791
-3.12709e-05
0.00179775
-2.12596e-05
0.00180333
-1.73965e-05
0.00180768
-1.1716e-05
0.00181063
-6.26699e-06
0.00181307
-4.3523e-06
0.00181409
2.07028e-06
0.00181467
3.30428e-06
0.00181429
7.70431e-06
0.00181343
9.32897e-06
0.001812
1.25967e-05
0.00181007
1.30944e-05
0.00180777
1.59732e-05
0.00180498
1.65536e-05
0.00180196
1.87227e-05
0.00179844
1.94135e-05
0.00179475
2.15127e-05
0.00179058
2.22219e-05
0.00178631
2.36363e-05
0.0017813
2.55628e-05
0.00178341
-1.38826e-05
0.00178923
-3.09612e-05
0.00179111
-5.31092e-06
0.00179112
2.1708e-06
0.00179065
4.62283e-06
0.00179001
4.51984e-06
0.00178937
5.06305e-06
0.0017887
4.47945e-06
0.00178807
4.86336e-06
0.00178745
4.11764e-06
0.0017869
4.26849e-06
0.00178639
3.50498e-06
0.00178592
3.78364e-06
0.00178548
3.10927e-06
0.00178511
3.17184e-06
0.00178476
2.62872e-06
0.0017845
2.49585e-06
0.00178426
2.04042e-06
0.00178414
1.71903e-06
0.00178402
1.43642e-06
0.00178366
2.50526e-06
0.00178277
4.53252e-06
0.00178164
5.44499e-06
0.00178011
7.07008e-06
0.00177836
7.81013e-06
0.00177613
1.00066e-05
0.00177357
1.06697e-05
0.00177051
1.31751e-05
0.00176649
1.66716e-05
0.0017622
1.80632e-05
0.00175685
2.1738e-05
0.00175019
2.79803e-05
0.00174271
2.98658e-05
0.00173372
3.74651e-05
0.00172268
4.39873e-05
0.00170873
5.80939e-05
0.00169349
6.00337e-05
0.00166907
0.000101005
0.00166864
-1.54817e-06
0.0013374
0.00180241
-0.00507307
0.00230829
0.00387802
0.00199881
-0.0041807
0.00306008
0.00371427
0.00237091
0.00289666
0.00209063
0.00115315
0.00198321
0.000446818
0.00193245
0.00023663
0.00191782
8.0928e-05
0.00192399
-6.82802e-06
0.00194219
-5.59075e-05
0.00196797
-8.67413e-05
0.00199813
-0.000100921
0.00202834
-0.0001012
0.00205949
-0.00010221
0.00208633
-8.66673e-05
0.00211281
-9.19546e-05
0.00213458
-7.62941e-05
0.00215507
-7.68596e-05
0.00217348
-6.96e-05
0.0021898
-6.17701e-05
0.00220516
-5.93249e-05
0.00221759
-4.53989e-05
0.00222909
-4.27735e-05
0.00223812
-3.0281e-05
0.00224562
-2.49014e-05
0.00225166
-1.77597e-05
0.00225593
-1.05327e-05
0.00225956
-7.9824e-06
0.00226147
1.58529e-07
0.0022628
1.97627e-06
0.00226297
7.52924e-06
0.00226252
9.77912e-06
0.00226139
1.37524e-05
0.00225961
1.48495e-05
0.00225741
1.81988e-05
0.0022546
1.93451e-05
0.00225152
2.18169e-05
0.00224786
2.30586e-05
0.00224398
2.53992e-05
0.00223957
2.66229e-05
0.00223503
2.81914e-05
0.00222965
3.09234e-05
0.00223146
-1.56728e-05
0.00223759
-3.71072e-05
0.00224006
-7.76718e-06
0.00224039
1.83211e-06
0.00224009
4.93425e-06
0.00223956
5.0341e-06
0.00223903
5.60512e-06
0.00223846
5.04415e-06
0.00223792
5.4075e-06
0.0022374
4.6262e-06
0.00223696
4.72256e-06
0.00223655
3.90315e-06
0.0022362
4.14489e-06
0.00223588
3.42423e-06
0.00223563
3.42534e-06
0.0022354
2.85659e-06
0.00223528
2.61658e-06
0.00223518
2.13872e-06
0.00223522
1.68263e-06
0.00223525
1.3998e-06
0.002235
2.76088e-06
0.00223407
5.46237e-06
0.00223283
6.68316e-06
0.00223109
8.80702e-06
0.00222906
9.83376e-06
0.00222645
1.26218e-05
0.00222338
1.37334e-05
0.00221972
1.68401e-05
0.00221488
2.1499e-05
0.00220963
2.33215e-05
0.00220311
2.82449e-05
0.00219497
3.61326e-05
0.00218573
3.90864e-05
0.00217463
4.85801e-05
0.00216103
5.75652e-05
0.00214379
7.53651e-05
0.0021249
7.8881e-05
0.00209465
0.0001313
0.00209394
-9.31683e-07
0.00172135
0.00217509
-0.00618889
0.00283717
0.00474625
0.00230563
-0.00505309
0.00377952
0.00468102
0.00293127
0.0037449
0.0025826
0.00150183
0.00244713
0.000582279
0.00238451
0.000299252
0.00236672
9.8729e-05
0.00237468
-1.47948e-05
0.00239771
-7.89291e-05
0.00243023
-0.000119261
0.00246843
-0.00013911
0.00250687
-0.000139647
0.00254675
-0.000142079
0.00258162
-0.000121552
0.002616
-0.000126316
0.00264459
-0.000104903
0.00267114
-0.000103389
0.00269497
-9.3444e-05
0.00271598
-8.27663e-05
0.00273574
-7.91001e-05
0.0027519
-6.15617e-05
0.00276681
-5.76747e-05
0.00277875
-4.22209e-05
0.00278874
-3.48995e-05
0.00279697
-2.59899e-05
0.00280299
-1.65453e-05
0.00280818
-1.31803e-05
0.0028113
-2.96196e-06
0.00281365
-3.73297e-07
0.00281461
6.57361e-06
0.00281477
9.62249e-06
0.00281408
1.446e-05
0.00281261
1.63106e-05
0.0028106
2.02239e-05
0.00280787
2.20626e-05
0.00280481
2.48897e-05
0.00280105
2.67894e-05
0.00279706
2.9409e-05
0.00279244
3.12304e-05
0.00278767
3.29704e-05
0.00278196
3.66183e-05
0.00278343
-1.71328e-05
0.0027899
-4.35898e-05
0.00279307
-1.09191e-05
0.00279383
1.05899e-06
0.00279379
4.98456e-06
0.00279346
5.35344e-06
0.0027931
5.97002e-06
0.00279269
5.44497e-06
0.00279232
5.78996e-06
0.00279196
4.97904e-06
0.00279168
5.00458e-06
0.00279145
4.12976e-06
0.00279127
4.32743e-06
0.00279112
3.56723e-06
0.00279106
3.4873e-06
0.00279101
2.90418e-06
0.0027911
2.53108e-06
0.0027912
2.03701e-06
0.00279147
1.41753e-06
0.00279172
1.1447e-06
0.00279162
2.86473e-06
0.00279067
6.40665e-06
0.00278933
8.02405e-06
0.00278737
1.0767e-05
0.00278503
1.21753e-05
0.00278197
1.56827e-05
0.00277831
1.73897e-05
0.00277394
2.12108e-05
0.00276812
2.73161e-05
0.00276171
2.97425e-05
0.00275378
3.61702e-05
0.00274384
4.60918e-05
0.00273247
5.04304e-05
0.00271882
6.22466e-05
0.0027021
7.42532e-05
0.00268086
9.66282e-05
0.00265751
0.000102182
0.00262018
0.000168691
0.00261891
2.24638e-07
0.00219904
0.00259507
-0.00746675
0.00347691
0.00579091
0.00260791
-0.00609343
0.00465746
0.0058145
0.00361961
0.00478275
0.00318776
0.00193368
0.00301697
0.000753065
0.00293942
0.000376797
0.00291757
0.00012058
0.00292758
-2.48047e-05
0.00295634
-0.000107689
0.00299697
-0.000159891
0.00304489
-0.000187022
0.0030933
-0.000188061
0.00314379
-0.00019257
0.00318847
-0.000166236
0.00323262
-0.000170462
0.00326976
-0.00014205
0.00330396
-0.000137583
0.00333465
-0.000124135
0.00336162
-0.000109733
0.00338694
-0.000104429
0.00340784
-8.24587e-05
0.00342706
-7.68934e-05
0.00344272
-5.78845e-05
0.00345592
-4.80973e-05
0.00346696
-3.7038e-05
0.00347526
-2.48359e-05
0.0034825
-2.04243e-05
0.00348723
-7.69052e-06
0.00349096
-4.10205e-06
0.00349299
4.54292e-06
0.003494
8.60742e-06
0.00349399
1.44863e-05
0.00349299
1.73011e-05
0.00349133
2.18848e-05
0.0034888
2.459e-05
0.00348587
2.78257e-05
0.00348212
3.05294e-05
0.00347809
3.34513e-05
0.00347332
3.59876e-05
0.0034684
3.78991e-05
0.00346241
4.26045e-05
0.00346354
-1.82546e-05
0.00347035
-5.04055e-05
0.00347432
-1.48899e-05
0.00347566
-2.89475e-07
0.00347601
4.6496e-06
0.00347597
5.38296e-06
0.00347588
6.06483e-06
0.00347572
5.60187e-06
0.00347559
5.92081e-06
0.00347548
5.09086e-06
0.00347545
5.03381e-06
0.00347547
4.11019e-06
0.00347556
4.2446e-06
0.00347566
3.45717e-06
0.00347587
3.27677e-06
0.00347609
2.69074e-06
0.00347647
2.15338e-06
0.00347684
1.65886e-06
0.00347743
8.34567e-07
0.00347798
5.86794e-07
0.0034781
2.74986e-06
0.00347717
7.33308e-06
0.00347574
9.45641e-06
0.00347354
1.29702e-05
0.00347084
1.48745e-05
0.00346727
1.92537e-05
0.00346291
2.17473e-05
0.0034577
2.64231e-05
0.0034507
3.4301e-05
0.0034429
3.75468e-05
0.00343328
4.57838e-05
0.00342117
5.8207e-05
0.00340722
6.43686e-05
0.00339045
7.90229e-05
0.00336995
9.47408e-05
0.00334386
0.000122742
0.00331508
0.000130932
0.00326915
0.000214657
0.00326686
2.45604e-06
0.00279544
0.00306654
-0.00892293
0.00425161
0.00704821
0.0028946
-0.00733492
0.00572897
0.00713376
0.0044661
0.00604561
0.00393339
0.00246639
0.00371798
0.00096847
0.00362153
0.000473256
0.0035944
0.000147708
0.00360664
-3.70439e-05
0.00364217
-0.000143215
0.00369249
-0.000210211
0.00375209
-0.000246609
0.00381253
-0.000248511
0.00387589
-0.000255924
0.0039325
-0.000222859
0.00398867
-0.000226613
0.00403642
-0.00018981
0.00408023
-0.000181377
0.00411952
-0.000163442
0.00415401
-0.000144206
0.00418633
-0.000136755
0.0042132
-0.000109337
0.00423788
-0.000101572
0.00425827
-7.82693e-05
0.00427555
-6.53793e-05
0.0042902
-5.16878e-05
0.00430143
-3.60712e-05
0.00431133
-3.03247e-05
0.00431817
-1.45311e-05
0.00432373
-9.65897e-06
0.00432721
1.06077e-06
0.00432941
6.40685e-06
0.00433035
1.35711e-05
0.00433006
1.75844e-05
0.00432897
2.29828e-05
0.0043268
2.67486e-05
0.00432416
3.04723e-05
0.00432054
3.41352e-05
0.00431659
3.74129e-05
0.00431178
4.07812e-05
0.00430681
4.28859e-05
0.00430063
4.87736e-05
0.00430141
-1.903e-05
0.00430855
-5.75576e-05
0.00431347
-1.97959e-05
0.00431557
-2.40021e-06
0.00431644
3.78158e-06
0.00431683
4.98746e-06
0.00431713
5.771e-06
0.00431733
5.39228e-06
0.00431757
5.69529e-06
0.0043178
4.85316e-06
0.00431814
4.69916e-06
0.00431851
3.72862e-06
0.00431897
3.79163e-06
0.00431943
2.98953e-06
0.00432003
2.6831e-06
0.00432061
2.11299e-06
0.00432139
1.3735e-06
0.00432215
8.95258e-07
0.00432316
-1.74693e-07
0.00432413
-3.82538e-07
0.00432456
2.32232e-06
0.0043237
8.19073e-06
0.0043222
1.09588e-05
0.00431974
1.54268e-05
0.00431664
1.79756e-05
0.00431247
2.34177e-05
0.0043073
2.69215e-05
0.00430109
3.2626e-05
0.0042927
4.26901e-05
0.00428323
4.70275e-05
0.00427156
5.74532e-05
0.00425684
7.29526e-05
0.00423976
8.14233e-05
0.00421923
9.95632e-05
0.00419413
0.000119811
0.00416215
0.000154744
0.00412677
0.000166279
0.00407043
0.000271034
0.00406633
6.47406e-06
0.0035413
0.00359163
-0.0105715
0.00518984
0.00856192
0.00314934
-0.00881687
0.00703704
0.00865865
0.00550791
0.00757475
0.00485344
0.00312087
0.0045816
0.0012403
0.00446101
0.000593852
0.00442692
0.000181795
0.00444148
-5.16052e-05
0.00448491
-0.000186645
0.00454674
-0.000272042
0.00462033
-0.000320195
0.00469524
-0.00032342
0.00477413
-0.000334816
0.0048452
-0.000293936
0.00491604
-0.000297449
0.00497687
-0.000250647
0.00503264
-0.000237135
0.0050827
-0.000213508
0.0051266
-0.000188106
0.00516769
-0.000177846
0.00520208
-0.000143729
0.00523363
-0.000133126
0.00525998
-0.000104614
0.00528244
-8.78395e-05
0.00530167
-7.09252e-05
0.00531669
-5.1086e-05
0.00533
-4.36382e-05
0.00533959
-2.41226e-05
0.00534755
-1.76139e-05
0.00535297
-4.35749e-06
0.00535677
2.60041e-06
0.00535901
1.13349e-05
0.00535974
1.68517e-05
0.00535949
2.32412e-05
0.00535791
2.83159e-05
0.00535577
3.26177e-05
0.00535246
3.74416e-05
0.00534876
4.11199e-05
0.00534406
4.5472e-05
0.00533918
4.77764e-05
0.00533295
5.49955e-05
0.00533342
-1.94936e-05
0.00534088
-6.50214e-05
0.00534685
-2.57641e-05
0.00534993
-5.47843e-06
0.00535153
2.18024e-06
0.00535251
4.0028e-06
0.00535336
4.92872e-06
0.00535407
4.67761e-06
0.00535481
4.95765e-06
0.00535554
4.12621e-06
0.00535638
3.85773e-06
0.00535725
2.85444e-06
0.00535823
2.82251e-06
0.00535919
2.02722e-06
0.0053603
1.568e-06
0.00536138
1.03482e-06
0.0053627
5.06898e-08
0.00536398
-3.86333e-07
0.00536557
-1.75804e-06
0.00536709
-1.90156e-06
0.00536795
1.46278e-06
0.00536722
8.91515e-06
0.00536569
1.24935e-05
0.00536297
1.81508e-05
0.00535942
2.15181e-05
0.00535458
2.8258e-05
0.00534844
3.30571e-05
0.00534107
4.00044e-05
0.00533102
5.27344e-05
0.00531954
5.85e-05
0.00530542
7.15667e-05
0.00528754
9.08366e-05
0.00526669
0.00010227
0.00524159
0.000124675
0.00521093
0.000150455
0.00517182
0.000193879
0.00512842
0.000209662
0.00505954
0.00033993
0.00505238
1.35983e-05
0.00447444
0.0041696
-0.0124223
0.00632528
0.0103852
0.00334998
-0.0105859
0.00863449
0.0104094
0.00679088
0.00941835
0.00599016
0.00392159
0.00564696
0.00158349
0.00549539
0.00074543
0.00545202
0.000225169
0.00546881
-6.83997e-05
0.00552137
-0.000239202
0.00559678
-0.000347454
0.00568704
-0.000410441
0.00577924
-0.000415627
0.00587682
-0.000432388
0.00596532
-0.000382447
0.00605401
-0.000386124
0.00613086
-0.000327506
0.0062014
-0.000307666
0.00626482
-0.000276938
0.00632047
-0.000243739
0.00637248
-0.000229867
0.00641627
-0.000187525
0.00645644
-0.00017329
0.00649027
-0.000138441
0.00651927
-0.00011684
0.0065443
-9.59599e-05
0.00656413
-7.09195e-05
0.00658181
-6.13175e-05
0.00659495
-3.72607e-05
0.00660602
-2.86861e-05
0.00661398
-1.2317e-05
0.00661993
-3.34649e-06
0.00662394
7.33576e-06
0.00662608
1.47059e-05
0.00662702
2.2315e-05
0.00662634
2.89811e-05
0.00662498
3.39866e-05
0.00662222
4.01932e-05
0.006619
4.4348e-05
0.00661462
4.98447e-05
0.00661002
5.23744e-05
0.00660396
6.1054e-05
0.00660418
-1.97154e-05
0.00661195
-7.2793e-05
0.0066191
-3.29075e-05
0.00662339
-9.77241e-06
0.00662596
-3.93561e-07
0.00662776
2.20362e-06
0.00662935
3.33743e-06
0.00663077
3.25727e-06
0.00663221
3.52506e-06
0.0066336
2.72662e-06
0.00663514
2.32212e-06
0.00663669
1.30013e-06
0.00663836
1.15492e-06
0.00663999
3.95316e-07
0.00664181
-2.52776e-07
0.00664356
-7.16295e-07
0.00664561
-1.99884e-06
0.00664759
-2.36218e-06
0.00664993
-4.09703e-06
0.00665217
-4.14824e-06
0.00665362
1.60664e-08
0.00665313
9.40767e-06
0.00665162
1.40025e-05
0.00664863
2.11358e-05
0.00664461
2.55431e-05
0.00663899
3.38733e-05
0.00663174
4.03038e-05
0.00662299
4.8761e-05
0.00661096
6.47574e-05
0.0065971
7.23696e-05
0.00658003
8.86448e-05
0.00655836
0.000112525
0.00653295
0.000127657
0.00650233
0.000155299
0.00646495
0.000187814
0.00641721
0.000241636
0.00636409
0.000262762
0.00628015
0.000423891
0.00626798
2.57111e-05
0.00564159
0.00479603
-0.0144784
0.00769772
0.012583
0.00346405
-0.0126973
0.0105863
0.0124061
0.00837175
0.011633
0.00739634
0.004897
0.00696303
0.0020168
0.00677147
0.000936994
0.00671559
0.000281045
0.00673426
-8.70723e-05
0.00679722
-0.000302161
0.00688854
-0.000438772
0.00699855
-0.000520453
0.00711133
-0.000528414
0.0072313
-0.000552346
0.00734071
-0.000491866
0.00745098
-0.000496387
0.00754732
-0.000423852
0.007636
-0.000396342
0.0077159
-0.000356844
0.00778608
-0.000313917
0.00785165
-0.000295442
0.00790714
-0.000243014
0.00795804
-0.000224188
0.00800122
-0.000181623
0.00803842
-0.000154042
0.00807076
-0.000128293
0.00809669
-9.68547e-05
0.00811991
-8.45347e-05
0.00813758
-5.4936e-05
0.00815267
-4.37723e-05
0.00816393
-2.35812e-05
0.00817269
-1.21084e-05
0.00817906
9.68195e-07
0.00818312
1.06407e-05
0.0081857
1.97433e-05
0.00818632
2.83624e-05
0.00818609
3.42128e-05
0.0081842
4.20864e-05
0.00818176
4.67841e-05
0.00817797
5.36314e-05
0.00817395
5.63979e-05
0.00816833
6.66785e-05
0.00816846
-1.98458e-05
0.00817653
-8.08639e-05
0.00818496
-4.13373e-05
0.00819074
-1.55494e-05
0.00819459
-4.24541e-06
0.00819747
-6.79919e-07
0.00820008
7.35403e-07
0.00820244
8.91936e-07
0.00820482
1.14994e-06
0.00820712
4.17265e-07
0.00820959
-1.42061e-07
0.00821205
-1.15926e-06
0.00821465
-1.44918e-06
0.00821718
-2.13268e-06
0.00821994
-3.01392e-06
0.00822259
-3.36398e-06
0.0082256
-5.00796e-06
0.00822849
-5.25421e-06
0.00823182
-7.42768e-06
0.00823502
-7.34826e-06
0.00823726
-2.2211e-06
0.00823713
9.54145e-06
0.00823573
1.54027e-05
0.00823249
2.43707e-05
0.00822795
3.00823e-05
0.00822147
4.03594e-05
0.00821293
4.88446e-05
0.00820255
5.91399e-05
0.00818819
7.91062e-05
0.00817149
8.90714e-05
0.00815089
0.000109239
0.00812467
0.000138743
0.00809379
0.000158537
0.00805651
0.000192586
0.00801102
0.000233299
0.00795287
0.000299794
0.00788798
0.000327643
0.00778606
0.000525821
0.00776594
4.58178e-05
0.00710122
0.00546076
-0.016732
0.00935479
0.0152344
0.00344588
-0.0152163
0.012973
0.0146675
0.0103209
0.0142851
0.00913801
0.00607986
0.00859118
0.00256362
0.00834778
0.0011804
0.00827494
0.000353882
0.00829468
-0.000106812
0.00836929
-0.000376775
0.00847908
-0.000548553
0.00861237