/*--------------------------------*- C++ -*----------------------------------*\
| =========                 |                                                 |
| \\      /  F ield         | OpenFOAM: The Open Source CFD Toolbox           |
|  \\    /   O peration     | Version:  5.x                                   |
|   \\  /    A nd           | Web:      www.OpenFOAM.org                      |
|    \\/     M anipulation  |                                                 |
\*---------------------------------------------------------------------------*/
FoamFile
{
    version     2.0;
    format      ascii;
    class       surfaceScalarField;
    location    "400";
    object      phi;
}
// * * * * * * * * * * * * * * * * * * * * * * * * * * * * * * * * * * * * * //

dimensions      [0 3 -1 0 0 0 0];

internalField   nonuniform List<scalar> 
21876
(
0.00601339
-0.00653944
0.000521476
0.0136195
-0.00760612
0.0180139
-0.00439444
0.0220487
-0.00403478
0.0246458
-0.00259707
0.0262091
-0.00156334
0.0270439
-0.000834776
0.0272984
-0.000254482
0.0269632
0.000335141
0.0259128
0.00105043
0.024033
0.00187979
0.0224766
0.00155644
0.0216725
0.000804135
0.0212878
0.000384716
0.0207805
0.000507241
0.0202799
0.000500618
0.0197575
0.000522366
0.0192274
0.000530102
0.0187062
0.000521236
0.018201
0.000505201
0.017713
0.000487991
0.0173462
0.000366821
0.0169943
0.000351887
0.016656
0.0003383
0.0163277
0.000328289
0.016008
0.000319721
0.0156916
0.0003164
0.0153743
0.000317266
0.0150513
0.00032303
0.0147167
0.000334585
0.0143633
0.000353431
0.0139817
0.000381567
0.0135607
0.000420974
0.0130846
0.000476168
0.0125271
0.000557484
0.0118626
0.000664459
0.0110471
0.000815495
0.00999667
0.00105047
0.00859967
0.001397
0.00663011
0.00196956
0.00133527
0.00529483
0.00772428
-0.0133668
-0.000897046
0.0148297
-0.0147116
0.0201074
-0.00967218
0.0246173
-0.00854468
0.0278814
-0.00586125
0.030098
-0.00377993
0.0314994
-0.00223621
0.0322884
-0.00104342
0.0326668
-4.33153e-05
0.0326739
0.00104333
0.031983
0.00257071
0.0310177
0.0025217
0.0301347
0.00168719
0.0293824
0.00113701
0.0285726
0.00131698
0.0278326
0.00124063
0.0271363
0.00121872
0.0264593
0.00120702
0.0257951
0.00118549
0.0251431
0.00115721
0.0244972
0.00113387
0.0240045
0.00085954
0.0235395
0.000816836
0.0230966
0.000781177
0.0226699
0.000755019
0.0222566
0.000732996
0.0218519
0.000721166
0.0214512
0.000717923
0.0210496
0.000724657
0.020641
0.000743156
0.0202182
0.000776221
0.0197721
0.00082773
0.0192914
0.000901601
0.0187613
0.00100634
0.0181566
0.00116211
0.0174526
0.00136853
0.0166115
0.00165655
0.0155408
0.00212118
0.0141751
0.00276271
0.0120446
0.00410005
0.00417638
0.0092035
0.00973422
-0.0206288
-0.0024722
0.0169194
-0.0218967
0.0229973
-0.0157501
0.0282171
-0.0137645
0.0323035
-0.00994762
0.035291
-0.0067674
0.0373364
-0.0042816
0.038592
-0.0022991
0.0391725
-0.000623751
0.0391947
0.00102106
0.0386127
0.00315278
0.0378375
0.00329688
0.0371697
0.00235495
0.0365834
0.00172334
0.0358751
0.00202534
0.0351573
0.00195836
0.0344508
0.00192528
0.0337467
0.00191114
0.0330439
0.00188826
0.0323443
0.00185679
0.0316438
0.00183436
0.0311002
0.00140316
0.0305796
0.00133748
0.0300784
0.00128229
0.0295916
0.00124188
0.0291161
0.00120847
0.0286469
0.00119032
0.0281794
0.00118546
0.0277079
0.00119618
0.0272255
0.0012255
0.026724
0.00127776
0.0261929
0.00135882
0.0256198
0.00147468
0.0249876
0.00163858
0.0242689
0.00188079
0.0234385
0.00219898
0.0224595
0.00263549
0.0212406
0.00334011
0.0197466
0.00425673
0.0175973
0.00624936
0.00712094
0.0146527
0.0121352
-0.0284634
-0.00430042
0.0196378
-0.0293993
0.0263466
-0.0224588
0.032259
-0.0196769
0.0370997
-0.0147884
0.0408282
-0.0104959
0.0435243
-0.00697765
0.0453119
-0.00408673
0.0462988
-0.00161068
0.0465962
0.000723633
0.0461784
0.00357064
0.0454266
0.0040486
0.0447687
0.00301287
0.0442499
0.00224216
0.0436476
0.00262767
0.0429938
0.00261215
0.0423288
0.00259022
0.0416526
0.00258739
0.0409677
0.00257314
0.0402799
0.00254457
0.0395872
0.00252704
0.0390441
0.00194635
0.0385174
0.00186412
0.0380036
0.00179615
0.0374977
0.00174772
0.0369978
0.00170843
0.0364995
0.00168863
0.035998
0.00168696
0.0354872
0.0017069
0.0349598
0.0017529
0.0344067
0.00183088
0.0338167
0.00194886
0.0331761
0.00211529
0.0324659
0.00234879
0.0316561
0.00269055
0.0307201
0.00313494
0.029619
0.00373661
0.0282608
0.00469833
0.0266097
0.00590782
0.0244027
0.00845638
0.0100336
0.02149
0.0149179
-0.0370268
-0.00635432
0.0229147
-0.037396
0.0302583
-0.0298023
0.036919
-0.0263376
0.0425883
-0.0204577
0.0471749
-0.0150825
0.0506748
-0.0104776
0.0531587
-0.00657055
0.0547029
-0.00315487
0.0554199
6.60574e-06
0.0553154
0.00367512
0.0546872
0.00467678
0.0540145
0.00368555
0.0534541
0.0028026
0.0528425
0.00323925
0.0521679
0.0032868
0.0514815
0.00327656
0.050789
0.00327993
0.0500897
0.00327241
0.0493903
0.00324404
0.0486911
0.00322623
0.0481453
0.00249209
0.0476196
0.00238987
0.0471087
0.00230704
0.0466066
0.0022498
0.0461093
0.00220577
0.0456109
0.00218703
0.0451051
0.00219267
0.0445854
0.00222669
0.0440436
0.00229463
0.0434704
0.00240407
0.0428538
0.00256552
0.0421789
0.00279018
0.0414253
0.00310236
0.0405614
0.00355448
0.0395604
0.0041359
0.0383827
0.00491435
0.0369411
0.00613992
0.0351915
0.00765743
0.0329863
0.0106615
0.0128875
0.0301324
0.0181047
-0.0465013
-0.00863005
0.0268
-0.0460912
0.0348673
-0.0378696
0.0423209
-0.0337911
0.0488536
-0.0269904
0.0543524
-0.0205812
0.0587539
-0.0148792
0.0620673
-0.00988394
0.0643259
-0.00541344
0.0656434
-0.00131094
0.0660472
0.00327141
0.0657291
0.00499487
0.0651475
0.00426717
0.0645697
0.00338039
0.0639367
0.00387226
0.0632192
0.00400425
0.0624744
0.00402134
0.0617234
0.00403096
0.0609672
0.0040286
0.0602132
0.00399804
0.0594654
0.00397401
0.0588845
0.00307304
0.0583306
0.00294369
0.0577986
0.00283904
0.0572819
0.00276657
0.0567751
0.00271252
0.0562718
0.00269033
0.0557645
0.00270005
0.0552448
0.00274638
0.0547032
0.00283625
0.0541283
0.00297896
0.0535067
0.00318708
0.0528228
0.00347412
0.0520554
0.00386974
0.0511726
0.00443731
0.0501495
0.00515898
0.0489483
0.00611556
0.0474942
0.00759404
0.04574
0.00941157
0.0436569
0.0127446
0.0155773
0.0409672
0.0217359
-0.0571226
-0.0111145
0.031378
-0.0557332
0.0403259
-0.0468176
0.0486516
-0.0421167
0.0560917
-0.0344304
0.062543
-0.0270325
0.0679181
-0.0202544
0.0721779
-0.0141437
0.0753033
-0.00853882
0.0773947
-0.00340229
0.0784881
0.00217803
0.0786838
0.00479915
0.0783682
0.0045827
0.0778817
0.00386693
0.0772858
0.00446821
0.0765621
0.00472793
0.0757692
0.00481423
0.074951
0.00484913
0.0741196
0.00486003
0.0732859
0.00483176
0.0724592
0.0048007
0.0718145
0.00371772
0.0712025
0.00355566
0.0706185
0.00342308
0.0700561
0.00332899
0.0695098
0.00325877
0.0689732
0.0032269
0.0684385
0.00323477
0.0678968
0.00328814
0.0673376
0.00339538
0.0667491
0.00356752
0.066117
0.00381921
0.0654248
0.00416631
0.0646508
0.00464368
0.0637635
0.00532466
0.0627421
0.00618035
0.0615541
0.00730359
0.0601449
0.00900322
0.058472
0.0110845
0.0566262
0.0145904
0.0179472
0.0542562
0.0258693
-0.0691905
-0.0138014
0.0367539
-0.0666177
0.0468042
-0.0568678
0.0561374
-0.0514499
0.0645593
-0.0428523
0.0720053
-0.0344785
0.0784008
-0.0266499
0.0836882
-0.0194311
0.0878064
-0.012657
0.0908338
-0.00642968
0.0928012
0.000210644
0.0937319
0.00386839
0.0939053
0.00440931
0.0936808
0.00409147
0.0932323
0.00491672
0.0925851
0.00537515
0.0918017
0.00559764
0.0909486
0.00570219
0.0900572
0.00575139
0.0891466
0.00574245
0.0882336
0.0057137
0.0875114
0.00443991
0.0868237
0.00424329
0.0861676
0.00407927
0.0855374
0.00395912
0.0849279
0.0038683
0.0843325
0.00382227
0.0837434
0.0038239
0.0831514
0.00388011
0.0825463
0.00400054
0.081916
0.00419783
0.0812466
0.00448857
0.0805223
0.00489059
0.0797225
0.00544345
0.0788176
0.00622956
0.0777935
0.00720444
0.0766248
0.00847233
0.0752814
0.0103466
0.0737329
0.012633
0.0721693
0.0161541
0.019877
0.0702394
0.0305764
-0.0830806
-0.0166863
0.0430563
-0.0790976
0.0544972
-0.0683087
0.0650421
-0.0619948
0.0745729
-0.0523831
0.0830816
-0.0429872
0.0905377
-0.034106
0.0969007
-0.0257941
0.102094
-0.0178507
0.10618
-0.0105157
0.109186
-0.00279489
0.111063
0.00199096
0.111976
0.003497
0.112245
0.00382214
0.112118
0.00504354
0.111683
0.00581018
0.111018
0.00626309
0.110208
0.00651179
0.109311
0.00664846
0.10836
0.00669329
0.107383
0.00669048
0.10659
0.00523305
0.105827
0.00500658
0.105094
0.00481236
0.104388
0.00466519
0.103704
0.0045519
0.103037
0.00448933
0.102379
0.00448207
0.101721
0.00453852
0.101051
0.0046697
0.10036
0.00488971
0.0996315
0.00521661
0.0988527
0.00566939
0.0980046
0.00629151
0.097061
0.00717317
0.0960169
0.00824852
0.0948566
0.00963268
0.0935726
0.0116306
0.0921542
0.0140515
0.0908384
0.0174699
0.0213434
0.089372
0.0359463
-0.0992547
-0.0197721
0.0504434
-0.0935947
0.0636334
-0.0814987
0.0756693
-0.0740306
0.0865058
-0.0632196
0.0961983
-0.0526797
0.104779
-0.0426864
0.112254
-0.0332692
0.118566
-0.0241632
0.123781
-0.0157306
0.127935
-0.00694842
0.130926
-0.000999752
0.132812
0.00161061
0.133841
0.00279327
0.134272
0.00461245
0.134245
0.00583669
0.133865
0.00664365
0.133234
0.00714262
0.132436
0.00744627
0.131527
0.0076029
0.130548
0.00766877
0.129718
0.0060631
0.128903
0.00582164
0.128109
0.00560615
0.127338
0.00543673
0.126586
0.00530326
0.125851
0.0052249
0.125125
0.00520845
0.124399
0.00526421
0.123664
0.00540479
0.122908
0.00564567
0.122118
0.00600603
0.121282
0.00650538
0.120384
0.00719033
0.119399
0.0081576
0.118334
0.00931378
0.117183
0.0107834
0.115956
0.0128576
0.114669
0.0153382
0.113549
0.0185904
0.0224051
0.112487
0.0420909
-0.118273
-0.0230725
0.0591111
-0.110615
0.0744877
-0.0968752
0.0883754
-0.0879184
0.100796
-0.0756399
0.111867
-0.0637505
0.121689
-0.0525088
0.130336
-0.0419159
0.137798
-0.0316259
0.144171
-0.0221029
0.149514
-0.0122913
0.153715
-0.00520063
0.156749
-0.00142357
0.158781
0.00076078
0.160033
0.00336029
0.16066
0.0052096
0.160788
0.00651594
0.160534
0.00739694
0.160002
0.00797786
0.159272
0.00833265
0.158407
0.00853397
0.157612
0.00685862
0.156802
0.0066317
0.155992
0.00641542
0.155192
0.00623737
0.154402
0.00609263
0.153623
0.00600413
0.15285
0.0059817
0.152076
0.00603808
0.151293
0.00618784
0.150491
0.00644784
0.149659
0.00683801
0.148787
0.00737769
0.147861
0.00811602
0.146863
0.00915515
0.145808
0.0103693
0.144701
0.0118907
0.143559
0.0139995
0.142427
0.01647
0.141489
0.0195279
0.0231377
0.140757
0.0491521
-0.140812
-0.026613
0.0693024
-0.130765
0.087396
-0.114969
0.103587
-0.104109
0.117959
-0.0900116
0.130689
-0.0764806
0.141948
-0.0637684
0.151883
-0.0518508
0.160554
-0.0402964
0.168103
-0.0296524
0.174637
-0.0188256
0.180071
-0.0106339
0.18434
-0.00569279
0.187546
-0.00244503
0.189848
0.00105809
0.191381
0.00367678
0.192271
0.00562585
0.192639
0.00702899
0.1926
0.00801716
0.192251
0.00868155
0.191675
0.00910996
0.191032
0.00750112
0.190327
0.00733741
0.189586
0.00715642
0.188827
0.00699585
0.188061
0.00685843
0.187293
0.0067727
0.186522
0.00675272
0.185745
0.00681449
0.184958
0.00697498
0.184153
0.00725254
0.183324
0.00766756
0.182463
0.00823852
0.181562
0.00901655
0.180609
0.0101084
0.179626
0.0113525
0.178629
0.0128878
0.177637
0.014991
0.176715
0.0173929
0.176
0.0202423
0.023578
0.17556
0.0573088
-0.167688
-0.030433
0.0813201
-0.154776
0.102773
-0.136421
0.121821
-0.123158
0.13861
-0.1068
0.153375
-0.0912462
0.166358
-0.0767509
0.177778
-0.0632712
0.187775
-0.0502934
0.196555
-0.0384319
0.204283
-0.0265543
0.210931
-0.0172817
0.216446
-0.0112073
0.2209
-0.00689909
0.2244
-0.00244186
0.22704
0.00103599
0.22893
0.00373594
0.230177
0.00578234
0.23089
0.00730381
0.231174
0.00839835
0.231121
0.00916216
0.230801
0.00782185
0.230347
0.00779101
0.229804
0.00769954
0.229202
0.00759778
0.228562
0.00749868
0.227896
0.00743834
0.227212
0.00743654
0.226513
0.0075135
0.225799
0.00768922
0.225068
0.00798376
0.224317
0.00841787
0.223547
0.00900865
0.222755
0.00980896
0.221934
0.0109297
0.221114
0.0121718
0.22032
0.0136816
0.219572
0.0157396
0.218938
0.0180272
0.218524
0.0206563
0.0237025
0.218399
0.0667863
-0.199887
-0.0345873
0.0955415
-0.183532
0.121129
-0.162009
0.14371
-0.145739
0.163493
-0.126583
0.180774
-0.108528
0.195865
-0.0918419
0.209063
-0.0764692
0.22059
-0.0618203
0.230721
-0.0485625
0.239691
-0.0355246
0.247546
-0.0251368
0.254281
-0.0179418
0.25998
-0.0125983
0.26473
-0.00719221
0.268594
-0.00282761
0.271653
0.000676627
0.273995
0.00344027
0.275711
0.00558821
0.276893
0.007216
0.277635
0.00841983
0.277847
0.00761038
0.277839
0.00779906
0.27767
0.00786796
0.277386
0.00788174
0.27702
0.00786539
0.276594
0.00786421
0.276125
0.00790511
0.275625
0.00801355
0.275101
0.00821333
0.274558
0.00852662
0.274002
0.00897465
0.273437
0.00957308
0.272869
0.0103766
0.272298
0.0115007
0.271762
0.0127084
0.271288
0.0141554
0.270895
0.0161329
0.270649
0.0182729
0.270632
0.0206728
0.0234384
0.270897
0.0778681
-0.238606
-0.0391491
0.112437
-0.2181
0.143102
-0.192674
0.170036
-0.172673
0.193517
-0.150064
0.213912
-0.128922
0.231606
-0.109536
0.246978
-0.0918408
0.260337
-0.0751792
0.27203
-0.0602561
0.282368
-0.0458624
0.29148
-0.0342492
0.299431
-0.0258929
0.306349
-0.0195156
0.312335
-0.0131784
0.317448
-0.00794115
0.321756
-0.00363137
0.325327
-0.000130666
0.328233
0.00268257
0.330547
0.00490209
0.332348
0.00661904
0.333317
0.0066409
0.333975
0.00714088
0.334394
0.00744955
0.33463
0.00764566
0.334728
0.0077668
0.334724
0.00786817
0.334645
0.0079846
0.334511
0.00814766
0.334339
0.00838558
0.334142
0.00872317
0.333934
0.00918255
0.333729
0.00977833
0.333538
0.0105677
0.333367
0.0116713
0.333259
0.0128162
0.333245
0.01417
0.333339
0.016039
0.333602
0.0180102
0.334097
0.0201776
0.0226783
0.334857
0.0909053
-0.285301
-0.0442105
0.132587
-0.259782
0.169475
-0.229562
0.201762
-0.204961
0.229804
-0.178106
0.254047
-0.153165
0.274963
-0.130452
0.293019
-0.109897
0.308619
-0.0907795
0.32219
-0.0738274
0.33412
-0.0577917
0.344627
-0.0447562
0.353857
-0.0351232
0.361999
-0.0276575
0.369199
-0.0203783
0.375542
-0.0142843
0.381105
-0.00919446
0.385953
-0.00497898
0.390148
-0.00151236
0.393749
0.00130164
0.396816
0.00355209
0.398745
0.00471128
0.400283
0.00560276
0.401508
0.00622479
0.402485
0.00666861
0.403268
0.0069835
0.403903
0.00723396
0.404425
0.00746277
0.404864
0.00770779
0.405248
0.00800203
0.405598
0.00837337
0.405935
0.00884538
0.406281
0.00943236
0.406654
0.0101947
0.407066
0.0112594
0.407561
0.0123211
0.40817
0.0135607
0.408906
0.015303
0.409821
0.017095
0.410965
0.0190334
0.0212862
0.412357
0.106324
-0.341744
-0.0498803
0.156703
-0.310161
0.201212
-0.274071
0.240073
-0.243821
0.27373
-0.211763
0.302722
-0.182158
0.327625
-0.155355
0.349007
-0.131278
0.367379
-0.109151
0.383256
-0.0897044
0.39711
-0.0716458
0.409254
-0.0569004
0.419923
-0.0457915
0.429373
-0.0371079
0.437814
-0.0288191
0.44538
-0.0218501
0.452181
-0.0159957
0.458303
-0.0111011
0.463814
-0.00702346
0.468772
-0.00365649
0.47323
-0.000905365
0.476264
0.00167704
0.478852
0.0030148
0.481073
0.00400396
0.482995
0.0047459
0.484679
0.00529991
0.486174
0.00573861
0.487525
0.00611194
0.488769
0.00646372
0.48994
0.00683168
0.491066
0.007247
0.492176
0.00773519
0.493297
0.00831108
0.494453
0.00903904
0.49566
0.010053
0.496961
0.0110199
0.498386
0.012135
0.499947
0.0137421
0.501688
0.0153543
0.503648
0.0170737
0.0190966
0.505837
0.113067
-0.403655
-0.0511554
0.168333
-0.365428
0.2171
-0.322837
0.259604
-0.286326
0.296345
-0.248504
0.327915
-0.213727
0.354942
-0.182382
0.378052
-0.154388
0.397819
-0.128919
0.414805
-0.10669
0.429523
-0.0863646
0.442349
-0.0697258
0.453576
-0.057019
0.463509
-0.0470406
0.4724
-0.0377103
0.480428
-0.0298782
0.487739
-0.0233061
0.494444
-0.017806
0.500629
-0.0132092
0.506363
-0.00939004
0.511698
-0.00624026
0.515505
-0.00213029
0.518879
-0.000359254
0.521892
0.000990813
0.524609
0.00202977
0.527083
0.00282515
0.529366
0.00345605
0.5315
0.00397828
0.533523
0.0044406
0.535469
0.00488486
0.537371
0.00534532
0.539257
0.0058496
0.541154
0.00641364
0.543088
0.00710568
0.545074
0.00806615
0.547153
0.00894169
0.549348
0.00993959
0.55167
0.0114204
0.554152
0.0128717
0.556825
0.0144013
0.0162277
0.559694
0.11834
-0.470248
-0.0517469
0.177788
-0.424876
0.230202
-0.375251
0.275832
-0.331956
0.315222
-0.287894
0.349007
-0.247513
0.377865
-0.21124
0.402466
-0.17899
0.423436
-0.149889
0.441374
-0.124627
0.456828
-0.101819
0.47022
-0.0831171
0.481891
-0.0686902
0.492178
-0.057328
0.501371
-0.0469033
0.509685
-0.038192
0.517297
-0.0309179
0.524347
-0.024856
0.530944
-0.0198066
0.537173
-0.0156192
0.543099
-0.0121663
0.54746
-0.00649144
0.551419
-0.00431772
0.555042
-0.00263196
0.558388
-0.00131642
0.561509
-0.00029616
0.564452
0.000513632
0.567256
0.00117395
0.569959
0.00173796
0.572592
0.00225118
0.575187
0.00275076
0.57777
0.0032665
0.580368
0.00381582
0.583003
0.00447043
0.585693
0.00537624
0.588469
0.00616602
0.591352
0.00705653
0.594351
0.0084214
0.597492
0.00973005
0.600798
0.0110953
0.0127517
0.604274
0.124424
-0.541964
-0.0527073
0.188449
-0.488902
0.244864
-0.431666
0.29394
-0.381031
0.336266
-0.33022
0.372526
-0.283772
0.403446
-0.24216
0.429748
-0.205292
0.452111
-0.172252
0.471173
-0.143689
0.487521
-0.118168
0.50162
-0.0972155
0.513853
-0.080924
0.52459
-0.068065
0.534152
-0.0564652
0.542788
-0.0468271
0.550703
-0.0388332
0.558065
-0.0322184
0.565008
-0.0267496
0.571637
-0.0222477
0.578033
-0.0185624
0.582839
-0.011298
0.587272
-0.00875043
0.591396
-0.00675567
0.595267
-0.00518791
0.598936
-0.00396476
0.602445
-0.00299569
0.605834
-0.00221459
0.609136
-0.00156403
0.612382
-0.000994922
0.6156
-0.000467188
0.618815
5.12605e-05
0.622051
0.000579596
0.625329
0.00119259
0.628665
0.00204054
0.632083
0.00274749
0.635603
0.00353711
0.639231
0.00479269
0.64299
0.00597156
0.646895
0.00719024
0.00869491
0.650952
0.131307
-0.619273
-0.0539983
0.200327
-0.557921
0.261118
-0.492458
0.313974
-0.433887
0.359531
-0.375778
0.398526
-0.322767
0.431739
-0.275373
0.459947
-0.2335
0.483884
-0.196188
0.504232
-0.164037
0.521621
-0.135557
0.536558
-0.112152
0.549469
-0.0938345
0.560751
-0.0793479
0.57076
-0.0664738
0.579773
-0.0558401
0.588025
-0.0470851
0.595708
-0.0399018
0.60298
-0.0340212
0.609966
-0.0292338
0.616767
-0.0253636
0.621953
-0.0164837
0.626786
-0.013584
0.631334
-0.011303
0.635652
-0.00950577
0.639789
-0.00810173
0.643787
-0.00699413
0.647684
-0.00611154
0.651512
-0.00539203
0.6553
-0.00478277
0.659073
-0.0042406
0.662855
-0.00373094
0.666668
-0.00323259
0.670528
-0.0026681
0.674453
-0.00188376
0.67846
-0.00126017
0.682566
-0.00056894
0.686779
0.000579774
0.691115
0.0016362
0.695585
0.00271949
0.00408366
0.700197
0.139
-0.702677
-0.0555959
0.213463
-0.632385
0.279032
-0.558026
0.33602
-0.490875
0.38512
-0.424877
0.427121
-0.364768
0.462865
-0.311117
0.493187
-0.263822
0.51888
-0.221881
0.540676
-0.185833
0.559249
-0.15413
0.575151
-0.128054
0.588848
-0.107532
0.600772
-0.0912718
0.611308
-0.0770091
0.620763
-0.0652951
0.629398
-0.0557206
0.637431
-0.0479349
0.645041
-0.0416311
0.652375
-0.0365673
0.659551
-0.0325401
0.665079
-0.0220115
0.670268
-0.0187728
0.675186
-0.0162216
0.679893
-0.0142128
0.684438
-0.0126466
0.688864
-0.0114195
0.693206
-0.0104539
0.697497
-0.009683
0.701764
-0.00904982
0.706031
-0.00850784
0.71032
-0.00801969
0.714649
-0.00756189
0.719036
-0.00705463
0.723494
-0.00634162
0.728038
-0.0058048
0.732682
-0.00521288
0.737434
-0.00417219
0.742306
-0.00323544
0.747307
-0.00228188
-0.00105258
0.752443
0.147529
-0.792719
-0.0574858
0.227922
-0.712779
0.298699
-0.628803
0.360201
-0.552377
0.413174
-0.47785
0.458471
-0.410065
0.496996
-0.349643
0.52965
-0.296476
0.557287
-0.249518
0.580694
-0.209241
0.600595
-0.174031
0.617588
-0.145046
0.632181
-0.122125
0.64484
-0.103931
0.655983
-0.0881514
0.665946
-0.0752586
0.675018
-0.0647925
0.683439
-0.056356
0.691411
-0.0496026
0.699099
-0.044256
0.706643
-0.0400836
0.712496
-0.0278645
0.718014
-0.0242906
0.72327
-0.0214779
0.728327
-0.0192694
0.733235
-0.0175553
0.73804
-0.0162239
0.742777
-0.0151911
0.747478
-0.0143844
0.752171
-0.0137424
0.756878
-0.0132147
0.761619
-0.0127609
0.766412
-0.0123548
0.771272
-0.0119145
0.776212
-0.0112818
0.781244
-0.0108372
0.78638
-0.0103481
0.791627
-0.00941923
0.796994
-0.00860283
0.802489
-0.00777736
-0.00668138
0.808118
0.156934
-0.889992
-0.0596612
0.243787
-0.799632
0.32024
-0.705257
0.386667
-0.618804
0.443872
-0.535055
0.492773
-0.458966
0.534348
-0.391217
0.569563
-0.331692
0.599343
-0.279298
0.624533
-0.23443
0.645909
-0.195408
0.664121
-0.163258
0.67972
-0.137725
0.693209
-0.11742
0.705039
-0.0999815
0.715579
-0.0857982
0.725142
-0.0743558
0.733994
-0.0652079
0.742357
-0.0579657
0.750418
-0.0523167
0.758332
-0.0479977
0.764505
-0.0340374
0.770338
-0.0301238
0.775911
-0.027051
0.78129
-0.0246484
0.78653
-0.0227951
0.791676
-0.0213704
0.796768
-0.0202825
0.801836
-0.019453
0.806909
-0.018815
0.812009
-0.0183142
0.817154
-0.0179065
0.822362
-0.017563
0.827647
-0.0171995
0.833022
-0.0166564
0.838496
-0.0163109
0.844077
-0.0159299
0.849777
-0.0151184
0.855599
-0.0144255
0.861551
-0.0137295
-0.0127682
0.867638
0.167268
-0.99514
-0.0621205
0.261155
-0.893519
0.343796
-0.787898
0.415594
-0.690601
0.477419
-0.59688
0.530261
-0.511809
0.575174
-0.436129
0.613199
-0.369717
0.645333
-0.311432
0.672487
-0.261583
0.695495
-0.218416
0.715058
-0.182821
0.731777
-0.154444
0.746192
-0.131835
0.758791
-0.112581
0.769975
-0.0969822
0.780086
-0.0844663
0.789412
-0.0745343
0.798199
-0.0667528
0.806653
-0.0607705
0.814947
-0.0562917
0.821442
-0.0405317
0.827584
-0.0362663
0.83346
-0.0329274
0.839142
-0.0303303
0.844688
-0.0283412
0.850148
-0.0268295
0.85556
-0.025695
0.860959
-0.0248521
0.866373
-0.0242285
0.871823
-0.023765
0.877331
-0.0234138
0.88291
-0.0231426
0.888576
-0.0228652
0.894341
-0.022421
0.900211
-0.0221817
0.906196
-0.0219149
0.912305
-0.0212274
0.918543
-0.0206628
0.924913
-0.0200995
-0.0192763
0.931421
0.178593
-1.10887
-0.0648668
0.280144
-0.99507
0.369529
-0.877282
0.447185
-0.768258
0.514054
-0.663749
0.571203
-0.568958
0.619767
-0.484693
0.66087
-0.41082
0.695588
-0.34615
0.724899
-0.290895
0.749704
-0.243221
0.77076
-0.203877
0.788717
-0.172402
0.804158
-0.147276
0.81761
-0.126033
0.829508
-0.10888
0.840222
-0.0951801
0.850067
-0.0843796
0.859311
-0.0759968
0.86818
-0.0696392
0.876865
-0.0649764
0.883685
-0.0473523
0.890134
-0.0427151
0.896305
-0.039098
0.902274
-0.0362999
0.908106
-0.0341731
0.913853
-0.0325761
0.919557
-0.0313992
0.925254
-0.0305491
0.930973
-0.0299473
0.936737
-0.0295293
0.942566
-0.029243
0.948476
-0.0290526
0.95448
-0.0288695
0.960592
-0.0285325
0.966817
-0.0284066
0.973162
-0.0282604
0.979639
-0.0277039
0.986249
-0.0272731
0.992997
-0.0268471
-0.0261665
0.999887
0.190983
-1.23194
-0.0679066
0.300888
-1.10498
0.397625
-0.97402
0.481673
-0.852306
0.554048
-0.736123
0.615903
-0.630813
0.66846
-0.537251
0.712933
-0.455293
0.750482
-0.383699
0.782162
-0.322575
0.808942
-0.270001
0.831641
-0.226575
0.850962
-0.191723
0.867534
-0.163848
0.881926
-0.140425
0.894607
-0.121561
0.905981
-0.106554
0.916389
-0.0947875
0.926122
-0.0857296
0.935426
-0.0789438
0.944512
-0.0740621
0.951664
-0.0545046
0.958418
-0.0494685
0.964874
-0.0455543
0.971117
-0.0425429
0.977216
-0.0402716
0.983226
-0.0385863
0.989194
-0.0373673
0.995158
-0.0365127
1.00115
-0.035937
1.00719
-0.0355701
1.0133
-0.035355
1.0195
-0.035252
1.0258
-0.0351703
1.03222
-0.0349481
1.03875
-0.034942
1.04541
-0.0349226
1.05221
-0.034504
1.05915
-0.0342128
1.06624
-0.0339291
-0.0333965
1.07347
0.204521
-1.36521
-0.0712494
0.323535
-1.22399
0.428295
-1.07878
0.519319
-0.94333
0.597707
-0.814511
0.664704
-0.69781
0.721629
-0.594176
0.769791
-0.503456
0.810443
-0.42435
0.844721
-0.356853
0.873669
-0.298949
0.898172
-0.251078
0.918991
-0.212543
0.936805
-0.181661
0.952226
-0.155846
0.965765
-0.1351
0.977856
-0.118645
0.98887
-0.105801
0.999122
-0.0959818
1.00888
-0.0887027
1.01837
-0.083556
1.02586
-0.0619926
1.03292
-0.0565234
1.03965
-0.0522868
1.04615
-0.0490442
1.0525
-0.0466161
1.05874
-0.0448351
1.06495
-0.0435702
1.07115
-0.0427102
1.07737
-0.042162
1.08365
-0.041849
1.09
-0.0417092
1.09645
-0.0416985
1.103
-0.0417235
1.10968
-0.0416221
1.11648
-0.0417415
1.12341
-0.0418544
1.13048
-0.0415801
1.13771
-0.0414342
1.14507
-0.041298
-0.0409188
1.1526
0.219303
-1.50961
-0.0749075
0.348257
-1.35294
0.461772
-1.19229
0.560415
-1.04197
0.645373
-0.899469
0.717992
-0.770429
0.779696
-0.65588
0.831898
-0.555658
0.875948
-0.4684
0.913074
-0.393979
0.9444
-0.330275
0.970883
-0.277561
0.993346
-0.235005
1.01252
-0.200834
1.02907
-0.172394
1.04354
-0.149572
1.0564
-0.131511
1.06807
-0.117463
1.07887
-0.106781
1.08909
-0.098931
1.099
-0.093461
1.10682
-0.0698181
1.11417
-0.063874
1.12117
-0.0592829
1.12791
-0.0557851
1.13448
-0.0531828
1.14094
-0.051294
1.14734
-0.0499752
1.15374
-0.0491053
1.16016
-0.0485825
1.16663
-0.0483234
1.17318
-0.0482605
1.17983
-0.0483448
1.18659
-0.0484802
1.19347
-0.0485042
1.20048
-0.0487536
1.20763
-0.0490034
1.21493
-0.048879
1.22238
-0.0488835
1.22998
-0.0488996
-0.048679
1.23774
0.235436
-1.66615
-0.0788954
0.375244
-1.49275
0.498322
-1.31537
0.605289
-1.14894
0.69743
-0.991611
0.776199
-0.849198
0.843135
-0.722816
0.899761
-0.612284
0.947536
-0.516176
0.987784
-0.434226
1.02172
-0.364209
1.05037
-0.306214
1.07463
-0.259268
1.09529
-0.221495
1.11307
-0.190168
1.12855
-0.165054
1.14225
-0.145211
1.1546
-0.129815
1.16598
-0.118154
1.17668
-0.10964
1.187
-0.103774
1.19516
-0.0779786
1.20279
-0.0715098
1.21004
-0.0665252
1.21699
-0.0627419
1.22375
-0.0599424
1.23039
-0.0579287
1.23696
-0.0565438
1.24351
-0.0556553
1.25008
-0.0551525
1.2567
-0.0549445
1.26339
-0.0549574
1.27019
-0.055137
1.27709
-0.0553844
1.28412
-0.0555366
1.29129
-0.0559189
1.29859
-0.056309
1.30605
-0.056339
1.31367
-0.0564982
1.32144
-0.0566709
-0.0566134
1.32937
0.253042
-1.83596
-0.0832301
0.404708
-1.64442
0.538239
-1.4489
0.654308
-1.26501
0.754308
-1.09161
0.83981
-0.934699
0.912475
-0.795481
0.973949
-0.673758
1.02581
-0.568035
1.06948
-0.477898
1.10627
-0.401003
1.13731
-0.337247
1.16354
-0.285501
1.18582
-0.243779
1.20493
-0.209278
1.22151
-0.181632
1.23611
-0.159806
1.24919
-0.142896
1.26116
-0.130121
1.27235
-0.120834
1.28306
-0.114486
1.29155
-0.0864668
1.29945
-0.0794147
1.30692
-0.0739898
1.31406
-0.069884
1.32098
-0.0668583
1.32774
-0.0646972
1.33443
-0.063229
1.34108
-0.0623094
1.34775
-0.0618175
1.35446
-0.0616542
1.36124
-0.0617389
1.36811
-0.0620115
1.3751
-0.0623701
1.38222
-0.0626514
1.38946
-0.0631678
1.39685
-0.0636999
1.4044
-0.0638874
1.41211
-0.0642044
1.41998
-0.0645368
-0.0646462
1.42801
0.272253
-2.02028
-0.0879304
0.436889
-1.80905
0.581854
-1.59387
0.707884
-1.39104
0.816488
-1.20022
0.909365
-1.02758
0.98831
-0.874425
1.0551
-0.740549
1.11144
-0.624374
1.15887
-0.525327
1.1988
-0.440935
1.23244
-0.370887
1.26083
-0.313891
1.28489
-0.267837
1.30545
-0.229839
1.32321
-0.199391
1.33876
-0.175357
1.35261
-0.156745
1.36519
-0.142701
1.37687
-0.132512
1.38796
-0.125577
1.39676
-0.0952687
1.40491
-0.0875652
1.41257
-0.0816447
1.41985
-0.0771718
1.42688
-0.0738842
1.43373
-0.0715474
1.44047
-0.0699737
1.44717
-0.0690055
1.45386
-0.0685111
1.46059
-0.0683825
1.46739
-0.0685316
1.47427
-0.0688921
1.48125
-0.0693586
1.48837
-0.0697673
1.49562
-0.0704168
1.50301
-0.0710909
1.51056
-0.0714374
1.51827
-0.0719137
1.52614
-0.0724076
-0.0726866
1.53418
0.293223
-2.22049
-0.0930173
0.472053
-1.98789
0.629535
-1.75135
0.766476
-1.52798
0.884509
-1.31825
0.985471
-1.12854
1.0713
-0.960259
1.14393
-0.813175
1.20519
-0.685631
1.25674
-0.576879
1.30011
-0.484309
1.33661
-0.407388
1.36737
-0.344641
1.39336
-0.29383
1.4155
-0.251977
1.43453
-0.218424
1.4511
-0.191926
1.46575
-0.171399
1.47896
-0.155906
1.49111
-0.144666
1.50255
-0.137018
1.51165
-0.104363
1.52001
-0.0959287
1.52781
-0.0894478
1.5352
-0.084555
1.54227
-0.0809623
1.54914
-0.0784148
1.55588
-0.0767074
1.56254
-0.0756679
1.56918
-0.0751531
1.57584
-0.0750449
1.58256
-0.0752472
1.58935
-0.075687
1.59625
-0.0762549
1.60327
-0.0767867
1.61042
-0.0775658
1.61771
-0.0783795
1.62515
-0.0788844
1.63276
-0.0795198
1.64053
-0.0801753
-0.0806248
1.64847
0.316117
-2.43809
-0.0985138
0.510499
-2.18227
0.681698
-1.92255
0.830599
-1.67688
0.958972
-1.44662
1.06881
-1.23837
1.1622
-1.05366
1.24124
-0.89221
1.3079
-0.752291
1.36398
-0.632963
1.41114
-0.531465
1.45078
-0.447025
1.48411
-0.377976
1.51221
-0.321935
1.53606
-0.275826
1.55647
-0.238828
1.57412
-0.209579
1.58961
-0.186892
1.60345
-0.169743
1.61606
-0.157276
1.62781
-0.148766
1.63716
-0.113717
1.6457
-0.104462
1.65359
-0.0973449
1.66101
-0.0919696
1.66807
-0.0880204
1.67487
-0.0852197
1.68151
-0.0833436
1.68804
-0.0822044
1.69454
-0.0816457
1.70103
-0.0815388
1.70756
-0.0817789
1.71416
-0.0822853
1.72085
-0.0829445
1.72766
-0.0835918
1.73458
-0.084494
1.74165
-0.0854422
1.74886
-0.0861024
1.75624
-0.0868943
1.76377
-0.0877094
-0.0883284
1.77148
0.341125
-2.67477
-0.104445
0.552558
-2.3937
0.738803
-2.10879
0.900828
-1.83891
1.04055
-1.58635
1.16014
-1.35796
1.26184
-1.15536
1.34792
-0.97829
1.42053
-0.824892
1.48159
-0.694028
1.5329
-0.582776
1.57598
-0.490105
1.61215
-0.414141
1.64256
-0.352344
1.66826
-0.301532
1.69014
-0.260707
1.70894
-0.22838
1.7253
-0.203254
1.73977
-0.184212
1.75281
-0.170313
1.76481
-0.160765
1.77438
-0.123289
1.78303
-0.113107
1.79095
-0.105267
1.79831
-0.099336
1.80526
-0.0949691
1.81191
-0.0918644
1.81834
-0.0897771
1.82464
-0.0885025
1.83086
-0.0878703
1.83706
-0.0877401
1.84328
-0.0879972
1.84955
-0.0885531
1.8559
-0.0892894
1.86234
-0.0900407
1.86891
-0.0910559
1.87559
-0.0921302
1.88243
-0.0929397
1.88942
-0.0938826
1.89656
-0.0948526
-0.0956379
1.90387
0.368455
-2.93239
-0.110837
0.598606
-2.62385
0.801369
-2.31156
0.977811
-2.01535
1.13001
-1.73855
1.26031
-1.48825
1.37116
-1.26622
1.465
-1.07212
1.54414
-0.904032
1.61068
-0.760576
1.66656
-0.638657
1.71343
-0.536968
1.75269
-0.453408
1.78562
-0.385268
1.81334
-0.329252
1.8368
-0.284169
1.85682
-0.248395
1.87407
-0.220513
1.88916
-0.199301
1.90258
-0.183732
1.91476
-0.172938
1.92449
-0.133022
1.93317
-0.121793
1.94104
-0.113128
1.94826
-0.106556
1.95499
-0.101699
1.96135
-0.0982291
1.96745
-0.0958792
1.97338
-0.0944259
1.97919
-0.0936833
1.98495
-0.0934985