/*--------------------------------*- C++ -*----------------------------------*\
| =========                 |                                                 |
| \\      /  F ield         | OpenFOAM: The Open Source CFD Toolbox           |
|  \\    /   O peration     | Version:  5.x                                   |
|   \\  /    A nd           | Web:      www.OpenFOAM.org                      |
|    \\/     M anipulation  |                                                 |
\*---------------------------------------------------------------------------*/
FoamFile
{
    version     2.0;
    format      ascii;
    class       volVectorField;
    location    "400";
    object      U;
}
// * * * * * * * * * * * * * * * * * * * * * * * * * * * * * * * * * * * * * //

dimensions      [0 1 -1 0 0 0 0];

internalField   nonuniform List<vector> 
41860
(
(163.037 248.881 0)
(243.262 187.435 4.20902e-16)
(281.276 114.365 1.30819e-16)
(254.129 85.3553 -3.74887e-16)
(239.678 67.2459 -9.32396e-22)
(223.838 54.215 -2.64752e-16)
(208.615 44.498 -3.19846e-16)
(195.748 37.3164 3.75811e-16)
(184.7 31.802 0)
(174.998 27.3975 -4.85231e-16)
(166.245 23.8151 5.47988e-16)
(158.461 20.8315 5.84989e-16)
(151.076 18.2926 -5.05909e-21)
(145.427 16.2415 6.67014e-16)
(139.906 14.431 -7.56313e-16)
(136.599 13.0371 -7.48894e-16)
(132.979 11.7237 7.93552e-16)
(129.984 10.5937 -8.18116e-16)
(127.405 9.57713 -8.21161e-16)
(124.292 8.60874 8.75124e-16)
(122.386 7.79401 -8.54254e-16)
(119.681 6.9812 -2.4926e-21)
(117.791 6.27913 -5.59354e-21)
(115.942 5.6178 3.38183e-21)
(113.904 4.9923 1.81444e-15)
(112.617 4.43427 -8.78349e-16)
(110.794 3.88549 0)
(109.289 3.38274 -4.40058e-16)
(107.997 2.91112 4.40464e-16)
(106.755 2.46483 0)
(105.545 2.0428 3.26386e-21)
(104.081 1.63483 -3.22722e-21)
(103.023 1.25788 -2.80778e-21)
(102.177 0.894883 6.22455e-21)
(101.032 0.551381 1.99914e-16)
(100.314 0.221077 0)
(99.3933 -0.0912704 -2.39073e-17)
(98.6225 -0.394039 1.88348e-16)
(97.8909 -0.679584 -1.82926e-16)
(97.5149 -0.961886 3.55083e-16)
(97.0487 -1.22727 0)
(96.6007 -1.48761 -1.33782e-15)
(91.8825 -1.63395 0)
(91.4978 -1.82295 3.77632e-21)
(90.5875 -1.983 9.09165e-16)
(90.3293 -2.15233 -1.7322e-21)
(89.7267 -2.30303 1.73026e-21)
(89.1387 -2.44473 9.16025e-16)
(88.5987 -2.58266 -1.83862e-15)
(88.1182 -2.71051 -9.2292e-16)
(87.6372 -2.83772 -1.7705e-21)
(87.1745 -2.95233 9.29648e-16)
(86.7382 -3.0692 -9.32554e-16)
(86.2521 -3.17237 1.79063e-21)
(85.8417 -3.28002 6.3757e-24)
(85.1447 -3.36557 6.38826e-24)
(84.7836 -3.46441 -1.81616e-21)
(84.7992 -3.5717 0)
(84.1008 -3.64848 -1.91339e-15)
(84.1406 -3.75327 -1.81735e-21)
(83.7517 -3.83825 1.89555e-15)
(83.539 -3.93856 -1.90828e-15)
(83.0384 -4.0321 1.91063e-15)
(82.8435 -4.13433 -3.82645e-15)
(82.2919 -4.22214 1.92011e-15)
(81.8818 -4.31036 -1.92431e-15)
(81.2099 -4.38815 0)
(80.7722 -4.47216 9.30321e-22)
(80.4065 -4.56274 3.42836e-24)
(80.1756 -4.66042 -1.92008e-15)
(79.1315 -4.70866 -3.68311e-24)
(78.677 -4.79361 9.40164e-22)
(78.0777 -4.86784 3.91303e-15)
(77.1535 -4.92157 -4.74537e-22)
(76.1012 -4.96662 4.06132e-15)
(75.2956 -5.02812 0)
(74.0637 -5.05943 -8.16096e-15)
(72.5991 -5.07405 -2.46638e-22)
(71.1972 -5.08991 4.22723e-15)
(68.7771 -5.03301 -4.22267e-15)
(70.4161 -5.26164 4.30358e-15)
(-0.240796 -0.230792 -7.41928e-15)
(209.537 309.369 0)
(298.674 230.163 -1.81381e-16)
(327.831 133.523 -5.37104e-17)
(292.859 98.851 1.52365e-16)
(278.963 78.4189 0)
(263.516 63.9667 4.31101e-22)
(250.525 53.5631 2.6717e-16)
(240.062 45.8798 5.93067e-22)
(231.297 39.9338 1.86606e-16)
(223.85 35.1473 2.1455e-16)
(217.568 31.2635 -2.47437e-16)
(211.442 27.8873 -5.38171e-16)
(206.734 25.1197 5.16298e-23)
(201.528 22.5878 -2.38715e-21)
(198.69 20.5727 0)
(195.574 18.737 0)
(193.672 17.142 -3.80115e-16)
(192.006 15.7117 0)
(190.164 14.3535 3.93074e-16)
(189.257 13.1647 0)
(187.42 11.9871 8.15315e-16)
(186.312 10.9176 -4.30238e-16)
(184.887 9.90229 -4.23989e-16)
(183.261 8.92296 0)
(182.111 8.0228 -1.95356e-21)
(180.164 7.13115 -4.24145e-16)
(178.913 6.31046 0)
(177.318 5.52178 0)
(175.656 4.76546 -6.36952e-22)
(173.944 4.04499 0)
(172.284 3.36187 0)
(170.849 2.70954 0)
(169.123 2.08804 2.0272e-16)
(167.257 1.48679 0)
(165.691 0.924838 -9.81829e-17)
(163.815 0.380056 1.49361e-21)
(162.206 -0.130693 -1.43648e-21)
(160.499 -0.624747 -4.65986e-17)
(158.698 -1.08662 9.06583e-17)
(156.795 -1.53246 -2.01275e-22)
(155.115 -1.94831 -1.30759e-21)
(153.246 -2.34908 6.63915e-16)
(154.6 -2.7374 0)
(154.051 -3.05625 4.51593e-16)
(153.338 -3.3445 -4.55154e-16)
(152.175 -3.61496 1.74443e-21)
(151.205 -3.87006 4.6004e-16)
(150.264 -4.11082 -4.63964e-16)
(149.32 -4.34283 2.98558e-22)
(148.382 -4.55487 4.68316e-16)
(147.469 -4.76614 0)
(146.573 -4.95542 -4.72233e-16)
(145.696 -5.1472 1.81104e-21)
(144.857 -5.31996 6.55713e-24)
(144.011 -5.49491 -1.8151e-21)
(143.36 -5.65912 9.19078e-22)
(142.527 -5.81738 -1.83333e-21)
(141.521 -5.95428 9.16271e-22)
(140.914 -6.1069 9.63574e-16)
(139.941 -6.23665 9.2297e-22)
(139.203 -6.37386 -9.60327e-16)
(138.411 -6.51989 9.68323e-16)
(137.761 -6.68384 -9.1415e-22)
(136.77 -6.82024 9.70061e-16)
(136.079 -6.97638 -9.64146e-16)
(135.109 -7.10724 -9.25836e-22)
(134.351 -7.25433 0)
(133.401 -7.38129 9.77327e-16)
(132.365 -7.50655 -1.73155e-24)
(131.246 -7.624 2.24306e-22)
(130.383 -7.75331 9.9297e-16)
(129.175 -7.86564 0)
(127.932 -7.97092 -1.97679e-15)
(126.766 -8.08108 -2.09883e-24)
(125.425 -8.18071 -2.04405e-15)
(123.789 -8.26114 -2.05216e-15)
(122.21 -8.34261 2.05959e-15)
(120.253 -8.39877 -2.10067e-15)
(118.389 -8.45762 -2.14694e-15)
(114.786 -8.39311 0)
(116.996 -8.72044 -2.18334e-15)
(6.74642 -0.733049 1.18477e-14)
(230.517 338.719 -4.57545e-18)
(327.951 252.922 0)
(353.303 144.022 4.09638e-17)
(314.258 106.187 1.15478e-16)
(300.297 84.4654 0)
(284.897 69.1966 0)
(272.931 58.3848 -9.70972e-17)
(263.632 50.4106 0)
(256.008 44.2225 -1.30685e-16)
(249.7 39.2255 -1.14556e-21)
(244.646 35.172 1.67407e-16)
(239.357 31.5843 7.01519e-21)
(235.786 28.664 2.04576e-16)
(230.752 25.8759 2.08847e-16)
(228.551 23.6755 0)
(225.287 21.5933 2.28357e-16)
(223.476 19.7883 0)
(221.792 18.1566 2.39196e-16)
(219.846 16.6005 2.37583e-16)
(218.96 15.2369 -2.45576e-16)
(216.97 13.8825 -2.39392e-16)
(215.946 12.6591 2.48249e-16)
(214.263 11.4802 2.42768e-16)
(212.669 10.359 2.44645e-16)
(211.25 9.31035 -1.15726e-21)
(209.323 8.2888 2.40679e-16)
(207.959 7.33838 0)
(206.069 6.42021 -1.18535e-16)
(204.445 5.54928 -3.74079e-22)
(202.597 4.7141 0)
(200.823 3.92148 1.80519e-21)
(199.076 3.15974 1.15977e-16)
(197.202 2.43694 1.14355e-16)
(195.36 1.73884 5.73895e-17)
(193.444 1.08186 0)
(191.56 0.446465 1.71538e-21)
(189.56 -0.150747 -6.79093e-18)
(187.634 -0.728435 -2.69695e-17)
(185.56 -1.26877 -5.27137e-17)
(183.484 -1.79159 -1.04702e-16)
(181.348 -2.27607 -3.096e-21)
(179.11 -2.74477 2.8117e-21)
(181.389 -3.21127 8.89392e-24)
(180.776 -3.58524 -2.55569e-16)
(179.792 -3.92033 2.55431e-16)
(178.662 -4.24312 -2.59826e-16)
(177.556 -4.54338 -2.61092e-16)
(176.486 -4.82708 0)
(175.405 -5.10044 2.65019e-16)
(174.337 -5.35056 2.66795e-16)
(173.285 -5.59949 1.02581e-21)
(172.247 -5.82243 -8.80154e-22)
(171.226 -6.0482 2.71214e-16)
(170.23 -6.25086 -1.04182e-21)
(169.232 -6.45622 -5.46912e-16)
(168.309 -6.643 -1.0464e-21)
(167.322 -6.82869 5.48034e-16)
(166.306 -6.9962 0)
(165.405 -7.16745 0)
(164.421 -7.32696 5.59575e-16)
(163.49 -7.48516 0)
(162.583 -7.65769 1.07538e-21)
(161.621 -7.84072 -1.59016e-21)
(160.618 -8.00871 5.38743e-22)
(159.617 -8.18225 0)
(158.591 -8.34161 5.67908e-16)
(157.575 -8.50736 -5.67891e-16)
(156.445 -8.65561 -1.13492e-15)
(155.351 -8.80939 -5.79819e-16)
(154.036 -8.94688 -4.25594e-22)
(152.911 -9.09205 -5.78623e-16)
(151.614 -9.23115 0)
(150.152 -9.35431 -2.78288e-22)
(148.718 -9.47943 1.17617e-15)
(147.2 -9.59989 -1.19517e-15)
(145.433 -9.7044 1.20891e-15)
(143.532 -9.79673 1.20662e-15)
(141.344 -9.87049 1.22871e-15)
(139.264 -9.94719 3.76524e-22)
(135.357 -9.89651 0)
(137.664 -10.2328 0)
(20.4848 -1.77817 -1.2843e-14)
(246.549 362.56 1.06214e-17)
(354.639 273.794 0)
(378.402 154.426 1.41234e-20)
(335.25 113.356 -1.0723e-16)
(320.441 90.1816 0)
(304.909 74.0937 5.61457e-22)
(293.253 62.7587 -6.04489e-22)
(284.29 54.3808 0)
(276.994 47.8634 -1.60696e-21)
(271.024 42.5877 1.70833e-21)
(266.283 38.2931 1.26089e-16)
(261.407 34.5025 1.35369e-16)
(257.983 31.37 -1.50081e-16)
(253.258 28.4059 -3.10155e-16)
(250.602 25.9649 -2.54703e-21)
(247.151 23.6933 -1.67496e-16)
(244.844 21.6837 0)
(242.765 19.8765 -1.73372e-16)
(240.537 18.1653 -1.7212e-16)
(239.149 16.644 1.76868e-16)
(237.016 15.1673 -1.72868e-16)
(235.625 13.8145 -3.55833e-16)
(233.749 12.5262 -1.08266e-21)
(232.003 11.3024 -3.51135e-16)
(230.333 10.1531 -1.75587e-16)
(228.388 9.04538 0)
(226.817 8.00541 0)
(224.833 7.00638 1.71209e-16)
(223.137 6.05813 -8.68602e-17)
(221.243 5.14942 8.55625e-17)
(219.407 4.28575 0)
(217.542 3.4542 -8.42283e-17)
(215.635 2.66607 -8.32366e-17)
(213.797 1.90428 -4.1726e-17)
(211.805 1.18584 0)
(209.929 0.490582 2.50695e-21)
(207.865 -0.164042 -2.42437e-21)
(205.899 -0.798035 1.99101e-17)
(203.782 -1.39205 -3.90324e-17)
(201.716 -1.96833 0)
(199.515 -2.50276 0)
(197.223 -3.02245 -2.99782e-16)
(198.866 -3.52126 0)
(198.214 -3.9305 1.86686e-16)
(197.105 -4.29713 0)
(195.977 -4.65359 -1.29786e-21)
(194.804 -4.98398 1.45575e-21)
(193.664 -5.2962 -1.93145e-16)
(192.519 -5.59733 1.94417e-16)
(191.39 -5.87318 -1.95892e-16)
(190.273 -6.14771 0)
(189.169 -6.39373 1.98521e-16)
(188.083 -6.64292 -1.99737e-16)
(187.012 -6.86637 0)
(185.945 -7.09312 1.84911e-22)
(184.894 -7.29687 1.54725e-21)
(183.839 -7.5021 -8.11213e-16)
(182.825 -7.69044 7.85737e-22)
(181.786 -7.8766 -7.78743e-22)
(180.804 -8.05634 -4.15294e-16)
(179.789 -8.23071 7.90792e-22)
(178.829 -8.42217 -7.9737e-22)
(177.748 -8.62233 0)
(176.713 -8.81048 4.21874e-16)
(175.585 -9.00008 -2.764e-24)
(174.496 -9.1774 -4.24473e-16)
(173.343 -9.35788 4.24829e-16)
(172.124 -9.52232 4.2495e-16)
(170.979 -9.69474 4.34308e-16)
(169.597 -9.84978 8.577e-16)
(168.297 -10.006 4.34246e-16)
(166.936 -10.1631 -4.19147e-22)
(165.366 -10.3011 8.75497e-16)
(163.78 -10.4385 -8.85691e-16)
(162.114 -10.5714 1.79695e-15)
(160.248 -10.6917 -4.32074e-22)
(158.159 -10.7937 -9.07693e-16)
(155.789 -10.8778 -9.23141e-16)
(153.535 -10.9645 9.40978e-16)
(149.372 -10.9207 9.53806e-16)
(151.82 -11.2484 9.61467e-16)
(39.0871 -3.30983 1.32621e-14)
(258.552 380.726 -5.74012e-18)
(376.88 291.331 -1.00853e-16)
(401.239 163.976 -3.25048e-17)
(354.343 119.912 9.01535e-17)
(337.644 95.0873 5.0895e-17)
(321.75 78.2318 5.70139e-17)
(309.63 66.2963 6.43958e-17)
(300.318 57.4717 -1.06096e-21)
(292.827 50.6188 7.86494e-17)
(286.777 45.0786 1.29002e-21)
(281.982 40.5636 -9.47335e-17)
(277.353 36.6178 3.14156e-21)
(273.884 33.3132 -3.40019e-21)
(269.6 30.2473 1.1751e-16)
(266.642 27.6341 3.96249e-21)
(263.213 25.2397 -7.89275e-21)
(260.624 23.0867 8.15613e-21)
(258.344 21.157 -4.11262e-21)
(255.996 19.3371 0)
(254.337 17.7049 0)
(252.17 16.1406 2.75208e-16)
(250.56 14.6934 1.41916e-16)
(248.634 13.3271 -1.40387e-16)
(246.792 12.0259 1.41024e-16)
(245.033 10.804 -1.42011e-16)
(243.067 9.62943 2.14234e-21)
(241.389 8.52224 -2.17179e-21)
(239.41 7.46307 -2.89788e-22)
(237.646 6.45437 -2.16396e-21)
(235.74 5.48908 -1.39419e-16)
(233.876 4.57049 0)
(231.99 3.68566 6.90497e-17)
(230.074 2.84658 1.38237e-23)
(228.211 2.03461 3.41664e-17)
(226.222 1.26842 3.35718e-17)
(224.324 0.526067 8.40041e-18)
(222.27 -0.17362 4.11768e-18)
(220.29 -0.852028 0)
(218.175 -1.4886 3.22363e-17)
(216.1 -2.10697 -1.96289e-21)
(213.912 -2.68162 1.91445e-21)
(211.613 -3.24252 2.48599e-16)
(212.675 -3.76583 0)
(211.991 -4.2028 0)
(210.845 -4.5956 -1.5516e-16)
(209.678 -4.9778 1.57402e-16)
(208.462 -5.33233 0)
(207.278 -5.66739 1.60124e-16)
(206.089 -5.99079 1.10948e-21)
(204.918 -6.28725 -2.48057e-21)
(203.758 -6.58235 -4.75824e-24)
(202.611 -6.84698 -1.64924e-16)
(201.481 -7.11507 -1.26432e-21)
(200.362 -7.3555 0)
(199.25 -7.59967 3.35964e-16)
(198.149 -7.81899 -3.38044e-16)
(197.05 -8.04022 6.77609e-16)
(195.995 -8.24344 3.42681e-16)
(194.905 -8.44406 -3.41953e-16)
(193.88 -8.63801 1.32345e-21)
(192.818 -8.82618 4.34244e-24)
(191.81 -9.03259 -3.49553e-16)
(190.682 -9.24877 -1.32519e-21)
(189.589 -9.45142 -3.52466e-16)
(188.407 -9.65624 6.71941e-22)
(187.248 -9.84698 3.55071e-16)
(186.03 -10.0417 0)
(184.747 -10.2195 0)
(183.526 -10.405 0)
(182.09 -10.5741 -3.59145e-16)
(180.696 -10.7419 -3.64678e-16)
(179.253 -10.9115 0)
(177.602 -11.0619 -7.33871e-16)
(175.921 -11.2108 0)
(174.143 -11.3542 -7.54839e-16)
(172.167 -11.4851 1.77312e-24)
(169.959 -11.597 -7.27273e-22)
(167.44 -11.6892 7.75172e-16)
(165.042 -11.7834 7.89831e-16)
(160.637 -11.7435 -7.9763e-16)
(163.235 -12.0523 1.01108e-21)
(59.3015 -4.9878 0)
(267.507 394.307 1.05076e-17)
(394.688 305.547 1.70638e-16)
(419.651 171.789 0)
(369.876 125.305 -1.45144e-16)
(351.233 98.997 -8.14319e-17)
(334.966 81.5038 -9.11528e-17)
(322.363 69.0656 -1.02866e-16)
(312.727 59.8791 3.48065e-21)
(305.077 52.7622 -1.26078e-16)
(298.984 47.018 6.92406e-17)
(294.188 42.3367 2.36409e-21)
(289.772 38.272 -2.47491e-21)
(286.346 34.8418 0)
(282.455 31.7009 0)
(279.456 28.9724 3.26402e-21)
(276.161 26.4905 -1.07403e-16)
(273.463 24.2318 3.38731e-21)
(271.1 22.2087 -1.14218e-16)
(268.716 20.304 1.14513e-16)
(266.908 18.5856 -3.65522e-21)
(264.749 16.9509 -1.17316e-16)
(263.013 15.4283 3.72062e-21)
(261.079 13.9986 -3.65894e-21)
(259.192 12.6342 1.21188e-16)
(257.395 11.3529 2.45029e-16)
(255.427 10.1228 1.2066e-16)
(253.691 8.96003 -1.23586e-16)
(251.736 7.85066 -6.04794e-17)
(249.932 6.7912 3.72631e-21)
(248.029 5.77825 6.05339e-17)
(246.156 4.81333 0)
(244.271 3.88353 -6.01791e-17)
(242.357 3.0012 3.62421e-21)
(240.479 2.14655 -2.97888e-17)
(238.506 1.33977 -2.93306e-17)
(236.595 0.557252 -7.3308e-18)
(234.562 -0.18088 0)
(232.578 -0.897255 0)
(230.479 -1.57029 2.82394e-17)
(228.402 -2.22469 -1.70846e-21)
(226.237 -2.83392 0)
(223.947 -3.43053 -1.57672e-22)
(224.529 -3.97536 -2.04138e-21)
(223.814 -4.43597 2.06442e-21)
(222.653 -4.85151 1.36575e-16)
(221.449 -5.25577 1.38433e-16)
(220.204 -5.6312 4.25404e-21)
(218.986 -5.98606 8.67695e-24)
(217.765 -6.32878 -1.4203e-16)
(216.562 -6.64312 -8.46754e-24)
(215.37 -6.95607 4.40554e-21)
(214.189 -7.2369 1.45411e-16)
(213.026 -7.52142 1.4643e-16)
(211.872 -7.77672 0)
(210.727 -8.03608 -2.96523e-16)
(209.594 -8.26932 2.98841e-16)
(208.462 -8.50457 -5.99237e-16)
(207.365 -8.72038 -1.51757e-22)
(206.245 -8.93413 3.02594e-16)
(205.178 -9.14007 0)
(204.08 -9.34049 0)
(203.033 -9.55983 3.09188e-16)
(201.873 -9.79025 2.35158e-21)
(200.728 -10.0054 -1.18785e-21)
(199.507 -10.2238 0)
(198.29 -10.4263 -8.7727e-23)
(197.026 -10.6337 0)
(195.691 -10.8234 3.16267e-16)
(194.401 -11.02 3.22122e-16)
(192.918 -11.2013 3.18246e-16)
(191.454 -11.3799 3.23532e-16)
(189.935 -11.56 0)
(188.218 -11.7213 -6.21713e-22)
(186.456 -11.8802 6.60288e-16)
(184.587 -12.033 0)
(182.512 -12.1729 0)
(180.208 -12.2938 0)
(177.561 -12.3931 0)
(175.04 -12.4936 -7.00429e-16)
(170.421 -12.4577 7.05843e-16)
(173.146 -12.7387 -1.43655e-15)
(78.1666 -6.57413 2.3602e-14)
(274.011 404.314 -9.19511e-18)
(409.281 317.402 -1.49758e-16)
(434.663 178.302 -3.57844e-22)
(382.682 129.816 6.06496e-17)
(362.436 102.26 7.83218e-21)
(345.85 84.2255 3.84819e-17)
(332.908 71.3787 8.72949e-17)
(323.051 61.897 -4.86889e-17)
(315.305 54.5634 5.38717e-17)
(309.206 48.6513 -2.93289e-21)
(304.444 43.834 6.56565e-17)
(300.207 39.668 4.36071e-21)
(296.862 36.1371 -4.75929e-21)
(293.291 32.9309 5.07254e-21)
(290.36 30.1153 -1.12132e-20)
(287.237 27.5642 1.39039e-20)
(284.525 25.2218 8.72204e-23)
(282.143 23.1221 1.00484e-16)
(279.767 21.1467 -1.01093e-16)
(277.877 19.3563 6.40481e-21)
(275.745 17.6614 -1.04212e-16)
(273.942 16.0753 6.56056e-21)
(272.018 14.5907 1.07578e-16)
(270.116 13.1718 -9.08323e-22)
(268.304 11.8389 -1.42721e-20)
(266.352 10.5603 -2.1646e-16)
(264.585 9.34907 1.1104e-16)
(262.658 8.19534 3.33398e-21)
(260.836 7.09135 -3.35575e-21)
(258.944 6.03623 0)
(257.072 5.0303 -3.34123e-21)
(255.195 4.06057 5.4361e-17)
(253.288 3.1398 -5.38572e-17)
(251.407 2.24721 2.6932e-17)
(249.45 1.40426 0)
(247.535 0.58595 0)
(245.523 -0.186485 0)
(243.541 -0.936761 -3.18954e-21)
(241.462 -1.64238 -2.56019e-17)
(239.388 -2.32903 3.09807e-21)
(237.247 -2.96915 -3.06486e-21)
(234.97 -3.59795 -1.80028e-22)
(235.16 -4.16285 7.39936e-21)
(234.413 -4.64451 1.23313e-16)
(233.242 -5.08044 1.24337e-16)
(232.011 -5.5046 -1.26026e-16)
(230.743 -5.89887 -3.86607e-21)
(229.499 -6.27163 -1.28415e-16)
(228.253 -6.63179 3.94195e-21)
(227.024 -6.96228 0)
(225.804 -7.29137 0)
(224.598 -7.58687 0)
(223.407 -7.88626 -2.67188e-16)
(222.225 -8.15505 2.69216e-16)
(221.051 -8.42818 5.41329e-16)
(219.892 -8.67399 0)
(218.733 -8.92197 -1.93267e-21)
(217.601 -9.14923 -2.7654e-16)
(216.456 -9.37487 2.76575e-16)
(215.352 -9.59173 -2.79802e-16)
(214.227 -9.80332 -2.79278e-16)
(213.144 -10.0343 2.82659e-16)
(211.956 -10.2776 0)
(210.768 -10.5041 0)
(209.513 -10.7347 0)
(208.247 -10.9481 -2.87559e-16)
(206.942 -11.1671 -1.10125e-21)
(205.563 -11.3676 -2.89488e-16)
(204.213 -11.5743 -2.94739e-16)
(202.688 -11.7666 -2.91257e-16)
(201.164 -11.9549 -2.96197e-16)
(199.579 -12.1448 0)
(197.804 -12.3159 0)
(195.969 -12.4839 -6.04511e-16)
(194.02 -12.6453 -1.16965e-21)
(191.858 -12.7934 5.87471e-22)
(189.468 -12.9222 0)
(186.708 -13.0282 6.29209e-16)
(184.077 -13.1341 -6.11133e-22)
(179.27 -13.1032 -6.44892e-16)
(182.094 -13.3479 6.58468e-16)
(94.4934 -7.98669 -2.04651e-14)
(278.507 411.445 1.42995e-17)
(421.523 327.579 6.7681e-17)
(447.586 184.067 2.0269e-22)
(393.887 133.835 -5.3276e-17)
(372.292 105.172 3.05363e-17)
(355.407 86.6442 -3.42399e-17)
(342.209 73.4398 -7.20112e-21)
(332.182 63.6972 4.35722e-17)
(324.361 56.1703 4.82359e-17)
(318.26 50.1075 -1.06252e-16)
(313.534 45.1687 -5.88348e-17)
(309.439 40.9095 0)
(306.181 37.2901 4.35591e-21)
(302.864 34.0223 -4.44145e-21)
(300.039 31.1341 8.24049e-17)
(297.096 28.5238 8.40436e-17)
(294.424 26.1112 8.84592e-17)
(292.06 23.9454 9.10451e-17)
(289.715 21.908 0)
(287.783 20.0549 9.61875e-17)
(285.69 18.3061 1.45237e-21)
(283.853 16.664 0)
(281.949 15.13 -9.85679e-17)
(280.051 13.6625 -9.94445e-17)
(278.237 12.2831 -1.00923e-16)
(276.309 10.9606 9.95856e-17)
(274.53 9.70564 6.26745e-21)
(272.63 8.51143 -6.101e-21)
(270.804 7.36705 0)
(268.929 6.27345 5.03912e-17)
(267.064 5.23007 6.17603e-21)
(265.196 4.22379 -5.02777e-17)
(263.302 3.26783 9.96703e-17)
(261.423 2.34052 -4.98659e-17)
(259.483 1.46438 -2.45751e-17)
(257.57 0.61324 -5.98771e-21)
(255.577 -0.190682 0)
(253.601 -0.972094 0)
(251.541 -1.70764 2.3749e-17)
(249.475 -2.42395 0)
(247.355 -3.09243 -4.64807e-17)
(245.096 -3.75101 -1.71501e-22)
(244.957 -4.33512 0)
(244.175 -4.83602 -1.14676e-16)
(242.995 -5.29069 -2.31414e-16)
(241.745 -5.73328 -3.58751e-21)
(240.458 -6.14499 -1.18198e-16)
(239.192 -6.53431 2.39191e-16)
(237.925 -6.91063 -1.20578e-16)
(236.674 -7.25608 1.21673e-16)
(235.432 -7.60014 -3.73705e-21)
(234.203 -7.90924 -3.78023e-21)
(232.988 -8.22243 1.24573e-16)
(231.782 -8.50375 -2.51081e-16)
(230.585 -8.78965 -2.52469e-16)
(229.401 -9.04708 0)
(228.218 -9.30687 2.55457e-16)
(227.057 -9.54483 -3.94476e-21)
(225.889 -9.78146 -2.58189e-16)
(224.753 -10.0085 2.61213e-16)
(223.604 -10.2305 2.60771e-16)
(222.49 -10.4723 -5.27921e-16)
(221.276 -10.7275 -4.01811e-21)
(220.05 -10.9646 2.02926e-21)
(218.763 -11.2066 -2.03582e-21)
(217.457 -11.4301 2.6864e-16)
(216.113 -11.6598 -2.70213e-16)
(214.694 -11.8703 0)
(213.291 -12.0864 0)
(211.728 -12.2889 0)
(210.148 -12.4863 -2.76805e-16)
(208.505 -12.6852 -1.06906e-21)
(206.678 -12.8655 1.05904e-21)
(204.775 -13.0418 -5.64894e-16)
(202.753 -13.2112 0)
(200.514 -13.367 5.51515e-22)
(198.045 -13.5032 5.78561e-16)
(195.183 -13.6153 4.38126e-22)
(192.452 -13.7259 0)
(187.478 -13.7013 -2.88035e-22)
(190.371 -13.9001 2.92459e-22)
(108.594 -9.2534 -8.58278e-15)
(281.448 416.369 -1.25269e-17)
(431.9 336.475 6.28009e-17)
(459.191 189.42 -1.79483e-17)
(404.183 137.604 9.7645e-17)
(381.386 107.905 -1.81079e-21)
(364.204 88.9012 3.16413e-17)
(350.786 75.3628 -3.60668e-17)
(340.605 65.3749 -2.51743e-21)
(332.709 57.6645 -4.46043e-17)
(326.594 51.4581 4.90708e-17)
(321.891 46.4041 5.42721e-17)
(317.901 42.0543 0)
(314.717 38.3522 -8.01322e-21)
(311.602 35.0237 -6.74419e-17)
(308.889 32.0703 -7.56915e-17)
(306.12 29.4062 9.3539e-21)
(303.517 26.932 -8.15904e-17)
(301.193 24.7071 -8.42038e-17)
(298.894 22.6135 -2.07716e-20)
(296.947 20.7038 8.99355e-21)
(294.897 18.9055 1.58619e-21)
(293.048 17.2125 9.21186e-17)
(291.168 15.6329 0)
(289.285 14.1206 9.29041e-17)
(287.479 12.6983 0)
(285.58 11.335 1.14272e-20)
(283.798 10.0396 -1.16556e-20)
(281.926 8.80765 0)
(280.106 7.62579 0)
(278.248 6.49628 -9.46509e-17)
(276.395 5.41797 -5.76378e-21)
(274.539 4.37755 0)
(272.658 3.3887 -4.68748e-17)
(270.786 2.42893 2.34531e-17)
(268.862 1.52172 5.72012e-21)
(266.955 0.639862 0)
(264.979 -0.193539 -5.58146e-21)
(263.011 -1.00411 1.13889e-17)
(260.969 -1.76768 -2.2393e-17)
(258.915 -2.51179 5.42066e-21)
(256.814 -3.20681 4.38393e-17)
(254.573 -3.89342 -8.67049e-17)
(254.156 -4.49623 5.3122e-17)
(253.333 -5.01507 6.62489e-21)
(252.147 -5.48726 2.18668e-16)
(250.881 -5.94719 0)
(249.578 -6.37532 1.1176e-16)
(248.294 -6.78025 -7.07489e-21)
(247.008 -7.17178 1.14057e-16)
(245.738 -7.53135 -1.15105e-16)
(244.477 -7.8895 0)
(243.227 -8.21144 0)
(241.992 -8.53763 3.60505e-21)
(240.765 -8.83078 -3.62032e-21)
(239.545 -9.12874 3.65425e-21)
(238.339 -9.3971 1.29138e-23)
(237.134 -9.66803 -2.41966e-16)
(235.947 -9.91614 -2.44475e-16)
(234.758 -10.1631 -2.44609e-16)
(233.594 -10.3999 -2.475e-16)
(232.423 -10.6317 0)
(231.28 -10.8837 2.50157e-16)
(230.042 -11.1499 0)
(228.782 -11.3972 0)
(227.465 -11.6497 0)
(226.123 -11.8829 -2.54655e-16)
(224.743 -12.1226 2.56168e-16)
(223.288 -12.3425 -3.91336e-21)
(221.837 -12.5677 2.61077e-16)
(220.238 -12.7797 -2.58053e-16)
(218.607 -12.9857 2.62425e-16)
(216.91 -13.1932 8.14901e-24)
(215.035 -13.3821 -2.00794e-21)
(213.07 -13.5663 5.35457e-16)
(210.98 -13.7431 0)
(208.67 -13.9062 -5.46635e-16)
(206.128 -14.0493 -5.48182e-16)
(203.172 -14.1673 -1.05061e-22)
(200.35 -14.282 0)
(195.224 -14.2652 0)
(198.155 -14.4071 1.39384e-22)
(121.229 -10.4352 7.1371e-15)
(283.239 419.673 0)
(440.679 344.318 3.33561e-19)
(469.895 194.554 1.68945e-17)
(413.972 141.272 -4.60225e-17)
(390.062 110.564 -1.54287e-21)
(372.567 91.0816 -2.99913e-17)
(358.942 77.2167 -4.02854e-21)
(348.609 66.9881 0)
(340.625 59.0962 0)
(334.476 52.7473 -4.62949e-17)
(329.775 47.5791 -5.11301e-17)
(325.856 43.1384 6.57251e-21)
(322.729 39.3557 -6.09277e-17)
(319.769 35.9653 1.26093e-16)
(317.162 32.9504 0)
(314.549 30.2353 8.88399e-21)
(312.032 27.7048 1.3622e-22)
(309.761 25.4254 -1.92847e-20)
(307.515 23.2797 9.70133e-21)
(305.571 21.3177 -8.41385e-17)
(303.566 19.4729 8.34375e-17)
(301.721 17.7325 -8.69838e-17)
(299.868 16.1099 0)
(298.007 14.5555 -8.79048e-17)
(296.214 13.0927 -1.0866e-20)
(294.345 11.691 -1.08328e-20)
(292.569 10.3576 1.10587e-20)
(290.725 9.08979 4.46722e-17)
(288.915 7.8725 -4.5421e-17)
(287.077 6.70897 2.43123e-22)
(285.237 5.59756 1.09634e-20)
(283.394 4.52474 1.1017e-20)
(281.528 3.50468 -1.08576e-20)
(279.665 2.51411 0)
(277.757 1.57741 2.20452e-17)
(275.858 0.666378 5.53065e-18)
(273.898 -0.195024 6.49177e-23)
(271.938 -1.03329 -1.08639e-17)
(269.915 -1.82348 0)
(267.871 -2.594 0)
(265.789 -3.3142 0)
(263.568 -4.02756 0)
(262.911 -4.64876 -6.32557e-21)
(262.042 -5.18458 1.03417e-16)
(260.849 -5.67336 -2.12912e-22)
(259.57 -6.14981 -6.4816e-21)
(258.254 -6.59358 6.50678e-21)
(256.953 -7.01341 -1.71381e-22)
(255.651 -7.41946 -1.09063e-16)
(254.364 -7.79248 -1.10096e-16)
(253.085 -8.1641 6.76526e-21)
(251.817 -8.49828 0)
(250.562 -8.8369 -6.899e-21)
(249.316 -9.14135 -2.27459e-16)
(248.077 -9.45081 2.48676e-23)
(246.849 -9.72961 -7.03296e-21)
(245.624 -10.0112 4.63267e-16)
(244.414 -10.269 -6.96984e-21)
(243.204 -10.5258 2.34229e-16)
(242.015 -10.7718 2.37011e-16)
(240.823 -11.013 3.61714e-21)
(239.654 -11.2748 1.19192e-23)
(238.392 -11.5516 -3.6419e-21)
(237.102 -11.8085 0)
(235.757 -12.0712 2.41883e-16)
(234.382 -12.3136 2.43949e-16)
(232.967 -12.5628 0)
(231.477 -12.7917 3.75581e-21)
(229.983 -13.0255 -2.5009e-16)
(228.35 -13.2465 4.94424e-16)
(226.672 -13.4608 -2.51379e-16)
(224.925 -13.6764 -7.80545e-24)
(223.004 -13.8735 3.85469e-21)
(220.98 -14.0652 8.58961e-24)
(218.828 -14.2492 5.19963e-16)
(216.452 -14.4192 1.04664e-15)
(213.841 -14.5688 0)
(210.799 -14.6925 -5.32498e-16)
(207.891 -14.8107 0)
(202.627 -14.8033 -5.203e-22)
(205.561 -14.8758 7.98964e-22)
(133.045 -11.5852 6.00059e-15)
(284.17 421.782 -7.1593e-22)
(448.012 351.249 -5.49273e-17)
(479.922 199.591 1.64154e-17)
(423.499 144.938 0)
(398.536 113.22 -3.32293e-21)
(380.707 93.2427 2.89898e-17)
(366.874 79.048 3.30137e-17)
(356.379 68.5759 0)
(348.289 60.4994 -1.00843e-20)
(342.083 54.005 4.43922e-17)
(337.361 48.7205 0)
(333.478 44.1862 -5.20087e-17)
(330.386 40.3224 5.7929e-17)
(327.541 36.8679 -5.97421e-17)
(325.024 33.7928 0)
(322.549 31.0274 0)
(320.123 28.444 -7.23836e-17)
(317.911 26.1132 7.49429e-17)
(315.724 23.9179 7.59739e-17)
(313.794 21.9066 8.00174e-17)
(311.835 20.0173 0)
(310.002 18.2321 8.28922e-17)
(308.178 16.5683 -1.95616e-22)
(306.343 14.9738 -8.39188e-17)
(304.568 13.4724 8.54437e-17)
(302.73 12.0338 8.45602e-17)
(300.964 10.6641 8.70501e-17)
(299.147 9.36191 -4.28191e-17)
(297.351 8.11073 4.35521e-17)
(295.533 6.91454 -2.07803e-20)
(293.708 5.77139 4.32555e-17)
(291.88 4.66748 -1.05734e-20)
(290.028 3.61747 -6.93872e-23)
(288.176 2.59733 -2.14502e-17)
(286.283 1.63229 0)
(284.392 0.693258 -5.2946e-18)
(282.449 -0.195031 -2.63129e-18)
(280.498 -1.05989 1.04367e-17)
(278.492 -1.87563 9.99754e-21)
(276.46 -2.67152 0)
(274.395 -3.41587 4.02464e-17)
(272.194 -4.15498 9.69486e-21)
(271.329 -4.79443 -4.8764e-17)
(270.408 -5.34653 -9.95481e-17)
(269.207 -5.85116 -1.00596e-16)
(267.919 -6.34348 0)
(266.59 -6.80229 -1.2592e-20)
(265.274 -7.23646 -2.08422e-16)
(263.957 -7.65649 -1.26842e-20)
(262.655 -8.04249 1.06146e-16)
(261.358 -8.42707 0)
(260.073 -8.77307 0)
(258.801 -9.12364 1.08812e-16)
(257.537 -9.43898 2.19407e-16)
(256.279 -9.75953 -2.20719e-16)
(255.031 -10.0484 6.78494e-21)
(253.787 -10.3402 -4.46986e-16)
(252.555 -10.6074 7.0781e-21)
(251.326 -10.8737 -2.26035e-16)
(250.113 -11.1287 -6.99166e-21)
(248.901 -11.3789 2.28427e-16)
(247.707 -11.65 7.04621e-21)
(246.424 -11.937 7.05481e-21)
(245.105 -12.2031 2.33507e-16)
(243.734 -12.4755 -2.33508e-16)
(242.327 -12.7269 -7.10856e-23)
(240.88 -12.9852 -2.36894e-16)
(239.357 -13.2228 0)
(237.822 -13.465 0)
(236.156 -13.6946 -2.38637e-16)
(234.433 -13.9168 2.42629e-16)
(232.639 -14.1402 -3.73228e-21)
(230.675 -14.3452 0)
(228.597 -14.5441 0)
(226.386 -14.7349 -5.016e-16)
(223.947 -14.9115 -5.04738e-16)
(221.272 -15.0673 1.92516e-21)
(218.149 -15.1966 9.81902e-22)
(215.161 -15.3176 5.22273e-16)
(209.774 -15.3218 0)
(212.666 -15.3108 5.40573e-16)
(144.488 -12.741 -5.15438e-15)
(284.455 423.009 2.32557e-17)
(454.017 357.39 -5.2377e-17)
(489.382 204.61 -1.59541e-17)
(432.917 148.674 -1.72619e-21)
(406.957 115.927 0)
(388.767 95.4279 2.83763e-17)
(374.715 80.8915 -3.23027e-17)
(364.047 70.1678 0)
(355.829 61.8996 0)
(349.541 55.2536 0)
(344.773 49.8484 -4.72548e-17)
(340.893 45.216 5.01194e-17)
(337.813 41.2687 -5.56472e-17)
(335.044 37.747 -1.40985e-20)
(332.598 34.6111 1.54733e-20)
(330.238 31.7949 0)
(327.9 29.1602 6.91524e-17)
(325.75 26.7797 -7.16576e-17)
(323.623 24.5367 -1.45378e-16)
(321.715 22.4781 -2.36236e-21)
(319.802 20.5456 -3.71834e-20)
(317.987 18.7173 -7.95558e-17)
(316.193 17.0137 7.96863e-17)
(314.385 15.3804 8.07155e-17)
(312.63 13.8417 -8.22227e-17)
(310.823 12.3675 -8.13703e-17)
(309.072 10.9626 -8.39009e-17)
(307.281 9.62709 -4.12329e-17)
(305.501 8.34314 1.5109e-22)
(303.702 7.11531 4.15852e-17)
(301.894 5.94141 -4.17171e-17)
(300.08 4.8074 0)
(298.244 3.72836 -4.13938e-17)
(296.403 2.67959 1.30396e-22)
(294.524 1.6871 -2.04774e-17)
(292.643 0.720945 -5.15052e-18)
(290.714 -0.193387 1.9683e-20)
(288.773 -1.084 -1.98268e-20)
(286.782 -1.92447 1.93543e-20)
(284.762 -2.74493 -3.9556e-17)
(282.713 -3.51264 -3.9025e-17)
(280.533 -4.27672 1.87821e-20)
(279.487 -4.93438 -4.71942e-17)
(278.51 -5.50226 -9.63561e-17)
(277.299 -6.02215 -9.74621e-17)
(276.001 -6.5298 -1.20509e-20)
(274.66 -7.0032 -9.97767e-17)
(273.332 -7.45129 1.01028e-16)
(272 -7.88488 1.01925e-16)
(270.683 -8.28347 0)
(269.371 -8.68063 0)
(268.07 -9.03809 0)
(266.781 -9.40028 -1.05549e-16)
(265.499 -9.72619 0)
(264.224 -10.0575 2.14136e-16)
(262.957 -10.3561 0)
(261.694 -10.6579 2.16869e-16)
(260.442 -10.9342 2.10384e-22)
(259.194 -11.2097 1.77228e-22)
(257.958 -11.4734 -2.22009e-16)
(256.727 -11.7323 -2.21723e-16)
(255.51 -12.0125 6.83984e-21)
(254.206 -12.3092 -2.24041e-16)
(252.86 -12.5844 -4.53355e-16)
(251.463 -12.8662 -6.92991e-21)
(250.026 -13.1262 -4.57217e-16)
(248.548 -13.3933 2.29965e-16)
(246.995 -13.6393 -2.30231e-16)
(245.421 -13.8896 -2.34313e-16)
(243.723 -14.1275 0)
(241.958 -14.3574 0)
(240.12 -14.5884 0)
(238.114 -14.8009 0)
(235.985 -15.0068 3.6705e-21)
(233.718 -15.2043 -7.42419e-21)
(231.221 -15.3872 3.72541e-21)
(228.485 -15.5488 0)
(225.286 -15.6836 -4.97346e-16)
(222.223 -15.8068 -5.05934e-16)
(216.726 -15.8248 -5.05344e-16)
(219.522 -15.7153 -5.24223e-16)
(155.832 -13.9266 4.5254e-15)
(284.256 423.585 -2.13486e-17)
(458.814 362.863 4.93121e-17)
(498.319 209.669 0)
(442.329 152.536 4.21627e-17)
(415.432 118.733 -2.51145e-17)
(396.854 97.6736 -2.80658e-17)
(382.568 82.7766 3.18605e-17)
(371.709 71.7884 -3.53537e-17)
(363.343 63.3179 0)
(356.946 56.5118 -4.20938e-17)
(352.104 50.979 3.10796e-20)
(348.197 46.2427 -2.34398e-20)
(345.102 42.2081 5.38936e-17)
(342.376 38.6149 5.52196e-17)
(339.979 35.4163 6.15367e-17)
(337.709 32.5475 -4.94409e-22)
(335.451 29.862 3.21959e-20)
(333.361 27.4327 3.38461e-20)
(331.292 25.1427 6.99136e-17)
(329.41 23.0381 -1.47605e-16)
(327.54 21.0632 -7.33959e-17)
(325.747 19.1929 -7.67396e-17)
(323.983 17.4504 -7.68702e-17)
(322.204 15.7792 -3.78845e-20)
(320.47 14.2042 0)
(318.693 12.695 0)