/*--------------------------------*- C++ -*----------------------------------*\
| =========                 |                                                 |
| \\      /  F ield         | OpenFOAM: The Open Source CFD Toolbox           |
|  \\    /   O peration     | Version:  5.x                                   |
|   \\  /    A nd           | Web:      www.OpenFOAM.org                      |
|    \\/     M anipulation  |                                                 |
\*---------------------------------------------------------------------------*/
FoamFile
{
    version     2.0;
    format      ascii;
    class       volVectorField;
    location    "400";
    object      U;
}
// * * * * * * * * * * * * * * * * * * * * * * * * * * * * * * * * * * * * * //

dimensions      [0 1 -1 0 0 0 0];

internalField   nonuniform List<vector> 
11040
(
(1.69254 2.17293 0)
(1.84352 7.87746 -1.06739e-19)
(4.31673 12.8164 1.10318e-17)
(7.65341 15.6202 1.43639e-17)
(11.1752 16.8329 3.8316e-17)
(14.4231 16.8691 -2.11927e-17)
(17.2029 16.0943 -2.21569e-17)
(19.4779 14.8117 2.35324e-17)
(21.1769 13.1545 5.63518e-17)
(22.2194 11.1903 1.8375e-18)
(22.3449 8.80028 3.13473e-17)
(21.8408 6.53735 -1.97725e-18)
(21.3674 4.92598 3.26468e-17)
(21.2339 3.91359 3.44818e-17)
(21.1247 3.05619 3.04388e-17)
(20.8562 2.241 2.02057e-17)
(20.445 1.49593 -1.81442e-17)
(19.9579 0.831965 -1.96826e-18)
(19.426 0.241016 1.9953e-18)
(18.8613 -0.283539 1.54881e-17)
(18.2634 -0.743893 1.51791e-17)
(17.7267 -1.11102 1.5841e-17)
(17.2402 -1.38695 3.0517e-17)
(16.7589 -1.61899 1.96766e-18)
(16.2823 -1.81542 -2.55131e-20)
(15.8113 -1.98075 -9.81265e-19)
(15.3447 -2.11908 6.10221e-17)
(14.88 -2.23375 -9.32546e-19)
(14.4144 -2.32736 6.09156e-17)
(13.9443 -2.40192 -5.85298e-17)
(13.4651 -2.45887 -9.34305e-19)
(12.9706 -2.49899 -4.49788e-19)
(12.4531 -2.52215 4.60574e-19)
(11.9027 -2.52717 0)
(11.3027 -2.5116 -1.14719e-16)
(10.6355 -2.47109 0)
(9.87032 -2.39622 0)
(8.98154 -2.27806 2.21051e-19)
(7.82719 -2.0773 -5.935e-21)
(6.54641 -1.78788 1.26351e-16)
(3.83129 -1.41512 2.95511e-16)
(2.82495 2.94183 0)
(3.32884 7.3698 0)
(6.15932 11.129 -6.64156e-18)
(9.62247 13.3101 8.83782e-18)
(13.1593 14.242 -2.32481e-17)
(16.3941 14.228 2.82831e-17)
(19.1518 13.5401 1.47889e-17)
(21.3802 12.3938 2.12302e-18)
(23.1401 10.9887 -1.00718e-18)
(24.5174 9.48839 2.2283e-17)
(25.4339 7.77571 -2.49725e-18)
(25.5276 6.18086 0)
(25.0724 4.98287 0)
(24.5627 4.07277 -2.08872e-17)
(24.1698 3.14802 -2.35914e-17)
(23.7305 2.26749 -1.84092e-17)
(23.2261 1.48462 0)
(22.6802 0.788651 1.27516e-18)
(22.0966 0.165333 -3.80978e-18)
(21.474 -0.389005 -2.49465e-18)
(20.8121 -0.876183 -1.09396e-17)
(20.1976 -1.26224 -1.02745e-17)
(19.6532 -1.55507 -1.25717e-18)
(19.1198 -1.80442 2.14863e-17)
(18.5956 -2.01753 -1.87533e-17)
(18.0795 -2.19788 -1.2679e-18)
(17.571 -2.34996 -3.91196e-17)
(17.0684 -2.47721 5.9628e-19)
(16.5691 -2.58232 -3.88068e-17)
(16.0703 -2.66747 3.77017e-17)
(15.5682 -2.73426 3.77566e-17)
(15.0579 -2.78365 -3.7801e-17)
(14.533 -2.81562 1.78743e-20)
(13.9856 -2.82904 8.37462e-19)
(13.4028 -2.82203 3.45986e-17)
(12.7711 -2.79003 0)
(12.0648 -2.72353 2.57132e-19)
(11.2714 -2.61489 -6.60426e-17)
(10.2552 -2.42193 -6.45136e-17)
(9.20395 -2.15928 -6.30854e-17)
(6.76033 -1.59968 -2.0604e-16)
(4.45698 3.38675 0)
(5.17739 6.91996 0)
(7.26907 10.0571 1.98928e-18)
(9.92989 12.1603 -5.84631e-18)
(12.7919 13.3506 6.81299e-18)
(15.5924 13.7302 -1.00497e-17)
(18.1473 13.4366 -9.59752e-18)
(20.3527 12.6245 0)
(22.1557 11.4368 -1.81619e-17)
(23.5741 9.98511 -1.15672e-17)
(24.5942 8.27366 0)
(25.0359 6.68267 0)
(25.0321 5.44241 -1.56745e-17)
(24.8996 4.45624 -1.58498e-17)
(24.7524 3.47958 -1.98853e-18)
(24.498 2.5609 2.02912e-18)
(24.1315 1.736 0)
(23.693 0.993951 0)
(23.1996 0.323752 9.90493e-19)
(22.6534 -0.277013 -1.91264e-18)
(22.0553 -0.809264 1.92402e-18)
(21.4866 -1.2323 -6.02734e-18)
(20.9714 -1.55784 -5.04439e-20)
(20.4588 -1.8373 1.27492e-17)
(19.9491 -2.07728 1.00835e-18)
(19.4424 -2.28171 9.2649e-19)
(18.9387 -2.45529 8.24313e-21)
(18.4372 -2.60168 -9.45913e-19)
(17.936 -2.72376 0)
(17.4328 -2.82381 0)
(16.9242 -2.90352 -5.69552e-17)
(16.4058 -2.96388 5.55359e-17)
(15.8718 -3.00493 -2.70354e-17)
(15.3153 -3.02555 0)
(14.7241 -3.02358 -2.63242e-17)
(14.0872 -2.99429 -2.57379e-17)
(13.3823 -2.92844 0)
(12.6034 -2.81539 -2.56531e-19)
(11.6326 -2.62092 1.88738e-19)
(10.6823 -2.32591 0)
(8.65134 -1.82118 9.13159e-17)
(6.11498 3.68486 -1.04266e-19)
(6.86005 6.52298 1.242e-19)
(8.45388 9.09359 1.51785e-18)
(10.5796 10.9639 0)
(12.9821 12.1539 -1.04654e-17)
(15.4455 12.6665 0)
(17.7919 12.5647 2.18339e-17)
(19.8912 11.9587 -2.4587e-19)
(21.6582 10.9685 2.50152e-18)
(23.0607 9.71644 1.91178e-17)
(24.0655 8.22468 2.81388e-18)
(24.5785 6.74032 8.74391e-18)
(24.7042 5.50754 2.752e-17)
(24.6957 4.52101 1.24873e-17)
(24.6654 3.5868 0)
(24.5421 2.6947 -3.10983e-18)
(24.3018 1.87504 6.03342e-20)
(23.9763 1.1284 -3.0648e-18)
(23.5869 0.447769 -1.52898e-18)
(23.139 -0.16848 1.54848e-18)
(22.6345 -0.719735 5.99719e-18)
(22.1442 -1.16338 6.38989e-18)
(21.6907 -1.50846 0)
(21.2313 -1.8068 -2.66482e-17)
(20.7672 -2.06487 1.40008e-17)
(20.2998 -2.28679 -1.2285e-17)
(19.83 -2.47691 2.42444e-17)
(19.358 -2.63877 0)
(18.8825 -2.77519 0)
(18.4017 -2.88838 0)
(17.9128 -2.98 2.26765e-17)
(17.4122 -3.05099 -2.29289e-17)
(16.895 -3.10135 6.97079e-19)
(16.3549 -3.12987 2.19704e-17)
(15.7811 -3.1342 2.01186e-17)
(15.1639 -3.10927 2.056e-17)
(14.484 -3.0462 3.93977e-17)
(13.7378 -2.9314 3.74946e-17)
(12.8224 -2.73982 1.46641e-19)
(11.9366 -2.41832 3.44508e-17)
(10.222 -1.96362 -3.39896e-17)
(7.67298 3.85455 0)
(8.39802 6.13138 -5.41607e-19)
(9.64579 8.20393 -1.21225e-18)
(11.3101 9.82829 2.0979e-19)
(13.2641 10.9826 7.40508e-18)
(15.354 11.6098 -9.74537e-18)
(17.4352 11.7105 -8.31035e-19)
(19.377 11.3388 -1.35176e-17)
(21.0732 10.5799 0)
(22.4709 9.53197 -1.79417e-17)
(23.5299 8.22705 0)
(24.1557 6.85321 -4.80562e-18)
(24.397 5.64393 -1.45676e-17)
(24.4586 4.64702 0)
(24.4722 3.72296 9.79005e-18)
(24.4079 2.83769 0)
(24.2373 2.01745 0)
(23.9813 1.26818 2.53196e-18)
(23.6604 0.58284 2.49381e-18)
(23.2817 -0.0413157 0)
(22.8475 -0.60318 -4.83055e-18)
(22.4203 -1.05888 0)
(22.0218 -1.41601 0)
(21.6155 -1.72683 1.01689e-17)
(21.2027 -1.99765 0)
(20.7842 -2.23259 -9.98418e-18)
(20.3607 -2.43565 -1.97504e-17)
(19.9317 -2.61021 0)
(19.4965 -2.7589 0)
(19.0536 -2.88377 0)
(18.6008 -2.9863 -1.96961e-17)
(18.1352 -3.06727 -1.64754e-17)
(17.6527 -3.12661 1.72479e-17)
(17.1478 -3.16296 5.34029e-19)
(16.6112 -3.17379 -5.38365e-19)
(16.0351 -3.15371 0)
(15.4029 -3.09413 -3.18938e-17)
(14.7139 -2.97904 3.072e-17)
(13.8809 -2.79085 -2.94998e-17)
(13.0808 -2.45612 -2.73914e-17)
(11.6483 -2.02987 -5.38363e-20)
(9.1125 3.91549 2.0145e-19)
(9.78743 5.73654 2.82831e-19)
(10.7824 7.39414 -1.74416e-18)
(12.0784 8.77052 1.15119e-18)
(13.6402 9.83692 -1.74539e-18)
(15.3713 10.5143 9.75104e-18)
(17.1678 10.7663 -1.20065e-17)
(18.9163 10.6015 1.07944e-17)
(20.5058 10.0674 6.07219e-18)
(21.8672 9.23854 -3.27832e-18)
(22.9574 8.15288 0)
(23.6895 6.93791 0)
(24.0593 5.78809 3.84007e-18)
(24.2076 4.78981 -3.95181e-18)
(24.2656 3.87053 -1.59023e-17)
(24.2428 2.99348 3.99015e-18)
(24.1192 2.17503 -8.04875e-18)
(23.9087 1.42386 5.9658e-20)
(23.6313 0.734797 -3.95454e-18)
(23.2964 0.104654 7.92539e-18)
(22.9071 -0.465016 -9.78681e-18)
(22.5205 -0.929333 4.15207e-18)
(22.1579 -1.29493 -2.09481e-18)
(21.7876 -1.61433 -2.03831e-18)
(21.4111 -1.89376 1.02707e-17)
(21.0293 -2.13753 2.74996e-20)
(20.643 -2.34954 1.81805e-17)
(20.2517 -2.53304 1.39437e-17)
(19.8546 -2.69054 0)
(19.4503 -2.82399 0)
(19.0366 -2.93474 1.43823e-17)
(18.6106 -3.02351 3.10076e-17)
(18.1689 -3.09006 9.05576e-19)
(17.7068 -3.1329 -1.44042e-17)
(17.2167 -3.14929 -1.48758e-17)
(16.6926 -3.1336 1.40042e-17)
(16.1214 -3.07778 -4.18843e-19)
(15.5052 -2.96436 -5.04014e-17)
(14.7737 -2.78179 4.82284e-17)
(14.0808 -2.44818 -8.61395e-20)
(12.928 -2.0499 -2.18119e-17)
(10.4218 3.88736 0)
(11.032 5.34032 8.72703e-19)
(11.8378 6.66057 3.04011e-18)
(12.8502 7.80245 1.20799e-18)
(14.0829 8.74774 5.1784e-18)
(15.4853 9.42066 6.05798e-18)
(16.9924 9.77035 -1.08806e-17)
(18.5188 9.77605 3.91615e-18)
(19.9647 9.45129 0)
(21.2561 8.84145 5.47085e-18)
(22.3474 7.97942 -1.1242e-17)
(23.1592 6.94856 1.1714e-17)
(23.6517 5.89724 -5.64155e-20)
(23.9032 4.92748 0)
(24.0244 4.0242 3.30775e-18)
(24.0507 3.16258 2.03842e-20)
(23.9753 2.35054 3.29878e-18)
(23.808 1.59899 3.31174e-18)
(23.5683 0.90697 -1.62756e-18)
(23.2682 0.27191 -2.81039e-18)
(22.9126 -0.304322 3.30713e-18)
(22.5552 -0.775956 3.43555e-18)
(22.2172 -1.14887 0)
(21.8706 -1.47552 -3.33717e-18)
(21.5175 -1.76193 -6.654e-18)
(21.1593 -2.01249 8.41617e-18)
(20.7969 -2.23094 -4.92928e-18)
(20.4305 -2.42048 -1.31242e-17)
(20.0596 -2.58368 1.59846e-18)
(19.6829 -2.72251 -4.28606e-20)
(19.2988 -2.83833 9.43879e-18)
(18.905 -2.93176 3.08131e-18)
(18.4983 -3.00247 1.0609e-17)
(18.075 -3.04891 0)
(17.6287 -3.06831 1.15756e-17)
(17.1555 -3.05505 -1.19305e-17)
(16.6453 -3.0017 1.12625e-17)
(16.1033 -2.89057 4.17625e-17)
(15.477 -2.71469 -1.95624e-17)
(14.8932 -2.39482 -7.16143e-20)
(14.0094 -2.02604 3.58994e-17)
(11.5956 3.79038 -1.1311e-18)
(12.1371 4.94753 3.48203e-19)
(12.7984 5.99647 1.21608e-19)
(13.5967 6.92794 -3.92029e-18)
(14.5647 7.73708 -2.33125e-18)
(15.6817 8.36373 -7.7978e-18)
(16.914 8.75844 6.04378e-18)
(18.206 8.88717 1.02232e-17)
(19.4794 8.73959 -7.10131e-18)
(20.6662 8.33405 0)
(21.7214 7.6919 -4.65472e-18)
(22.5748 6.86146 -1.83856e-19)
(23.1667 5.94547 -1.91993e-19)
(23.5238 5.04055 5.04669e-18)
(23.7239 4.17192 5.22737e-18)
(23.8114 3.33624 -5.30541e-18)
(23.7924 2.53922 0)
(23.6756 1.79283 0)
(23.4788 1.10089 6.69221e-18)
(23.2158 0.462795 -5.74901e-18)
(22.8935 -0.118944 2.60072e-18)
(22.5634 -0.597268 -2.86424e-18)
(22.2468 -0.977077 -2.77112e-18)
(21.9197 -1.31045 0)
(21.585 -1.60318 -2.72763e-18)
(21.2443 -1.8597 2.7732e-18)
(20.899 -2.08369 5.44703e-18)
(20.5497 -2.27828 0)
(20.1962 -2.44598 0)
(19.8379 -2.58869 -1.29504e-18)
(19.4736 -2.70767 -1.03218e-17)
(19.1015 -2.80347 -8.8959e-18)
(18.7196 -2.8758 -1.87596e-17)
(18.3249 -2.92323 -1.24268e-18)
(17.9128 -2.94311 0)
(17.4807 -2.92999 5.70863e-19)
(17.0224 -2.87724 -9.57245e-18)
(16.5438 -2.76842 1.09931e-19)
(16.0109 -2.5993 -1.69334e-17)
(15.5194 -2.30297 -1.53996e-17)
(14.8629 -1.96166 -1.49243e-17)
(12.6343 3.64256 6.43935e-19)
(13.1094 4.56305 1.0737e-20)
(13.6579 5.395 -1.52903e-18)
(14.2951 6.14515 3.4569e-18)
(15.0561 6.81859 0)
(15.9367 7.373 4.43395e-18)
(16.9239 7.76854 -9.28416e-18)
(17.9871 7.97054 -5.94568e-18)
(19.0722 7.95658 5.66498e-18)
(20.1252 7.72529 6.79326e-18)
(21.1069 7.28495 4.36339e-19)
(21.9583 6.65702 -1.48824e-17)
(22.6135 5.90305 0)
(23.0627 5.09988 4.10752e-18)
(23.3475 4.29255 -8.43766e-18)
(23.5061 3.49948 -4.2506e-18)
(23.5523 2.73064 -4.36095e-18)
(23.4953 1.99922 4.42546e-18)
(23.3502 1.31363 -2.18898e-18)
(23.1318 0.676592 0)
(22.8487 0.0919554 5.44277e-18)
(22.5494 -0.391545 -9.21392e-18)
(22.2565 -0.777535 6.81568e-18)
(21.9502 -1.11726 -6.98917e-20)
(21.634 -1.41611 -4.47984e-18)
(21.3103 -1.6784 4.55069e-18)
(20.9808 -1.90769 0)
(20.6466 -2.10696 -1.09899e-17)
(20.3079 -2.27866 -4.34517e-18)
(19.9645 -2.42461 -2.18146e-18)
(19.6157 -2.54604 8.47739e-18)
(19.2603 -2.64347 2.05926e-18)
(18.897 -2.71663 -2.07057e-18)
(18.5238 -2.7641 9.89506e-19)
(18.1374 -2.78337 5.89218e-18)
(17.7371 -2.76945 9.72661e-19)
(17.3198 -2.7167 0)
(16.8913 -2.61126 -1.47366e-17)
(16.4335 -2.44974 1.41685e-17)
(16.012 -2.18367 1.30215e-17)
(15.5193 -1.87019 0)
(13.5429 3.45963 0)
(13.9569 4.19145 0)
(14.4156 4.85021 0)
(14.9306 5.44838 -9.25621e-18)
(15.5323 5.99663 6.60452e-18)
(16.2239 6.46775 -3.44756e-18)
(17.0039 6.83341 -4.01143e-18)
(17.8589 7.06509 -3.49491e-19)
(18.7559 7.13798 4.59053e-18)
(19.6576 7.04019 5.41634e-18)
(20.5346 6.76978 -5.57509e-18)
(21.3409 6.32919 6.4042e-18)
(22.0152 5.74736 -2.61021e-19)
(22.5277 5.07528 6.63611e-18)
(22.889 4.35927 -1.36848e-17)
(23.1214 3.63124 1.05811e-17)
(23.2382 2.90843 7.13224e-18)
(23.2483 2.20638 -7.22359e-18)
(23.1642 1.53758 3.62739e-18)
(22.9997 0.908893 0)
(22.7642 0.3264 8.0449e-18)
(22.5026 -0.1591 -5.68073e-18)
(22.2386 -0.549451 -1.84525e-18)
(21.9574 -0.89441 3.70395e-18)
(21.6633 -1.19873 -7.43562e-18)
(21.3594 -1.46641 0)
(21.048 -1.70077 0)
(20.7305 -1.90461 3.68164e-18)
(20.4077 -2.08021 1.79144e-17)
(20.0798 -2.22933 7.03945e-18)
(19.7467 -2.35311 -6.96573e-18)
(19.4077 -2.45208 -1.68767e-18)
(19.0621 -2.52595 8.42761e-18)
(18.7088 -2.57353 1.62304e-18)
(18.3456 -2.59258 -9.65156e-18)
(17.9729 -2.57883 1.59548e-18)
(17.5904 -2.52751 6.13245e-18)
(17.2032 -2.42801 -7.27423e-19)
(16.8044 -2.27701 -1.07793e-17)
(16.437 -2.04476 0)
(16.0496 -1.76429 0)
(14.3294 3.25508 0)
(14.6887 3.83669 0)
(15.0745 4.3573 -1.96138e-20)
(15.4953 4.83051 5.36723e-18)
(15.9751 5.26926 0)
(16.5192 5.65728 6.21728e-18)
(17.1312 5.97616 3.36023e-18)
(17.8076 6.20538 0)
(18.531 6.32345 -8.06357e-18)
(19.2785 6.31551 3.63472e-18)
(20.0315 6.17425 -5.21752e-19)
(20.7578 5.89097 4.83082e-18)
(21.4071 5.47236 -5.43246e-18)
(21.9438 4.94519 0)
(22.3584 4.34511 -1.10311e-17)
(22.6552 3.70604 1.1362e-17)
(22.8406 3.05029 0)
(22.9205 2.39604 0)
(22.9036 1.75896 2.94473e-18)
(22.8011 1.15001 -1.19105e-17)
(22.6219 0.57812 5.87559e-18)
(22.4058 0.0963425 0)
(22.1773 -0.294697 -6.07108e-18)
(21.9273 -0.642303 1.10832e-19)
(21.6609 -0.950336 6.14993e-18)
(21.3817 -1.22222 -2.98954e-18)
(21.0925 -1.46088 0)
(20.7955 -1.66881 0)
(20.492 -1.8481 2.84407e-18)
(20.1828 -2.00034 -1.15425e-17)
(19.868 -2.12662 5.68025e-18)
(19.5479 -2.22743 -5.65145e-18)
(19.2221 -2.30258 -2.78232e-18)
(18.8905 -2.35109 0)
(18.5519 -2.37116 -3.97513e-18)
(18.2074 -2.3594 -3.78357e-20)
(17.8585 -2.31208 -1.13133e-17)
(17.5095 -2.222 0)
(17.1597 -2.08606 9.38543e-18)
(16.8378 -1.88871 -9.21026e-18)
(16.5177 -1.64783 0)
(15.0033 3.04012 0)
(15.314 3.5021 2.57314e-18)
(15.64 3.91252 -2.28407e-18)
(15.9871 4.28433 0)
(16.3731 4.63076 -5.29071e-18)
(16.8035 4.94268 -2.28541e-19)
(17.2832 5.20894 2.30125e-17)
(17.8136 5.41609 -3.03073e-17)
(18.3866 5.54795 1.90334e-17)
(18.9903 5.59122 1.75207e-17)
(19.6147 5.53744 -1.45341e-17)
(20.2398 5.3736 -4.04045e-18)
(20.829 5.09342 8.27694e-18)
(21.35 4.70594 -4.32292e-18)
(21.7845 4.23272 1.39413e-17)
(22.1238 3.70078 -9.2371e-18)
(22.3652 3.13208 -4.65284e-18)
(22.5089 2.54551 -2.36279e-18)
(22.5589 1.95825 -8.46415e-18)
(22.5224 1.38425 1.83206e-17)
(22.4059 0.835145 -9.69677e-18)
(22.2422 0.365863 -3.08517e-19)
(22.0557 -0.0197873 -1.25394e-18)
(21.8433 -0.36542 0)
(21.6106 -0.673722 7.36702e-18)
(21.3618 -0.947273 -2.47509e-18)
(21.1002 -1.1884 -7.22034e-18)
(20.8287 -1.39915 4.85733e-18)
(20.5492 -1.5813 -9.4798e-18)
(20.2629 -1.73625 4.74632e-18)
(19.9707 -1.86497 0)
(19.6732 -1.96794 6.86186e-18)
(19.371 -2.04508 2.26728e-18)
(19.0644 -2.09572 -2.1707e-18)
(18.7533 -2.11857 1.29164e-17)
(18.4393 -2.11121 2.08589e-18)
(18.125 -2.07101 4.09964e-18)
(17.8139 -1.99372 -4.02572e-18)
(17.5081 -1.87714 -3.9235e-18)
(17.2272 -1.71444 7.26598e-18)
(16.9551 -1.51682 2.31939e-19)
(15.5751 2.82369 0)
(15.8431 3.19026 -1.33056e-19)
(16.1192 3.51277 -2.17188e-18)
(16.4074 3.80305 -9.10205e-18)
(16.7208 4.07354 4.29071e-18)
(17.0636 4.31952 -5.09099e-18)
(17.441 4.53457 -5.34935e-18)
(17.8557 4.71049 2.04932e-17)
(18.3051 4.83616 -5.52235e-18)
(18.7834 4.90144 -1.15536e-17)
(19.287 4.89918 1.84996e-17)
(19.805 4.81651 -1.26688e-17)
(20.313 4.64203 -6.67557e-18)
(20.7866 4.37409 3.67634e-18)
(21.2069 4.02226 0)
(21.5595 3.60356 0)
(21.8346 3.13483 1.95717e-17)
(22.0269 2.63256 2.14656e-18)
(22.1349 2.11306 -1.58453e-17)
(22.1611 1.59117 1.01875e-18)
(22.1084 1.08003 -8.90913e-18)
(22.0005 0.634954 1.64804e-17)
(21.8607 0.263339 -8.10731e-18)
(21.691 -0.0733758 0)
(21.4975 -0.376452 9.90708e-19)
(21.2846 -0.647386 -7.88551e-18)
(21.0561 -0.887678 9.9445e-18)
(20.8154 -1.09878 -7.74001e-18)
(20.5649 -1.28203 5.88139e-18)
(20.3064 -1.43854 0)
(20.0414 -1.56914 -3.74971e-18)
(19.7711 -1.67428 -7.3838e-18)
(19.4965 -1.75402 3.68773e-18)
(19.2188 -1.80799 -3.54123e-18)
(18.9384 -1.83546 -1.6907e-18)
(18.6574 -1.83495 3.45598e-18)
(18.3788 -1.80493 -5.08369e-18)
(18.1057 -1.74334 3.27018e-18)
(17.8407 -1.64919 2.39237e-18)
(17.5974 -1.52017 4.04458e-19)
(17.3645 -1.36525 -5.75225e-18)
(16.0554 2.61265 2.06212e-18)
(16.2859 2.90295 8.37312e-18)
(16.5202 3.15531 -7.93435e-18)
(16.7607 3.38043 0)
(17.0169 3.58952 6.95059e-20)
(17.2922 3.78042 0)
(17.5908 3.94956 2.60808e-17)
(17.9157 4.09226 -2.1955e-17)
(18.2666 4.20129 -1.88212e-17)
(18.6414 4.26967 2.38674e-17)
(19.0397 4.29228 -1.01624e-17)
(19.4564 4.25854 5.22863e-18)
(19.8768 4.1567 5.69038e-18)
(20.2843 3.98057 1.17056e-17)
(20.6639 3.73198 3.16355e-19)
(21.0011 3.41904 -1.22596e-17)
(21.2836 3.05198 9.6707e-18)
(21.5023 2.64257 -1.2758e-17)
(21.6514 2.20393 0)
(21.729 1.74945 -1.30747e-17)
(21.7342 1.29192 8.75722e-19)
(21.6805 0.884412 1.28208e-17)
(21.5883 0.537484 -1.00752e-19)
(21.4639 0.218731 0)
(21.313 -0.0715847 -8.21114e-19)
(21.14 -0.333723 -7.97725e-19)
(20.949 -0.568197 0)
(20.7437 -0.775716 0)
(20.5269 -0.957076 2.18145e-20)
(20.3008 -1.11302 0)
(20.0675 -1.24415 4.59072e-18)
(19.8285 -1.35086 0)
(19.5856 -1.4333 -5.89261e-18)
(19.3401 -1.49141 5.85767e-18)
(19.0932 -1.52498 0)
(18.8471 -1.53329 -2.80345e-18)
(18.6048 -1.51575 2.74436e-18)
(18.3689 -1.47176 -1.37294e-18)
(18.1418 -1.40143 -3.98799e-18)
(17.9329 -1.30445 3.20185e-19)
(17.7342 -1.18877 7.18692e-18)
(16.4549 2.41199 -5.58292e-18)
(16.6527 2.64117 -2.23371e-19)
(16.8516 2.83754 3.65756e-18)
(17.0528 3.01083 7.24478e-18)
(17.2635 3.17084 1.83714e-17)
(17.4862 3.31682 -2.19124e-17)
(17.724 3.44691 2.27652e-20)
(17.9797 3.55853 1.55557e-17)
(18.2539 3.64718 -3.16244e-17)
(18.5461 3.70833 -4.5214e-19)
(18.8573 3.7387 2.10081e-17)
(19.1857 3.73047 -8.8245e-18)
(19.5229 3.67377 1.84675e-17)
(19.8587 3.56167 -2.78439e-17)
(20.1829 3.3923 4.78746e-18)
(20.4838 3.16788 0)
(20.7499 2.89298 2.34867e-17)
(20.9713 2.57448 -2.0891e-17)
(21.1403 2.22122 -2.13303e-17)
(21.2518 1.84343 4.01413e-17)
(21.3017 1.45179 -2.12972e-17)
(21.2946 1.094 9.99529e-19)
(21.2464 0.782569 8.43492e-20)
(21.1659 0.491668 1.06063e-17)
(21.0579 0.2229 -2.1029e-17)
(20.9263 -0.0228296 1.11679e-17)
(20.7752 -0.245045 -9.65807e-18)
(20.6082 -0.443661 1.16131e-17)
(20.4284 -0.618862 1.13689e-17)
(20.2382 -0.770949 -1.01242e-17)
(20.04 -0.90024 -2.47971e-18)
(19.8357 -1.00701 -3.63197e-18)
(19.6273 -1.09144 1.08543e-17)
(19.4166 -1.15367 -9.49748e-18)
(19.205 -1.19391 4.70734e-18)
(18.9946 -1.21197 2.29345e-18)
(18.7884 -1.20791 0)
(18.5883 -1.18205 2.19846e-18)
(18.3964 -1.1351 2.15358e-18)
(18.2188 -1.06761 2.13951e-18)
(18.0506 -0.98635 -2.05002e-18)
(16.7835 2.22502 -9.17354e-20)
(16.9527 2.40512 -8.27588e-19)
(17.1214 2.55685 -3.20443e-18)
(17.2902 2.68912 6.58468e-18)
(17.4642 2.81029 -2.55234e-17)
(17.6454 2.92032 2.6038e-17)
(17.8361 3.0183 -3.24241e-17)
(18.0386 3.1029 -2.0209e-17)
(18.2535 3.17139 6.19479e-18)
(18.4813 3.22093 -6.02303e-19)
(18.7231 3.24954 2.8257e-17)
(18.9787 3.25184 8.68712e-20)
(19.2435 3.22042 0)
(19.5115 3.14934 7.91184e-18)
(19.7764 3.03568 -8.00576e-18)
(20.0302 2.8788 8.05635e-18)
(20.2639 2.67967 0)
(20.4688 2.44127 -1.72639e-17)
(20.6372 2.16863 3.69017e-17)
(20.763 1.86847 -1.3073e-17)
(20.8405 1.54842 1.74693e-17)
(20.8674 1.24835 -1.90437e-17)
(20.8551 0.980951 -5.30018e-19)
(20.8126 0.72665 1.95916e-19)
(20.7437 0.487904 -1.70019e-17)
(20.6516 0.266462 1.70202e-17)
(20.5397 0.0635815 -5.32558e-19)
(20.4115 -0.119965 -1.05379e-18)
(20.2698 -0.283785 8.19544e-18)
(20.1171 -0.427732 -9.21761e-18)
(19.9558 -0.551809 1.01418e-18)
(19.788 -0.656108 -9.99398e-19)
(19.6158 -0.740769 3.89919e-18)
(19.441 -0.806023 -1.99462e-18)
(19.2652 -0.852272 -7.60688e-18)
(19.0904 -0.879666 1.90155e-18)
(18.9192 -0.888578 -1.82792e-18)
(18.753 -0.879786 3.63763e-18)
(18.5935 -0.854226 -1.78542e-18)
(18.4447 -0.812711 -1.73766e-18)
(18.3039 -0.76063 0)
(17.0502 2.05328 9.07942e-18)
(17.1943 2.1939 -1.68863e-17)
(17.3372 2.31018 -1.75561e-17)
(17.4789 2.41031 4.52723e-17)
(17.623 2.50113 -1.67869e-17)
(17.7711 2.58295 3.9711e-17)
(17.925 2.65538 -3.40978e-17)
(18.0862 2.71776 5.16483e-17)
(18.2556 2.76848 -5.24108e-17)
(18.4335 2.80578 -4.00572e-19)
(18.6213 2.82849 2.39548e-17)
(18.8191 2.83304 3.11841e-18)
(19.0244 2.81424 2.53912e-17)
(19.2338 2.76762 -2.544e-17)
(19.4438 2.69048 2.6565e-17)
(19.649 2.58126 -3.01171e-17)
(19.8432 2.43932 0)
(20.02 2.26533 2.45892e-17)
(20.1729 2.06156 -2.99582e-17)
(20.2962 1.83184 2.68934e-17)
(20.3841 1.581 1.28195e-19)
(20.4305 1.34017 -4.16398e-17)
(20.4428 1.12071 4.60332e-19)
(20.4291 0.908293 1.41681e-17)
(20.392 0.705618 2.69082e-23)
(20.3338 0.514803 0)
(20.2572 0.337517 1.35979e-17)
(20.165 0.174958 -1.33733e-17)
(20.0596 0.0279216 0)
(19.9433 -0.103098 8.36419e-19)
(19.8183 -0.217829 0)
(19.6867 -0.316176 -6.42792e-18)
(19.5503 -0.398169 7.22138e-18)
(19.411 -0.464011 6.25724e-18)
(19.2703 -0.514148 -1.24126e-17)
(19.1298 -0.548829 6.91726e-18)
(18.9918 -0.568507 7.52702e-19)
(18.8573 -0.57407 -1.47986e-18)
(18.7277 -0.566418 1.45515e-18)
(18.6055 -0.546339 0)
(18.4896 -0.517797 1.40325e-18)
(17.2556 1.90459 0)
(17.3789 2.01483 2.30418e-17)
(17.5005 2.10419 2.02303e-19)
(17.6202 2.1803 -3.13597e-17)
(17.7407 2.24863 -2.10582e-17)
(17.8631 2.30952 2.08998e-17)
(17.9888 2.36289 -2.10996e-17)
(18.1191 2.40846 -2.12909e-17)
(18.2546 2.44524 -4.33916e-17)
(18.3957 2.47213 5.43146e-17)
(18.5434 2.48843 -5.53351e-18)
(18.698 2.49176 -5.61918e-18)
(18.8581 2.47854 2.31214e-17)
(19.0216 2.44557 -1.73684e-17)
(19.1865 2.39075 -2.67584e-17)
(19.3494 2.31254 2.0905e-17)
(19.5063 2.20983 2.77034e-17)
(19.6525 2.08233 -2.77325e-17)
(19.7832 1.93081 0)
(19.8938 1.7572 -3.14788e-18)
(19.9794 1.56427 -3.14786e-18)
(20.0327 1.37544 -2.54305e-17)
(20.0581 1.20012 5.02489e-17)
(20.0623 1.02789 -2.53943e-17)
(20.047 0.861239 -1.23904e-17)
(20.0137 0.702221 4.29183e-19)
(19.9644 0.552548 1.22432e-17)
(19.9012 0.413538 -1.91556e-19)
(19.8261 0.286153 -1.15921e-20)
(19.7409 0.171059 -1.17197e-17)
(19.6474 0.0686904 1.17763e-17)
(19.5476 -0.0207189 5.76861e-18)
(19.4429 -0.0970961 -6.10627e-18)
(19.3351 -0.160561 5.62481e-18)
(19.2253 -0.211496 -4.91011e-18)
(19.1152 -0.250126 -4.11284e-18)
(19.0063 -0.276834 2.04786e-18)
(18.8995 -0.292428 -6.68204e-19)
(18.796 -0.297644 0)
(18.6973 -0.293122 0)
(18.6032 -0.281605 7.04108e-21)
(17.4076 1.78229 1.01903e-17)
(17.5145 1.86992 -1.11027e-17)
(17.6192 1.93951 4.89777e-18)
(17.7217 1.99816 9.72044e-18)
(17.824 2.05017 0)
(17.9269 2.09591 -1.96449e-17)
(18.0316 2.13542 4.97109e-17)
(18.1391 2.16865 -2.97836e-17)
(18.2498 2.19496 1.01038e-17)
(18.3641 2.21364 -1.02803e-17)
(18.4828 2.22425 5.2257e-18)
(18.6061 2.22519 4.77759e-17)
(18.7331 2.21396 -8.55611e-17)
(18.8626 2.1883 3.76087e-17)
(18.9932 2.14669 5.54981e-18)
(19.1228 2.08788 2.23889e-17)
(19.2487 2.01083 -7.06514e-17)
(19.3676 1.91496 3.11353e-17)
(19.4762 1.80041 4.90232e-17)
(19.5709 1.66809 -2.02635e-17)
(19.6479 1.51954 5.83376e-18)
(19.7002 1.37213 0)
(19.7304 1.23331 0)
(19.7439 1.09538 2.29066e-17)
(19.7416 0.960436 -2.27895e-17)
(19.7247 0.83027 -3.58333e-19)
(19.6943 0.706413 0)
(19.6522 0.590099 -1.10915e-17)
(19.5997 0.482274 1.10484e-17)
(19.5384 0.383635 -8.59704e-20)
(19.4698 0.294668 8.36163e-20)
(19.3953 0.215672 0)
(19.3162 0.146788 -4.95851e-18)
(19.2339 0.0879779 5.22505e-18)
(19.1494 0.038952 -6.45317e-19)
(19.0639 -0.000444161 6.36461e-19)
(18.9788 -0.0304839 0)
(18.8948 -0.0518301 6.18681e-19)
(18.8127 -0.0650412 1.2155e-18)
(18.7336 -0.0705953 -6.08165e-19)
(18.6577 -0.0703099 -1.75092e-18)
(17.5224 1.68092 0)
(17.6159 1.75132 0)
(17.7071 1.80611 1.82562e-17)
(17.7958 1.85177 3.64837e-17)
(17.8837 1.89172 -5.44853e-17)
(17.9715 1.92629 4.60251e-17)
(18.0601 1.95565 1.88493e-17)
(18.1502 1.9798 -3.73065e-17)
(18.2423 1.99835 3.80835e-17)
(18.3366 2.01082 -3.82586e-17)
(18.4337 2.01693 0)
(18.5338 2.01557 0)
(18.6363 2.00496 -4.01187e-17)
(18.7402 1.98352 8.0704e-17)
(18.8449 1.95016 -8.16482e-17)
(18.9487 1.90394 4.10977e-17)
(19.0499 1.84404 5.17707e-18)
(19.1462 1.7699 -5.01601e-17)
(19.2352 1.68142 3.43779e-17)
(19.3143 1.57903 0)
(19.3806 1.46357 -2.70279e-18)
(19.4281 1.34803 0)
(19.4584 1.23813 2.24266e-17)
(19.4757 1.12807 -4.33564e-17)
(19.4806 1.0195 2.09326e-17)
(19.4736 0.913893 0)
(19.4558 0.812535 0)
(19.4283 0.716484 -9.58924e-18)
(19.3922 0.626579 1.01685e-17)
(19.3486 0.543458 1.00326e-17)
(19.2987 0.467585 -1.00586e-17)
(19.2437 0.399264 -9.82847e-18)
(19.1845 0.338666 9.81e-18)
(19.1222 0.285804 0)
(19.0577 0.240477 7.40779e-20)
(18.9919 0.202594 0)
(18.9259 0.171983 1.81e-20)
(18.8603 0.148127 7.15416e-20)
(18.7955 0.13062 -2.40082e-18)
(18.7326 0.11912 3.35895e-18)
(18.6718 0.112477 -1.08675e-18)
(17.6106 1.59563 0)
(17.6931 1.65262 2.09517e-18)
(17.7731 1.69614 0)
(17.8506 1.73196 -1.67228e-17)
(17.9268 1.76281 1.68838e-17)
(18.0025 1.78902 0)
(18.0783 1.81078 -1.72978e-17)
(18.1549 1.82818 -1.76586e-17)
(18.2325 1.84094 4.42353e-17)
(18.3114 1.84874 0)
(18.392 1.85139 -3.66217e-17)
(18.4745 1.84811 7.38676e-17)
(18.5583 1.83764 -3.71709e-17)
(18.6429 1.81883 0)
(18.7277 1.79094 3.81584e-17)
(18.8116 1.75328 -4.29988e-17)
(18.8934 1.70526 -4.36929e-17)
(18.9714 1.64642 4.86132e-17)
(19.044 1.57662 4.95188e-18)
(19.1092 1.49608 0)
(19.1649 1.40528 0)
(19.2063 1.31401 2.43505e-18)
(19.2344 1.22665 -1.22807e-18)
(19.2524 1.13874 -1.93425e-17)
(19.2606 1.05154 -1.19279e-18)
(19.2595 0.966219 1.91494e-17)
(19.2497 0.883789 -1.89952e-17)
(19.2321 0.805114 1.82918e-17)
(19.2075 0.730888 1.05056e-17)
(19.1767 0.661654 -9.29071e-18)
(19.1407 0.597815 9.17568e-18)
(19.1002 0.539652 -9.12368e-18)
(19.0561 0.487333 0)
(19.0093 0.440902 9.45639e-18)
(18.9603 0.40022 -8.91803e-18)
(18.91 0.365248 0)
(18.8591 0.335884 -1.69291e-20)
(18.8081 0.31174 -2.19773e-18)
(18.7574 0.292525 2.24746e-18)
(18.7077 0.278003 -9.7503e-19)
(18.6593 0.267493 1.01102e-18)
(17.6796 1.52297 0)
(17.7528 1.56938 -1.91094e-18)
(17.8234 1.60414 1.54303e-17)
(17.8915 1.63238 -3.10776e-17)
(17.9582 1.65626 6.27185e-17)
(18.024 1.67611 -3.1694e-17)
(18.0895 1.69214 0)
(18.1551 1.70445 -1.6365e-17)
(18.2213 1.71287 -9.98041e-17)
(18.288 1.71718 6.71063e-17)
(18.3557 1.71725 0)
(18.4245 1.71252 8.61403e-18)
(18.4939 1.70207 -2.62847e-17)
(18.5635 1.68511 -2.17658e-19)
(18.6329 1.66109 3.53389e-17)
(18.7013 1.62956 -4.0221e-17)
(18.7678 1.59009 3.58542e-17)
(18.8312 1.54236 -3.63133e-17)
(18.8903 1.48624 3.62555e-17)
(18.9438 1.42187 3.65547e-17)
(18.9901 1.34954 -3.17389e-17)
(19.0253 1.27676 1.58724e-17)
(19.0501 1.20686 -2.01786e-17)
(19.0672 1.13634 1.90125e-17)
(19.0765 1.06617 3.33218e-18)
(19.0785 0.997235 -1.76695e-17)
(19.0737 0.930328 0)
(19.0627 0.866126 0)
(19.046 0.80518 1.61601e-17)
(19.0243 0.747928 -1.7136e-17)
(18.9983 0.6947 0)
(18.9686 0.645732 -1.04526e-18)
(18.9359 0.601173 -1.03576e-18)
(18.9008 0.561074 -8.75016e-18)
(18.8638 0.525342 8.69277e-18)
(18.8254 0.493966 4.03785e-18)
(18.7863 0.466895 -4.01311e-18)
(18.7468 0.443839 1.48537e-18)
(18.7072 0.424598 -3.92583e-18)
(18.6681 0.409008 1.88466e-18)
(18.6298 0.39671 2.34563e-19)
(17.7343 1.46044 -1.41031e-17)
(17.7995 1.49837 -1.76974e-17)
(17.8622 1.52627 -7.73562e-20)
(17.9224 1.54858 0)
(17.9811 1.56706 0)
(18.0386 1.58202 0)
(18.0956 1.59367 0)
(18.1523 1.60213 6.11665e-17)
(18.2092 1.60729 -1.08459e-16)
(18.2662 1.60899 6.27276e-17)
(18.3236 1.60716 -6.39613e-17)
(18.3815 1.60139 4.01881e-17)
(18.4395 1.59102 -7.34944e-17)
(18.4973 1.57547 9.0191e-17)
(18.5546 1.55437 -3.29827e-17)
(18.6108 1.52742 -2.49993e-17)
(18.6652 1.49433 3.338e-17)
(18.717 1.45488 -4.22515e-18)
(18.7653 1.409 4.19613e-18)
(18.8091 1.3568 -4.22701e-17)
(18.8472 1.29846 -3.79912e-17)
(18.8768 1.23983 6.29666e-17)
(18.8982 1.18345 2.09472e-18)
(18.9135 1.12654 0)
(18.9228 1.06983 -2.07171e-18)
(18.9263 1.01399 2.03186e-18)
(18.9245 0.95963 1.42005e-17)
(18.9177 0.907271 -1.61043e-17)
(18.9064 0.857336 1.59518e-17)
(18.8911 0.810165 -1.58389e-17)
(18.8724 0.766018 -1.56684e-17)
(18.8506 0.725083 1.65342e-17)
(18.8263 0.687485 9.67118e-19)
(18.7999 0.653269 -7.61643e-18)
(18.7719 0.622374 6.15126e-18)
(18.7426 0.5948 0)
(18.7126 0.570526 0)
(18.682 0.549337 4.60494e-19)
(18.6513 0.53109 -9.07647e-19)
(18.6206 0.515675 -8.99308e-19)
(18.5904 0.502939 -2.18439e-19)
(17.7781 1.40614 0)
(17.8364 1.43723 3.21242e-18)
(17.8923 1.45969 -2.61494e-17)
(17.9458 1.47733 2.63105e-17)
(17.9976 1.49158 5.38601e-17)
(18.0482 1.50274 -5.46281e-17)
(18.0981 1.51102 -2.80384e-17)
(18.1475 1.51654 5.6671e-17)
(18.1967 1.51925 5.79275e-17)
(18.2457 1.51902 -5.85646e-17)
(18.2947 1.51582 0)
(18.3438 1.50935 3.01499e-17)
(18.3928 1.49914 -6.0979e-17)
(18.4412 1.48476 6.88271e-17)
(18.4888 1.46598 0)
(18.5354 1.4426 7.73187e-18)
(18.5802 1.41442 -7.76327e-18)
(18.6227 1.38133 0)
(18.6623 1.34329 -3.93616e-18)
(18.6982 1.3004 7.8848e-18)
(18.7295 1.2528 -3.5088e-17)
(18.7541 1.20509 3.50696e-17)
(18.7723 1.15922 -3.84066e-18)
(18.7857 1.11297 -2.87949e-17)
(18.7943 1.06688 2.85976e-17)
(18.7984 1.02146 -1.90467e-18)
(18.7983 0.977164 1.69176e-17)
(18.7942 0.934393 -1.49157e-17)
(18.7865 0.893464 -1.84026e-18)
(18.7757 0.854637 0)
(18.7621 0.818109 0)
(18.746 0.784025 0)
(18.7279 0.752481 7.12275e-18)
(18.708 0.723517 -7.07069e-18)
(18.6868 0.697086 8.78404e-19)
(18.6644 0.673196 6.92587e-18)
(18.6414 0.65184 -7.73149e-18)
(18.6177 0.632857 0)
(18.5938 0.616147 4.14198e-21)
(18.5698 0.601632 1.67142e-18)
(18.5459 0.589288 -8.08334e-19)
(17.8135 1.35863 -1.17424e-17)
(17.8658 1.38416 0)
(17.9158 1.40226 5.99676e-17)
(17.9634 1.41619 -4.85302e-17)
(18.0095 1.4271 0)
(18.0542 1.43529 -5.0847e-17)
(18.098 1.44097 -1.04395e-19)
(18.1413 1.44425 -5.29403e-17)
(18.184 1.44511 8.06129e-17)
(18.2265 1.44346 5.48305e-17)
(18.2686 1.4393 -5.54552e-17)
(18.3106 1.4324 -1.40898e-17)
(18.3521 1.42243 0)
(18.3929 1.4091 0)
(18.4329 1.39223 1.43538e-17)
(18.4716 1.37171 -6.51737e-17)
(18.5088 1.34743 1.30577e-16)
(18.5439 1.31933 -5.80839e-17)
(18.5764 1.28741 -7.25746e-18)