/*--------------------------------*- C++ -*----------------------------------*\
| =========                 |                                                 |
| \\      /  F ield         | OpenFOAM: The Open Source CFD Toolbox           |
|  \\    /   O peration     | Version:  5.x                                   |
|   \\  /    A nd           | Web:      www.OpenFOAM.org                      |
|    \\/     M anipulation  |                                                 |
\*---------------------------------------------------------------------------*/
FoamFile
{
    version     2.0;
    format      ascii;
    class       volVectorField;
    location    "400";
    object      U;
}
// * * * * * * * * * * * * * * * * * * * * * * * * * * * * * * * * * * * * * //

dimensions      [0 1 -1 0 0 0 0];

internalField   nonuniform List<vector> 
11040
(
(-3.52983 22.5312 0)
(-0.130688 28.3499 -1.72181e-19)
(5.88817 32.0308 1.67641e-17)
(11.6868 31.5813 1.96519e-17)
(16.3689 29.2119 4.34517e-17)
(19.8285 25.882 -2.14039e-17)
(22.183 22.155 -2.13026e-17)
(23.6087 18.3938 2.17615e-17)
(24.2745 14.831 4.95071e-17)
(24.2682 11.5546 1.61514e-18)
(23.2724 8.30507 2.44478e-17)
(21.6982 5.6115 -1.31866e-18)
(20.405 3.92322 2.10503e-17)
(19.7057 3.00804 1.98941e-17)
(19.103 2.28088 1.58343e-17)
(18.3167 1.57601 9.32301e-18)
(17.3729 0.937002 -7.30706e-18)
(16.3626 0.3892 -6.01469e-19)
(15.314 -0.0720979 6.25809e-19)
(14.2251 -0.452194 3.30027e-18)
(13.0848 -0.753734 2.18656e-18)
(12.0438 -0.950179 1.24029e-18)
(11.1007 -1.06885 3.83534e-19)
(10.1509 -1.14252 -1.5634e-19)
(9.18998 -1.17562 -6.74046e-20)
(8.21556 -1.17053 2.22336e-19)
(7.22354 -1.1301 -1.93291e-17)
(6.20843 -1.05854 4.38648e-19)
(5.16003 -0.956726 -3.46077e-17)
(4.08305 -0.817441 4.42167e-17)
(3.02365 -0.645326 8.6707e-19)
(1.98789 -0.456785 6.05455e-19)
(1.01912 -0.260185 -7.61959e-19)
(0.14225 -0.0681559 0)
(-0.585562 0.110903 2.80031e-16)
(-1.1105 0.278551 0)
(-1.76378 0.508046 0)
(-2.77075 0.755796 -3.25235e-19)
(-3.80127 0.799307 3.13289e-19)
(-4.14821 0.310285 -1.25986e-16)
(-2.6092 -0.450592 -1.54055e-16)
(0.135362 21.9581 0)
(4.03551 26.3624 0)
(11.3232 28.3535 -9.88698e-18)
(17.7257 27.6557 1.07689e-17)
(22.5234 25.8074 -2.69379e-17)
(26.0742 23.6709 2.8394e-17)
(28.605 21.2718 1.37282e-17)
(30.2076 18.6446 1.80791e-18)
(30.9967 15.8827 -1.06762e-18)
(31.1118 13.1152 1.55513e-17)
(30.4617 10.2215 -1.75486e-18)
(28.8882 7.68144 0)
(26.9537 5.84337 0)
(25.2682 4.53657 -1.04918e-17)
(23.9061 3.38122 -1.06711e-17)
(22.6215 2.38228 -7.35018e-18)
(21.3445 1.55736 0)
(20.078 0.872779 3.40509e-19)
(18.8094 0.301759 -9.20079e-19)
(17.5221 -0.166404 -4.46864e-19)
(16.2022 -0.538161 -1.36919e-18)
(14.9977 -0.79236 -6.72395e-19)
(13.9307 -0.957257 1.94469e-20)
(12.8728 -1.06905 -9.61292e-19)
(11.8135 -1.13323 1.93133e-18)
(10.7455 -1.15358 2.16401e-19)
(9.66174 -1.134 9.30234e-18)
(8.55483 -1.07753 -2.05045e-19)
(7.4221 -0.986719 1.55209e-17)
(6.26072 -0.862607 -1.8909e-17)
(5.06448 -0.707508 -2.30428e-17)
(3.85532 -0.530243 2.77935e-17)
(2.66417 -0.342777 2.26288e-20)
(1.53705 -0.155416 -8.91098e-19)
(0.532989 0.0247569 -4.62803e-17)
(-0.278578 0.196158 0)
(-1.16916 0.447259 -3.75975e-19)
(-2.1441 0.743683 8.19355e-17)
(-2.69818 0.922901 7.24587e-17)
(-2.34249 0.537801 6.73611e-17)
(-1.89247 -0.782015 1.10554e-16)
(2.04499 21.2219 0)
(5.70904 24.5869 0)
(10.8714 26.5216 2.72494e-18)
(15.8306 26.7991 -7.74131e-18)
(19.9549 25.8205 8.26142e-18)
(23.4086 24.0613 -1.04975e-17)
(26.2512 21.8189 -8.48349e-18)
(28.4404 19.3004 0)
(29.963 16.6506 -1.37375e-17)
(30.8602 13.9756 -8.13765e-18)
(31.0938 11.2029 0)
(30.4658 8.72975 0)
(29.2562 6.81982 -8.45149e-18)
(27.9332 5.35674 -7.66753e-18)
(26.6379 4.04833 -8.15596e-19)
(25.2975 2.91107 8.41989e-19)
(23.9131 1.96089 0)
(22.5256 1.1683 0)
(21.1427 0.508102 2.23413e-19)
(19.7518 -0.0328131 -2.73269e-19)
(18.3373 -0.46329 2.78333e-19)
(17.0508 -0.767823 -4.25256e-19)
(15.9139 -0.966723 -1.0201e-19)
(14.7927 -1.10415 -5.26397e-19)
(13.6767 -1.18814 -8.498e-20)
(12.5579 -1.22366 -1.43917e-19)
(11.4283 -1.21516 -9.04772e-20)
(10.28 -1.16607 2.2819e-19)
(9.10692 -1.07944 0)
(7.90485 -0.958137 0)
(6.67056 -0.806336 2.76298e-17)
(5.41346 -0.632387 -3.16416e-17)
(4.15445 -0.447337 1.79885e-17)
(2.9306 -0.263375 0)
(1.7882 -0.0878217 2.40936e-17)
(0.807809 0.0917829 2.7964e-17)
(-0.12744 0.331214 0)
(-1.0135 0.542653 2.8206e-19)
(-1.52187 0.593081 -1.96283e-19)
(-1.32829 0.143832 0)
(-1.71035 -1.25531 -5.2443e-17)
(3.92887 20.3348 5.32398e-20)
(7.35582 22.9736 -4.93665e-20)
(11.3887 24.5984 7.86537e-19)
(15.6975 25.0248 0)
(19.5745 24.33 -9.70968e-18)
(22.8386 22.9062 0)
(25.5041 21.0137 1.92995e-17)
(27.5703 18.8144 -6.30293e-20)
(29.0577 16.4479 1.93532e-18)
(30.0213 14.0307 1.29706e-17)
(30.4731 11.5316 1.91161e-18)
(30.2897 9.21904 5.26755e-18)
(29.6045 7.35296 1.49982e-17)
(28.737 5.89462 6.09365e-18)
(27.8133 4.5927 0)
(26.7639 3.42134 -1.1187e-18)
(25.5767 2.40527 1.95807e-19)
(24.3019 1.53674 -7.58024e-19)
(22.9726 0.800688 -3.02508e-19)
(21.5986 0.188596 3.08094e-19)
(20.1786 -0.30497 6.70896e-19)
(18.8753 -0.658524 3.86466e-19)
(17.7158 -0.894507 0)
(16.569 -1.063 1.0281e-18)
(15.4271 -1.17284 -1.19632e-18)
(14.2835 -1.22958 1.72744e-18)
(13.1309 -1.23818 -4.72229e-18)
(11.9617 -1.20262 0)
(10.7693 -1.12649 0)
(9.5485 -1.01362 0)
(8.29608 -0.869165 -9.97824e-18)
(7.0152 -0.701464 1.17432e-17)
(5.71762 -0.521977 -4.12225e-19)
(4.42779 -0.34415 -1.493e-17)
(3.17857 -0.175773 -1.57625e-17)
(2.05043 0.00310294 -1.86136e-17)
(1.04298 0.226743 -4.02028e-17)
(0.164644 0.382883 -4.11995e-17)
(-0.462852 0.366292 -1.61559e-19)
(-0.450652 -0.0808857 -3.71557e-17)
(-1.43569 -1.45724 2.16399e-17)
(5.79021 19.32 0)
(8.81544 21.3898 -4.52182e-20)
(12.04 22.717 -4.73225e-19)
(15.582 23.283 3.07301e-19)
(18.9644 22.988 7.17069e-18)
(21.9547 22.0104 -7.78316e-18)
(24.5217 20.5078 -1.89699e-18)
(26.6048 18.6144 -9.96125e-18)
(28.1616 16.4777 0)
(29.2133 14.2312 -1.2016e-17)
(29.7826 11.8909 0)
(29.8075 9.66581 -3.01811e-18)
(29.3775 7.80379 -7.94641e-18)
(28.7452 6.32174 0)
(28.0594 5.02347 4.20116e-18)
(27.2773 3.8501 0)
(26.3586 2.81575 0)
(25.3219 1.9163 7.86133e-19)
(24.1887 1.13866 6.39442e-19)
(22.9684 0.477244 0)
(21.6642 -0.0681276 -5.46722e-19)
(20.4381 -0.467829 0)
(19.3268 -0.74235 0)
(18.2141 -0.944866 -3.69397e-19)
(17.0968 -1.08421 0)
(15.9714 -1.16625 1.34532e-18)
(14.8329 -1.19623 3.67639e-18)
(13.6755 -1.17857 0)
(12.4933 -1.11738 0)
(11.2813 -1.01716 0)
(10.0362 -0.883815 8.15132e-18)
(8.75757 -0.726194 7.87165e-18)
(7.45011 -0.556371 -9.47418e-18)
(6.12669 -0.388176 -3.25318e-19)
(4.8055 -0.231108 3.7358e-19)
(3.55193 -0.066043 0)
(2.43206 0.131842 2.9595e-17)
(1.49046 0.251035 -3.15632e-17)
(0.696094 0.194136 3.34822e-17)
(0.466819 -0.198728 3.46772e-17)
(-0.870773 -1.47919 4.00249e-20)
(7.50314 18.2219 -1.36187e-19)
(10.0994 19.8391 6.61397e-20)
(12.7214 20.91 3.10703e-20)
(15.5999 21.5179 2.84223e-19)
(18.4933 21.4902 -1.14911e-18)
(21.1783 20.8712 7.63092e-18)
(23.5826 19.7551 -9.46447e-18)
(25.6266 18.2289 8.15381e-18)
(27.2344 16.4067 3.9912e-18)
(28.389 14.4078 -2.05001e-18)
(29.0969 12.2718 0)
(29.31 10.1622 0)
(29.0762 8.30516 1.85387e-18)
(28.5912 6.77187 -1.9552e-18)
(28.0185 5.44304 -6.67935e-18)
(27.3704 4.25402 1.40123e-18)
(26.6185 3.20347 -2.66125e-18)
(25.7685 2.28596 1.42806e-19)
(24.8311 1.48632 -7.89165e-19)
(23.8058 0.796331 1.36732e-18)
(22.6863 0.216452 -1.17349e-18)
(21.6117 -0.218725 2.57392e-19)
(20.6185 -0.526086 -7.86788e-20)
(19.608 -0.760251 1.20091e-19)
(18.5795 -0.929346 -8.08334e-19)
(17.532 -1.03882 -1.43252e-20)
(16.4624 -1.09355 -3.38427e-18)
(15.367 -1.09788 -3.29003e-18)
(14.2412 -1.05606 0)
(13.0809 -0.972909 0)
(11.8827 -0.85479 -5.66842e-18)
(10.6444 -0.710916 -1.40029e-17)
(9.36628 -0.553747 -4.8359e-19)
(8.0524 -0.397353 8.38451e-18)
(6.70806 -0.25346 9.8261e-18)
(5.37548 -0.110224 -1.05779e-17)
(4.13687 0.0505443 3.50091e-19)
(3.07614 0.137005 4.86578e-17)
(2.10827 0.0532219 -5.29741e-17)
(1.55959 -0.272986 1.1526e-19)
(0.100009 -1.35383 2.08653e-17)
(9.04458 17.08 0)
(11.2398 18.3372 -2.46737e-19)
(13.3918 19.1968 -1.33437e-19)
(15.7247 19.7784 1.61905e-19)
(18.1439 19.9153 1.56584e-18)
(20.4835 19.5798 2.72677e-18)
(22.6658 18.8075 -6.20379e-18)
(24.6099 17.6418 2.3537e-18)
(26.2245 16.1592 0)
(27.4643 14.4539 2.99536e-18)
(28.3174 12.5723 -5.96012e-18)
(28.7327 10.6376 5.98491e-18)
(28.7142 8.83898 -2.47959e-19)
(28.3941 7.28079 0)
(27.925 5.9171 1.44944e-18)
(27.3625 4.70035 1.68223e-19)
(26.7037 3.62156 1.13434e-18)
(25.9581 2.67727 9.08352e-19)
(25.1415 1.8539 -3.54899e-19)
(24.257 1.14052 -3.85924e-19)
(23.2968 0.535089 5.6217e-19)
(22.3746 0.0741236 2.91093e-19)
(21.5193 -0.257779 0)
(20.6444 -0.516987 1.95546e-19)
(19.7481 -0.711379 7.14921e-19)
(18.8282 -0.846069 -9.89375e-19)
(17.8818 -0.925417 9.19755e-19)
(16.9048 -0.953386 3.01357e-18)
(15.8932 -0.933955 -4.79339e-19)
(14.8422 -0.871832 -5.77853e-20)
(13.7477 -0.773351 -3.55128e-18)
(12.6059 -0.647586 -1.27707e-18)
(11.4134 -0.506817 -5.15799e-18)
(10.1683 -0.365021 0)
(8.86675 -0.235583 -7.09962e-18)
(7.52875 -0.116535 8.27983e-18)
(6.21712 0.00118062 -8.7793e-18)
(5.02643 0.0531443 -3.708e-17)
(3.89022 -0.0492805 2.01368e-17)
(3.02622 -0.314173 9.09757e-20)
(1.49064 -1.14566 -4.4096e-17)
(10.4061 15.9273 8.94649e-19)
(12.2489 16.9003 -2.43763e-19)
(14.0255 17.5873 -2.2531e-19)
(15.9206 18.1061 -3.42219e-19)
(17.9128 18.3243 -1.14061e-18)
(19.8996 18.1889 -3.38078e-18)
(21.8191 17.6979 3.65364e-18)
(23.6027 16.8601 4.97142e-18)
(25.1617 15.7148 -3.53153e-18)
(26.4374 14.3248 0)
(27.404 12.7308 -2.14922e-18)
(28.0057 11.0223 3.74067e-20)
(28.211 9.34657 -9.36349e-20)
(28.09 7.81547 2.01528e-18)
(27.7635 6.43974 1.86548e-18)
(27.3054 5.20259 -1.93346e-18)
(26.7357 4.09606 0)
(26.0705 3.1196 0)
(25.3314 2.26557 1.2841e-18)
(24.5315 1.52416 -1.07749e-18)
(23.6721 0.89208 1.42721e-19)
(22.8551 0.407142 -3.05113e-19)
(22.1054 0.0538676 -2.68556e-20)
(21.3459 -0.226185 0)
(20.5743 -0.441247 2.87451e-19)
(19.7877 -0.596815 -2.93762e-19)
(18.9823 -0.697355 -9.666e-19)
(18.1534 -0.746796 0)
(17.2956 -0.749014 0)
(16.4031 -0.708548 4.3797e-19)
(15.4696 -0.631468 3.8356e-18)
(14.4882 -0.526336 3.70909e-18)
(13.4512 -0.404742 8.59252e-18)
(12.3511 -0.280109 6.10174e-19)
(11.1765 -0.166413 0)
(9.93086 -0.0700136 -3.68825e-19)
(8.64502 0.00728831 6.76391e-18)
(7.3885 0.0236415 -3.09307e-20)
(6.12655 -0.0917312 1.55797e-17)
(5.01093 -0.32316 1.70952e-17)
(3.37281 -0.904953 2.03062e-17)
(11.5923 14.7919 -5.49612e-19)
(13.1357 15.5425 -5.79396e-21)
(14.6082 16.0884 4.80703e-19)
(16.1537 16.5308 -7.15667e-19)
(17.7808 16.7725 0)
(19.4347 16.7621 1.03655e-18)
(21.0771 16.4799 -1.92582e-18)
(22.6577 15.9138 -3.02195e-18)
(24.1032 15.075 2.17996e-18)
(25.3546 13.9963 2.85918e-18)
(26.3798 12.7041 1.85632e-19)
(27.1216 11.2579 -5.8161e-18)
(27.5265 9.76305 0)
(27.6144 8.32002 1.32032e-18)
(27.464 6.97367 -3.08713e-18)
(27.1453 5.73985 -1.28976e-18)
(26.6914 4.62037 -1.13012e-18)
(26.1237 3.61905 1.16772e-18)
(25.4663 2.73492 -4.18528e-19)
(24.7391 1.96239 0)
(23.9518 1.30003 4.45203e-19)
(23.2041 0.788361 -5.90318e-19)
(22.5221 0.411746 -4.19366e-20)
(21.8386 0.109895 -1.0967e-19)
(21.1538 -0.125655 4.69519e-19)
(20.4668 -0.30099 -4.7931e-19)
(19.7755 -0.421041 0)
(19.0763 -0.490065 2.44194e-18)
(18.3651 -0.512165 1.13475e-18)
(17.6365 -0.491948 6.23913e-19)
(16.8835 -0.43531 -2.95644e-18)
(16.0976 -0.350265 -8.50201e-19)
(15.2679 -0.24753 8.1315e-19)
(14.381 -0.13975 -4.91632e-19)
(13.4192 -0.0408384 -3.07881e-18)
(12.3723 0.0378258 -5.4575e-19)
(11.2425 0.0858949 0)
(10.0583 0.0741104 1.04755e-17)
(8.78742 -0.0468652 -1.14228e-17)
(7.55411 -0.263571 -1.24783e-17)
(5.83763 -0.664123 0)
(12.6143 13.6969 0)
(13.9074 14.2742 0)
(15.132 14.7048 0)
(16.3978 15.07 2.11999e-18)
(17.7228 15.3006 -7.33566e-19)
(19.0814 15.3565 1.44186e-19)
(20.4556 15.2147 -1.77195e-19)
(21.8142 14.8549 -4.25433e-19)
(23.1037 14.2713 1.19923e-18)
(24.2748 13.4742 1.81199e-18)
(25.2967 12.4743 -1.77142e-18)
(26.1162 11.3044 2.38566e-18)
(26.6708 10.032 -2.21583e-19)
(26.9461 8.73471 2.2242e-18)
(26.9804 7.4692 -3.97449e-18)
(26.8245 6.27516 3.16239e-18)
(26.5128 5.1688 1.67409e-18)
(26.0691 4.16078 -1.72563e-18)
(25.5173 3.25734 6.51286e-19)
(24.8798 2.45867 0)
(24.1711 1.76665 5.54241e-19)
(23.4884 1.22683 -4.13607e-19)
(22.8611 0.824632 6.60911e-20)
(22.2329 0.49839 -1.51701e-19)
(21.6068 0.239712 5.46824e-19)
(20.9851 0.0421815 0)
(20.3689 -0.0994891 0)
(19.7578 -0.189866 -7.2604e-19)
(19.151 -0.233299 -4.54311e-18)
(18.5464 -0.234479 -2.0957e-18)
(17.9401 -0.199092 2.39662e-18)
(17.326 -0.134497 6.72885e-19)
(16.6948 -0.0503111 -3.52899e-18)
(16.0329 0.0419273 -7.68574e-19)
(15.3202 0.128931 4.80912e-18)
(14.5385 0.197245 -8.3199e-19)
(13.6705 0.232367 -3.55531e-18)
(12.7112 0.211245 4.73801e-19)
(11.6071 0.10055 7.6164e-18)
(10.459 -0.0919652 0)
(8.81061 -0.393393 0)
(13.4867 12.6595 0)
(14.5718 13.1022 0)
(15.5933 13.4389 -2.05061e-19)
(16.6343 13.7326 -1.87938e-18)
(17.7136 13.9347 0)
(18.8213 14.0171 -8.9809e-19)
(19.9529 13.9606 2.6648e-19)
(21.0923 13.7446 0)
(22.2045 13.356 -1.59781e-18)
(23.2541 12.7919 1.85492e-19)
(24.217 12.0519 -4.01324e-19)
(25.049 11.1478 1.32226e-18)
(25.6894 10.1156 -1.66046e-18)
(26.1058 9.00657 0)
(26.3057 7.87217 -2.44446e-18)
(26.3146 6.76156 2.8704e-18)
(26.158 5.70313 0)
(25.857 4.71565 0)
(25.4333 3.8127 3.47927e-19)
(24.9085 3.00127 -1.4128e-18)
(24.299 2.28769 5.84453e-19)
(23.6953 1.72347 0)
(23.1305 1.29668 1.34522e-19)
(22.5593 0.945536 2.40592e-19)
(21.9874 0.662081 -3.90599e-19)
(21.4191 0.43992 3.8901e-19)
(20.8578 0.273625 0)
(20.3063 0.158436 0)
(19.7664 0.0898358 -7.591e-19)
(19.2395 0.0631097 3.38814e-18)
(18.7259 0.0728757 -1.87987e-18)
(18.2242 0.112579 1.97019e-18)
(17.7303 0.174009 1.07921e-18)
(17.236 0.247348 0)
(16.7266 0.321023 1.84758e-18)
(16.1853 0.382224 -1.90062e-20)
(15.5893 0.416424 6.16997e-18)
(14.9197 0.405725 0)
(14.1089 0.32566 -6.03178e-18)
(13.228 0.184153 6.52793e-18)
(11.8762 -0.051026 0)
(14.2249 11.6916 0)
(15.1371 12.03 -1.34268e-18)
(15.9917 12.2906 1.18437e-18)
(16.851 12.5217 0)
(17.7321 12.6889 1.28536e-18)
(18.6326 12.7739 -9.46171e-19)
(19.5551 12.763 -2.51416e-18)
(20.4938 12.6392 1.12885e-18)
(21.4278 12.3883 9.97241e-20)
(22.3347 12.0023 1.58854e-18)
(23.1987 11.4747 -1.76123e-18)
(23.9874 10.8041 -5.64926e-19)
(24.6496 10.004 1.49316e-18)
(25.1479 9.10186 -7.14248e-19)
(25.4711 8.13519 2.86857e-18)
(25.6234 7.14936 -1.81272e-18)
(25.6157 6.17751 -7.12663e-19)
(25.4618 5.24425 -3.18935e-19)
(25.1778 4.36922 -8.94454e-19)
(24.7823 3.56596 1.73669e-18)
(24.2905 2.84588 -7.46353e-19)
(23.7827 2.26681 -3.15215e-21)
(23.2942 1.82099 1.26196e-20)
(22.7919 1.44824 0)
(22.2829 1.14157 -7.60876e-19)
(21.7729 0.895004 2.35322e-19)
(21.2667 0.703202 1.32488e-18)
(20.7684 0.561395 -9.23216e-19)
(20.2816 0.465015 2.44453e-18)
(19.8093 0.409367 -1.27014e-18)
(19.3541 0.389314 0)
(18.9176 0.398982 -2.43801e-18)
(18.4999 0.431458 -8.55856e-19)
(18.0986 0.478785 9.62735e-19)
(17.7065 0.531795 -5.94673e-18)
(17.3144 0.580342 -1.04118e-18)
(16.9054 0.612787 -2.17144e-18)
(16.4638 0.617385 2.23478e-18)
(15.9312 0.575865 2.33444e-18)
(15.3516 0.499503 -4.75897e-18)
(14.425 0.339835 -1.61714e-19)
(14.8444 10.8008 0)
(15.6126 11.0583 7.61271e-20)
(16.3291 11.2576 1.0725e-18)
(17.0411 11.4357 3.50783e-18)
(17.7625 11.5681 -2.34867e-18)
(18.4946 11.6433 4.62908e-19)
(19.243 11.6524 9.45721e-20)
(20.0075 11.5832 -2.96219e-18)
(20.7768 11.4234 2.20095e-20)
(21.5383 11.1639 -3.31664e-20)
(22.2835 10.7971 7.54669e-19)
(22.9912 10.3152 -7.53541e-19)
(23.6224 9.71816 -4.4432e-19)
(24.144 9.01625 6.17026e-19)
(24.5372 8.23178 0)
(24.7928 7.39877 0)
(24.9086 6.54706 2.40324e-18)
(24.8886 5.70221 -6.80374e-21)
(24.7414 4.88667 -1.58368e-18)
(24.4798 4.11849 8.13129e-20)
(24.1156 3.41336 -1.24522e-19)
(23.7153 2.83451 -2.28409e-20)
(23.3143 2.37973 1.4155e-19)
(22.8919 1.99265 0)
(22.4561 1.66787 -1.08103e-19)
(22.0137 1.40033 1.21998e-18)
(21.5702 1.18522 -1.58016e-18)
(21.1305 1.01802 1.75965e-18)
(20.6987 0.894266 -1.30723e-18)
(20.2782 0.809403 0)
(19.8722 0.758603 1.18843e-18)
(19.4832 0.736566 2.66865e-18)
(19.1129 0.737376 -1.36e-18)
(18.7613 0.754544 1.53084e-18)
(18.4257 0.780969 8.55723e-19)
(18.1026 0.809358 -1.62149e-18)
(17.7836 0.831681 2.55169e-18)
(17.46 0.841616 -1.78817e-18)
(17.0964 0.827533 -1.38169e-18)
(16.7165 0.801634 -2.30924e-19)
(16.1465 0.720339 3.76136e-18)
(15.3598 9.99042 -1.27201e-18)
(16.0077 10.1853 -4.4423e-18)
(16.6097 10.3357 4.33281e-18)
(17.2014 10.47 0)
(17.7939 10.5709 -1.87269e-19)
(18.3902 10.6311 0)
(18.9966 10.6456 -6.90668e-18)
(19.6153 10.6058 5.10949e-18)
(20.2411 10.5025 2.548e-18)
(20.8675 10.3279 -2.84994e-18)
(21.4912 10.0751 5.10041e-19)
(22.0998 9.73518 -2.9654e-19)
(22.6659 9.30146 3.8872e-19)
(23.164 8.77421 5.52429e-19)
(23.5759 8.16389 1.49998e-19)
(23.8871 7.49192 -7.06187e-19)
(24.0876 6.78017 6.4053e-19)
(24.173 6.05029 -7.47411e-19)
(24.1442 5.32347 0)
(24.0073 4.61889 -1.40493e-19)
(23.7689 3.95424 3.70072e-19)
(23.4788 3.39534 -2.04511e-19)
(23.1705 2.94596 7.16461e-21)
(22.8341 2.55584 0)
(22.4782 2.22159 8.869e-20)
(22.1098 1.93965 1.25472e-19)
(21.7352 1.70631 0)
(21.3598 1.5177 0)
(20.9878 1.36979 3.66659e-21)
(20.6229 1.25843 0)
(20.2681 1.17925 -1.44571e-18)
(19.9259 1.12758 0)
(19.5979 1.09843 2.26571e-18)
(19.285 1.08652 -2.3425e-18)
(18.9857 1.0863 0)
(18.6987 1.09256 1.32658e-18)
(18.4204 1.09996 -1.3805e-18)
(18.1463 1.1051 6.91701e-19)
(17.8594 1.10201 2.19088e-18)
(17.5713 1.09973 -1.93754e-19)
(17.2021 1.07286 -4.5387e-18)
(15.7853 9.26104 3.37916e-18)
(16.3322 9.40733 1.25791e-19)
(16.8388 9.51886 -1.91119e-18)
(17.3316 9.61786 -3.5006e-18)
(17.8198 9.69171 -7.65799e-18)
(18.3067 9.73613 8.89187e-18)
(18.7984 9.74825 -4.08665e-19)
(19.298 9.72269 -4.11085e-18)
(19.8034 9.65284 7.6713e-18)
(20.3118 9.53266 -6.43528e-19)
(20.8228 9.35697 -3.37676e-18)
(21.3299 9.11769 8.98353e-19)
(21.8152 8.80663 -1.13564e-18)
(22.2608 8.41946 1.90119e-18)
(22.6523 7.95934 -2.96778e-19)
(22.9757 7.43771 0)
(23.2186 6.86801 -6.23415e-20)
(23.3721 6.26553 1.4781e-19)
(23.4318 5.64711 4.09216e-19)
(23.3975 5.02976 -1.0136e-18)
(23.2705 4.43028 7.35233e-19)
(23.0836 3.91262 -7.14686e-20)
(22.8658 3.4857 -5.95702e-21)
(22.6153 3.10706 -1.32858e-18)
(22.3405 2.77545 2.92611e-18)
(22.0482 2.48901 -1.71406e-18)
(21.7448 2.24544 2.02059e-18)
(21.4359 2.04199 -2.47226e-18)
(21.1259 1.87555 -3.02714e-18)
(20.8186 1.74269 2.73359e-18)
(20.517 1.63974 7.82033e-19)
(20.2234 1.56285 1.31438e-18)
(19.9394 1.50799 -4.05335e-18)
(19.666 1.47101 3.82479e-18)
(19.4022 1.44761 -1.96267e-18)
(19.1476 1.43404 -1.0456e-18)
(18.9005 1.42677 0)
(18.6581 1.42341 -1.14401e-18)
(18.4128 1.42112 -1.18352e-18)
(18.1702 1.4246 -1.20787e-18)
(17.8961 1.42142 1.25552e-18)
(16.1334 8.61059 4.17076e-21)
(16.5952 8.71914 4.58608e-19)
(17.0218 8.8001 1.6771e-18)
(17.4331 8.87104 -3.00786e-18)
(17.8365 8.92267 1.18979e-17)
(18.2353 8.9525 -1.01747e-17)
(18.6347 8.95915 1.27938e-17)
(19.0382 8.93922 6.31008e-18)
(19.4451 8.88821 -3.14349e-18)
(19.8545 8.80182 -8.93549e-19)
(20.2676 8.67633 -7.22263e-18)
(20.681 8.50564 2.74726e-19)
(21.0837 8.2822 0)
(21.4638 8.00053 -6.76828e-19)
(21.8115 7.66022 8.2095e-19)
(22.1157 7.26635 -1.00737e-18)
(22.3651 6.82586 0)
(22.5501 6.34797 1.2949e-18)
(22.6636 5.84414 -2.88559e-18)
(22.702 5.32731 1.02823e-18)
(22.6623 4.81112 -1.76212e-18)
(22.5625 4.3531 1.98344e-18)
(22.4252 3.96529 7.83828e-20)
(22.2539 3.61357 -3.50242e-20)
(22.0558 3.29854 3.04815e-18)
(21.8368 3.01997 -3.0764e-18)
(21.6029 2.77697 1.08487e-19)
(21.3593 2.56802 2.43551e-19)
(21.1105 2.39109 -2.28802e-18)
(20.86 2.24378 2.6093e-18)
(20.611 2.12343 -3.20287e-19)
(20.3658 2.02716 3.43983e-19)
(20.1261 1.95193 -1.49872e-18)
(19.8931 1.89464 7.03655e-19)
(19.6664 1.85209 3.23568e-18)
(19.4462 1.82168 -8.0667e-19)
(19.2319 1.80101 8.93588e-19)
(19.0218 1.78812 -1.80035e-18)
(18.8126 1.78138 9.34248e-19)
(18.607 1.78254 9.77425e-19)
(18.3895 1.78423 0)
(16.415 8.03422 -5.15079e-18)
(16.8048 8.11331 9.23651e-18)
(17.1639 8.17055 8.702e-18)
(17.5075 8.21984 -2.28983e-17)
(17.8414 8.25403 8.4925e-18)
(18.1688 8.27173 -1.75394e-17)
(18.4942 8.27249 1.42223e-17)
(18.8205 8.25415 -2.06252e-17)
(19.148 8.21368 1.8863e-17)
(19.4767 8.14813 -6.13778e-19)
(19.808 8.055 -7.69158e-18)
(20.1406 7.92975 -7.30465e-19)
(20.4676 7.76658 -5.85381e-18)
(20.7816 7.56054 5.77463e-18)
(21.0763 7.30998 -4.58239e-18)
(21.3437 7.01668 4.98552e-18)
(21.5754 6.68363 0)
(21.763 6.3156 -3.4541e-18)
(21.8994 5.91945 4.25625e-18)
(21.9795 5.50382 -3.9803e-18)
(21.9987 5.07841 -2.32664e-19)
(21.9637 4.69124 6.68655e-18)
(21.8907 4.35502 1.03728e-19)
(21.7858 4.04344 -2.59636e-18)
(21.6541 3.75824 -4.96903e-24)
(21.5007 3.50037 0)
(21.3304 3.27005 -3.44874e-18)
(21.1476 3.06687 3.40978e-18)
(20.9565 2.88982 0)
(20.7602 2.73752 -2.5071e-19)
(20.5616 2.60828 0)
(20.3631 2.50018 2.3508e-18)
(20.1665 2.4112 -2.65995e-18)
(19.9731 2.33922 -2.5787e-18)
(19.7833 2.28198 5.26951e-18)
(19.5977 2.23772 -3.03357e-18)
(19.4166 2.20484 -3.54276e-19)
(19.2392 2.18169 7.36967e-19)
(19.0641 2.16708 -7.59873e-19)
(18.8931 2.16144 0)
(18.7194 2.15951 -7.80758e-19)
(16.6311 7.5491 0)
(16.9624 7.6064 -1.25316e-17)
(17.2669 7.64651 5.66335e-19)
(17.5563 7.68018 1.67356e-17)
(17.8353 7.70167 1.02422e-17)
(18.107 7.7104 -1.05233e-17)
(18.3751 7.70639 9.57672e-18)
(18.6421 7.68826 9.15789e-18)
(18.9087 7.65392 1.71849e-17)
(19.1751 7.60134 -2.17347e-17)
(19.4427 7.52882 2.1179e-18)
(19.7111 7.43312 2.0318e-18)
(19.9759 7.30976 -7.00337e-18)
(20.2324 7.15484 5.08756e-18)
(20.4765 6.96663 7.0844e-18)
(20.703 6.74553 -5.38396e-18)
(20.9059 6.4926 -6.24213e-18)
(21.0788 6.21011 6.36842e-18)
(21.2157 5.9019 0)
(21.3119 5.57336 7.22151e-19)
(21.3625 5.23087 7.2288e-19)
(21.3677 4.91256 5.51944e-18)
(21.3385 4.63017 -1.11921e-17)
(21.2815 4.36364 5.79653e-18)
(21.2002 4.11513 3.12648e-18)
(21.0982 3.88611 4.57102e-20)
(20.9794 3.67745 -3.29741e-18)
(20.8474 3.48944 5.31767e-20)
(20.7054 3.32185 3.75919e-21)
(20.5562 3.17405 3.96529e-18)
(20.4022 3.04513 -4.00615e-18)
(20.2457 2.93395 -2.17629e-18)
(20.0883 2.83927 2.32071e-18)
(19.9314 2.75969 -2.34508e-18)
(19.7758 2.69366 2.04664e-18)
(19.6224 2.64005 1.86729e-18)
(19.4719 2.59781 -9.33102e-19)
(19.3243 2.56563 3.25959e-19)
(19.1792 2.54257 0)
(19.0377 2.52854 0)
(18.8977 2.51986 8.07123e-21)
(16.7911 7.15881 -5.76606e-18)
(17.0765 7.20062 6.42429e-18)
(17.3383 7.22858 -2.69863e-18)
(17.5858 7.25102 -5.17921e-18)
(17.8229 7.2633 0)
(18.0523 7.26532 9.84699e-18)
(18.2772 7.25739 -2.34861e-17)
(18.4998 7.23859 1.44734e-17)
(18.7207 7.20746 -4.63628e-18)
(18.9405 7.16257 4.19254e-18)
(19.1602 7.10279 -2.01966e-18)
(19.3799 7.0258 -1.80483e-17)
(19.5966 6.92832 3.17657e-17)
(19.8073 6.80733 -1.36369e-17)
(20.0093 6.66135 -1.63533e-18)
(20.199 6.49023 -6.67156e-18)
(20.3723 6.2942 2.02008e-17)
(20.5245 6.07425 -8.79351e-18)
(20.651 5.8325 -1.31887e-17)
(20.7478 5.57222 5.43754e-18)
(20.8107 5.29753 -1.4991e-18)
(20.8369 5.03814 0)
(20.8338 4.80413 0)
(20.8073 4.58009 -6.43269e-18)
(20.76 4.36812 6.43566e-18)
(20.6943 4.16977 9.94652e-20)
(20.613 3.98619 0)
(20.5191 3.818 3.65704e-18)
(20.4149 3.66541 -3.6638e-18)
(20.3028 3.52827 2.92608e-20)
(20.1848 3.4062 -3.17528e-20)
(20.0628 3.29859 0)
(19.9382 3.20472 2.03506e-18)
(19.8125 3.12372 -2.14862e-18)
(19.6864 3.05452 2.77916e-19)
(19.5609 2.9964 -2.85847e-19)
(19.4369 2.94867 0)
(19.3147 2.91027 -3.0041e-19)
(19.1946 2.8805 -6.19738e-19)
(19.0771 2.85909 3.02942e-19)
(18.9624 2.84359 9.3911e-19)
(16.9122 6.84097 0)
(17.1609 6.87145 0)
(17.3887 6.89058 -1.00488e-17)
(17.603 6.90487 -1.95005e-17)
(17.8072 6.91049 2.96746e-17)
(18.0036 6.90768 -2.35736e-17)
(18.1951 6.89686 -8.95049e-18)
(18.3836 6.87743 1.87264e-17)
(18.5696 6.84833 -1.80085e-17)
(18.7537 6.80853 1.80024e-17)
(18.9369 6.75726 0)
(19.1193 6.69284 0)
(19.2987 6.61285 1.63108e-17)
(19.4733 6.51503 -3.21824e-17)
(19.6411 6.39823 3.07584e-17)
(19.7999 6.26217 -1.49559e-17)
(19.9465 6.10676 -1.86372e-18)
(20.0776 5.93241 1.63744e-17)
(20.19 5.74029 -1.11048e-17)
(20.2803 5.53241 0)
(20.3451 5.31138 7.72961e-19)
(20.3807 5.10026 0)
(20.392 4.90736 -7.11905e-18)
(20.3842 4.72068 1.38861e-17)
(20.3588 4.54204 -6.76617e-18)
(20.3177 4.37291 0)
(20.263 4.21441 0)
(20.1967 4.06729 3.44068e-18)
(20.1209 3.93195 -3.67174e-18)
(20.0372 3.80852 -3.85219e-18)
(19.9473 3.69693 3.87845e-18)
(19.8528 3.59689 4.03513e-18)
(19.7549 3.50804 -4.04575e-18)
(19.6549 3.42984 0)
(19.5535 3.36156 -3.35718e-20)
(19.4517 3.30275 0)
(19.3504 3.25297 -8.68388e-21)
(19.2498 3.21138 -3.52625e-20)
(19.1506 3.17743 1.22262e-18)
(19.0532 3.15083 -1.73101e-18)
(18.9582 3.13 5.71827e-19)
(17.0057 6.57735 0)
(17.2243 6.59939 -1.21134e-18)
(17.4242 6.612 0)
(17.6116 6.6203 9.32692e-18)
(17.7892 6.62109 -9.20667e-18)
(17.9593 6.6148 0)
(18.1244 6.60193 8.97349e-18)
(18.2859 6.58207 8.65731e-18)
(18.4445 6.55443 -2.2724e-17)
(18.6007 6.51827 0)
(18.7554 6.47305 1.71592e-17)
(18.9086 6.41755 -3.42524e-17)
(19.0588 6.34997 1.704e-17)
(19.2047 6.26866 0)
(19.3451 6.17273 -1.58596e-17)
(19.4782 6.06194 1.7621e-17)
(19.6019 5.93612 1.66626e-17)
(19.7138 5.79543 -1.83819e-17)
(19.8115 5.64055 -1.70405e-18)
(19.8924 5.47275 0)
(19.954 5.2937 0)
(19.9923 5.12137 -9.01797e-19)
(20.0108 4.96245 4.12678e-19)
(20.0138 4.80747 7.02952e-18)
(20.0024 4.65793 5.36892e-19)
(19.9777 4.51508 -7.0444e-18)
(19.9415 4.37993 7.24195e-18)
(19.8951 4.2532 -7.00667e-18)
(19.8402 4.13536 -4.20688e-18)
(19.778 4.02665 3.72608e-18)
(19.71 3.92715 -3.85736e-18)
(19.6372 3.83678 3.84872e-18)
(19.5609 3.75537 0)
(19.4819 3.6826 -4.29956e-18)
(19.401 3.61797 4.06534e-18)
(19.3191 3.56121 0)
(19.2369 3.51205 8.11798e-21)
(19.1548 3.46982 1.1006e-18)
(19.0733 3.4341 -1.13042e-18)
(18.9929 3.40465 5.11588e-19)
(18.9142 3.38051 -5.33087e-19)
(17.079 6.35544 0)
(17.2725 6.3711 1.11548e-18)
(17.4492 6.37883 -8.93865e-18)
(17.6144 6.3827 1.74673e-17)
(17.7702 6.37996 -3.52479e-17)
(17.9188 6.3712 1.77689e-17)
(18.0623 6.35695 0)
(18.2021 6.3369 8.59679e-18)
(18.3387 6.31049 5.16626e-17)
(18.4726 6.27718 -3.48511e-17)
(18.6045 6.23656 0)
(18.7345 6.18776 -4.32092e-18)
(18.8615 6.12943 1.23427e-17)
(18.9845 6.06035 -3.0988e-19)
(19.1026 5.97989 -1.64709e-17)
(19.2147 5.88785 1.78377e-17)
(19.3192 5.78409 -1.55016e-17)
(19.4143 5.66868 1.48462e-17)
(19.4982 5.54204 -1.48579e-17)
(19.5692 5.40502 -1.45672e-17)
(19.6251 5.25873 1.25568e-17)
(19.6625 5.11727 -6.28525e-18)
(19.6839 4.98597 7.97721e-18)
(19.6927 4.85728 -7.53478e-18)
(19.6897 4.73239 -1.39831e-18)
(19.6758 4.61231 7.11414e-18)
(19.6522 4.49791 0)
(19.6201 4.38981 0)
(19.5804 4.28845 -6.93533e-18)
(19.5344 4.19411 7.36033e-18)
(19.483 4.10693 0)
(19.4273 4.02692 4.80539e-19)
(19.368 3.95403 4.85096e-19)
(19.306 3.88807 4.13639e-18)
(19.2419 3.8287 -4.13015e-18)
(19.1765 3.77574 -1.98853e-18)
(19.1103 3.72905 1.9808e-18)
(19.0438 3.6881 -7.59035e-19)
(18.9774 3.65258 2.02802e-18)
(18.9115 3.62228 -9.83674e-19)
(18.8467 3.5967 -1.26415e-19)
(17.1373 6.16635 8.23848e-18)
(17.3095 6.17713 1.00658e-17)
(17.4667 6.18119 -1.82068e-19)
(17.6131 6.18174 0)
(17.7507 6.17645 0)
(17.8814 6.16597 0)
(18.0071 6.15083 0)
(18.1291 6.13083 -3.32231e-17)
(18.2477 6.10555 5.88002e-17)
(18.3635 6.07458 -3.37854e-17)
(18.4769 6.03764 3.31565e-17)
(18.5882 5.99409 -2.10419e-17)
(18.6964 5.94292 3.68251e-17)
(18.8009 5.88324 -4.51154e-17)
(18.9009 5.81458 1.63804e-17)
(18.9958 5.73684 1.19348e-17)
(19.0842 5.64992 -1.55962e-17)
(19.1649 5.55387 1.84326e-18)
(19.2366 5.44897 -1.90948e-18)
(19.2981 5.33583 1.85043e-17)
(19.3476 5.2152 1.62662e-17)
(19.3823 5.09828 -2.69431e-17)
(19.404 4.98929 -8.64229e-19)
(19.4156 4.88216 0)
(19.4175 4.77778 8.64654e-19)
(19.4104 4.67698 -9.09244e-19)
(19.3953 4.58046 -6.27167e-18)
(19.3731 4.48874 7.15575e-18)
(19.3445 4.4022 -7.26351e-18)
(19.3104 4.32111 7.23621e-18)
(19.2716 4.2456 7.36152e-18)
(19.2289 4.17574 -7.78617e-18)
(19.183 4.11151 -4.57296e-19)
(19.1345 4.05283 3.75971e-18)
(19.084 3.99943 -3.03532e-18)
(19.0319 3.95122 0)
(18.979 3.90811 0)
(18.9254 3.8697 -2.37895e-19)
(18.8716 3.83574 4.84823e-19)
(18.818 3.80609 4.86688e-19)
(18.7648 3.78052 1.18412e-19)
(17.1842 6.00354 0)
(17.3382 6.01057 -1.90717e-18)
(17.4786 6.01186 1.5311e-17)
(17.609 6.00994 -1.5638e-17)
(17.7311 6.0028 -3.10264e-17)
(17.8468 5.99116 3.18399e-17)
(17.9576 5.97552 1.55608e-17)
(18.0647 5.95576 -3.22837e-17)
(18.1684 5.93156 -3.19542e-17)
(18.2691 5.90262 3.2528e-17)
(18.3674 5.86875 0)
(18.4633 5.82947 -1.61379e-17)
(18.5562 5.78404 3.19998e-17)
(18.6455 5.73179 -3.61738e-17)
(18.7308 5.67242 0)
(18.8114 5.60586 -4.00937e-18)
(18.8865 5.53208 3.91819e-18)
(18.9551 5.45113 0)
(19.0163 5.36322 1.8166e-18)
(19.0691 5.26883 -3.58879e-18)
(19.1123 5.16847 1.6341e-17)
(19.1435 5.07112 -1.6076e-17)
(19.1642 4.98014 1.80417e-18)
(19.1766 4.89058 1.32438e-17)
(19.1811 4.80313 -1.31731e-17)
(19.1783 4.71845 8.61368e-19)
(19.1689 4.63707 -7.93628e-18)
(19.1535 4.55943 7.04185e-18)
(19.1328 4.48584 8.98582e-19)
(19.1075 4.41651 0)
(19.0782 4.35159 0)
(19.0454 4.29114 0)
(19.0098 4.23516 -3.61035e-18)
(18.9718 4.18362 3.59392e-18)
(18.9319 4.1363 -4.4798e-19)
(18.8906 4.09317 -3.65339e-18)
(18.8483 4.05416 4.09517e-18)
(18.8053 4.01897 0)
(18.7619 3.9874 5.90847e-21)
(18.7184 3.95936 -9.19791e-19)
(18.675 3.93481 4.48609e-19)
(17.2223 5.8621 7.03585e-18)
(17.3604 5.86625 0)
(17.4863 5.86544 -3.55117e-17)
(17.6029 5.86168 2.91689e-17)
(17.7118 5.85325 0)
(17.8147 5.84086 2.95649e-17)
(17.9128 5.82502 -2.2908e-19)
(18.0073 5.80564 3.02738e-17)
(18.0985 5.78249 -4.64301e-17)
(18.1867 5.75537 -3.07627e-17)
(18.2723 5.72413 3.13088e-17)
(18.3555 5.68843 7.69842e-18)
(18.4357 5.64773 0)
(18.5124 5.60152 0)
(18.5855 5.54961 -7.84454e-18)
(18.6543 5.49201 3.45665e-17)
(18.7183 5.42869 -6.82629e-17)
(18.7767 5.35973 2.98871e-17)
(18.8289 5.28532 3.72352e-18)
(18.8741 5.20582 3.68293e-18)
(18.9115 5.12162 -1.75306e-18)
(18.9391 5.03998 2.64415e-17)
(18.9581 4.96359 -4.53573e-17)
(18.9703 4.88836 8.25757e-19)
(18.9761 4.81484 1.29799e-17)