/*--------------------------------*- C++ -*----------------------------------*\
| =========                 |                                                 |
| \\      /  F ield         | OpenFOAM: The Open Source CFD Toolbox           |
|  \\    /   O peration     | Version:  5.x                                   |
|   \\  /    A nd           | Web:      www.OpenFOAM.org                      |
|    \\/     M anipulation  |                                                 |
\*---------------------------------------------------------------------------*/
FoamFile
{
    version     2.0;
    format      ascii;
    class       volVectorField;
    location    "400";
    object      U;
}
// * * * * * * * * * * * * * * * * * * * * * * * * * * * * * * * * * * * * * //

dimensions      [0 1 -1 0 0 0 0];

internalField   nonuniform List<vector> 
11040
(
(-2.54677 16.4462 0)
(-0.0645375 20.7044 -1.26138e-19)
(4.35041 23.397 1.22909e-17)
(8.59981 23.0589 1.44137e-17)
(12.027 21.3131 3.19481e-17)
(14.5524 18.8667 -1.5767e-17)
(16.258 16.1365 -1.57172e-17)
(17.2753 13.3872 1.60555e-17)
(17.7346 10.7865 3.65703e-17)
(17.7041 8.39716 1.19312e-18)
(16.9553 6.03048 1.80847e-17)
(15.7842 4.07086 -9.79813e-19)
(14.8148 2.84341 1.56828e-17)
(14.2746 2.17709 1.48878e-17)
(13.8029 1.64644 1.18945e-17)
(13.1974 1.13251 7.03786e-18)
(12.4791 0.668457 -5.54748e-18)
(11.7144 0.272919 -4.62219e-19)
(10.9225 -0.0578999 4.8195e-19)
(10.1012 -0.328148 2.60071e-18)
(9.24187 -0.539912 1.78456e-18)
(8.45676 -0.674697 1.10893e-18)
(7.74582 -0.753313 6.62797e-19)
(7.03001 -0.798883 -9.21115e-20)
(6.3061 -0.814518 -5.05904e-20)
(5.57266 -0.80174 1.53346e-19)
(4.82829 -0.761378 -1.36334e-17)
(4.07721 -0.693241 3.14106e-19)
(3.33044 -0.606416 -2.41663e-17)
(2.56586 -0.50601 3.0424e-17)
(1.79377 -0.385641 6.14397e-19)
(1.02834 -0.247699 4.58153e-19)
(0.350088 -0.103695 -6.00308e-19)
(-0.249624 0.0312047 0)
(-0.692066 0.14384 1.72879e-16)
(-1.03613 0.258426 0)
(-1.5097 0.418504 0)
(-2.18961 0.582093 -1.94217e-19)
(-2.82966 0.591628 2.14563e-19)
(-2.97918 0.221419 -7.85231e-17)
(-1.88231 -0.346011 -1.01976e-16)
(0.108473 16.0236 0)
(2.94437 19.2415 0)
(8.25673 20.7029 -7.21046e-18)
(12.9104 20.2013 7.88099e-18)
(16.3952 18.8606 -1.96948e-17)
(18.9743 17.3027 2.07859e-17)
(20.8139 15.5454 1.00642e-17)
(21.9788 13.6181 1.33022e-18)
(22.5488 11.5924 -7.69718e-19)
(22.6243 9.56375 1.14622e-17)
(22.1384 7.44603 -1.29374e-18)
(20.977 5.58997 0)
(19.553 4.24833 0)
(18.312 3.29539 -7.81068e-18)
(17.3046 2.45473 -7.96494e-18)
(16.3493 1.7292 -5.50553e-18)
(15.3959 1.13096 0)
(14.4475 0.63564 2.59118e-19)
(13.4954 0.224082 -7.0444e-19)
(12.5282 -0.111359 -3.47896e-19)
(11.5355 -0.375313 -1.09884e-18)
(10.6287 -0.553204 -5.91906e-19)
(9.82425 -0.6662 1.49261e-21)
(9.0257 -0.739981 -4.80351e-19)
(8.2253 -0.778553 1.21218e-18)
(7.41779 -0.784749 1.45413e-19)
(6.59818 -0.761302 6.36695e-18)
(5.76083 -0.71025 -1.42133e-19)
(4.90018 -0.634854 1.05754e-17)
(4.02684 -0.537699 -1.2731e-17)
(3.14787 -0.421565 -1.56871e-17)
(2.27795 -0.293262 1.95325e-17)
(1.43581 -0.160274 1.50042e-20)
(0.662131 -0.0298249 -6.49007e-19)
(0.0174661 0.0872092 -3.27125e-17)
(-0.526862 0.210857 0)
(-1.15198 0.391556 -2.34574e-19)
(-1.77187 0.578172 5.11741e-17)
(-2.07442 0.681592 4.62265e-17)
(-1.75193 0.384071 4.24404e-17)
(-1.36972 -0.588796 7.2986e-17)
(1.50384 15.4859 0)
(4.17221 17.9433 0)
(7.94221 19.3544 1.97824e-18)
(11.5601 19.551 -5.61678e-18)
(14.57 18.8285 5.99901e-18)
(17.089 17.5384 -7.62829e-18)
(19.1545 15.8986 -6.19232e-18)
(20.7364 14.0593 0)
(21.8284 12.1255 -1.00359e-17)
(22.4622 10.174 -5.95295e-18)
(22.6094 8.15222 0)
(22.1283 6.34954 0)
(21.2246 4.95765 -6.24998e-18)
(20.2401 3.89191 -5.68674e-18)
(19.2772 2.94048 -6.07256e-19)
(18.2818 2.11507 6.27127e-19)
(17.254 1.42665 0)
(16.2227 0.853646 0)
(15.1922 0.377846 1.69969e-19)
(14.1531 -0.0101584 -2.13796e-19)
(13.094 -0.316646 2.17847e-19)
(12.1288 -0.531114 -3.62913e-19)
(11.2742 -0.66869 -7.44504e-20)
(10.43 -0.760928 -2.6117e-19)
(9.58853 -0.813711 -5.30662e-20)
(8.74389 -0.830759 -9.39986e-20)
(7.89033 -0.815412 -6.59988e-20)
(7.02217 -0.770359 1.55183e-19)
(6.13491 -0.698556 0)
(5.22987 -0.603143 0)
(4.31105 -0.488714 1.90293e-17)
(3.39013 -0.362557 -2.19695e-17)
(2.48502 -0.232491 1.25993e-17)
(1.62741 -0.107751 0)
(0.864208 0.00860982 1.71209e-17)
(0.211631 0.137716 1.95479e-17)
(-0.425926 0.306557 0)
(-0.9796 0.426731 1.81022e-19)
(-1.26026 0.440044 -1.28193e-19)
(-1.05569 0.0991846 0)
(-1.26738 -0.942026 -3.4397e-17)
(2.88012 14.8477 3.47263e-20)
(5.37221 16.7737 -3.16621e-20)
(8.31486 17.9569 5.92412e-19)
(11.4519 18.2647 0)
(14.2702 17.7559 -7.07625e-18)
(16.6422 16.7168 0)
(18.5789 15.3346 1.40165e-17)
(20.0784 13.7273 -4.47231e-20)
(21.1546 11.9979 1.40926e-18)
(21.8472 10.2318 9.46929e-18)
(22.1633 8.40639 1.39669e-18)
(22.0119 6.71814 3.8646e-18)
(21.4927 5.35636 1.10332e-17)
(20.8394 4.29217 4.49644e-18)
(20.1436 3.3431 0)
(19.3552 2.49081 -8.33693e-19)
(18.4664 1.75319 1.42575e-19)
(17.5142 1.12447 -5.73745e-19)
(16.5219 0.593535 -2.31137e-19)
(15.4957 0.154039 2.35432e-19)
(14.4338 -0.198024 5.34643e-19)
(13.4575 -0.447928 3.34841e-19)
(12.5875 -0.61232 0)
(11.7256 -0.72701 4.99726e-19)
(10.8661 -0.79844 -7.33827e-19)
(10.0041 -0.830774 1.12926e-18)
(9.13438 -0.827776 -3.16586e-18)
(8.25169 -0.792625 0)
(7.35174 -0.728531 0)
(6.43279 -0.639268 0)
(5.49582 -0.530061 -6.88238e-18)
(4.54717 -0.408634 8.12758e-18)
(3.59994 -0.283772 -2.82511e-19)
(2.67709 -0.165256 -1.04037e-17)
(1.81513 -0.0533382 -1.10092e-17)
(1.05907 0.074199 -1.29658e-17)
(0.385844 0.227297 -2.76618e-17)
(-0.172373 0.30779 -2.725e-17)
(-0.54136 0.27595 -1.04233e-19)
(-0.467222 -0.0652367 -2.35882e-17)
(-1.11683 -1.09737 1.41142e-17)
(4.23578 14.1201 0)
(6.43645 15.6308 -4.51529e-20)
(8.78961 16.5964 -3.62685e-19)
(11.3699 17.004 2.17902e-19)
(13.8302 16.782 5.18457e-18)
(16.0044 16.0624 -5.6637e-18)
(17.8684 14.961 -1.33579e-18)
(19.3774 13.5761 -7.24194e-18)
(20.5015 12.0156 0)
(21.2572 10.3767 -8.73432e-18)
(21.6606 8.67033 0)
(21.6656 7.04856 -2.2017e-18)
(21.3374 5.69168 -5.82568e-18)
(20.8606 4.61153 0)
(20.3419 3.66541 3.10892e-18)
(19.75 2.81117 0)
(19.0563 2.05938 0)
(18.2751 1.40705 5.87921e-19)
(17.4225 0.844827 4.82668e-19)
(16.5052 0.368791 0)
(15.5253 -0.0212391 -4.34661e-19)
(14.604 -0.304721 0)
(13.7685 -0.497043 0)
(12.9311 -0.636319 -1.74217e-19)
(12.0895 -0.729038 0)
(11.241 -0.779612 8.73087e-19)
(10.3818 -0.792056 2.45104e-18)
(9.50806 -0.76993 0)
(8.61591 -0.71682 0)
(7.70288 -0.636969 0)
(6.76823 -0.536141 5.61039e-18)
(5.81422 -0.42258 5.43475e-18)
(4.84788 -0.305707 -6.55585e-18)
(3.88336 -0.195585 -2.30434e-19)
(2.94486 -0.0931862 2.60156e-19)
(2.0854 0.0225139 0)
(1.33732 0.154752 2.03715e-17)
(0.728261 0.209663 -2.15546e-17)
(0.227302 0.150507 2.26681e-17)
(0.139992 -0.153346 2.18621e-17)
(-0.773494 -1.12044 2.5627e-20)
(5.48397 13.3345 -8.93166e-20)
(7.37389 14.5154 5.29356e-20)
(9.28777 15.2947 -2.23845e-20)
(11.386 15.7331 2.2773e-19)
(13.4909 15.7054 -8.38728e-19)
(15.4422 15.2468 5.52978e-18)
(17.1874 14.4258 -6.83235e-18)
(18.6677 13.3062 5.8964e-18)
(19.8283 11.9721 2.89894e-18)
(20.6578 10.5111 -1.49226e-18)
(21.1612 8.95179 0)
(21.3036 7.41371 0)
(21.1202 6.06099 1.36072e-18)
(20.7538 4.94466 -1.43645e-18)
(20.3222 3.97739 -4.93326e-18)
(19.8332 3.11255 1.04106e-18)
(19.2658 2.34936 -1.98422e-18)
(18.6244 1.68381 1.02878e-19)
(17.9166 1.1051 -6.02946e-19)
(17.142 0.607545 1.05507e-18)
(16.296 0.191721 -9.32586e-19)
(15.4839 -0.118042 2.23795e-19)
(14.733 -0.334514 -7.61781e-20)
(13.9689 -0.496923 6.72517e-20)
(13.1909 -0.611279 -4.83396e-19)
(12.3982 -0.681718 -1.1771e-20)
(11.5887 -0.712043 -2.25376e-18)
(10.7595 -0.705828 -2.21919e-18)
(9.90783 -0.666798 0)
(9.03124 -0.599458 0)
(8.12816 -0.509901 -3.89238e-18)
(7.19833 -0.406651 -9.64302e-18)
(6.24386 -0.299552 -3.33425e-19)
(5.27104 -0.19904 5.80938e-18)
(4.29163 -0.108605 6.83393e-18)
(3.34997 -0.012277 -7.3572e-18)
(2.50544 0.0919235 2.42798e-19)
(1.8034 0.126082 3.35306e-17)
(1.16817 0.0474373 -3.61888e-17)
(0.858034 -0.205083 7.60447e-20)
(-0.152054 -1.03789 1.31623e-17)
(6.60744 12.5183 0)
(8.20701 13.4372 -1.49282e-19)
(9.77872 14.0631 -1.67325e-20)
(11.4808 14.4833 1.41173e-19)
(13.2421 14.5758 1.20706e-18)
(14.9432 14.3232 2.0267e-18)
(16.5278 13.7519 -4.53071e-18)
(17.9361 12.8939 1.71403e-18)
(19.1018 11.8056 0)
(19.9927 10.5563 2.1781e-18)
(20.6006 9.18009 -4.34741e-18)
(20.8886 7.76716 4.37633e-18)
(20.8607 6.45552 -1.76656e-19)
(20.6141 5.32051 0)
(20.2591 4.32791 1.0663e-18)
(19.8351 3.44315 1.21693e-19)
(19.3395 2.65983 8.44115e-19)
(18.779 1.97527 6.81495e-19)
(18.1646 1.3796 -2.70268e-19)
(17.4979 0.865078 -3.03186e-19)
(16.7725 0.430368 4.34394e-19)
(16.0746 0.101409 2.42571e-19)
(15.4262 -0.133325 0)
(14.7622 -0.31432 1.08163e-19)
(14.0812 -0.447387 4.49585e-19)
(13.3818 -0.53639 -6.29124e-19)
(12.6619 -0.584761 6.0953e-19)
(11.9186 -0.595811 2.02764e-18)
(11.1492 -0.573109 -3.25675e-19)
(10.3506 -0.521095 -3.99274e-20)
(9.52036 -0.445803 -2.43192e-18)
(8.65608 -0.355583 -8.78054e-19)
(7.7562 -0.260336 -3.55388e-18)
(6.82097 -0.170635 0)
(5.85195 -0.0928257 -4.92693e-18)
(4.87657 -0.0188917 5.76341e-18)
(3.95145 0.0519238 -6.11928e-18)
(3.1371 0.064202 -2.58075e-17)
(2.36795 -0.0290987 1.39575e-17)
(1.8212 -0.23588 6.24313e-20)
(0.766035 -0.889629 -2.78873e-17)
(7.60067 11.6938 5.86788e-19)
(8.9452 12.4059 -1.59139e-19)
(10.2439 12.9067 -1.53617e-19)
(11.628 13.2824 -3.30117e-19)
(13.0801 13.4352 -8.38274e-19)
(14.5259 13.3291 -2.50122e-18)
(15.9207 12.9629 2.6478e-18)
(17.2139 12.3433 3.62858e-18)
(18.3407 11.4997 -2.58126e-18)
(19.2588 10.4787 0)
(19.9496 9.30994 -1.568e-18)
(20.3727 8.05947 2.83475e-20)
(20.5065 6.83505 -6.41135e-20)
(20.4033 5.71803 1.48694e-18)
(20.1508 4.71553 1.38085e-18)
(19.8026 3.81515 -1.43356e-18)
(19.3725 3.01122 0)
(18.8725 2.30318 0)
(18.3178 1.68531 9.83445e-19)
(17.7175 1.15058 -8.2852e-19)
(17.0714 0.696596 1.26873e-19)
(16.4562 0.350163 -2.47508e-19)
(15.8901 0.0997328 -4.76577e-20)
(15.3153 -0.0966818 0)
(14.73 -0.245117 1.78526e-19)
(14.1321 -0.349672 -1.82647e-19)
(13.5186 -0.413821 -6.37479e-19)
(12.8861 -0.440817 0)
(12.2309 -0.43413 0)
(11.5486 -0.398029 2.9775e-19)
(10.8348 -0.338257 2.61723e-18)
(10.0844 -0.262655 2.53738e-18)
(9.29203 -0.180744 5.89655e-18)
(8.45272 -0.102826 4.20798e-19)
(7.56033 -0.0372969 0)
(6.6253 0.015859 -2.56015e-19)
(5.68286 0.053701 4.71552e-18)
(4.78685 0.0413736 -3.45538e-20)
(3.90297 -0.0628448 1.09296e-17)
(3.15014 -0.243649 1.19495e-17)
(2.02353 -0.711297 1.3601e-17)
(8.46722 10.8803 -3.59457e-19)
(9.59486 11.4303 -3.70305e-21)
(10.6724 11.829 2.91409e-19)
(11.8025 12.1502 -4.0929e-19)
(12.99 12.3218 0)
(14.195 12.308 8.05653e-19)
(15.3899 12.095 -1.52075e-18)
(16.5375 11.6741 -2.18777e-18)
(17.5839 11.0538 1.61027e-18)
(18.4865 10.259 2.08891e-18)
(19.2217 9.30892 1.28082e-19)
(19.7481 8.24765 -4.27875e-18)
(20.0275 7.15286 0)
(20.0757 6.09789 9.79837e-19)
(19.9505 5.115 -2.28344e-18)
(19.7025 4.2155 -9.63343e-19)
(19.3559 3.40085 -8.49143e-19)
(18.9264 2.67374 8.78864e-19)
(18.4316 2.03333 -3.21717e-19)
(17.8857 1.47553 0)
(17.2953 0.999289 3.72434e-19)
(16.7347 0.633322 -5.1895e-19)
(16.2228 0.365837 4.02508e-20)
(15.7091 0.153429 -7.83281e-20)
(15.1935 -0.0101219 2.89046e-19)
(14.675 -0.129339 -2.95345e-19)
(14.152 -0.208008 0)
(13.6215 -0.249591 1.62329e-18)
(13.0802 -0.257662 7.60603e-19)
(12.5237 -0.236452 4.20903e-19)
(11.9465 -0.19143 -2.00551e-18)
(11.3415 -0.129855 -5.78326e-19)
(10.7003 -0.0606478 5.56606e-19)
(10.0128 0.00636494 -3.36215e-19)
(9.26664 0.0617276 -2.11863e-18)
(8.45831 0.0997416 -3.77505e-19)
(7.5981 0.112963 0)
(6.71407 0.0790414 7.31163e-18)
(5.78561 -0.0321685 -8.02647e-18)
(4.90682 -0.204945 -8.8074e-18)
(3.70297 -0.528377 0)
(9.21509 10.0934 0)
(10.1612 10.5171 0)
(11.0584 10.8322 0)
(11.9849 11.0983 1.23376e-18)
(12.9533 11.2634 -3.52921e-19)
(13.9446 11.2996 2.19011e-20)
(14.9459 11.1905 -2.02776e-19)
(15.9339 10.9213 -2.93172e-19)
(16.8693 10.4881 9.09983e-19)
(17.7161 9.89882 1.33692e-18)
(18.4517 9.16161 -1.31426e-18)
(19.0371 8.30086 1.74709e-18)
(19.4275 7.36668 -1.53565e-19)
(19.6132 6.41611 1.64715e-18)
(19.6228 5.4903 -2.96438e-18)
(19.4933 4.61802 2.35727e-18)
(19.2497 3.8112 1.26412e-18)
(18.9097 3.07766 -1.30569e-18)
(18.4912 2.42186 5.02061e-19)
(18.0102 1.84392 0)
(17.4776 1.34515 4.79506e-19)
(16.9655 0.958025 -3.58128e-19)
(16.4956 0.671455 2.78824e-20)
(16.0253 0.440895 -6.67725e-20)
(15.5567 0.260117 3.08583e-19)
(15.0913 0.124333 0)
(14.6296 0.0295094 0)
(14.1712 -0.0280014 -4.79118e-19)
(13.7149 -0.0518789 -3.03111e-18)
(13.2586 -0.0462922 -1.40678e-18)
(12.7985 -0.0163815 1.61889e-18)
(12.329 0.0312835 4.5527e-19)
(11.8415 0.0886104 -2.39416e-18)
(11.3249 0.146469 -5.22241e-19)
(10.7635 0.195171 3.27957e-18)
(10.145 0.226031 -5.70673e-19)
(9.46065 0.228792 -2.45185e-18)
(8.71149 0.186778 3.28412e-19)
(7.86586 0.0796659 5.32977e-18)
(7.00146 -0.0825035 0)
(5.79998 -0.325175 0)
(9.85472 9.34529 0)
(10.6497 9.67075 0)
(11.3989 9.9178 -1.40217e-19)
(12.1617 10.1326 -1.15493e-18)
(12.9515 10.2783 0)
(13.7609 10.3355 -4.80141e-19)
(14.5868 10.2903 2.50787e-19)
(15.4169 10.1277 0)
(16.2254 9.8383 -1.23981e-18)
(16.9864 9.42019 1.98747e-19)
(17.682 8.87324 -2.76273e-19)
(18.2799 8.20644 9.88257e-19)
(18.7358 7.44689 -1.22649e-18)
(19.0268 6.63251 0)
(19.1588 5.80092 -1.85312e-18)
(19.1507 4.98794 2.16009e-18)
(19.021 4.2144 0)
(18.7854 3.49415 0)
(18.4601 2.83708 2.78841e-19)
(18.0611 2.24831 -1.13584e-18)
(17.6004 1.73238 4.81258e-19)
(17.1459 1.32626 0)
(16.7218 1.02076 2.84418e-20)
(16.294 0.77114 1.72928e-19)
(15.8663 0.571452 -2.10205e-19)
(15.4421 0.416884 2.41931e-19)
(15.0239 0.30329 0)
(14.6133 0.226923 0)
(14.2118 0.184073 -5.01615e-19)
(13.8197 0.170716 2.26458e-18)
(13.4367 0.182155 -1.26098e-18)
(13.0603 0.212679 1.32463e-18)
(12.6859 0.255372 7.2786e-19)
(12.3057 0.302334 0)
(11.9067 0.344717 1.25267e-18)
(11.4755 0.373379 -1.23462e-20)
(10.9957 0.377807 4.21013e-18)
(10.454 0.344868 0)
(9.80561 0.259339 -4.16128e-18)
(9.10604 0.128812 4.56016e-18)
(8.07151 -0.065563 0)
(10.3971 8.6448 0)
(11.0662 8.89396 -8.55281e-19)
(11.6935 9.08574 7.49456e-19)
(12.3238 9.25544 0)
(12.9693 9.3769 7.6028e-19)
(13.6282 9.4374 -6.44964e-19)
(14.3025 9.42702 -1.2421e-18)
(14.9876 9.33338 1.69146e-19)
(15.668 9.14613 4.37751e-19)
(16.3273 8.85958 1.38939e-18)
(16.9537 8.46907 -1.44841e-18)
(17.5233 7.97374 -4.48223e-19)
(17.9984 7.38394 1.15376e-18)
(18.3524 6.72031 -5.55974e-19)
(18.5773 6.01045 2.17703e-18)
(18.6762 5.28757 -1.38845e-18)
(18.6573 4.57597 -5.59431e-19)
(18.5307 3.89384 -2.53913e-19)
(18.3087 3.25558 -7.30382e-19)
(18.0048 2.67117 1.44256e-18)
(17.6306 2.14887 -6.4274e-19)
(17.2465 1.73045 -5.98626e-21)
(16.8783 1.40974 -5.37269e-21)
(16.5009 1.14306 0)
(16.1195 0.92517 -4.52987e-19)
(15.7383 0.751519 1.36545e-19)
(15.3611 0.618032 8.51204e-19)
(14.9908 0.520981 -5.95824e-19)
(14.63 0.456697 1.6141e-18)
(14.2808 0.421308 -8.40129e-19)
(13.9447 0.410518 0)
(13.6222 0.419396 -1.63157e-18)
(13.3123 0.442245 -5.73892e-19)
(13.0117 0.472682 6.46976e-19)
(12.7132 0.503565 -4.0043e-18)
(12.4082 0.527283 -7.03687e-19)
(12.0829 0.535232 -1.46811e-18)
(11.724 0.518405 1.52152e-18)
(11.2887 0.464741 1.59858e-18)
(10.8115 0.382549 -3.271e-18)
(10.0686 0.241312 -1.1216e-19)
(10.8532 7.9978 0)
(11.4172 8.18773 4.8675e-20)
(11.9436 8.33495 6.78618e-19)
(12.4662 8.46634 2.18373e-18)
(12.9952 8.5632 -1.49599e-18)
(13.5315 8.61759 2.13065e-19)
(14.0793 8.62312 -3.81562e-20)
(14.6382 8.57075 -1.60181e-18)
(15.1998 8.45156 -9.03543e-20)
(15.7546 8.25902 -2.34312e-19)
(16.2966 7.98744 8.22903e-19)
(16.8098 7.63138 -7.1985e-19)
(17.2656 7.19096 -4.06669e-19)
(17.6399 6.67413 4.77024e-19)
(17.9191 6.09744 0)
(18.0966 5.48588 0)
(18.1709 4.86141 1.92591e-18)
(18.1449 4.24291 1.43385e-20)
(18.0252 3.64694 -1.31348e-18)
(17.8213 3.08679 6.93183e-20)
(17.5422 2.57388 -1.9664e-19)
(17.2379 2.15417 1.88481e-19)
(16.9347 1.82556 -1.43766e-21)
(16.6164 1.54702 0)
(16.2892 1.31447 -6.36486e-20)
(15.9579 1.12404 7.62306e-19)
(15.6269 0.97204 -9.91728e-19)
(15.2996 0.854927 1.14237e-18)
(14.9791 0.769163 -8.48286e-19)
(14.6681 0.711097 0)
(14.3686 0.676809 7.86789e-19)
(14.0822 0.661997 1.77675e-18)
(13.8096 0.661922 -9.06642e-19)
(13.5501 0.67149 1.02398e-18)
(13.3006 0.685232 5.73124e-19)
(13.0571 0.697644 -1.09082e-18)
(12.8122 0.702793 1.71905e-18)
(12.5578 0.695716 -1.20566e-18)
(12.2659 0.668267 -9.343e-19)
(11.9551 0.629145 -1.57151e-19)
(11.487 0.547486 2.58393e-18)
(11.2336 7.40747 -8.19074e-19)
(11.7096 7.55146 -2.83942e-18)
(12.1521 7.66302 2.76668e-18)
(12.5866 7.76268 0)
(13.0214 7.83701 -1.27509e-19)
(13.4586 7.88121 0)
(13.9029 7.8915 -4.15664e-18)
(14.3559 7.86172 3.0224e-18)
(14.8135 7.78506 1.37033e-18)
(15.2709 7.65577 -1.47998e-18)
(15.7257 7.46901 1.67467e-19)
(16.1685 7.21809 -1.15167e-19)
(16.5793 6.89833 3.53433e-19)
(16.9393 6.51015 5.52001e-19)
(17.2353 6.06141 1.01616e-19)
(17.4566 5.56789 -6.62044e-19)
(17.5959 5.04572 5.72027e-19)
(17.6502 4.51092 -6.93485e-19)
(17.6202 3.97913 0)
(17.5105 3.46454 -2.66639e-19)
(17.3261 2.98006 2.73507e-19)
(17.1047 2.57369 2.473e-20)
(16.8711 2.24781 3.67952e-21)
(16.6174 1.96576 0)
(16.35 1.72493 5.1902e-20)
(16.0741 1.52259 7.74348e-20)
(15.7943 1.35585 0)
(15.5147 1.22164 0)
(15.2384 1.11681 2.03991e-21)
(14.968 1.03805 0)
(14.7058 0.981875 -9.51518e-19)
(14.4532 0.944587 0)
(14.2115 0.922274 1.50328e-18)
(13.9806 0.910861 -1.55762e-18)
(13.7592 0.906137 0)
(13.5456 0.904223 8.85864e-19)
(13.3364 0.901286 -9.2391e-19)
(13.1274 0.894774 4.65636e-19)
(12.9047 0.880437 1.47834e-18)
(12.6777 0.865059 -1.31322e-19)
(12.3786 0.829114 -3.083e-18)
(11.5483 6.87481 2.17917e-18)
(11.9503 6.98317 8.07753e-20)
(12.3228 7.06637 -1.22216e-18)
(12.6849 7.14029 -2.22592e-18)
(13.0433 7.19516 -4.81794e-18)
(13.4006 7.22823 5.57515e-18)
(13.7611 7.23742 -2.78013e-19)
(14.1272 7.21874 -2.47975e-18)
(14.4973 7.16734 4.58269e-18)
(14.8691 7.07885 -4.36464e-19)
(15.2425 6.94949 -1.89666e-18)
(15.6125 6.77333 4.57774e-19)
(15.9659 6.5444 -4.74382e-19)
(16.2896 6.2597 8.5403e-19)
(16.5731 5.92167 -1.30076e-19)
(16.806 5.53875 0)
(16.9793 5.12089 2.85922e-19)
(17.0864 4.6794 -1.92833e-19)
(17.1242 4.22675 -6.33712e-21)
(17.0927 3.7755 -1.57968e-19)
(16.993 3.33796 2.20762e-19)
(16.8499 2.96087 -3.6155e-20)
(16.6848 2.65049 -3.0395e-21)
(16.4962 2.37578 -7.82342e-19)
(16.29 2.13573 1.75492e-18)
(16.0715 1.92889 -1.04432e-18)
(15.8454 1.75344 1.27786e-18)
(15.6158 1.60719 -1.56691e-18)
(15.3859 1.48767 -1.95541e-18)
(15.1585 1.39215 1.76879e-18)
(14.9355 1.31774 5.11099e-19)
(14.7187 1.26141 8.64552e-19)
(14.5091 1.22004 -2.67114e-18)
(14.3069 1.19043 2.5284e-18)
(14.1115 1.16937 -1.3004e-18)
(13.9219 1.1541 -6.95735e-19)
(13.7368 1.14212 0)
(13.5536 1.13176 -7.63924e-19)
(13.3662 1.1211 -7.92679e-19)
(13.1791 1.11393 -8.13998e-19)
(12.9628 1.10062 8.46345e-19)
(11.8064 6.39892 3.00778e-21)
(12.146 6.47961 2.95879e-19)
(12.4597 6.54043 1.07496e-18)
(12.762 6.59383 -1.91424e-18)
(13.0582 6.63261 7.559e-18)
(13.3509 6.65524 -6.37999e-18)
(13.644 6.66075 8.02014e-18)
(13.9399 6.64663 3.8811e-18)
(14.2381 6.60953 -1.99872e-18)
(14.538 6.54637 -6.06003e-19)
(14.8403 6.45444 -4.3544e-18)
(15.1426 6.32926 1.86558e-19)
(15.4366 6.16529 0)
(15.7138 5.95861 -3.31865e-19)
(15.9668 5.709 4.33753e-19)
(16.1876 5.42023 -5.6458e-19)
(16.3678 5.09743 0)
(16.5004 4.74745 6.4243e-19)
(16.5802 4.37878 -1.46173e-18)
(16.6046 4.00098 5.23284e-19)
(16.5717 3.62403 -9.75617e-19)
(16.4948 3.29005 1.10292e-18)
(16.3909 3.00764 4.66554e-20)
(16.2624 2.75186 -2.14111e-20)
(16.1144 2.5231 1.87269e-18)
(15.9515 2.32109 -1.89277e-18)
(15.7779 2.14509 6.78777e-20)
(15.5977 1.99386 1.54304e-19)
(15.4139 1.86579 -1.46991e-18)
(15.2293 1.75898 1.67933e-18)
(15.0459 1.67133 -2.07796e-19)
(14.8653 1.60055 2.24295e-19)
(14.6888 1.54431 -9.82606e-19)
(14.5169 1.50023 4.60047e-19)
(14.3492 1.46593 2.13359e-18)
(14.1855 1.43949 -5.32941e-19)
(14.0253 1.41922 5.92958e-19)
(13.867 1.40376 -1.19707e-18)
(13.708 1.39205 6.23504e-19)
(13.5506 1.38564 6.53104e-19)
(13.3812 1.37916 0)
(12.0157 5.97672 -3.33909e-18)
(12.3024 6.03582 5.97744e-18)
(12.5665 6.07923 5.59191e-18)
(12.8191 6.11672 -1.47011e-17)
(13.0644 6.14279 5.44336e-18)
(13.3048 6.15667 -1.11349e-17)
(13.5436 6.15802 8.98191e-18)
(13.7831 6.14528 -1.2979e-17)
(14.0233 6.11618 1.17696e-17)
(14.2642 6.06861 -4.16754e-19)
(14.507 6.00076 -4.75369e-18)
(14.7505 5.90932 -4.36848e-19)
(14.9898 5.78999 -3.51446e-18)
(15.2193 5.63921 3.47888e-18)
(15.4344 5.45584 -2.68293e-18)
(15.6295 5.2412 2.91543e-18)
(15.7981 4.99749 0)
(15.9342 4.72827 -1.99568e-18)
(16.0326 4.43863 2.47249e-18)
(16.0895 4.13494 -2.34547e-18)
(16.1018 3.82431 -1.63095e-19)
(16.0744 3.54187 3.99429e-18)
(16.0195 3.29681 7.89857e-20)
(15.9412 3.0699 -1.58054e-18)
(15.8436 2.86236 -3.03866e-24)
(15.7303 2.67484 0)
(15.6047 2.50743 -2.1779e-18)
(15.4704 2.35974 2.15557e-18)
(15.3301 2.23095 0)
(15.1862 2.11997 -1.60717e-19)
(15.0407 2.02544 0)
(14.8954 1.94591 1.52582e-18)
(14.7514 1.8798 -1.72858e-18)
(14.6095 1.8255 -1.68579e-18)
(14.4699 1.7813 3.4525e-18)
(14.3328 1.74591 -1.9922e-18)
(14.1984 1.71819 -2.33683e-19)
(14.0658 1.69699 4.86652e-19)
(13.934 1.68153 -5.03121e-19)
(13.8042 1.67223 0)
(13.6705 1.66539 -5.19638e-19)
(12.1768 5.62113 0)
(12.4205 5.66425 -8.14346e-18)
(12.6444 5.69506 3.89285e-19)
(12.8572 5.72104 1.08195e-17)
(13.0622 5.73782 6.5751e-18)
(13.2618 5.74517 -6.75663e-18)
(13.4587 5.7431 6.09911e-18)
(13.6547 5.7306 5.80422e-18)
(13.8504 5.70613 1.08222e-17)
(14.0458 5.66823 -1.36837e-17)
(14.2421 5.61567 1.3291e-18)
(14.4388 5.54606 1.26996e-18)
(14.6328 5.45612 -4.30625e-18)
(14.8207 5.34304 3.13281e-18)
(14.9994 5.20558 4.34854e-18)
(15.1651 5.04405 -3.30917e-18)
(15.3134 4.85924 -3.80518e-18)
(15.4396 4.65283 3.90384e-18)
(15.5394 4.42769 0)
(15.6093 4.18778 4.46318e-19)
(15.6458 3.93777 4.47641e-19)
(15.6491 3.70555 3.40019e-18)
(15.6274 3.49963 -6.90879e-18)
(15.5854 3.30537 3.58919e-18)
(15.5257 3.1243 1.95624e-18)
(15.451 2.95746 3.74787e-20)
(15.3642 2.80546 -2.07656e-18)
(15.2678 2.66844 3.36055e-20)
(15.1643 2.54619 2.40201e-21)
(15.0556 2.43819 2.54142e-18)
(14.9435 2.34371 -2.57002e-18)
(14.8295 2.26189 -1.40487e-18)
(14.7148 2.19176 1.49977e-18)
(14.6004 2.1323 -1.52327e-18)
(14.4867 2.08232 1.33045e-18)
(14.3743 2.04102 1.21944e-18)
(14.2636 2.00765 -6.10207e-19)
(14.1544 1.98126 2.14059e-19)
(14.0465 1.96123 0)
(13.9406 1.94751 0)
(13.8346 1.93755 4.85088e-21)
(12.2964 5.33477 -3.77089e-18)
(12.5064 5.36651 4.20288e-18)
(12.6989 5.38835 -1.75725e-18)
(12.8809 5.40603 -3.35983e-18)
(13.0551 5.41603 0)
(13.2236 5.41846 6.3403e-18)
(13.3888 5.41353 -1.50418e-17)
(13.5523 5.40057 9.26756e-18)
(13.7146 5.37851 -2.95473e-18)
(13.8759 5.34632 2.64711e-18)
(14.0372 5.30318 -1.26923e-18)
(14.1984 5.24742 -1.13249e-17)
(14.3574 5.17658 1.98704e-17)
(14.5119 5.08849 -8.52243e-18)
(14.66 4.9821 -1.00962e-18)
(14.7991 4.8573 -4.14288e-18)
(14.9261 4.71425 1.25468e-17)
(15.0376 4.55371 -5.4719e-18)
(15.1304 4.37724 -8.20539e-18)
(15.2014 4.18728 3.3919e-18)
(15.2475 3.98681 -9.33302e-19)
(15.2669 3.79756 0)
(15.2648 3.62686 0)
(15.2458 3.46346 -4.03625e-18)
(15.2115 3.30886 4.04112e-18)
(15.1639 3.16419 6.2429e-20)
(15.105 3.03025 0)
(15.0369 2.90746 2.325e-18)
(14.9614 2.79595 -2.33091e-18)
(14.8802 2.69557 1.86522e-20)
(14.7947 2.60602 -2.03829e-20)
(14.7063 2.52682 0)
(14.616 2.45743 1.31241e-18)
(14.5247 2.3972 -1.38655e-18)
(14.433 2.34534 1.79755e-19)
(14.3415 2.30132 -1.85343e-19)
(14.2509 2.26468 0)
(14.1614 2.23466 -1.95732e-19)
(14.0729 2.21076 -4.05281e-19)
(13.986 2.19282 1.98052e-19)
(13.9005 2.17915 6.14696e-19)
(12.3872 5.10151 0)
(12.5701 5.12493 0)
(12.7376 5.14022 -6.57083e-18)
(12.8952 5.15184 -1.27066e-17)
(13.0453 5.15693 1.93069e-17)
(13.1896 5.15578 -1.52517e-17)
(13.3303 5.14871 -5.75553e-18)
(13.4688 5.13528 1.20492e-17)
(13.6055 5.1147 -1.15294e-17)
(13.7407 5.08625 1.15012e-17)
(13.8752 5.04937 0)
(14.0091 5.00283 0)
(14.1409 4.94485 1.03036e-17)
(14.2691 4.87379 -2.02677e-17)
(14.3923 4.78881 1.93288e-17)
(14.5089 4.68972 -9.40819e-18)
(14.6166 4.57645 -1.17558e-18)
(14.713 4.44932 1.02877e-17)
(14.7956 4.30919 -6.98901e-18)
(14.8622 4.15754 0)
(14.9101 3.99627 4.83805e-19)
(14.9366 3.84222 0)
(14.9454 3.70147 -4.48816e-18)
(14.9402 3.56524 8.76345e-18)
(14.9222 3.43485 -4.27424e-18)
(14.8928 3.31137 0)
(14.8535 3.19559 0)
(14.8059 3.08805 2.18994e-18)
(14.7512 2.98901 -2.33832e-18)
(14.6908 2.89857 -2.46241e-18)
(14.626 2.81664 2.48037e-18)
(14.5577 2.74302 2.58977e-18)
(14.4869 2.67741 -2.59793e-18)
(14.4145 2.61942 0)
(14.3411 2.56853 -2.16797e-20)
(14.2671 2.52441 0)
(14.1934 2.48676 -5.6275e-21)
(14.1201 2.45496 -2.28928e-20)
(14.0474 2.42866 7.95133e-19)
(13.976 2.40764 -1.12701e-18)
(13.9059 2.39083 3.71757e-19)
(12.4574 4.90801 0)
(12.6182 4.92522 -7.98544e-19)
(12.7653 4.93565 0)
(12.9031 4.94281 6.11115e-18)
(13.0336 4.9443 -6.01128e-18)
(13.1587 4.94055 0)
(13.2799 4.93195 5.81576e-18)
(13.3986 4.91816 5.58181e-18)
(13.5152 4.89863 -1.46595e-17)
(13.63 4.87283 0)
(13.7436 4.84037 1.09755e-17)
(13.8562 4.80036 -2.18696e-17)
(13.9666 4.75147 1.08656e-17)
(14.0739 4.69249 0)
(14.177 4.6228 -1.00257e-17)
(14.2749 4.54222 1.11632e-17)
(14.366 4.45061 1.05388e-17)
(14.4484 4.34811 -1.16487e-17)
(14.5203 4.23521 -1.07564e-18)
(14.5802 4.11284 0)
(14.6258 3.98222 0)
(14.6545 3.85647 -5.73615e-19)
(14.6687 3.74048 2.60553e-19)
(14.6715 3.62734 4.46244e-18)
(14.6638 3.51812 3.45296e-19)
(14.6465 3.41374 -4.47601e-18)
(14.6207 3.31493 4.6118e-18)
(14.5876 3.2222 -4.46324e-18)
(14.5482 3.13589 -2.68662e-18)
(14.5035 3.05616 2.37983e-18)
(14.4546 2.98306 -2.46998e-18)
(14.4021 2.91654 2.46513e-18)
(14.347 2.85646 0)
(14.29 2.80259 -2.76495e-18)
(14.2314 2.75457 2.61532e-18)
(14.1721 2.71221 0)
(14.1124 2.67532 5.23578e-21)
(14.0527 2.64343 7.11791e-19)
(13.9933 2.61625 -7.31487e-19)
(13.9346 2.59359 3.31814e-19)
(13.8769 2.57482 -3.44749e-19)
(12.5127 4.74512 0)
(12.655 4.75762 7.38002e-19)
(12.785 4.7644 -5.90168e-18)
(12.9064 4.76823 1.14917e-17)
(13.021 4.76709 -2.31342e-17)
(13.1302 4.76149 1.16319e-17)
(13.2357 4.75181 0)
(13.3385 4.73785 5.5819e-18)
(13.4389 4.71919 3.34503e-17)
(13.5374 4.69543 -2.25238e-17)
(13.6343 4.66631 0)
(13.7299 4.63118 -2.77891e-18)
(13.8233 4.58904 7.90173e-18)
(13.9138 4.539 -2.12507e-19)
(14.0007 4.4806 -1.04988e-17)
(14.0832 4.41372 1.13562e-17)
(14.1602 4.33823 -9.87775e-18)
(14.2303 4.2542 9.45075e-18)
(14.2923 4.16193 -9.47847e-18)
(14.3449 4.06203 -9.29636e-18)
(14.3865 3.95532 8.0109e-18)
(14.4145 3.85209 -4.00949e-18)
(14.4308 3.75625 5.08186e-18)
(14.4379 3.66226 -4.80105e-18)
(14.4363 3.571 -8.9401e-19)
(14.4269 3.48321 4.53628e-18)
(14.4103 3.39951 0)
(14.3875 3.32035 0)
(14.3592 3.24605 -4.43575e-18)
(14.3263 3.17682 4.70708e-18)
(14.2894 3.11275 0)
(14.2493 3.05385 3.08351e-19)
(14.2066 3.00007 3.1154e-19)
(14.1618 2.9513 2.65727e-18)
(14.1155 2.90727 -2.65429e-18)
(14.0681 2.86788 -1.28019e-18)
(14.0202 2.83301 1.27551e-18)
(13.9719 2.8023 -4.89656e-19)
(13.9235 2.77552 1.30932e-18)
(13.8755 2.75254 -6.35513e-19)
(13.8282 2.73299 -8.14947e-20)
(12.5568 4.60632 5.47134e-18)
(12.6835 4.61521 6.67395e-18)
(12.7991 4.61923 -1.27561e-19)
(12.9067 4.62055 0)
(13.0079 4.61749 0)
(13.104 4.61057 0)
(13.1965 4.6002 0)
(13.2861 4.58623 -2.16851e-17)
(13.3734 4.56834 3.82902e-17)
(13.4585 4.54627 -2.19475e-17)
(13.5419 4.5198 2.14566e-17)
(13.6238 4.48847 -1.36025e-17)
(13.7034 4.45154 2.37262e-17)
(13.7803 4.40834 -2.90428e-17)
(13.854 4.35856 1.05218e-17)
(13.9239 4.3021 7.63483e-18)
(13.9891 4.2389 -9.98652e-18)
(14.0487 4.16899 1.178e-18)
(14.1018 4.09258 -1.22557e-18)
(14.1474 4.01011 1.18704e-17)
(14.1843 3.92213 1.04221e-17)
(14.2103 3.8368 -1.72558e-17)
(14.2268 3.75722 -5.51606e-19)
(14.2358 3.67895 0)
(14.2379 3.60265 5.5203e-19)
(14.2334 3.52892 -5.82599e-19)
(14.223 3.45827 -4.01418e-18)
(14.2073 3.39107 4.58e-18)
(14.187 3.32761 -4.65329e-18)
(14.1627 3.26807 4.63514e-18)
(14.135 3.21256 4.72059e-18)
(14.1043 3.16112 -4.99212e-18)
(14.0713 3.11376 -2.93146e-19)
(14.0363 3.0704 2.41513e-18)
(13.9998 3.03086 -1.94965e-18)
(13.9621 2.99507 0)
(13.9237 2.96298 0)
(13.8849 2.93429 -1.531e-19)
(13.8458 2.90884 3.12626e-19)
(13.8067 2.88653 3.14042e-19)
(13.768 2.86718 7.60508e-20)
(12.5924 4.48682 0)
(12.7056 4.49292 -1.27054e-18)
(12.8089 4.49484 1.0178e-17)
(12.9048 4.49428 -1.03819e-17)
(12.9946 4.48982 -2.05228e-17)
(13.0797 4.48199 2.10222e-17)
(13.1612 4.47121 1.02253e-17)
(13.2399 4.45736 -2.11912e-17)
(13.3162 4.44022 -2.08954e-17)
(13.3903 4.41959 2.12326e-17)
(13.4627 4.39533 0)
(13.5332 4.36708 -1.04769e-17)
(13.6016 4.3343 2.07289e-17)
(13.6674 4.29651 -2.34122e-17)
(13.7303 4.25348 0)
(13.7897 4.20517 -2.57896e-18)
(13.8452 4.15155 2.5218e-18)
(13.8959 4.09265 0)
(13.9412 4.02863 1.16733e-18)
(13.9804 3.95983 -2.30763e-18)
(14.0127 3.88663 1.05192e-17)
(14.0361 3.81557 -1.03364e-17)
(14.0518 3.74913 1.15988e-18)
(14.0615 3.68368 8.50179e-18)
(14.0653 3.61974 -8.45354e-18)
(14.0639 3.55777 5.51957e-19)
(14.0575 3.49818 -5.09293e-18)
(14.0468 3.44127 4.5182e-18)
(14.0323 3.38728 5.77272e-19)
(14.0143 3.33637 0)
(13.9933 3.28863 0)
(13.9698 3.24413 0)
(13.9442 3.20286 -2.31934e-18)
(13.9169 3.1648 2.3084e-18)
(13.8881 3.1298 -2.87688e-19)
(13.8582 3.09783 -2.34956e-18)
(13.8276 3.06885 2.63367e-18)
(13.7964 3.04265 0)
(13.7648 3.01908 4.11346e-21)
(13.7332 2.99809 -5.92428e-19)
(13.7016 2.97963 2.87615e-19)
(12.6213 4.38302 4.70436e-18)
(12.723 4.38696 0)
(12.8155 4.38727 -2.36845e-17)
(12.9013 4.38531 1.94318e-17)
(12.9814 4.37984 0)
(13.057 4.37142 1.95792e-17)
(13.1293 4.36043 -1.60464e-19)
(13.1988 4.34682 1.994e-17)
(13.2659 4.33041 -3.05238e-17)
(13.3308 4.31106 -2.01558e-17)
(13.3938 4.28868 2.04789e-17)
(13.4551 4.26302 5.01868e-18)
(13.5141 4.23366 0)
(13.5707 4.20025 0)
(13.6246 4.16264 -5.09782e-18)
(13.6754 4.12084 2.23607e-17)
(13.7227 4.07483 -4.40696e-17)
(13.766 4.02466 1.93083e-17)
(13.8046 3.97048 2.40845e-18)
(13.8383 3.91254 2.38364e-18)
(13.8662 3.85112 -1.13117e-18)