/*--------------------------------*- C++ -*----------------------------------*\
| =========                 |                                                 |
| \\      /  F ield         | OpenFOAM: The Open Source CFD Toolbox           |
|  \\    /   O peration     | Version:  5.x                                   |
|   \\  /    A nd           | Web:      www.OpenFOAM.org                      |
|    \\/     M anipulation  |                                                 |
\*---------------------------------------------------------------------------*/
FoamFile
{
    version     2.0;
    format      ascii;
    class       volVectorField;
    location    "400";
    object      U;
}
// * * * * * * * * * * * * * * * * * * * * * * * * * * * * * * * * * * * * * //

dimensions      [0 1 -1 0 0 0 0];

internalField   nonuniform List<vector> 
11040
(
(-4.50049 25.0695 0)
(-0.62904 30.5575 -1.5313e-19)
(5.69746 33.76 1.58406e-17)
(11.5729 32.7265 1.83037e-17)
(16.0313 29.4265 3.80014e-17)
(19.0992 25.2715 -1.81849e-17)
(20.9986 20.928 -1.77109e-17)
(21.9252 16.7889 1.76676e-17)
(22.0528 13.0675 3.86238e-17)
(21.4714 9.79736 1.24305e-18)
(19.872 6.694 1.67567e-17)
(17.6933 4.20248 -7.12016e-19)
(15.8085 2.69565 1.03107e-17)
(14.4959 1.9159 6.9005e-18)
(13.202 1.32243 2.87117e-18)
(11.5906 0.756642 -5.79444e-19)
(9.67162 0.288067 3.11331e-18)
(7.54937 -0.0359743 8.27841e-19)
(5.24549 -0.22321 -9.76416e-19)
(2.7713 -0.276204 -1.45803e-17)
(0.474082 -0.155678 -2.22339e-17)
(-1.12107 0.0323804 -3.16478e-17)
(-2.00053 0.149411 -6.01017e-17)
(-2.53327 0.235389 -3.81942e-18)
(-2.82901 0.304806 -1.63372e-20)
(-2.97029 0.359827 2.00383e-18)
(-3.03133 0.408139 -1.30476e-16)
(-3.06475 0.457481 2.04853e-18)
(-3.10127 0.508141 -1.33546e-16)
(-3.15935 0.559835 1.28762e-16)
(-3.25027 0.616297 1.99653e-18)
(-3.38332 0.680089 9.56463e-19)
(-3.56177 0.750617 -9.02276e-19)
(-3.77157 0.821879 0)
(-3.96499 0.879783 2.01675e-16)
(-4.04773 0.902348 0)
(-3.91192 0.866131 0)
(-3.53251 0.757546 -3.68758e-19)
(-2.74847 0.490783 4.41425e-19)
(-1.62101 -0.142499 -2.15842e-16)
(-1.56443 -0.998795 -1.94721e-16)
(-0.271519 24.3766 0)
(4.02767 28.5002 0)
(11.7066 30.045 -8.95944e-18)
(18.2361 28.7666 9.3353e-18)
(22.916 26.6741 -2.25088e-17)
(26.1825 24.3221 2.28496e-17)
(28.2941 21.652 1.08368e-17)
(29.3685 18.7182 1.38949e-18)
(29.5545 15.6736 -9.0072e-19)
(29.0139 12.6857 1.05434e-17)
(27.6306 9.65742 -1.17294e-18)
(25.3276 7.05161 0)
(22.7264 5.18288 0)
(20.4136 3.88505 -3.17118e-18)
(18.3616 2.82095 -1.52052e-18)
(16.2746 1.96058 5.62739e-19)
(14.0209 1.29972 0)
(11.5458 0.8058 -3.53424e-19)
(8.80793 0.462134 1.32549e-18)
(5.85214 0.260612 1.29159e-18)
(2.8438 0.182515 7.67688e-18)
(0.495422 0.196958 1.11074e-17)
(-0.917036 0.232118 1.68029e-18)
(-1.81894 0.273132 -2.94411e-17)
(-2.372 0.318772 2.79017e-17)
(-2.69545 0.365518 1.99892e-18)
(-2.89843 0.415867 6.72501e-17)
(-3.04918 0.469529 -1.08947e-18)
(-3.18294 0.526403 7.23801e-17)
(-3.3224 0.587992 -7.19825e-17)
(-3.47523 0.655091 -7.24033e-17)
(-3.64245 0.7279 7.12711e-17)
(-3.81579 0.803335 -1.40199e-21)
(-3.97516 0.873748 -1.45014e-18)
(-4.0832 0.925841 -5.75421e-17)
(-4.08465 0.938282 0)
(-3.93182 0.891714 -3.97523e-19)
(-3.51768 0.775357 9.4381e-17)
(-2.55377 0.553188 9.62291e-17)
(-0.740916 -0.0341449 8.98365e-17)
(-0.276244 -1.14676 1.27354e-16)
(1.51606 23.4474 0)
(5.46929 26.5826 0)
(10.8789 28.1847 2.34452e-18)
(15.9389 28.07 -6.76885e-18)
(20.0349 26.6933 6.98109e-18)
(23.3956 24.6014 -8.31998e-18)
(26.0814 22.1101 -6.32062e-18)
(28.0282 19.3969 0)
(29.2072 16.5908 -9.67941e-18)
(29.6609 13.8037 -5.39638e-18)
(29.33 10.9654 0)
(28.0455 8.43875 0)
(26.1284 6.4762 -3.55981e-18)
(24.0506 4.9872 -2.25072e-18)
(21.9244 3.72731 -5.15881e-20)
(19.6727 2.70084 5.41032e-20)
(17.2569 1.91214 0)
(14.6539 1.32864 0)
(11.8028 0.919749 -2.90435e-19)
(8.67135 0.648879 8.18378e-19)
(5.34739 0.478587 -9.23401e-19)
(2.5421 0.378479 4.3845e-18)
(0.634449 0.319462 -3.52128e-20)
(-0.682209 0.299336 -1.4005e-17)
(-1.53581 0.311378 -1.13967e-18)
(-2.08121 0.34374 -1.23945e-18)
(-2.44716 0.391344 -1.5891e-21)
(-2.70727 0.447341 1.38652e-18)
(-2.91168 0.508652 0)
(-3.09221 0.57426 0)
(-3.26449 0.643156 9.50169e-17)
(-3.43596 0.714595 -9.26481e-17)
(-3.60725 0.785115 4.41542e-17)
(-3.77029 0.847763 0)
(-3.90007 0.891153 3.94247e-17)
(-3.94317 0.89196 3.70989e-17)
(-3.83204 0.815206 0)
(-3.47264 0.640201 1.31484e-19)
(-2.57961 0.334396 -2.19249e-19)
(-0.786851 -0.366484 0)
(-0.207772 -1.70152 -5.47967e-17)
(3.33342 22.3864 1.03054e-19)
(7.0303 24.8431 -1.06376e-19)
(11.2553 26.1986 2.97826e-19)
(15.6806 26.3081 0)
(19.5436 25.2712 -7.24282e-18)
(22.6683 23.5466 0)
(25.1377 21.4086 1.4073e-17)
(26.9773 19.0208 1.17738e-20)
(28.2088 16.5222 1.35944e-18)
(28.8835 14.028 8.27233e-18)
(29.0057 11.5017 1.18981e-18)
(28.4325 9.18442 2.76569e-18)
(27.2767 7.31115 6.31457e-18)
(25.828 5.84619 1.75624e-18)
(24.1728 4.57295 0)
(22.2453 3.48158 1.73331e-19)
(20.0254 2.60165 2.52555e-19)
(17.529 1.92998 6.99784e-19)
(14.7347 1.44799 4.69963e-19)
(11.6034 1.11419 -4.99772e-19)
(8.14566 0.871274 -2.74306e-18)
(5.0024 0.671391 -3.92858e-18)
(2.59428 0.505413 0)
(0.78466 0.397217 2.51014e-17)
(-0.45008 0.349037 -1.51947e-17)
(-1.26775 0.346174 1.42244e-17)
(-1.82031 0.376033 -2.97592e-17)
(-2.20532 0.424291 0)
(-2.49312 0.482795 0)
(-2.72365 0.547163 0)
(-2.92329 0.61523 -3.38816e-17)
(-3.10995 0.686114 3.46376e-17)
(-3.29443 0.756141 -1.00256e-18)
(-3.47694 0.817053 -3.17321e-17)
(-3.63754 0.854936 -2.77831e-17)
(-3.72436 0.842569 -2.73438e-17)
(-3.67146 0.73752 -4.7909e-17)
(-3.39988 0.511876 -4.19242e-17)
(-2.65308 0.139668 -1.50838e-19)
(-1.0712 -0.602862 -3.48473e-17)
(-0.500376 -2.03181 2.11623e-17)
(5.15324 21.222 0)
(8.39356 23.1494 1.52964e-19)
(11.7634 24.2665 -5.3593e-20)
(15.402 24.5889 2.86648e-19)
(18.7949 24.0173 5.43835e-18)
(21.7021 22.7617 -5.06304e-18)
(24.1087 21.0128 -1.85217e-18)
(25.9751 18.9189 -6.51751e-18)
(27.2761 16.6367 0)
(28.0468 14.305 -7.62222e-18)
(28.3254 11.9429 0)
(28.0551 9.74235 -1.6867e-18)
(27.3094 7.92098 -3.40676e-18)
(26.3023 6.48615 0)
(25.1277 5.259 5.54136e-19)
(23.7082 4.19486 0)
(21.9723 3.31334 0)
(19.8961 2.6176 -3.71367e-19)
(17.4463 2.09736 -5.51241e-19)
(14.5743 1.7185 0)
(11.2314 1.41721 2.05484e-18)
(7.96112 1.13177 0)
(5.15546 0.851012 0)
(2.80189 0.617225 -8.35813e-18)
(1.04756 0.467177 0)
(-0.159396 0.398434 1.14826e-17)
(-0.97368 0.38957 2.40505e-17)
(-1.53366 0.41579 0)
(-1.93738 0.462364 0)
(-2.24115 0.519967 0)
(-2.48533 0.584274 2.75565e-17)
(-2.69869 0.653604 2.33811e-17)
(-2.9023 0.723582 -2.42877e-17)
(-3.10567 0.783735 -7.56162e-19)
(-3.29661 0.816404 6.97175e-19)
(-3.43014 0.790271 0)
(-3.44766 0.657238 3.75493e-17)
(-3.28545 0.381795 -3.27249e-17)
(-2.72485 -0.0534549 2.95232e-17)
(-1.44748 -0.813955 2.66547e-17)
(-0.956271 -2.2241 3.58946e-20)
(6.82575 19.9956 -2.2963e-19)
(9.58779 21.5023 -2.7186e-20)
(12.3215 22.4107 7.04792e-19)
(15.2766 22.8337 -1.38255e-19)
(18.19 22.5915 -6.51381e-19)
(20.8215 21.7478 4.96809e-18)
(23.1036 20.4176 -6.1162e-18)
(24.9683 18.7017 5.32702e-18)
(26.3505 16.7261 2.41071e-18)
(27.2427 14.6201 -1.22513e-18)
(27.6645 12.4317 0)
(27.5869 10.3247 0)
(27.0656 8.50886 6.2141e-19)
(26.2792 7.04539 -6.58816e-19)
(25.3605 5.82184 -8.35124e-19)
(24.2908 4.78362 -2.29778e-19)
(23.003 3.93221 7.76391e-19)
(21.4463 3.2648 1.50001e-19)
(19.5539 2.76532 1.12976e-18)
(17.2331 2.39707 -2.54649e-18)
(14.3502 2.08796 3.80439e-18)
(11.293 1.76356 -2.05313e-18)
(8.35644 1.39648 1.21481e-18)
(5.56428 1.02614 1.50421e-18)
(3.21853 0.730528 -9.10353e-18)
(1.46239 0.545174 1.19819e-20)
(0.237719 0.459407 -2.27833e-17)
(-0.600274 0.440635 -1.87769e-17)
(-1.18864 0.460845 0)
(-1.61353 0.502473 0)
(-1.9353 0.557467 -1.98955e-17)
(-2.1955 0.622153 -4.32772e-17)
(-2.42643 0.690726 -1.2713e-18)
(-2.64987 0.750026 1.93428e-17)
(-2.86723 0.778319 1.92253e-17)
(-3.04723 0.74007 -1.75081e-17)
(-3.14214 0.581969 4.82312e-19)
(-3.10397 0.261265 5.36163e-17)
(-2.75494 -0.231456 -4.78422e-17)
(-1.83608 -1.00644 8.21987e-20)
(-1.47965 -2.32246 1.55496e-17)
(8.33111 18.745 0)
(10.6504 19.9173 -5.95045e-19)
(12.8861 20.6534 -1.31026e-18)
(15.2768 21.0966 -2.74142e-19)
(17.7166 21.0706 -2.18378e-19)
(20.0246 20.5559 7.81755e-19)
(22.1195 19.6049 -2.814e-18)
(23.923 18.2739 1.20816e-18)
(25.3506 16.6501 0)
(26.363 14.8364 1.51777e-18)
(26.9533 12.8856 -2.91162e-18)
(27.0847 10.9284 2.61125e-18)
(26.7773 9.15139 -2.8106e-19)
(26.1633 7.65398 0)
(25.3841 6.39549 2.82825e-19)
(24.4852 5.33973 2.28889e-19)
(23.4507 4.48443 -2.04643e-19)
(22.2605 3.82994 -5.77308e-19)
(20.8708 3.36235 3.97807e-19)
(19.1926 3.04447 9.67945e-19)
(17.0378 2.79216 -1.07919e-18)
(14.5812 2.50956 -1.48521e-18)
(11.9445 2.13832 0)
(9.07455 1.6813 2.12698e-18)
(6.28354 1.22924 5.13849e-18)
(3.89993 0.872108 -7.76712e-18)
(2.08417 0.647676 5.60991e-18)
(0.794947 0.537217 1.73992e-17)
(-0.104464 0.50193 -2.39073e-18)
(-0.741039 0.509874 -2.38504e-21)
(-1.20444 0.544299 -1.41123e-17)
(-1.5551 0.597257 -4.58653e-18)
(-1.83922 0.660655 -1.53671e-17)
(-2.09327 0.718205 0)
(-2.33692 0.74352 -1.53217e-17)
(-2.55912 0.696768 1.51786e-17)
(-2.73014 0.520189 -1.36489e-17)
(-2.82166 0.164459 -4.5609e-17)
(-2.6971 -0.374324 1.99407e-17)
(-2.16237 -1.16388 6.95625e-20)
(-1.99374 -2.36505 -2.813e-17)
(9.66074 17.502 1.39959e-18)
(11.5939 18.411 -4.00478e-19)
(13.4308 19.0059 -2.8047e-19)
(15.3671 19.4229 1.11885e-18)
(17.3754 19.5206 -4.01985e-19)
(19.3414 19.249 -8.57497e-19)
(21.1983 18.6162 1.79946e-18)
(22.8747 17.6408 1.77029e-18)
(24.2847 16.3723 -1.43732e-18)
(25.3731 14.8824 0)
(26.1151 13.2166 -8.56328e-19)
(26.4608 11.473 1.35359e-19)
(26.3921 9.80301 -9.83124e-21)
(25.9855 8.31846 3.62203e-19)
(25.3588 7.03393 -1.78098e-20)
(24.5857 5.94374 1.85295e-20)
(23.6905 5.05213 0)
(22.6911 4.36776 0)
(21.596 3.88923 -1.77748e-18)
(20.3836 3.59653 1.5647e-18)
(18.9229 3.41496 -1.05273e-18)
(17.2442 3.23527 1.09602e-18)
(15.2988 2.96585 1.30704e-18)
(12.8939 2.54865 0)
(10.154 2.02657 1.77065e-18)
(7.38384 1.50078 -2.11143e-18)
(4.9282 1.07288 -5.1366e-18)
(2.99258 0.791069 0)
(1.57925 0.640304 0)
(0.574426 0.577088 2.05759e-18)
(-0.144049 0.566858 1.75489e-17)
(-0.668506 0.591728 1.50408e-17)
(-1.06431 0.639482 3.04235e-17)
(-1.38488 0.690686 1.88612e-18)
(-1.67162 0.714114 0)
(-1.9388 0.664618 -7.8962e-19)
(-2.18167 0.480147 1.24849e-17)
(-2.39629 0.10626 6.79047e-20)
(-2.49154 -0.459732 1.78731e-17)
(-2.33689 -1.25645 1.52424e-17)
(-2.40949 -2.34711 1.2951e-17)
(10.8201 16.2936 -8.42881e-19)
(12.4272 16.9973 -1.03462e-20)
(13.9409 17.4765 1.11474e-18)
(15.5134 17.8458 -2.10377e-18)
(17.1499 18.001 0)
(18.7875 17.8907 -5.14625e-19)
(20.3832 17.5009 1.38661e-18)
(21.8828 16.8267 -1.12254e-18)
(23.2116 15.8871 3.94913e-19)
(24.3125 14.7226 8.4166e-19)
(25.1529 13.3642 3.92515e-20)
(25.6769 11.88 -1.50203e-18)
(25.8393 10.3827 0)
(25.6665 8.97618 -6.11407e-20)
(25.2375 7.70846 -2.46003e-19)
(24.624 6.60386 2.60546e-19)
(23.8663 5.67644 6.08437e-19)
(22.9988 4.94246 -6.27717e-19)
(22.0591 4.41109 5.22434e-19)
(21.082 4.08218 0)
(20.0461 3.91385 -1.99639e-18)
(18.9782 3.81503 3.59788e-18)
(17.7777 3.68753 -3.05459e-18)
(16.1862 3.43138 -2.17703e-20)
(14.1066 3.01189 2.49315e-18)
(11.6061 2.46542 -2.84135e-18)
(8.93042 1.88401 0)
(6.40952 1.37385 1.01678e-17)
(4.30285 1.00505 4.89019e-18)
(2.69529 0.78498 2.86876e-18)
(1.52293 0.676851 -1.31742e-17)
(0.674611 0.639892 -3.65049e-18)
(0.0557438 0.647918 3.87955e-18)
(-0.409312 0.677994 -1.84766e-18)
(-0.787237 0.694385 -9.98744e-18)
(-1.12291 0.646341 -1.49745e-18)
(-1.44284 0.467791 0)
(-1.77051 0.0987432 1.96595e-17)
(-2.0637 -0.467811 -1.66743e-17)
(-2.25232 -1.2524 -1.41609e-17)
(-2.60336 -2.24804 0)
(11.8212 15.1417 0)
(13.1574 15.6867 0)
(14.408 16.0708 0)
(15.6891 16.3853 5.81468e-18)
(17.0167 16.5561 -3.3169e-18)
(18.3598 16.5417 1.48476e-18)
(19.6968 16.3226 1.32768e-18)
(20.993 15.883 -3.473e-19)
(22.1919 15.2223 -3.38343e-19)
(23.2439 14.3567 1.18933e-19)
(24.1172 13.3016 -1.17052e-19)
(24.7578 12.0973 5.2202e-19)
(25.1074 10.82 -1.2485e-19)
(25.157 9.55309 1.33816e-19)
(24.9469 8.35707 6.72068e-19)
(24.5298 7.27793 -5.71235e-19)
(23.9459 6.3416 -1.06243e-18)
(23.2308 5.56985 1.09501e-18)
(22.4262 4.97851 -8.6056e-19)
(21.5814 4.57665 0)
(20.7384 4.35196 -2.90059e-18)
(19.9798 4.25112 2.06785e-18)
(19.2561 4.19951 8.2937e-19)
(18.3687 4.10348 -1.67315e-18)
(17.1552 3.89045 3.62838e-18)
(15.4903 3.52081 0)
(13.3653 3.00565 0)
(10.9262 2.40937 -2.59628e-18)
(8.43545 1.8275 -1.53498e-17)
(6.16885 1.3477 -7.30993e-18)
(4.30589 1.01539 8.58879e-18)
(2.8827 0.824658 2.48288e-18)
(1.83443 0.738428 -1.38892e-17)
(1.06692 0.713031 -2.97892e-18)
(0.488115 0.702589 1.83187e-17)
(0.0188232 0.651735 -2.98062e-18)
(-0.406968 0.490326 -1.09377e-17)
(-0.849781 0.150746 1.21352e-18)
(-1.3154 -0.384724 1.49755e-17)
(-1.78464 -1.12831 0)
(-2.41608 -2.03805 0)
(12.6793 14.0623 0)
(13.7919 14.4852 0)
(14.8278 14.7915 -2.15009e-19)
(15.8748 15.0522 -4.07384e-18)
(16.9506 15.2151 0)
(18.0421 15.2508 -3.33593e-18)
(19.1419 15.142 -9.80972e-19)
(20.2315 14.871 0)
(21.273 14.428 1.20121e-18)
(22.2292 13.8143 -1.05012e-18)
(23.0744 13.0332 -2.45983e-19)
(23.7629 12.1028 -1.28983e-19)
(24.2359 11.0676 -3.90824e-21)
(24.4646 9.98572 0)
(24.459 8.91359 1.2489e-18)
(24.2476 7.90586 -1.01547e-18)
(23.8605 6.99855 0)
(23.3281 6.21905 0)
(22.6865 5.58815 -8.41886e-19)
(21.9787 5.11832 3.44302e-18)
(21.2555 4.81162 -1.83853e-18)
(20.6266 4.64652 0)
(20.0991 4.57452 2.60188e-18)
(19.5702 4.53157 9.78126e-20)
(18.9473 4.4635 -2.82233e-18)
(18.0986 4.3132 1.50039e-18)
(16.8928 4.0337 0)
(15.26 3.60826 0)
(13.2381 3.06346 -1.98537e-18)
(10.9787 2.46455 9.00781e-18)
(8.70209 1.89396 -5.22793e-18)
(6.62444 1.4232 6.12193e-18)
(4.88997 1.09057 3.52658e-18)
(3.54005 0.892449 0)
(2.52672 0.787109 6.50892e-18)
(1.7588 0.704725 6.54033e-21)
(1.13115 0.559595 2.07759e-17)
(0.53546 0.270715 0)
(-0.0898029 -0.200292 -1.75484e-17)
(-0.775555 -0.870473 1.42703e-17)
(-1.66203 -1.69132 0)
(13.4103 13.0661 0)
(14.3384 13.395 -2.33805e-18)
(15.1987 13.638 2.12986e-18)
(16.0572 13.8499 0)
(16.9301 13.994 3.35959e-18)
(17.8133 14.0507 -9.62621e-19)
(18.7075 14.0074 -1.14543e-17)
(19.6049 13.849 1.27946e-17)
(20.4827 13.5639 -6.9171e-18)
(21.3162 13.1463 -4.46362e-18)
(22.088 12.5927 2.99642e-18)
(22.7639 11.9065 7.24462e-19)
(23.293 11.1084 -1.09962e-18)
(23.6404 10.2326 6.62227e-19)
(23.797 9.32235 -1.71086e-18)
(23.7703 8.42821 1.28575e-18)
(23.5762 7.58972 9.16537e-19)
(23.2357 6.83832 5.3874e-19)
(22.7768 6.19916 2.3368e-18)
(22.2332 5.68825 -5.38433e-18)
(21.6452 5.31408 3.06774e-18)
(21.1148 5.07607 1.18973e-19)
(20.6707 4.94013 5.17246e-19)
(20.2657 4.85905 0)
(19.8796 4.80795 -3.45796e-18)
(19.4597 4.75595 1.15343e-18)
(18.9172 4.66276 3.73521e-18)
(18.1429 4.48414 -2.59019e-18)
(17.0425 4.18619 5.5547e-18)
(15.5757 3.76089 -2.9889e-18)
(13.7818 3.23329 0)
(11.7769 2.65593 -5.53036e-18)
(9.7253 2.09344 -2.092e-18)
(7.79482 1.60365 2.37179e-18)
(6.11069 1.22087 -1.60885e-17)
(4.73501 0.941976 -2.9962e-18)
(3.64547 0.71557 -6.38571e-18)
(2.73585 0.452295 6.80852e-18)
(1.88474 0.0717903 7.23738e-18)
(1.01755 -0.481278 -1.41834e-17)
(-0.0917218 -1.18986 -4.06448e-19)
(14.0298 12.1586 0)
(14.8055 12.4152 1.27916e-19)
(15.5216 12.6073 1.93439e-18)
(16.2279 12.777 7.07708e-18)
(16.9381 12.8985 -4.15564e-18)
(17.6522 12.9595 2.37019e-18)
(18.3748 12.9517 2.08201e-18)
(19.1042 12.8642 -1.10256e-17)
(19.828 12.6865 2.10404e-18)
(20.5316 12.411 4.10192e-18)
(21.2048 12.0321 -5.52198e-18)
(21.8249 11.5458 3.40862e-18)
(22.353 10.9574 1.72106e-18)
(22.7569 10.2832 -5.68691e-19)
(23.0197 9.55058 0)
(23.1351 8.79877 0)
(23.1057 8.0631 -4.35988e-18)
(22.9419 7.37472 -8.59439e-19)
(22.662 6.76056 4.13272e-18)
(22.291 6.24021 -3.0387e-19)
(21.8582 5.82695 3.20662e-18)
(21.4451 5.5362 -6.33981e-18)
(21.0825 5.3432 3.25793e-18)
(20.7449 5.20404 0)
(20.4369 5.10521 -4.6332e-19)
(20.1539 5.03512 3.89052e-18)
(19.874 4.9795 -4.94036e-18)
(19.5506 4.91615 4.125e-18)
(19.1135 4.81379 -3.15426e-18)
(18.4815 4.63802 0)
(17.5855 4.36239 2.31399e-18)
(16.3932 3.97872 4.90573e-18)
(14.9239 3.50152 -2.64498e-18)
(13.2472 2.96376 2.88304e-18)
(11.4637 2.40676 1.56114e-18)
(9.69471 1.87174 -3.58056e-18)
(8.04792 1.38489 5.89593e-18)
(6.57005 0.94017 -4.25777e-18)
(5.2445 0.503497 -3.49161e-18)
(4.03698 0.0116507 -6.38989e-19)
(2.67347 -0.55788 1.03992e-17)
(14.5523 11.3414 -2.028e-18)
(15.2017 11.5423 -7.55742e-18)
(15.7993 11.6936 7.42955e-18)
(16.3823 11.8279 0)
(16.962 11.9272 -2.08632e-19)
(17.5404 11.9838 0)
(18.1232 11.993 -1.71767e-17)
(18.712 11.9473 1.3851e-17)
(19.3005 11.8387 9.89506e-18)
(19.8811 11.6607 -1.17642e-17)
(20.4488 11.4076 4.07343e-18)
(20.9901 11.0731 -2.07148e-18)
(21.4778 10.6546 -1.498e-18)
(21.8868 10.1571 -3.31689e-18)
(22.2001 9.59531 2.94102e-20)
(22.4056 8.99511 3.32431e-18)
(22.4974 8.38299 -2.62355e-18)
(22.4766 7.78511 3.60564e-18)
(22.3521 7.22635 0)
(22.1398 6.72725 4.51196e-18)
(21.8599 6.30419 3.29422e-20)
(21.572 5.98532 -4.93516e-18)
(21.305 5.75582 4.36674e-20)
(21.0452 5.57451 0)
(20.7992 5.43003 3.81734e-19)
(20.5721 5.31395 3.96384e-19)
(20.3658 5.22069 0)
(20.1758 5.14522 0)
(19.9856 5.07904 2.39915e-21)
(19.7623 5.00669 0)
(19.4572 4.90555 -2.67736e-18)
(19.0136 4.74991 0)
(18.3801 4.51777 3.80615e-18)
(17.5248 4.19705 -3.96941e-18)
(16.4394 3.78731 0)
(15.1513 3.30224 2.19784e-18)
(13.7158 2.76457 -2.36036e-18)
(12.1896 2.19402 1.32925e-18)
(10.6155 1.61148 4.29232e-18)
(9.078 1.01892 -3.93849e-19)
(7.34323 0.419291 -9.90669e-18)
(14.9913 10.6129 5.38462e-18)
(15.5359 10.7707 2.08762e-19)
(16.0356 10.8894 -3.2886e-18)
(16.5183 10.9947 -6.28721e-18)
(16.9932 11.0739 -1.47793e-17)
(17.4631 11.1224 1.75674e-17)
(17.9337 11.1378 -4.25279e-19)
(18.4079 11.1154 -1.02334e-17)
(18.8828 11.0496 2.02203e-17)
(19.3549 10.9352 -5.52096e-19)
(19.8229 10.768 -1.09798e-17)
(20.279 10.5418 3.96924e-18)
(20.7058 10.2513 -7.42929e-18)
(21.0859 9.8956 1.12988e-17)
(21.4055 9.4812 -1.89198e-18)
(21.6525 9.02294 0)
(21.8176 8.53788 -7.87688e-18)
(21.8966 8.04481 7.12936e-18)
(21.8911 7.56342 7.65863e-18)
(21.8088 7.11191 -1.47889e-17)
(21.6614 6.70651 8.10727e-18)
(21.4884 6.38281 -4.24758e-19)
(21.3147 6.13577 -3.62408e-20)
(21.1371 5.93018 -5.00128e-18)
(20.9616 5.75756 1.01601e-17)
(20.7925 5.61013 -5.52186e-18)
(20.6333 5.48175 5.10635e-18)
(20.4869 5.36856 -6.18559e-18)
(20.3549 5.26843 -6.37588e-18)
(20.2355 5.17927 5.71038e-18)
(20.1195 5.09645 1.45864e-18)
(19.9876 5.01064 2.21885e-18)
(19.8102 4.90733 -6.73338e-18)
(19.5511 4.76867 6.08092e-18)
(19.1712 4.57591 -3.11477e-18)
(18.6389 4.31488 -1.62708e-18)
(17.9362 3.97939 0)
(17.0582 3.56788 -1.71387e-18)
(15.9949 3.08911 -1.80893e-18)
(14.8265 2.56016 -2.01185e-18)
(13.3269 1.9731 2.07453e-18)
(15.3585 9.96905 1.44282e-20)
(15.8157 10.0932 7.54485e-19)
(16.2342 10.186 2.87677e-18)
(16.6351 10.2679 -5.46482e-18)
(17.0257 10.3298 2.17866e-17)
(17.4091 10.3691 -2.02836e-17)
(17.7903 10.3849 2.56246e-17)
(18.1725 10.3744 1.42429e-17)
(18.5549 10.3337 -5.74742e-18)
(18.936 10.2593 -7.90544e-19)
(19.3163 10.1485 -1.77814e-17)
(19.6919 9.99617 2.43605e-19)
(20.052 9.79676 0)
(20.3854 9.5472 -3.39632e-18)
(20.6827 9.24955 3.53461e-18)
(20.9343 8.91131 -3.70765e-18)
(21.1312 8.54202 0)
(21.2672 8.1534 7.03035e-18)
(21.34 7.75894 -1.51752e-17)
(21.3514 7.37245 5.40196e-18)
(21.3066 7.00728 -7.60343e-18)
(21.2273 6.70026 8.54368e-18)
(21.1333 6.45346 2.59279e-19)
(21.0283 6.23887 -1.01123e-19)
(20.9181 6.05187 8.71927e-18)
(20.8069 5.88731 -8.78599e-18)
(20.6975 5.73996 2.81605e-19)
(20.5919 5.60517 5.75682e-19)
(20.4919 5.47941 -4.7573e-18)
(20.3994 5.36052 5.38912e-18)
(20.3161 5.24747 -6.03929e-19)
(20.2418 5.13943 6.10934e-19)
(20.1729 5.03441 -2.49094e-18)
(20.1002 4.92792 1.22889e-18)
(20.0076 4.81198 5.10406e-18)
(19.8738 4.67621 -1.30371e-18)
(19.6737 4.50955 1.32261e-18)
(19.3841 4.30075 -2.70471e-18)
(18.9677 4.04019 1.4063e-18)
(18.4519 3.73401 1.4042e-18)
(17.674 3.34847 0)
(15.6637 9.40326 -8.25026e-18)
(16.0477 9.50088 1.51795e-17)
(16.3986 9.57313 1.50314e-17)
(16.7323 9.63639 -3.98443e-17)
(17.0547 9.68412 1.49284e-17)
(17.3687 9.71483 -3.28399e-17)
(17.6789 9.72849 2.75519e-17)
(17.988 9.7235 -4.09824e-17)
(18.2963 9.69728 3.96374e-17)
(18.6034 9.64746 -5.52415e-19)
(18.9104 9.57226 -1.69874e-17)
(19.2157 9.46816 -1.86586e-18)
(19.5128 9.33046 -1.48496e-17)
(19.7948 9.15585 1.46959e-17)
(20.0558 8.9444 -1.37154e-17)
(20.2891 8.69945 1.52642e-17)
(20.4878 8.42569 0)
(20.6462 8.12953 -1.1671e-17)
(20.7604 7.81912 1.42456e-17)
(20.8294 7.50359 -1.28507e-17)
(20.8538 7.19236 -1.99621e-19)
(20.8425 6.91873 2.07262e-17)
(20.8095 6.68851 -1.06098e-19)
(20.7616 6.48018 -7.38415e-18)
(20.7038 6.29204 -1.3985e-23)
(20.6399 6.12167 0)
(20.5729 5.96613 -7.81586e-18)
(20.5048 5.82219 7.72563e-18)
(20.4366 5.68664 0)
(20.369 5.55658 -5.02794e-19)
(20.3027 5.42972 0)
(20.2386 5.3046 4.20025e-18)
(20.1775 5.18053 -4.73264e-18)
(20.1198 5.05727 -4.2956e-18)
(20.0641 4.93421 8.6419e-18)
(20.0068 4.81049 -4.9024e-18)
(19.9406 4.68416 -5.60761e-19)
(19.8562 4.55178 1.09859e-18)
(19.7343 4.40706 -1.11549e-18)
(19.5744 4.25229 0)
(19.3146 4.06258 -1.19526e-18)
(15.9053 8.93041 0)
(16.2303 9.00791 -2.06309e-17)
(16.5271 9.0649 5.44532e-19)
(16.8076 9.11432 2.85239e-17)
(17.0767 9.1512 1.82613e-17)
(17.3373 9.17491 -1.8659e-17)
(17.593 9.18585 1.78747e-17)
(17.8465 9.18311 1.76138e-17)
(18.0983 9.16496 3.44674e-17)
(18.3485 9.12979 -4.36939e-17)
(18.5985 9.07645 4.34241e-18)
(18.8475 9.00235 4.14598e-18)
(19.0917 8.90391 -1.53327e-17)
(19.3268 8.7783 1.12781e-17)
(19.5493 8.62495 1.64035e-17)
(19.7549 8.44524 -1.26034e-17)
(19.9386 8.24127 -1.56505e-17)
(20.096 8.01632 1.57316e-17)
(20.2235 7.77495 0)
(20.3191 7.52272 1.7621e-18)
(20.3815 7.26565 1.75439e-18)
(20.4115 7.03148 1.39421e-17)
(20.4182 6.82723 -2.78965e-17)
(20.4094 6.63643 1.42627e-17)
(20.3885 6.45889 7.18723e-18)
(20.3585 6.29383 -1.54104e-19)
(20.3221 6.14001 -7.30148e-18)
(20.2812 5.9958 1.1425e-19)
(20.2372 5.85936 7.46438e-21)
(20.1906 5.72877 7.59288e-18)
(20.1417 5.60212 -7.66791e-18)
(20.0904 5.47773 -3.913e-18)
(20.0366 5.35424 4.16876e-18)
(19.9804 5.23079 -3.9985e-18)
(19.9215 5.10681 3.49271e-18)
(19.8601 4.98283 3.058e-18)
(19.7958 4.8599 -1.53946e-18)
(19.7276 4.73889 5.26202e-19)
(19.6524 4.62013 0)
(19.568 4.50721 0)
(19.4668 4.3942 -2.55787e-20)
(16.0899 8.55209 -9.2526e-18)
(16.3692 8.61478 1.03872e-17)
(16.624 8.66043 -4.50748e-18)
(16.8638 8.69939 -8.86239e-18)
(17.0926 8.7278 0)
(17.3129 8.74561 1.75366e-17)
(17.528 8.75343 -4.31409e-17)
(17.7401 8.75076 2.64691e-17)
(17.9499 8.73645 -8.71893e-18)
(18.1578 8.70939 8.37496e-18)
(18.3649 8.66891 -4.15925e-18)
(18.5711 8.61311 -3.67198e-17)
(18.7739 8.53925 6.34179e-17)
(18.9707 8.44505 -2.72133e-17)
(19.1593 8.32976 -3.60047e-18)
(19.3369 8.19385 -1.44524e-17)
(19.5001 8.03816 4.44872e-17)
(19.6457 7.86427 -1.94564e-17)
(19.7706 7.67466 -2.96896e-17)
(19.873 7.4726 1.22139e-17)
(19.9509 7.26176 -3.42775e-18)
(20.0011 7.06456 0)
(20.0297 6.88782 0)
(20.0436 6.71878 -1.39823e-17)
(20.0453 6.55794 1.3993e-17)
(20.0368 6.40534 2.16715e-19)
(20.0202 6.26064 0)
(19.9972 6.1232 7.23062e-18)
(19.969 5.99217 -7.24257e-18)
(19.9363 5.86657 5.63693e-20)
(19.8997 5.7454 -5.85747e-20)
(19.8591 5.62767 0)
(19.8145 5.51247 3.57825e-18)
(19.7656 5.399 -3.78114e-18)
(19.7117 5.28646 4.72226e-19)
(19.6526 5.1748 -4.76842e-19)
(19.5881 5.06455 0)
(19.5179 4.9561 -4.86609e-19)
(19.4423 4.85051 -1.00225e-18)
(19.3611 4.7503 4.95223e-19)
(19.2767 4.65578 1.49597e-18)
(16.2342 8.24534 0)
(16.4771 8.29674 0)
(16.6986 8.33368 -1.67755e-17)
(16.9065 8.36458 -3.32652e-17)
(17.1038 8.38642 5.08215e-17)
(17.293 8.39946 -4.16645e-17)
(17.4769 8.40443 -1.63724e-17)
(17.6574 8.40108 3.38496e-17)
(17.8351 8.38858 -3.3477e-17)
(18.0107 8.36619 3.37781e-17)
(18.185 8.33348 0)
(18.3583 8.28909 0)
(18.5288 8.23093 3.16175e-17)
(18.6949 8.15722 -6.16865e-17)
(18.8551 8.06728 5.99972e-17)
(19.0077 7.9612 -2.94899e-17)
(19.1503 7.83921 -3.66625e-18)
(19.2805 7.70199 3.35959e-17)
(19.3961 7.55084 -2.28562e-17)
(19.4953 7.38762 0)
(19.5762 7.21448 1.67652e-18)
(19.6342 7.04935 0)
(19.673 6.89828 -1.46232e-17)
(19.6988 6.75126 2.83978e-17)
(19.713 6.60904 -1.37769e-17)
(19.7173 6.47205 0)
(19.7129 6.34044 0)
(19.7013 6.2141 6.58701e-18)
(19.6834 6.09275 -7.02791e-18)
(19.66 5.97601 -7.12057e-18)
(19.6317 5.86343 7.17039e-18)
(19.5987 5.7546 7.2154e-18)
(19.5612 5.64913 -7.23665e-18)
(19.5193 5.54667 0)
(19.4726 5.44673 -5.79313e-20)
(19.4209 5.34932 0)
(19.3641 5.25467 -1.46847e-20)
(19.3019 5.16268 -5.91324e-20)
(19.2342 5.07372 2.01838e-18)
(19.1611 4.98884 -2.85414e-18)
(19.084 4.90814 9.41531e-19)
(16.349 7.99178 0)
(16.5623 8.03432 -1.96215e-18)
(16.7569 8.06442 0)
(16.9388 8.08902 1.57278e-17)
(17.111 8.10566 -1.5802e-17)
(17.2754 8.11484 0)
(17.4346 8.11733 1.59383e-17)
(17.5902 8.113 1.5804e-17)
(17.7429 8.10128 -4.09383e-17)
(17.8931 8.08165 0)
(18.0418 8.05382 3.24078e-17)
(18.1891 8.01682 -6.52456e-17)
(18.334 7.96906 3.18021e-17)
(18.4753 7.90917 0)
(18.612 7.83659 -2.96609e-17)
(18.7431 7.75124 3.3009e-17)
(18.8667 7.65313 3.20312e-17)
(18.9813 7.5425 -3.53705e-17)
(19.085 7.42 -3.41305e-18)
(19.1766 7.28669 0)
(19.2542 7.14377 0)
(19.313 7.00558 -1.73431e-18)
(19.3552 6.87726 8.30029e-19)
(19.3862 6.75081 1.35873e-17)
(19.4069 6.62702 8.99256e-19)
(19.4182 6.50646 -1.35546e-17)
(19.4212 6.38951 1.36446e-17)
(19.4169 6.27635 -1.32054e-17)
(19.406 6.16701 -7.74062e-18)
(19.3893 6.06144 6.86241e-18)
(19.3672 5.95953 -6.93289e-18)
(19.3402 5.86116 6.92079e-18)
(19.3086 5.76623 0)
(19.2725 5.67464 -7.47722e-18)
(19.2321 5.58617 7.07258e-18)
(19.1875 5.50094 0)
(19.1387 5.41922 1.37584e-20)
(19.0856 5.34087 1.85084e-18)
(19.0283 5.26604 -1.90235e-18)
(18.967 5.19522 8.50836e-19)
(18.9022 5.12823 -8.89474e-19)
(16.4421 7.7789 0)
(16.6307 7.81436 1.80768e-18)
(16.8029 7.83898 -1.46932e-17)
(16.9635 7.85853 2.93629e-17)
(17.115 7.87103 -5.98361e-17)
(17.2592 7.87709 3.04471e-17)
(17.3984 7.87746 0)
(17.5339 7.87213 1.53076e-17)
(17.6663 7.86069 9.28926e-17)
(17.7963 7.84277 -6.29487e-17)
(17.9244 7.81817 0)
(18.051 7.78619 -7.97517e-18)
(18.1752 7.74561 2.30782e-17)
(18.2962 7.69538 -2.89111e-19)
(18.4135 7.63505 -2.9487e-17)
(18.5261 7.56452 3.23504e-17)
(18.633 7.4837 -2.83374e-17)
(18.7329 7.39265 2.76479e-17)
(18.8245 7.29168 -2.75936e-17)
(18.9066 7.1814 -2.72352e-17)
(18.9779 7.06249 2.3553e-17)
(19.0337 6.94648 -1.17703e-17)
(19.0755 6.83763 1.49871e-17)
(19.1078 6.72948 -1.40985e-17)
(19.1309 6.62274 -2.51984e-18)
(19.1457 6.518 1.32452e-17)
(19.1529 6.41572 0)
(19.1532 6.31619 0)
(19.1472 6.21962 -1.25233e-17)
(19.1355 6.12611 1.3314e-17)
(19.1186 6.03573 0)
(19.0968 5.94853 8.469e-19)
(19.0705 5.86454 8.4902e-19)
(19.0399 5.78377 7.18555e-18)
(19.0055 5.70612 -7.17457e-18)
(18.9672 5.63175 -3.40622e-18)
(18.9255 5.56093 3.39618e-18)
(18.8804 5.49352 -1.28408e-18)
(18.8321 5.42963 3.42864e-18)
(18.7809 5.36959 -1.66065e-18)
(18.7272 5.31337 -2.12651e-19)
(16.5184 7.59788 1.3164e-17)
(16.6863 7.62757 1.64468e-17)
(16.8395 7.64773 -1.76294e-19)
(16.9822 7.66321 0)
(17.1164 7.67237 0)
(17.2438 7.67589 0)
(17.3664 7.6745 0)
(17.4854 7.66825 -5.83995e-17)
(17.6013 7.65685 1.04005e-16)
(17.7146 7.64003 -6.02375e-17)
(17.8259 7.61767 6.02265e-17)
(17.9355 7.58924 -3.82746e-17)
(18.0428 7.55381 6.79233e-17)
(18.1471 7.51059 -8.09808e-17)
(18.2482 7.45923 2.87879e-17)
(18.3453 7.39962 2.10611e-17)
(18.4376 7.33166 -2.77003e-17)
(18.5243 7.25535 3.35669e-18)
(18.6042 7.17083 -3.40392e-18)
(18.6767 7.07847 3.34154e-17)
(18.7405 6.97865 2.95316e-17)
(18.7915 6.88074 -4.91812e-17)
(18.8307 6.78824 -1.60038e-18)
(18.8618 6.69587 0)
(18.8851 6.60426 1.59289e-18)
(18.9011 6.51393 -1.63091e-18)
(18.9103 6.42536 -1.12874e-17)
(18.9133 6.33886 1.28819e-17)
(18.9106 6.2547 -1.29286e-17)
(18.9025 6.17306 1.28924e-17)
(18.8897 6.09409 1.29571e-17)
(18.8723 6.0179 -1.37182e-17)
(18.8509 5.9446 -8.01842e-19)
(18.8256 5.87424 6.50891e-18)
(18.7967 5.80678 -5.26392e-18)
(18.7645 5.74236 0)
(18.7294 5.6812 0)
(18.6914 5.62319 -4.05158e-19)
(18.6509 5.56837 8.22881e-19)
(18.6082 5.51698 8.2367e-19)
(18.5635 5.46913 1.99491e-19)
(16.5816 7.44227 0)
(16.7317 7.46721 -3.0812e-18)
(16.8687 7.48371 2.51425e-17)
(16.9962 7.49587 -2.58656e-17)
(17.1157 7.50231 -5.2334e-17)
(17.229 7.50376 5.39451e-17)
(17.3376 7.50092 2.70111e-17)
(17.4428 7.49388 -5.58727e-17)
(17.5449 7.48242 -5.62143e-17)
(17.6443 7.46637 5.73973e-17)
(17.7417 7.44565 0)
(17.8372 7.41986 -2.91153e-17)
(17.9304 7.38829 5.83338e-17)
(18.0209 7.35035 -6.43948e-17)
(18.1083 7.30576 0)
(18.1922 7.25445 -6.87594e-18)
(18.272 7.19634 6.76609e-18)
(18.347 7.13139 0)
(18.4165 7.05968 3.23622e-18)
(18.4797 6.98146 -6.41661e-18)
(18.5358 6.89694 2.8884e-17)
(18.5813 6.81381 -2.86625e-17)
(18.6169 6.73495 3.18672e-18)
(18.6457 6.65601 2.35738e-17)
(18.6677 6.57749 -2.34916e-17)
(18.6834 6.49988 1.54596e-18)
(18.6932 6.4236 -1.40534e-17)
(18.6976 6.34897 1.247e-17)
(18.6969 6.27624 1.57315e-18)
(18.6915 6.20563 0)
(18.6818 6.13731 0)
(18.6681 6.0714 0)
(18.6507 6.00803 -6.24896e-18)
(18.63 5.94728 6.22635e-18)
(18.6061 5.88913 -7.7338e-19)
(18.5795 5.83369 -6.25566e-18)
(18.5503 5.78114 7.01591e-18)
(18.5188 5.73136 0)
(18.4852 5.6844 9.33138e-21)
(18.4498 5.64037 -1.55834e-18)
(18.4127 5.59948 7.60803e-19)
(16.6345 7.30727 1.11748e-17)
(16.7692 7.32826 0)
(16.8922 7.34172 -5.82248e-17)
(17.0065 7.35115 4.81277e-17)
(17.1134 7.35537 0)
(17.2146 7.35514 5.01768e-17)
(17.3114 7.35113 -2.25164e-19)
(17.4047 7.34343 5.23636e-17)
(17.4951 7.33191 -8.05439e-17)
(17.5829 7.31644 -5.41151e-17)
(17.6686 7.29699 5.52324e-17)
(17.7522 7.27326 1.38032e-17)
(17.8336 7.24471 0)
(17.9124 7.21088 0)
(17.9883 7.17158 -1.35367e-17)
(18.061 7.12677 5.91395e-17)
(18.13 7.07639 -1.16749e-16)
(18.1949 7.02041 5.13311e-17)
(18.255 6.95889 6.38739e-18)
(18.3098 6.89201 6.33753e-18)
(18.3587 6.81989 -3.07484e-18)
(18.3986 6.74891 4.62074e-17)
(18.4302 6.68143 -7.93943e-17)
(18.4561 6.61383 1.50127e-18)
(18.4762 6.54653 2.27389e-17)
(18.4908 6.47994 0)