/*--------------------------------*- C++ -*----------------------------------*\
| =========                 |                                                 |
| \\      /  F ield         | OpenFOAM: The Open Source CFD Toolbox           |
|  \\    /   O peration     | Version:  5.x                                   |
|   \\  /    A nd           | Web:      www.OpenFOAM.org                      |
|    \\/     M anipulation  |                                                 |
\*---------------------------------------------------------------------------*/
FoamFile
{
    version     2.0;
    format      ascii;
    class       volVectorField;
    location    "400";
    object      U;
}
// * * * * * * * * * * * * * * * * * * * * * * * * * * * * * * * * * * * * * //

dimensions      [0 1 -1 0 0 0 0];

internalField   nonuniform List<vector> 
11040
(
(-2.80563 18.6785 0)
(0.917107 7.30067 -1.58381e-18)
(-2.50355 -3.5353 0)
(-3.99543 -2.49627 2.25461e-17)
(-4.00265 -2.17615 2.38866e-17)
(-3.81895 -1.69131 2.89394e-17)
(-3.65683 -1.3632 -6.63903e-17)
(-3.52111 -1.12531 -3.22304e-17)
(-3.40949 -0.939359 3.68702e-17)
(-3.3198 -0.786578 3.88718e-17)
(-3.25165 -0.65995 0)
(-3.20192 -0.55121 -4.1594e-17)
(-3.17093 -0.455545 4.48859e-17)
(-3.15811 -0.369699 3.71112e-17)
(-3.16395 -0.290346 5.22777e-18)
(-3.19594 -0.215657 -4.31793e-17)
(-3.25909 -0.143796 1.94863e-17)
(-3.35731 -0.0727986 -1.84598e-17)
(-3.49536 -0.00115617 6.48651e-18)
(-3.67567 0.0722362 4.03038e-18)
(-3.89269 0.147969 7.31531e-18)
(-4.1227 0.219466 1.20375e-17)
(-4.35266 0.282826 -1.29007e-17)
(-4.57935 0.342665 -9.09735e-21)
(-4.7875 0.399951 -2.30478e-17)
(-4.96123 0.452962 6.96365e-19)
(-5.08804 0.499866 -6.71649e-19)
(-5.15505 0.538839 -6.70442e-19)
(-5.14899 0.568237 6.65014e-19)
(-5.05851 0.586434 -2.1725e-17)
(-4.90102 0.593572 0)
(-4.67163 0.587009 -4.6986e-17)
(-4.36839 0.564314 0)
(-3.9879 0.522793 4.80428e-19)
(-3.52503 0.460424 -6.01787e-17)
(-2.973 0.376154 6.63053e-17)
(-2.32541 0.268612 3.01211e-19)
(-1.56337 0.133977 -9.03263e-17)
(-0.698575 -0.0314389 -1.09221e-16)
(-0.0407815 -0.197054 0)
(2.30078 -1.16396 1.10482e-16)
(0.368286 20.844 1.13643e-19)
(3.48167 16.4316 6.5469e-19)
(1.68709 6.0361 3.4206e-19)
(-1.91044 -0.899245 -6.8498e-19)
(-3.38969 -1.89921 0)
(-3.68851 -1.75487 1.97288e-18)
(-3.69533 -1.46113 -2.21378e-18)
(-3.64598 -1.22698 0)
(-3.59232 -1.04396 0)
(-3.54624 -0.890713 0)
(-3.51449 -0.762457 3.10064e-18)
(-3.49748 -0.651474 -3.19805e-18)
(-3.49877 -0.552559 3.27372e-18)
(-3.52205 -0.463191 -2.94256e-17)
(-3.57106 -0.379884 -1.5986e-17)
(-3.6469 -0.299748 3.05769e-18)
(-3.75168 -0.220784 -1.16172e-17)
(-3.88784 -0.140708 1.22398e-17)
(-4.05625 -0.0573463 -1.26594e-18)
(-4.25357 0.0312544 -1.81428e-20)
(-4.46985 0.125661 5.23526e-21)
(-4.68434 0.215258 0)
(-4.88469 0.291881 7.55707e-18)
(-5.0633 0.361733 2.95636e-17)
(-5.20648 0.426236 -8.68048e-19)
(-5.30412 0.483703 -1.40929e-17)
(-5.34927 0.532374 -5.19435e-21)
(-5.33806 0.570822 1.32686e-17)
(-5.27019 0.598417 1.32748e-17)
(-5.1481 0.615291 -4.06698e-19)
(-4.95669 0.618399 -1.25921e-17)
(-4.69431 0.60562 -2.66168e-17)
(-4.35909 0.575052 -4.38974e-19)
(-3.9483 0.524875 5.8216e-17)
(-3.45892 0.453353 -3.03786e-17)
(-2.88901 0.358355 -3.2069e-17)
(-2.2368 0.237163 -3.42298e-17)
(-1.48063 0.0869304 7.27028e-17)
(-0.590588 -0.114263 0)
(0.158476 -0.364266 0)
(2.10854 -0.947086 -1.66051e-19)
(1.11751 18.4837 0)
(4.01534 19.1834 -5.02981e-18)
(4.63489 14.1247 -3.41903e-18)
(2.12696 5.89305 1.12971e-18)
(-1.1661 0.172226 7.61356e-18)
(-2.83533 -1.32654 -1.29324e-17)
(-3.34328 -1.39883 1.40502e-17)
(-3.48499 -1.23201 3.41346e-18)
(-3.52314 -1.06713 -3.70609e-18)
(-3.53392 -0.917424 -2.01177e-17)
(-3.54069 -0.787062 4.25441e-18)
(-3.55258 -0.671649 0)
(-3.57564 -0.56658 1.84285e-17)
(-3.61464 -0.470557 1.84757e-17)
(-3.67214 -0.380474 9.0601e-18)
(-3.75133 -0.2937 8.7368e-18)
(-3.85456 -0.208539 0)
(-3.98345 -0.123092 0)
(-4.13832 -0.0358385 -1.78901e-18)
(-4.31661 0.0547101 1.64688e-18)
(-4.51065 0.149343 4.16071e-21)
(-4.70179 0.238153 5.6489e-18)
(-4.87792 0.31174 1.32557e-18)
(-5.03341 0.375958 -1.13258e-17)
(-5.15789 0.432744 9.60568e-18)
(-5.24279 0.481319 0)
(-5.28138 0.520568 -9.01897e-18)
(-5.26816 0.549329 -8.88693e-18)
(-5.19827 0.566383 -9.33601e-18)
(-5.06706 0.570751 1.0847e-18)
(-4.86891 0.56072 8.12078e-18)
(-4.60188 0.534963 3.48878e-17)
(-4.26434 0.491781 -1.77365e-17)
(-3.85395 0.4294 -4.79819e-20)
(-3.36837 0.345768 1.84248e-17)
(-2.80682 0.238472 -1.89989e-17)
(-2.16924 0.104726 4.02724e-17)
(-1.43697 -0.0568792 -2.35053e-19)
(-0.565426 -0.269395 0)
(0.212567 -0.574268 1.89885e-17)
(1.7732 -1.16102 -1.45033e-17)
(1.46622 17.1433 0)
(3.53749 18.712 2.87645e-18)
(5.37019 17.9218 2.51917e-18)
(5.12266 12.8577 -3.16086e-18)
(2.55918 5.90279 -3.71253e-18)
(-0.561639 0.855992 0)
(-2.32932 -0.811298 7.37685e-18)
(-2.99157 -1.07168 2.48937e-18)
(-3.2389 -1.01319 1.35384e-17)
(-3.35294 -0.899963 1.1624e-17)
(-3.41652 -0.78345 -3.07389e-18)
(-3.46244 -0.67251 9.75408e-18)
(-3.50596 -0.566691 -1.00742e-17)
(-3.5574 -0.467704 1.53835e-20)
(-3.62085 -0.373644 3.34362e-18)
(-3.7012 -0.282232 -9.7316e-18)
(-3.80126 -0.192474 0)
(-3.92317 -0.102875 0)
(-4.06811 -0.0125433 0)
(-4.23482 0.0793504 -1.21111e-18)
(-4.41748 0.173164 -3.28971e-18)
(-4.59901 0.259731 -4.15869e-18)
(-4.76739 0.330387 -2.9419e-18)
(-4.91741 0.390014 -8.32997e-18)
(-5.03949 0.440384 0)
(-5.12473 0.481095 0)
(-5.16557 0.511242 6.57378e-18)
(-5.1553 0.52972 0)
(-5.08803 0.535145 0)
(-4.9592 0.526506 0)
(-4.7652 0.502602 -6.1673e-18)
(-4.50391 0.462342 -2.47499e-17)
(-4.17383 0.404233 1.25302e-17)
(-3.77285 0.326484 -1.25099e-17)
(-3.29905 0.22686 1.29467e-17)
(-2.7523 0.102732 1.31256e-17)
(-2.1337 -0.0488294 -6.29334e-20)
(-1.42936 -0.22946 -1.4021e-17)
(-0.594515 -0.456876 1.42709e-17)
(0.169996 -0.800419 -1.28403e-17)
(1.46474 -1.33774 -4.09619e-20)
(2.33143 16.336 0)
(3.69968 17.4775 -7.242e-19)
(5.22031 18.4068 6.5703e-19)
(6.27599 16.961 7.40716e-18)
(5.59674 12.2718 -3.65272e-18)
(3.0744 6.18613 0)
(0.10029 1.54886 -5.70461e-18)
(-1.78937 -0.308411 8.31596e-18)
(-2.60555 -0.755658 -8.30237e-18)
(-2.96272 -0.789778 0)
(-3.146 -0.727624 0)
(-3.25655 -0.641665 -9.7756e-18)
(-3.33587 -0.545616 0)
(-3.40772 -0.449416 -1.03084e-17)
(-3.48158 -0.355418 0)
(-3.56615 -0.262301 5.01968e-18)
(-3.66632 -0.170375 0)
(-3.78539 -0.078538 -4.51458e-18)
(-3.9258 0.0135474 0)
(-4.08749 0.106161 0)
(-4.26621 0.199067 1.71153e-18)
(-4.44601 0.283443 -1.63172e-18)
(-4.61449 0.351279 4.56664e-18)
(-4.76614 0.406404 4.31159e-18)
(-4.8917 0.450195 -4.09724e-18)
(-4.98203 0.482408 -5.24023e-18)
(-5.02917 0.502287 0)
(-5.02608 0.508898 -6.26025e-19)
(-4.9667 0.501045 -3.6429e-18)
(-4.8467 0.477874 -1.19068e-18)
(-4.66291 0.438442 5.28798e-18)
(-4.41314 0.381825 1.40792e-17)
(-4.09598 0.306722 -2.99815e-19)
(-3.70957 0.211367 2.93353e-19)
(-3.25238 0.0935046 -9.72289e-18)
(-2.72485 -0.0495207 0)
(-2.12902 -0.220914 -1.01603e-17)
(-1.45575 -0.423422 1.0012e-17)
(-0.667857 -0.668469 8.20664e-21)
(0.0620316 -1.03437 7.4704e-20)
(1.16204 -1.50681 -8.19842e-18)
(3.1199 15.6086 4.70328e-19)
(4.22504 16.5003 -4.21321e-19)
(5.2547 17.5128 2.51324e-18)
(6.40306 17.9971 -5.4067e-18)
(7.01497 16.3784 4.43742e-18)
(6.15379 12.1745 9.66937e-20)
(3.75339 6.75828 -8.33128e-20)
(0.88145 2.35057 -1.09747e-17)
(-1.16978 0.209887 -6.4834e-18)
(-2.16714 -0.421978 -6.98513e-18)
(-2.64689 -0.559173 0)
(-2.9016 -0.551519 0)
(-3.05666 -0.491033 0)
(-3.17059 -0.41065 3.99888e-18)
(-3.26737 -0.32356 -4.03637e-18)
(-3.36387 -0.23221 0)
(-3.46985 -0.140179 3.84645e-18)
(-3.59085 -0.0473293 3.62234e-18)
(-3.73119 0.0458817 -3.38076e-18)
(-3.89233 0.138949 0)
(-4.0717 0.230948 -6.94904e-19)
(-4.25442 0.313191 3.93284e-18)
(-4.42742 0.37806 -6.16176e-18)
(-4.58477 0.4283 1.15613e-18)
(-4.71751 0.464822 7.68863e-18)
(-4.81651 0.487471 3.15169e-18)
(-4.87369 0.495644 5.08005e-18)
(-4.88192 0.488609 0)
(-4.8351 0.465448 3.8823e-18)
(-4.72884 0.425526 0)
(-4.56007 0.368161 3.24038e-18)
(-4.32658 0.292616 -6.47049e-18)
(-4.02706 0.197811 -7.85531e-18)
(-3.65992 0.0820569 6.96859e-18)
(-3.22406 -0.0568106 -7.07717e-18)
(-2.72055 -0.221233 7.67393e-18)
(-2.15232 -0.414389 -8.07236e-18)
(-1.51428 -0.639825 -7.67922e-18)
(-0.78064 -0.903781 -8.02063e-18)
(-0.09667 -1.27753 7.48642e-18)
(0.851168 -1.6854 6.73203e-18)
(3.8751 14.9352 0)
(4.77751 15.7591 1.69206e-18)
(5.58504 16.5331 -9.57708e-19)
(6.44542 17.3702 1.11693e-18)
(7.34197 17.6071 8.81204e-19)
(7.70737 16.0906 2.12968e-19)
(6.82576 12.4259 1.74161e-18)
(4.5966 7.57764 4.3499e-18)
(1.81194 3.2949 3.25555e-18)
(-0.420826 0.825472 5.03835e-18)
(-1.64705 -0.0489989 -5.99488e-18)
(-2.27634 -0.312529 1.18466e-17)
(-2.61359 -0.362889 6.04946e-18)
(-2.8202 -0.33179 -1.87024e-17)
(-2.96679 -0.268428 6.35472e-18)
(-3.08988 -0.187025 -1.27642e-17)
(-3.21034 -0.0988101 6.254e-18)
(-3.33907 -0.00679685 0)
(-3.48386 0.0867985 -1.10868e-20)
(-3.64828 0.180141 -2.56099e-18)
(-3.83171 0.271407 -1.72062e-18)
(-4.02052 0.351734 1.09692e-18)
(-4.20116 0.413599 4.06803e-18)
(-4.36734 0.458594 -1.92091e-18)
(-4.51043 0.487105 -7.23941e-18)
(-4.62145 0.498987 -2.59019e-18)
(-4.69231 0.493797 -7.49264e-18)
(-4.71591 0.471042 4.06308e-18)
(-4.68607 0.430133 -7.87335e-19)
(-4.59816 0.370687 3.06444e-18)
(-4.44917 0.29236 -6.0236e-18)
(-4.23684 0.194677 3.75066e-18)
(-3.96 0.076846 5.25444e-18)
(-3.61734 -0.0626559 -6.01426e-18)
(-3.2083 -0.225789 1.21089e-17)
(-2.7346 -0.414548 -6.221e-20)
(-2.20007 -0.631603 6.28403e-18)
(-1.6028 -0.880451 -1.97629e-19)
(-0.929325 -1.16339 1.95896e-19)
(-0.297106 -1.53425 -6.24889e-20)
(0.528672 -1.88626 -5.59242e-18)
(4.62843 14.3232 3.68677e-19)
(5.34675 15.0843 -4.09222e-18)
(6.02421 15.753 3.32395e-18)
(6.69553 16.4254 -1.98739e-18)
(7.43254 17.1113 -5.00832e-18)
(8.15118 17.2683 -2.92554e-18)
(8.39961 16.0027 -2.64018e-18)
(7.59758 12.9074 -2.97861e-18)
(5.58581 8.59366 -1.70712e-18)
(2.91153 4.42291 2.5181e-18)
(0.517283 1.62006 3.86682e-18)
(-1.0042 0.391957 -4.95241e-18)
(-1.82414 -0.0324323 0)
(-2.27118 -0.154255 5.02717e-18)
(-2.53997 -0.162368 5.07465e-18)
(-2.72414 -0.113632 5.10824e-18)
(-2.87594 -0.039353 -1.0123e-17)
(-3.02092 0.0474128 2.4545e-18)
(-3.17492 0.139729 4.61549e-18)
(-3.34581 0.232933 -8.56367e-18)
(-3.53592 0.323675 4.01912e-18)
(-3.73325 0.402413 -9.10994e-19)
(-3.92409 0.461316 1.72013e-18)
(-4.10189 0.500783 1.59901e-18)
(-4.25839 0.520565 1.50547e-18)
(-4.38481 0.520432 4.31372e-18)
(-4.47311 0.500089 8.29538e-18)
(-4.51622 0.459309 -4.03246e-18)
(-4.50794 0.397873 1.29544e-18)
(-4.44332 0.315691 -1.91918e-18)
(-4.31936 0.21287 6.29012e-19)
(-4.13377 0.0892971 -6.17709e-19)
(-3.8855 -0.0554099 -2.43322e-18)
(-3.57361 -0.222477 5.98821e-19)
(-3.19803 -0.413498 -4.92764e-18)
(-2.76121 -0.629771 -4.98953e-18)
(-2.26776 -0.872955 4.99593e-18)
(-1.71816 -1.14552 0)
(-1.10985 -1.44686 0)
(-0.531567 -1.80903 -9.93091e-18)
(0.194983 -2.11893 9.43362e-18)
(5.36296 13.7691 -3.05469e-19)
(5.945 14.4491 0)
(6.49822 15.0718 0)
(7.06017 15.6329 0)
(7.647 16.2079 5.7998e-18)
(8.28363 16.7872 2.47201e-18)
(8.88433 16.9616 0)
(9.09731 16.0166 2.12438e-18)
(8.43953 13.5091 -2.49279e-18)
(6.69392 9.75388 -2.90926e-18)
(4.19311 5.76313 2.01307e-18)
(1.68144 2.65941 0)
(-0.173123 0.964781 -3.92792e-18)
(-1.24754 0.311172 -8.89965e-18)
(-1.85058 0.0813982 -3.56326e-21)
(-2.20118 0.0296609 8.44513e-18)
(-2.43577 0.0571692 0)
(-2.6202 0.12385 -2.01991e-18)
(-2.79268 0.209563 5.79194e-18)
(-2.97326 0.301307 -3.5872e-18)
(-3.17128 0.391804 3.19271e-18)
(-3.37821 0.469593 3.09076e-18)
(-3.58079 0.525857 -2.90757e-18)
(-3.77242 0.559724 0)
(-3.94506 0.570212 0)
(-4.09013 0.556894 -2.40899e-18)
(-4.19966 0.51958 -6.91653e-18)
(-4.26667 0.458331 0)
(-4.28493 0.373332 -3.28406e-18)
(-4.24919 0.264838 1.04046e-18)
(-4.15638 0.13355 1.01469e-18)
(-4.00419 -0.0201326 1.99941e-18)
(-3.79163 -0.19603 5.12932e-19)
(-3.51814 -0.394876 1.94718e-18)
(-3.18416 -0.617687 4.89199e-19)
(-2.79273 -0.864791 -3.46369e-18)
(-2.34907 -1.1364 -4.33248e-18)
(-1.8553 -1.43331 -2.50646e-19)
(-1.31678 -1.75264 4.04227e-18)
(-0.793779 -2.1059 4.04657e-18)
(-0.150278 -2.39127 -7.83404e-18)
(6.06895 13.264 0)
(6.55513 13.8652 0)
(7.0063 14.4326 3.7872e-18)
(7.46927 14.952 -6.68767e-18)
(7.95984 15.4252 3.04595e-18)
(8.48007 15.9134 -2.42841e-18)
(9.03791 16.4185 2.16712e-18)
(9.563 16.6513 -2.16814e-18)
(9.78881 16.0427 2.01419e-18)
(9.31478 14.1325 5.87583e-18)
(7.88433 10.992 -2.12574e-18)
(5.62822 7.28616 2.76291e-18)
(3.08569 3.97369 -2.12303e-18)
(0.927714 1.78315 -5.56048e-18)
(-0.491101 0.754474 0)
(-1.30558 0.371388 -7.49325e-18)
(-1.78129 0.253109 7.15925e-18)
(-2.08396 0.251925 3.43954e-18)
(-2.3115 0.308939 0)
(-2.51612 0.390908 0)
(-2.72561 0.47976 5.54779e-18)
(-2.9418 0.557765 -4.66735e-20)
(-3.15565 0.612723 -5.52835e-18)
(-3.36158 0.641771 1.14053e-18)
(-3.55189 0.642973 1.06686e-18)
(-3.7181 0.615675 3.01684e-18)
(-3.85225 0.559826 8.46217e-22)
(-3.94737 0.475778 1.85437e-18)
(-3.99732 0.364152 -1.78105e-18)
(-3.99669 0.225683 -1.71851e-18)
(-3.94201 0.061711 1.65806e-18)
(-3.83097 -0.126613 0)
(-3.66261 -0.338347 -8.13923e-19)
(-3.43667 -0.573479 -1.63066e-18)
(-3.15397 -0.832199 2.36917e-18)
(-2.81796 -1.11358 1.65586e-18)
(-2.43407 -1.4161 0)
(-2.00556 -1.73875 4.08425e-19)
(-1.54208 -2.07679 -3.69426e-18)
(-1.07916 -2.42615 0)
(-0.510078 -2.70641 3.21431e-18)
(6.7429 12.8011 0)
(7.15872 13.3324 0)
(7.53729 13.8376 0)
(7.91629 14.3158 3.134e-18)
(8.32088 14.7532 0)
(8.75572 15.1536 0)
(9.22049 15.5671 -2.24407e-18)
(9.71643 16.0124 3.73747e-18)
(10.1926 16.3044 -1.99632e-18)
(10.4546 16.0098 -8.51868e-18)
(10.1823 14.6846 1.48311e-19)
(9.09338 12.1981 -3.52037e-18)
(7.1598 8.9089 1.06608e-17)
(4.71867 5.56441 -5.63005e-18)
(2.34942 2.93812 3.88285e-18)
(0.54774 1.4048 0)
(-0.576266 0.752428 0)
(-1.23485 0.526636 1.75253e-20)
(-1.64097 0.483808 0)
(-1.92892 0.522502 0)
(-2.17483 0.596622 0)
(-2.4078 0.672378 -2.82513e-19)
(-2.63382 0.72732 -3.61787e-18)
(-2.85323 0.753517 2.90199e-18)
(-3.06067 0.746958 2.6645e-18)
(-3.24856 0.706305 -1.6937e-18)
(-3.40921 0.631452 -2.38168e-18)
(-3.53569 0.523038 1.51726e-18)
(-3.62188 0.382235 2.93321e-18)
(-3.66241 0.210468 -1.40588e-18)
(-3.65317 0.00973706 -2.73043e-18)
(-3.59175 -0.21775 1.30287e-18)
(-3.47707 -0.47002 1.27633e-18)
(-3.30906 -0.746058 1.25958e-18)
(-3.08871 -1.0449 -2.53849e-18)
(-2.81946 -1.36414 2.54227e-18)
(-2.50655 -1.70043 -6.46098e-19)
(-2.15394 -2.05124 9.53601e-19)
(-1.77224 -2.41038 -3.1753e-19)
(-1.37806 -2.76484 -2.51099e-18)
(-0.887205 -3.05833 2.49708e-18)
(7.38273 12.3753 0)
(7.74452 12.8459 3.07034e-18)
(8.0707 13.2921 -9.51093e-18)
(8.38858 13.7203 -8.47407e-18)
(8.72074 14.1259 -2.26977e-19)
(9.07931 14.4974 -2.9505e-19)
(9.46732 14.8378 5.5636e-18)
(9.88428 15.1858 -1.47819e-17)
(10.33 15.5734 5.27387e-18)
(10.7707 15.9013 3.08522e-18)
(11.075 15.8671 2.90797e-18)
(10.9959 15.0699 4.25998e-18)
(10.2553 13.2527 -5.95303e-18)
(8.71567 10.5211 1.63141e-19)
(6.52342 7.3669 2.14999e-18)
(4.10216 4.47532 -5.22996e-18)
(1.96694 2.40866 1.2398e-17)
(0.443221 1.31086 -1.15542e-17)
(-0.493448 0.885781 1.29878e-17)
(-1.05997 0.767807 -1.23586e-17)
(-1.43892 0.776593 0)
(-1.73021 0.829957 2.49783e-19)
(-1.98511 0.879524 0)
(-2.22411 0.903461 -3.28175e-18)
(-2.45043 0.891406 2.65874e-18)
(-2.66034 0.839454 6.97405e-19)
(-2.84796 0.746842 -1.30312e-18)
(-3.00717 0.614335 -6.14721e-19)
(-3.13228 0.443596 -1.18728e-18)
(-3.21826 0.236727 1.14974e-18)
(-3.26078 -0.00366929 0)
(-3.25704 -0.274081 0)
(-3.20565 -0.571103 -1.03138e-18)
(-3.1064 -0.892362 -2.02777e-18)
(-2.96013 -1.23544 1.98992e-18)
(-2.76979 -1.59623 -1.00608e-18)
(-2.54002 -1.96959 0)
(-2.27502 -2.35195 0)
(-1.98406 -2.7362 -2.50148e-19)
(-1.6718 -3.10618 2.25203e-18)
(-1.275 -3.42684 -1.99605e-18)
(7.98665 11.9832 0)
(8.30555 12.4006 0)
(8.59152 12.7941 -6.33505e-20)
(8.86533 13.1726 2.14137e-19)
(9.14429 13.5369 1.3742e-17)
(9.44007 13.8825 -7.95029e-18)
(9.76031 14.2008 7.67921e-18)
(10.1076 14.4912 3.51376e-18)
(10.4822 14.7814 4.36365e-18)
(10.8844 15.1083 -1.30947e-17)
(11.2949 15.4385 7.17136e-18)
(11.6334 15.5855 3.71582e-18)
(11.7207 15.2251 -5.08844e-18)
(11.3108 14.0519 4.80337e-18)
(10.2068 11.9789 -4.05831e-18)
(8.39788 9.24232 -1.56897e-18)
(6.12422 6.34651 2.82109e-18)
(3.81183 3.87046 0)
(1.88805 2.21825 1.0716e-17)
(0.558749 1.40941 -7.60096e-18)
(-0.264108 1.13322 -8.02067e-18)
(-0.768304 1.08679 7.57246e-18)
(-1.12254 1.10161 -6.73063e-18)
(-1.41375 1.11213 0)
(-1.67474 1.09189 -5.11647e-18)
(-1.91475 1.02979 5.13535e-18)
(-2.13378 0.921852 4.93451e-18)
(-2.32869 0.767515 -3.07774e-18)
(-2.49534 0.568267 0)
(-2.62975 0.326779 0)
(-2.72845 0.0463969 0)
(-2.78857 -0.268336 8.19103e-19)
(-2.80835 -0.612339 7.87836e-19)
(-2.78736 -0.981664 -7.85382e-19)
(-2.72604 -1.37226 7.58715e-19)
(-2.62638 -1.77799 0)
(-2.49192 -2.19191 0)
(-2.3266 -2.60965 0)
(-2.13729 -3.02371 -7.47557e-19)
(-1.92331 -3.41816 0)
(-1.64232 -3.77319 0)
(8.5532 11.6218 0)
(8.83699 11.9924 -4.5716e-18)
(9.09126 12.3392 4.50034e-18)
(9.33175 12.6719 -8.88759e-18)
(9.57186 12.9937 -4.13077e-18)
(9.82118 13.3042 1.44795e-17)
(10.0871 13.6002 -1.38985e-17)
(10.3745 13.874 1.45393e-19)
(10.6859 14.1223 -8.52104e-18)
(11.0223 14.3619 1.12305e-17)
(11.3845 14.6273 -9.65505e-18)
(11.7658 14.9273 6.30583e-19)
(12.1227 15.1696 1.78935e-17)
(12.3366 15.1281 -3.56712e-18)
(12.2126 14.5152 -1.24677e-18)
(11.5421 13.1308 -2.27885e-18)
(10.2084 10.9953 -2.34001e-18)
(8.27896 8.38828 0)
(6.02508 5.77313 4.79547e-18)
(3.8412 3.63472 -7.25391e-18)
(2.08284 2.27724 9.78329e-18)
(0.919468 1.67423 -1.13094e-17)
(0.208817 1.48875 1.14554e-17)
(-0.264 1.4351 -2.21737e-17)
(-0.62224 1.3896 1.0224e-17)
(-0.924417 1.31023 -2.74136e-19)
(-1.193 1.18474 0)
(-1.43529 1.00916 -8.86715e-19)
(-1.65201 0.783451 -4.05949e-19)
(-1.84171 0.509924 3.04288e-18)
(-2.00244 0.192199 -2.87101e-18)
(-2.13237 -0.165056 6.71761e-19)
(-2.22992 -0.555531 -1.28493e-18)
(-2.29456 -0.973334 0)
(-2.32648 -1.41234 5.83776e-19)
(-2.32675 -1.86433 -5.7204e-19)
(-2.29758 -2.32082 0)
(-2.24236 -2.7769 -1.14442e-18)
(-2.16539 -3.22481 3.00074e-19)
(-2.06527 -3.64966 2.85082e-19)
(-1.91952 -4.04018 5.63902e-19)
(9.08131 11.2888 3.83205e-18)
(9.33545 11.6178 -6.44404e-20)
(9.56376 11.9231 0)
(9.77778 12.2146 -3.83536e-18)
(9.98844 12.4966 -1.07719e-17)
(10.2034 12.77 4.99484e-19)
(10.4289 13.0349 6.30662e-18)
(10.6697 13.2882 -2.7834e-18)
(10.9291 13.5236 1.03801e-17)
(11.2091 13.736 -5.06401e-19)
(11.5105 13.9326 -1.19382e-17)
(11.8361 14.1412 8.61956e-18)
(12.187 14.3886 -1.23956e-17)
(12.5436 14.6494 -4.6022e-19)
(12.8376 14.7963 -1.50258e-18)
(12.9333 14.6084 5.64441e-18)
(12.6478 13.8546 7.87186e-18)
(11.8165 12.4107 -7.64809e-18)
(10.3777 10.3453 -5.93847e-18)
(8.4332 7.93072 2.97632e-19)
(6.25126 5.57631 1.11412e-17)
(4.2632 3.74726 6.5003e-18)
(2.75624 2.64484 -7.50353e-18)
(1.71626 2.11535 -4.95172e-19)
(1.01364 1.88547 0)
(0.514278 1.74398 0)
(0.126021 1.59083 6.93845e-18)
(-0.201508 1.39226 -6.02771e-18)
(-0.491181 1.14032 1.86286e-19)
(-0.751995 0.835779 2.67311e-18)
(-0.987041 0.48268 -2.78821e-18)
(-1.19705 0.0859967 -2.59727e-18)
(-1.38185 -0.34789 1.59623e-18)
(-1.54124 -0.811906 -2.02922e-18)
(-1.67492 -1.29806 1.41674e-18)
(-1.78292 -1.79636 9.28038e-19)
(-1.86629 -2.29672 9.12283e-19)
(-1.92788 -2.79306 -8.74239e-19)
(-1.96997 -3.27666 1.32985e-18)
(-1.99312 -3.7339 -4.33983e-19)
(-1.99314 -4.15733 -4.4205e-19)
(9.56987 10.9824 -6.56643e-18)
(9.79828 11.274 3.42626e-18)
(10.0046 11.5422 0)
(10.1972 11.7967 1.9199e-17)
(10.3848 12.0421 -1.29432e-17)
(10.5735 12.2803 0)
(10.7685 12.5121 1.09777e-17)
(10.9742 12.7369 5.17037e-18)
(11.1937 12.9523 -1.88261e-17)
(11.4291 13.1532 1.85018e-17)
(11.6814 13.3337 0)
(11.9523 13.4957 -1.59308e-17)
(12.2451 13.656 1.21756e-17)
(12.5637 13.8426 1.89735e-18)
(12.9037 14.0675 -1.19019e-17)
(13.2338 14.2829 1.78233e-17)
(13.4733 14.356 0)
(13.4876 14.0928 0)
(13.1156 13.3114 -6.74273e-18)
(12.2272 11.93 6.51923e-18)
(10.7863 10.0249 -7.61975e-18)
(8.98063 7.91448 7.88247e-18)
(7.11682 5.96603 -5.64781e-19)
(5.42846 4.41035 9.25711e-18)
(4.05768 3.34688 -1.04838e-17)
(3.02028 2.70279 -5.16517e-18)
(2.25254 2.30841 1.02334e-17)
(1.67291 2.00826 -4.9557e-18)
(1.2128 1.71016 4.78977e-18)
(0.825129 1.37505 -4.40392e-18)
(0.482565 0.9924 4.50832e-18)
(0.171399 0.563221 2.52362e-19)
(-0.114741 0.0924595 -3.86415e-18)
(-0.380052 -0.413583 -1.80292e-18)
(-0.625909 -0.945293 -2.19101e-20)
(-0.851362 -1.48989 1.16105e-18)
(-1.0561 -2.03534 0)
(-1.24212 -2.5744 0)
(-1.40936 -3.09765 -3.55195e-19)
(-1.56047 -3.59184 0)
(-1.7092 -4.04873 0)
(10.017 10.7007 5.60051e-18)
(10.2224 10.9585 -2.89536e-18)
(10.4093 11.1937 -2.20578e-17)
(10.5837 11.4152 5.61469e-19)
(10.7524 11.6277 5.43854e-17)
(10.9206 11.8334 -5.71995e-19)
(11.0923 12.0334 -5.41912e-18)
(11.2712 12.2282 -4.10865e-17)
(11.4602 12.4168 1.74806e-17)
(11.6614 12.5972 -1.60173e-17)
(11.876 12.7656 1.58037e-17)
(12.1052 12.9175 -3.77479e-18)
(12.3502 13.0508 0)
(12.6136 13.1724 1.16301e-17)
(12.9 13.3024 -1.15941e-17)
(13.2133 13.4649 9.10852e-18)
(13.5454 13.6612 -1.35848e-17)
(13.8593 13.8379 -1.09189e-17)
(14.0734 13.8742 1.10215e-17)
(14.0643 13.6074 1.36613e-18)
(13.6864 12.8874 6.19486e-19)
(12.8721 11.7078 -7.01744e-19)
(11.6856 10.2027 3.43922e-19)
(10.2529 8.54356 3.70514e-19)
(8.73463 6.92502 6.46337e-18)
(7.28173 5.5077 -6.84222e-19)
(6.00132 4.37727 -7.21344e-18)
(4.93512 3.52814 -5.42796e-20)
(4.06961 2.88693 2.2232e-19)
(3.36573 2.36075 -5.17733e-20)
(2.78113 1.87474 0)
(2.27988 1.38428 -3.08246e-18)
(1.8355 0.869949 3.03598e-18)
(1.42908 0.326752 0)
(1.04979 -0.242049 9.00838e-20)
(0.692695 -0.827115 0)
(0.356219 -1.41578 0)
(0.0371867 -1.99981 -1.65192e-19)
(-0.263072 -2.5687 3.17189e-19)
(-0.547476 -3.108 -1.54072e-19)
(-0.850759 -3.60703 0)
(10.4037 10.454 0)
(10.589 10.6827 2.02616e-17)
(10.759 10.8896 -3.08649e-17)
(10.9178 11.0832 -9.91307e-18)
(11.0709 11.2678 -9.59917e-18)
(11.2227 11.4458 2.02633e-17)
(11.3764 11.6185 -9.54279e-18)
(11.535 11.7862 -8.89949e-18)
(11.7011 11.9488 -8.39129e-18)
(11.8767 12.1052 0)
(12.063 12.2537 0)
(12.2612 12.3921 7.19855e-18)
(12.4722 12.5169 -1.36241e-17)
(12.6965 12.6244 4.8541e-19)
(12.9358 12.7151 -1.05886e-18)
(13.1941 12.7997 2.46457e-17)
(13.4777 12.8991 9.14792e-19)
(13.7912 13.0332 -1.96374e-18)
(14.125 13.1983 -9.62471e-18)
(14.4422 13.3439 -1.2214e-18)
(14.6627 13.3615 1.08666e-17)
(14.6742 13.1318 -1.87006e-17)
(14.4026 12.5923 9.1572e-18)
(13.8266 11.7373 0)
(12.9727 10.6207 0)
(11.9075 9.33948 3.10017e-19)
(10.7226 8.0077 5.58123e-18)
(9.51308 6.7294 -5.53268e-18)
(8.35796 5.57575 -5.56552e-18)
(7.30662 4.57408 1.07052e-17)
(6.37648 3.71235 -1.06872e-17)
(5.56164 2.95558 5.24801e-18)
(4.84516 2.26418 -1.03139e-19)
(4.20526 1.60449 8.18136e-20)
(3.62389 0.955823 -7.63943e-20)
(3.0882 0.310904 -1.23101e-18)
(2.58923 -0.329335 2.41345e-18)
(2.11697 -0.963417 -1.07063e-18)
(1.66981 -1.58326 0)
(1.24469 -2.17547 1.43652e-19)
(0.780101 -2.72881 0)
(10.7241 10.2477 4.63569e-18)
(10.8924 10.4517 -1.8598e-17)
(11.0479 10.6347 5.66947e-17)
(11.1936 10.8047 -3.80656e-17)
(11.3341 10.9659 0)
(11.4726 11.1205 0)
(11.6123 11.27 9.28212e-18)
(11.7554 11.4148 8.6122e-18)
(11.9041 11.555 8.08722e-18)
(12.0603 11.6898 0)
(12.225 11.818 0)
(12.3996 11.9387 -3.51136e-17)
(12.5849 12.05 5.47214e-17)
(12.7815 12.1493 -4.15361e-18)
(12.9893 12.2328 -2.59143e-17)
(13.209 12.2981 3.14587e-18)
(13.4429 12.3482 6.09471e-18)
(13.6968 12.3959 1.38499e-18)
(13.9791 12.461 -2.74902e-18)
(14.295 12.56 0)
(14.6361 12.6853 1.07731e-19)
(14.9526 12.7878 -9.55641e-18)
(15.1796 12.7968 -2.90632e-19)
(15.2605 12.6444 1.84275e-17)
(15.1485 12.2823 -3.54073e-19)
(14.8202 11.6947 -9.20535e-18)
(14.2795 10.9001 -2.69706e-19)
(13.5557 9.94388 -5.12572e-18)
(12.6958 8.88671 4.40201e-18)
(11.7544 7.79077 1.38891e-19)
(10.7837 6.70827 -3.13421e-19)
(9.82559 5.67423 4.64572e-18)
(8.90836 4.70513 -2.29526e-18)
(8.04329 3.80028 -4.67595e-18)
(7.23346 2.95186 2.13067e-18)
(6.47823 2.15138 0)
(5.77443 1.39149 0)
(5.11052 0.662315 3.42906e-20)
(4.48429 -0.038213 0)
(3.89443 -0.706791 0)
(3.2513 -1.33644 0)
(10.9919 10.0737 -4.23821e-18)
(11.1454 10.2565 4.29857e-18)
(11.2883 10.4192 8.55551e-18)
(11.4225 10.5692 2.5958e-17)
(11.5519 10.7104 -3.58442e-17)
(11.6793 10.8451 1.79091e-17)
(11.8074 10.9746 -1.80064e-17)
(11.9378 11.0995 -4.19841e-17)
(12.0725 11.2201 2.41265e-17)
(12.2131 11.3358 -3.74895e-17)
(12.3607 11.4457 3.65141e-17)
(12.5163 11.549 3.4343e-18)
(12.681 11.6446 3.39387e-18)
(12.8553 11.7311 6.48573e-18)
(13.0395 11.8063 3.19683e-18)
(13.2333 11.8672 2.42279e-17)
(13.4366 11.9106 -2.98614e-17)
(13.6501 11.9355 2.26863e-17)
(13.8776 11.9468 -2.13212e-17)
(14.1263 11.9573 0)
(14.4068 11.9845 -1.2489e-18)
(14.7132 12.038 0)
(15.027 12.1071 1.16216e-18)
(15.3244 12.1628 -9.30059e-18)
(15.5699 12.163 9.34064e-18)
(15.7248 12.0644 0)
(15.7551 11.8322 5.82219e-19)
(15.6379 11.4474 5.12509e-19)
(15.365 10.909 -3.23411e-19)
(14.9423 10.2317 5.81021e-19)
(14.3877 9.44207 -3.29813e-19)
(13.7266 8.57204 -4.37899e-18)
(12.9882 7.6542 4.75682e-18)
(12.1982 6.71482 2.99725e-19)
(11.3805 5.77582 -2.10739e-18)
(10.5559 4.85492 4.48591e-18)
(9.74126 3.9642 -2.23926e-18)
(8.93937 3.10438 0)
(8.15895 2.27967 0)
(7.41362 1.49255 0)
(6.59019 0.745902 -1.46995e-19)
(11.2183 9.92496 7.61819e-18)
(11.3587 10.0893 -2.75458e-17)
(11.4901 10.2344 3.23316e-17)
(11.6141 10.367 3.24862e-17)
(11.7336 10.4912 -3.34947e-17)
(11.8511 10.6088 -2.73114e-19)
(11.9688 10.7211 -3.43285e-17)
(12.0884 10.8289 -7.91747e-18)
(12.2112 10.9323 3.88578e-17)
(12.3388 11.0311 7.29097e-18)
(12.472 11.1246 -6.97432e-18)
(12.6117 11.212 0)
(12.7589 11.2925 1.60949e-17)
(12.9143 11.365 -2.24341e-17)
(13.0781 11.4282 -2.75261e-17)
(13.2505 11.4804 6.60015e-19)
(13.4312 11.5193 2.37787e-17)
(13.6196 11.542 -1.97022e-17)
(13.8157 11.5458 4.74872e-17)
(14.0205 11.5307 -2.20223e-17)
(14.2392 11.5019 0)
(14.4716 11.4725 0)
(14.7185 11.4543 0)
(14.982 11.4523 9.68892e-18)
(15.2556 11.4613 -1.09187e-17)
(15.5247 11.4659 9.2377e-18)
(15.7683 11.4432 -9.78719e-18)
(15.9619 11.3676 8.89402e-18)
(16.082 11.216 -4.03659e-18)
(16.109 10.9715 -4.94297e-18)
(16.03 10.6255 -6.98235e-20)
(15.8392 10.178 0)
(15.5385 9.63614 -2.56102e-19)
(15.1335 9.01086 -2.58018e-19)
(14.6349 8.31706 2.25352e-18)
(14.0571 7.57269 -2.57644e-18)
(13.4174 6.79596 -3.07466e-19)
(12.7254 5.99653 0)
(11.9942 5.18876 0)
(11.2555 4.38222 5.92662e-19)
(10.395 3.5735 -4.38523e-19)
(11.4117 9.79626 -6.99394e-18)
(11.5403 9.94437 0)
(11.6612 10.0741 -2.97118e-17)
(11.7757 10.1918 -3.01812e-17)
(11.8861 10.3012 3.12557e-17)
(11.9946 10.404 -1.55843e-17)
(12.1029 10.5015 4.82591e-17)
(12.2128 10.5944 -1.58907e-17)
(12.3252 10.6829 0)
(12.4412 10.7669 0)
(12.5618 10.8458 0)
(12.6877 10.9191 -2.60885e-17)
(12.8197 10.986 5.73408e-17)
(12.9583 11.0454 -3.11864e-17)
(13.1039 11.0964 2.39864e-17)
(13.2567 11.1377 -2.68025e-17)
(13.4168 11.168 -2.29093e-17)
(13.5837 11.1855 2.01016e-17)
(13.7571 11.1878 -2.18266e-17)
(13.9359 11.1718 2.19236e-17)
(14.1204 11.1353 2.70445e-18)
(14.3055 11.0815 -2.66673e-18)
(14.4905 11.0174 0)
(14.6808 10.9503 0)
(14.8801 10.8873 1.09836e-17)
(15.0897 10.8327 -9.78618e-18)
(15.3071 10.7856 -1.23642e-18)
(15.5252 10.7401 0)
(15.7328 10.6857 -1.20792e-18)
(15.9162 10.6096 5.99128e-19)
(16.0605 10.4986 -4.00891e-18)
(16.1518 10.3412 4.55917e-18)
(16.1783 10.1288 0)
(16.1312 9.85563 -4.56719e-18)
(16.0046 9.51977 2.29378e-18)
(15.7963 9.12326 1.98139e-18)
(15.5085 8.6715 2.64299e-18)
(15.143 8.16678 -1.1774e-18)
(14.7014 7.61691 -1.20491e-18)
(14.2126 7.02998 0)
(13.5819 6.38729 -3.17625e-19)
(11.5782 9.68396 1.90885e-17)
(11.6959 9.81774 -1.33575e-17)
(11.8072 9.93398 1.371e-17)
(11.9128 10.0387 0)
(12.0148 10.1352 -8.64833e-17)
(12.1149 10.2253 8.92487e-17)
(12.2147 10.31 0)
(12.3156 10.39 1.53355e-17)
(12.4184 10.4655 0)
(12.5241 10.5367 0)
(12.6333 10.6029 0)
(12.7469 10.6638 5.05536e-17)
(12.8652 10.7186 -4.98369e-17)
(12.9889 10.7665 -6.07896e-18)
(13.1181 10.8065 0)
(13.253 10.8377 0)
(13.3937 10.8589 0)
(13.5401 10.8688 0)
(13.6918 10.8661 -5.46163e-18)
(13.8482 10.8488 -5.46728e-18)
(14.0086 10.8143 -2.5771e-18)
(14.1662 10.7625 -2.08007e-17)
(14.3174 10.6952 -2.32866e-18)
(14.4636 10.6142 2.3043e-17)
(14.6063 10.523 0)
(14.7483 10.4267 1.27515e-18)
(14.8919 10.33 1.18414e-18)
(15.0387 10.2367 0)
(15.1884 10.1486 -7.22385e-18)
(15.3384 10.0651 1.73587e-17)
(15.4841 9.98321 -1.30673e-17)
(15.619 9.89821 9.4892e-18)
(15.7356 9.80442 -5.96423e-18)
(15.826 9.69568 -6.14534e-19)
(15.8824 9.56613 0)
(15.8974 9.41099 5.66878e-19)
(15.865 9.22696 -2.41922e-18)
(15.7813 9.0099 -6.50866e-19)
(15.6396 8.7579 2.45161e-18)
(15.4512 8.47264 -6.25744e-19)
(15.1653 8.1304 9.12908e-19)
(11.7224 9.58533 0)
(11.8302 9.70637 0)
(11.9326 9.81077 -1.49604e-19)
(12.0299 9.90407 -2.63143e-17)
(12.1239 9.9894 -3.61685e-20)
(12.2161 10.0684 7.15855e-20)
(12.3079 10.142 0)
(12.4004 10.2109 4.31354e-17)
(12.4944 10.2753 -8.40022e-17)
(12.5905 10.3353 5.26098e-17)
(12.6895 10.3906 -5.11199e-17)
(12.7917 10.4407 6.1173e-17)
(12.8977 10.4851 -8.35622e-17)
(13.0078 10.523 5.27855e-17)
(13.1221 10.5537 0)
(13.2408 10.5761 0)
(13.3638 10.5895 0)
(13.491 10.5926 -5.51297e-18)
(13.6221 10.5844 2.6439e-18)
(13.7565 10.5636 -1.69392e-19)
(13.8939 10.5287 2.65138e-18)
(14.0285 10.4803 -2.73054e-18)
(14.1563 10.4194 -2.71392e-18)
(14.277 10.3456 -2.47447e-18)
(14.3897 10.2597 2.57145e-18)
(14.4945 10.1631 1.34213e-18)
(14.5922 10.0582 1.27286e-18)
(14.6842 9.94808 1.26788e-18)
(14.772 9.8361 -1.19151e-18)
(14.857 9.72543 1.22584e-17)
(14.9399 9.61866 -1.09781e-17)
(15.0206 9.51744 4.88806e-18)
(15.0981 9.42237 -8.5901e-18)
(15.1707 9.33294 5.46105e-18)
(15.2356 9.2478 -4.8986e-18)
(15.2893 9.16507 4.88917e-18)
(15.3277 9.08237 0)
(15.3478 8.99644 5.94637e-19)
(15.3443 8.90403 -6.40221e-19)
(15.3158 8.80369 -6.31299e-19)
(15.2541 8.68313 6.21688e-19)
(11.8482 9.4982 0)
(11.9468 9.60792 2.22083e-17)
(12.0408 9.70186 -1.2179e-19)
(12.1303 9.7852 -4.82272e-17)
(12.2169 9.86082 7.56273e-17)
(12.3017 9.93022 -5.18684e-17)