/*--------------------------------*- C++ -*----------------------------------*\
| =========                 |                                                 |
| \\      /  F ield         | OpenFOAM: The Open Source CFD Toolbox           |
|  \\    /   O peration     | Version:  5.x                                   |
|   \\  /    A nd           | Web:      www.OpenFOAM.org                      |
|    \\/     M anipulation  |                                                 |
\*---------------------------------------------------------------------------*/
FoamFile
{
    version     2.0;
    format      ascii;
    class       volVectorField;
    location    "400";
    object      wallShearStress;
}
// * * * * * * * * * * * * * * * * * * * * * * * * * * * * * * * * * * * * * //

dimensions      [0 2 -2 0 0 0 0];

internalField   uniform (0 0 0);

boundaryField
{
    inlet
    {
        type            calculated;
        value           uniform (0 0 0);
    }
    outlet
    {
        type            calculated;
        value           uniform (0 0 0);
    }
    walls
    {
        type            calculated;
        value           nonuniform List<vector> 
82
(
(0.310008 -1.7185 0)
(0.009777 -2.39897 1.13759e-20)
(-0.341335 -2.93302 -1.43758e-18)
(-0.841371 -2.92315 -1.54605e-18)
(-1.21409 -2.61142 -3.34979e-18)
(-1.45325 -2.18047 1.60318e-18)
(-1.57267 -1.73327 1.4733e-18)
(-1.59563 -1.32506 -1.31129e-18)
(-1.54505 -0.978683 -2.81104e-18)
(-1.4322 -0.69348 -8.80511e-20)
(-1.22652 -0.437794 -1.04871e-18)
(-0.991169 -0.24325 3.97282e-20)
(-0.811496 -0.136369 -5.33464e-19)
(-0.696709 -0.0882552 -3.32129e-19)
(-0.591386 -0.0574573 -1.29778e-19)
(-0.471419 -0.0299145 2.37127e-20)
(-0.34487 -0.00979768 -1.10978e-19)
(-0.225648 0.00120568 -2.48924e-20)
(-0.121862 0.00507634 2.27477e-20)
(-0.0426644 0.0041328 2.24489e-19)
(-0.00341894 0.000978025 1.59014e-19)
(0.0104684 -0.000571998 2.96889e-19)
(0.0251629 -0.0021296 7.57393e-19)
(0.036557 -0.00353706 5.52308e-20)
(0.0436075 -0.00473421 2.48715e-22)
(0.0471069 -0.00567317 -3.17854e-20)
(0.0485902 -0.00649365 2.0927e-18)
(0.0493588 -0.00736166 -3.30161e-20)
(0.0502126 -0.00828938 2.16425e-18)
(0.0516432 -0.00928196 -2.10705e-18)
(0.0539778 -0.0104377 -3.32002e-20)
(0.057527 -0.0118378 -1.62846e-20)
(0.0624789 -0.0134895 1.585e-20)
(0.0685417 -0.0152349 0)
(0.0743215 -0.0166219 -3.78209e-18)
(0.0767536 -0.0168995 9.0278e-36)
(0.0723417 -0.0153766 -3.87913e-37)
(0.0609406 -0.0119454 6.33318e-21)
(0.0403377 -0.00556857 -4.28952e-21)
(0.0178104 0.00357567 2.25219e-18)
(0.0172313 0.0197038 2.19717e-18)
(0.379687 -1.19625 -4.56034e-19)
(0.269028 -0.600448 -6.70635e-20)
(0.141171 -0.257778 -3.4443e-18)
(0.0402656 -0.077842 -1.68757e-18)
(-0.00185494 -0.0115627 -1.13083e-18)
(-0.0290836 0.0052473 -1.95964e-18)
(-0.0791684 0.0288152 -4.58618e-18)
(-0.136981 0.0506609 -2.19347e-18)
(-0.19545 0.0677293 1.97474e-18)
(-0.25996 0.08667 1.37118e-19)
(-0.334955 0.103689 -4.2171e-18)
(-0.405264 0.106633 1.93511e-18)
(-0.463704 0.0996041 3.84681e-21)
(-0.515196 0.0902434 1.20881e-18)
(-0.562285 0.0796251 1.86719e-18)
(-0.603925 0.0670998 -1.14148e-19)
(-0.639598 0.0530085 4.70198e-37)
(-0.669607 0.0379661 -7.34809e-19)
(-0.694349 0.0224973 -5.1519e-20)
(-0.714351 0.00702657 -3.88336e-19)
(-0.729571 -0.00797944 6.89043e-22)
(-0.740784 -0.0218411 -9.40395e-37)
(-0.747779 -0.033086 -7.8838e-19)
(-0.75311 -0.0431265 -6.79609e-19)
(-0.757278 -0.0522116 1.41396e-18)
(-0.760633 -0.0604902 1.37857e-18)
(-0.763514 -0.0680525 2.68862e-18)
(-0.766163 -0.074989 1.31087e-18)
(-0.768774 -0.0813916 3.96246e-20)
(-0.771503 -0.0873594 -1.28371e-18)
(-0.774517 -0.092992 -1.23166e-18)
(-0.77798 -0.0983978 2.37949e-18)
(-0.782064 -0.10369 2.31337e-18)
(-0.786959 -0.108981 -2.24584e-18)
(-0.792838 -0.114388 1.67353e-20)
(-0.799977 -0.120033 -1.64822e-20)
(-0.808591 -0.126059 -1.17549e-38)
(-0.819954 -0.132738 -2.93874e-39)
(-0.832032 -0.140184 3.58755e-21)
(-0.860878 -0.150071 -1.79617e-18)
(-0.857554 -0.159655 1.62643e-21)
)
;
    }
    frontAndBack
    {
        type            empty;
    }
}


// ************************************************************************* //
