# Wall shear stress
# Time       	patch        	min          	max          
0.000000e+00	walls	(-8.825905e+00 -4.400595e-01 -1.232014e-18)	(-4.368428e+00 1.335371e+00 1.863403e-18)
5.000000e+01	walls	(-1.396411e+03 -4.369703e+02 -4.159330e-15)	(-6.268271e+01 1.456336e+03 3.976576e-15)
1.000000e+02	walls	(-1.412630e+03 -4.472236e+02 -4.697898e-15)	(-6.634429e+01 1.455779e+03 4.098098e-15)
1.500000e+02	walls	(-1.413043e+03 -4.469897e+02 -4.698863e-15)	(-6.622637e+01 1.456509e+03 4.100392e-15)
2.000000e+02	walls	(-1.412991e+03 -4.469810e+02 -4.698597e-15)	(-6.621702e+01 1.456548e+03 4.100177e-15)
2.270000e+02	walls	(-1.412985e+03 -4.469726e+02 -4.698443e-15)	(-6.621402e+01 1.456556e+03 4.100080e-15)
