# Wall shear stress
# Time       	patch        	min          	max          
0.000000e+00	walls	(-2.454063e+01 -1.302748e+01 -1.440173e-18)	(-1.102246e+01 -3.120987e+00 1.328530e-18)
5.000000e+01	walls	(-4.473117e+02 -1.032125e+03 -2.047781e-15)	(2.253139e+02 1.328507e+02 1.178901e-15)
1.000000e+02	walls	(-3.735381e+02 -2.272821e+03 -4.553645e-15)	(6.766850e+02 1.315288e+02 2.585683e-15)
1.500000e+02	walls	(-3.678718e+02 -2.681745e+03 -4.940427e-15)	(9.373877e+02 1.686106e+02 2.829019e-15)
2.000000e+02	walls	(-4.009702e+02 -2.166724e+03 -3.410441e-15)	(1.077378e+03 4.509807e+02 1.971542e-15)
2.500000e+02	walls	(-3.997633e+02 -2.008364e+03 -3.098373e-15)	(1.504581e+03 5.034299e+02 1.790322e-15)
3.000000e+02	walls	(-3.811331e+02 -1.837971e+03 -2.803356e-15)	(1.619512e+03 4.530427e+02 1.694595e-15)
3.500000e+02	walls	(-3.587113e+02 -1.665371e+03 -2.542529e-15)	(1.640336e+03 3.900035e+02 1.593134e-15)
4.000000e+02	walls	(-3.384028e+02 -1.499361e+03 -2.261495e-15)	(1.623145e+03 3.317591e+02 1.437943e-15)
4.500000e+02	walls	(-3.309795e+02 -1.358500e+03 -2.004040e-15)	(1.579093e+03 2.807215e+02 1.235930e-15)
5.000000e+02	walls	(-3.402291e+02 -1.236192e+03 -1.737708e-15)	(1.520562e+03 2.368768e+02 1.096357e-15)
5.500000e+02	walls	(-3.356279e+02 -1.136338e+03 -1.525099e-15)	(1.431499e+03 2.073858e+02 9.714927e-16)
6.000000e+02	walls	(-2.621513e+02 -1.058693e+03 -1.464433e-15)	(1.339056e+03 1.915495e+02 8.833587e-16)
6.500000e+02	walls	(-2.206614e+02 -1.000350e+03 -1.465585e-15)	(1.233186e+03 1.761320e+02 8.389271e-16)
7.000000e+02	walls	(-2.429710e+02 -9.842339e+02 -1.431423e-15)	(1.173299e+03 1.686713e+02 8.437105e-16)
7.500000e+02	walls	(-2.420869e+02 -1.000855e+03 -1.483430e-15)	(1.096332e+03 1.702689e+02 8.854656e-16)
8.000000e+02	walls	(-2.180020e+02 -1.018362e+03 -1.570141e-15)	(9.969675e+02 1.760699e+02 9.323078e-16)
8.500000e+02	walls	(-2.021225e+02 -1.023822e+03 -1.640871e-15)	(9.265214e+02 1.822443e+02 9.683863e-16)
9.000000e+02	walls	(-1.997495e+02 -1.020099e+03 -1.684619e-15)	(8.780734e+02 1.874824e+02 9.936856e-16)
9.500000e+02	walls	(-2.064193e+02 -1.008965e+03 -1.701763e-15)	(8.513071e+02 1.897095e+02 1.009014e-15)
1.000000e+03	walls	(-2.164546e+02 -9.997120e+02 -1.686687e-15)	(8.336686e+02 1.915436e+02 1.009597e-15)
1.050000e+03	walls	(-2.296138e+02 -1.007721e+03 -1.627873e-15)	(8.188529e+02 1.891863e+02 9.869755e-16)
1.100000e+03	walls	(-2.503514e+02 -9.938464e+02 -1.521145e-15)	(8.065319e+02 1.835981e+02 9.438951e-16)
1.150000e+03	walls	(-2.822889e+02 -9.584711e+02 -1.364088e-15)	(7.971374e+02 1.761630e+02 8.774674e-16)
1.200000e+03	walls	(-3.330346e+02 -8.988561e+02 -1.157311e-15)	(7.735237e+02 1.647551e+02 7.837737e-16)
1.250000e+03	walls	(-4.094341e+02 -8.204769e+02 -9.011038e-16)	(7.325200e+02 1.515947e+02 6.697076e-16)
1.300000e+03	walls	(-5.237361e+02 -7.264044e+02 -5.984819e-16)	(6.691705e+02 1.854402e+02 5.392590e-16)
1.350000e+03	walls	(-7.116969e+02 -6.330525e+02 -3.154980e-16)	(5.882697e+02 2.533414e+02 3.953440e-16)
1.400000e+03	walls	(-9.382925e+02 -5.718230e+02 -5.188120e-16)	(5.084510e+02 3.299186e+02 6.625231e-16)
1.450000e+03	walls	(-1.071523e+03 -5.001367e+02 -9.465054e-16)	(4.490916e+02 3.764281e+02 9.994428e-16)
1.500000e+03	walls	(-1.105198e+03 -4.060570e+02 -1.234549e-15)	(4.035354e+02 4.066839e+02 1.181429e-15)
1.550000e+03	walls	(-1.140383e+03 -3.095625e+02 -1.363573e-15)	(3.609396e+02 5.124670e+02 1.322905e-15)
1.600000e+03	walls	(-1.299770e+03 -2.294094e+02 -1.374945e-15)	(3.062270e+02 5.828529e+02 1.343673e-15)
1.650000e+03	walls	(-1.333359e+03 -1.523651e+02 -1.404210e-15)	(2.395342e+02 6.046787e+02 1.375574e-15)
1.700000e+03	walls	(-1.277754e+03 -1.340421e+02 -1.347310e-15)	(1.810106e+02 5.878653e+02 1.318394e-15)
