# Wall shear stress
# Time       	patch        	min          	max          
0.000000e+00	walls	(-5.725995e+00 -4.599637e-02 -2.405276e-18)	(-4.401308e+00 1.413371e+00 1.855311e-18)
5.000000e+01	walls	(-1.815999e+03 -5.900980e+02 -4.421077e-15)	(1.995217e+01 1.264645e+03 4.269380e-15)
1.000000e+02	walls	(-1.955434e+03 -5.147556e+02 -4.375224e-15)	(1.762280e+01 1.434753e+03 4.371602e-15)
1.500000e+02	walls	(-2.016480e+03 -4.858494e+02 -4.392899e-15)	(1.643950e+01 1.510345e+03 4.382588e-15)
2.000000e+02	walls	(-2.032350e+03 -4.783939e+02 -4.402216e-15)	(1.469911e+01 1.530204e+03 4.390195e-15)
2.500000e+02	walls	(-2.038133e+03 -4.757539e+02 -4.405157e-15)	(1.444438e+01 1.537261e+03 4.392541e-15)
3.000000e+02	walls	(-2.039906e+03 -4.749390e+02 -4.406121e-15)	(1.432275e+01 1.539455e+03 4.393288e-15)
3.500000e+02	walls	(-2.040488e+03 -4.746733e+02 -4.406436e-15)	(1.428968e+01 1.540165e+03 4.393550e-15)
3.680000e+02	walls	(-2.040580e+03 -4.746316e+02 -4.406472e-15)	(1.428461e+01 1.540280e+03 4.393576e-15)
