/*--------------------------------*- C++ -*----------------------------------*\
| =========                 |                                                 |
| \\      /  F ield         | OpenFOAM: The Open Source CFD Toolbox           |
|  \\    /   O peration     | Version:  5.x                                   |
|   \\  /    A nd           | Web:      www.OpenFOAM.org                      |
|    \\/     M anipulation  |                                                 |
\*---------------------------------------------------------------------------*/
FoamFile
{
    version     2.0;
    format      ascii;
    class       volScalarField;
    location    "1600";
    object      p;
}
// * * * * * * * * * * * * * * * * * * * * * * * * * * * * * * * * * * * * * //

dimensions      [0 2 -2 0 0 0 0];

internalField   nonuniform List<scalar> 
11040
(
-0.00131033
-93.5296
-334.01
-377.794
-376.368
-369.505
-353.42
-326.889
-293.329
-254.186
-209.578
-151.571
-97.3945
-56.1137
-23.698
9.15983
41.168
70.3336
95.7502
116.138
130.119
136.892
140.052
141.999
143.368
144.404
145.184
145.739
146.103
146.306
146.367
146.3
146.128
145.909
145.814
146.206
147.351
149.184
152.937
159.34
155.029
52.5081
-41.108
-191.78
-257.533
-281.958
-296.509
-299.918
-290.006
-269.151
-239.496
-202.166
-151.075
-99.8847
-58.5935
-25.6
7.25511
39.3139
68.7202
94.4921
115.33
129.753
136.771
140.003
141.966
143.34
144.384
145.175
145.741
146.117
146.329
146.398
146.337
146.166
145.938
145.815
146.159
147.244
148.991
152.521
158.574
151.965
88.1734
-6.10212
-112.546
-196.958
-238.486
-260.068
-268.402
-263.424
-247.349
-222.407
-190.1
-145.95
-98.6779
-58.2422
-25.4231
6.64738
38.2295
67.521
93.3916
114.536
129.37
136.696
140.032
141.996
143.349
144.387
145.18
145.752
146.135
146.355
146.433
146.379
146.213
145.981
145.834
146.118
147.122
148.776
152.083
157.992
149.918
114.911
30.1562
-48.5993
-127.211
-176.065
-205.611
-222.701
-226.735
-218.611
-200.521
-174.392
-137.524
-95.2647
-56.665
-24.3732
6.67188
37.4805
66.4281
92.2552
113.64
128.896
136.619
140.123
142.09
143.415
144.428
145.209
145.779
146.167
146.392
146.477
146.431
146.268
146.031
145.854
146.061
146.947
148.463
151.486
157.157
148.874
137.023
64.3229
3.26881
-64.7044
-116.737
-152.271
-175.792
-187.149
-186.451
-175.318
-155.697
-126.235
-89.8906
-54.0867
-22.7362
7.08633
36.7763
65.0754
90.6658
112.231
128.004
136.326
140.177
142.23
143.543
144.521
145.275
145.833
146.216
146.443
146.534
146.496
146.339
146.094
145.88
145.991
146.722
148.052
150.745
155.938
148.482
154.78
94.3255
45.5137
-11.2234
-60.9708
-98.9234
-126.735
-144.06
-150.293
-146.232
-133.471
-111.511
-81.7425
-49.7613
-20.0784
8.1928
36.3749
63.6359
88.6767
110.225
126.507
135.632
140.084
142.376
143.733
144.682
145.397
145.927
146.294
146.515
146.608
146.578
146.427
146.175
145.92
145.917
146.456
147.557
149.894
154.387
148.493
169.034
119.683
79.9199
33.3329
-10.9348
-47.9377
-77.4908
-98.7838
-110.669
-113.172
-107.27
-92.8014
-70.1204
-43.0406
-15.9877
10.2807
36.5652
62.3602
86.4594
107.664
124.294
134.315
139.634
142.421
143.962
144.925
145.596
146.082
146.418
146.62
146.707
146.682
146.536
146.278
145.979
145.852
146.172
147.016
148.98
152.654
148.746
180.436
140.468
107.795
69.8327
32.1555
-1.5939
-30.5409
-53.5905
-69.2926
-77.121
-77.4114
-69.9877
-54.5114
-33.223
-9.87027
13.7629
37.7199
61.5969
84.3136
104.745
121.399
132.169
138.475
142.09
144.111
145.247
145.911
146.335
146.615
146.781
146.849
146.818
146.674
146.41
146.069
145.816
145.906
146.484
148.074
150.959
149.059
189.483
157.141
130.192
99.3507
68.1156
38.8049
12.2429
-10.5398
-28.0835
-39.555
-44.8063
-43.4875
-34.7968
-19.729
-1.02613
19.1958
40.3097
61.8065
82.6985
101.912
118.163
129.29
136.374
140.967
143.807
145.462
146.343
146.765
146.954
147.038
147.059
147.008
146.858
146.588
146.213
145.847
145.717
146.042
147.281
149.55
149.362
196.561
170.309
148.03
122.999
97.487
72.8712
49.6588
28.636
11.0185
-2.29442
-10.904
-14.3143
-11.4538
-2.42933
11.07
27.1601
44.8576
63.4873
82.1129
99.6942
115.115
126.164
133.606
138.94
142.629
145.069
146.549
147.307
147.571
147.558
147.436
147.292
147.11
146.834
146.439
145.998
145.698
145.803
146.733
148.605
149.672
202.008
180.591
162.134
141.808
121.127
100.882
81.2884
62.8601
46.4637
32.8766
22.5573
16.0289
14.4305
18.1973
26.5286
38.0788
51.8757
67.1656
83.0688
98.5997
112.761
123.376
130.831
136.506
140.723
143.8
145.974
147.381
148.134
148.371
148.263
147.968
147.603
147.214
146.784
146.321
145.939
145.899
146.61
148.25
150.079
206.123
188.55
173.226
156.695
139.979
123.526
107.366
91.7835
77.3372
64.591
53.9474
45.8524
41.3383
41.0778
44.8827
51.989
61.6905
73.3178
86.0986
99.1555
111.601
121.428
128.638
134.357
138.784
142.163
144.738
146.663
148.01
148.816
149.145
149.092
148.77
148.273
147.667
147.052
146.572
146.456
147.049
148.63
150.83
209.174
194.676
181.925
168.446
154.935
141.637
128.491
115.623
103.375
92.0983
82.0853
73.6636
67.6594
64.7583
65.1036
68.3833
74.2271
82.1755
91.633
101.89
112.197
120.828
127.492
133.001
137.437
140.93
143.657
145.788
147.439
148.671
149.507
149.965
150.076
149.905
149.522
149.033
148.552
148.292
148.634
150.029
152.178
211.393
199.375
188.744
177.722
166.78
156.05
145.431
134.958
124.829
115.243
106.377
98.448
92.0544
87.7699
85.8552
86.2669
88.9027
93.5366
99.7882
107.152
115.053
122.122
127.894
132.892
137.11
140.578
143.374
145.603
147.372
148.772
149.868
150.698
151.279
151.627
151.766
151.788
151.819
152.023
152.617
154.085
155.822
212.971
202.973
194.097
185.056
176.171
167.505
158.948
150.49
142.237
134.299
126.761
119.753
113.678
108.961
105.855
104.432
104.742
106.735
110.226
114.909
120.397
125.706
130.316
134.513
138.24
141.471
144.209
146.492
148.374
149.917
151.184
152.236
153.127
153.902
154.592
155.253
155.962
156.838
157.969
159.902
161.547
214.08
205.742
198.322
190.882
183.641
176.625
169.727
162.918
156.249
149.778
143.535
137.587
132.197
127.654
124.151
121.787
120.662
120.821
122.214
124.694
128.038
131.627
134.974
138.196
141.219
143.991
146.478
148.675
150.598
152.274
153.738
155.034
156.21
157.322
158.431
159.601
160.895
162.409
164.153
166.536
168.668
214.894
207.931
201.723
195.58
189.658
183.956
178.381
172.895
167.52
162.283
157.19
152.267
147.68
143.618
140.212
137.542
135.709
134.788
134.795
135.687
137.359
139.479
141.654
143.899
146.142
148.327
150.407
152.357
154.172
155.859
157.434
158.92
160.346
161.75
163.179
164.684
166.318
168.163
170.253
172.777
175.444
215.453
209.575
204.322
199.179
194.264
189.56
184.985
180.503
176.12
171.85
167.689
163.639
159.807
156.314
153.246
150.658
148.63
147.233
146.505
146.451
147.035
148.11
149.385
150.826
152.38
153.996
155.631
157.252
158.846
160.406
161.938
163.451
164.96
166.487
168.059
169.706
171.455
173.352
175.428
177.735
180.266
215.81
210.771
206.257
201.877
197.725
193.773
189.948
186.217
182.581
179.043
175.596
172.235
169.029
166.06
163.381
161.031
159.067
157.547
156.509
155.976
155.943
156.369
157.041
157.912
158.945
160.102
161.345
162.645
163.985
165.355
166.75
168.173
169.628
171.125
172.68
174.302
176.005
177.806
179.719
181.747
183.907
216.056
211.682
207.753
203.971
200.409
197.036
193.786
190.629
187.564
184.588
181.694
178.874
176.175
173.652
171.342
169.268
167.472
165.999
164.881
164.143
163.794
163.845
164.141
164.635
165.305
166.12
167.052
168.076
169.176
170.34
171.561
172.834
174.158
175.536
176.971
178.466
180.023
181.649
183.346
185.107
186.937
216.237
212.401
208.949
205.647
202.556
199.64
196.844
194.139
191.522
188.99
186.532
184.144
181.856
179.707
177.723
175.918
174.324
172.971
171.889
171.098
170.612
170.465
170.54
170.798
171.223
171.796
172.493
173.294
174.186
175.157
176.198
177.302
178.465
179.683
180.957
182.284
183.659
185.085
186.559
188.073
189.626
216.38
212.989
209.932
207.024
204.316
201.771
199.34
196.999
194.742
192.566
190.46
188.42
186.468
184.632
182.928
181.369
179.974
178.77
177.776
177.012
176.49
176.251
176.206
176.322
176.59
176.996
177.521
178.15
178.87
179.672
180.547
181.486
182.484
183.536
184.638
185.785
186.971
188.197
189.456
190.741
192.049
216.5
213.482
210.758
208.178
205.787
203.549
201.419
199.375
197.413
195.527
193.71
191.955
190.281
188.705
187.242
185.898
184.689
183.634
182.749
182.049
181.544
181.277
181.173
181.208
181.379
181.672
182.073
182.571
183.154
183.815
184.544
185.334
186.179
187.072
188.01
188.987
189.995
191.034
192.098
193.179
194.274
216.606
213.905
211.463
209.162
207.037
205.055
203.176
201.381
199.663
198.019
196.44
194.923
193.478
192.122
190.863
189.707
188.664
187.75
186.976
186.354
185.894
185.631
185.506
185.499
185.609
185.827
186.14
186.538
187.014
187.559
188.165
188.826
189.536
190.288
191.079
191.901
192.75
193.623
194.515
195.42
196.333
216.702
214.273
212.075
210.01
208.112
206.348
204.681
203.094
201.583
200.141
198.763
197.444
196.194
195.023
193.938
192.943
192.047
191.259
190.591
190.049
189.643
189.403
189.276
189.25
189.325
189.492
189.742
190.065
190.456
190.907
191.412
191.964
192.558
193.188
193.851
194.54
195.251
195.981
196.725
197.48
198.238
216.793
214.598
212.61
210.751
209.047
207.469
205.983
204.574
203.238
201.969
200.761
199.61
198.523
197.51
196.573
195.717
194.948
194.273
193.699
193.235
192.884
192.673
192.556
192.524
192.579
192.712
192.915
193.182
193.505
193.881
194.302
194.763
195.26
195.787
196.341
196.917
197.511
198.12
198.74
199.368
199.997
216.878
214.888
213.084
211.402
209.866
208.449
207.119
205.863
204.677
203.555
202.492
201.485
200.538
199.659
198.85
198.113
197.453
196.876
196.387
195.992
195.694
195.514
195.411
195.381
195.424
195.534
195.703
195.925
196.196
196.51
196.863
197.249
197.665
198.106
198.569
199.05
199.545
200.053
200.569
201.092
201.614
216.961
215.149
213.505
211.979
210.589
209.311
208.116
206.994
205.937
204.942
204.005
203.12
202.294
201.529
200.829
200.194
199.629
199.137
198.722
198.388
198.138
197.988
197.901
197.876
197.913
198.006
198.149
198.337
198.565
198.83
199.126
199.451
199.799
200.169
200.556
200.958
201.372
201.795
202.225
202.66
203.095
217.04
215.385
213.883
212.492
211.231
210.074
208.997
207.99
207.046
206.162
205.332
204.554
203.831
203.165
202.559
202.012
201.528
201.109
200.759
200.478
200.27
200.147
200.076
200.056
200.09
200.171
200.294
200.454
200.648
200.872
201.123
201.396
201.689
202
202.324
202.661
203.006
203.36
203.719
204.082
204.444
217.116
215.599
214.221
212.95
211.802
210.752
209.779
208.872
208.027
207.238
206.503
205.817
205.183
204.603
204.078
203.607
203.193
202.837
202.541
202.307
202.135
202.035
201.979
201.966
201.998
202.069
202.176
202.314
202.48
202.67
202.883
203.114
203.361
203.622
203.895
204.178
204.467
204.763
205.063
205.367
205.669
217.189
215.794
214.527
213.361
212.312
211.356
210.473
209.655
208.896
208.192
207.539
206.934
206.378
205.872
205.416
205.011
204.657
204.355
204.106
203.911
203.77
203.691
203.647
203.64
203.671
203.735
203.829
203.948
204.091
204.254
204.435
204.631
204.84
205.06
205.29
205.527
205.771
206.019
206.271
206.525
206.777
217.259
215.971
214.802
213.73
212.768
211.895
211.093
210.353
209.67
209.04
208.459
207.924
207.435
206.994
206.599
206.25
205.947
205.692
205.483
205.322
205.208
205.145
205.112
205.111
205.141
205.199
205.282
205.386
205.509
205.649
205.803
205.97
206.147
206.334
206.528
206.728
206.933
207.142
207.353
207.566
207.778
217.326
216.133
215.05
214.06
213.176
212.376
211.645
210.974
210.358
209.794
209.276
208.803
208.374
207.988
207.646
207.346
207.088
206.872
206.698
206.565
206.473
206.425
206.402
206.404
206.434
206.487
206.56
206.651
206.758
206.878
207.011
207.153
207.304
207.462
207.626
207.795
207.968
208.144
208.322
208.501
208.679
217.39
216.28
215.274
214.357
213.541
212.807
212.138
211.528
210.972
210.465
210.004
209.585
209.207
208.871
208.575
208.317
208.097
207.915
207.77
207.662
207.589
207.553
207.537
207.543
207.572
207.621
207.686
207.766
207.859
207.963
208.077
208.198
208.327
208.461
208.601
208.744
208.89
209.038
209.188
209.34
209.489
217.449
216.414
215.475
214.623
213.868
213.191
212.578
212.022
211.519
211.063
210.651
210.28
209.948
209.655
209.399
209.178
208.991
208.839
208.719
208.631
208.573
208.548
208.538
208.547
208.575
208.62
208.679
208.749
208.83
208.92
209.018
209.122
209.232
209.347
209.465
209.586
209.71
209.835
209.962
210.09
210.215
217.506
216.534
215.655
214.861
214.159
213.533
212.969
212.462
212.005
211.595
211.227
210.898
210.607
210.351
210.13
209.941
209.784
209.656
209.558
209.487
209.443
209.426
209.421
209.433
209.46
209.501
209.554
209.616
209.687
209.765
209.85
209.94
210.034
210.131
210.232
210.335
210.439
210.546
210.653
210.761
210.867
217.558
216.643
215.816
215.072
214.417
213.836
213.317
212.852
212.437
212.067
211.738
211.447
211.191
210.969
210.779
210.618
210.485
210.379
210.299
210.243
210.21
210.2
210.2
210.213
210.24
210.278
210.326
210.381
210.443
210.511
210.584
210.661
210.742
210.825
210.911
210.998
211.087
211.177
211.268
211.359
211.448
217.606
216.74
215.959
215.259
214.645
214.104
213.623
213.197
212.819
212.485
212.191
211.933
211.709
211.516
211.353
211.217
211.106
211.019
210.954
210.911
210.887
210.883
210.887
210.902
210.928
210.963
211.006
211.056
211.11
211.17
211.233
211.3
211.369
211.44
211.513
211.588
211.663
211.739
211.816
211.893
211.968
217.65
216.826
216.084
215.422
214.845
214.339
213.892
213.5
213.155
212.853
212.59
212.362
212.166
211.999
211.86
211.745
211.653
211.583
211.532
211.499
211.484
211.484
211.491
211.507
211.532
211.565
211.604
211.648
211.697
211.749
211.804
211.861
211.921
211.982
212.044
212.108
212.171
212.236
212.301
212.366
212.429
217.689
216.901
216.193
215.564
215.018
214.542
214.126
213.763
213.448
213.175
212.939
212.738
212.567
212.423
212.305
212.21
212.135
212.079
212.04
212.017
212.008
212.013
212.023
212.04
212.065
212.096
212.132
212.172
212.215
212.261
212.309
212.359
212.41
212.462
212.516
212.569
212.624
212.678
212.733
212.788
212.841
217.725
216.965
216.285
215.684
215.165
214.715
214.326
213.989
213.7
213.453
213.243
213.065
212.916
212.794
212.694
212.616
212.556
212.512
212.484
212.469
212.466
212.474
212.486
212.504
212.528
212.558
212.591
212.626
212.665
212.705
212.747
212.791
212.835
212.88
212.926
212.972
213.018
213.064
213.11
213.157
213.202
217.755
217.019
216.362
215.784
215.287
214.86
214.494
214.181
213.915
213.69
213.502
213.346
213.218
213.114
213.032
212.968
212.922
212.89
212.871
212.864
212.866
212.878
212.893
212.913
212.937
212.965
212.996
213.029
213.064
213.101
213.138
213.176
213.214
213.253
213.292
213.332
213.371
213.41
213.449
213.488
213.525
217.781
217.062
216.423
215.863
215.385
214.977
214.631
214.338
214.093
213.889
213.721
213.584
213.473
213.386
213.32
213.27
213.235
213.213
213.202
213.201
213.208
213.222
213.239
213.259
213.283
213.31
213.339
213.369
213.401
213.433
213.466
213.5
213.533
213.567
213.601
213.635
213.668
213.701
213.734
213.767
213.799
217.802
217.094
216.468
215.922
215.458
215.066
214.736
214.462
214.235
214.049
213.899
213.78
213.686
213.615
213.563
213.526
213.503
213.492
213.49
213.496
213.508
213.527
213.546
213.569
213.594
213.621
213.649
213.678
213.708
213.738
213.768
213.798
213.827
213.857
213.886
213.915
213.943
213.971
213.999
214.026
214.052
217.818
217.118
216.5
215.964
215.51
215.13
214.814
214.553
214.342
214.173
214.039
213.935
213.857
213.799
213.759
213.733
213.719
213.715
213.719
213.73
213.746
213.766
213.787
213.81
213.836
213.862
213.889
213.916
213.944
213.971
213.998
214.025
214.051
214.077
214.103
214.128
214.153
214.177
214.201
214.224
214.246
217.83
217.13
216.516
215.986
215.54
215.169
214.864
214.616
214.417
214.262
214.142
214.052
213.988
213.945
213.92
213.908
213.907
213.914
213.928
213.947
213.969
213.995
214.021
214.047
214.075
214.103
214.13
214.158
214.185
214.211
214.236
214.261
214.285
214.309
214.331
214.353
214.374
214.395
214.414
214.433
214.452
217.835
217.125
216.506
215.975
215.532
215.168
214.872
214.636
214.451
214.309
214.203
214.126
214.074
214.041
214.023
214.018
214.024
214.037
214.055
214.077
214.102
214.129
214.156
214.183
214.211
214.239
214.266
214.292
214.318
214.343
214.367
214.39
214.412
214.434
214.454
214.474
214.493
214.511
214.528
214.545
214.561
217.832
217.104
216.473
215.935
215.489
215.127
214.837
214.609
214.436
214.308
214.217
214.158
214.125
214.112
214.116
214.131
214.156
214.186
214.219
214.253
214.287
214.322
214.356
214.388
214.42
214.45
214.479
214.507
214.533
214.558
214.582
214.604
214.624
214.644
214.662
214.68
214.696
214.711
214.726
214.74
214.753
160.775
165.472
171.699
176.656
181.817
187.241
192.447
197.25
201.571
205.371
208.648
211.428
213.755
215.675
217.238
218.492
219.483
220.253
220.838
221.272
221.583
221.793
221.924
221.992
222.01
221.989
221.94
221.868
221.781
221.682
221.575
221.465
221.352
221.239
221.128
221.02
220.915
220.815
220.718
220.626
220.538
220.455
220.376
220.301
220.231
220.164
220.101
220.041
219.985
219.931
219.881
219.834
219.789
219.747
219.707
219.669
219.634
219.6
219.568
219.538
219.51
219.483
219.457
219.434
219.411
219.39
219.371
219.354
219.338
219.325
219.312
219.308
219.291
219.313
157.103
163.411
170.005
175.533
181.078
186.73
192.107
197.039
201.457
205.325
208.648
211.459
213.802
215.731
217.297
218.549
219.536
220.3
220.879
221.306
221.61
221.814
221.939
222.002
222.016
221.992
221.939
221.864
221.774
221.673
221.565
221.453
221.34
221.226
221.115
221.006
220.901
220.8
220.704
220.612
220.524
220.441
220.362
220.288
220.217
220.151
220.088
220.029
219.973
219.92
219.87
219.823
219.779
219.737
219.697
219.66
219.624
219.591
219.56
219.53
219.502
219.475
219.45
219.426
219.404
219.384
219.365
219.348
219.332
219.32
219.306
219.303
219.287
219.308
153.822
160.175
167.575
174.038
180.139
186.113
191.714
196.805
201.336
205.283
208.66
211.504
213.867
215.804
217.372
218.621
219.601
220.358
220.928
221.347
221.642
221.839
221.958
222.014
222.023
221.994
221.937
221.86
221.767
221.664
221.554
221.441
221.326
221.212
221.1
220.991
220.885
220.784
220.688
220.596
220.508
220.426
220.347
220.273
220.203
220.137
220.074
220.016
219.96
219.907
219.858
219.811
219.767
219.726
219.687
219.65
219.615
219.582
219.55
219.521
219.493
219.467
219.442
219.419
219.397
219.377
219.358
219.341
219.326
219.314
219.301
219.298
219.282
219.304
151.108
156.932
164.721
172.123
178.941
185.352
191.248
196.545
201.214
205.253
208.69
211.571
213.954
215.899
217.466
218.71
219.682
220.428
220.988
221.396
221.682
221.87
221.98
222.029
222.031
221.997
221.936
221.855
221.759
221.653
221.541
221.426
221.31
221.195
221.082
220.973
220.867
220.766
220.67
220.578
220.491
220.409
220.331
220.257
220.187
220.121
220.059
220.001
219.946
219.894
219.845
219.799
219.755
219.714
219.675
219.638
219.604
219.571
219.54
219.511
219.484
219.458
219.434
219.411
219.389
219.369
219.351
219.335
219.319
219.308
219.295
219.292
219.277
219.299
149.469
154.497
161.976
169.922
177.453
184.412
190.687
196.245
201.091
205.245
208.75
211.67
214.072
216.024
217.589
218.824
219.783
220.516
221.062
221.457
221.73
221.906
222.006
222.047
222.042
222.001
221.935
221.849
221.75
221.641
221.527
221.41
221.293
221.176
221.063
220.953
220.847
220.746
220.65
220.558
220.472
220.39
220.312
220.239
220.17
220.104
220.043
219.985
219.93
219.879
219.83
219.785
219.742
219.701
219.663
219.627
219.592
219.56
219.53
219.501
219.474
219.448
219.424
219.402
219.381
219.361
219.343
219.327
219.312
219.301
219.289
219.286
219.271
219.294
148.737
152.963
159.805
167.808
175.803
183.292
190.015
195.892
200.957
205.259
208.854
211.817
214.237
216.191
217.747
218.968
219.911
220.626
221.154
221.531
221.788
221.951
222.039
222.069
222.054
222.006
221.934
221.843
221.739
221.627
221.51
221.391
221.272
221.155
221.041
220.93
220.825
220.724
220.627
220.536
220.45
220.368
220.291
220.219
220.15
220.086
220.025
219.967
219.913
219.863
219.815
219.77
219.727
219.687
219.649
219.614
219.58
219.548
219.518
219.49
219.463
219.438
219.415
219.393
219.372
219.353
219.335
219.32
219.305
219.294
219.282
219.28
219.266
219.288
148.719
152.335
158.523
166.201
174.295
182.118
189.25
195.487
200.81
205.285
208.994
212.022
214.464
216.415
217.956
219.155
220.074
220.764
221.268
221.623
221.861
222.006
222.078
222.095
222.07
222.013
221.933
221.835
221.727
221.611
221.491
221.37
221.249
221.13
221.015
220.905
220.799
220.698
220.602
220.511
220.425
220.345
220.268
220.196
220.128
220.065
220.005
219.948
219.895
219.845
219.797
219.753
219.711
219.672
219.634
219.599
219.566
219.535
219.506
219.478
219.452
219.427
219.404
219.382
219.362
219.344
219.326
219.311
219.297
219.287
219.275
219.274
219.26
219.283
149.368
152.628
158.256
165.435
173.294
181.159
188.523
195.062
200.657
205.33
209.164
212.269
214.751
216.709
218.231
219.4
220.283
220.939
221.412
221.739
221.951
222.073
222.127
222.128
222.089
222.021
221.932
221.827
221.713
221.592
221.469
221.345
221.222
221.102
220.986
220.875
220.769
220.668
220.573
220.483
220.398
220.318
220.242
220.171
220.104
220.041
219.982
219.926
219.874
219.825
219.778
219.735
219.693
219.655
219.618
219.584
219.552
219.521
219.492
219.465
219.439
219.415
219.393
219.372
219.352
219.334
219.317
219.302
219.289
219.279
219.268
219.266
219.253
219.276
150.603
153.79
159.001
165.667
173.106
180.735
188.074
194.741
200.536
205.402
209.374
212.557
215.079
217.054
218.57
219.71
220.553
221.164
221.595
221.884
222.063
222.157
222.187
222.168
222.113
222.031
221.931
221.818
221.696
221.57
221.443
221.315
221.19
221.069
220.952
220.841
220.735
220.634
220.54
220.45
220.366
220.287
220.212
220.142
220.077
220.015
219.957
219.902
219.851
219.802
219.757
219.714
219.674
219.636
219.601
219.567
219.535
219.506
219.477
219.451
219.426
219.403
219.381
219.36
219.341
219.323
219.307
219.293
219.28
219.27
219.26
219.259
219.246
219.27
152.244
155.634
160.673
166.892
173.867
181.097
188.175
194.742
200.567
205.538
209.626
212.891
215.452
217.433
218.94
220.06
220.873
221.442
221.825
222.066
222.203
222.262
222.262
222.218
222.142
222.044
221.931
221.807
221.677
221.545
221.412
221.281
221.154
221.031
220.913
220.801
220.695
220.595
220.501
220.413
220.33
220.252
220.179
220.11
220.045
219.985
219.928
219.875
219.825
219.777
219.733
219.692
219.652
219.616
219.581
219.548
219.518
219.489
219.461
219.436
219.411
219.389
219.367
219.347
219.329
219.312
219.296
219.283
219.27
219.261
219.251
219.251
219.239
219.263
153.972
157.786
162.964
168.959
175.521
182.307
189
195.281
200.936
205.847
209.949
213.258
215.858
217.85
219.337
220.423
221.199
221.736
222.082
222.283
222.375
222.391
222.354
222.279
222.178
222.06
221.93
221.794
221.654
221.514
221.376
221.241
221.11
220.985
220.867
220.755
220.649
220.55
220.457
220.37
220.288
220.212
220.14
220.073
220.01
219.951
219.896
219.844
219.795
219.75
219.707
219.666
219.628
219.593
219.559
219.528
219.498
219.47
219.444
219.419
219.395
219.374
219.353
219.334
219.316
219.3
219.285
219.272
219.26
219.251
219.242
219.242
219.231
219.255
155.603
159.858
165.333
171.402
177.77
184.221
190.514
196.418
201.772
206.465
210.436
213.687
216.276
218.271
219.746
220.798
221.527
222.014
222.318
222.484
222.546
222.531
222.461
222.352
222.221
222.078
221.929
221.778
221.626
221.477
221.332
221.192
221.059
220.932
220.812
220.7
220.595
220.497
220.405
220.32
220.24
220.165
220.096
220.03
219.97
219.912
219.859
219.809
219.762
219.718
219.677
219.638
219.602
219.567
219.535
219.505
219.476
219.449
219.424
219.4
219.378
219.357
219.337
219.319
219.302
219.286
219.272
219.26
219.249
219.241
219.233
219.233
219.223
219.247
157.644
162.056
167.576
173.713
180.05
186.355
192.396
197.99
203.016
207.417
211.157
214.244
216.731
218.673
220.117
221.142
221.838
222.28
222.531
222.646
222.669
222.627
222.538
222.412
222.262
222.098
221.927
221.757
221.591
221.432
221.279
221.134
220.997
220.868
220.748
220.635
220.531
220.434
220.345
220.261
220.184
220.112
220.044
219.982
219.923
219.868
219.817
219.769
219.724
219.682
219.643
219.606
219.571
219.539
219.508
219.479
219.452
219.427
219.403
219.38
219.359
219.339
219.32
219.303
219.287
219.272
219.259
219.247
219.237
219.23
219.222
219.224
219.214
219.239
161.76
165.439
170.285
176.178
182.314
188.375
194.185
199.569
204.384
208.542
212.038
214.917
217.242
219.064
220.432
221.41
222.076
222.491
222.707
222.777
222.752
222.668
222.546
222.402
222.243
222.076
221.902
221.724
221.548
221.377
221.215
221.063
220.922
220.791
220.67
220.558
220.456
220.361
220.273
220.193
220.118
220.049
219.984
219.925
219.869
219.817
219.769
219.724
219.681
219.642
219.605
219.57
219.537
219.507
219.478
219.451
219.425
219.401
219.379
219.358
219.338
219.319
219.301
219.285
219.27
219.256
219.244
219.233
219.224
219.218
219.211
219.213
219.204
219.23
167.701
170.92
175.031
180.368
185.954
191.375
196.553
201.376
205.716
209.508
212.749
215.445
217.614
219.305
220.581
221.507
222.145
222.549
222.762
222.828
222.791
222.683
222.528
222.346
222.159
221.976
221.799
221.626
221.457
221.292
221.131
220.976
220.831
220.698
220.576
220.465
220.365
220.273
220.189
220.112
220.041
219.975
219.915
219.859
219.806
219.758
219.713
219.671
219.632
219.595
219.561
219.529
219.499
219.47
219.444
219.419
219.395
219.373
219.352
219.333
219.314
219.297
219.281
219.266
219.252
219.24
219.228
219.219
219.21
219.205
219.199
219.202
219.194
219.221
173.618
176.522
179.857
184.162
188.846
193.538
198.159
202.61
206.737
210.412
213.565
216.173
218.24
219.798
220.912
221.666
222.146
222.431
222.581
222.631
222.607
222.523
222.39
222.221
222.034
221.84
221.647
221.461
221.29
221.131
220.984
220.844
220.711
220.584
220.466
220.356
220.257
220.168
220.088
220.015
219.949
219.888
219.833
219.781
219.733
219.689
219.648
219.61
219.575
219.542
219.511
219.482
219.454
219.429
219.405
219.382
219.361
219.341
219.323
219.305
219.288
219.273
219.258
219.245
219.232
219.221
219.211
219.203
219.195
219.191
219.187
219.19
219.184
219.211
178.906
181.521
184.29
187.523
191.061
194.72
198.424
202.109
205.681
209.036
212.092
214.784
217.067
218.922
220.361
221.416
222.126
222.536
222.703
222.689
222.559
222.371
222.167
221.965
221.774
221.59
221.41
221.232
221.061
220.901
220.754
220.621
220.504
220.398
220.302
220.211
220.125
220.045
219.97
219.902
219.841
219.786
219.736
219.69
219.648
219.609
219.573
219.54
219.509
219.48
219.453
219.428
219.404
219.382
219.361
219.341
219.323
219.305
219.289
219.274
219.259
219.246
219.233
219.221
219.21
219.201
219.192
219.185
219.179
219.176
219.173
219.178
219.172
219.2
182.74
184.952
187.264
189.756
192.431
195.232
198.106
201.008
203.888
206.688
209.355
211.842
214.106
216.111
217.83
219.246
220.353
221.162
221.703
222.018
222.15
222.139
222.025
221.843
221.623
221.396
221.181
220.985
220.813
220.659
220.519
220.393
220.279
220.177
220.088
220.011
219.944
219.882
219.824
219.77
219.718
219.67
219.626
219.587
219.551
219.518
219.488
219.46
219.434
219.41
219.388
219.367
219.348
219.329
219.312
219.296
219.28
219.266
219.252
219.239
219.227
219.216
219.205
219.196
219.187
219.179
219.172
219.166
219.162
219.16
219.158
219.164
219.16
219.189
185.848
187.676
189.591
191.584
193.683
195.879
198.139
200.434
202.736
205.01
207.222
209.338
211.327
213.165
214.831
216.311
217.595
218.68
219.564
220.25
220.745
221.064
221.23
221.273
221.224
221.111
220.959
220.787
220.611
220.446
220.298
220.172
220.064
219.971
219.889
219.817
219.754
219.7
219.653
219.612
219.575
219.54
219.507
219.476
219.446
219.42
219.396
219.374
219.354
219.336
219.318
219.302
219.287
219.273
219.259
219.247
219.235
219.224
219.213
219.203
219.193
219.184
219.176
219.168
219.161
219.155
219.15
219.146
219.143
219.143
219.143
219.15
219.147
219.177
188.543
190.029
191.582
193.185
194.859
196.605
198.407
200.245
202.102
203.959
205.792
207.578
209.294
210.92
212.438
213.833
215.095
216.219
217.203
218.046
218.753
219.328
219.776
220.103
220.316
220.427
220.453
220.416
220.334
220.225
220.104
219.982
219.868
219.767
219.684
219.616
219.561
219.515
219.476
219.443
219.415
219.392
219.371
219.352
219.333
219.315
219.298
219.283
219.268
219.255
219.244
219.233
219.222
219.213
219.203
219.195
219.186
219.178
219.171
219.164
219.157
219.151
219.145
219.139
219.134
219.13
219.127
219.125
219.123
219.125
219.126
219.135
219.134
219.164
190.963
192.161
193.409
194.698
196.043
197.445
198.894
200.378
201.888
203.411
204.932
206.434
207.903
209.321
210.674
211.948
213.132
214.217
215.199
216.076
216.849
217.522
218.099
218.586
218.986
219.303
219.54
219.699
219.788
219.816
219.797
219.745
219.674
219.594
219.514
219.44
219.377
219.329
219.293
219.267
219.248
219.233
219.222
219.213
219.206
219.199
219.192
219.185
219.177
219.17
219.164
219.158
219.153
219.148
219.143
219.139
219.134
219.13
219.126
219.122
219.118
219.115
219.111
219.108
219.106
219.104
219.102
219.102
219.102
219.105
219.108
219.119
219.119
219.151
193.158
194.119
195.119
196.155
197.238
198.368
199.538
200.742
201.973
203.225
204.486
205.747
206.997
208.222
209.412
210.555
211.641
212.661
213.608
214.476
215.264
215.97
216.597
217.147
217.627
218.041
218.395
218.691
218.931
219.115
219.244
219.322
219.354
219.35
219.321
219.278
219.228
219.179
219.136
219.102
219.081
219.07
219.066
219.066
219.067
219.07
219.074
219.077
219.079
219.079
219.08
219.079
219.079
219.079
219.079
219.079
219.079
219.079
219.078
219.078
219.077
219.077
219.076
219.075
219.075
219.075
219.076
219.078
219.08
219.085
219.09
219.101
219.104
219.137
195.192
195.958
196.756
197.587
198.458
199.367
200.312
201.289
202.293
203.32
204.363
205.417
206.472
207.521
208.555
209.565
210.542
211.478
212.365
213.198
213.972
214.684
215.332
215.916
216.438
216.901
217.308
217.666
217.979
218.249
218.48
218.671
218.822
218.93
218.998
219.032
219.037
219.024
219.001
218.973
218.947
218.927
218.916
218.916
218.922
218.933
218.946
218.958
218.969
218.98
218.988
218.996
219.002
219.007
219.012
219.016
219.02
219.024
219.028
219.031
219.033
219.036
219.038
219.041
219.043
219.045
219.048
219.052
219.056
219.063
219.07
219.083
219.088
219.123
197.089
197.698
198.332
198.996
199.695
200.426
201.187
201.977