/*--------------------------------*- C++ -*----------------------------------*\
| =========                 |                                                 |
| \\      /  F ield         | OpenFOAM: The Open Source CFD Toolbox           |
|  \\    /   O peration     | Version:  5.x                                   |
|   \\  /    A nd           | Web:      www.OpenFOAM.org                      |
|    \\/     M anipulation  |                                                 |
\*---------------------------------------------------------------------------*/
FoamFile
{
    version     2.0;
    format      ascii;
    class       volVectorField;
    location    "1450";
    object      U;
}
// * * * * * * * * * * * * * * * * * * * * * * * * * * * * * * * * * * * * * //

dimensions      [0 1 -1 0 0 0 0];

internalField   nonuniform List<vector> 
11040
(
(-3.5296 22.5312 0)
(-0.130537 28.3497 -1.72138e-19)
(5.88827 32.0307 1.6763e-17)
(11.6869 31.5814 1.96511e-17)
(16.369 29.212 4.34501e-17)
(19.8286 25.8821 -2.14031e-17)
(22.1831 22.1551 -2.13018e-17)
(23.6088 18.3939 2.17607e-17)
(24.2747 14.8311 4.95052e-17)
(24.2683 11.5547 1.61508e-18)
(23.2726 8.30514 2.44466e-17)
(21.6983 5.61156 -1.31858e-18)
(20.4052 3.92326 2.10489e-17)
(19.7059 3.00808 1.98925e-17)
(19.1032 2.28091 1.58329e-17)
(18.3169 1.57603 9.32203e-18)
(17.373 0.937012 -7.30614e-18)
(16.3627 0.389204 -6.01361e-19)
(15.3141 -0.0720994 6.25696e-19)
(14.2252 -0.452198 3.29932e-18)
(13.0849 -0.753739 2.18554e-18)
(12.0438 -0.950182 1.23911e-18)
(11.1006 -1.06885 3.81052e-19)
(10.1508 -1.14251 -1.56518e-19)
(9.18977 -1.1756 -6.74075e-20)
(8.21526 -1.17049 2.22446e-19)
(7.22313 -1.13005 -1.93372e-17)
(6.2079 -1.05848 4.38802e-19)
(5.15934 -0.956639 -3.4621e-17)
(4.08227 -0.817308 4.42323e-17)
(3.02278 -0.645157 8.6739e-19)
(1.98698 -0.456584 6.0567e-19)
(1.01826 -0.259974 -7.62287e-19)
(0.141485 -0.0679515 0)
(-0.586111 0.111055 2.80042e-16)
(-1.11089 0.278672 0)
(-1.76423 0.508178 0)
(-2.77122 0.755902 -3.25237e-19)
(-3.80153 0.799346 3.13322e-19)
(-4.14819 0.310278 -1.25998e-16)
(-2.60913 -0.450612 -1.54066e-16)
(0.135672 21.9581 0)
(4.03561 26.3623 0)
(11.3232 28.3535 -9.88615e-18)
(17.7257 27.6558 1.07682e-17)
(22.5234 25.8075 -2.69367e-17)
(26.0743 23.671 2.83929e-17)
(28.6051 21.2719 1.37278e-17)
(30.2077 18.6447 1.80784e-18)
(30.9968 15.8828 -1.06763e-18)
(31.112 13.1152 1.55506e-17)
(30.4619 10.2216 -1.75478e-18)
(28.8884 7.68148 0)
(26.9539 5.84341 0)
(25.2684 4.53661 -1.0491e-17)
(23.9063 3.38124 -1.06701e-17)
(22.6217 2.3823 -7.3494e-18)
(21.3447 1.55737 0)
(20.0782 0.872782 3.40448e-19)
(18.8095 0.301759 -9.1989e-19)
(17.5223 -0.166406 -4.46733e-19)
(16.2023 -0.538162 -1.36857e-18)
(14.9978 -0.792358 -6.71752e-19)
(13.9307 -0.957249 1.95334e-20)
(12.8727 -1.06903 -9.62851e-19)
(11.8133 -1.1332 1.93281e-18)
(10.7453 -1.15353 2.16508e-19)
(9.66138 -1.13394 9.3061e-18)
(8.55434 -1.07745 -2.05111e-19)
(7.42148 -0.986612 1.55261e-17)
(6.25992 -0.862463 -1.89146e-17)
(5.06352 -0.707323 -2.30493e-17)
(3.85423 -0.530028 2.7801e-17)
(2.66303 -0.34255 2.26237e-20)
(1.53595 -0.155195 -8.91381e-19)
(0.532063 0.0249388 -4.62964e-17)
(-0.279317 0.19631 0)
(-1.16992 0.44744 -3.75991e-19)
(-2.1447 0.743815 8.19389e-17)
(-2.69851 0.92296 7.24656e-17)
(-2.34266 0.537822 6.73672e-17)
(-1.8925 -0.782021 1.10561e-16)
(2.04517 21.222 0)
(5.70911 24.5868 0)
(10.8714 26.5216 2.72465e-18)
(15.8306 26.7992 -7.74084e-18)
(19.955 25.8206 8.26102e-18)
(23.4087 24.0614 -1.0497e-17)
(26.2513 21.819 -8.48309e-18)
(28.4405 19.3005 0)
(29.9631 16.6507 -1.37369e-17)
(30.8604 13.9757 -8.13729e-18)
(31.094 11.203 0)
(30.466 8.72979 0)
(29.2564 6.81986 -8.45092e-18)
(27.9334 5.35677 -7.66692e-18)
(26.6381 4.04835 -8.15517e-19)
(25.2977 2.91109 8.41907e-19)
(23.9133 1.9609 0)
(22.5258 1.1683 0)
(21.1429 0.508104 2.23367e-19)
(19.7519 -0.0328125 -2.73173e-19)
(18.3374 -0.463287 2.78235e-19)
(17.0509 -0.767816 -4.24913e-19)
(15.9139 -0.966709 -1.02013e-19)
(14.7926 -1.10412 -5.27232e-19)
(13.6765 -1.1881 -8.50495e-20)
(12.5577 -1.2236 -1.43988e-19)
(11.428 -1.21508 -9.04822e-20)
(10.2795 -1.16597 2.28273e-19)
(9.10632 -1.07931 0)
(7.90409 -0.957971 0)
(6.66963 -0.806129 2.76369e-17)
(5.41236 -0.632148 -3.16493e-17)
(4.15325 -0.447087 1.7993e-17)
(2.92937 -0.263137 0)
(1.78705 -0.0876169 2.41001e-17)
(0.806832 0.0919691 2.79717e-17)
(-0.128364 0.331415 0)
(-1.01423 0.542778 2.82071e-19)
(-1.52236 0.593139 -1.96299e-19)
(-1.32865 0.143869 0)
(-1.71054 -1.25532 -5.24461e-17)
(3.929 20.3349 5.32613e-20)
(7.3559 22.9736 -4.93909e-20)
(11.3887 24.5984 7.8634e-19)
(15.6975 25.0249 0)
(19.5746 24.3301 -9.70893e-18)
(22.8387 22.9063 0)
(25.5041 21.0138 1.92985e-17)
(27.5704 18.8145 -6.30296e-20)
(29.0578 16.448 1.93522e-18)
(30.0214 14.0308 1.29699e-17)
(30.4733 11.5317 1.91152e-18)
(30.2899 9.21907 5.26723e-18)
(29.6047 7.35299 1.49972e-17)
(28.7372 5.89465 6.09317e-18)
(27.8135 4.59273 0)
(26.7641 3.42136 -1.11857e-18)
(25.5769 2.40528 1.95809e-19)
(24.3021 1.53675 -7.57883e-19)
(22.9728 0.800694 -3.02435e-19)
(21.5988 0.188601 3.0802e-19)
(20.1788 -0.304963 6.70587e-19)
(18.8754 -0.658511 3.8611e-19)
(17.7158 -0.894486 0)
(16.569 -1.06297 1.02977e-18)
(15.427 -1.17279 -1.19726e-18)
(14.2833 -1.22952 1.72832e-18)
(13.1306 -1.23809 -4.72415e-18)
(11.9613 -1.20251 0)
(10.7688 -1.12634 0)
(9.5478 -1.01344 0)
(8.29521 -0.868939 -9.98065e-18)
(7.01416 -0.701206 1.17459e-17)
(5.71642 -0.521708 -4.12306e-19)
(4.4265 -0.343896 -1.49334e-17)
(3.17727 -0.17555 -1.57662e-17)
(2.04925 0.00331481 -1.86181e-17)
(1.0419 0.226953 -4.02115e-17)
(0.163738 0.383014 -4.12045e-17)
(-0.463524 0.366366 -1.61567e-19)
(-0.451214 -0.0808302 -3.71556e-17)
(-1.43608 -1.45726 2.16409e-17)
(5.79031 19.3201 0)
(8.81551 21.3897 -4.51463e-20)
(12.0401 22.717 -4.73067e-19)
(15.5821 23.283 3.07303e-19)
(18.9644 22.988 7.17017e-18)
(21.9547 22.0104 -7.78254e-18)
(24.5218 20.5078 -1.89701e-18)
(26.6049 18.6144 -9.96064e-18)
(28.1617 16.4778 0)
(29.2135 14.2313 -1.20154e-17)
(29.7828 11.8909 0)
(29.8077 9.66584 -3.01794e-18)
(29.3776 7.80382 -7.94587e-18)
(28.7454 6.32176 0)
(28.0596 5.02349 4.20076e-18)
(27.2775 3.85011 0)
(26.3588 2.81576 0)
(25.3221 1.91631 7.86019e-19)
(24.1889 1.13867 6.39325e-19)
(22.9686 0.477254 0)
(21.6643 -0.0681135 -5.4647e-19)
(20.4382 -0.467808 0)
(19.3269 -0.74232 0)
(18.2142 -0.944824 -3.70027e-19)
(17.0968 -1.08415 0)
(15.9713 -1.16617 1.34601e-18)
(14.8327 -1.19613 3.67784e-18)
(13.6752 -1.17844 0)
(12.4929 -1.11721 0)
(11.2807 -1.01695 0)
(10.0354 -0.88357 8.15321e-18)
(8.75662 -0.725919 7.87337e-18)
(7.44899 -0.556085 -9.47617e-18)
(6.12541 -0.387906 -3.25405e-19)
(4.80412 -0.23087 3.73665e-19)
(3.55057 -0.0658166 0)
(2.4308 0.132058 2.96012e-17)
(1.48935 0.251172 -3.15694e-17)
(0.695171 0.194229 3.34881e-17)
(0.466063 -0.198662 3.4679e-17)
(-0.8714 -1.47922 4.00252e-20)
(7.50322 18.2219 -1.36215e-19)
(10.0995 19.8391 6.61108e-20)
(12.7214 20.91 3.12477e-20)
(15.5999 21.5179 2.84102e-19)
(18.4933 21.4902 -1.14899e-18)
(21.1784 20.8712 7.63027e-18)
(23.5827 19.7551 -9.46382e-18)
(25.6267 18.2289 8.1533e-18)
(27.2345 16.4067 3.99094e-18)
(28.3891 14.4078 -2.04988e-18)
(29.097 12.2718 0)
(29.3101 10.1622 0)
(29.0763 8.30519 1.85372e-18)
(28.5914 6.77189 -1.95504e-18)
(28.0186 5.44305 -6.6787e-18)
(27.3706 4.25403 1.40105e-18)
(26.6186 3.20348 -2.66089e-18)
(25.7687 2.28597 1.42806e-19)
(24.8313 1.48633 -7.8897e-19)
(23.806 0.796345 1.36692e-18)
(22.6865 0.216471 -1.17298e-18)
(21.6118 -0.218697 2.57159e-19)
(20.6186 -0.526048 -7.85579e-20)
(19.6081 -0.7602 1.2022e-19)
(18.5796 -0.929277 -8.08997e-19)
(17.5319 -1.03873 -1.43293e-20)
(16.4623 -1.09343 -3.38557e-18)
(15.3667 -1.09773 -3.29108e-18)
(14.2409 -1.05587 0)
(13.0805 -0.972683 0)
(11.8821 -0.854524 -5.66969e-18)
(10.6436 -0.71062 -1.40058e-17)
(9.3653 -0.55344 -4.83681e-19)
(8.05123 -0.39706 8.38617e-18)
(6.70672 -0.253202 9.82812e-18)
(5.37404 -0.109986 -1.05802e-17)
(4.13544 0.0507642 3.50166e-19)
(3.07482 0.137153 4.86678e-17)
(2.10709 0.0533299 -5.29843e-17)
(1.5586 -0.272893 1.15278e-19)
(0.0991263 -1.35388 2.08651e-17)
(9.04465 17.08 0)
(11.2398 18.3372 -2.46828e-19)
(13.3918 19.1968 -1.33738e-19)
(15.7247 19.7784 1.61805e-19)
(18.1439 19.9153 1.56543e-18)
(20.4835 19.5798 2.72633e-18)
(22.6658 18.8075 -6.20312e-18)
(24.61 17.6418 2.35348e-18)
(26.2246 16.1592 0)
(27.4644 14.454 2.99514e-18)
(28.3175 12.5724 -5.95969e-18)
(28.7328 10.6376 5.98445e-18)
(28.7143 8.83899 -2.47961e-19)
(28.3942 7.28081 0)
(27.9251 5.91711 1.4493e-18)
(27.3627 4.70036 1.68224e-19)
(26.7038 3.62157 1.1342e-18)
(25.9583 2.67728 9.08199e-19)
(25.1417 1.85391 -3.54819e-19)
(24.2571 1.14054 -3.85777e-19)
(23.2969 0.535113 5.62001e-19)
(22.3748 0.0741569 2.90903e-19)
(21.5195 -0.257734 0)
(20.6446 -0.516927 1.95756e-19)
(19.7482 -0.7113 7.15359e-19)
(18.8283 -0.845966 -9.89937e-19)
(17.8817 -0.925286 9.20101e-19)
(16.9048 -0.953221 3.01453e-18)
(15.893 -0.933752 -4.79461e-19)
(14.8419 -0.871587 -5.77822e-20)
(13.7473 -0.773065 -3.55204e-18)
(12.6053 -0.647268 -1.27733e-18)
(11.4126 -0.506486 -5.15893e-18)
(10.1674 -0.364701 0)
(8.86557 -0.235296 -7.10092e-18)
(7.52737 -0.116279 8.28142e-18)
(6.21564 0.00140666 -8.78107e-18)
(5.02495 0.0533047 -3.70877e-17)
(3.88879 -0.0491637 2.0141e-17)
(3.02495 -0.314072 9.09925e-20)
(1.4895 -1.14569 -4.40969e-17)
(10.4061 15.9272 8.94765e-19)
(12.249 16.9003 -2.438e-19)
(14.0255 17.5872 -2.25307e-19)
(15.9207 18.1061 -3.41878e-19)
(17.9129 18.3243 -1.14043e-18)
(19.8996 18.1889 -3.38023e-18)
(21.8192 17.6979 3.65326e-18)
(23.6027 16.8601 4.97085e-18)
(25.1617 15.7148 -3.53116e-18)
(26.4374 14.3248 0)
(27.4041 12.7308 -2.14904e-18)
(28.0058 11.0223 3.74071e-20)
(28.2111 9.34657 -9.36358e-20)
(28.0902 7.81547 2.01507e-18)
(27.7636 6.43975 1.86526e-18)
(27.3056 5.20259 -1.93323e-18)
(26.7359 4.09607 0)
(26.0706 3.11961 0)
(25.3315 2.26559 1.28377e-18)
(24.5317 1.52418 -1.0772e-18)
(23.6722 0.892106 1.42577e-19)
(22.8553 0.407179 -3.04957e-19)
(22.1055 0.0539172 -2.66922e-20)
(21.346 -0.226119 0)
(20.5744 -0.441161 2.87629e-19)
(19.7878 -0.596703 -2.93943e-19)
(18.9824 -0.697213 -9.66977e-19)
(18.1534 -0.746619 0)
(17.2955 -0.748797 0)
(16.403 -0.708288 4.38065e-19)
(15.4694 -0.631166 3.83638e-18)
(14.4878 -0.525999 3.70976e-18)
(13.4507 -0.404387 8.59398e-18)
(12.3504 -0.279757 6.10279e-19)
(11.1757 -0.166089 0)
(9.92972 -0.0697266 -3.68885e-19)
(8.64367 0.00753262 6.76512e-18)
(7.38702 0.0238197 -3.09656e-20)
(6.125 -0.0916064 1.55829e-17)
(5.00941 -0.323057 1.70987e-17)
(3.37139 -0.904969 2.0309e-17)
(11.5923 14.7919 -5.49679e-19)
(13.1358 15.5424 -5.79501e-21)
(14.6082 16.0883 4.80846e-19)
(16.1537 16.5308 -7.15954e-19)
(17.7809 16.7725 0)
(19.4347 16.7621 1.03623e-18)
(21.0771 16.4798 -1.92518e-18)
(22.6578 15.9138 -3.02162e-18)
(24.1032 15.0749 2.17964e-18)
(25.3546 13.9963 2.85886e-18)
(26.3798 12.7041 1.85631e-19)
(27.1217 11.2579 -5.81546e-18)
(27.5266 9.76304 0)
(27.6145 8.32001 1.32014e-18)
(27.4641 6.97367 -3.08677e-18)
(27.1454 5.73985 -1.28958e-18)
(26.6915 4.62037 -1.12993e-18)
(26.1238 3.61905 1.16752e-18)
(25.4664 2.73493 -4.18422e-19)
(24.7392 1.96241 0)
(23.9519 1.30005 4.4491e-19)
(23.2042 0.788399 -5.89806e-19)
(22.5222 0.411798 -4.23401e-20)
(21.8387 0.109964 -1.0967e-19)
(21.1539 -0.125564 4.69808e-19)
(20.4669 -0.300874 -4.79604e-19)
(19.7755 -0.420894 0)
(19.0764 -0.489881 2.4427e-18)
(18.3652 -0.511941 1.13505e-18)
(17.6365 -0.49168 6.24067e-19)
(16.8835 -0.434998 -2.95703e-18)
(16.0975 -0.349915 -8.50342e-19)
(15.2677 -0.247156 8.13294e-19)
(14.3807 -0.139369 -4.917e-19)
(13.4187 -0.0404744 -3.07925e-18)
(12.3716 0.0381563 -5.45832e-19)
(11.2415 0.0861774 0)
(10.0571 0.0743233 1.04772e-17)
(8.78599 -0.0467199 -1.14249e-17)
(7.55255 -0.263471 -1.24808e-17)
(5.83605 -0.664106 0)
(12.6144 13.6969 0)
(13.9075 14.2741 0)
(15.132 14.7048 0)
(16.3978 15.0699 2.12073e-18)
(17.7229 15.3005 -7.34077e-19)
(19.0814 15.3564 1.44448e-19)
(20.4556 15.2147 -1.76924e-19)
(21.8143 14.8548 -4.25431e-19)
(23.1037 14.2713 1.19895e-18)
(24.2748 13.4741 1.81171e-18)
(25.2967 12.4743 -1.77115e-18)
(26.1163 11.3044 2.38539e-18)
(26.6709 10.032 -2.21583e-19)
(26.9461 8.73469 2.22391e-18)
(26.9805 7.46918 -3.97389e-18)
(26.8246 6.27515 3.16193e-18)
(26.5129 5.16879 1.67377e-18)
(26.0692 4.16078 -1.72529e-18)
(25.5174 3.25734 6.51112e-19)
(24.8799 2.45869 0)
(24.1712 1.76668 5.53812e-19)
(23.4884 1.22687 -4.13298e-19)
(22.8612 0.824684 6.62011e-20)
(22.2329 0.49846 -1.51924e-19)
(21.6069 0.239803 5.47285e-19)
(20.9852 0.0422987 0)
(20.3689 -0.0993413 0)
(19.7579 -0.189683 -7.26294e-19)
(19.1511 -0.233076 -4.54434e-18)
(18.5464 -0.234214 -2.09617e-18)
(17.9401 -0.198782 2.3971e-18)
(17.3261 -0.134147 6.72995e-19)
(16.6948 -0.0499307 -3.52953e-18)
(16.0328 0.0423243 -7.68673e-19)
(15.3201 0.129326 4.80972e-18)
(14.5382 0.197619 -8.32097e-19)
(13.67 0.232701 -3.55575e-18)
(12.7105 0.211515 4.7386e-19)
(11.6061 0.100745 7.6175e-18)
(10.4578 -0.0918448 0)
(8.80918 -0.393345 0)
(13.4868 12.6594 0)
(14.5718 13.1021 0)
(15.5933 13.4388 -2.05059e-19)
(16.6343 13.7325 -1.87981e-18)
(17.7136 13.9346 0)
(18.8213 14.017 -8.98539e-19)
(19.9529 13.9605 2.66246e-19)
(21.0923 13.7445 0)
(22.2045 13.356 -1.59732e-18)
(23.2541 12.7919 1.85257e-19)
(24.217 12.0519 -4.01322e-19)
(25.049 11.1477 1.32203e-18)
(25.6894 10.1156 -1.66022e-18)
(26.1059 9.00654 0)
(26.3057 7.87215 -2.44396e-18)
(26.3147 6.76154 2.86989e-18)
(26.158 5.70311 0)
(25.8571 4.71565 0)
(25.4334 3.8127 3.47782e-19)
(24.9086 3.00128 -1.41221e-18)
(24.299 2.28771 5.8415e-19)
(23.6953 1.72351 0)
(23.1305 1.29673 1.34873e-19)
(22.5594 0.945604 2.40596e-19)
(21.9875 0.66217 -3.90973e-19)
(21.4191 0.440035 3.89199e-19)
(20.8579 0.273768 0)
(20.3063 0.158613 0)
(19.7664 0.0900489 -7.59284e-19)
(19.2396 0.0633625 3.38892e-18)
(18.726 0.0731692 -1.88025e-18)
(18.2243 0.112912 1.97055e-18)
(17.7304 0.174375 1.07938e-18)
(17.2361 0.247738 0)
(16.7267 0.321424 1.8478e-18)
(16.1853 0.382621 -1.9e-20)
(15.5893 0.416799 6.17061e-18)
(14.9195 0.406054 0)
(14.1086 0.325925 -6.03241e-18)
(13.2274 0.184336 6.52872e-18)
(11.8754 -0.0509244 0)
(14.225 11.6915 0)
(15.1372 12.03 -1.34287e-18)
(15.9917 12.2905 1.18456e-18)
(16.851 12.5216 0)
(17.7321 12.6889 1.28574e-18)
(18.6326 12.7738 -9.46162e-19)
(19.5551 12.7629 -2.51575e-18)
(20.4938 12.6391 1.13089e-18)
(21.4278 12.3882 9.84676e-20)
(22.3347 12.0022 1.5875e-18)
(23.1987 11.4747 -1.76042e-18)
(23.9874 10.8041 -5.64724e-19)
(24.6496 10.004 1.49275e-18)
(25.1479 9.10182 -7.14042e-19)
(25.4711 8.13515 2.86793e-18)
(25.6234 7.14934 -1.81229e-18)
(25.6157 6.17749 -7.12441e-19)
(25.4618 5.24424 -3.18821e-19)
(25.1779 4.36922 -8.94037e-19)
(24.7823 3.56597 1.73577e-18)
(24.2905 2.8459 -7.45853e-19)
(23.7827 2.26684 -3.13527e-21)
(23.2942 1.82104 1.26903e-20)
(22.792 1.4483 0)
(22.2829 1.14166 -7.61325e-19)
(21.7729 0.895112 2.35471e-19)
(21.2667 0.703337 1.32534e-18)
(20.7685 0.56156 -9.2353e-19)
(20.2817 0.465213 2.44516e-18)
(19.8094 0.409599 -1.27045e-18)
(19.3542 0.389582 0)
(18.9177 0.399286 -2.43845e-18)
(18.5001 0.431792 -8.55997e-19)
(18.0988 0.479145 9.62861e-19)
(17.7068 0.532171 -5.94745e-18)
(17.3146 0.580725 -1.04129e-18)
(16.9057 0.613164 -2.17165e-18)
(16.464 0.61774 2.23499e-18)
(15.9314 0.576179 2.33466e-18)
(15.3516 0.499758 -4.75938e-18)
(14.4247 0.340011 -1.61731e-19)
(14.8444 10.8007 0)
(15.6126 11.0582 7.61369e-20)
(16.3292 11.2575 1.07266e-18)
(17.0411 11.4356 3.50847e-18)
(17.7625 11.5681 -2.34899e-18)
(18.4946 11.6432 4.63249e-19)
(19.243 11.6523 9.49211e-20)
(20.0075 11.5831 -2.96358e-18)
(20.7768 11.4233 2.23698e-20)
(21.5382 11.1639 -3.24375e-20)
(22.2835 10.797 7.53602e-19)
(22.9912 10.3151 -7.52842e-19)
(23.6224 9.71811 -4.43969e-19)
(24.1439 9.0162 6.16848e-19)
(24.5372 8.23174 0)
(24.7928 7.39873 0)
(24.9086 6.54703 2.4023e-18)
(24.8886 5.70219 -6.90575e-21)
(24.7414 4.88666 -1.58289e-18)
(24.4798 4.11849 8.12619e-20)
(24.1156 3.41337 -1.24052e-19)
(23.7153 2.83454 -2.37371e-20)
(23.3143 2.37977 1.42001e-19)
(22.8919 1.99271 0)
(22.4561 1.66795 -1.08161e-19)
(22.0137 1.40042 1.22046e-18)
(21.5703 1.18534 -1.58077e-18)
(21.1306 1.01817 1.76014e-18)
(20.6987 0.894445 -1.3076e-18)
(20.2782 0.809612 0)
(19.8723 0.758842 1.18866e-18)
(19.4833 0.736834 2.66912e-18)
(19.113 0.737671 -1.36023e-18)
(18.7615 0.754861 1.53105e-18)
(18.426 0.781302 8.55815e-19)
(18.1029 0.809701 -1.62168e-18)
(17.7839 0.832025 2.55196e-18)
(17.4603 0.841952 -1.78833e-18)
(17.0967 0.827848 -1.3818e-18)
(16.7169 0.801918 -2.30945e-19)
(16.1468 0.720568 3.76168e-18)
(15.3598 9.99034 -1.27214e-18)
(16.0077 10.1852 -4.44287e-18)
(16.6098 10.3356 4.33337e-18)
(17.2014 10.4699 0)
(17.7939 10.5708 -1.87266e-19)
(18.3902 10.6311 0)
(18.9966 10.6455 -6.90843e-18)
(19.6153 10.6057 5.11098e-18)
(20.2411 10.5025 2.54923e-18)
(20.8675 10.3278 -2.8515e-18)
(21.4912 10.0751 5.10663e-19)
(22.0998 9.73512 -2.96845e-19)
(22.6659 9.3014 3.88414e-19)
(23.164 8.77415 5.51815e-19)
(23.5759 8.16384 1.49994e-19)
(23.8871 7.49187 -7.05565e-19)
(24.0876 6.78014 6.40052e-19)
(24.1729 6.05027 -7.46767e-19)
(24.1442 5.32345 0)
(24.0073 4.61888 -1.39815e-19)
(23.7688 3.95424 3.70034e-19)
(23.4788 3.39536 -2.05206e-19)
(23.1705 2.94599 7.17027e-21)
(22.8341 2.55589 0)
(22.4781 2.22166 8.87382e-20)
(22.1098 1.93974 1.2552e-19)
(21.7352 1.70642 0)
(21.3598 1.51783 0)
(20.9879 1.36995 3.66361e-21)
(20.623 1.25861 0)
(20.2682 1.17946 -1.446e-18)
(19.9259 1.12781 0)
(19.5981 1.09868 2.26607e-18)
(19.2851 1.08679 -2.34286e-18)
(18.9859 1.08659 0)
(18.6989 1.09285 1.32673e-18)
(18.4207 1.10026 -1.38065e-18)
(18.1466 1.10539 6.91777e-19)
(17.8597 1.10229 2.1911e-18)
(17.5716 1.1 -1.9377e-19)
(17.2025 1.0731 -4.53907e-18)
(15.7853 9.26096 3.37952e-18)
(16.3322 9.40725 1.25806e-19)
(16.8388 9.51878 -1.91143e-18)
(17.3316 9.61778 -3.50108e-18)
(17.8198 9.69163 -7.65921e-18)
(18.3067 9.73604 8.89335e-18)
(18.7984 9.74817 -4.08659e-19)
(19.298 9.72261 -4.11187e-18)
(19.8034 9.65276 7.67339e-18)
(20.3118 9.53259 -6.4352e-19)
(20.8228 9.3569 -3.37811e-18)
(21.3299 9.11762 8.98887e-19)
(21.8152 8.80657 -1.1367e-18)
(22.2607 8.4194 1.90277e-18)
(22.6523 7.95929 -2.97042e-19)
(22.9757 7.43766 0)
(23.2185 6.86797 -6.35586e-20)
(23.3721 6.2655 1.48899e-19)
(23.4317 5.64709 4.10329e-19)
(23.3974 5.02975 -1.01572e-18)
(23.2704 4.43028 7.3637e-19)
(23.0836 3.91263 -7.15237e-20)
(22.8657 3.48573 -5.96173e-21)
(22.6153 3.1071 -1.32919e-18)
(22.3405 2.7755 2.92733e-18)
(22.0482 2.48908 -1.71472e-18)
(21.7448 2.24553 2.02118e-18)
(21.4359 2.0421 -2.47296e-18)
(21.1259 1.87568 -3.02784e-18)
(20.8186 1.74284 2.73421e-18)
(20.517 1.63992 7.82187e-19)
(20.2234 1.56305 1.3146e-18)
(19.9395 1.5082 -4.05402e-18)
(19.6661 1.47123 3.82537e-18)
(19.4024 1.44784 -1.96295e-18)
(19.1478 1.43429 -1.04574e-18)
(18.9008 1.42702 0)
(18.6583 1.42365 -1.14414e-18)
(18.4131 1.42137 -1.18364e-18)
(18.1705 1.42483 -1.20799e-18)
(17.8964 1.42164 1.25563e-18)
(16.1334 8.61051 4.1694e-21)
(16.5952 8.71906 4.5866e-19)
(17.0218 8.80002 1.67731e-18)
(17.4331 8.87097 -3.00828e-18)
(17.8365 8.92259 1.18996e-17)
(18.2353 8.95242 -1.01764e-17)
(18.6347 8.95907 1.2796e-17)
(19.0381 8.93914 6.3114e-18)
(19.4451 8.88813 -3.14392e-18)
(19.8545 8.80174 -8.93536e-19)
(20.2676 8.67626 -7.22448e-18)
(20.681 8.50557 2.74724e-19)
(21.0836 8.28213 0)
(21.4638 8.00047 -6.77289e-19)
(21.8115 7.66016 8.21406e-19)
(22.1156 7.26629 -1.00782e-18)
(22.365 6.82582 0)
(22.5501 6.34793 1.29583e-18)
(22.6636 5.84412 -2.88758e-18)
(22.7019 5.32729 1.02893e-18)
(22.6623 4.81111 -1.76307e-18)
(22.5625 4.3531 1.9845e-18)
(22.4251 3.9653 7.8413e-20)
(22.2539 3.6136 -3.50355e-20)
(22.0558 3.29858 3.04914e-18)
(21.8368 3.02003 -3.0774e-18)
(21.6029 2.77704 1.08519e-19)
(21.3593 2.56811 2.43615e-19)
(21.1104 2.39119 -2.28852e-18)
(20.86 2.24391 2.60987e-18)
(20.611 2.12357 -3.20349e-19)
(20.3658 2.02731 3.44045e-19)
(20.1262 1.9521 -1.49896e-18)
(19.8931 1.89482 7.03779e-19)
(19.6665 1.85228 3.23615e-18)
(19.4463 1.82187 -8.06786e-19)
(19.2321 1.80121 8.93697e-19)
(19.022 1.78833 -1.80057e-18)
(18.8128 1.78158 9.34355e-19)
(18.6072 1.78274 9.77527e-19)
(18.3898 1.78442 0)
(16.415 8.03414 -5.15135e-18)
(16.8048 8.11324 9.23757e-18)
(17.1639 8.17048 8.70311e-18)
(17.5075 8.21977 -2.29012e-17)
(17.8414 8.25395 8.49359e-18)
(18.1688 8.27166 -1.7542e-17)
(18.4942 8.27241 1.42245e-17)
(18.8205 8.25408 -2.06286e-17)
(19.148 8.21361 1.88664e-17)
(19.4767 8.14805 -6.13767e-19)
(19.808 8.05493 -7.69315e-18)
(20.1406 7.92969 -7.30666e-19)
(20.4676 7.76651 -5.8554e-18)
(20.7816 7.56048 5.77621e-18)
(21.0762 7.30992 -4.58397e-18)
(21.3437 7.01663 4.98729e-18)
(21.5753 6.68358 0)
(21.7629 6.31556 -3.45548e-18)
(21.8993 5.91942 4.25792e-18)
(21.9795 5.50379 -3.98179e-18)
(21.9987 5.07839 -2.32669e-19)
(21.9637 4.69124 6.68892e-18)
(21.8907 4.35503 1.03703e-19)
(21.7857 4.04346 -2.59718e-18)
(21.6541 3.75827 -4.9706e-24)
(21.5007 3.50041 0)
(21.3303 3.2701 -3.44955e-18)
(21.1476 3.06693 3.41059e-18)
(20.9564 2.8899 0)
(20.7602 2.73762 -2.50761e-19)
(20.5616 2.60838 0)
(20.3631 2.50029 2.35119e-18)
(20.1665 2.41133 -2.66039e-18)
(19.9732 2.33936 -2.57909e-18)
(19.7834 2.28213 5.27027e-18)
(19.5978 2.23788 -3.03399e-18)
(19.4167 2.205 -3.54322e-19)
(19.2393 2.18185 7.37057e-19)
(19.0643 2.16725 -7.59962e-19)
(18.8932 2.16161 0)
(18.7196 2.15968 -7.80847e-19)
(16.6311 7.54903 0)
(16.9624 7.60633 -1.2533e-17)
(17.2669 7.64644 5.66325e-19)
(17.5563 7.6801 1.67376e-17)
(17.8353 7.7016 1.02436e-17)
(18.107 7.71033 -1.05247e-17)
(18.3751 7.70631 9.57811e-18)
(18.6421 7.68819 9.15929e-18)
(18.9087 7.65385 1.71878e-17)
(19.1751 7.60127 -2.17383e-17)
(19.4427 7.52876 2.11827e-18)
(19.7111 7.43306 2.03217e-18)
(19.9759 7.3097 -7.00488e-18)
(20.2323 7.15478 5.08867e-18)
(20.4765 6.96658 7.08605e-18)
(20.703 6.74548 -5.38524e-18)
(20.9059 6.49255 -6.24378e-18)
(21.0787 6.21007 6.37006e-18)
(21.2157 5.90187 0)
(21.3119 5.57333 7.22334e-19)
(21.3624 5.23085 7.23061e-19)
(21.3676 4.91255 5.52091e-18)
(21.3385 4.63017 -1.1195e-17)
(21.2814 4.36365 5.79801e-18)
(21.2001 4.11515 3.12721e-18)
(21.0982 3.88614 4.56862e-20)
(20.9794 3.67749 -3.29814e-18)
(20.8474 3.48949 5.31883e-20)
(20.7054 3.32191 3.75989e-21)
(20.5562 3.17412 3.96601e-18)
(20.4022 3.04521 -4.00687e-18)
(20.2457 2.93404 -2.17664e-18)
(20.0883 2.83936 2.32109e-18)
(19.9314 2.75979 -2.34543e-18)
(19.7759 2.69377 2.04694e-18)
(19.6225 2.64017 1.86754e-18)
(19.472 2.59794 -9.3323e-19)
(19.3244 2.56576 3.26001e-19)
(19.1793 2.5427 0)
(19.0378 2.52867 0)
(18.8978 2.51999 8.06983e-21)
(16.7912 7.15875 -5.76668e-18)
(17.0765 7.20055 6.42498e-18)
(17.3383 7.22852 -2.69894e-18)
(17.5858 7.25095 -5.17984e-18)
(17.8229 7.26323 0)
(18.0523 7.26526 9.84827e-18)
(18.2772 7.25732 -2.34894e-17)
(18.4998 7.23853 1.44753e-17)
(18.7207 7.20739 -4.63695e-18)
(18.9405 7.1625 4.19322e-18)
(19.1602 7.10272 -2.02001e-18)
(19.3799 7.02574 -1.80515e-17)
(19.5966 6.92826 3.17714e-17)
(19.8073 6.80727 -1.36394e-17)
(20.0092 6.6613 -1.63568e-18)
(20.199 6.49018 -6.67296e-18)
(20.3723 6.29415 2.02052e-17)
(20.5244 6.07421 -8.79541e-18)
(20.6509 5.83246 -1.31916e-17)
(20.7478 5.57219 5.43875e-18)
(20.8106 5.29751 -1.49945e-18)
(20.8369 5.03813 0)
(20.8338 4.80412 0)
(20.8073 4.58009 -6.43405e-18)
(20.7599 4.36812 6.43703e-18)
(20.6942 4.16979 9.94866e-20)
(20.613 3.98621 0)
(20.5191 3.81803 3.65772e-18)
(20.4149 3.66545 -3.66447e-18)
(20.3028 3.52832 2.92661e-20)
(20.1848 3.40625 -3.1758e-20)
(20.0628 3.29865 0)
(19.9383 3.20479 2.03537e-18)
(19.8125 3.1238 -2.14895e-18)
(19.6864 3.05461 2.77956e-19)
(19.5609 2.99649 -2.85887e-19)
(19.437 2.94876 0)
(19.3148 2.91037 -3.00449e-19)
(19.1946 2.8806 -6.19815e-19)
(19.0772 2.85919 3.0298e-19)
(18.9625 2.8437 9.39222e-19)
(16.9122 6.84091 0)
(17.1609 6.87139 0)
(17.3887 6.89052 -1.00499e-17)
(17.603 6.90481 -1.95029e-17)
(17.8072 6.91042 2.96781e-17)
(18.0036 6.90761 -2.35766e-17)
(18.1951 6.8968 -8.95172e-18)
(18.3836 6.87737 1.87289e-17)
(18.5696 6.84827 -1.80111e-17)
(18.7537 6.80847 1.8005e-17)
(18.9369 6.7572 0)
(19.1192 6.69278 0)
(19.2987 6.61279 1.63135e-17)
(19.4732 6.51498 -3.21879e-17)
(19.6411 6.39818 3.07638e-17)
(19.7998 6.26212 -1.49586e-17)
(19.9465 6.10671 -1.86405e-18)
(20.0776 5.93237 1.63775e-17)
(20.1899 5.74025 -1.11069e-17)
(20.2803 5.53238 0)
(20.3451 5.31135 7.73124e-19)
(20.3807 5.10024 0)
(20.392 4.90734 -7.12041e-18)
(20.3841 4.72067 1.38888e-17)
(20.3588 4.54204 -6.76744e-18)
(20.3177 4.37292 0)
(20.263 4.21442 0)
(20.1967 4.06731 3.44127e-18)
(20.1208 3.93197 -3.67236e-18)
(20.0372 3.80856 -3.85281e-18)
(19.9473 3.69696 3.87908e-18)
(19.8528 3.59694 4.03574e-18)
(19.755 3.50809 -4.04636e-18)
(19.6549 3.4299 0)
(19.5536 3.36162 -3.35765e-20)
(19.4517 3.30282 0)
(19.3504 3.25304 -8.68504e-21)
(19.2499 3.21146 -3.5267e-20)
(19.1506 3.17751 1.22277e-18)
(19.0532 3.15091 -1.73123e-18)
(18.9582 3.13009 5.71897e-19)
(17.0057 6.57729 0)
(17.2243 6.59933 -1.21147e-18)
(17.4242 6.61194 0)
(17.6116 6.62024 9.328e-18)
(17.7892 6.62102 -9.20777e-18)
(17.9593 6.61473 0)
(18.1244 6.60187 8.97464e-18)
(18.2859 6.582 8.65848e-18)
(18.4445 6.55437 -2.27269e-17)
(18.6007 6.51821 0)
(18.7554 6.47299 1.71617e-17)
(18.9085 6.41749 -3.42574e-17)
(19.0588 6.34992 1.70425e-17)
(19.2047 6.2686 0)
(19.3451 6.17268 -1.58622e-17)
(19.4782 6.06189 1.76238e-17)
(19.6019 5.93607 1.66654e-17)
(19.7138 5.79539 -1.83851e-17)
(19.8114 5.64051 -1.70436e-18)
(19.8924 5.47272 0)
(19.954 5.29367 0)
(19.9923 5.12135 -9.01948e-19)
(20.0108 4.96243 4.12753e-19)
(20.0138 4.80745 7.03072e-18)
(20.0023 4.65792 5.36966e-19)
(19.9777 4.51508 -7.04559e-18)
(19.9414 4.37993 7.24314e-18)
(19.8951 4.25321 -7.00781e-18)
(19.8402 4.13537 -4.20754e-18)
(19.778 4.02667 3.72666e-18)
(19.71 3.92718 -3.85793e-18)
(19.6372 3.83681 3.8493e-18)
(19.5609 3.7554 0)
(19.4819 3.68264 -4.30017e-18)
(19.401 3.61801 4.06591e-18)
(19.3191 3.56126 0)
(19.2369 3.5121 8.11906e-21)
(19.1548 3.46987 1.10074e-18)
(19.0733 3.43416 -1.13056e-18)
(18.9929 3.40472 5.11652e-19)
(18.9143 3.38057 -5.33153e-19)
(17.079 6.35539 0)
(17.2725 6.37104 1.1156e-18)
(17.4492 6.37877 -8.93962e-18)
(17.6144 6.38264 1.74693e-17)
(17.7702 6.3799 -3.5252e-17)
(17.9188 6.37114 1.7771e-17)
(18.0623 6.35689 0)
(18.2021 6.33684 8.59788e-18)
(18.3387 6.31043 5.16693e-17)
(18.4726 6.27712 -3.48556e-17)
(18.6045 6.2365 0)
(18.7345 6.1877 -4.32151e-18)
(18.8615 6.12938 1.23445e-17)
(18.9845 6.0603 -3.09872e-19)
(19.1026 5.97984 -1.64733e-17)
(19.2147 5.8878 1.78405e-17)
(19.3192 5.78404 -1.5504e-17)
(19.4143 5.66863 1.48485e-17)
(19.4982 5.542 -1.48602e-17)
(19.5692 5.40499 -1.45695e-17)
(19.6251 5.2587 1.25589e-17)
(19.6625 5.11724 -6.28625e-18)
(19.6839 4.98594 7.97848e-18)
(19.6927 4.85726 -7.53597e-18)
(19.6897 4.73237 -1.39852e-18)
(19.6758 4.6123 7.11526e-18)
(19.6522 4.4979 0)
(19.62 4.38981 0)
(19.5804 4.28845 -6.93636e-18)
(19.5344 4.19412 7.36143e-18)
(19.483 4.10694 0)
(19.4273 4.02694 4.80606e-19)
(19.368 3.95405 4.85164e-19)
(19.306 3.8881 4.13695e-18)
(19.2419 3.82872 -4.13072e-18)
(19.1765 3.77578 -1.9888e-18)
(19.1103 3.72909 1.98107e-18)
(19.0438 3.68814 -7.59132e-19)
(18.9774 3.65262 2.02828e-18)
(18.9116 3.62233 -9.83798e-19)
(18.8467 3.59675 -1.2643e-19)
(17.1373 6.16629 8.23934e-18)
(17.3096 6.17707 1.00669e-17)
(17.4667 6.18113 -1.82063e-19)
(17.6131 6.18168 0)
(17.7507 6.17639 0)
(17.8814 6.16591 0)
(18.0071 6.15077 0)
(18.1291 6.13078 -3.32272e-17)
(18.2477 6.10549 5.88075e-17)
(18.3635 6.07452 -3.37896e-17)
(18.4769 6.03759 3.31609e-17)
(18.5882 5.99403 -2.10446e-17)
(18.6964 5.94287 3.68302e-17)
(18.8008 5.88318 -4.51216e-17)
(18.9009 5.81453 1.63827e-17)
(18.9957 5.73679 1.19365e-17)
(19.0842 5.64988 -1.55984e-17)
(19.1649 5.55382 1.84354e-18)
(19.2366 5.44893 -1.90975e-18)
(19.2981 5.33579 1.85071e-17)
(19.3476 5.21517 1.62686e-17)
(19.3823 5.09825 -2.69471e-17)
(19.404 4.98927 -8.64364e-19)
(19.4155 4.88213 0)
(19.4174 4.77776 8.64787e-19)
(19.4104 4.67697 -9.09375e-19)
(19.3953 4.58045 -6.27259e-18)
(19.3731 4.48873 7.15679e-18)
(19.3445 4.4022 -7.26455e-18)
(19.3104 4.32111 7.23724e-18)
(19.2716 4.2456 7.36254e-18)
(19.2289 4.17574 -7.78725e-18)
(19.183 4.11153 -4.5736e-19)
(19.1345 4.05284 3.76021e-18)
(19.084 3.99945 -3.03573e-18)
(19.0319 3.95125 0)
(18.979 3.90814 0)
(18.9254 3.86973 -2.37925e-19)
(18.8716 3.83577 4.84883e-19)
(18.818 3.80612 4.86748e-19)
(18.7648 3.78056 1.18426e-19)
(17.1842 6.00348 0)
(17.3382 6.01051 -1.90737e-18)
(17.4786 6.0118 1.53127e-17)
(17.609 6.00988 -1.56397e-17)
(17.7311 6.00275 -3.103e-17)
(17.8468 5.9911 3.18435e-17)
(17.9576 5.97547 1.55627e-17)
(18.0647 5.95571 -3.22875e-17)
(18.1684 5.9315 -3.19582e-17)
(18.2691 5.90257 3.25319e-17)
(18.3674 5.8687 0)
(18.4633 5.82942 -1.614e-17)
(18.5562 5.78399 3.2004e-17)
(18.6455 5.73174 -3.61786e-17)
(18.7307 5.67237 0)
(18.8114 5.60582 -4.00991e-18)
(18.8864 5.53204 3.91872e-18)
(18.9551 5.45108 0)
(19.0162 5.36318 1.81686e-18)
(19.0691 5.26879 -3.58931e-18)
(19.1123 5.16844 1.63433e-17)
(19.1435 5.07108 -1.60783e-17)
(19.1641 4.98011 1.80442e-18)
(19.1766 4.89055 1.32457e-17)
(19.1811 4.80311 -1.31749e-17)
(19.1783 4.71843 8.61493e-19)
(19.1689 4.63706 -7.93739e-18)
(19.1535 4.55942 7.04283e-18)
(19.1328 4.48583 8.98704e-19)
(19.1075 4.41651 0)
(19.0781 4.35159 0)
(19.0454 4.29113 0)
(19.0098 4.23517 -3.61082e-18)
(18.9718 4.18362 3.5944e-18)
(18.9319 4.13631 -4.48039e-19)
(18.8906 4.09318 -3.65386e-18)
(18.8483 4.05417 4.09569e-18)
(18.8053 4.01898 0)
(18.7619 3.98742 5.90843e-21)
(18.7184 3.95938 -9.19905e-19)
(18.675 3.93484 4.48664e-19)
(17.2223 5.86205 7.03657e-18)
(17.3604 5.8662 0)
(17.4863 5.86539 -3.55155e-17)
(17.6029 5.86163 2.91721e-17)
(17.7118 5.8532 0)
(17.8147 5.84081 2.95683e-17)
(17.9128 5.82497 -2.29073e-19)
(18.0073 5.80559 3.02774e-17)
(18.0985 5.78244 -4.64356e-17)
(18.1867 5.75532 -3.07664e-17)
(18.2723 5.72408 3.13126e-17)
(18.3555 5.68838 7.69939e-18)
(18.4357 5.64768 0)
(18.5124 5.60147 0)
(18.5855 5.54957 -7.84554e-18)
(18.6543 5.49196 3.45711e-17)
(18.7183 5.42864 -6.8272e-17)
(18.7767 5.35968 2.98911e-17)
(18.8289 5.28528 3.72401e-18)
(18.8741 5.20578 3.68343e-18)
(18.9115 5.12159 -1.75331e-18)
(18.939 5.03995 2.64452e-17)
(18.958 4.96355 -4.53635e-17)