/*--------------------------------*- C++ -*----------------------------------*\
| =========                 |                                                 |
| \\      /  F ield         | OpenFOAM: The Open Source CFD Toolbox           |
|  \\    /   O peration     | Version:  5.x                                   |
|   \\  /    A nd           | Web:      www.OpenFOAM.org                      |
|    \\/     M anipulation  |                                                 |
\*---------------------------------------------------------------------------*/
FoamFile
{
    version     2.0;
    format      ascii;
    class       volScalarField;
    location    "250";
    object      nut;
}
// * * * * * * * * * * * * * * * * * * * * * * * * * * * * * * * * * * * * * //

dimensions      [0 2 -1 0 0 0 0];

internalField   nonuniform List<scalar> 
11040
(
0.00235867
0.0028356
0.00306747
0.00311633
0.00302585
0.00287051
0.00269976
0.00256021
0.00243921
0.00230905
0.00213534
0.00196123
0.00182836
0.00173386
0.00164411
0.00155527
0.0014674
0.00138319
0.0013025
0.00122374
0.00114521
0.00107513
0.00101239
0.000949681
0.000886042
0.000820413
0.000749445
0.000648662
0.000473957
0.000413563
0.000367086
0.000332832
0.000305947
0.00027843
0.000252074
0.000233481
0.00024318
0.000293255
0.000346615
0.000388492
0.000563561
0.0062224
0.00666334
0.00607831
0.00547915
0.0048809
0.00436493
0.00392063
0.00382369
0.0038245
0.00378821
0.00369069
0.00354415
0.00342345
0.00330451
0.00316077
0.00301293
0.0028756
0.00275212
0.00264104
0.00254011
0.00244781
0.00237077
0.0023038
0.00224096
0.00218198
0.00212557
0.00206888
0.00199836
0.00188425
0.00179819
0.00173378
0.00170826
0.00162327
0.00152297
0.00139489
0.00127426
0.00123021
0.00132109
0.00150831
0.00182523
0.00244774
0.0128099
0.0134925
0.0126663
0.0116306
0.0104863
0.0093527
0.00830879
0.00738058
0.00658431
0.00589671
0.00526158
0.00474253
0.00462899
0.00458901
0.00452575
0.00445231
0.00437134
0.00428811
0.00420814
0.004134
0.00406569
0.00401078
0.00396139
0.00391161
0.00386146
0.00381097
0.00375924
0.0037025
0.00363343
0.00356861
0.00350946
0.00346357
0.00340694
0.00334709
0.00324768
0.00307674
0.00302306
0.00323764
0.00353302
0.00387879
0.00468857
0.0204941
0.021261
0.0203572
0.0189943
0.0174062
0.0157726
0.0141968
0.0127073
0.0113291
0.0100553
0.00881404
0.00773265
0.0069358
0.00634193
0.00604721
0.00591937
0.00582706
0.00575595
0.00570012
0.00565483
0.00561697
0.00559059
0.00556772
0.00554298
0.00551503
0.00548349
0.00544774
0.00540644
0.00535767
0.00530559
0.00525277
0.00520541
0.00516412
0.00513812
0.00510637
0.00501028
0.00496129
0.00520621
0.0056727
0.00637598
0.00718422
0.0290421
0.029808
0.0289066
0.0273386
0.025417
0.0233427
0.021253
0.0191805
0.0172164
0.0153727
0.0135614
0.0119402
0.0106467
0.00962734
0.00877544
0.00806996
0.00763716
0.00742961
0.00730811
0.00723022
0.00718176
0.0071577
0.00714406
0.00713265
0.00712058
0.00710629
0.00708815
0.00706446
0.00703378
0.00699678
0.00695562
0.00691642
0.00688791
0.00688577
0.00690954
0.00690395
0.00690341
0.00716555
0.00780813
0.00889262
0.0099645
0.0381944
0.0389188
0.0380685
0.0364186
0.0342927
0.031842
0.0292513
0.0266598
0.0241622
0.0217749
0.0193983
0.017209
0.0153876
0.0139234
0.0126688
0.0115786
0.0106669
0.00988197
0.00941964
0.00915805
0.00900115
0.00890953
0.00885118
0.00880848
0.00877779
0.00875489
0.00873554
0.00871603
0.00869351
0.00866657
0.00863599
0.00860663
0.00858871
0.00860086
0.00865978
0.00873579
0.00881614
0.00909015
0.00980211
0.0110925
0.0131081
0.0477286
0.0483731
0.0475988
0.0459696
0.0437442
0.0410985
0.0382284
0.0352731
0.032347
0.0294822
0.0265802
0.0238332
0.0214657
0.0194958
0.0177722
0.0162489
0.0149044
0.0137065
0.0126708
0.0118695
0.0114202
0.0111422
0.0109432
0.0107951
0.0106875
0.0106044
0.010538
0.0104824
0.0104333
0.010388
0.0103456
0.0103093
0.0102875
0.0102972
0.0103627
0.0104859
0.0106474
0.0109424
0.0116206
0.0128846
0.0151376
0.0573699
0.0579367
0.0572545
0.0557199
0.0535269
0.0508671
0.0479115
0.0447793
0.0415883
0.0383799
0.0350634
0.031836
0.0289558
0.0264742
0.0242539
0.0222563
0.0204585
0.0188351
0.0173629
0.0160379
0.0149069
0.0141743
0.0137177
0.0133913
0.0131398
0.0129346
0.0127602
0.0126076
0.0124714
0.0123487
0.012239
0.0121451
0.0120743
0.0120406
0.0120668
0.0121754
0.0123674
0.0126765
0.0132693
0.0143445
0.0163409
0.0669117
0.0673906
0.0667975
0.0654024
0.063351
0.0608183
0.0579419
0.054816
0.0515452
0.0481665
0.044599
0.0410303
0.0377328
0.0347919
0.0321034
0.0296408
0.0273872
0.0253229
0.023426
0.0216761
0.0200601
0.0187451
0.0178004
0.0171206
0.0166104
0.0161955
0.015835
0.0155084
0.0152056
0.0149224
0.0146589
0.0144191
0.0142113
0.014049
0.0139521
0.0139484
0.0140612
0.0143117
0.0147822
0.015599
0.0170855
0.0761109
0.0765053
0.0759978
0.0747673
0.0729247
0.0706165
0.0679469
0.0649821
0.0618038
0.0584192
0.0547755
0.0510376
0.0474706
0.0441901
0.041146
0.0382956
0.0356345
0.0331577
0.0308507
0.0286968
0.0266776
0.0249686
0.0235846
0.0224482
0.0215516
0.0208206
0.0201907
0.0196202
0.0190854
0.0185743
0.0180826
0.0176128
0.0171729
0.0167769
0.0164437
0.0162015
0.016084
0.0161219
0.0163645
0.0168727
0.0178067
0.0847681
0.0850878
0.08466
0.0836015
0.081998
0.0799676
0.077586
0.0748778
0.0719099
0.0687074
0.0652018
0.061518
0.057889
0.0544348
0.0511276
0.0479823
0.0450052
0.0422062
0.0395541
0.0370402
0.0346556
0.0326191
0.0309154
0.0293852
0.0280892
0.027002
0.0260598
0.0252092
0.0244137
0.0236503
0.0229064
0.0221772
0.0214657
0.0207812
0.0201383
0.019563
0.0190899
0.0187538
0.0186021
0.0186795
0.019028
0.0927378
0.0929938
0.0926361
0.0917422
0.0903802
0.0886435
0.0865869
0.0842104
0.0815718
0.0786828
0.0754788
0.0720459
0.0685691
0.0651524
0.0617832
0.0584963
0.0553168
0.0522625
0.0493384
0.0465422
0.0438712
0.0415641
0.0395984
0.0377583
0.0360742
0.034629
0.0333774
0.0322563
0.0312166
0.0302247
0.0292585
0.0283047
0.0273579
0.0264189
0.0254919
0.0245949
0.023755
0.0229985
0.0223681
0.0219133
0.0215986
0.0999331
0.100132
0.0998304
0.0990842
0.0979476
0.096494
0.0947633
0.0927451
0.0904856
0.0879883
0.0851933
0.082153
0.0789892
0.0757942
0.0725687
0.0693586
0.0661775
0.0630488
0.0599906
0.0570145
0.0541265
0.0516026
0.0494402
0.0474007
0.0454686
0.0436511
0.0420013
0.0405649
0.0392873
0.0381052
0.0369745
0.0358672
0.0347695
0.0336693
0.0325602
0.0314494
0.0303524
0.0292795
0.0282571
0.0273329
0.0263974
0.106316
0.106456
0.106198
0.10558
0.104645
0.103449
0.10202
0.100348
0.0984677
0.0963789
0.0940297
0.0914339
0.0886983
0.0858777
0.0829682
0.0800024
0.0770065
0.0740136
0.0710249
0.0680545
0.0651152
0.0625024
0.0602349
0.0580806
0.0560242
0.0540528
0.0521628
0.0503644
0.0487049
0.0472365
0.0459106
0.0446654
0.0434605
0.0422706
0.0410756
0.0398709
0.0386597
0.0374366
0.0362095
0.0350137
0.0336847
0.111864
0.111964
0.111746
0.11124
0.11048
0.109507
0.108343
0.10698
0.105446
0.103739
0.101806
0.0996733
0.0974046
0.0950315
0.0925443
0.0899624
0.0873047
0.0845899
0.0818342
0.0790511
0.0762603
0.0737334
0.0714954
0.0693428
0.0672708
0.0652786
0.0633497
0.0614745
0.0596523
0.0578933
0.0562156
0.0546832
0.0532995
0.0520064
0.050752
0.0495118
0.0482743
0.0470214
0.0457468
0.0444705
0.043017
0.116647
0.116714
0.116528
0.116112
0.115506
0.114716
0.113772
0.112672
0.111436
0.110064
0.108513
0.106803
0.104975
0.103048
0.100999
0.0988483
0.0966178
0.0943053
0.0919193
0.0894695
0.0869659
0.0846612
0.0825926
0.0805815
0.0786262
0.0767242
0.0748715
0.0730624
0.0712905
0.0695498
0.0678372
0.0661638
0.0645356
0.0629626
0.0614906
0.0601368
0.0588593
0.0576069
0.056353
0.0550998
0.0536916
0.120736
0.120777
0.120617
0.120275
0.119782
0.119144
0.118385
0.117505
0.116519
0.115428
0.114199
0.11285
0.111407
0.109871
0.108239
0.106516
0.104709
0.102822
0.100866
0.098835
0.0967315
0.0947628
0.0929689
0.091207
0.0894781
0.0877812
0.086115
0.0844777
0.0828665
0.0812776
0.0797067
0.0781498
0.0766042
0.075068
0.0735406
0.0720345
0.0705597
0.0691177
0.0677538
0.0664812
0.0651318
0.12405
0.124077
0.123939
0.123657
0.123253
0.122735
0.12212
0.121415
0.120619
0.11974
0.118758
0.117684
0.11654
0.115323
0.11403
0.112666
0.111232
0.109729
0.108157
0.106519
0.104813
0.1032
0.101714
0.100243
0.0987895
0.097355
0.0959384
0.0945438
0.093165
0.0917995
0.0904453
0.0890996
0.0877599
0.0864224
0.0850782
0.083728
0.082375
0.0810108
0.0796409
0.0782807
0.0768624
0.126635
0.12665
0.126533
0.126298
0.125962
0.12554
0.125031
0.124449
0.123796
0.123078
0.122286
0.121417
0.120493
0.119513
0.118476
0.117383
0.116236
0.115035
0.113779
0.112467
0.111099
0.109796
0.108587
0.107386
0.106195
0.105016
0.103848
0.102691
0.101545
0.100408
0.0992829
0.0981641
0.0970494
0.0959361
0.0948176
0.0936934
0.0925645
0.0914204
0.0902578
0.0890797
0.0878423
0.128681
0.12869
0.128591
0.128392
0.128108
0.127752
0.127326
0.12684
0.126301
0.125704
0.125049
0.124335
0.123578
0.122782
0.121937
0.121049
0.12012
0.119149
0.118136
0.11708
0.115981
0.114929
0.113949
0.112976
0.11201
0.111052
0.110102
0.10916
0.108226
0.107299
0.106378
0.105462
0.104551
0.103646
0.102737
0.101826
0.100913
0.0999887
0.0990516
0.0981022
0.0971137
0.130338
0.130345
0.13026
0.130089
0.129846
0.129542
0.129184
0.128771
0.128315
0.127812
0.127262
0.126672
0.126043
0.125383
0.124686
0.123955
0.123194
0.122401
0.121576
0.120718
0.119829
0.118975
0.118178
0.117387
0.116603
0.115827
0.115053
0.114287
0.113532
0.112783
0.112041
0.111304
0.11057
0.109843
0.109115
0.108386
0.107658
0.106923
0.10618
0.10543
0.104659
0.131705
0.131711
0.131637
0.13149
0.13128
0.131016
0.130707
0.130357
0.129966
0.129541
0.129074
0.128575
0.128045
0.127491
0.126913
0.126306
0.125675
0.12502
0.124341
0.123639
0.122912
0.122214
0.121562
0.120916
0.120273
0.119641
0.119011
0.118388
0.117774
0.117169
0.116571
0.11598
0.115393
0.114812
0.114233
0.113655
0.113078
0.112499
0.111915
0.111328
0.110731
0.13285
0.132855
0.132791
0.132662
0.132478
0.132249
0.131979
0.131675
0.131341
0.130974
0.130577
0.130149
0.129702
0.129232
0.128743
0.128235
0.12771
0.127164
0.126601
0.126019
0.125421
0.124846
0.124309
0.123777
0.123249
0.122731
0.122217
0.121708
0.121206
0.120713
0.120229
0.119754
0.119285
0.118821
0.118359
0.1179
0.117444
0.116988
0.11653
0.116072
0.115611
0.133821
0.133825
0.133768
0.133655
0.133494
0.133292
0.133056
0.132789
0.132497
0.132178
0.131835
0.131467
0.131082
0.130684
0.130267
0.129836
0.129393
0.128937
0.128468
0.127984
0.127487
0.12701
0.126563
0.126123
0.125689
0.125263
0.12484
0.124423
0.124013
0.12361
0.123214
0.122827
0.122449
0.122076
0.121708
0.121342
0.120981
0.120621
0.120262
0.119905
0.119551
0.134652
0.134655
0.134605
0.134505
0.134362
0.134184
0.133976
0.133741
0.133484
0.133207
0.132908
0.132591
0.132258
0.131913
0.131557
0.131191
0.130813
0.130425
0.130028
0.129623
0.129211
0.128811
0.128438
0.12807
0.127709
0.127354
0.127004
0.126661
0.126323
0.125993
0.12567
0.125354
0.125045
0.124743
0.124446
0.124156
0.12387
0.123586
0.123304
0.123025
0.12275
0.135369
0.135372
0.135327
0.135238
0.135112
0.134954
0.13477
0.134562
0.134335
0.134091
0.13383
0.133553
0.133265
0.132965
0.132657
0.132341
0.132018
0.131689
0.131351
0.131008
0.13066
0.130325
0.130012
0.129703
0.129401
0.129104
0.128813
0.128527
0.128248
0.127976
0.12771
0.12745
0.127198
0.126951
0.12671
0.126475
0.126246
0.126021
0.125799
0.12558
0.125367
0.135993
0.135995
0.135956
0.135877
0.135764
0.135624
0.13546
0.135275
0.135074
0.134857
0.134627
0.134385
0.134132
0.133872
0.133606
0.133334
0.133054
0.13277
0.132482
0.132191
0.131896
0.131611
0.131345
0.131086
0.130831
0.130581
0.130337
0.130098
0.129866
0.12964
0.12942
0.129206
0.128998
0.128796
0.128599
0.128408
0.128222
0.12804
0.127862
0.127688
0.127521
0.136539
0.136541
0.136506
0.136436
0.136336
0.13621
0.136064
0.135899
0.13572
0.135527
0.135323
0.135108
0.134887
0.134661
0.134429
0.134191
0.13395
0.133705
0.133457
0.133207
0.132955
0.132714
0.132487
0.132266
0.132049
0.131838
0.131632
0.131431
0.131237
0.131048
0.130865
0.130687
0.130516
0.130349
0.130188
0.130031
0.12988
0.129732
0.129588
0.129448
0.129315
0.137019
0.137022
0.136991
0.136929
0.136839
0.136727
0.136595
0.136448
0.136288
0.136116
0.135934
0.135744
0.135548
0.135347
0.135143
0.134936
0.134726
0.134514
0.1343
0.134085
0.13387
0.133662
0.133467
0.133278
0.133093
0.132913
0.132739
0.132569
0.132405
0.132247
0.132094
0.131946
0.131803
0.131666
0.131532
0.131404
0.13128
0.131159
0.131042
0.130929
0.130823
0.137444
0.137447
0.13742
0.137365
0.137284
0.137184
0.137066
0.136934
0.13679
0.136637
0.136474
0.136305
0.136131
0.135953
0.135772
0.135589
0.135405
0.13522
0.135035
0.134849
0.134664
0.134485
0.134317
0.134154
0.133995
0.133841
0.133693
0.133549
0.13341
0.133276
0.133147
0.133023
0.132904
0.13279
0.132679
0.132573
0.132471
0.132372
0.132277
0.132185
0.132099
0.137821
0.137825
0.137802
0.137752
0.13768
0.13759
0.137484
0.137366
0.137237
0.137099
0.136954
0.136803
0.136648
0.13649
0.136329
0.136168
0.136005
0.135842
0.13568
0.135519
0.13536
0.135205
0.135059
0.134918
0.134781
0.134649
0.134521
0.134399
0.13428
0.134167
0.134058
0.133954
0.133854
0.133758
0.133666
0.133578
0.133493
0.133412
0.133334
0.133259
0.13319
0.138157
0.138163
0.138142
0.138098
0.138033
0.137952
0.137857
0.137751
0.137636
0.137513
0.137383
0.137248
0.13711
0.136969
0.136826
0.136683
0.136539
0.136396
0.136253
0.136112
0.135973
0.135838
0.135711
0.135589
0.13547
0.135356
0.135247
0.135141
0.13504
0.134944
0.134851
0.134763
0.134679
0.134598
0.134521
0.134448
0.134378
0.134311
0.134246
0.134185
0.134128
0.138458
0.138464
0.138447
0.138407
0.138349
0.138277
0.138192
0.138097
0.137994
0.137884
0.137768
0.137648
0.137524
0.137399
0.137272
0.137145
0.137017
0.136891
0.136765
0.136641
0.13652
0.136402
0.136291
0.136184
0.136081
0.135982
0.135888
0.135797
0.13571
0.135627
0.135549
0.135474
0.135402
0.135334
0.13527
0.135208
0.13515
0.135094
0.135041
0.13499
0.134944
0.138728
0.138735
0.13872
0.138685
0.138633
0.138569
0.138494
0.13841
0.138318
0.13822
0.138117
0.138009
0.1379
0.137788
0.137675
0.137562
0.137449
0.137337
0.137226
0.137117
0.13701
0.136907
0.13681
0.136717
0.136627
0.136541
0.136459
0.13638
0.136306
0.136235
0.136167
0.136103
0.136043
0.135985
0.135931
0.135879
0.13583
0.135784
0.13574
0.135698
0.13566
0.138971
0.138978
0.138965
0.138934
0.13889
0.138833
0.138767
0.138693
0.138613
0.138526
0.138434
0.138339
0.138241
0.138142
0.138042
0.137941
0.137841
0.137742
0.137644
0.137548
0.137454
0.137364
0.137279
0.137197
0.137118
0.137044
0.136972
0.136904
0.13684
0.136778
0.13672
0.136666
0.136614
0.136565
0.136519
0.136475
0.136434
0.136396
0.136359
0.136324
0.136294
0.139189
0.139197
0.139186
0.13916
0.139122
0.139074
0.139018
0.138954
0.138883
0.138807
0.138727
0.138642
0.138556
0.138468
0.138379
0.13829
0.138201
0.138113
0.138027
0.137942
0.13786
0.13778
0.137705
0.137634
0.137565
0.1375
0.137437
0.137378
0.137322
0.137269
0.13722
0.137172
0.137128
0.137087
0.137047
0.137011
0.136976
0.136944
0.136913
0.136885
0.13686
0.139386
0.139394
0.139386
0.139365
0.139334
0.139295
0.139248
0.139194
0.139134
0.139068
0.138998
0.138924
0.138848
0.138771
0.138692
0.138613
0.138535
0.138457
0.138381
0.138306
0.138234
0.138165
0.138099
0.138036
0.137976
0.137918
0.137864
0.137812
0.137764
0.137718
0.137675
0.137635
0.137597
0.137561
0.137528
0.137497
0.137468
0.13744
0.137415
0.137391
0.13737
0.139563
0.139572
0.139566
0.139552
0.139529
0.1395
0.139462
0.139418
0.139368
0.139313
0.139254
0.139191
0.139125
0.139057
0.138989
0.13892
0.138851
0.138783
0.138715
0.13865
0.138587
0.138525
0.138467
0.138412
0.138359
0.138309
0.138262
0.138217
0.138174
0.138135
0.138097
0.138063
0.13803
0.138
0.137971
0.137945
0.13792
0.137898
0.137876
0.137857
0.13784
0.139722
0.13973
0.139729
0.139721
0.139708
0.139688
0.139661
0.139628
0.139589
0.139546
0.139499
0.139447
0.139393
0.139337
0.139279
0.139221
0.139161
0.139103
0.139045
0.138988
0.138933
0.138879
0.138829
0.13878
0.138734
0.13869
0.138649
0.13861
0.138573
0.138539
0.138507
0.138478
0.138451
0.138425
0.138402
0.138381
0.138362
0.138345
0.13833
0.138316
0.138305
0.139858
0.139866
0.139868
0.139868
0.139863
0.139852
0.139836
0.139816
0.139791
0.139763
0.139731
0.139695
0.139657
0.139617
0.139574
0.13953
0.139486
0.139441
0.139396
0.139352
0.13931
0.139269
0.139229
0.139192
0.139155
0.139121
0.139089
0.139058
0.139031
0.139005
0.138982
0.138961
0.138943
0.138926
0.138912
0.1389
0.138889
0.138881
0.138874
0.138868
0.138865
0.139954
0.139961
0.139964
0.139965
0.139963
0.139958
0.139951
0.139942
0.13993
0.139917
0.139902
0.139884
0.139865
0.139845
0.139823
0.139801
0.139777
0.139753
0.13973
0.139706
0.139683
0.13966
0.139637
0.139615
0.139594
0.139574
0.139554
0.139536
0.139519
0.139504
0.13949
0.139478
0.139467
0.139458
0.13945
0.139443
0.139437
0.139432
0.139428
0.139426
0.139425
0.140001
0.140006
0.140009
0.140011
0.140011
0.14001
0.140007
0.140004
0.139999
0.139993
0.139987
0.139979
0.13997
0.139961
0.139951
0.13994
0.139929
0.139918
0.139906
0.139895
0.139884
0.139873
0.139862
0.139851
0.139841
0.139831
0.139822
0.139813
0.139805
0.139797
0.13979
0.139784
0.139778
0.139773
0.139769
0.139765
0.139762
0.13976
0.139758
0.139756
0.139756
0.140026
0.14003
0.140033
0.140035
0.140037
0.140038
0.140038
0.140038
0.140037
0.140036
0.140034
0.140031
0.140028
0.140024
0.14002
0.140016
0.140011
0.140006
0.140001
0.139996
0.139991
0.139986
0.139981
0.139976
0.139971
0.139967
0.139962
0.139958
0.139954
0.139951
0.139948
0.139945
0.139942
0.13994
0.139938
0.139936
0.139935
0.139934
0.139933
0.139932
0.139932
0.140037
0.140041
0.140043
0.140046
0.140048
0.140051
0.140053
0.140055
0.140056
0.140057
0.140058
0.140059
0.140059
0.140059
0.140058
0.140058
0.140057
0.140056
0.140054
0.140053
0.140052
0.14005
0.140048
0.140047
0.140045
0.140044
0.140042
0.140041
0.140039
0.140038
0.140037
0.140036
0.140035
0.140034
0.140034
0.140033
0.140033
0.140033
0.140032
0.140033
0.140033
0.140039
0.140042
0.140045
0.140048
0.14005
0.140053
0.140056
0.140059
0.140062
0.140065
0.140067
0.14007
0.140072
0.140074
0.140076
0.140077
0.140079
0.14008
0.140081
0.140082
0.140083
0.140084
0.140084
0.140085
0.140085
0.140086
0.140086
0.140086
0.140087
0.140087
0.140087
0.140087
0.140088
0.140088
0.140088
0.140088
0.140089
0.140089
0.140089
0.14009
0.14009
0.140035
0.140037
0.140039
0.140042
0.140044
0.140047
0.14005
0.140054
0.140057
0.14006
0.140063
0.140066
0.140069
0.140072
0.140074
0.140077
0.14008
0.140083
0.140085
0.140088
0.14009
0.140093
0.140095
0.140097
0.140099
0.140101
0.140102
0.140104
0.140105
0.140107
0.140108
0.140109
0.14011
0.140111
0.140112
0.140113
0.140114
0.140115
0.140116
0.140116
0.140117
0.140025
0.140026
0.140027
0.140029
0.140031
0.140034
0.140036
0.140039
0.140041
0.140044
0.140046
0.140048
0.140051
0.140052
0.140054
0.140056
0.140058
0.140059
0.140061
0.140063
0.140065
0.140068
0.140071
0.140073
0.140076
0.140079
0.140082
0.140085
0.140088
0.140091
0.140093
0.140096
0.140098
0.1401
0.140102
0.140104
0.140106
0.140107
0.140109
0.14011
0.140112
0.140009
0.14001
0.14001
0.140011
0.140012
0.140013
0.140014
0.140015
0.140016
0.140017
0.140018
0.140018
0.140018
0.140018
0.140017
0.140015
0.140011
0.140005
0.139987
0.139977
0.139969
0.139962
0.139957
0.139953
0.13995
0.139948
0.139946
0.139945
0.139945
0.139945
0.139945
0.139945
0.139946
0.139947
0.139947
0.139948
0.139949
0.13995
0.139951
0.139952
0.139953
0.00278725
0.00350641
0.00418894
0.00539856
0.00708852
0.00907871
0.0112686
0.0136016
0.0160461
0.018585
0.0212005
0.0238869
0.0266389
0.0294475
0.0323041
0.0352058
0.0381465
0.0411192
0.0441174
0.0471363
0.0501703
0.0532133
0.0562591
0.0593007
0.0623309
0.0653426
0.0683296
0.071287
0.0742124
0.0771049
0.0799631
0.0827832
0.0855577
0.0882756
0.0909254
0.0934973
0.095984
0.0983808
0.100685
0.102894
0.10501
0.107031
0.108957
0.110792
0.112536
0.114192
0.115762
0.11725
0.118659
0.119991
0.12125
0.12244
0.123564
0.124626
0.125632
0.126583
0.127483
0.128336
0.129143
0.129906
0.130626
0.131306
0.131948
0.132553
0.133126
0.133667
0.134178
0.134663
0.135122
0.135558
0.13597
0.136373
0.136708
0.137276
0.00586961
0.00632948
0.00602484
0.00609705
0.00695888
0.00849016
0.0104409
0.012641
0.0150044
0.0174899
0.0200703
0.0227323
0.0254674
0.028265
0.0311144
0.0340159
0.0369606
0.0399405
0.0429484
0.0459804
0.0490302
0.0520913
0.0551568
0.0582201
0.0612738
0.0643106
0.067324
0.0703092
0.0732639
0.0761874
0.0790789
0.0819346
0.0847469
0.0875041
0.0901936
0.092805
0.0953309
0.0977661
0.100107
0.102353
0.104502
0.106554
0.10851
0.110371
0.11214
0.113818
0.115411
0.116919
0.118346
0.119696
0.120972
0.122178
0.123317
0.124394
0.125414
0.126379
0.127293
0.128158
0.128977
0.129752
0.130484
0.131174
0.131825
0.132439
0.133019
0.133567
0.134085
0.134576
0.135041
0.135482
0.1359
0.136308
0.136646
0.137221
0.00899357
0.0099414
0.00942997
0.00859098
0.00822883
0.00870939
0.00997965
0.0117965
0.0139462
0.0163055
0.0188084
0.0214206
0.0241234
0.0269019
0.029742
0.0326399
0.0355867
0.0385726
0.0415904
0.0446376
0.0477063
0.0507888
0.0538779
0.0569673
0.0600494
0.0631166
0.0661619
0.0691804
0.0721697
0.0751294
0.078059
0.0809551
0.0838099
0.0866114
0.0893462
0.092003
0.094574
0.0970539
0.0994389
0.101727
0.103916
0.106005
0.107995
0.109887
0.111685
0.113391
0.115009
0.116541
0.117991
0.119362
0.120657
0.121882
0.123039
0.124133
0.125169
0.12615
0.127079
0.127959
0.128793
0.129581
0.130325
0.131027
0.131688
0.132312
0.132901
0.133457
0.133983
0.134481
0.134953
0.1354
0.135823
0.136236
0.13658
0.137162
0.0111669
0.0130912
0.0131752
0.0122887
0.0112201
0.0105673
0.0106792
0.0116065
0.0131853
0.0152045
0.0175056
0.0199946
0.0226203
0.0253514
0.0281651
0.0310494
0.0339931
0.0369849
0.0400149
0.0430785
0.0461677
0.049274
0.0523899
0.0555098
0.0586258
0.0617292
0.0648127
0.067871
0.0709014
0.0739035
0.076877
0.0798191
0.0827221
0.0855738
0.0883602
0.0910693
0.0936928
0.0962247
0.0986609
0.100998
0.103234
0.105367
0.107398
0.109329
0.111162
0.112901
0.114548
0.116109
0.117585
0.118981
0.1203
0.121547
0.122725
0.123839
0.124894
0.125893
0.12684
0.127737
0.128587
0.12939
0.130148
0.130863
0.131537
0.132171
0.13277
0.133336
0.133871
0.134377
0.134856
0.13531
0.135739
0.136159
0.136506
0.137097
0.0125705
0.015437
0.016352
0.0160122
0.0150513
0.0139499
0.013129
0.0129128
0.0134467
0.0146842
0.0164683
0.0186331
0.0210569
0.0236624
0.0263999
0.0292393
0.0321604
0.0351461
0.0381825
0.0412609
0.0443719
0.0475063
0.0506552
0.0538114
0.0569668
0.0601126
0.063241
0.0663461
0.0694249
0.0724766
0.0755009
0.0784954
0.0814531
0.0843619
0.0872074
0.0899772
0.0926618
0.0952546
0.0977508
0.100146
0.102438
0.104624
0.106704
0.108681
0.110556
0.112334
0.114018
0.115613
0.117121
0.118547
0.119894
0.121167
0.12237
0.123507
0.124584
0.125605
0.126572
0.127488
0.128356
0.129176
0.129951
0.130681
0.131368
0.132016
0.132626
0.133203
0.133747
0.134262
0.134749
0.135211
0.135648
0.136074
0.136427
0.137026
0.0140428
0.0170401
0.0185833
0.0189214
0.0185762
0.0177722
0.0167796
0.015905
0.0154367
0.0155783
0.0163972
0.0178319
0.0197537
0.0220306
0.0245588
0.0272673
0.0301095
0.0330528
0.0360728
0.0391527
0.0422788
0.0454391
0.0486224
0.0518193
0.0550205
0.0582165
0.0613987
0.06456
0.0676964
0.0708065
0.0738899
0.0769448
0.079965
0.0829391
0.0858529
0.0886931
0.0914491
0.0941133
0.09668
0.0991445
0.101503
0.103752
0.105892
0.107924
0.109851
0.111677
0.113405
0.115041
0.116587
0.118049
0.11943
0.120734
0.121966
0.123131
0.124233
0.125278
0.126269
0.127208
0.128097
0.128937
0.12973
0.130477
0.131181
0.131842
0.132466
0.133054
0.13361
0.134135
0.134632
0.135102
0.135547
0.13598
0.136339
0.136948
0.0169978
0.018372
0.0199648
0.020655
0.0210547
0.0209338
0.0204015
0.0196301
0.0188261
0.0182234
0.0180401
0.0184243
0.0194205
0.0209785
0.0229945
0.0253573
0.0279742
0.0307764
0.0337144
0.0367533
0.0398678
0.0430379
0.0462475
0.0494829
0.052732
0.0559835
0.059227
0.062454
0.0656584
0.0688377
0.071991
0.0751167
0.0782095
0.0812592
0.0842523
0.0871745
0.0900143
0.0927627
0.0954128
0.0979592
0.100397
0.102722
0.104934
0.107034
0.109024
0.110908
0.112691
0.114377
0.11597
0.117475
0.118895
0.120237
0.121504
0.122701
0.123835
0.124909
0.125926
0.126891
0.127804
0.128667
0.129482
0.130249
0.13097
0.131649
0.132288
0.13289
0.133458
0.133995
0.134502
0.134982
0.135436
0.135878
0.136244
0.136862
0.0185893
0.0201987
0.0213146
0.0214452
0.0224109
0.0228516
0.0229909
0.0228143
0.0223579
0.0217478
0.0211587
0.020785
0.020806
0.0213461
0.0224484
0.0240788
0.0261554
0.0285821
0.0312716
0.0341547
0.0371797
0.0403082
0.0435111
0.0467655
0.0500527
0.0533571
0.0566645
0.0599635
0.0632454
0.0665051
0.0697403
0.0729488
0.0761265
0.0792644
0.0823497
0.0853679
0.0883061
0.091154
0.0939034
0.0965474
0.0990802
0.101498
0.103797
0.10598
0.108047
0.110003
0.111852
0.113599
0.115249
0.116807
0.118277
0.119663
0.120972
0.122209
0.123378
0.124486
0.125536
0.12653
0.127472
0.128362
0.129201
0.129991
0.130734
0.131432
0.132088
0.132706
0.133289
0.133839
0.134358
0.13485
0.135313
0.135765
0.136138
0.136768
0.0191159
0.0209145
0.0223857
0.0232279
0.0237936
0.0237805
0.024357
0.0247704
0.0248948
0.0247731
0.0244554
0.0240337
0.0236485
0.0234642
0.0236358
0.0242769
0.0254376
0.0271029
0.0292106
0.0316775
0.0344212
0.0373716
0.0404732
0.0436828
0.0469671
0.0502995
0.0536584
0.0570258
0.0603882
0.0637361
0.0670638
0.0703678
0.0736436
0.0768835
0.0800757
0.0832057
0.0862595
0.0892251
0.0920925
0.0948535
0.097501
0.10003
0.102436
0.10472
0.106882
0.108927
0.110858
0.112682
0.114402
0.116024
0.117554
0.118996
0.120356
0.121639
0.122852
0.124
0.125088
0.126118
0.127092
0.128014
0.128882
0.129699
0.130466
0.131187
0.131863
0.1325
0.133099
0.133665
0.134198
0.134703
0.135178
0.13564
0.136022
0.136664
0.0192669
0.0208191
0.0224135
0.0238359
0.0249666
0.0256279
0.0260261
0.0261844
0.0263612
0.0266246
0.026772
0.0267489
0.0265924
0.0263698
0.026184
0.0261683
0.0264603
0.0271699
0.0283578
0.0300283
0.0321391
0.0346213
0.0373982
0.0403989
0.0435635
0.0468438
0.0502012
0.053605
0.0570311
0.0604618
0.0638847
0.0672921
0.0706773
0.0740325
0.0773465
0.0806051
0.0837933
0.0868972
0.0899049
0.092806
0.0955919
0.0982556
0.100793
0.103201
0.105481
0.107636
0.109669
0.111587
0.113394
0.115097
0.1167
0.118211
0.119633
0.120974
0.12224
0.123437
0.12457
0.125642
0.126656
0.127614
0.128516
0.129365
0.130162
0.130909
0.131609
0.132267
0.132886
0.133469
0.134019
0.134538
0.135026
0.135501
0.135893
0.13655
0.019939
0.0210199
0.0222559
0.0235947
0.0249569
0.0262087
0.0272405
0.0279575
0.0283699
0.0285527
0.0285136
0.0285305
0.0286487
0.0287315
0.0287292
0.0286854
0.0286816
0.0288215
0.0292208
0.029984
0.0311808
0.0328345
0.0349239
0.0373958
0.0401819
0.0432121
0.046423
0.0497608
0.0531822
0.0566529
0.0601479
0.0636491
0.0671437
0.0706205
0.0740671
0.0774689
0.0808097
0.0840734
0.0872454
0.0903131
0.0932653
0.096093
0.0987895
0.101351
0.103777
0.106069
0.108231
0.110267
0.112184
0.113987
0.115683
0.117278
0.118778
0.12019
0.121521
0.122777
0.123965
0.125087
0.126149
0.12715
0.128094
0.128981
0.129812
0.13059
0.131319
0.132003
0.132645
0.133249
0.133818
0.134354
0.134858
0.135346
0.13575
0.136423
0.0220499
0.0227219
0.0235099
0.0243886
0.0253614
0.0264234
0.0275397
0.0286361
0.0296146
0.0303859
0.0308732
0.0310951
0.0311159
0.0309551
0.0308044
0.0308062
0.0308763
0.0309606
0.0310981
0.031368
0.0318631
0.0326745
0.0338739
0.035499
0.0375482
0.0399864
0.0427565
0.0457924
0.0490294
0.0524102
0.0558875
0.0594247
0.062994
0.0665746
0.070148
0.0736961
0.0772
0.0806406
0.0839998
0.0872612
0.0904104
0.0934352
0.0963261
0.0990766
0.101684
0.104147
0.10647
0.108656
0.110711
0.112641
0.114453
0.116155
0.117753
0.119254
0.120666
0.121996
0.12325
0.124435
0.125554
0.126609
0.127602
0.128534
0.129407
0.130223
0.130986
0.131701
0.132371
0.132999
0.13359
0.134146
0.134668
0.135173
0.135591
0.136282
0.0264564
0.0268039
0.0272359
0.0277073
0.0282149
0.0287714
0.0293955
0.030101
0.0308834
0.0317104
0.0325184
0.0332264
0.0337604
0.0340561
0.0341084
0.0339743
0.0336968
0.0333528
0.033224
0.0332772
0.0334635
0.0338032
0.0343589
0.0352031
0.0364
0.0379917
0.0399904
0.0423773
0.0451087
0.0481267
0.0513694
0.0547787
0.058305
0.0619081
0.0655552
0.0692181
0.0728704
0.0764871
0.0800442
0.0835198
0.086894
0.0901498
0.0932732
0.0962536
0.0990841
0.101762
0.104287
0.106663
0.108894
0.110986
0.112947
0.114785
0.116507
0.118121
0.119636
0.121058
0.122397
0.123659
0.124848
0.125968
0.127021
0.128009
0.128932
0.129795
0.1306
0.131352
0.132055
0.132713
0.13333
0.13391
0.134454
0.134978
0.135412
0.136125
0.0334377
0.0335227
0.0336734
0.0338367
0.0339998
0.0341626
0.0343327
0.0345248
0.0347593
0.0350578
0.0354344
0.035886
0.0363862
0.0368844
0.0373121
0.0376018
0.0376973
0.0375634
0.0372508
0.0368247
0.0363073
0.0360037
0.0359889
0.0362409
0.0367572
0.0375741
0.0387373
0.0402814
0.0422208
0.0445455
0.0472231
0.0502053
0.0534363
0.0568608
0.0604277
0.0640921
0.0678139
0.0715561
0.0752846
0.0789678
0.0825771
0.0860873
0.0894769
0.0927285
0.0958292
0.0987709
0.10155
0.104165
0.106621
0.108922
0.111075
0.113088
0.11497
0.11673
0.118376
0.119917
0.121363
0.122722
0.124
0.125201
0.126329
0.127385
0.128371
0.129291
0.130147
0.130945
0.131688
0.132383
0.133032
0.133641
0.13421
0.134758
0.13521
0.13595
0.0425681
0.0424544
0.0423911
0.042328
0.0422518
0.0421578
0.0420443
0.0419127
0.0417688
0.0416234
0.0414935
0.0414002
0.0413646
0.0414013
0.0415112
0.0416751
0.0418536
0.041989
0.0420167
0.0418852
0.041546
0.0410306
0.0404115
0.0397539
0.0392149
0.0390513
0.0392879
0.0399141
0.0409374
0.0423711
0.0442177
0.046463
0.0490758
0.0520125
0.055222
0.0586516
0.0622496
0.0659664
0.0697551
0.0735709
0.0773724
0.0811215
0.0847844
0.0883325
0.0917427
0.0949975
0.0980856
0.101001
0.103741
0.10631
0.108711
0.110952
0.113043
0.114992
0.116809
0.118505
0.12009
0.121574
0.122965
0.124269
0.125491
0.126633
0.127698
0.128689
0.12961
0.130464
0.131258
0.131998
0.132687
0.133331
0.133931
0.134506
0.134982
0.135753
0.0531275
0.0528748
0.0526596
0.0524394
0.0522031
0.051946
0.0516648
0.0513566
0.0510193
0.0506526
0.0502586
0.0498433
0.0494177
0.0489978
0.0486035
0.0482551
0.0479684
0.0477485
0.0475836
0.0474435
0.0472804
0.0470344
0.0466529
0.0460958
0.0453591