/*--------------------------------*- C++ -*----------------------------------*\
| =========                 |                                                 |
| \\      /  F ield         | OpenFOAM: The Open Source CFD Toolbox           |
|  \\    /   O peration     | Version:  5.x                                   |
|   \\  /    A nd           | Web:      www.OpenFOAM.org                      |
|    \\/     M anipulation  |                                                 |
\*---------------------------------------------------------------------------*/
FoamFile
{
    version     2.0;
    format      ascii;
    class       volScalarField;
    location    "250";
    object      nut;
}
// * * * * * * * * * * * * * * * * * * * * * * * * * * * * * * * * * * * * * //

dimensions      [0 2 -1 0 0 0 0];

internalField   nonuniform List<scalar> 
11040
(
0.00313611
0.00376793
0.00409055
0.00417273
0.00406663
0.00386662
0.00365085
0.00347419
0.00331472
0.003139
0.00290338
0.00266987
0.00249294
0.00236759
0.00224867
0.00213095
0.00201429
0.00190243
0.00179533
0.00169098
0.00158721
0.00149494
0.00141261
0.00133063
0.00124778
0.00116298
0.00107524
0.000988066
0.000950585
0.000981127
0.000858549
0.000631406
0.000437548
0.000396962
0.000357829
0.000325767
0.00034911
0.000598778
0.000739146
0.000755062
0.000761059
0.00791345
0.00848129
0.00775013
0.00699759
0.00624464
0.00558877
0.00510265
0.00503904
0.00505222
0.00500522
0.00487753
0.00470248
0.0045574
0.00440673
0.00422156
0.0040292
0.00384895
0.00368598
0.0035389
0.00340513
0.00328306
0.00318155
0.00309406
0.00301256
0.00293673
0.00286515
0.00279653
0.00273261
0.00269318
0.00268385
0.0026198
0.00250999
0.00235306
0.00219788
0.00199653
0.00176805
0.00168074
0.00182499
0.00221821
0.00284459
0.0032904
0.0161125
0.0169803
0.015962
0.0146814
0.0132575
0.0118373
0.0105278
0.00936825
0.00837715
0.00752531
0.0067324
0.00615638
0.00603789
0.00599202
0.00592595
0.00584593
0.00575333
0.00565445
0.00555666
0.00546426
0.00537834
0.00530933
0.00524776
0.00518618
0.0051245
0.00506277
0.00500045
0.00493814
0.00488092
0.00483103
0.00476857
0.00469286
0.00460484
0.00452173
0.00441486
0.00420945
0.00408833
0.00435377
0.00485459
0.00547851
0.00629178
0.0254696
0.0264266
0.0253396
0.0236938
0.0217618
0.0197626
0.0178252
0.0159884
0.0142847
0.0127068
0.0111609
0.00982193
0.00883957
0.00810175
0.00778996
0.00765099
0.00755419
0.00748071
0.00742291
0.00737598
0.00733679
0.00731043
0.00728774
0.00726303
0.0072346
0.00720187
0.00716407
0.00712081
0.00707294
0.00702128
0.00696237
0.00689844
0.00683638
0.00679145
0.00676056
0.00666335
0.00656146
0.00682398
0.00750611
0.00859191
0.00963945
0.0356301
0.0365626
0.0355064
0.0336619
0.0313839
0.0289106
0.0264056
0.0239091
0.0215288
0.0192817
0.0170587
0.0150581
0.0134578
0.012193
0.0111431
0.0102703
0.00978208
0.00954235
0.00940345
0.00931898
0.00927125
0.00925271
0.00924657
0.00924392
0.00924101
0.00923567
0.00922573
0.00920927
0.00918496
0.00915212
0.00911055
0.00906393
0.00902211
0.00900342
0.00902556
0.00903545
0.00901184
0.00926735
0.0100891
0.0115908
0.0133405
0.0462069
0.0470636
0.0460962
0.0442137
0.0417694
0.0389325
0.0359092
0.0328597
0.0298972
0.0270451
0.024183
0.0215276
0.0193056
0.0175111
0.0159675
0.0146212
0.0135011
0.0125437
0.012002
0.0116948
0.0115108
0.0114066
0.0113448
0.0113043
0.0112797
0.0112658
0.0112574
0.0112498
0.0112394
0.0112235
0.0112011
0.0111747
0.0111535
0.011156
0.0112112
0.0113067
0.0113959
0.0116656
0.0125006
0.0141449
0.0169082
0.0568788
0.0576158
0.0567632
0.0549685
0.0524969
0.0495323
0.0462837
0.042903
0.0395216
0.0361807
0.0327636
0.0295011
0.0266684
0.0242974
0.0222115
0.0203595
0.0187193
0.0172559
0.015989
0.0150427
0.0145015
0.014165
0.0139267
0.0137509
0.0136254
0.013532
0.0134612
0.0134062
0.0133617
0.0133236
0.0132895
0.0132602
0.0132423
0.0132507
0.0133144
0.013453
0.0136422
0.0139547
0.0147114
0.016223
0.0190906
0.067291
0.0679147
0.067191
0.0655659
0.0632217
0.0603489
0.0571196
0.0536558
0.0500842
0.046453
0.0426547
0.0389187
0.0355538
0.0326326
0.0300007
0.0276188
0.0254644
0.0235112
0.0217325
0.0201316
0.0187835
0.0179149
0.0173648
0.0169653
0.0166553
0.0164025
0.0161895
0.0160061
0.0158458
0.015705
0.0155824
0.0154796
0.0154025
0.0153633
0.0153846
0.0154985
0.0157156
0.0160589
0.016712
0.0179341
0.0203252
0.0772033
0.0777097
0.0771058
0.0756898
0.073586
0.0709594
0.0679399
0.0646158
0.0610907
0.0574026
0.0534538
0.0494516
0.0457109
0.0423419
0.0392334
0.0363639
0.0337209
0.0312863
0.0290382
0.0269549
0.0250278
0.0234758
0.0223738
0.0215629
0.0209395
0.0204262
0.0199786
0.0195739
0.0192004
0.0188531
0.0185314
0.0182392
0.017985
0.0177826
0.017652
0.0176245
0.0177329
0.0180019
0.0185167
0.0194179
0.0211062
0.0863766
0.0867775
0.0862832
0.0850881
0.0832786
0.0809863
0.0783029
0.0752837
0.0720029
0.0684589
0.0645829
0.0605455
0.056639
0.0530022
0.0495884
0.0463611
0.0433223
0.0404722
0.0378
0.035291
0.0329272
0.0309236
0.0293202
0.0280072
0.0269507
0.0260714
0.0253041
0.0246056
0.02395
0.0233233
0.02272
0.0221415
0.0215962
0.0210992
0.0206712
0.0203442
0.0201587
0.020153
0.0203841
0.0209162
0.0219276
0.0946598
0.0949732
0.0945751
0.093591
0.0920832
0.0901534
0.0878647
0.085229
0.0823008
0.0790951
0.0755281
0.0717171
0.0679042
0.0642229
0.0606502
0.0572109
0.05392
0.0507959
0.0478109
0.0449603
0.0422381
0.0399001
0.0379404
0.0361902
0.0347034
0.0334397
0.0323302
0.0313194
0.0303689
0.0294538
0.0285589
0.0276778
0.026812
0.0259709
0.0251696
0.0244377
0.0238155
0.0233445
0.0230828
0.0230842
0.0233899
0.101987
0.10223
0.101911
0.101113
0.0998837
0.0983013
0.0964098
0.0941983
0.0917115
0.088952
0.0858426
0.0824555
0.0789692
0.0754903
0.0720071
0.0685603
0.0651822
0.061898
0.0587196
0.0556508
0.0526942
0.0501222
0.0479177
0.0458451
0.0439353
0.0422851
0.0408495
0.0395573
0.0383535
0.0372003
0.0360721
0.034953
0.0338349
0.0327167
0.031601
0.0305064
0.0294634
0.028501
0.0276695
0.0270317
0.026537
0.108363
0.108546
0.108285
0.107642
0.106653
0.105379
0.10385
0.10205
0.100011
0.0977325
0.095146
0.0922899
0.0892708
0.0861741
0.0829981
0.079789
0.0765623
0.0733444
0.0701582
0.0670203
0.0639423
0.0612275
0.0588832
0.0566574
0.0545354
0.0525234
0.0506573
0.0490139
0.0475577
0.0462146
0.0449304
0.0436704
0.0424159
0.0411511
0.0398654
0.0385644
0.0372637
0.0359722
0.034718
0.0335603
0.032354
0.11383
0.113957
0.11374
0.113223
0.112435
0.111421
0.110203
0.108766
0.107136
0.105307
0.103228
0.100901
0.0984134
0.0958127
0.0930898
0.0902725
0.087384
0.0844565
0.0814919
0.0785055
0.0755124
0.0728219
0.0704641
0.0682051
0.0660325
0.0639351
0.0619066
0.0599557
0.0581011
0.056418
0.0549121
0.0535142
0.0521687
0.0508401
0.0495013
0.0481435
0.0467669
0.0453627
0.0439354
0.042529
0.0409317
0.118445
0.118535
0.118356
0.117943
0.11732
0.116518
0.115556
0.114421
0.113135
0.111695
0.110048
0.108212
0.106238
0.104149
0.101932
0.0996011
0.0971685
0.0946487
0.0920553
0.0893995
0.0867007
0.0842275
0.0820126
0.0798614
0.0777716
0.0757454
0.0737684
0.0718319
0.0699306
0.0680714
0.0662662
0.0645372
0.0629548
0.0615036
0.0601171
0.0587537
0.0573927
0.0560091
0.0545911
0.0531637
0.0515086
0.122331
0.12239
0.12224
0.121907
0.121422
0.120786
0.120025
0.119132
0.118125
0.117001
0.11572
0.114298
0.112766
0.111136
0.109386
0.107531
0.105585
0.103544
0.101413
0.0991964
0.0969025
0.0947655
0.092826
0.0909212
0.089051
0.0872152
0.0854111
0.083635
0.0818814
0.0801447
0.07842
0.0767109
0.0750223
0.0733636
0.0717358
0.0701931
0.0687643
0.0673932
0.0660332
0.0646809
0.0631431
0.125587
0.125623
0.125495
0.125226
0.124839
0.124335
0.123736
0.123037
0.122251
0.121378
0.120389
0.119297
0.118123
0.116866
0.115519
0.114088
0.112574
0.110979
0.109311
0.107561
0.105731
0.103999
0.102406
0.100827
0.0992631
0.0977145
0.0961806
0.0946605
0.0931523
0.091653
0.0901589
0.0886664
0.0871716
0.0856711
0.0841575
0.0826391
0.0811306
0.0796281
0.0781315
0.0767088
0.075201
0.128184
0.128208
0.128102
0.127884
0.127571
0.127169
0.126691
0.126142
0.125519
0.124828
0.124053
0.123201
0.122291
0.121317
0.120278
0.119176
0.118011
0.116782
0.115489
0.114131
0.112707
0.111349
0.110089
0.108832
0.107582
0.106338
0.1051
0.103873
0.102651
0.101432
0.100214
0.0989942
0.0977714
0.0965415
0.0952961
0.0940345
0.0927578
0.0914558
0.0901268
0.0887866
0.0873579
0.130184
0.130199
0.13011
0.129931
0.129674
0.129351
0.128961
0.128513
0.128009
0.127453
0.126838
0.126161
0.125438
0.124668
0.123849
0.122984
0.122073
0.121114
0.120106
0.119048
0.11794
0.116878
0.115887
0.114898
0.113912
0.112931
0.111953
0.110978
0.110007
0.109039
0.108074
0.10711
0.106142
0.105171
0.104188
0.103194
0.10219
0.101165
0.100115
0.0990441
0.0979007
0.131753
0.131764
0.13169
0.13154
0.131325
0.131055
0.130731
0.130361
0.129949
0.129492
0.128989
0.12844
0.127855
0.127239
0.126583
0.125891
0.125164
0.124403
0.123605
0.122771
0.121899
0.121061
0.120278
0.119496
0.118718
0.117944
0.117174
0.116406
0.115642
0.11488
0.11412
0.113361
0.112602
0.111845
0.111081
0.110311
0.109536
0.108747
0.107943
0.107125
0.106264
0.133015
0.133024
0.132962
0.132835
0.132653
0.132424
0.132154
0.131842
0.131497
0.131115
0.130696
0.130246
0.129765
0.12926
0.128724
0.128162
0.127574
0.126961
0.126321
0.125654
0.12496
0.124292
0.123667
0.123044
0.122425
0.121811
0.121197
0.120587
0.119984
0.119385
0.11879
0.118196
0.117604
0.117015
0.116423
0.115829
0.115233
0.114629
0.114017
0.113396
0.112754
0.134051
0.13406
0.134007
0.133898
0.133742
0.133545
0.133314
0.133051
0.132757
0.132436
0.132084
0.131706
0.131304
0.130883
0.130442
0.129979
0.129497
0.128996
0.128475
0.127935
0.127376
0.126837
0.126333
0.125833
0.125334
0.124842
0.124351
0.123864
0.123382
0.122908
0.122438
0.121972
0.121509
0.121049
0.12059
0.12013
0.119671
0.119209
0.118742
0.118271
0.11779
0.134915
0.134924
0.134878
0.134784
0.134649
0.134478
0.134278
0.134051
0.133801
0.133526
0.133228
0.132906
0.132569
0.132214
0.131844
0.13146
0.131062
0.130647
0.130219
0.129776
0.12932
0.12888
0.128469
0.128062
0.127658
0.12726
0.126865
0.126473
0.126086
0.125705
0.125331
0.124964
0.124601
0.12424
0.123881
0.123524
0.123169
0.122812
0.122454
0.122095
0.121733
0.135645
0.135653
0.135613
0.135532
0.135414
0.135265
0.13509
0.134893
0.134675
0.134438
0.134181
0.133906
0.133617
0.133318
0.133005
0.13268
0.132346
0.132002
0.131648
0.131282
0.130906
0.130544
0.130206
0.129872
0.129542
0.129218
0.128897
0.128579
0.128266
0.127959
0.127657
0.127361
0.127072
0.126788
0.126505
0.126226
0.125949
0.125673
0.125397
0.125123
0.12485
0.136268
0.136275
0.136241
0.13617
0.136066
0.135936
0.135783
0.13561
0.135419
0.135214
0.134991
0.134755
0.134507
0.134249
0.133983
0.133709
0.133425
0.133134
0.132836
0.132532
0.132222
0.131921
0.13164
0.131362
0.13109
0.130822
0.130558
0.130299
0.130044
0.129794
0.12955
0.129311
0.129077
0.128848
0.128624
0.128404
0.128188
0.127973
0.12776
0.127548
0.12734
0.136804
0.136811
0.136782
0.136719
0.136629
0.136514
0.136379
0.136226
0.136059
0.135878
0.135685
0.135479
0.135265
0.135043
0.134813
0.134577
0.134336
0.13409
0.133838
0.133581
0.133321
0.13307
0.132836
0.132605
0.132378
0.132156
0.131937
0.131723
0.131514
0.131309
0.13111
0.130915
0.130725
0.13054
0.130359
0.130183
0.130011
0.129842
0.129676
0.129512
0.129352
0.137269
0.137276
0.137251
0.137197
0.137117
0.137015
0.136896
0.13676
0.136612
0.136453
0.136283
0.136104
0.135917
0.135724
0.135526
0.135324
0.135117
0.134906
0.134691
0.134475
0.134255
0.134043
0.133845
0.133651
0.133461
0.133275
0.133093
0.132915
0.132742
0.132573
0.132409
0.132249
0.132094
0.131944
0.131797
0.131655
0.131516
0.131381
0.131248
0.131119
0.130995
0.137675
0.137683
0.137662
0.137614
0.137543
0.137453
0.137347
0.137226
0.137095
0.136953
0.136803
0.136645
0.136482
0.136314
0.136143
0.135967
0.135788
0.135607
0.135423
0.135238
0.135052
0.134873
0.134704
0.13454
0.13438
0.134223
0.13407
0.133921
0.133777
0.133637
0.133501
0.133369
0.133242
0.133119
0.132999
0.132883
0.132771
0.132662
0.132555
0.132452
0.132354
0.138032
0.138041
0.138023
0.137981
0.137918
0.137838
0.137742
0.137635
0.137518
0.137392
0.137258
0.137118
0.136974
0.136826
0.136676
0.136523
0.136369
0.136212
0.136054
0.135896
0.135736
0.135583
0.135439
0.135299
0.135163
0.13503
0.134901
0.134776
0.134655
0.134538
0.134425
0.134316
0.134211
0.134109
0.134011
0.133916
0.133825
0.133737
0.133651
0.133567
0.13349
0.138347
0.138357
0.138343
0.138305
0.138249
0.138177
0.138091
0.137995
0.13789
0.137778
0.137659
0.137535
0.137408
0.137277
0.137144
0.13701
0.136874
0.136739
0.136603
0.136466
0.13633
0.136198
0.136074
0.135954
0.135838
0.135724
0.135615
0.135509
0.135407
0.135309
0.135214
0.135123
0.135036
0.134952
0.134871
0.134793
0.134718
0.134646
0.134576
0.134509
0.134447
0.138626
0.138638
0.138626
0.138593
0.138542
0.138477
0.1384
0.138315
0.138221
0.138121
0.138015
0.137905
0.137792
0.137676
0.137559
0.137441
0.137322
0.137202
0.137084
0.136965
0.136849
0.136735
0.136628
0.136525
0.136425
0.136328
0.136234
0.136144
0.136058
0.135974
0.135895
0.135819
0.135745
0.135676
0.135609
0.135544
0.135483
0.135424
0.135367
0.135313
0.135263
0.138876
0.138888
0.138878
0.138848
0.138802
0.138744
0.138676
0.138599
0.138516
0.138428
0.138334
0.138236
0.138136
0.138034
0.13793
0.137825
0.13772
0.137616
0.137512
0.137408
0.137307
0.137208
0.137116
0.137026
0.13694
0.136856
0.136776
0.136699
0.136626
0.136555
0.136488
0.136424
0.136362
0.136304
0.136248
0.136195
0.136144
0.136095
0.136049
0.136005
0.135964
0.139098
0.139111
0.139102
0.139075
0.139034
0.138983
0.138923
0.138856
0.138783
0.138705
0.138622
0.138535
0.138447
0.138356
0.138264
0.138172
0.13808
0.137988
0.137896
0.137806
0.137718
0.137632
0.137551
0.137473
0.137398
0.137326
0.137257
0.137191
0.137128
0.137068
0.137011
0.136957
0.136905
0.136856
0.136809
0.136765
0.136723
0.136683
0.136645
0.136608
0.136576
0.139298
0.13931
0.139302
0.139278
0.139242
0.139198
0.139147
0.139089
0.139026
0.138957
0.138885
0.138809
0.138731
0.138651
0.13857
0.138488
0.138407
0.138326
0.138245
0.138166
0.138089
0.138014
0.137944
0.137876
0.137811
0.137749
0.137689
0.137632
0.137578
0.137527
0.137478
0.137432
0.137388
0.137347
0.137307
0.13727
0.137236
0.137202
0.137171
0.137141
0.137115
0.139477
0.139489
0.139481
0.13946
0.139431
0.139395
0.139352
0.139304
0.13925
0.139191
0.139128
0.139062
0.138993
0.138923
0.138851
0.13878
0.138708
0.138636
0.138566
0.138497
0.138429
0.138364
0.138302
0.138243
0.138186
0.138132
0.138081
0.138032
0.137985
0.137941
0.137899
0.13786
0.137823
0.137788
0.137755
0.137724
0.137695
0.137668
0.137642
0.137618
0.137596
0.139638
0.139648
0.139641
0.139625
0.139604
0.139576
0.139543
0.139503
0.139459
0.139409
0.139355
0.139298
0.139239
0.139178
0.139115
0.139052
0.13899
0.138927
0.138865
0.138805
0.138746
0.138688
0.138635
0.138583
0.138534
0.138486
0.138442
0.138399
0.138359
0.138321
0.138286
0.138252
0.138221
0.138191
0.138163
0.138137
0.138113
0.138091
0.138069
0.138049
0.138032
0.139781
0.139788
0.139784
0.139775
0.139762
0.139743
0.139719
0.139689
0.139655
0.139615
0.139571
0.139524
0.139475
0.139423
0.13937
0.139316
0.139261
0.139207
0.139153
0.139101
0.13905
0.139
0.138953
0.138908
0.138865
0.138824
0.138785
0.138749
0.138714
0.138682
0.138651
0.138623
0.138597
0.138572
0.138549
0.138528
0.138509
0.138491
0.138475
0.138461
0.138449
0.139904
0.139909
0.139908
0.139906
0.139901
0.139892
0.139877
0.139858
0.139835
0.139807
0.139776
0.139742
0.139705
0.139665
0.139624
0.139582
0.139538
0.139495
0.139451
0.139408
0.139367
0.139326
0.139287
0.13925
0.139214
0.13918
0.139148
0.139119
0.139091
0.139066
0.139043
0.139022
0.139004
0.138988
0.138973
0.138962
0.138952
0.138944
0.138938
0.138933
0.138931
0.139992
0.139997
0.14
0.140001
0.14
0.139996
0.13999
0.139981
0.13997
0.139957
0.139942
0.139924
0.139905
0.139884
0.139861
0.139838
0.139813
0.139789
0.139764
0.139739
0.139716
0.139692
0.139668
0.139646
0.139624
0.139603
0.139584
0.139566
0.139549
0.139535
0.139522
0.13951
0.1395
0.139491
0.139484
0.139478
0.139474
0.139471
0.139468
0.139467
0.139468
0.140036
0.14004
0.140043
0.140045
0.140046
0.140046
0.140044
0.140041
0.140037
0.140031
0.140024
0.140017
0.140008
0.139998
0.139988
0.139977
0.139966
0.139954
0.139942
0.13993
0.139919
0.139908
0.139896
0.139886
0.139875
0.139865
0.139855
0.139847
0.139838
0.139831
0.139825
0.139819
0.139814
0.139809
0.139806
0.139803
0.139801
0.139799
0.139798
0.139798
0.139798
0.140058
0.140062
0.140066
0.140069
0.140071
0.140073
0.140073
0.140074
0.140073
0.140072
0.14007
0.140067
0.140064
0.14006
0.140056
0.140052
0.140047
0.140041
0.140036
0.140031
0.140026
0.140021
0.140015
0.14001
0.140006
0.140001
0.139997
0.139993
0.139989
0.139986
0.139983
0.13998
0.139978
0.139976
0.139975
0.139973
0.139973
0.139972
0.139972
0.139972
0.139973
0.140069
0.140073
0.140077
0.14008
0.140083
0.140086
0.140088
0.140091
0.140093
0.140094
0.140095
0.140096
0.140096
0.140096
0.140096
0.140095
0.140094
0.140092
0.140091
0.140089
0.140088
0.140086
0.140084
0.140082
0.140081
0.140079
0.140077
0.140076
0.140075
0.140074
0.140073
0.140072
0.140071
0.140071
0.14007
0.14007
0.14007
0.140071
0.140071
0.140072
0.140073
0.140071
0.140075
0.140079
0.140082
0.140086
0.14009
0.140094
0.140097
0.140101
0.140104
0.140108
0.140111
0.140113
0.140115
0.140117
0.140119
0.140121
0.140122
0.140123
0.140124
0.140124
0.140125
0.140125
0.140126
0.140126
0.140126
0.140127
0.140127
0.140127
0.140127
0.140127
0.140128
0.140128
0.140129
0.140129
0.14013
0.140131
0.140131
0.140132
0.140133
0.140134
0.140068
0.140072
0.140075
0.140079
0.140083
0.140087
0.140091
0.140096
0.140101
0.140105
0.14011
0.140114
0.140118
0.140122
0.140126
0.140129
0.140133
0.140136
0.140139
0.140141
0.140144
0.140146
0.140148
0.14015
0.140152
0.140153
0.140155
0.140156
0.140157
0.140159
0.14016
0.140161
0.140162
0.140163
0.140165
0.140166
0.140167
0.140168
0.140169
0.14017
0.140171
0.14006
0.140063
0.140066
0.140069
0.140073
0.140078
0.140082
0.140087
0.140092
0.140097
0.140102
0.140107
0.140112
0.140117
0.140122
0.140127
0.140131
0.140136
0.14014
0.140144
0.140147
0.140151
0.140154
0.140157
0.14016
0.140163
0.140165
0.140167
0.14017
0.140172
0.140174
0.140175
0.140177
0.140179
0.14018
0.140182
0.140183
0.140184
0.140186
0.140187
0.140188
0.140048
0.14005
0.140052
0.140055
0.140059
0.140063
0.140067
0.140071
0.140076
0.140081
0.140085
0.14009
0.140095
0.1401
0.140105
0.14011
0.140115
0.14012
0.140125
0.14013
0.140134
0.140138
0.140143
0.140146
0.14015
0.140154
0.140157
0.14016
0.140163
0.140166
0.140168
0.14017
0.140173
0.140175
0.140177
0.140178
0.14018
0.140182
0.140183
0.140185
0.140186
0.140031
0.140032
0.140034
0.140036
0.140039
0.140042
0.140045
0.140048
0.140052
0.140055
0.140059
0.140062
0.140066
0.140069
0.140073
0.140076
0.140079
0.140083
0.140086
0.14009
0.140094
0.140098
0.140102
0.140106
0.14011
0.140114
0.140118
0.140122
0.140126
0.140129
0.140133
0.140136
0.140139
0.140142
0.140145
0.140147
0.140149
0.140152
0.140154
0.140155
0.140157
0.140011
0.140012
0.140012
0.140013
0.140014
0.140015
0.140016
0.140018
0.140019
0.14002
0.140022
0.140023
0.140024
0.140024
0.140024
0.140023
0.140021
0.140019
0.140005
0.14
0.139997
0.139996
0.139995
0.139994
0.139994
0.139995
0.139996
0.139997
0.139998
0.139999
0.14
0.140002
0.140003
0.140005
0.140006
0.140008
0.140009
0.14001
0.140012
0.140013
0.140014
0.00367333
0.00450992
0.00520295
0.00651893
0.00842837
0.0107051
0.013207
0.0158659
0.0186394
0.02151
0.0244596
0.0274735
0.0305505
0.0336799
0.0368502
0.0400567
0.0432924
0.0465488
0.0498172
0.0530912
0.0563636
0.0596264
0.0628718
0.0660929
0.0692823
0.0724325
0.0755357
0.0785849
0.0815738
0.084497
0.0873501
0.0901295
0.0928311
0.0954506
0.0979825
0.100421
0.102762
0.105001
0.107138
0.109172
0.111103
0.112933
0.114662
0.116294
0.117833
0.119281
0.120642
0.121921
0.12312
0.124246
0.125303
0.126294
0.127223
0.128095
0.128918
0.129698
0.130438
0.131141
0.131806
0.132434
0.133027
0.133586
0.134112
0.134606
0.135069
0.135506
0.135919
0.13631
0.136682
0.137036
0.137374
0.137708
0.137988
0.13847
0.00777664
0.00832152
0.00778819
0.00763685
0.00843243
0.0100742
0.0122495
0.0147317
0.0174021
0.0202069
0.0231147
0.0261028
0.0291632
0.0322842
0.0354506
0.0386611
0.0419068
0.0451774
0.0484627
0.0517578
0.0550548
0.0583447
0.0616194
0.0648723
0.0680958
0.0712818
0.0744224
0.0775102
0.0805389
0.0835027
0.0863974
0.089219
0.0919639
0.0946271
0.0972032
0.0996862
0.10207
0.104352
0.10653
0.108604
0.110573
0.112439
0.114204
0.115869
0.117438
0.118915
0.120304
0.121609
0.122833
0.123981
0.125059
0.126069
0.127016
0.127905
0.128744
0.129538
0.130291
0.131006
0.131682
0.13232
0.132922
0.133489
0.13402
0.134519
0.134988
0.13543
0.135847
0.136243
0.136618
0.136977
0.137318
0.137654
0.137936
0.138422
0.0118684
0.0130755
0.0123465
0.0111209
0.0103913
0.010646
0.0118791
0.0138185
0.0161894
0.0188218
0.0216263
0.0245521
0.0275742
0.0306745
0.0338339
0.0370453
0.0402992
0.0435834
0.0468862
0.0502059
0.0535319
0.0568539
0.0601635
0.0634546
0.0667189
0.0699478
0.0731329
0.0762669
0.0793429
0.082355
0.0852987
0.08817
0.0909651
0.0936794
0.0963068
0.098841
0.101276
0.103608
0.105834
0.107954
0.109968
0.111877
0.113681
0.115385
0.11699
0.118501
0.119922
0.121257
0.12251
0.123684
0.124786
0.125818
0.126786
0.127694
0.12855
0.129361
0.130129
0.130857
0.131546
0.132195
0.132806
0.13338
0.133919
0.134424
0.134898
0.135346
0.135769
0.136169
0.136549
0.136911
0.137256
0.137596
0.13788
0.13837
0.0146449
0.0171302
0.0171961
0.0160164
0.0145314
0.0134457
0.0132048
0.0139351
0.0154925
0.0176314
0.0201444
0.0228971
0.0258143
0.0288526
0.03198
0.0351781
0.0384327
0.0417293
0.0450537
0.0484
0.051758
0.0551157
0.0584648
0.0618008
0.0651135
0.0683931
0.071631
0.0748198
0.0779522
0.0810218
0.0840235
0.0869534
0.0898075
0.0925812
0.0952686
0.0978628
0.100357
0.102747
0.10503
0.107205
0.109271
0.11123
0.113082
0.114831
0.116479
0.11803
0.119488
0.120858
0.122143
0.123348
0.124478
0.125537
0.126528
0.127459
0.128336
0.129164
0.12995
0.130693
0.131395
0.132056
0.132676
0.133259
0.133805
0.134318
0.1348
0.135254
0.135683
0.136089
0.136474
0.136841
0.137189
0.137532
0.137819
0.138314
0.0164217
0.0200778
0.0211648
0.0207591
0.0195453
0.0180664
0.0168046
0.0161567
0.0163502
0.0173989
0.0191576
0.0214296
0.0240497
0.0269062
0.0299262
0.0330643
0.0362908
0.0395828
0.0429203
0.046291
0.0496829
0.0530829
0.0564802
0.0598679
0.0632361
0.066574
0.0698731
0.0731266
0.076326
0.0794638
0.0825342
0.0855332
0.0884568
0.0913005
0.0940581
0.0967227
0.0992872
0.101746
0.104096
0.106335
0.108464
0.110482
0.112391
0.114192
0.11589
0.117488
0.11899
0.120401
0.121725
0.122966
0.124129
0.125218
0.126238
0.127195
0.128095
0.128946
0.129749
0.130509
0.131225
0.131898
0.13253
0.133123
0.133678
0.1342
0.13469
0.135152
0.135588
0.136001
0.136391
0.136763
0.137116
0.137463
0.137752
0.138253
0.0186058
0.0220773
0.0237933
0.0243157
0.0239571
0.0229833
0.0216914
0.0204179
0.019498
0.019204
0.01968
0.0209173
0.0227959
0.0251586
0.0278643
0.0308086
0.033921
0.0371533
0.0404696
0.0438452
0.0472612
0.0507004
0.0541482
0.0575939
0.0610267
0.0644348
0.0678081
0.0711382
0.0744162
0.0776339
0.0807852
0.0838656
0.0868712
0.0897971
0.0926374
0.0953848
0.0980317
0.100572
0.103001
0.105317
0.10752
0.109609
0.111585
0.11345
0.115207
0.116861
0.118415
0.119875
0.121244
0.122528
0.12373
0.124855
0.125909
0.126896
0.127823
0.128697
0.129522
0.130299
0.131031
0.131719
0.132364
0.132969
0.133536
0.134068
0.134568
0.135039
0.135483
0.135903
0.1363
0.136677
0.137035
0.137387
0.13768
0.138187
0.0217773
0.0238572
0.0252983
0.0263497
0.0268844
0.0268234
0.0262235
0.0252556
0.024138
0.0231275
0.0224875
0.0224324
0.0230761
0.0244167
0.0263625
0.0287828
0.0315523
0.034571
0.0377644
0.0410795
0.0444787
0.0479329
0.051419
0.0549194
0.0584194
0.0619048
0.0653628
0.0687826
0.0721542
0.0754683
0.0787172
0.0818956
0.0849988
0.0880223
0.09096
0.0938049
0.0965492
0.0991858
0.10171
0.104118
0.106408
0.108582
0.110638
0.11258
0.114408
0.116129
0.117746
0.119264
0.120688
0.122022
0.12327
0.124438
0.12553
0.126552
0.12751
0.128411
0.12926
0.130059
0.13081
0.131515
0.132176
0.132795
0.133375
0.13392
0.134431
0.134913
0.135366
0.135794
0.136199
0.136583
0.136947
0.137304
0.137601
0.138114
0.023245
0.0254578
0.0268901
0.0274839
0.028347
0.0289877
0.0292177
0.0290528
0.0285115
0.0277078
0.0268188
0.0260547
0.0256325
0.0257356
0.0264725
0.027858
0.0298279
0.0322754
0.0350859
0.0381602
0.0414208
0.0448097
0.0482832
0.0518085
0.0553604
0.0589181
0.0624636
0.0659818
0.0694596
0.0728854
0.0762496
0.0795448
0.0827653
0.0859058
0.0889605
0.0919223
0.0947831
0.0975352
0.100172
0.102691
0.105088
0.107363
0.109517
0.11155
0.113465
0.115266
0.116959
0.118547
0.120035
0.121429
0.122733
0.123951
0.125089
0.126151
0.127146
0.12808
0.128957
0.129781
0.130555
0.131281
0.131961
0.132597
0.133193
0.133752
0.134277
0.13477
0.135235
0.135673
0.136087
0.136479
0.136849
0.137213
0.137514
0.138034
0.0235128
0.0257665
0.0277006
0.0290257
0.0298715
0.0302466
0.030652
0.0311113
0.0312772
0.0311654
0.0308052
0.0302482
0.0296151
0.02908
0.0288342
0.0290465
0.0298289
0.031217
0.0331743
0.0356163
0.0384405
0.0415493
0.0448608
0.0483107
0.05185
0.0554409
0.0590533
0.0626628
0.0662497
0.0697972
0.0732915
0.076722
0.0800804
0.08336
0.0865543
0.0896558
0.0926564
0.0955474
0.0983215
0.100973
0.1035
0.105899
0.108171
0.110316
0.112336
0.114236
0.11602
0.117693
0.11926
0.120727
0.122097
0.123375
0.124568
0.12568
0.126719
0.127692
0.128604
0.129459
0.130261
0.131011
0.131714
0.132371
0.132986
0.133562
0.134102
0.13461
0.135087
0.135537
0.135961
0.136362
0.136741
0.137112
0.137419
0.137947
0.0235468
0.0253152
0.0272119
0.0290396
0.0306095
0.0317317
0.0324104
0.0327591
0.0326673
0.032913
0.0331833
0.0332437
0.0330899
0.0327804
0.032405
0.0320953
0.0320121
0.0323124
0.0331147
0.0344763
0.0363888
0.0387926
0.0415997
0.0447167
0.0480587
0.0515553
0.0551502
0.058799
0.0624665
0.0661246
0.0697508
0.0733275
0.076841
0.0802811
0.0836388
0.0869056
0.0900725
0.09313
0.0960693
0.0988834
0.101567
0.104118
0.106535
0.108818
0.110968
0.112989
0.114886
0.116664
0.118328
0.119883
0.121334
0.122687
0.123947
0.12512
0.126213
0.127234
0.128188
0.129082
0.129917
0.130698
0.131428
0.13211
0.132747
0.133344
0.133903
0.134428
0.13492
0.135384
0.13582
0.136232
0.13662
0.136999
0.137313
0.137851
0.0243581
0.0255215
0.0268649
0.0283612
0.0299572
0.0315475
0.0329805
0.0341151
0.0348024
0.0351619
0.0352821
0.0351106
0.0351494
0.0352728
0.035313
0.0352356
0.0350997
0.0350077
0.0350877
0.035477
0.0362947
0.0376163
0.0394611
0.0417966
0.0445544
0.0476497
0.0509975
0.0545216
0.0581584
0.0618561
0.0655737
0.0692787
0.0729462
0.0765572
0.0800969
0.0835529
0.0869136
0.0901676
0.0933044
0.0963143
0.0991904
0.101928
0.104523
0.106977
0.109288
0.11146
0.113498
0.115406
0.11719
0.118856
0.120409
0.121854
0.123198
0.124446
0.125607
0.126688
0.127695
0.128636
0.129513
0.130332
0.131095
0.131807
0.132472
0.133093
0.133674
0.134219
0.13473
0.13521
0.13566
0.136085
0.136485
0.136874
0.137196
0.137744
0.0269735
0.0276689
0.0284851
0.0293929
0.0304061
0.0315423
0.0327958
0.0341161
0.0353946
0.036507
0.0373541
0.0378369
0.0380219
0.0379861
0.037728
0.0375592
0.0375541
0.0376041
0.0376548
0.0377514
0.0379874
0.0384739
0.0393186
0.0406049
0.0423742
0.0446213
0.0473012
0.0503436
0.0536681
0.0571959
0.060857
0.0645927
0.0683554
0.0721081
0.075822
0.0794746
0.0830475
0.0865243
0.0898902
0.0931322
0.0962395
0.0992039
0.10202
0.104685
0.107198
0.10956
0.111775
0.113848
0.115784
0.11759
0.11927
0.120832
0.122282
0.123625
0.124872
0.126028
0.127103
0.128102
0.129032
0.129898
0.130703
0.131452
0.13215
0.132802
0.13341
0.133979
0.134512
0.135011
0.135479
0.13592
0.136333
0.136734
0.137065
0.137627
0.0323462
0.0326771
0.0330961
0.033548
0.0340267
0.0345463
0.0351333
0.035818
0.0366203
0.0375303
0.0385019
0.0394494
0.0402697
0.0408755
0.0411845
0.0412104
0.041021
0.0406552
0.0402577
0.0401046
0.04015
0.040333
0.0406749
0.0412443
0.0421247
0.0433913
0.0450946
0.0472497
0.0498347
0.052798
0.05607
0.0595747
0.0632393
0.0669995
0.0708016
0.0746025
0.0783674
0.0820677
0.0856794
0.0891817
0.0925572
0.0957921
0.0988759
0.101802
0.104565
0.107166
0.109606
0.111889
0.114019
0.116003
0.117848
0.119559
0.121144
0.12261
0.123966
0.12522
0.126381
0.127456
0.128453
0.129378
0.130236
0.131032
0.131772
0.132461
0.133102
0.133701
0.13426
0.134783
0.135272
0.135731
0.13616
0.136576
0.136919
0.137496
0.0405977
0.0406421
0.0407549
0.0408742
0.0409842
0.0410826
0.0411758
0.0412785
0.0414148
0.0416156
0.0419113
0.0423208
0.0428386
0.0434291
0.044026
0.0445419
0.0448929
0.0450059
0.0448471
0.0444746
0.0439654
0.0433337
0.0429851
0.0429691
0.0432463
0.0438062
0.0446828
0.0459245
0.0475719
0.0496443
0.0521341
0.0550063
0.0582051
0.0616629
0.0653096
0.0690787
0.0729115
0.0767578
0.0805748
0.0843264
0.0879821
0.0915166
0.09491
0.0981472
0.101218
0.104116
0.106839
0.109389
0.111769
0.113984
0.116041
0.117946
0.119708
0.121333
0.122832
0.124213
0.125487
0.126661
0.127746
0.128747
0.129673
0.130529
0.131321
0.132056
0.132739
0.133374
0.133966
0.134518
0.135033
0.135515
0.135964
0.136398
0.136755
0.13735
0.0509827
0.0508238
0.050716
0.0506039
0.0504719
0.050314
0.0501272
0.0499113
0.04967
0.0494127
0.0491563
0.0489255
0.0487501
0.0486593
0.0486735
0.048794
0.0489969
0.049232
0.0494254
0.0494952
0.0493758
0.0490004
0.0484118
0.0476974
0.0469285
0.0463166
0.0461375
0.0464078
0.0471038
0.0482233
0.0497736
0.0517554
0.0541547
0.0569395
0.0600618
0.0634624
0.0670769
0.0708407
0.0746928
0.0785771
0.0824433
0.0862477
0.0899529
0.0935285
0.0969511
0.100204
0.103276
0.106161
0.10886
0.111373
0.113707
0.115866
0.11786
0.119696
0.121385
0.122935
0.124358
0.125664
0.126864
0.127967
0.128982
0.129915
0.130776
0.131571
0.132306
0.132987
0.133619
0.134207
0.134754
0.135265
0.135739
0.136194
0.136569
0.137186
0.0625243
0.0622337
0.0619807
0.0617196
0.0614382
0.0611312
0.0607945
0.0604242
0.0600171
0.0595711
0.0590862
0.0585659
0.058019
0.0574608
0.0569138
0.0564053
0.0559636
0.0556109
0.0553557
0.0551848
0.055061
0.0549236
0.0546954
0.0543086
0.0537087
0.0528918
0.0519407
0.0509742
0.050067
0.0496355
0.0497902
0.0505226
0.0518021
0.0535956
0.0558621
0.0585505
0.0616018
0.0649524