/*--------------------------------*- C++ -*----------------------------------*\
| =========                 |                                                 |
| \\      /  F ield         | OpenFOAM: The Open Source CFD Toolbox           |
|  \\    /   O peration     | Version:  5.x                                   |
|   \\  /    A nd           | Web:      www.OpenFOAM.org                      |
|    \\/     M anipulation  |                                                 |
\*---------------------------------------------------------------------------*/
FoamFile
{
    version     2.0;
    format      ascii;
    class       volScalarField;
    location    "250";
    object      nuTilda;
}
// * * * * * * * * * * * * * * * * * * * * * * * * * * * * * * * * * * * * * //

dimensions      [0 2 -1 0 0 0 0];

internalField   nonuniform List<scalar> 
11040
(
0.00239717
0.00110564
0.000426696
0.000526585
0.000472423
0.000433177
0.000377319
0.00034427
0.000332358
0.000332591
0.000339658
0.00035157
0.000368929
0.000392272
0.000421518
0.000455868
0.000494179
0.000538389
0.000594061
0.000655361
0.000714589
0.000765873
0.000805342
0.000831106
0.000837234
0.000818667
0.000770099
0.000692322
0.000637284
0.000694332
0.000587975
0.000522147
0.000531222
0.000554212
0.000581819
0.000618992
0.000790672
0.000968368
0.00109511
0.00121771
0.000201006
0.00513161
0.00373142
0.00274354
0.00248474
0.00174934
0.00134377
0.000983088
0.00077265
0.000692103
0.000682198
0.00070339
0.000734176
0.000768866
0.00080844
0.000849281
0.000886512
0.000913482
0.000937263
0.00101099
0.0011304
0.00125993
0.00139259
0.00152278
0.00165707
0.0017907
0.00191747
0.0020362
0.00214787
0.00226659
0.00240946
0.00252262
0.00262157
0.00272357
0.00281616
0.00289517
0.00292505
0.00296951
0.00298328
0.00296353
0.00291248
0.00188583
0.00997996
0.0073423
0.00529577
0.00438018
0.00408105
0.00323099
0.00240935
0.00182045
0.00152443
0.0013596
0.00127556
0.00126244
0.00129138
0.00135656
0.00145406
0.00158891
0.00176658
0.00198964
0.00225393
0.0025565
0.0028883
0.00322761
0.00355613
0.00387876
0.00419064
0.00448653
0.00476545
0.00502678
0.00527647
0.00552026
0.00575041
0.0059748
0.00619582
0.00640704
0.00660085
0.0067586
0.00688404
0.006945
0.00693287
0.00680535
0.00543547
0.0168491
0.0124791
0.00895901
0.00675877
0.00598039
0.00568328
0.00476354
0.003623
0.00294045
0.0025585
0.0023279
0.00225701
0.00228457
0.00239588
0.00257413
0.00282571
0.0031581
0.00356701
0.00404797
0.00459409
0.00519332
0.00580682
0.00640242
0.00698533
0.00754656
0.00807709
0.00857463
0.00903804
0.00947299
0.00988706
0.0102852
0.0106741
0.0110569
0.0114307
0.0117868
0.0121018
0.0123562
0.0125105
0.0125396
0.0123529
0.0106832
0.0247993
0.0198012
0.01471
0.0107713
0.0084949
0.00779248
0.00760112
0.00673695
0.00539975
0.00456993
0.00398289
0.0037484
0.00372614
0.00387135
0.00413111
0.00450493
0.00501955
0.00566779
0.00644082
0.00732579
0.00829695
0.00929002
0.0102541
0.0111929
0.0120902
0.0129324
0.0137148
0.014436
0.015104
0.0157344
0.0163393
0.0169306
0.0175168
0.0181034
0.0186872
0.0192307
0.0196932
0.0200225
0.0201636
0.01998
0.0181186
0.0334494
0.0286138
0.0223256
0.0169767
0.0128802
0.0105677
0.00993099
0.00986809
0.00918874
0.00801062
0.00679637
0.00614984
0.00588903
0.00594854
0.00623467
0.00672765
0.00744873
0.00839772
0.00955338
0.0108958
0.0123701
0.0138721
0.0153285
0.0167393
0.0180766
0.0193203
0.0204622
0.0215002
0.0224447
0.023327
0.0241684
0.0249914
0.0258161
0.0266655
0.0275543
0.0284234
0.0292052
0.0298162
0.0301733
0.0300875
0.0282633
0.0426718
0.0382415
0.0319556
0.0252154
0.0196509
0.0154154
0.0130196
0.0123921
0.0124777
0.0120429
0.0110533
0.00998129
0.0092584
0.00906094
0.0092703
0.0098043
0.0106646
0.0119047
0.01353
0.0154712
0.0176156
0.0197871
0.0218877
0.0239124
0.0258138
0.0275628
0.029146
0.0305596
0.0318123
0.032964
0.0340518
0.0351145
0.0361944
0.0373463
0.0386196
0.0399093
0.0411333
0.042182
0.0429264
0.0431259
0.0416456
0.0523043
0.0483224
0.0426217
0.0357511
0.0287224
0.0229423
0.0184897
0.0159003
0.0151941
0.0154202
0.0153132
0.0146318
0.0138368
0.013374
0.0134646
0.0140925
0.0151805
0.0167165
0.0187752
0.0213371
0.024279
0.0273148
0.0302428
0.0330547
0.0356691
0.0380431
0.0401542
0.0419981
0.0435681
0.0449733
0.0462785
0.0475468
0.0488584
0.0503131
0.0520138
0.0538364
0.0556714
0.0573789
0.0587705
0.0595501
0.0588277
0.0621278
0.0586266
0.0536386
0.0474135
0.0402791
0.0330557
0.0270034
0.0222207
0.0192956
0.0183806
0.0187155
0.0190366
0.0188099
0.0185424
0.0186882
0.0195077
0.0210533
0.0232252
0.0259562
0.0292382
0.0330901
0.0371525
0.0411007
0.0448579
0.0482997
0.051373
0.0540445
0.0562902
0.0581484
0.0597347
0.0611602
0.0625248
0.0639657
0.0656443
0.0677678
0.070224
0.0728712
0.0755355
0.0779452
0.0797318
0.0802749
0.0718972
0.0689048
0.064627
0.0592436
0.0528683
0.0456486
0.0382635
0.0319105
0.0267103
0.0233108
0.0220316
0.0223786
0.0231943
0.0237129
0.024303
0.0255344
0.0277269
0.030902
0.0349486
0.0396641
0.0448656
0.0501935
0.0553878
0.0603141
0.064741
0.0686053
0.0718877
0.0745246
0.0765251
0.0780675
0.079365
0.080553
0.0818495
0.0835359
0.0859227
0.0890344
0.0926948
0.0966767
0.10064
0.104033
0.106349
0.0813541
0.0788665
0.0752878
0.0707465
0.065317
0.0590012
0.0518501
0.0443844
0.0377424
0.0320801
0.028089
0.0262592
0.0264323
0.0277457
0.0293341
0.0312757
0.0342437
0.0385704
0.0442771
0.0511099
0.0587719
0.0665842
0.073904
0.080482
0.0861063
0.0907826
0.0946756
0.0976668
0.0995962
0.100716
0.101483
0.102018
0.10265
0.103915
0.106176
0.109777
0.114545
0.120256
0.126528
0.132241
0.136491
0.090235
0.088226
0.0853195
0.0815876
0.0770919
0.0718334
0.0657402
0.0587914
0.0513587
0.0445142
0.0384227
0.0337605
0.0311937
0.0309399
0.0325977
0.0354899
0.0394397
0.0449106
0.0522265
0.0612812
0.0717161
0.0825478
0.0928844
0.102414
0.110813
0.117799
0.123156
0.126697
0.128359
0.128517
0.128184
0.12737
0.126402
0.126429
0.1278
0.131296
0.136953
0.144639
0.154
0.162303
0.16765
0.0983373
0.0967587
0.0944687
0.0914964
0.0878746
0.0836169
0.0786624
0.0729329
0.0663452
0.0591603
0.0522215
0.0457736
0.0404398
0.037005
0.0360287
0.037671
0.0418256
0.0483289
0.057148
0.0682344
0.0812739
0.0950859
0.108448
0.120918
0.132091
0.141658
0.149339
0.155012
0.158613
0.16014
0.159613
0.157051
0.153185
0.150845
0.149971
0.152045
0.157576
0.16675
0.177142
0.185118
0.190794
0.105535
0.104319
0.102552
0.100246
0.0974184
0.094074
0.0901581
0.0856304
0.0803828
0.0743248
0.0676202
0.0604772
0.0538614
0.0480292
0.0437372
0.0417959
0.0429306
0.0478409
0.0569397
0.0697249
0.0852256
0.101896
0.118238
0.133622
0.147502
0.159498
0.169348
0.176918
0.182173
0.185161
0.185985
0.18476
0.181618
0.177005
0.17205
0.170792
0.174019
0.182101
0.191155
0.198519
0.20441
0.111784
0.110859
0.109515
0.107756
0.105595
0.103036
0.10003
0.0965402
0.092513
0.0878629
0.0825047
0.0763824
0.0696106
0.0629614
0.0567381
0.051616
0.0485048
0.0485365
0.0531929
0.0638916
0.0804269
0.0998461
0.119308
0.137767
0.154534
0.169164
0.181344
0.190907
0.197828
0.202184
0.204149
0.203954
0.20186
0.198149
0.193189
0.187813
0.186209
0.189522
0.196676
0.202938
0.208504
0.117106
0.116409
0.115396
0.114067
0.112434
0.110506
0.108246
0.105624
0.102604
0.0991392
0.0951617
0.0905647
0.0853139
0.079508
0.0728468
0.066466
0.0607206
0.0564302
0.0548701
0.0580053
0.0681972
0.0856624
0.107124
0.129033
0.149289
0.167089
0.182108
0.194199
0.203331
0.209589
0.213164
0.214362
0.213512
0.210951
0.207017
0.202208
0.197472
0.194558
0.197017
0.20095
0.205056
0.121584
0.121063
0.120303
0.119303
0.118075
0.11663
0.114945
0.113001
0.110775
0.108237
0.105348
0.102042
0.098246
0.0939111
0.0891184
0.0835717
0.0771571
0.0710951
0.06585
0.0625375
0.0631457
0.0699517
0.083821
0.103512
0.125799
0.1474
0.166388
0.182092
0.194453
0.203632
0.209905
0.213633
0.215172
0.214847
0.212931
0.209699
0.205519
0.200962
0.196988
0.197122
0.198439
0.125153
0.124765
0.124182
0.123414
0.122473
0.121371
0.120096
0.118644
0.11699
0.115122
0.113017
0.110636
0.107929
0.104839
0.101352
0.0976294
0.0931622
0.0878682
0.0818477
0.0761099
0.0714105
0.0693468
0.0716848
0.079702
0.0934469
0.111377
0.130953
0.149732
0.166129
0.179505
0.18987
0.19753
0.202909
0.206473
0.208447
0.20891
0.207895
0.205474
0.201957
0.198116
0.194842
0.127885
0.127578
0.12712
0.126515
0.125783
0.12492
0.123926
0.122803
0.121536
0.120119
0.11854
0.116776
0.114796
0.112563
0.110038
0.107247
0.104303
0.100934
0.0967792
0.0917923
0.0861484
0.0809458
0.0771866
0.0759825
0.0784536
0.0852088
0.0959716
0.109602
0.12451
0.1392
0.152653
0.164437
0.17454
0.183074
0.190149
0.195895
0.200195
0.202809
0.203517
0.20235
0.199687
0.130008
0.129759
0.129389
0.128903
0.128315
0.127623
0.126835
0.125942
0.124947
0.123837
0.12261
0.121256
0.119755
0.118089
0.116226
0.11414
0.11187
0.109399
0.106864
0.103825
0.0999954
0.0955145
0.0905436
0.0862042
0.083061
0.0818538
0.0832063
0.0873889
0.0942111
0.103096
0.113293
0.124127
0.135152
0.146229
0.157399
0.1684
0.178725
0.18779
0.195046
0.200051
0.202635
0.131694
0.131489
0.131186
0.130794
0.130313
0.129747
0.129104
0.128379
0.127575
0.126689
0.125713
0.124643
0.123469
0.122181
0.120764
0.119193
0.117453
0.11554
0.113515
0.111497
0.109272
0.106623
0.103416
0.099751
0.0958189
0.0921047
0.0891762
0.0874896
0.0874027
0.0891022
0.0925882
0.0977274
0.104361
0.112446
0.122077
0.133317
0.145969
0.159533
0.172987
0.18516
0.195222
0.133061
0.132892
0.132644
0.132319
0.13192
0.131455
0.130922
0.130327
0.129665
0.128939
0.128148
0.127287
0.126346
0.125322
0.124208
0.122996
0.121664
0.120196
0.118584
0.116886
0.115119
0.113466
0.111702
0.109639
0.107182
0.104355
0.101296
0.0981939
0.0953925
0.0932868
0.0921213
0.0920871
0.0933312
0.0960229
0.100441
0.107031
0.116305
0.128561
0.143403
0.159665
0.176035
0.13419
0.134051
0.133849
0.133577
0.133246
0.132854
0.13241
0.131912
0.131362
0.130761
0.130107
0.129398
0.128632
0.127804
0.12691
0.125944
0.124899
0.123761
0.122513
0.121148
0.119678
0.118207
0.116798
0.115531
0.114192
0.112658
0.110861
0.108775
0.10644
0.103969
0.101506
0.0991001
0.0972672
0.0961692
0.0960493
0.0973127
0.100613
0.106867
0.11696
0.131138
0.148817
0.135136
0.135024
0.134855
0.134627
0.134347
0.13402
0.133643
0.133224
0.132759
0.132254
0.131708
0.131119
0.130486
0.129807
0.129075
0.128291
0.127449
0.126545
0.125567
0.124502
0.123341
0.122113
0.120878
0.119682
0.11859
0.117605
0.116591
0.115465
0.114167
0.11266
0.110929
0.108967
0.106863
0.104718
0.102647
0.100856
0.099907
0.100418
0.103413
0.110102
0.121524
0.135941
0.13585
0.13571
0.135519
0.135284
0.135004
0.134684
0.134325
0.133931
0.133503
0.133042
0.132545
0.132014
0.131447
0.130842
0.130198
0.129511
0.128779
0.128
0.127164
0.126267
0.125314
0.124314
0.123274
0.122239
0.121259
0.120401
0.119607
0.11881
0.117959
0.117008
0.115912
0.114633
0.113147
0.11144
0.109534
0.107537
0.105648
0.104292
0.104452
0.107308
0.136632
0.13656
0.136443
0.136282
0.136081
0.135843
0.135569
0.135262
0.134925
0.134561
0.134167
0.133745
0.133295
0.132817
0.132312
0.131779
0.131224
0.130641
0.130034
0.129394
0.128725
0.128029
0.127303
0.126535
0.125721
0.12488
0.124046
0.123246
0.122491
0.121772
0.121071
0.12036
0.119607
0.118771
0.11781
0.116681
0.115343
0.113764
0.111988
0.110231
0.108949
0.13723
0.137174
0.137079
0.136945
0.136775
0.136571
0.136337
0.136074
0.135785
0.135471
0.135132
0.13477
0.134387
0.133983
0.133565
0.133135
0.132698
0.13225
0.131783
0.131291
0.130777
0.130248
0.129708
0.129147
0.128559
0.127938
0.127285
0.126611
0.125929
0.125254
0.124593
0.123951
0.123328
0.122711
0.122085
0.121426
0.120699
0.119853
0.118837
0.117616
0.116192
0.137751
0.137712
0.137639
0.137531
0.137389
0.137216
0.137015
0.136786
0.136534
0.136261
0.135968
0.135657
0.13533
0.134997
0.134662
0.134325
0.133983
0.133631
0.133264
0.13288
0.132476
0.13206
0.131638
0.131209
0.130769
0.130315
0.129841
0.129344
0.128825
0.128287
0.127736
0.12718
0.126624
0.126075
0.125537
0.125011
0.124494
0.123968
0.123413
0.122795
0.122057
0.138209
0.138188
0.138139
0.138057
0.137942
0.137796
0.137623
0.137425
0.137205
0.136965
0.136708
0.136439
0.136167
0.135899
0.135634
0.135366
0.135092
0.134809
0.134514
0.134205
0.133883
0.133551
0.133215
0.132874
0.132528
0.132176
0.131818
0.13145
0.131071
0.130678
0.130271
0.12985
0.129416
0.128974
0.128527
0.12808
0.12764
0.127207
0.126783
0.126367
0.125938
0.138616
0.138619
0.138595
0.138536
0.138446
0.138325
0.138178
0.138007
0.137814
0.137605
0.137383
0.137159
0.136939
0.136721
0.136503
0.136282
0.136054
0.13582
0.135576
0.135323
0.135061
0.134791
0.134518
0.134242
0.133962
0.133679
0.133394
0.133105
0.132813
0.132516
0.132213
0.131904
0.131586
0.131259
0.130923
0.13058
0.130233
0.129881
0.12953
0.129184
0.128825
0.138985
0.139014
0.139013
0.138977
0.13891
0.138816
0.138696
0.138554
0.138391
0.138216
0.138037
0.137858
0.137677
0.137494
0.137307
0.137114
0.136916
0.136713
0.136503
0.136288
0.136066
0.13584
0.135613
0.135383
0.135152
0.134919
0.134684
0.134447
0.13421
0.13397
0.133729
0.133486
0.133239
0.132989
0.132734
0.132474
0.132208
0.131935
0.131655
0.131367
0.131034
0.139324
0.139378
0.139396
0.139383
0.139346
0.139286
0.139207
0.139108
0.138992
0.138864
0.138728
0.138582
0.138426
0.138263
0.138092
0.137914
0.137732
0.137545
0.137354
0.137159
0.136962
0.136763
0.136564
0.136365
0.136166
0.135966
0.135766
0.135565
0.135363
0.135161
0.134957
0.134751
0.134544
0.134333
0.13412
0.133901
0.133677
0.133443
0.133197
0.132933
0.132626
0.13963
0.139703
0.139739
0.139753
0.13975
0.139731
0.139695
0.139645
0.139578
0.139496
0.139399
0.139287
0.13916
0.139021
0.138869
0.138707
0.138537
0.138361
0.13818
0.137996
0.13781
0.137623
0.137438
0.137254
0.137071
0.13689
0.13671
0.13653
0.13635
0.136169
0.135987
0.135803
0.135615
0.135423
0.135224
0.135015
0.134793
0.134557
0.134307
0.134053
0.133831
0.139874
0.139965
0.140014
0.14004
0.14005
0.140047
0.140033
0.140009
0.139973
0.139928
0.139873
0.139806
0.139726
0.139632
0.139524
0.139403
0.139268
0.139121
0.138965
0.1388
0.13863
0.138455
0.13828
0.138104
0.137929
0.137755
0.137583
0.137411
0.13724
0.137068
0.136894
0.136716
0.136532
0.136337
0.136127
0.1359
0.13566
0.135417
0.1352
0.135019
0.134904
0.140053
0.140135
0.140178
0.140202
0.140216
0.140222
0.14022
0.140212
0.140196
0.140175
0.140148
0.140114
0.140073
0.140024
0.139964
0.139894
0.139811
0.139716
0.139607
0.139486
0.139354
0.139211
0.139061
0.138905
0.138746
0.138583
0.138418
0.138252
0.138085
0.137913
0.137736
0.137548
0.137346
0.137125
0.136888
0.13666
0.136452
0.13628
0.13615
0.136044
0.135976
0.140176
0.140235
0.14027
0.140295
0.140314
0.140327
0.140335
0.140337
0.140335
0.140327
0.140316
0.1403
0.14028
0.140256
0.140227
0.140192
0.14015
0.1401
0.140041
0.139971
0.13989
0.139797
0.139693
0.139578
0.139454
0.139321
0.13918
0.139033
0.138877
0.138708
0.138522
0.138313
0.138088
0.137865
0.137653
0.13747
0.137327
0.137208
0.137108
0.137025
0.136976
0.140246
0.140292
0.140326
0.140354
0.140378
0.140397
0.140412
0.140423
0.140429
0.140432
0.140431
0.140426
0.140418
0.140407
0.140393
0.140376
0.140355
0.140331
0.140302
0.140268
0.140228
0.140179
0.140121
0.140053
0.139975
0.139886
0.139788
0.139676
0.139545
0.139388
0.139203
0.139005
0.138806
0.138615
0.138451
0.138319
0.138204
0.138103
0.138016
0.137942
0.137898
0.140283
0.140326
0.140361
0.140393
0.140421
0.140445
0.140466
0.140484
0.140498
0.140508
0.140515
0.140519
0.14052
0.140517
0.140513
0.140505
0.140495
0.140483
0.140468
0.140451
0.140431
0.140408
0.140379
0.140344
0.140303
0.140254
0.140197
0.140125
0.140025
0.139893
0.139746
0.139591
0.139437
0.139303
0.13919
0.139086
0.138992
0.138907
0.138831
0.138764
0.138722
0.140303
0.140345
0.140382
0.140416
0.140448
0.140478
0.140505
0.140528
0.140548
0.140565
0.140579
0.14059
0.140598
0.140603
0.140605
0.140605
0.140602
0.140597
0.14059
0.140581
0.14057
0.140557
0.140542
0.140522
0.1405
0.140474
0.140444
0.1404
0.140328
0.140234
0.14013
0.140021
0.139922
0.13984
0.139764
0.139691
0.139622
0.139558
0.139499
0.139445
0.139409
0.14031
0.140352
0.140391
0.140428
0.140464
0.140499
0.140531
0.14056
0.140586
0.140609
0.140629
0.140646
0.14066
0.140672
0.14068
0.140686
0.140689
0.14069
0.140689
0.140685
0.14068
0.140673
0.140663
0.140651
0.140635
0.140618
0.1406
0.140572
0.14052
0.140455
0.140383
0.140311
0.140255
0.140207
0.140162
0.140117
0.140074
0.140032
0.139993
0.139955
0.139932
0.140307
0.140349
0.14039
0.140431
0.140471
0.14051
0.140547
0.140582
0.140614
0.140643
0.140669
0.140692
0.140712
0.140729
0.140743
0.140754
0.140762
0.140768
0.140772
0.140774
0.140774
0.140771
0.140766
0.140758
0.140747
0.140734
0.14072
0.140702
0.140665
0.140615
0.140561
0.14051
0.140477
0.14045
0.140424
0.140399
0.140375
0.140352
0.14033
0.140308
0.140298
0.140296
0.140337
0.14038
0.140424
0.140468
0.140512
0.140555
0.140596
0.140634
0.140669
0.140701
0.14073
0.140755
0.140777
0.140796
0.140813
0.140826
0.140837
0.140845
0.140851
0.140855
0.140857
0.140856
0.140852
0.140846
0.140837
0.140826
0.140813
0.140791
0.140752
0.140708
0.140667
0.140642
0.140624
0.140608
0.140593
0.14058
0.140568
0.140557
0.140546
0.140546
0.140276
0.140317
0.140361
0.140408
0.140456
0.140505
0.140554
0.140601
0.140646
0.140688
0.140726
0.140761
0.140792
0.14082
0.140844
0.140866
0.140884
0.140899
0.140911
0.140921
0.140929
0.140934
0.140937
0.140938
0.140935
0.140931
0.140923
0.140914
0.140902
0.140876
0.140841
0.140805
0.140782
0.140766
0.140754
0.140744
0.140735
0.140728
0.140722
0.140716
0.140721
0.140248
0.140289
0.140333
0.140382
0.140434
0.140488
0.140544
0.140599
0.140652
0.140701
0.140747
0.140789
0.140827
0.140861
0.140891
0.140917
0.140939
0.140959
0.140975
0.140989
0.141
0.141009
0.141015
0.141018
0.141019
0.141018
0.141014
0.141008
0.141
0.140988
0.140964
0.140933
0.140908
0.140893
0.140881
0.140872
0.140865
0.140859
0.140854
0.14085
0.140856
0.140212
0.14025
0.140293
0.140343
0.140398
0.140459
0.140522
0.140587
0.14065
0.14071
0.140766
0.140817
0.140863
0.140904
0.14094
0.140972
0.140999
0.141022
0.141042
0.141059
0.141073
0.141085
0.141093
0.141099
0.141103
0.141105
0.141104
0.141101
0.141096
0.141089
0.141079
0.141058
0.141032
0.141015
0.141003
0.140993
0.140985
0.140979
0.140974
0.14097
0.140974
0.140166
0.1402
0.140239
0.140287
0.140343
0.140408
0.140481
0.140558
0.140637
0.140713
0.140784
0.140849
0.140908
0.140959
0.141003
0.141041
0.141073
0.1411
0.141122
0.14114
0.141154
0.141165
0.141174
0.14118
0.141183
0.141184
0.141183
0.14118
0.141175
0.141169
0.14116
0.141149
0.141127
0.141108
0.141096
0.141086
0.141078
0.141071
0.141066
0.141062
0.141065
0.14011
0.140134
0.140165
0.140204
0.140255
0.140317
0.140393
0.140481
0.140581
0.140687
0.140789
0.140883
0.140969
0.141045
0.141113
0.141172
0.141222
0.141265
0.141301
0.14133
0.141353
0.141372
0.141385
0.141395
0.141401
0.141404
0.141405
0.141403
0.141398
0.141392
0.141384
0.141374
0.141362
0.141348
0.141333
0.141316
0.141293
0.141275
0.14126
0.141247
0.141241
0.14004
0.140049
0.140063
0.140082
0.140108
0.140144
0.140193
0.140261
0.140353
0.14047
0.140652
0.140745
0.140814
0.140878
0.14094
0.141001
0.141059
0.141114
0.141165
0.141211
0.141253
0.141289
0.14132
0.141347
0.141369
0.141386
0.1414
0.141409
0.141415
0.141418
0.141417
0.141414
0.141408
0.141399
0.141382
0.14137
0.14136
0.14135
0.141341
0.141332
0.141327
0.00975658
0.0283199
0.0527399
0.0758193
0.0919987
0.099209
0.0975835
0.0885108
0.0776565
0.079014
0.0944649
0.109721
0.120001
0.127088
0.132345
0.136342
0.139398
0.141755
0.143599
0.145087
0.146345
0.147465
0.148521
0.149565
0.150624
0.151724
0.152876
0.154067
0.155289
0.1565
0.15757
0.15843
0.159093
0.159592
0.159982
0.160316
0.160643
0.161004
0.161421
0.161898
0.162411
0.162926
0.163402
0.163805
0.164106
0.164281
0.164319
0.16421
0.163951
0.163542
0.16299
0.162304
0.161497
0.160589
0.159606
0.158576
0.157533
0.156515
0.155553
0.154677
0.153905
0.153243
0.152683
0.15221
0.1518
0.151429
0.15108
0.150733
0.150377
0.149993
0.149563
0.149049
0.148364
0.14702
0.0128668
0.0332654
0.0588864
0.0822645
0.0983478
0.105454
0.103855
0.0949221
0.0836251
0.0838052
0.0990608
0.114615
0.125006
0.131957
0.136911
0.140532
0.143207
0.145203
0.146718
0.147912
0.14891
0.149805
0.150667
0.151546
0.152462
0.153433
0.154458
0.155514
0.156578
0.157587
0.158441
0.159105
0.159599
0.159957
0.160228
0.160464
0.160708
0.160999
0.161358
0.161786
0.162264
0.162762
0.16324
0.163663
0.163997
0.164214
0.164296
0.164233
0.164018
0.163648
0.163127
0.162462
0.161665
0.160754
0.159755
0.158695
0.157608
0.156533
0.155507
0.154562
0.15372
0.152993
0.152376
0.151854
0.151406
0.151006
0.150634
0.15027
0.149899
0.1495
0.14905
0.14851
0.147798
0.14651
0.0174604
0.0395758
0.0665013
0.0901977
0.106249
0.113422
0.112119
0.103634
0.0919465
0.0898355
0.103679
0.119166
0.129603
0.136397
0.141053
0.144324
0.146648
0.148312
0.149525
0.150448
0.151209
0.1519
0.152591
0.153325
0.154117
0.154978
0.155898
0.156844
0.15778
0.158638
0.15934
0.15987
0.160244
0.160491
0.160654
0.160777
0.160905
0.161079
0.161325
0.161655
0.162061
0.162518
0.162992
0.163442
0.163829
0.164119
0.164285
0.16431
0.164184
0.163898
0.163454
0.162853
0.162104
0.161221
0.160226
0.159145
0.15801
0.156864
0.155746
0.154696
0.153745
0.152914
0.152206
0.15161
0.151107
0.150667
0.150267
0.149883
0.149495
0.149078
0.148609
0.148046
0.147316
0.14608
0.0237215
0.0475944
0.0757692
0.0996597
0.115616
0.122891
0.12199
0.114077
0.102137
0.0971505
0.10843
0.123385
0.133791
0.140426
0.144805
0.147754
0.149753
0.151112
0.152046
0.15272
0.153267
0.153776
0.154315
0.154925
0.155616
0.156392
0.157235
0.158104
0.158956
0.15972
0.160338
0.160795
0.161097
0.161262
0.161322
0.161317
0.161291
0.161293
0.161364
0.161534
0.161815
0.162194
0.162642
0.163115
0.163567
0.163953
0.164237
0.164392
0.164399
0.164246
0.163926
0.163437
0.16278
0.161964
0.161005
0.159922
0.158748
0.157524
0.156294
0.155107
0.154008
0.15303
0.152191
0.15149
0.150907
0.150413
0.149976
0.149565
0.149156
0.14872
0.14823
0.147646
0.146905
0.145712
0.0321214
0.0577809
0.0869128
0.110696
0.126359
0.133642
0.133116
0.125762
0.113716
0.105764
0.113506
0.127342
0.137594
0.144072
0.1482
0.150855
0.152557
0.153632
0.154309
0.154756
0.155108
0.155455
0.155865
0.156374
0.156988
0.157707
0.158505
0.159338
0.160156
0.160894
0.161497
0.161945
0.162226
0.162344
0.162314
0.162167
0.161949
0.161721
0.161546
0.161481
0.161565
0.161805
0.162183
0.162657
0.16317
0.163665
0.164091
0.164411
0.164594
0.164621
0.164476
0.164149
0.163636
0.162936
0.162055
0.161007
0.159817
0.158523
0.157173
0.155827
0.154542
0.153373
0.152358
0.151509
0.150816
0.150244
0.149756
0.149311
0.148875
0.148416
0.147903
0.1473
0.146551
0.145394
0.0432254
0.0706304
0.100135
0.12332
0.138374
0.145466
0.145184
0.138291
0.126235
0.11559
0.119135
0.131168
0.141063
0.14737
0.151272
0.153662
0.155089
0.155903
0.156341
0.15658
0.156757
0.156963
0.157264
0.157695
0.158258
0.158949
0.159738
0.160581
0.161425
0.162206
0.162868
0.163376
0.163699
0.163816
0.163721
0.163431
0.162992
0.162476
0.161975
0.161583
0.161375
0.161389
0.161628
0.16205
0.162596
0.163193
0.163775
0.164285
0.164681
0.16493
0.165009
0.164899
0.164587
0.164062
0.163317
0.162356
0.161193
0.159859
0.158402
0.156887
0.155388
0.153985
0.152741
0.151694
0.150846
0.150166
0.149606
0.149114
0.148646
0.148159
0.147623
0.147
0.146245
0.145115
0.0576526
0.086555
0.115529
0.137459
0.1515
0.158132
0.157895
0.151308
0.139269
0.126404
0.125511
0.135046
0.144282
0.150368
0.154059
0.156206
0.15738
0.15795
0.158168
0.158216
0.158235
0.158319
0.158532
0.158907
0.159446
0.16014
0.16096
0.161862
0.162793
0.16369
0.16449
0.165139
0.165579
0.165759
0.165644
0.165231
0.164555
0.163702
0.162794
0.161968
0.16135
0.16102
0.161012
0.1613
0.161818
0.162485
0.163213
0.163923
0.164557
0.165065
0.165412
0.165572
0.165521
0.165236
0.164698
0.163894
0.162825
0.161507
0.159981
0.158312
0.156588
0.154913
0.153385
0.152078
0.15102
0.150189
0.149529
0.148974
0.148463
0.147945
0.147382
0.14674
0.145979
0.144869
0.0760402
0.105702
0.132959
0.152882
0.165472
0.171345
0.170914
0.164449
0.152388
0.137843
0.132725
0.139178
0.147368
0.153127
0.156601
0.158522
0.159461
0.159803
0.159815
0.159688
0.159565
0.159543
0.159687
0.160028
0.160567
0.161296
0.162187
0.163198
0.164279
0.165369
0.166393
0.167275
0.167924
0.168254
0.168191
0.167699
0.166794
0.165568
0.164174
0.162801
0.161634
0.160812
0.160416
0.160444
0.160837
0.161505
0.16234
0.16324
0.164119
0.16491
0.165559
0.166035
0.166302
0.166326
0.166073
0.165514
0.164627
0.16341
0.161884
0.160108
0.158174
0.156208
0.154346
0.15271
0.151371
0.15033
0.149532
0.148889
0.148324
0.147768
0.147177
0.146514
0.145748
0.144651
0.0989608
0.127721
0.151907
0.169117
0.179862
0.184689
0.183823
0.177284
0.165129
0.149423
0.140694
0.143743
0.150462
0.155722
0.158943
0.160643
0.161359
0.161487
0.161306
0.161016
0.160765
0.160652
0.160743
0.16107
0.161634
0.162427
0.163426
0.164597
0.165893
0.167254
0.168593
0.169812
0.170782
0.171375
0.171465
0.17097
0.169872
0.168258
0.166312
0.164277
0.162411
0.160925
0.159966
0.15957
0.159694
0.160251
0.161118
0.162164
0.163276
0.164354
0.165324
0.166146
0.166779
0.167176
0.16729
0.167071
0.166474
0.165469
0.16405
0.162253
0.160162
0.157914
0.155684
0.15365
0.151948
0.150622
0.149628
0.148866
0.148229
0.147628
0.147005
0.14632
0.145548
0.144458
0.126426
0.151422
0.171363
0.185388
0.194018
0.197573
0.196063
0.189275
0.176958
0.160578
0.149138
0.148831
0.153708
0.158246
0.161139
0.162606
0.163104
0.163028
0.162664
0.162222
0.161851
0.161656
0.161708
0.162038
0.16265
0.163536
0.16468
0.166057
0.167631
0.169344
0.171098
0.172771
0.174194
0.175187
0.175562
0.175171
0.173944
0.171955
0.169408
0.166607
0.16389
0.161558
0.15984
0.158821
0.15849
0.158776
0.159551
0.160663
0.161963
0.163309
0.164597
0.165775
0.166802
0.167619
0.16817
0.168386
0.168198
0.167539
0.166367
0.164678
0.162532
0.160059
0.157458
0.154969
0.152811
0.151106
0.149843
0.148914
0.148181
0.147525
0.146864
0.146157
0.145376
0.144287
0.154697
0.174513
0.189872
0.200604
0.207018
0.20918
0.206889
0.199735
0.187241
0.170689
0.157599
0.154389
0.157216
0.160795
0.163249
0.164446
0.164725
0.164449
0.163911
0.163322
0.162837
0.162565
0.162584
0.162933
0.163613
0.164618
0.165942
0.16757
0.169485
0.171632
0.17391
0.176169
0.178196
0.179753
0.180572
0.18042
0.179158
0.176828
0.173649
0.16999
0.16628
0.162929
0.160254
0.158396
0.157393
0.157203
0.157714
0.158761
0.160167
0.161736
0.163312
0.164824
0.166241
0.167497
0.168531
0.169262
0.169595
0.169428
0.168669
0.167262
0.165216
0.162632
0.159709
0.156739
0.15404
0.151843
0.150213
0.149052
0.148188
0.147459
0.146756
0.146022
0.145232
0.144137
0.180438
0.194667
0.205711
0.213357
0.217654
0.218443
0.215353
0.207823
0.195271
0.179107
0.165498
0.160188
0.161013
0.163448
0.16533
0.166203
0.166246
0.165774
0.165065
0.164333
0.163731
0.163375
0.163359
0.16374
0.16451
0.165659
0.167198
0.169122
0.17144
0.174114
0.177035
0.180032
0.182841
0.185152
0.1866
0.186846
0.185659
0.183036
0.179204
0.174599
0.169762
0.165241
0.161431
0.158532
0.156632
0.155734
0.155761
0.156563
0.15795
0.159668
0.161472
0.163261
0.165025
0.166693
0.168214
0.169502
0.170444
0.170904
0.170736
0.169816
0.168081
0.165568
0.162444
0.159022
0.155718
0.152911
0.150792
0.149308
0.14826
0.147436
0.146681
0.145916
0.145115
0.144009
0.199814
0.209545
0.217008
0.22203
0.224496
0.224093
0.220331
0.212567
0.200286
0.185183
0.17221
0.165849
0.16501
0.166238
0.167431
0.167911
0.167695
0.167021
0.166143
0.165263
0.164528
0.164058
0.163991
0.164426
0.165314
0.166635
0.168434
0.170699
0.173493
0.176802
0.180514
0.184434
0.18824
0.191528
0.193815
0.194633
0.193638
0.190765
0.186243
0.180587
0.174489
0.168667
0.163576
0.159468
0.156472
0.154637
0.153937
0.154269
0.155466
0.157237
0.15919
0.161163
0.16318
0.165175
0.167126
0.16895
0.170537
0.171722
0.172307
0.172092
0.170918
0.168726
0.165606
0.161845
0.157926
0.1544
0.151648
0.149722
0.148418
0.147463
0.146641
0.145841
0.145025
0.143903
0.21106
0.217376
0.222075
0.22506
0.226114
0.224828
0.220649
0.212953
0.201494
0.188283
0.177139
0.170902
0.168996
0.169124
0.169567
0.169593
0.169089
0.168207
0.167154
0.166106
0.165188
0.164535
0.164396
0.164962
0.165997
0.167513
0.169659
0.172303
0.175667
0.179767
0.18447
0.189558
0.194637
0.199182
0.202554
0.204134
0.203447
0.200344
0.195044
0.188168
0.180644
0.173372
0.166869
0.161424
0.157182
0.154218
0.15256
0.152174
0.152958
0.154628
0.156609
0.158709
0.160878
0.163051
0.165292
0.167543
0.169727
0.171661
0.17311
0.173796
0.173448
0.171881
0.169057
0.165171
0.160716
0.156403
0.152868
0.150349
0.148688
0.147551
0.146641
0.145796
0.144963
0.143818
0.213519
0.217281
0.219962
0.221491
0.22157
0.21974
0.215469
0.208335
0.198778
0.188628
0.18022
0.174996
0.172675
0.171967
0.171701
0.171249
0.170438
0.169335
0.168085
0.166821
0.165644
0.164766
0.164881
0.165745
0.166965
0.168677
0.171026
0.173994
0.178083
0.183238
0.189232
0.19585
0.2026
0.208777
0.213544
0.2161
0.215821
0.212442
0.206166
0.197768
0.188548
0.179594
0.171513
0.16461
0.15901
0.154782
0.15198
0.150642
0.150772
0.152012
0.153806
0.155903
0.158171
0.160513
0.16292
0.165377
0.167996
0.17059
0.172916
0.174629
0.175345
0.174726
0.172561
0.168877
0.164082
0.158996
0.154547
0.151263
0.149109
0.147716
0.146686
0.145784
0.14493
0.143756
0.208428
0.210235
0.21145
0.211953
0.21145
0.209558
0.205948
0.200561
0.194007
0.1874
0.181862
0.178019
0.175785
0.174572
0.173736
0.172844
0.171722
0.170377
0.16889
0.167355
0.16592
0.16514
0.165714
0.166762
0.168172
0.170116
0.172791
0.176424
0.181451
0.187908
0.195664
0.204369
0.213404
0.221748
0.228299
0.232048
0.232191
0.228316
0.220615
0.210145
0.198709
0.187691
0.177782
0.16925
0.162175
0.156588
0.152522
0.150053
0.149226
0.149657
0.150948
0.152815
0.155055
0.15751
0.160092
0.162759
0.165544
0.168549
0.171612
0.174352
0.176279
0.176897
0.175784
0.172725
0.167926
0.162205
0.156774
0.152545
0.14973
0.147979
0.146784
0.145806
0.144927
0.143718
0.199687
0.199982
0.200118
0.199989
0.199392
0.198091
0.19592
0.192902
0.189363
0.185778
0.182584
0.180037
0.178156
0.176749
0.175541
0.174294
0.172881
0.171278
0.169535
0.167766
0.166254
0.165858
0.166769
0.168024
0.16969
0.172005
0.175307
0.180025
0.186616
0.195249
0.205769
0.217591