/*--------------------------------*- C++ -*----------------------------------*\
| =========                 |                                                 |
| \\      /  F ield         | OpenFOAM: The Open Source CFD Toolbox           |
|  \\    /   O peration     | Version:  5.x                                   |
|   \\  /    A nd           | Web:      www.OpenFOAM.org                      |
|    \\/     M anipulation  |                                                 |
\*---------------------------------------------------------------------------*/
FoamFile
{
    version     2.0;
    format      ascii;
    class       volScalarField;
    location    "250";
    object      nuTilda;
}
// * * * * * * * * * * * * * * * * * * * * * * * * * * * * * * * * * * * * * //

dimensions      [0 2 -1 0 0 0 0];

internalField   nonuniform List<scalar> 
11040
(
0.00332218
0.00390246
0.00419328
0.00423888
0.00406299
0.00379917
0.00357329
0.00337787
0.00317579
0.00294443
0.00265528
0.00238226
0.00216971
0.00200541
0.00183896
0.00166018
0.00146194
0.00119342
0.000797705
0.000648858
0.000556521
0.000478057
0.000414474
0.000401898
0.000531849
0.000553171
0.000520055
0.000445223
0.000421006
0.000417993
0.000423845
0.00043824
0.000461695
0.000493258
0.000528264
0.000554644
0.000544247
0.00046375
0.000440167
0.000523974
0.000890846
0.00771435
0.00823883
0.00749314
0.0067196
0.00599008
0.00535578
0.0052752
0.00530746
0.00527267
0.00513303
0.00494067
0.00478924
0.00468073
0.00455804
0.00437777
0.00417543
0.00397198
0.00375323
0.00347902
0.00326304
0.00300964
0.0026388
0.0022221
0.00195526
0.00174801
0.00152344
0.00135652
0.00119664
0.00108167
0.000998856
0.000947431
0.000934146
0.000962983
0.00103876
0.00116562
0.00134303
0.00155863
0.00178897
0.00208322
0.002711
0.0043078
0.0157369
0.0165368
0.0154591
0.014133
0.0126548
0.0111915
0.0098788
0.00875241
0.00781812
0.00699592
0.00647927
0.00630268
0.00624109
0.00623336
0.00620157
0.0061285
0.0060164
0.00586988
0.00568654
0.00550438
0.00531122
0.00511987
0.0049153
0.0046107
0.00413038
0.00360399
0.00323608
0.00290403
0.00265324
0.00246563
0.00233394
0.00228169
0.00232733
0.00248473
0.00275978
0.00314957
0.00363226
0.00416751
0.00477764
0.00587874
0.00880936
0.024916
0.025783
0.024608
0.0228847
0.020884
0.0188214
0.0168241
0.014941
0.013213
0.0116211
0.010121
0.00888769
0.00819687
0.00794991
0.00784217
0.00778103
0.0077251
0.00765123
0.00754656
0.00742358
0.00730175
0.00723553
0.00721301
0.0071525
0.00697151
0.00661509
0.00607236
0.00547675
0.00502035
0.00467952
0.00442761
0.00430377
0.00434311
0.00457698
0.0050215
0.00567288
0.00649012
0.0074053
0.00842076
0.0100539
0.0141684
0.0349249
0.0357431
0.0345688
0.0326142
0.0302352
0.0276757
0.0250978
0.0225421
0.0201112
0.0178186
0.0155593
0.0135254
0.0119312
0.0107165
0.0100669
0.00969917
0.00947502
0.009326
0.00921028
0.00911133
0.00904326
0.00906706
0.00919868
0.00938873
0.0095336
0.00952971
0.0093208
0.00893051
0.00842495
0.00790256
0.00747864
0.00723568
0.00723108
0.00752118
0.00814029
0.00908995
0.0102964
0.0116478
0.0131046
0.0152387
0.020151
0.0453807
0.0461031
0.0449925
0.0429704
0.0403928
0.0374408
0.034322
0.031189
0.0281514
0.02523
0.0223039
0.0195774
0.0172713
0.0153661
0.0137711
0.0125177
0.0118379
0.0113766
0.011034
0.0107849
0.0106437
0.0106626
0.0108688
0.0112538
0.0117213
0.0121208
0.0123305
0.012313
0.0121026
0.0117718
0.011423
0.0111878
0.0112091
0.0115869
0.0123715
0.0136269
0.0152501
0.0170623
0.0189363
0.0214428
0.0266329
0.0559695
0.0565588
0.0555446
0.0535877
0.0509561
0.0478437
0.0444572
0.0409496
0.0374513
0.0340028
0.0304875
0.0271234
0.0241693
0.021643
0.0193708
0.0173214
0.0155377
0.0143991
0.013578
0.0129281
0.0124528
0.012237
0.0123185
0.01272
0.0133988
0.014194
0.0149002
0.0153778
0.0155997
0.0156169
0.015536
0.0155138
0.0157654
0.0164936
0.017793
0.0195837
0.0216349
0.0238886
0.0260755
0.0287463
0.033514
0.0663404
0.0668092
0.0659147
0.0641134
0.0615894
0.0585389
0.0551317
0.0514949
0.047756
0.0439648
0.0400156
0.0361295
0.0325994
0.0294836
0.0266188
0.0239551
0.0214468
0.0191755
0.0175349
0.0162271
0.0151307
0.0143664
0.0139999
0.0140596
0.0146018
0.0155583
0.0167119
0.0177898
0.018615
0.0191559
0.019492
0.0197886
0.0203194
0.0214052
0.0232946
0.026012
0.0292544
0.0324215
0.0347495
0.0373297
0.0409994
0.0762524
0.0766046
0.0758294
0.0742328
0.0719388
0.069115
0.0658902
0.0623547
0.058616
0.0547152
0.0505555
0.0463416
0.0423783
0.0387624
0.0353716
0.0321706
0.0291208
0.0261595
0.0234997
0.0213429
0.0194552
0.0179301
0.0168268
0.016134
0.0159995
0.016517
0.0176384
0.0191291
0.0206494
0.0219373
0.0229247
0.0237209
0.0245957
0.02595
0.0282106
0.0315731
0.0358636
0.0405361
0.0446786
0.0474252
0.049794
0.0854632
0.0857162
0.0850574
0.0836865
0.0816875
0.079192
0.0762907
0.0730377
0.0695125
0.065717
0.0615797
0.0572718
0.0530823
0.0491389
0.0453811
0.0417638
0.038271
0.0348553
0.0315274
0.0285603
0.0258933
0.0236182
0.021734
0.0201218
0.0189416
0.0183828
0.0185978
0.0196147
0.0212653
0.0232062
0.0250726
0.0266811
0.0281392
0.0298206
0.0322645
0.0359134
0.0408277
0.0465985
0.0524312
0.0573156
0.0603088
0.093813
0.0939889
0.0934392
0.092292
0.0906053
0.0884794
0.0859754
0.0831043
0.079922
0.0764433
0.0725806
0.0684534
0.0643048
0.0602622
0.0562921
0.0524088
0.0486118
0.0448899
0.0411705
0.0376194
0.0343585
0.0315284
0.0290654
0.0267221
0.0245891
0.0228267
0.0216408
0.0212363
0.0217425
0.0231325
0.0251845
0.027544
0.0299035
0.0322357
0.0349181
0.0385509
0.0435381
0.0497869
0.0566756
0.0632309
0.0684037
0.101225
0.101344
0.100891
0.0999481
0.0985579
0.0967964
0.0947049
0.0922712
0.0895373
0.0865049
0.083091
0.079368
0.0755172
0.0716413
0.0677201
0.0637866
0.0598611
0.0559513
0.0520326
0.0480837
0.044375
0.0412115
0.038442
0.0357218
0.0330535
0.0305031
0.0281971
0.0263203
0.0250905
0.0247081
0.0252895
0.026807
0.0290786
0.0318549
0.0350115
0.0387211
0.0434125
0.0494262
0.0565844
0.0641272
0.070989
0.107694
0.107769
0.107395
0.106627
0.105499
0.104068
0.102362
0.100363
0.0981013
0.0955701
0.0926953
0.0895135
0.0861341
0.0826385
0.0790157
0.0753047
0.0715131
0.0676538
0.0637305
0.0597192
0.0556458
0.0520936
0.0491369
0.0463124
0.0435188
0.0407261
0.0379592
0.0352956
0.0328667
0.0308523
0.029458
0.0288725
0.0292189
0.0305198
0.0327218
0.0357763
0.0397623
0.0449291
0.0514415
0.0590219
0.0668817
0.113257
0.113293
0.11298
0.112359
0.111453
0.110306
0.108938
0.107331
0.105509
0.103462
0.101131
0.0985134
0.0956993
0.0927298
0.0895877
0.086295
0.0828665
0.0793215
0.0756493
0.0718436
0.0678845
0.0642133
0.0609413
0.0579235
0.0551133
0.0523732
0.0496305
0.0468662
0.0441049
0.0414131
0.0389013
0.0367206
0.0350449
0.0340412
0.0338423
0.0345387
0.0361984
0.038947
0.0429802
0.0484543
0.0553119
0.117964
0.117978
0.11772
0.117219
0.116497
0.115586
0.1145
0.113225
0.111781
0.11016
0.108304
0.106227
0.103977
0.101574
0.0989955
0.0962487
0.0933394
0.0902724
0.0870487
0.0836648
0.0801151
0.0767524
0.073644
0.0705666
0.067556
0.0647419
0.0621022
0.0595198
0.0569294
0.0543092
0.0516709
0.0490577
0.0465462
0.0442421
0.0422671
0.0407598
0.0398468
0.0396394
0.0402745
0.0419141
0.0448527
0.121931
0.121927
0.121711
0.121306
0.120739
0.120013
0.119152
0.118146
0.117012
0.115743
0.114297
0.112683
0.110931
0.109049
0.107009
0.104819
0.102485
0.0999953
0.0973438
0.0945246
0.0915297
0.0886614
0.0859826
0.083274
0.080541
0.0778167
0.0751348
0.0725189
0.0700577
0.0676917
0.0653453
0.0629834
0.0605961
0.0581985
0.0558206
0.0535279
0.0514045
0.0495241
0.0479801
0.0468782
0.0463268
0.125258
0.125241
0.125058
0.124728
0.124273
0.123696
0.123015
0.122225
0.121339
0.120352
0.119236
0.117996
0.116653
0.115203
0.113635
0.111948
0.110139
0.108202
0.106137
0.103926
0.101557
0.0992633
0.0971017
0.094905
0.0926731
0.0904057
0.0881084
0.0857925
0.083485
0.0812052
0.0789584
0.076784
0.074685
0.0726177
0.0705442
0.0684571
0.0663669
0.0642789
0.0622224
0.0602556
0.0583038
0.12791
0.127889
0.127733
0.127463
0.127093
0.12663
0.126085
0.125462
0.124758
0.123979
0.123103
0.12214
0.121102
0.119984
0.118781
0.117489
0.116107
0.114628
0.113045
0.111353
0.10954
0.107775
0.106102
0.104398
0.102665
0.100902
0.0991089
0.0972878
0.0954365
0.0935595
0.0916643
0.0897639
0.0878722
0.0859942
0.0841214
0.082253
0.0803912
0.0785316
0.0766978
0.0749004
0.0730024
0.129951
0.129925
0.129793
0.129569
0.129264
0.12889
0.128444
0.127936
0.127366
0.126738
0.126042
0.125276
0.124454
0.123573
0.12263
0.121623
0.12055
0.119407
0.118189
0.11689
0.115504
0.114151
0.112867
0.11156
0.110233
0.108886
0.107519
0.106131
0.104721
0.103287
0.101833
0.100355
0.0988563
0.0973391
0.0958015
0.0942492
0.0926881
0.0911093
0.0895139
0.0879142
0.0862366
0.13155
0.131523
0.13141
0.131221
0.130966
0.130653
0.130282
0.129862
0.129397
0.12888
0.128312
0.12769
0.127025
0.126321
0.125566
0.124764
0.123914
0.123014
0.12206
0.121048
0.119975
0.118927
0.117933
0.116925
0.115906
0.114874
0.11383
0.112775
0.111706
0.110624
0.109529
0.108418
0.107291
0.106149
0.104984
0.103799
0.102597
0.10137
0.100116
0.0988408
0.0975044
0.132833
0.132808
0.132712
0.132551
0.132334
0.132068
0.131759
0.131405
0.131014
0.130583
0.130111
0.129601
0.129055
0.128478
0.127863
0.127213
0.126528
0.125807
0.125046
0.124245
0.1234
0.122576
0.121796
0.121009
0.120215
0.119417
0.118609
0.117795
0.116979
0.116157
0.115328
0.114492
0.113647
0.112795
0.11193
0.111051
0.11016
0.10925
0.108318
0.107368
0.106379
0.133885
0.133862
0.13378
0.133641
0.133455
0.133226
0.132961
0.132663
0.13233
0.131968
0.131571
0.131143
0.130688
0.130208
0.129704
0.12917
0.128609
0.128022
0.127406
0.126761
0.126085
0.125428
0.124806
0.124181
0.123552
0.122924
0.122291
0.121656
0.121021
0.120387
0.119751
0.119113
0.118473
0.11783
0.117181
0.116525
0.115864
0.115191
0.114506
0.113809
0.113092
0.134761
0.134742
0.13467
0.13455
0.134388
0.13419
0.13396
0.133702
0.13342
0.133109
0.132773
0.13241
0.132028
0.131625
0.131202
0.13076
0.130299
0.129815
0.12931
0.128784
0.128236
0.127704
0.1272
0.126697
0.126192
0.12569
0.125187
0.124684
0.124183
0.123684
0.123188
0.122695
0.122203
0.12171
0.121215
0.120718
0.120219
0.119714
0.119203
0.118687
0.118163
0.1355
0.135484
0.135421
0.135317
0.135175
0.135002
0.134802
0.134578
0.134332
0.134064
0.133775
0.133464
0.133137
0.132797
0.13244
0.132068
0.131682
0.131281
0.130866
0.130433
0.129985
0.129549
0.129137
0.128727
0.128319
0.127914
0.127508
0.127105
0.126703
0.126305
0.125911
0.12552
0.125135
0.124751
0.124368
0.123985
0.123603
0.123219
0.122832
0.122443
0.122055
0.136132
0.136118
0.136063
0.135971
0.135847
0.135695
0.13552
0.135324
0.135109
0.134877
0.134626
0.134359
0.134078
0.133786
0.133482
0.133168
0.132841
0.132503
0.132155
0.131796
0.131427
0.131067
0.130727
0.130389
0.130055
0.129723
0.129393
0.129066
0.128742
0.128422
0.128105
0.127793
0.127484
0.12718
0.126878
0.12658
0.126283
0.125987
0.12569
0.125393
0.1251
0.136676
0.136664
0.136615
0.136535
0.136426
0.136293
0.136138
0.135966
0.135777
0.135573
0.135356
0.135124
0.134882
0.134629
0.134367
0.134097
0.133819
0.133534
0.13324
0.132938
0.132629
0.13233
0.132048
0.131768
0.131491
0.131217
0.130946
0.130678
0.130414
0.130154
0.129898
0.129646
0.129398
0.129154
0.128913
0.128675
0.128441
0.12821
0.12798
0.127751
0.127527
0.137148
0.137137
0.137096
0.137025
0.136929
0.136812
0.136676
0.136524
0.136357
0.136178
0.135986
0.135785
0.135573
0.135354
0.135129
0.134897
0.134658
0.134413
0.134164
0.133909
0.133649
0.133396
0.133159
0.132925
0.132694
0.132465
0.132241
0.132019
0.131802
0.131589
0.13138
0.131175
0.130974
0.130777
0.130583
0.130392
0.130206
0.130022
0.12984
0.12966
0.129487
0.13756
0.137552
0.137516
0.137455
0.137371
0.137268
0.137147
0.137012
0.136865
0.136706
0.136537
0.136359
0.136174
0.135984
0.135789
0.135587
0.135382
0.135172
0.134958
0.13474
0.13452
0.134306
0.134105
0.133907
0.133712
0.13352
0.133332
0.133148
0.132968
0.132791
0.132619
0.132451
0.132286
0.132126
0.131969
0.131815
0.131665
0.131517
0.131372
0.131229
0.131093
0.137922
0.137916
0.137887
0.137834
0.137761
0.13767
0.137563
0.137443
0.137312
0.137171
0.137021
0.136863
0.1367
0.136533
0.136361
0.136186
0.136008
0.135826
0.135642
0.135456
0.135268
0.135086
0.134914
0.134746
0.13458
0.134419
0.13426
0.134106
0.133955
0.133808
0.133665
0.133526
0.13339
0.133259
0.13313
0.133005
0.132883
0.132764
0.132647
0.132533
0.132425
0.138242
0.13824
0.138216
0.138171
0.138107
0.138026
0.137932
0.137825
0.137708
0.137582
0.137449
0.137309
0.137164
0.137016
0.136864
0.13671
0.136554
0.136397
0.136238
0.136077
0.135917
0.13576
0.135612
0.135468
0.135327
0.135189
0.135055
0.134925
0.134798
0.134675
0.134555
0.134439
0.134327
0.134218
0.134113
0.13401
0.133911
0.133814
0.133719
0.133627
0.13354
0.138527
0.138528
0.138509
0.138471
0.138415
0.138344
0.138259
0.138164
0.138059
0.137947
0.137828
0.137703
0.137575
0.137443
0.137309
0.137173
0.137036
0.136898
0.136759
0.13662
0.136482
0.136347
0.13622
0.136095
0.135974
0.135856
0.135742
0.135631
0.135524
0.13542
0.135319
0.135222
0.135129
0.135038
0.134951
0.134866
0.134784
0.134705
0.134628
0.134553
0.134484
0.138781
0.138786
0.138772
0.13874
0.138691
0.138627
0.138552
0.138466
0.138373
0.138273
0.138166
0.138055
0.137941
0.137824
0.137705
0.137585
0.137464
0.137342
0.13722
0.137099
0.136979
0.136862
0.136751
0.136644
0.136539
0.136438
0.13634
0.136245
0.136154
0.136066
0.135981
0.135899
0.135821
0.135745
0.135672
0.135602
0.135534
0.135469
0.135406
0.135345
0.135288
0.139008
0.139018
0.139009
0.138981
0.138938
0.138881
0.138814
0.138738
0.138654
0.138565
0.138471
0.138372
0.13827
0.138166
0.13806
0.137954
0.137847
0.137739
0.137632
0.137526
0.137421
0.137319
0.137222
0.137129
0.137038
0.136951
0.136866
0.136785
0.136707
0.136631
0.136559
0.13649
0.136424
0.13636
0.136299
0.13624
0.136184
0.13613
0.136078
0.136028
0.135982
0.139214
0.139227
0.139221
0.139197
0.139159
0.139109
0.13905
0.138983
0.13891
0.138831
0.138748
0.13866
0.13857
0.138477
0.138384
0.138289
0.138194
0.138099
0.138005
0.137911
0.137819
0.13773
0.137645
0.137563
0.137484
0.137408
0.137335
0.137265
0.137197
0.137133
0.137071
0.137012
0.136956
0.136902
0.136851
0.136801
0.136754
0.136709
0.136666
0.136625
0.136588
0.1394
0.139416
0.139412
0.139392
0.139359
0.139317
0.139267
0.139209
0.139146
0.139078
0.139004
0.138927
0.138847
0.138765
0.138682
0.138598
0.138514
0.13843
0.138346
0.138264
0.138183
0.138104
0.13803
0.137958
0.137889
0.137822
0.137759
0.137698
0.137639
0.137584
0.137531
0.13748
0.137432
0.137386
0.137342
0.137301
0.137262
0.137224
0.137188
0.137154
0.137123
0.139568
0.139586
0.139583
0.139567
0.139541
0.139508
0.139468
0.139421
0.139368
0.13931
0.139247
0.13918
0.13911
0.139037
0.138964
0.138889
0.138814
0.13874
0.138666
0.138593
0.138521
0.138452
0.138386
0.138323
0.138262
0.138204
0.138148
0.138094
0.138044
0.137995
0.137949
0.137906
0.137864
0.137825
0.137788
0.137753
0.13772
0.137688
0.137658
0.137629
0.137604
0.139721
0.139738
0.139737
0.139726
0.13971
0.139687
0.139658
0.139623
0.139581
0.139534
0.139482
0.139425
0.139365
0.139302
0.139238
0.139172
0.139105
0.139039
0.138973
0.138908
0.138845
0.138784
0.138725
0.138669
0.138615
0.138564
0.138514
0.138467
0.138423
0.13838
0.13834
0.138303
0.138267
0.138233
0.138201
0.138171
0.138143
0.138116
0.138091
0.138068
0.138047
0.139855
0.13987
0.139872
0.139869
0.139863
0.139852
0.139835
0.139812
0.139785
0.139751
0.139713
0.13967
0.139623
0.139572
0.139519
0.139463
0.139406
0.139348
0.139291
0.139234
0.139178
0.139124
0.139072
0.139022
0.138973
0.138927
0.138884
0.138842
0.138803
0.138766
0.138732
0.138699
0.138669
0.138641
0.138615
0.138591
0.13857
0.13855
0.138531
0.138515
0.138501
0.139962
0.139973
0.139978
0.139982
0.139982
0.139979
0.139973
0.139963
0.139951
0.139935
0.139915
0.139893
0.139868
0.13984
0.139809
0.139776
0.139742
0.139705
0.139667
0.139628
0.13959
0.139551
0.139512
0.139475
0.139438
0.139403
0.139369
0.139337
0.139307
0.139279
0.139253
0.139229
0.139207
0.139187
0.139169
0.139153
0.139138
0.139125
0.139114
0.139104
0.139097
0.140019
0.140027
0.140033
0.140037
0.14004
0.14004
0.140039
0.140037
0.140032
0.140026
0.140018
0.140008
0.139997
0.139985
0.139971
0.139955
0.139939
0.139922
0.139904
0.139885
0.139867
0.139848
0.139828
0.139809
0.139789
0.13977
0.139751
0.139733
0.139716
0.1397
0.139684
0.13967
0.139657
0.139645
0.139635
0.139625
0.139616
0.139609
0.139602
0.139596
0.139593
0.140047
0.140055
0.140061
0.140066
0.14007
0.140073
0.140076
0.140077
0.140077
0.140076
0.140074
0.140071
0.140067
0.140062
0.140056
0.140049
0.140042
0.140034
0.140026
0.140018
0.14001
0.140002
0.139993
0.139984
0.139976
0.139967
0.139959
0.139951
0.139943
0.139936
0.139929
0.139922
0.139916
0.139911
0.139906
0.139901
0.139897
0.139894
0.13989
0.139888
0.139886
0.140062
0.140069
0.140075
0.140081
0.140086
0.140091
0.140095
0.140099
0.140102
0.140105
0.140106
0.140107
0.140108
0.140107
0.140106
0.140105
0.140103
0.1401
0.140097
0.140094
0.140091
0.140088
0.140084
0.140081
0.140077
0.140074
0.14007
0.140067
0.140064
0.140061
0.140058
0.140055
0.140053
0.140051
0.140049
0.140047
0.140045
0.140044
0.140043
0.140042
0.140042
0.140067
0.140074
0.14008
0.140086
0.140092
0.140098
0.140104
0.140109
0.140115
0.14012
0.140124
0.140129
0.140132
0.140135
0.140137
0.140139
0.140141
0.140142
0.140142
0.140142
0.140143
0.140142
0.140142
0.140141
0.14014
0.14014
0.140139
0.140138
0.140137
0.140136
0.140135
0.140135
0.140134
0.140134
0.140133
0.140133
0.140133
0.140133
0.140133
0.140133
0.140133
0.140066
0.140072
0.140078
0.140084
0.14009
0.140097
0.140104
0.140111
0.140118
0.140125
0.140131
0.140138
0.140144
0.140149
0.140154
0.140159
0.140163
0.140166
0.140169
0.140172
0.140175
0.140177
0.140179
0.14018
0.140182
0.140183
0.140184
0.140184
0.140185
0.140186
0.140187
0.140187
0.140188
0.140188
0.140189
0.14019
0.14019
0.140191
0.140192
0.140192
0.140193
0.140059
0.140064
0.140069
0.140075
0.140082
0.140088
0.140096
0.140104
0.140112
0.14012
0.140128
0.140136
0.140143
0.140151
0.140158
0.140165
0.140171
0.140176
0.140182
0.140187
0.140191
0.140195
0.140199
0.140202
0.140205
0.140208
0.140211
0.140213
0.140215
0.140217
0.140219
0.14022
0.140222
0.140223
0.140225
0.140226
0.140227
0.140229
0.14023
0.140231
0.140232
0.140047
0.140051
0.140056
0.140061
0.140067
0.140073
0.14008
0.140088
0.140096
0.140104
0.140113
0.140122
0.140131
0.140139
0.140148
0.140156
0.140164
0.140172
0.140179
0.140186
0.140192
0.140198
0.140203
0.140208
0.140213
0.140217
0.140221
0.140224
0.140228
0.140231
0.140233
0.140236
0.140238
0.14024
0.140242
0.140244
0.140246
0.140247
0.140249
0.14025
0.140252
0.140031
0.140034
0.140037
0.140041
0.140045
0.14005
0.140056
0.140062
0.140069
0.140076
0.140084
0.140092
0.140101
0.14011
0.140119
0.140128
0.140137
0.140146
0.140154
0.140163
0.140171
0.140179
0.140187
0.140194
0.140201
0.140207
0.140213
0.140219
0.140225
0.14023
0.140234
0.140239
0.140243
0.140247
0.14025
0.140253
0.140256
0.140259
0.140262
0.140264
0.140266
0.140011
0.140012
0.140014
0.140015
0.140017
0.140019
0.140021
0.140024
0.140028
0.140031
0.140035
0.14004
0.140045
0.140051
0.140057
0.140064
0.140067
0.14007
0.140074
0.140077
0.140081
0.140085
0.140089
0.140094
0.140099
0.140103
0.140108
0.140113
0.140117
0.140121
0.140126
0.14013
0.140133
0.140137
0.14014
0.140144
0.140147
0.14015
0.140152
0.140155
0.140157
0.00603358
0.00801017
0.00880157
0.0100752
0.0125309
0.0159211
0.0198355
0.0240318
0.0283609
0.032738
0.0371132
0.0414522
0.0457326
0.0499391
0.0540611
0.0580918
0.0620268
0.0658639
0.0696023
0.0732417
0.0767803
0.0802142
0.0835377
0.0867442
0.0898276
0.0927834
0.0956082
0.0983002
0.100859
0.103284
0.105578
0.107744
0.109784
0.111703
0.113508
0.115203
0.116794
0.118288
0.119691
0.121008
0.122243
0.1234
0.124481
0.125492
0.126436
0.127318
0.128143
0.128915
0.129637
0.130315
0.13095
0.131547
0.132108
0.132636
0.133133
0.133603
0.134048
0.134469
0.13487
0.13525
0.135611
0.135952
0.136275
0.136579
0.136867
0.137139
0.137395
0.137635
0.13786
0.138067
0.138257
0.138429
0.138572
0.138749
0.0129105
0.0156039
0.0151298
0.0138843
0.0138394
0.0156854
0.0189052
0.0228186
0.0270415
0.0313851
0.0357616
0.0401184
0.0444262
0.0486666
0.0528266
0.0568986
0.0608778
0.0647613
0.0685485
0.0722388
0.0758306
0.0793198
0.0826996
0.0859627
0.089102
0.0921122
0.0949894
0.0977317
0.100338
0.102809
0.105145
0.107349
0.109425
0.111377
0.113212
0.114934
0.11655
0.118067
0.119491
0.120826
0.122079
0.123252
0.124349
0.125374
0.126332
0.127228
0.128064
0.128848
0.12958
0.130265
0.130908
0.13151
0.132077
0.132609
0.13311
0.133583
0.13403
0.134454
0.134856
0.135237
0.135598
0.13594
0.136264
0.136569
0.136858
0.137131
0.137388
0.137629
0.137855
0.138064
0.138255
0.138428
0.138572
0.138753
0.0201055
0.0245405
0.0242828
0.0216278
0.0188075
0.0176852
0.0189098
0.0218656
0.0257016
0.0298882
0.0342176
0.0385713
0.0429001
0.0471746
0.0513759
0.0554947
0.0595245
0.0634615
0.0673047
0.0710534
0.0747059
0.078258
0.0817022
0.0850303
0.0882343
0.0913078
0.0942466
0.097048
0.0997107
0.102235
0.104621
0.106873
0.108992
0.110985
0.112856
0.114611
0.116258
0.117803
0.119252
0.120611
0.121885
0.123078
0.124193
0.125236
0.126211
0.127121
0.12797
0.128765
0.129507
0.130201
0.130852
0.131461
0.132033
0.132571
0.133077
0.133554
0.134004
0.13443
0.134834
0.135217
0.13558
0.135923
0.136248
0.136555
0.136845
0.137119
0.137377
0.13762
0.137848
0.138058
0.138252
0.138427
0.138573
0.138756
0.0267481
0.0334113
0.0343971
0.0318192
0.0276182
0.0236767
0.0216639
0.022227
0.0248
0.0284444
0.0325569
0.0368243
0.0411408
0.0454363
0.0496747
0.0538421
0.0579275
0.0619245
0.0658313
0.0696465
0.0733682
0.0769921
0.0805104
0.0839137
0.087193
0.0903408
0.093352
0.0962233
0.0989531
0.101541
0.103988
0.106297
0.10847
0.110511
0.112427
0.114224
0.115909
0.117488
0.118968
0.120355
0.121655
0.122871
0.124009
0.125072
0.126064
0.12699
0.127855
0.128662
0.129416
0.130121
0.13078
0.131398
0.131977
0.132521
0.133032
0.133514
0.133968
0.134398
0.134805
0.135191
0.135555
0.135901
0.136227
0.136536
0.136828
0.137104
0.137365
0.137609
0.137839
0.138051
0.138247
0.138424
0.138572
0.138759
0.0329176
0.0418976
0.0445218
0.0429267
0.038792
0.0335586
0.0287847
0.0259494
0.0257428
0.0277471
0.0310767
0.035015
0.0392017
0.0434576
0.047702
0.0519079
0.0560469
0.0601064
0.0640831
0.0679727
0.0717724
0.075478
0.0790809
0.0825711
0.0859381
0.0891733
0.0922701
0.0952245
0.0980344
0.100699
0.103219
0.105597
0.107835
0.109938
0.111909
0.113756
0.115486
0.117107
0.118625
0.120047
0.121377
0.122623
0.123786
0.124872
0.125886
0.126831
0.127713
0.128536
0.129304
0.130021
0.130691
0.131318
0.131906
0.132457
0.132975
0.133463
0.133923
0.134357
0.134768
0.135157
0.135524
0.135872
0.136201
0.136513
0.136807
0.137086
0.137348
0.137596
0.137827
0.138043
0.138241
0.138421
0.138571
0.138763
0.0387032
0.0498214
0.0541257
0.0539721
0.050819
0.0457462
0.0398522
0.0344288
0.0307762
0.0296387
0.030852
0.0336548
0.0373065
0.0413352
0.0455
0.0496959
0.0538597
0.0579686
0.0620145
0.0659818
0.0698661
0.0736628
0.0773615
0.0809512
0.0844202
0.0877578
0.090956
0.0940095
0.0969154
0.0996724
0.102281
0.104743
0.107061
0.109238
0.111278
0.113187
0.114973
0.116644
0.118208
0.119672
0.121041
0.12232
0.123515
0.12463
0.125669
0.126638
0.12754
0.128381
0.129166
0.129898
0.130581
0.13122
0.131818
0.132378
0.132904
0.133399
0.133865
0.134305
0.134721
0.135114
0.135486
0.135837
0.136169
0.136484
0.136782
0.137063
0.137329
0.137579
0.137813
0.138031
0.138232
0.138416
0.138569
0.138766
0.0441245
0.0568526
0.062724
0.0642276
0.0625791
0.0586035
0.0530589
0.0468021
0.0408829
0.0364188
0.0342077
0.0343578
0.0363622
0.0395173
0.0432655
0.047282
0.0513922
0.0555125
0.0596038
0.0636326
0.0675975
0.0714901
0.0752921
0.0789931
0.0825789
0.0860357
0.0893536
0.0925253
0.0955464
0.0984149
0.10113
0.103694
0.106109
0.108378
0.110503
0.112489
0.114345
0.116079
0.1177
0.119215
0.120631
0.121953
0.123186
0.124335
0.125405
0.126402
0.12733
0.128193
0.128998
0.129747
0.130447
0.131099
0.13171
0.132281
0.132817
0.133321
0.133795
0.134242
0.134664
0.135062
0.135439
0.135794
0.136131
0.136449
0.13675
0.137035
0.137305
0.137558
0.137796
0.138018
0.138222
0.138409
0.138565
0.138769
0.0490515
0.0625495
0.0697924
0.0729926
0.0731185
0.0707897
0.0665499
0.0609364
0.0545991
0.0483645
0.0431692
0.0398136
0.0386598
0.0395235
0.0418678
0.0451204
0.0488549
0.0528143
0.056862
0.0609167
0.0649434
0.0689186
0.0728147
0.0766319
0.0803459
0.0839372
0.0873941
0.0907054
0.0938642
0.096867
0.099712
0.1024
0.104933
0.107315
0.109546
0.111629
0.113572
0.115385
0.117077
0.118656
0.120129
0.121503
0.122784
0.123976
0.125084
0.126115
0.127074
0.127965
0.128793
0.129565
0.130283
0.130953
0.131578
0.132164
0.132712
0.133226
0.133709
0.134165
0.134594
0.134999
0.135382
0.135743
0.136084
0.136407
0.136713
0.137002
0.137276
0.137533
0.137775
0.138001
0.138209
0.1384
0.138559
0.13877
0.0550451
0.0665389
0.0747678
0.0795374
0.0814904
0.0810777
0.0787139
0.0746963
0.0693875
0.0632709
0.0569744
0.0512455
0.046827
0.044248
0.0436482
0.04478
0.0471817
0.0503876
0.0540474
0.0579339
0.0619174
0.065924
0.0699007
0.0738236
0.0776587
0.0813875
0.0849988
0.0884698
0.0917902
0.0949534
0.097955
0.100794
0.103471
0.105991
0.108354
0.11056
0.112613
0.114526
0.116307
0.117966
0.119512
0.120952
0.122291
0.123535
0.124692
0.125765
0.126761
0.127686
0.128545
0.129343
0.130085
0.130775
0.13142
0.132021
0.132584
0.133111
0.133606
0.134072
0.13451
0.134923
0.135313
0.135681
0.136029
0.136357
0.136668
0.136963
0.137241
0.137503
0.13775
0.13798
0.138192
0.138388
0.138551
0.138771
0.0624969
0.0690968
0.0773123
0.0832314
0.0867867
0.0882568
0.0880465
0.0861676
0.0827836
0.0781514
0.0726068
0.0665911
0.0606664
0.0554653
0.0515686
0.0493536
0.0488957
0.0499864
0.0522565
0.0553178
0.0588567
0.0626583
0.066581
0.0705402
0.0744726
0.078336
0.0821014
0.0857348
0.089234
0.0925835
0.0957701
0.0987903
0.101644
0.104332
0.106857
0.109217
0.111413
0.113452
0.115347
0.117109
0.118747
0.120268
0.121682
0.122993
0.124209
0.125335
0.126379
0.127346
0.128242
0.129073
0.129844
0.13056
0.131227
0.131849
0.13243
0.132973
0.133482
0.13396
0.13441
0.134833
0.135232
0.135608
0.135963
0.136298
0.136615
0.136916
0.137199
0.137467
0.137719
0.137954
0.138172
0.138373
0.138541
0.138769
0.0720268
0.0754009
0.0784155
0.0842671
0.0885614
0.0913121
0.0932116
0.0936001
0.0925552
0.0901969
0.0866384
0.0820543
0.0767384
0.0710911
0.0655988
0.060785
0.0571239
0.0549363
0.0543182
0.0551417
0.0571283
0.059953
0.0633222
0.0670116
0.0708616
0.0747624
0.0786405
0.0824372
0.0861224
0.0896689
0.093057
0.096287
0.0993501
0.102243
0.104966
0.107518
0.109893
0.112096
0.114138
0.116031
0.117787
0.119414
0.120922
0.122318
0.12361
0.124804
0.125907
0.126927
0.12787
0.128742
0.12955
0.130299
0.130994
0.131641
0.132243
0.132806
0.133333
0.133826
0.13429
0.134725
0.135135
0.13552
0.135884
0.136228
0.136553
0.13686
0.13715
0.137424
0.137682
0.137924
0.138147
0.138355
0.138527
0.138765
0.0760387
0.079779
0.0830322
0.0860729
0.0881995
0.0903629
0.0937353
0.0957855
0.0968582
0.0969938
0.0960086
0.0938287
0.0905941
0.0864781
0.0817064
0.0765902
0.0715281
0.0669665
0.0633299
0.0609392
0.0599485
0.0603261
0.0618884
0.0643702
0.0674947
0.0710207
0.0747629
0.0785837
0.0823907
0.08612
0.0897264
0.0931872
0.0964847
0.0996121
0.10257
0.105353
0.107951
0.110362
0.112594
0.114658
0.116567
0.118332
0.119963
0.121469
0.122858
0.124139
0.12532
0.126408
0.127411
0.128336
0.129189
0.129979
0.13071
0.131388
0.132018
0.132605
0.133153
0.133666
0.134146
0.134596
0.135019
0.135417
0.135791
0.136145
0.136478
0.136794
0.137092
0.137373
0.137638
0.137886
0.138117
0.138331
0.138509
0.138759
0.0729242
0.0773617
0.0814356
0.0850584
0.0880045
0.0903933
0.0924305
0.0937889
0.0954034
0.097388
0.0986518
0.0988272
0.0982698
0.096857
0.0944929
0.0912169
0.0872028
0.0827198
0.0781091
0.0737591
0.070063
0.0673589
0.0658697
0.0656658
0.0666661
0.068676
0.0714461
0.074726
0.078302
0.0820099
0.085731
0.0893866
0.0929248
0.0963146
0.0995406
0.102591
0.105455
0.108124
0.110598
0.112885
0.114995
0.11694
0.118733
0.120383
0.121901
0.123297
0.124578
0.125755
0.126836
0.127829
0.128743
0.129584
0.13036
0.131078
0.131743
0.132361
0.132936
0.133472
0.133973
0.134441
0.134881
0.135293
0.135681
0.136046
0.13639
0.136715
0.137023
0.137313
0.137586
0.137842
0.13808
0.138302
0.138487
0.138748
0.061191
0.0661373
0.0710487
0.0758018
0.0802303
0.0842342
0.087759
0.0907002
0.0931143
0.094986
0.096082
0.0961018
0.0978119
0.099218
0.0997472
0.0992685
0.0978693
0.0956094
0.0925705
0.0889136
0.0848978
0.0808571
0.077161
0.074164
0.0721514
0.0712918
0.0716127
0.0730101
0.0752862
0.0782031
0.0815296
0.0850717
0.0886828
0.0922609
0.0957403
0.0990783
0.102245
0.10522
0.107993
0.110563
0.112936
0.115121
0.117129
0.118973
0.120663
0.12221
0.123627
0.124922
0.126106
0.127189
0.128181
0.129091
0.129926
0.130696
0.131405
0.132062
0.132671
0.133237
0.133764
0.134255
0.134715
0.135145
0.135549
0.135928
0.136286
0.136623
0.136941
0.137241
0.137524
0.137789
0.138036
0.138267
0.138459
0.138733
0.0476839
0.0505023
0.0537914
0.0576137
0.0619698
0.0668031
0.0719846
0.0772887
0.0824225
0.087058
0.0908484
0.0935372
0.095588
0.0971028
0.0980212
0.098608
0.0995156
0.100132
0.10001
0.0989842
0.0971025
0.0944825
0.091302
0.0878133
0.0843348
0.0812155
0.0787828
0.0772898
0.0768735
0.0775388
0.0791723
0.0815808
0.08454
0.0878366
0.0912942
0.0947801
0.0981991
0.101485
0.104595
0.107506
0.110209
0.112705
0.115
0.117103
0.119026
0.120781
0.12238
0.123836
0.125161
0.126366
0.127464
0.128465
0.129379
0.130216
0.130985
0.131692
0.132344
0.132948
0.133509
0.13403
0.134515
0.134968
0.135391
0.135788
0.136161
0.136513
0.136843
0.137155
0.137449
0.137725
0.137982
0.138223
0.138424
0.138714
0.0466079
0.0472488
0.0481788
0.049419
0.0510286
0.0530835
0.0556691
0.0588671
0.0627314
0.067252
0.0723081
0.0776379
0.0829156
0.0877834
0.0918874
0.0950285
0.0973091
0.098813
0.0995461
0.0999039
0.100367
0.100524
0.100013
0.0987039
0.0966591
0.0940505
0.0911281
0.0882006
0.0856004
0.0836343
0.0825344
0.0824213
0.0832934
0.0850416
0.0874864
0.0904206
0.0936448
0.0969889
0.100321
0.103548
0.106611
0.109478
0.112135
0.114579
0.116817
0.118856
0.120709
0.122388
0.123908