/*--------------------------------*- C++ -*----------------------------------*\
| =========                 |                                                 |
| \\      /  F ield         | OpenFOAM: The Open Source CFD Toolbox           |
|  \\    /   O peration     | Version:  5.x                                   |
|   \\  /    A nd           | Web:      www.OpenFOAM.org                      |
|    \\/     M anipulation  |                                                 |
\*---------------------------------------------------------------------------*/
FoamFile
{
    version     2.0;
    format      ascii;
    class       volScalarField;
    location    "250";
    object      nuTilda;
}
// * * * * * * * * * * * * * * * * * * * * * * * * * * * * * * * * * * * * * //

dimensions      [0 2 -1 0 0 0 0];

internalField   nonuniform List<scalar> 
11040
(
0.00180842
0.00196054
0.00236335
0.00268003
0.00282454
0.00286688
0.00285436
0.00280843
0.00273297
0.00262963
0.0024769
0.0023478
0.00226582
0.00220722
0.00214356
0.00207852
0.00201406
0.00195299
0.00189841
0.00185015
0.00180529
0.00176714
0.001734
0.0017029
0.00167368
0.00164587
0.00161892
0.0015925
0.00156634
0.00154013
0.00151339
0.00148553
0.00145581
0.00142338
0.00138674
0.00134428
0.00129318
0.00123035
0.00114291
0.00103874
0.000782622
0.00816656
0.00857691
0.0079539
0.0072806
0.00657393
0.00590583
0.00530346
0.0047645
0.00428998
0.00388085
0.00348287
0.00333629
0.00327912
0.00314932
0.00298374
0.00282487
0.00268682
0.00256822
0.00248357
0.00242873
0.0023876
0.0023507
0.00231786
0.00228961
0.00226684
0.00224757
0.00223022
0.0022147
0.00220158
0.00219102
0.0021828
0.00217668
0.00217263
0.00217068
0.00217094
0.00217333
0.002178
0.0021828
0.00218845
0.00218145
0.00211239
0.016396
0.0170019
0.0162609
0.015187
0.0139386
0.0126684
0.0114557
0.0103223
0.00927879
0.00830373
0.00732964
0.00648656
0.00583946
0.00534494
0.00491014
0.00452784
0.00418931
0.00390333
0.00375981
0.00369319
0.00363733
0.00358203
0.00354256
0.00352039
0.00350923
0.00350056
0.00349211
0.00348609
0.00348405
0.00348515
0.00348774
0.00349071
0.00349354
0.00349558
0.00349544
0.0034914
0.00348257
0.00346157
0.0034332
0.00336593
0.00321946
0.0257835
0.026519
0.0257683
0.0243979
0.022706
0.020887
0.0190673
0.017292
0.0156179
0.0140457
0.0124807
0.0110855
0.0099734
0.00909646
0.0083285
0.00765845
0.00707308
0.00655597
0.00610361
0.00571146
0.00536711
0.00511472
0.00500135
0.00495072
0.00491408
0.00487337
0.00483943
0.00482121
0.00481613
0.00481695
0.00482011
0.00482539
0.00483262
0.00484023
0.00484555
0.00484534
0.0048371
0.00480972
0.00476392
0.00466157
0.00440079
0.0359166
0.0367386
0.0360628
0.0345486
0.0325643
0.0302953
0.0279183
0.0254848
0.0231458
0.0209273
0.0187286
0.0167455
0.0151516
0.0138828
0.0127587
0.0117671
0.0109016
0.0101312
0.0094363
0.00880941
0.00824501
0.00778777
0.00742826
0.0071154
0.00684005
0.00660569
0.00646735
0.00640149
0.0063615
0.00632444
0.00629484
0.00627804
0.00627082
0.00626711
0.00626246
0.00625308
0.00623564
0.00619765
0.00613566
0.00602041
0.00569066
0.0464463
0.0473159
0.0467558
0.0452353
0.0431138
0.0405
0.037642
0.0347175
0.0318476
0.0290564
0.0262352
0.0236121
0.0214242
0.0196678
0.0181567
0.0168373
0.0156966
0.0146469
0.0136825
0.0128073
0.0120162
0.0113675
0.0108336
0.0103465
0.00990515
0.00950416
0.00914432
0.00882566
0.00854205
0.00830174
0.00815408
0.00807396
0.00801675
0.00796451
0.00791706
0.00787071
0.00781905
0.00774712
0.00764738
0.00750223
0.00711766
0.0570554
0.0579236
0.0574908
0.056067
0.053929
0.0512317
0.0482161
0.0450385
0.0418255
0.0386108
0.0352814
0.0320831
0.0293091
0.0269964
0.0249639
0.0231621
0.0215696
0.0201544
0.0188897
0.0177596
0.0167353
0.0158754
0.0151312
0.0144604
0.013864
0.0133177
0.0128132
0.0123464
0.011913
0.0115086
0.0111354
0.0107941
0.0104794
0.0102319
0.0100684
0.00993929
0.00981349
0.00967025
0.00949682
0.00928254
0.00880808
0.0674124
0.0682589
0.0679456
0.0666823
0.0646745
0.0621082
0.0591692
0.0559783
0.0526513
0.0492229
0.045586
0.0419775
0.038721
0.0358966
0.0333501
0.031045
0.0289656
0.0270919
0.0254031
0.0238812
0.0225129
0.0213677
0.0204104
0.0195451
0.0187628
0.0180514
0.0173991
0.0167958
0.0162335
0.0157045
0.0152021
0.0147206
0.0142534
0.0137984
0.0133555
0.0129256
0.0125655
0.0122628
0.0119576
0.0116245
0.0110031
0.0772886
0.0780626
0.0778411
0.0767658
0.0749913
0.0726899
0.0699962
0.0669931
0.0637718
0.0603531
0.0566446
0.0528486
0.049288
0.0460793
0.0431169
0.0403788
0.037858
0.0355443
0.0334242
0.0314841
0.0297136
0.0282439
0.0270399
0.0259506
0.024959
0.0240517
0.0232162
0.0224417
0.0217183
0.0210369
0.0203888
0.0197656
0.0191591
0.0185601
0.0179569
0.0173399
0.0167097
0.016055
0.0154076
0.0148372
0.0140079
0.0864352
0.0871112
0.0869573
0.0860717
0.0845721
0.0826019
0.0802537
0.0775728
0.074625
0.071393
0.0678205
0.0640667
0.0604211
0.0570283
0.0538509
0.0508357
0.0479914
0.0453288
0.0428443
0.0405315
0.0383838
0.0365928
0.0351284
0.0337978
0.0325799
0.0314594
0.0304229
0.0294583
0.0285547
0.0277016
0.0268893
0.0261079
0.0253479
0.0245988
0.0238458
0.0230775
0.0222831
0.021438
0.020525
0.0195791
0.0183653
0.0946859
0.0952586
0.0951525
0.0944408
0.0932141
0.0915862
0.0896191
0.087313
0.0847224
0.081858
0.0786418
0.0751802
0.0717034
0.0683433
0.0650799
0.0619351
0.0589256
0.0560784
0.0533625
0.0507821
0.0483428
0.0462843
0.044584
0.0430251
0.0415879
0.0402585
0.0390231
0.0378688
0.0367835
0.0357561
0.0347758
0.0338321
0.0329146
0.0320117
0.0311072
0.0301897
0.0292482
0.0282574
0.0271896
0.026074
0.0245227
0.101968
0.102441
0.102366
0.101803
0.100821
0.0995108
0.0979132
0.0960084
0.093846
0.0914285
0.0886857
0.0856809
0.0825791
0.0794812
0.0763763
0.0733003
0.0702833
0.0673531
0.0645266
0.0618143
0.059228
0.0570078
0.0551273
0.0533832
0.0517664
0.0502701
0.0488704
0.0475537
0.0463091
0.0451261
0.0439943
0.0429029
0.0418419
0.0407994
0.0397578
0.0387064
0.0376346
0.0365182
0.0353314
0.0341072
0.0324463
0.108284
0.108662
0.108604
0.108163
0.10739
0.106354
0.105084
0.103556
0.101813
0.0998516
0.0976137
0.0951312
0.0924983
0.089801
0.0870406
0.0842584
0.0814605
0.0786723
0.0759177
0.0732169
0.0705863
0.0682916
0.066333
0.0645011
0.0627845
0.0611739
0.0596585
0.0582276
0.0568704
0.0555763
0.0543349
0.0531351
0.0519736
0.0508312
0.0496897
0.04854
0.0473738
0.0461682
0.0449021
0.0436037
0.0419232
0.113688
0.113974
0.113927
0.113584
0.112982
0.112172
0.111176
0.109973
0.108598
0.107048
0.105275
0.10328
0.101152
0.0989339
0.0966214
0.0942368
0.0917992
0.089342
0.086861
0.084372
0.0818929
0.079686
0.077772
0.0759605
0.0742435
0.0726152
0.0710686
0.0695962
0.0681901
0.0668418
0.0655427
0.0642838
0.0630566
0.0618508
0.0606503
0.0594472
0.0582343
0.0569901
0.0556976
0.0543773
0.0527417
0.118236
0.118461
0.118426
0.118161
0.117699
0.117068
0.11629
0.115351
0.114279
0.113072
0.111683
0.110132
0.10847
0.10672
0.104873
0.102942
0.100937
0.0988718
0.0967586
0.0946102
0.0924493
0.0904889
0.0887473
0.0870738
0.0854686
0.0839388
0.0824713
0.0810602
0.0797006
0.078387
0.0771134
0.0758735
0.0746606
0.0734665
0.0722772
0.0710874
0.0698922
0.0686729
0.0674168
0.0661373
0.0646125
0.12206
0.122234
0.122207
0.122002
0.121653
0.121158
0.120548
0.119817
0.118986
0.118055
0.116987
0.115799
0.114525
0.113177
0.111736
0.11022
0.108647
0.10701
0.105316
0.10357
0.10178
0.100132
0.098652
0.0972164
0.095825
0.0944778
0.0931737
0.0919104
0.0906851
0.0894943
0.0883334
0.0872042
0.0860957
0.0850007
0.0839079
0.0828143
0.0817174
0.0806016
0.0794584
0.0782956
0.0769554
0.125262
0.125398
0.125376
0.125216
0.124942
0.124556
0.124081
0.123516
0.122874
0.122156
0.121338
0.120434
0.119466
0.118434
0.117337
0.116181
0.11497
0.113707
0.112404
0.111054
0.109658
0.108355
0.107171
0.106012
0.104881
0.103775
0.102697
0.101645
0.100617
0.0996126
0.0986286
0.0976626
0.0967117
0.0957719
0.0948345
0.0938979
0.0929608
0.092011
0.0910427
0.0900599
0.0889605
0.12782
0.127929
0.127913
0.127786
0.127567
0.127263
0.126887
0.126449
0.125942
0.125378
0.124742
0.124044
0.1233
0.122506
0.121665
0.120781
0.119855
0.118889
0.117884
0.116842
0.115764
0.114751
0.113825
0.112915
0.112023
0.11115
0.110294
0.109462
0.108647
0.107848
0.107062
0.106289
0.105526
0.104771
0.104018
0.103267
0.102517
0.101759
0.10099
0.100211
0.099362
0.129789
0.129879
0.129866
0.129763
0.129584
0.129343
0.129037
0.12868
0.128273
0.127822
0.127322
0.126769
0.126182
0.125559
0.124901
0.124212
0.123492
0.122743
0.121965
0.121159
0.120326
0.119538
0.118814
0.118102
0.117404
0.11672
0.116049
0.115392
0.114748
0.114116
0.1135
0.112895
0.112298
0.111709
0.111122
0.110538
0.109957
0.109372
0.108781
0.108185
0.10755
0.131335
0.13141
0.131399
0.131313
0.131165
0.130963
0.130711
0.130417
0.130088
0.129718
0.12931
0.128864
0.128391
0.127896
0.127371
0.126822
0.126251
0.12566
0.125048
0.124415
0.123764
0.123146
0.122576
0.122017
0.121468
0.120931
0.120404
0.119888
0.119384
0.118889
0.118404
0.117928
0.117461
0.117004
0.116551
0.116102
0.115657
0.115211
0.114762
0.114313
0.113843
0.132578
0.132641
0.132632
0.132559
0.132433
0.132262
0.132054
0.131808
0.131531
0.131224
0.130886
0.130522
0.130135
0.12973
0.129303
0.128858
0.128398
0.127923
0.127434
0.126931
0.126414
0.125924
0.125471
0.125027
0.124592
0.124167
0.123748
0.123337
0.12294
0.122551
0.122172
0.121801
0.121437
0.121082
0.120732
0.120387
0.120047
0.119708
0.119368
0.11903
0.118683
0.133597
0.133651
0.133643
0.13358
0.133472
0.133325
0.133146
0.13294
0.132706
0.132449
0.132165
0.13186
0.131537
0.131201
0.130851
0.130487
0.13011
0.129724
0.129327
0.128921
0.128506
0.128112
0.127748
0.127391
0.12704
0.1267
0.126365
0.126038
0.125719
0.125412
0.125113
0.124822
0.124538
0.124262
0.123991
0.123724
0.123463
0.123204
0.122946
0.122691
0.122434
0.134445
0.134491
0.134484
0.134429
0.134335
0.134208
0.134053
0.133875
0.133677
0.133457
0.133217
0.132959
0.132688
0.132406
0.132113
0.131812
0.131503
0.131184
0.130858
0.130526
0.130188
0.129867
0.129571
0.129282
0.128997
0.128723
0.128454
0.12819
0.127935
0.127687
0.127449
0.127221
0.126999
0.126782
0.126571
0.126364
0.126162
0.125962
0.125765
0.125571
0.125379
0.13516
0.1352
0.135193
0.135145
0.135063
0.134952
0.134817
0.134662
0.13449
0.1343
0.134094
0.133873
0.133643
0.133406
0.133159
0.132905
0.132647
0.132383
0.132115
0.13184
0.131563
0.131299
0.131055
0.130818
0.130587
0.130364
0.130145
0.129931
0.129724
0.129524
0.129331
0.129146
0.128969
0.128798
0.128632
0.12847
0.128312
0.128158
0.128007
0.12786
0.127717
0.13577
0.135804
0.135797
0.135755
0.135683
0.135585
0.135467
0.135331
0.13518
0.135017
0.134839
0.13465
0.134453
0.134249
0.134039
0.133826
0.133607
0.133384
0.133159
0.132932
0.132704
0.132485
0.132282
0.132085
0.131895
0.13171
0.13153
0.131355
0.131186
0.131024
0.130867
0.130717
0.130573
0.130435
0.130303
0.130176
0.130054
0.129935
0.129818
0.129705
0.129597
0.136295
0.136323
0.136317
0.13628
0.136216
0.13613
0.136026
0.135906
0.135773
0.13563
0.135476
0.135312
0.135142
0.134966
0.134786
0.134603
0.134418
0.134231
0.13404
0.133849
0.133658
0.133475
0.133308
0.133144
0.132985
0.132831
0.132682
0.132538
0.132399
0.132266
0.132138
0.132015
0.131898
0.131786
0.131679
0.131577
0.131479
0.131386
0.131296
0.131209
0.131127
0.13675
0.136774
0.136769
0.136735
0.136679
0.136602
0.13651
0.136404
0.136287
0.13616
0.136025
0.135883
0.135735
0.135583
0.135429
0.135272
0.135113
0.134952
0.134791
0.13463
0.134468
0.134314
0.134172
0.134035
0.133902
0.133773
0.133649
0.133529
0.133414
0.133304
0.133198
0.133098
0.133002
0.132911
0.132823
0.13274
0.132662
0.132586
0.132515
0.132446
0.132383
0.137147
0.137168
0.137163
0.137133
0.137083
0.137015
0.136933
0.136838
0.136734
0.136622
0.136503
0.136377
0.136248
0.136117
0.135984
0.135847
0.13571
0.135573
0.135434
0.135296
0.13516
0.13503
0.134909
0.134793
0.13468
0.134571
0.134467
0.134366
0.13427
0.134179
0.134091
0.134008
0.133929
0.133854
0.133783
0.133715
0.133651
0.13359
0.133533
0.133478
0.133428
0.137495
0.137513
0.137509
0.137483
0.137438
0.137377
0.137304
0.13722
0.137127
0.137028
0.136922
0.136811
0.136697
0.136581
0.136464
0.136345
0.136227
0.136108
0.135989
0.135872
0.135755
0.135644
0.13554
0.135441
0.135345
0.135253
0.135164
0.13508
0.134999
0.134922
0.134849
0.13478
0.134715
0.134653
0.134595
0.134539
0.134487
0.134438
0.134391
0.134347
0.134307
0.137803
0.137819
0.137815
0.137792
0.137751
0.137697
0.137632
0.137557
0.137474
0.137385
0.137291
0.137193
0.137092
0.136989
0.136886
0.136782
0.136678
0.136575
0.136473
0.136371
0.136272
0.136176
0.136087
0.136001
0.135919
0.135841
0.135765
0.135694
0.135626
0.135561
0.1355
0.135442
0.135388
0.135337
0.135288
0.135243
0.1352
0.13516
0.135122
0.135086
0.135055
0.138075
0.13809
0.138086
0.138066
0.13803
0.137982
0.137923
0.137856
0.137782
0.137702
0.137618
0.137531
0.137441
0.13735
0.137259
0.137167
0.137076
0.136985
0.136896
0.136808
0.136723
0.136641
0.136564
0.13649
0.136419
0.136352
0.136287
0.136226
0.136169
0.136114
0.136062
0.136014
0.135968
0.135926
0.135886
0.135848
0.135813
0.13578
0.135749
0.13572
0.135695
0.138318
0.138331
0.138328
0.13831
0.138278
0.138235
0.138182
0.138122
0.138056
0.137985
0.13791
0.137832
0.137752
0.137671
0.13759
0.137509
0.137429
0.137349
0.137271
0.137194
0.13712
0.137049
0.136982
0.136918
0.136857
0.136799
0.136744
0.136692
0.136642
0.136596
0.136552
0.136512
0.136473
0.136438
0.136404
0.136373
0.136344
0.136317
0.136292
0.136269
0.136249
0.138535
0.138547
0.138545
0.138528
0.1385
0.138461
0.138414
0.13836
0.138301
0.138238
0.138171
0.138101
0.13803
0.137958
0.137886
0.137814
0.137743
0.137673
0.137604
0.137537
0.137473
0.13741
0.137352
0.137297
0.137244
0.137194
0.137146
0.137101
0.137059
0.13702
0.136983
0.136948
0.136916
0.136886
0.136858
0.136832
0.136808
0.136786
0.136766
0.136747
0.136731
0.138729
0.13874
0.138739
0.138724
0.138699
0.138665
0.138623
0.138574
0.138521
0.138465
0.138405
0.138343
0.138279
0.138215
0.138151
0.138088
0.138025
0.137963
0.137903
0.137844
0.137787
0.137733
0.137682
0.137634
0.137588
0.137544
0.137503
0.137465
0.137429
0.137395
0.137363
0.137334
0.137307
0.137281
0.137258
0.137236
0.137217
0.137198
0.137181
0.137166
0.137153
0.138904
0.138914
0.138913
0.138901
0.138878
0.138848
0.13881
0.138767
0.13872
0.138669
0.138616
0.13856
0.138504
0.138447
0.13839
0.138334
0.138278
0.138223
0.13817
0.138119
0.138069
0.138021
0.137977
0.137935
0.137895
0.137857
0.137822
0.137788
0.137757
0.137728
0.137701
0.137676
0.137653
0.137632
0.137612
0.137594
0.137578
0.137562
0.137548
0.137536
0.137526
0.139061
0.139071
0.139071
0.13906
0.13904
0.139013
0.13898
0.138941
0.138899
0.138854
0.138806
0.138757
0.138707
0.138657
0.138606
0.138556
0.138507
0.138459
0.138412
0.138366
0.138323
0.138281
0.138242
0.138206
0.138171
0.138138
0.138107
0.138078
0.138052
0.138027
0.138004
0.137982
0.137962
0.137944
0.137928
0.137913
0.137899
0.137886
0.137875
0.137864
0.137856
0.139203
0.139212
0.139213
0.139204
0.139187
0.139163
0.139133
0.139099
0.139062
0.139022
0.13898
0.138936
0.138892
0.138847
0.138802
0.138758
0.138714
0.138672
0.138631
0.138591
0.138553
0.138517
0.138483
0.13845
0.13842
0.138391
0.138365
0.13834
0.138316
0.138295
0.138275
0.138257
0.13824
0.138224
0.13821
0.138198
0.138186
0.138175
0.138166
0.138157
0.138151
0.139331
0.13934
0.139341
0.139334
0.139319
0.139299
0.139273
0.139243
0.13921
0.139175
0.139138
0.139099
0.13906
0.139021
0.138981
0.138942
0.138904
0.138866
0.13883
0.138795
0.138762
0.13873
0.1387
0.138672
0.138645
0.138621
0.138597
0.138576
0.138556
0.138537
0.13852
0.138504
0.13849
0.138477
0.138465
0.138454
0.138444
0.138435
0.138428
0.138421
0.138415
0.139447
0.139456
0.139458
0.139452
0.13944
0.139422
0.1394
0.139375
0.139346
0.139315
0.139283
0.139249
0.139215
0.13918
0.139145
0.139111
0.139077
0.139044
0.139013
0.138982
0.138953
0.138925
0.138899
0.138875
0.138852
0.13883
0.13881
0.138791
0.138773
0.138757
0.138743
0.138729
0.138717
0.138706
0.138695
0.138686
0.138678
0.138671
0.138664
0.138659
0.138654
0.139552
0.139561
0.139564
0.13956
0.13955
0.139535
0.139517
0.139495
0.139471
0.139444
0.139416
0.139387
0.139357
0.139327
0.139297
0.139267
0.139237
0.139209
0.139181
0.139154
0.139129
0.139105
0.139082
0.139061
0.139041
0.139022
0.139005
0.138988
0.138973
0.138959
0.138947
0.138935
0.138924
0.138915
0.138906
0.138899
0.138892
0.138886
0.13888
0.138875
0.138872
0.139647
0.139657
0.13966
0.139658
0.13965
0.139639
0.139624
0.139606
0.139586
0.139564
0.13954
0.139515
0.13949
0.139464
0.139438
0.139412
0.139387
0.139362
0.139338
0.139315
0.139293
0.139272
0.139253
0.139234
0.139217
0.139201
0.139186
0.139172
0.139159
0.139147
0.139136
0.139126
0.139117
0.139109
0.139102
0.139095
0.139089
0.139084
0.13908
0.139076
0.139074
0.139733
0.139743
0.139747
0.139747
0.139742
0.139734
0.139723
0.139709
0.139693
0.139675
0.139656
0.139636
0.139614
0.139593
0.139571
0.13955
0.139528
0.139507
0.139487
0.139468
0.13945
0.139432
0.139415
0.1394
0.139385
0.139371
0.139358
0.139346
0.139335
0.139325
0.139316
0.139308
0.139301
0.139294
0.139288
0.139283
0.139279
0.139275
0.139272
0.139269
0.139268
0.139811
0.139821
0.139826
0.139828
0.139826
0.139821
0.139813
0.139804
0.139792
0.139779
0.139764
0.139749
0.139733
0.139716
0.139699
0.139682
0.139665
0.139649
0.139633
0.139617
0.139603
0.139589
0.139576
0.139563
0.139551
0.139541
0.13953
0.139521
0.139513
0.139505
0.139498
0.139492
0.139487
0.139482
0.139478
0.139475
0.139473
0.139471
0.13947
0.139469
0.139469
0.13988
0.13989
0.139896
0.139899
0.139899
0.139897
0.139894
0.139888
0.139881
0.139873
0.139863
0.139853
0.139843
0.139832
0.13982
0.139809
0.139798
0.139787
0.139776
0.139766
0.139756
0.139747
0.139738
0.13973
0.139723
0.139716
0.13971
0.139704
0.139699
0.139694
0.13969
0.139687
0.139684
0.139682
0.13968
0.139679
0.139678
0.139678
0.139678
0.139678
0.13968
0.139938
0.139945
0.13995
0.139952
0.139953
0.139952
0.139951
0.139948
0.139944
0.13994
0.139936
0.139931
0.139925
0.139919
0.139913
0.139907
0.139901
0.139895
0.13989
0.139884
0.139879
0.139874
0.139869
0.139864
0.13986
0.139856
0.139853
0.13985
0.139847
0.139844
0.139842
0.13984
0.139838
0.139837
0.139835
0.139834
0.139834
0.139833
0.139833
0.139833
0.139833
0.139973
0.139976
0.139978
0.139979
0.139979
0.139979
0.139978
0.139977
0.139975
0.139973
0.13997
0.139967
0.139964
0.139961
0.139958
0.139954
0.13995
0.139946
0.139943
0.139939
0.139935
0.139932
0.139929
0.139926
0.139923
0.13992
0.139917
0.139915
0.139913
0.139911
0.139909
0.139907
0.139905
0.139903
0.139902
0.139901
0.1399
0.139899
0.139898
0.139897
0.139896
0.139989
0.139991
0.139992
0.139993
0.139993
0.139993
0.139992
0.139992
0.139991
0.13999
0.139989
0.139987
0.139985
0.139983
0.139981
0.139978
0.139975
0.139972
0.139968
0.139965
0.139961
0.139957
0.139952
0.139948
0.139944
0.13994
0.139936
0.139932
0.139928
0.139925
0.139922
0.139919
0.139917
0.139914
0.139912
0.139911
0.139909
0.139907
0.139906
0.139904
0.139903
0.139998
0.139998
0.139999
0.139999
0.139999
0.139999
0.139999
0.139999
0.139999
0.139998
0.139998
0.139997
0.139996
0.139995
0.139994
0.139992
0.13999
0.139988
0.139984
0.13998
0.139974
0.139967
0.139958
0.139949
0.139941
0.139933
0.139926
0.13992
0.139913
0.139907
0.139902
0.139896
0.139892
0.139887
0.139882
0.139878
0.139874
0.139871
0.139868
0.139865
0.139862
0.00194692
0.0028145
0.00349091
0.0040794
0.00462918
0.00515856
0.0056785
0.00619979
0.00673132
0.00728559
0.00787437
0.00850631
0.00918749
0.00992272
0.0107149
0.0115677
0.0124846
0.0134677
0.0145173
0.0156324
0.0168114
0.0180525
0.0193543
0.0207144
0.0221301
0.0235983
0.0251157
0.0266796
0.0282872
0.0299354
0.0316211
0.0333412
0.035093
0.0368738
0.038681
0.0405119
0.0423639
0.0442345
0.0461215
0.0480227
0.0499359
0.0518591
0.0537903
0.0557274
0.0576676
0.0596079
0.0615474
0.0634917
0.0654569
0.0674691
0.069558
0.0717441
0.074029
0.0763912
0.0787931
0.0811918
0.0835496
0.0858395
0.0880456
0.0901613
0.0921856
0.0941211
0.0959723
0.0977447
0.0994437
0.101075
0.102643
0.104154
0.10561
0.107019
0.108372
0.109726
0.110842
0.112817
0.00288491
0.00349083
0.00401544
0.00452915
0.0050244
0.00550184
0.00596769
0.0064313
0.00689889
0.00738835
0.00791112
0.00847363
0.00908075
0.00973769
0.0104474
0.0112168
0.012052
0.0129556
0.0139281
0.0149686
0.0160758
0.0172489
0.0184866
0.0197869
0.0211465
0.0225619
0.0240298
0.0255476
0.0271121
0.0287202
0.0303684
0.0320533
0.0337721
0.035522
0.0373004
0.0391042
0.0409308
0.0427776
0.0446422
0.0465225
0.0484162
0.0503212
0.0522354
0.0541568
0.0560824
0.0580094
0.0599364
0.061869
0.0638231
0.0658263
0.0679102
0.0700986
0.0723954
0.0747807
0.0772161
0.0796564
0.0820609
0.0843997
0.0866545
0.088817
0.0908853
0.0928617
0.0947503
0.0965566
0.0982863
0.0999449
0.101538
0.10307
0.104546
0.105973
0.107342
0.10871
0.109837
0.111829
0.00395347
0.00457819
0.00509568
0.00553383
0.00593035
0.00631055
0.00668522
0.00706152
0.00744003
0.00785395
0.00830249
0.00878504
0.0093045
0.00986644
0.0104729
0.0111388
0.0118716
0.0126737
0.0135453
0.0144857
0.0154955
0.016576
0.0177269
0.0189457
0.0202286
0.0215718
0.0229724
0.0244279
0.0259349
0.0274896
0.0290881
0.0307267
0.0324026
0.0341128
0.0358543
0.0376239
0.0394185
0.0412355
0.0430725
0.0449271
0.0467971
0.04868
0.0505738
0.0524762
0.0543846
0.0562958
0.0582082
0.0601262
0.0620649
0.0640513
0.0661186
0.0682939
0.0705856
0.0729776
0.075433
0.077906
0.0803531
0.0827409
0.0850479
0.0872631
0.089383
0.0914086
0.0933436
0.0951931
0.0969626
0.0986578
0.100284
0.101847
0.10335
0.104801
0.106192
0.107581
0.108725
0.110741
0.00501827
0.00562671
0.00617927
0.00666049
0.00708472
0.00747352
0.00784093
0.00819632
0.00854558
0.00890176
0.00927406
0.0096681
0.0100883
0.0105404
0.0110236
0.0115733
0.0121872
0.0128638
0.0136044
0.0144096
0.0152853
0.0162375
0.0172659
0.0183676
0.0195386
0.0207756
0.0220773
0.0234416
0.0248646
0.0263416
0.0278676
0.0294393
0.0310537
0.0327075
0.0343973
0.036119
0.0378691
0.0396451
0.0414444
0.0432646
0.0451028
0.0469563
0.0488229
0.0507004
0.0525861
0.054477
0.0563706
0.0582699
0.0601877
0.0621492
0.0641877
0.0663335
0.0686005
0.0709789
0.0734363
0.0759279
0.0784087
0.0808415
0.083201
0.0854726
0.0876501
0.0897327
0.0917227
0.0936246
0.0954435
0.0971848
0.098854
0.100456
0.101996
0.10348
0.104901
0.106318
0.107485
0.109535
0.00620416
0.00676026
0.00729926
0.00780123
0.00826694
0.0087063
0.00912631
0.00953165
0.00992617
0.0103147
0.0107026
0.0110949
0.0114962
0.0119113
0.012342
0.012801
0.0132973
0.0138368
0.0144244
0.0150628
0.0157708
0.0165586
0.0174222
0.0183588
0.0193657
0.0204437
0.0215967
0.0228224
0.0241159
0.0254714
0.0268837
0.0283506
0.0298694
0.031436
0.0330459
0.0346935
0.0363754
0.0380892
0.0398319
0.0416005
0.0433915
0.0452016
0.0470283
0.0488693
0.0507222
0.0525835
0.0544503
0.0563234
0.0582127
0.06014
0.0621368
0.0642355
0.066456
0.0687964
0.0712319
0.0737216
0.0762203
0.0786881
0.0810953
0.0834228
0.0856607
0.0878055
0.0898577
0.0918203
0.0936977
0.0954947
0.0972164
0.0988679
0.100454
0.101981
0.103441
0.104895
0.106092
0.108188
0.00756655
0.00809211
0.00861676
0.00912173
0.00960665
0.0100806
0.0105493
0.0110144
0.0114764
0.0119358
0.0123934
0.0128498
0.0133061
0.0137638
0.0142242
0.0146906
0.0151679
0.0156614
0.0161763
0.0167169
0.0172923
0.0179137
0.018588
0.01932
0.0201116
0.0209754
0.0219239
0.0229509
0.0240507
0.0252187
0.0264519
0.0277531
0.0291197
0.0305458
0.0320255
0.0335516
0.0351219
0.0367346
0.0383857
0.0400709
0.0417855
0.0435254
0.0452879
0.0470708
0.0488712
0.0506855
0.0525097
0.0543427
0.0561907
0.0580709
0.0600111
0.0620434
0.0641929
0.0664668
0.0688498
0.0713086
0.0738005
0.0762843
0.0787261
0.0811021
0.0833976
0.0856054
0.0877234
0.0897524
0.0916954
0.0935564
0.0953397
0.09705
0.0986914
0.100271
0.101781
0.103281
0.104517
0.106673
0.00922573
0.0097578
0.0103006
0.0108307
0.0113444
0.0118502
0.0123563
0.0128659
0.0133802
0.0138996
0.0144234
0.0149504
0.0154795
0.0160093
0.0165384
0.0170662
0.017593
0.0181199
0.0186489
0.0191824
0.0197239
0.0202794
0.0208554
0.0214584
0.0220938
0.0227698
0.0234979
0.0242848
0.0251337
0.0260457
0.0270263
0.0280914
0.0292329
0.0304432
0.0317173
0.0330464
0.0344361
0.0358843
0.0373848
0.0389311
0.0405172
0.0421388
0.0437935
0.0454788
0.0471909
0.0489255
0.0506773
0.0524436
0.0542269
0.056039
0.0579019
0.0598447
0.0618949
0.0640681
0.0663604
0.0687489
0.0711974
0.0736656
0.076117
0.078523
0.0808638
0.0831275
0.0853083
0.0874041
0.0894159
0.0913457
0.093197
0.0949736
0.0966789
0.0983199
0.0998878
0.101445
0.102728
0.104959
0.0114066
0.011979
0.0125775
0.0131678
0.0137399
0.0142986
0.0148518
0.0154045
0.0159594
0.0165187
0.0170835
0.0176538
0.0182291
0.0188084
0.0193902
0.0199727
0.0205543
0.0211333
0.0217089
0.0222805
0.0228483
0.0234135
0.0239784
0.0245464
0.0251211
0.0257074
0.0263121
0.0269426
0.0276057
0.028307
0.0290526
0.0298534
0.0307153
0.0316401
0.0326288
0.0336718
0.0348021
0.0360058
0.0372737
0.0385995
0.039977
0.041404
0.042881
0.0444042
0.0459679
0.0475664
0.0491932
0.0508447
0.0525211
0.0542285
0.0559811
0.0578018
0.0597169
0.0617474
0.063901
0.0661674
0.0685203
0.0709245
0.073343
0.0757439
0.0781025
0.0804017
0.0826309
0.0847845
0.0868598
0.0888567
0.0907767
0.0926224
0.0943961
0.0961044
0.0977374
0.0993594
0.100696
0.103016
0.0144192
0.0150627
0.015744
0.0164164
0.0170656
0.0176921
0.0183027
0.0189028
0.0194959
0.020085
0.0206729
0.0212614
0.0218518
0.0224446
0.0230401
0.023638
0.0242375
0.0248375
0.0254365
0.0260333
0.0266262
0.0272143
0.0277967
0.0283736
0.0289454
0.0295136
0.0300805
0.0306496
0.0312253
0.0318124
0.0324159
0.0330425
0.0336998
0.0343938
0.0351305
0.0359099
0.0367451
0.0376416
0.0386
0.0396192
0.0406958
0.0418373
0.0430505
0.0443263
0.0456566
0.0470353
0.0484555
0.0499165
0.051418
0.0529601
0.0545485
0.0561973
0.0579271
0.0597607
0.0617151
0.0637926
0.0659795
0.0682491
0.0705686
0.0729051
0.0752308
0.0775238
0.0797685
0.0819539
0.0840734
0.0861232
0.0881019
0.0900102
0.091849
0.0936238
0.095323
0.0970127
0.0984068
0.100825
0.0187089
0.0193844
0.0201228
0.0208568
0.0215664
0.0222477
0.0229046
0.0235418
0.0241627
0.0247707
0.0253687
0.0259595
0.0265451
0.0271274
0.0277079
0.0282877
0.0288677
0.0294481
0.0300291
0.0306104
0.0311911
0.0317705
0.0323474
0.0329205
0.0334889
0.0340517
0.0346087
0.03516
0.0357066
0.0362501
0.0367927
0.0373375
0.0378887
0.0384509
0.0390293
0.0396278
0.0402528
0.0409111
0.0416085
0.0423493
0.0431357
0.043972
0.0448653
0.0458174
0.0468273
0.0478927
0.0490086
0.0501869
0.0514271
0.0527215
0.0540679
0.0554722
0.0569468
0.0585142
0.0601961
0.0620037
0.0639349
0.065975
0.0680996
0.0702803
0.0724901
0.0747044
0.0769025
0.0790677
0.081188
0.0832548
0.0852633
0.0872113
0.0890975
0.0909253
0.092681
0.0944318
0.0958784
0.0983934
0.0246734
0.0252519
0.0259533
0.0266814
0.0273992
0.0280933
0.0287618
0.029407
0.0300312
0.0306369
0.0312269
0.0318037
0.0323695
0.0329262
0.0334758
0.0340198
0.0345596
0.0350966
0.0356317
0.0361659
0.0366996
0.0372331
0.0377664
0.0382992
0.0388311
0.0393611
0.0398884
0.040412
0.0409314
0.0414459
0.0419556
0.0424607
0.0429621
0.0434616
0.0439613
0.0444638
0.0449723
0.0454909
0.0460243
0.0465772
0.0471538
0.0477582
0.048396
0.0490722
0.0497906
0.0505539
0.051362
0.05222
0.0531319
0.0540981
0.0551181
0.0561945
0.0573321
0.0585586
0.0598938
0.0613472
0.0629241
0.0646225
0.0664302
0.068331
0.0703057
0.0723304
0.074381
0.0764358
0.0784774
0.0804918
0.0824705
0.0844083
0.0863001
0.0881462
0.0899294
0.091717
0.093197
0.0957862
0.0324556
0.0328765
0.0333881
0.0339847
0.0346214
0.0352615
0.0358898
0.0365008
0.0370932
0.0376673
0.0382246
0.0387668
0.0392954
0.0398119
0.0403178
0.0408146
0.0413036
0.0417861
0.0422632
0.0427362
0.043206
0.0436736
0.0441399
0.0446054
0.0450705
0.0455356
0.0460006
0.0464655
0.0469296
0.0473924
0.0478533
0.0483116
0.0487669
0.0492188
0.0496675
0.0501134
0.0505571
0.0510002
0.0514444
0.0518923
0.0523466
0.0528103
0.0532868
0.0537803
0.0542947
0.0548341
0.0554012
0.0559999
0.0566342
0.0573078
0.0580234
0.0587838
0.0595926
0.060462
0.0614082
0.0624463
0.0635889
0.0648446
0.0662137
0.067702
0.0693055
0.0710017
0.0727669
0.0745788
0.0764178
0.0782654
0.0801136
0.0819533
0.0837739
0.0855706
0.0873221
0.0890933
0.0905646
0.09317
0.0418006
0.0420952
0.0424592
0.0428319
0.0432389
0.0437225
0.0442415
0.0447654
0.0452834
0.0457915
0.0462877
0.0467712
0.0472419
0.0477006
0.0481482
0.0485857
0.0490138
0.0494335
0.0498456
0.050251
0.0506508
0.0510457
0.0514368
0.0518249
0.0522109
0.0525955
0.0529793
0.0533629
0.0537469
0.0541314
0.0545166
0.0549023
0.0552882
0.0556739
0.0560591
0.0564433
0.0568261
0.0572075
0.0575875
0.0579666
0.0583454
0.058725
0.0591069
0.059493
0.0598854
0.0602869
0.0606999
0.0611273
0.0615723
0.0620381
0.062528
0.0630455
0.0635936
0.0641783
0.0648087
0.0654966
0.0662548
0.0670957
0.0680284
0.0690616
0.0702017
0.0714455
0.0727831
0.0742005
0.0756823
0.0772108
0.078793
0.0804092
0.0820417
0.0836807
0.0853011
0.0869629
0.088351
0.0908642
0.052485
0.0526406
0.0528625
0.0530915
0.0533221
0.0535589
0.0538119
0.054132
0.0545104
0.0549094
0.0553078
0.0557005
0.0560867
0.0564662
0.0568381
0.0572016
0.0575564
0.0579028
0.0582415
0.0585731
0.0588981
0.0592172
0.0595309
0.0598399
0.0601447
0.0604462
0.060745
0.0610419
0.0613377
0.061633
0.0619284
0.0622244
0.0625215
0.0628201
0.0631202
0.0634219
0.063725
0.0640294
0.0643348
0.064641
0.0649477
0.065255
0.065563
0.0658718
0.0661822
0.0664949
0.066811
0.0671319
0.0674593
0.0677948
0.0681409
0.0684996
0.0688737
0.0692661
0.0696814
0.0701263
0.0706091
0.0711397
0.071728
0.0723841
0.0731174
0.0739347
0.0748382
0.0758258
0.0768919
0.0780265
0.0792269
0.0804853
0.0817901
0.0831323
0.0844874
0.0859071
0.0871061
0.0893676
0.0642416
0.0642519
0.0643208
0.0643964
0.064473
0.0645536
0.0646418
0.0647417
0.0648562
0.0649865
0.0651601
0.065395
0.0656632
0.0659404
0.0662142
0.0664823
0.0667457
0.0670051
0.0672605
0.0675113
0.0677568
0.0679967
0.068231
0.0684602
0.0686847
0.0689049
0.0691215
0.0693348
0.0695453
0.0697537
0.0699605
0.0701662
0.0703717
0.0705774
0.070784
0.070992
0.0712019
0.0714141
0.0716289
0.0718462
0.0720663
0.072289
0.0725143
0.0727421
0.0729724
0.073205
0.0734402
0.0736781
0.0739192
0.0741639
0.0744132
0.0746679
0.0749293
0.0751989
0.0754787
0.0757715
0.0760815
0.0764142