/*--------------------------------*- C++ -*----------------------------------*\
| =========                 |                                                 |
| \\      /  F ield         | OpenFOAM: The Open Source CFD Toolbox           |
|  \\    /   O peration     | Version:  5.x                                   |
|   \\  /    A nd           | Web:      www.OpenFOAM.org                      |
|    \\/     M anipulation  |                                                 |
\*---------------------------------------------------------------------------*/
FoamFile
{
    version     2.0;
    format      ascii;
    class       volScalarField;
    location    "250";
    object      nuTilda;
}
// * * * * * * * * * * * * * * * * * * * * * * * * * * * * * * * * * * * * * //

dimensions      [0 2 -1 0 0 0 0];

internalField   nonuniform List<scalar> 
41860
(
3.73871e-05
4.29902e-05
5.51462e-05
5.86278e-05
5.39445e-05
4.97934e-05
4.40918e-05
3.93236e-05
3.54575e-05
3.22808e-05
2.95217e-05
2.7768e-05
2.57889e-05
2.52046e-05
2.37997e-05
2.34403e-05
2.26363e-05
2.20856e-05
2.17378e-05
2.04839e-05
2.03488e-05
2.96507e-05
1.98437e-05
3.07294e-05
1.95629e-05
3.00217e-05
2.96486e-05
1.95613e-05
2.9473e-05
2.9173e-05
3.45456e-05
1.86232e-05
1.85407e-05
3.46818e-05
1.85423e-05
3.45298e-05
1.85967e-05
1.86078e-05
1.94766e-05
2.85085e-05
1.92783e-05
1.94654e-05
2.94005e-05
2.91529e-05
1.88172e-05
3.41862e-05
2.91405e-05
2.87935e-05
2.86668e-05
3.44364e-05
3.46936e-05
3.47061e-05
3.48126e-05
2.81478e-05
2.77182e-05
1.90846e-05
1.91871e-05
3.47139e-05
1.9265e-05
3.48148e-05
2.71888e-05
3.48464e-05
1.82689e-05
3.4812e-05
1.83588e-05
2.71315e-05
1.94569e-05
1.94952e-05
2.69618e-05
3.36129e-05
1.94634e-05
2.72144e-05
2.74596e-05
1.86371e-05
1.9278e-05
2.77248e-05
1.90801e-05
1.89985e-05
1.88687e-05
2.96892e-05
1.88441e-05
1.6176e-05
0.000185292
0.000220207
0.000287332
0.000306725
0.000281969
0.000259934
0.000229496
0.000204005
0.000183324
0.000166327
0.000151564
0.000142185
0.00013159
0.000128446
0.000120899
0.000118948
0.000114274
0.000110736
0.000108325
0.000102242
0.000100843
0.0001013
9.54662e-05
9.86725e-05
9.20178e-05
9.63844e-05
9.46956e-05
8.92499e-05
9.3472e-05
9.31458e-05
9.41016e-05
8.87447e-05
8.88418e-05
9.37855e-05
8.90228e-05
9.42057e-05
8.98262e-05
9.03092e-05
8.98147e-05
9.56095e-05
9.29976e-05
9.43642e-05
8.85932e-05
8.84794e-05
8.35693e-05
8.99439e-05
8.84533e-05
8.83498e-05
8.83951e-05
9.02696e-05
9.04905e-05
9.06535e-05
9.08701e-05
8.90234e-05
8.9131e-05
8.45863e-05
8.48004e-05
9.20123e-05
8.53759e-05
9.26311e-05
9.07922e-05
9.32954e-05
8.87389e-05
9.39269e-05
8.93155e-05
9.22565e-05
8.78151e-05
8.81632e-05
9.28236e-05
9.54198e-05
8.88192e-05
9.35451e-05
9.4014e-05
9.08017e-05
8.92493e-05
9.38062e-05
8.9431e-05
8.89386e-05
8.84838e-05
9.25378e-05
8.89186e-05
1.9542e-05
0.000233844
0.000273804
0.000363563
0.000390832
0.000359663
0.000331208
0.000291729
0.000258601
0.000231775
0.000209935
0.000191564
0.000179998
0.000169184
0.000166019
0.00016289
0.000162237
0.000161963
0.000161929
0.000161729
0.000161376
0.000160651
0.000163348
0.000160033
0.000162541
0.000159131
0.000161346
0.000161094
0.000156651
0.000159302
0.000158263
0.000157079
0.000153612
0.000152724
0.000154282
0.000151081
0.000152669
0.000149793
0.000149328
0.000148448
0.000150906
0.000148663
0.000148871
0.000149225
0.000148958
0.000145796
0.00014834
0.000148221
0.000148024
0.000147854
0.000147629
0.000147526
0.000147467
0.000147438
0.000147521
0.000147552
0.000144743
0.000144813
0.000147732
0.0001451
0.000148036
0.000148325
0.000148442
0.000146786
0.000148822
0.000147156
0.00014921
0.000146635
0.000146825
0.000149523
0.000149815
0.000147116
0.000149693
0.000149787
0.000147687
0.000146823
0.000148975
0.00014631
0.000145545
0.000144803
0.000145285
0.000144962
2.35899e-05
0.000320293
0.000365162
0.000438276
0.000481439
0.000471764
0.000438525
0.000406495
0.000379303
0.000355271
0.000333759
0.000315412
0.000294727
0.000284339
0.000274478
0.000277106
0.00027382
0.000274089
0.000272883
0.000270757
0.000269771
0.000266736
0.000266783
0.000262785
0.000262091
0.000258533
0.000257428
0.000255749
0.000251412
0.000251
0.00024855
0.000246036
0.000242512
0.000240356
0.000239684
0.000236498
0.000235983
0.000233206
0.000231833
0.000230669
0.000230828
0.000228885
0.000228393
0.000227967
0.000227042
0.000224966
0.000225398
0.000225071
0.00022454
0.000224043
0.000223292
0.000222903
0.000222598
0.000222339
0.000222504
0.000222379
0.000220942
0.000220916
0.00022186
0.000220986
0.000221973
0.000222511
0.000222256
0.000221592
0.000222531
0.000221862
0.00022313
0.000222002
0.00022213
0.00022326
0.000223184
0.000222114
0.000223115
0.000223065
0.000221606
0.000221072
0.000221591
0.000219894
0.000218702
0.000217517
0.000215731
0.000217193
2.84583e-05
0.000444765
0.000539798
0.000646503
0.000710335
0.000733139
0.000688554
0.000655812
0.00062176
0.000586279
0.000551292
0.000519505
0.00048284
0.000459866
0.000436218
0.000433717
0.000424436
0.000420978
0.000415914
0.000410157
0.000406396
0.000400099
0.000396734
0.000390762
0.000386664
0.000381684
0.000377301
0.000373581
0.00036815
0.000364951
0.000360684
0.000356678
0.000352365
0.000348683
0.000345892
0.000342069
0.000339653
0.000336361
0.000333924
0.000331793
0.000330299
0.000328176
0.000326974
0.000325148
0.000323209
0.000321367
0.000320542
0.000319569
0.000318562
0.000317624
0.000316614
0.000315867
0.000315237
0.000314682
0.000314443
0.000314074
0.000313247
0.000313038
0.000313138
0.000312794
0.000312984
0.000313283
0.000313081
0.000312869
0.000313206
0.000312977
0.000313519
0.000313075
0.000313118
0.000313377
0.000313313
0.000312753
0.000312861
0.000312667
0.000311585
0.000310897
0.00031042
0.000309044
0.000307351
0.00030567
0.000302343
0.000304595
3.43063e-05
0.000611356
0.00077771
0.000997264
0.00109878
0.00113482
0.0010643
0.00100817
0.000949819
0.000890304
0.000832531
0.000779726
0.000722851
0.000682641
0.000642532
0.000630278
0.000612774
0.000603356
0.000592698
0.000581968
0.000573796
0.000563226
0.000555747
0.000546469
0.000538694
0.000531016
0.000523321
0.000516937
0.000509353
0.00050343
0.000496935
0.000490953
0.000485091
0.000479576
0.000474739
0.000469663
0.000465454
0.000461116
0.000457434
0.000454087
0.000451274
0.000448505
0.000446566
0.000442871
0.000439542
0.000437239
0.000435461
0.000433747
0.00043214
0.000430649
0.000429241
0.000428044
0.000427005
0.000426074
0.000425394
0.000424718
0.000423952
0.000423502
0.00042317
0.000422855
0.000422668
0.000422726
0.000422512
0.000422449
0.000422439
0.000422348
0.000422443
0.000422188
0.000422127
0.000421945
0.000421859
0.000421347
0.000420968
0.000420607
0.00041956
0.000418554
0.000417443
0.00041596
0.000413705
0.00041146
0.000406987
0.000409225
4.13213e-05
0.000847472
0.00107229
0.00144462
0.00159565
0.00162894
0.00152525
0.00143569
0.00134617
0.00125758
0.00117289
0.00109532
0.00101544
0.000955014
0.0008962
0.000870669
0.000842609
0.000825184
0.000807269
0.000790194
0.000776193
0.000760255
0.000747817
0.00073409
0.000722069
0.000710661
0.000699271
0.000689572
0.000679011
0.000670088
0.000660879
0.000652423
0.000644357
0.000636628
0.00062962
0.000622755
0.00061667
0.000610822
0.000605662
0.000600922
0.000596804
0.000593044
0.000590303
0.000584346
0.000579189
0.000575953
0.000573228
0.000570657
0.000568312
0.000566135
0.000564165
0.000562404
0.000560856
0.000559459
0.000558306
0.000557248
0.000556262
0.000555508
0.000554846
0.000554352
0.000553894
0.00055372
0.000553405
0.000553308
0.000553073
0.000552942
0.000552763
0.000552471
0.000552281
0.000551814
0.000551641
0.000550999
0.000550275
0.000549714
0.000548484
0.000547111
0.000545486
0.000543682
0.000540809
0.000537918
0.000532546
0.000533965
4.97226e-05
0.00118772
0.00143026
0.00197478
0.00218311
0.00220668
0.00206554
0.00193768
0.00181339
0.00169273
0.00157834
0.00147321
0.00136782
0.00128452
0.00120456
0.00116241
0.00112109
0.0010934
0.00106634
0.00104133
0.00101999
0.000997404
0.000978911
0.000959575
0.000942448
0.000926327
0.000910547
0.000896791
0.000882475
0.000870013
0.00085751
0.000846018
0.000835148
0.000824738
0.000815227
0.000806083
0.000797847
0.00079007
0.000783132
0.000776757
0.000771166
0.000766123
0.000762466
0.000753879
0.000746389
0.000741808
0.000737975
0.000734382
0.000731127
0.000728107
0.000725405
0.000722945
0.000720769
0.000718792
0.000717095
0.000715564
0.000714194
0.000713061
0.000712044
0.000711261
0.000710518
0.000710088
0.000709594
0.000709359
0.00070893
0.000708662
0.000708265
0.000707832
0.000707481
0.000706761
0.000706442
0.000705594
0.000704547
0.000703746
0.000702216
0.000700439
0.000698305
0.000696069
0.000692531
0.000688899
0.00068288
0.000682479
5.97652e-05
0.00163878
0.00186805
0.00259289
0.00286527
0.00287509
0.00269262
0.00252284
0.00236099
0.00220577
0.00205918
0.00192391
0.00179047
0.00168163
0.00157788
0.00151567
0.00145794
0.00141728
0.00137884
0.00134393
0.00131352
0.0012827
0.00125678
0.00123051
0.00120714
0.00118521
0.00116409
0.00114538
0.00112644
0.0011097
0.00109319
0.00107799
0.00106367
0.00105001
0.0010375
0.00102555
0.00101474
0.00100459
0.000995495
0.000987148
0.000979802
0.000973166
0.000968419
0.000956873
0.000946471
0.000940094
0.00093489
0.00093005
0.000925674
0.000921616
0.000917989
0.000914667
0.000911714
0.000909019
0.000906668
0.00090455
0.000902664
0.000901056
0.000899605
0.000898443
0.00089735
0.000896611
0.000895862
0.000895419
0.000894774
0.000894306
0.000893687
0.000893048
0.000892496
0.000891507
0.000890983
0.000889888
0.000888491
0.000887405
0.000885506
0.000883285
0.000880604
0.000877866
0.000873628
0.000869142
0.000862838
0.000859281
7.1742e-05
0.00222315
0.00241327
0.00331177
0.00365451
0.0036472
0.00341931
0.00320418
0.00300213
0.00280996
0.00262873
0.00246075
0.00229661
0.00215949
0.00202907
0.00194326
0.00186548
0.00180862
0.00175606
0.00170884
0.00166724
0.00162623
0.00159115
0.00155635
0.0015253
0.00149623
0.00146857
0.0014438
0.00141919
0.00139723
0.00137583
0.00135609
0.00133756
0.00131993
0.00130376
0.0012884
0.00127445
0.00126139
0.00124967
0.00123892
0.00122943
0.00122083
0.00121475
0.00119996
0.00118599
0.00117727
0.00117033
0.00116396
0.0011582
0.00115286
0.00114808
0.00114369
0.00113978
0.00113619
0.00113304
0.00113019
0.00112765
0.00112544
0.00112345
0.00112181
0.00112027
0.00111914
0.00111806
0.00111734
0.00111643
0.0011157
0.00111483
0.00111392
0.00111313
0.00111183
0.00111104
0.00110966
0.00110788
0.00110645
0.00110414
0.00110143
0.00109815
0.00109485
0.0010899
0.00108443
0.00107838
0.00106991
8.5986e-05
0.00297304
0.00310229
0.00414898
0.00456778
0.00453976
0.00426187
0.00399787
0.00375299
0.00352152
0.00330322
0.00309993
0.00290234
0.00273407
0.00257395
0.00246089
0.00235905
0.00228216
0.00221214
0.00214961
0.00209421
0.00204057
0.00199418
0.00194885
0.00190831
0.00187046
0.00183471
0.00180252
0.00177093
0.00174257
0.00171516
0.00168985
0.00166616
0.00164368
0.00162304
0.00160348
0.0015857
0.00156907
0.00155412
0.0015404
0.00152828
0.00151724
0.00150949
0.00149122
0.00147298
0.00146122
0.00145208
0.00144379
0.00143631
0.00142939
0.00142318
0.00141747
0.00141236
0.00140768
0.00140353
0.00139977
0.00139641
0.00139345
0.00139078
0.00138852
0.00138644
0.00138481
0.00138328
0.0013822
0.00138096
0.00137992
0.00137873
0.00137751
0.00137641
0.00137476
0.00137364
0.00137194
0.00136972
0.0013679
0.00136513
0.00136189
0.00135798
0.00135407
0.00134841
0.0013418
0.0013368
0.00132118
0.000102869
0.00392916
0.00396925
0.00512635
0.00562595
0.00557278
0.00523973
0.00492316
0.00463281
0.00435976
0.00410203
0.00386086
0.00362699
0.00342461
0.00323161
0.00308766
0.00295745
0.00285612
0.00276464
0.00268311
0.00261068
0.00254136
0.00248097
0.00242262
0.00237029
0.00232159
0.00227583
0.00223446
0.00219426
0.00215799
0.00212319
0.00209102
0.00206097
0.00203252
0.00200638
0.00198166
0.00195914
0.00193811
0.00191916
0.00190177
0.00188638
0.00187231
0.00186244
0.00184047
0.0018172
0.00180158
0.0017896
0.00177892
0.0017693
0.00176042
0.00175242
0.00174509
0.00173849
0.00173244
0.00172705
0.00172216
0.00171776
0.00171387
0.00171035
0.00170731
0.00170453
0.00170226
0.00170017
0.00169861
0.00169697
0.00169552
0.00169396
0.00169234
0.00169088
0.00168883
0.00168731
0.00168525
0.00168255
0.00168028
0.00167702
0.00167322
0.00166863
0.00166407
0.00165776
0.00164982
0.00164694
0.00162153
0.000122797
0.00514166
0.00505034
0.00626969
0.00685399
0.00676975
0.00637564
0.00600263
0.00566426
0.0053475
0.00504812
0.00476661
0.00449368
0.00425421
0.004025
0.00384649
0.0036835
0.00355284
0.00343525
0.00333027
0.00323685
0.0031481
0.00307032
0.00299582
0.00292881
0.00286664
0.00280842
0.00275566
0.00270478
0.0026587
0.00261475
0.00257407
0.00253615
0.00250031
0.00246735
0.00243625
0.00240787
0.00238137
0.00235747
0.0023355
0.00231602
0.00229815
0.00228553
0.00225967
0.00223059
0.00221008
0.00219449
0.00218079
0.00216849
0.00215716
0.00214695
0.00213758
0.00212913
0.00212137
0.00211443
0.00210813
0.00210245
0.00209737
0.00209278
0.00208876
0.00208509
0.00208201
0.0020792
0.00207703
0.00207487
0.00207292
0.0020709
0.00206882
0.00206691
0.00206441
0.00206241
0.00205995
0.00205673
0.00205394
0.00205017
0.00204579
0.00204052
0.00203527
0.0020284
0.00201892
0.00201956
0.00198143
0.000146198
0.00667161
0.00639306
0.00760871
0.00828116
0.00815802
0.00769609
0.00726263
0.00687383
0.00651155
0.00616862
0.00584456
0.00552988
0.00525037
0.00498157
0.00476484
0.00456462
0.00439947
0.00425056
0.00411691
0.00399773
0.00388497
0.00378558
0.00369103
0.00360569
0.00352675
0.00345296
0.00338602
0.00332182
0.00326351
0.00320815
0.00315687
0.00310916
0.00306414
0.00302269
0.00298365
0.00294796
0.00291465
0.00288454
0.00285684
0.00283222
0.00280956
0.00279335
0.00276336
0.0027277
0.00270114
0.0026809
0.00266338
0.00264771
0.00263334
0.00262034
0.00260844
0.00259767
0.00258779
0.00257891
0.00257082
0.00256352
0.00255696
0.00255103
0.00254576
0.00254099
0.00253687
0.00253314
0.00253017
0.00252735
0.00252479
0.0025222
0.00251956
0.00251712
0.00251411
0.00251154
0.00250862
0.00250486
0.0025015
0.00249721
0.00249224
0.0024863
0.00248035
0.00247307
0.00246178
0.00246767
0.00241397
0.000173506
0.00859268
0.00805832
0.00917787
0.00993735
0.00976804
0.00923124
0.00873346
0.00829227
0.00788321
0.00749532
0.0071269
0.00676807
0.00644574
0.00613392
0.00587533
0.00563348
0.0054286
0.00524276
0.00507456
0.00492405
0.00478182
0.00465567
0.00453628
0.00442807
0.00432819
0.00423491
0.00415021
0.00406937
0.00399572
0.00392611
0.00386156
0.00380157
0.00374508
0.00369301
0.00364404
0.00359919
0.00355734
0.00351943
0.00348452
0.0034534
0.00342469
0.00340374
0.00336927
0.00332631
0.00329235
0.0032662
0.00324382
0.00322391
0.00320571
0.00318922
0.00317414
0.00316046
0.00314792
0.00313659
0.00312628
0.00311694
0.0031085
0.00310088
0.00309404
0.00308786
0.00308243
0.00307752
0.00307353
0.00306986
0.00306652
0.00306324
0.00305993
0.00305686
0.00305326
0.00305004
0.00304661
0.00304227
0.0030383
0.00303347
0.00302794
0.00302137
0.00301471
0.00300723
0.00299386
0.00300697
0.0029356
0.00020512
0.0109932
0.0101219
0.0110193
0.0118365
0.0116206
0.0110088
0.0104467
0.00995354
0.00949798
0.00906481
0.008651
0.00824614
0.00787856
0.00752042
0.00721635
0.00692857
0.00667879
0.00645025
0.0062412
0.00605312
0.00587514
0.00571614
0.00556611
0.00542945
0.00530347
0.00518581
0.00507883
0.00497714
0.00488424
0.00479672
0.0047155
0.00464009
0.00456919
0.00450376
0.00444231
0.00438594
0.00433335
0.00428558
0.00424154
0.00420216
0.00416576
0.00413853
0.00409904
0.00404808
0.00400526
0.00397164
0.00394309
0.0039178
0.00389479
0.00387391
0.00385483
0.00383749
0.00382159
0.00380719
0.00379406
0.00378215
0.00377135
0.00376158
0.00375276
0.00374481
0.0037377
0.0037313
0.00372596
0.00372121
0.00371689
0.00371275
0.00370862
0.00370479
0.00370052
0.00369655
0.00369254
0.00368762
0.00368298
0.00367763
0.00367157
0.00366446
0.00365713
0.00364971
0.00363392
0.00365631
0.003567
0.000241358
0.0139782
0.0126766
0.0131869
0.0139685
0.0136905
0.01302
0.0124134
0.0118838
0.0113904
0.0109158
0.010458
0.0100067
0.00959237
0.00918512
0.00883222
0.00849445
0.00819485
0.00791797
0.00766165
0.00742937
0.00720876
0.00700995
0.00682253
0.0066508
0.00649246
0.00634441
0.00620957
0.00608179
0.00596468
0.00585466
0.00575246
0.0056576
0.00556856
0.00548629
0.00540911
0.00533817
0.00527201
0.00521174
0.00515613
0.0051062
0.00505999
0.00502445
0.00497903
0.00491939
0.00486618
0.00482326
0.00478687
0.00475477
0.00472567
0.00469925
0.00467512
0.00465316
0.00463303
0.00461474
0.00459806
0.0045829
0.00456911
0.00455663
0.00454529
0.00453507
0.00452585
0.00451753
0.00451046
0.0045043
0.00449872
0.0044935
0.00448838
0.00448362
0.00447858
0.00447375
0.00446907
0.00446354
0.00445822
0.00445236
0.00444582
0.00443828
0.00443032
0.00442327
0.00440476
0.0044382
0.00433432
0.000282382
0.0176725
0.0158342
0.0157486
0.0163242
0.0159296
0.0152089
0.0145902
0.0140656
0.0135692
0.013075
0.0125846
0.0120921
0.0116328
0.0111757
0.0107717
0.0103808
0.0100272
0.00969692
0.00938729
0.00910428
0.00883397
0.00858793
0.00835566
0.00814132
0.00794332
0.00775774
0.00758828
0.00742801
0.00728061
0.00714238
0.00701381
0.00689445
0.00678255
0.00667902
0.00658199
0.00649263
0.00640928
0.00633313
0.0062628
0.00619938
0.00614065
0.00609413
0.00604132
0.00597225
0.00590709
0.00585277
0.0058065
0.00576577
0.00572898
0.00569556
0.00566505
0.00563724
0.00561176
0.00558856
0.00556736
0.00554809
0.0055305
0.00551457
0.00550004
0.00548695
0.00547505
0.00546427
0.00545496
0.00544695
0.00543975
0.00543315
0.00542679
0.0054209
0.00541492
0.0054091
0.00540364
0.00539748
0.00539143
0.00538506
0.00537812
0.00537029
0.00536175
0.0053554
0.00533387
0.00537942
0.00527021
0.000328099
0.0222235
0.0197281
0.0187867
0.018909
0.0183069
0.0175262
0.0169169
0.0164371
0.0159886
0.0155231
0.0150364
0.0145261
0.0140354
0.0135349
0.0130823
0.0126381
0.0122285
0.0118416
0.011474
0.0111348
0.0108083
0.0105079
0.0102232
0.00995823
0.00971256
0.00948143
0.00926957
0.00906929
0.00888435
0.00871103
0.00854952
0.00839947
0.00825886
0.00812858
0.00800653
0.00789389
0.00778881
0.00769252
0.00760346
0.00752282
0.00744808
0.00738714
0.00732474
0.00724526
0.0071666
0.00709857
0.00704001
0.00698839
0.00694188
0.00689961
0.00686105
0.00682585
0.00679359
0.00676416
0.00673724
0.00671274
0.00669032
0.00667001
0.00665142
0.00663466
0.00661936
0.00660546
0.00659325
0.00658281
0.00657348
0.00656508
0.00655715
0.00654984
0.00654272
0.00653572
0.00652932
0.00652245
0.00651563
0.00650875
0.00650143
0.00649343
0.00648437
0.006479
0.00645421
0.0065117
0.00641352
0.000378038
0.0278073
0.0245137
0.022392
0.0217407
0.0208077
0.0199413
0.0193499
0.0189405
0.0185798
0.0181935
0.0177638
0.0172833
0.0167981
0.0162794
0.0157934
0.0153052
0.0148442
0.0144025
0.013976
0.0135781
0.0131915
0.0128311
0.0124875
0.0121647
0.0118635
0.0115786
0.011316
0.0110675
0.0108369
0.0106206
0.0104185
0.0102304
0.0100541
0.00989043
0.00973709
0.00959524
0.00946283
0.0093411
0.00922834
0.00912577
0.00903068
0.00895099
0.00887581
0.00878449
0.00869074
0.0086066
0.00853297
0.00846777
0.00840904
0.00835565
0.00830692
0.00826239
0.00822156
0.00818425
0.00815007
0.00811893
0.00809039
0.00806451
0.00804076
0.00801933
0.00799971
0.00798181
0.00796588
0.00795223
0.0079401
0.00792933
0.00791935
0.00791021
0.00790162
0.00789319
0.00788561
0.0078779
0.0078702
0.00786272
0.007855
0.00784691
0.0078373
0.00783309
0.00780487
0.00787253
0.00780236
0.000923434
0.0346316
0.0303663
0.0266464
0.0248419
0.0234246
0.0224324
0.021859
0.0215342
0.0212865
0.0210157
0.0206889
0.0202904
0.0198628
0.0193724
0.0188896
0.018385
0.0178922
0.017409
0.0169322
0.0164805
0.0160356
0.0156144
0.0152091
0.0148237
0.0144612
0.0141155
0.0137947
0.01349
0.0132055
0.0129379
0.0126871
0.0124529
0.0122331
0.0120284
0.0118365
0.0116585
0.0114922
0.0113387
0.0111962
0.011066
0.0109453
0.0108415
0.0107493
0.010644
0.0105334
0.0104307
0.010339
0.0102572
0.0101832
0.010116
0.0100545
0.00999826
0.00994666
0.00989942
0.00985608
0.00981654
0.00978023
0.00974728
0.00971699
0.00968963
0.00966453
0.00964156
0.00962083
0.00960298
0.00958715
0.00957322
0.00956052
0.00954898
0.00953845
0.00952818
0.00951907
0.00951022
0.00950142
0.00949316
0.00948489
0.00947662
0.00946631
0.00946316
0.00943137
0.00950608
0.00946855
0.00220847
0.0428115
0.0374602
0.0315843
0.0282228
0.0261476
0.0249772
0.0244168
0.0241851
0.0240664
0.0239339
0.0237411
0.0234651
0.0231426
0.0227311
0.0223011
0.0218249
0.0213387
0.0208451
0.0203424
0.0198557
0.0193661
0.018893
0.0184313
0.0179856
0.0175612
0.0171521
0.0167688
0.0164024
0.0160577
0.0157318
0.0154246
0.0151366
0.0148653
0.0146119
0.0143738
0.014152
0.0139444
0.0137521
0.0135732
0.0134088
0.0132562
0.0131223
0.0130075
0.0128851
0.0127558
0.0126323
0.0125195
0.0124176
0.0123251
0.0122408
0.0121636
0.0120928
0.0120278
0.0119682
0.0119133
0.0118633
0.0118172
0.0117754
0.0117368
0.011702
0.0116699
0.0116406
0.0116137
0.0115904
0.0115697
0.0115516
0.0115352
0.0115205
0.0115073
0.0114946
0.0114834
0.0114729
0.0114626
0.0114532
0.0114439
0.0114352
0.0114237
0.0114211
0.0113855
0.0114635
0.0114263
0.00629174
0.0519239
0.0457586
0.0371322
0.0318524
0.0289511
0.0275438
0.0269893
0.0268575
0.0268796
0.026901
0.0268628
0.0267375
0.0265546
0.0262632
0.0259315
0.0255312
0.0250992
0.0246394
0.0241509
0.0236642
0.0231594
0.0226584
0.0221593
0.0216673
0.0211909
0.0207246
0.020282
0.0198547
0.0194482
0.0190609
0.0186931
0.0183459
0.0180172
0.0177086
0.0174174
0.017145
0.0168891
0.016651
0.0164287
0.0162233
0.0160322
0.0158616
0.015718
0.0155745
0.0154241
0.0152776
0.0151409
0.0150157
0.0149013
0.0147965
0.0147002
0.0146118
0.0145303
0.0144555
0.0143866
0.0143235
0.0142654
0.0142124
0.0141636
0.0141194
0.0140788
0.0140414
0.0140069
0.0139766
0.0139495
0.0139258
0.0139045
0.0138854
0.0138686
0.0138526
0.0138384
0.0138256
0.013813
0.0138017
0.0137909
0.0137808
0.0137674
0.0137642
0.0137239
0.0138013
0.0137497
0.00980543
0.0614361
0.0547429
0.0430333
0.0356021
0.0317688
0.0300812
0.0295313
0.0295059
0.0296785
0.0298654
0.0299967
0.0300437
0.030026
0.0298847
0.0296867
0.0294021
0.0290685
0.0286869
0.028258
0.0278152
0.0273363
0.0268449
0.0263416
0.0258325
0.0253281
0.0248239
0.0243373
0.0238603
0.0234001
0.0229564
0.0225307
0.0221249
0.0217378
0.0213714
0.0210237
0.0206964
0.0203874
0.0200981
0.0198268
0.0195746
0.0193391
0.0191257
0.0189473
0.0187783
0.0186041
0.0184327
0.0182702
0.0181191
0.0179796
0.0178511
0.0177325
0.0176232
0.0175223
0.0174294
0.0173435
0.0172648
0.017192
0.0171257
0.0170644
0.0170087
0.0169576
0.0169104
0.0168665
0.0168274
0.0167922
0.0167613
0.0167335
0.0167086
0.0166869
0.0166662
0.016648
0.0166316
0.0166156
0.0166013
0.0165876
0.0165751
0.0165582
0.0165526
0.0165062
0.0165789
0.0164891
0.0137433
0.0709811
0.0638245
0.0487371
0.0391339
0.0344469
0.0325026
0.0319829
0.0320732
0.0324043
0.0327633
0.0330744
0.0333127
0.0334808
0.0335136
0.0334768
0.03334
0.0331416
0.0328763
0.0325484
0.0321924
0.0317821
0.0313426
0.0308765
0.0303894
0.0298927
0.0293831
0.0288809
0.0283786
0.027885
0.0274018
0.0269314
0.0264774
0.0260392
0.0256204
0.0252194
0.0248387
0.0244768
0.0241353
0.023813
0.0235112
0.0232279
0.0229681
0.0227504
0.0225519
0.0223516
0.0221542
0.0219649
0.0217866
0.0216203
0.0214658
0.0213225
0.0211899
0.0210669
0.0209533
0.020848
0.0207511
0.0206614
0.0205793
0.0205034
0.0204343
0.0203706
0.0203119
0.0202567
0.0202071
0.0201619
0.0201219
0.0200859
0.0200535
0.0200251
0.0199982
0.0199743
0.0199529
0.019932
0.0199131
0.0198949
0.0198779
0.0198555
0.0198448
0.0197897
0.0198538
0.0197069
0.0180386
0.0802455
0.0722831
0.0542779
0.0423247
0.0369654
0.0348495
0.0343668
0.0345431
0.0349928
0.0355194
0.036013
0.0364585
0.0368279
0.0370536
0.0372017
0.0372408
0.0372105
0.0370935
0.0369037
0.0366729
0.0363698
0.036022
0.0356346
0.035211
0.0347621
0.0342864
0.0338059
0.0333125
0.032817
0.0323222
0.031832
0.0313513
0.0308806
0.0304247
0.0299831
0.0295594
0.0291525
0.0287651
0.0283963
0.0280479
0.0277187
0.0274132
0.0271554
0.0269261
0.0266989
0.0264761
0.026261
0.0260564
0.0258635
0.0256829
0.0255141
0.0253571
0.0252108
0.0250751
0.0249488
0.0248323
0.0247239
0.0246246
0.0245324
0.0244482
0.0243705
0.0242988
0.0242309
0.0241691
0.0241124
0.0240616
0.0240156
0.0239739
0.0239371
0.0239022
0.023871
0.0238427
0.023815
0.0237895
0.0237646
0.0237408
0.0237103
0.0236911
0.0236238
0.0236751
0.0234644
0.0226234
0.088874
0.0796031
0.0607327
0.0465993
0.0399796
0.0376008
0.0370706
0.0372351
0.0377018
0.0382913
0.0388813
0.0394537
0.0399663
0.040391
0.0407419
0.0409816
0.0411501
0.0412084
0.0411928
0.0411231
0.0409616
0.0407421
0.0404729
0.0401524
0.0397904
0.0393892
0.0389702
0.0385242
0.0380637
0.0375928
0.0371161
0.0366392
0.036164
0.0356964
0.0352367
0.0347899
0.0343555
0.0339373
0.0335349
0.0331509
0.0327847
0.0324411
0.0321483
0.0318912
0.0316399
0.0313947
0.0311575
0.0309304
0.0307142
0.0305103
0.0303182
0.0301385
0.0299699
0.029813
0.029666
0.02953
0.029403
0.0292862
0.0291774
0.0290777
0.0289856
0.0289003
0.028819
0.0287445
0.0286753
0.0286126
0.0285554
0.028503
0.0284565
0.0284121
0.0283718
0.0283349
0.0282987
0.0282645
0.0282309
0.0281977
0.0281562
0.0281251
0.0280421
0.0280753
0.0278085
0.0274453
0.0964214
0.0860371
0.0682453
0.0533616
0.0452133
0.0420183
0.0409743
0.0408238
0.0410777
0.041534
0.0420645
0.0426215
0.0431628
0.0436629
0.0441213
0.0444842
0.0448213
0.0450676
0.0452633
0.0453878
0.0453965
0.0453404
0.0452292
0.0450489
0.0448108
0.0445249
0.0442074
0.0438476
0.0434612
0.0430525
0.0426266
0.0421894
0.0417438
0.0412967
0.0408492
0.0404071
0.039971
0.0395453
0.0391307
0.0387302
0.0383442
0.0379775
0.0376619
0.0373858
0.0371177
0.0368572
0.0366051
0.0363625
0.0361302
0.0359094
0.0356996
0.0355022
0.0353158
0.0351414
0.0349773
0.0348246
0.0346814
0.0345491
0.0344255
0.0343119
0.0342066
0.0341088
0.0340152
0.0339286
0.0338474
0.0337732
0.0337047
0.0336415
0.0335847
0.0335302
0.0334801
0.0334337
0.0333876
0.0333435
0.0332994
0.0332551
0.0332005
0.0331546
0.0330534
0.033063
0.0327581
0.0325511
0.102435
0.0925476
0.076725
0.0623711
0.0534002
0.0489875
0.0468707
0.0459759
0.0457063
0.0457812
0.0460465
0.0463984
0.0468119
0.0472307
0.0476639
0.0480411
0.0484204
0.0487454
0.0490453
0.0493005
0.0494888
0.0496295
0.0497162
0.0497065
0.0496263
0.0494983
0.0493212
0.0490856
0.0488131
0.048507
0.0481713
0.047812
0.0474339
0.0470439
0.0466437
0.0462399
0.0458339
0.0454308
0.0450321
0.0446412
0.0442598
0.0438925
0.0435726
0.0432922
0.0430202
0.042756
0.0424999
0.0422529
0.0420149
0.0417873
0.0415695
0.0413632
0.0411671
0.0409827
0.040808
0.0406448
0.0404909
0.0403483
0.0402144
0.040091
0.0399761
0.0398693
0.0397665
0.0396708
0.0395803
0.0394968
0.0394191
0.0393466
0.0392809
0.0392173
0.0391582
0.0391028
0.0390473
0.0389932
0.0389387
0.0388827
0.0388148
0.038753
0.0386338
0.0386148
0.0382941
0.038051
0.106981
0.099014
0.0857461
0.0726599
0.0632937
0.0575699
0.0542412
0.0524491
0.0515289
0.0511074
0.0509822
0.0510035
0.0511666
0.0513784
0.0516608
0.0519361
0.0522336
0.0525211
0.052808
0.0530845
0.0533315
0.0535602
0.0537512
0.0539094
0.0540144
0.0540899
0.0540831
0.0540047
0.0538865
0.0537234
0.0535169
0.0532755
0.053005
0.0527115
0.0523971
0.0520691
0.0517296
0.0513842
0.0510348
0.0506856
0.050339
0.0499998
0.0497001
0.0494354
0.0491774
0.048926
0.0486814
0.0484445
0.0482149
0.0479941
0.0477814
0.0475787
0.0473846
0.0472011
0.0470262
0.0468621
0.0467066
0.0465618
0.0464254
0.0462992
0.0461815
0.0460717
0.0459656
0.0458664
0.0457717
0.0456838
0.0456014
0.0455238
0.0454529
0.0453836
0.0453187
0.0452571
0.0451949
0.0451334
0.0450707
0.0450052
0.0449263
0.0448503
0.044717
0.0446671
0.0443529
0.0440013
0.111567
0.105396
0.0947699
0.083035
0.0729326
0.0656314
0.0614697
0.0591084
0.0577543
0.0569623
0.056482
0.0561885
0.0560945
0.0560767
0.0561546
0.0562566
0.0563959
0.0565618
0.0567449
0.0569489
0.0571516
0.0573634
0.0575633
0.0577629
0.0579435
0.0581132
0.0582553
0.0583544
0.0584292
0.0584411
0.0583953
0.0583085
0.058185
0.0580267
0.057837
0.0576242
0.0573903
0.0571406
0.0568778
0.0566066
0.05633
0.0560527
0.0558026
0.0555783
0.0553572
0.0551397
0.0549262
0.0547179
0.0545144
0.0543175
0.0541263
0.053943
0.0537661
0.053598
0.0534367
0.0532848
0.0531399
0.0530047
0.0528768
0.0527582
0.0526473
0.0525438
0.0524432
0.0523489
0.0522583
0.0521737
0.0520939
0.0520183
0.0519489
0.0518803
0.0518156
0.0517537
0.0516903
0.0516269
0.0515614
0.051492
0.0514079
0.0513232
0.0511842
0.0511056
0.0508182
0.0503582
0.116368
0.111665
0.103285
0.0931808
0.0836326
0.0758293
0.0699548
0.0660331
0.0638814
0.062645
0.0618973
0.0614361
0.061211
0.0610422
0.0609359
0.0608582
0.0608339
0.060855
0.0608977
0.0609764
0.0610682
0.0611855
0.0613145
0.0614624
0.0616216
0.0617903
0.0619641
0.0621274
0.062288
0.0624282
0.0625467
0.062641
0.0626921
0.0626951
0.0626613
0.0625983
0.0625053
0.0623873
0.0622477
0.0620914
0.0619215
0.0617424
0.0615744
0.0614183
0.0612603
0.0611012
0.060942
0.0607843
0.0606281
0.0604753
0.0603251
0.06018
0.0600386
0.0599035
0.0597729
0.0596494
0.0595309
0.0594202
0.059315
0.0592176
0.0591263
0.0590412
0.0589581
0.0588802
0.0588048
0.0587345
0.0586678
0.0586043
0.058546
0.0584878
0.0584326
0.0583793
0.0583239
0.0582676
0.0582083
0.0581439
0.0580646
0.057981
0.0578491
0.0577514
0.0575075
0.0569789
0.120488
0.117212
0.110896
0.102878
0.0947513
0.0874854
0.0813568
0.0764749
0.0727231
0.0699494
0.0682203
0.067193
0.0665685
0.0660892
0.065764
0.0655373
0.065419
0.065326
0.0652338
0.0651734
0.0651246
0.065105
0.0651119
0.0651499
0.0652187
0.0653106
0.0654266
0.0655551
0.0657006
0.0658537
0.0660147
0.0661771
0.066336
0.0664819
0.0666135
0.0667157
0.0667785
0.0668119
0.0668203
0.0668065
0.0667726
0.0667229
0.0666661
0.0666043
0.0665343
0.0664578
0.0663765
0.0662922
0.0662054
0.066118
0.0660299
0.0659434
0.0658577
0.0657751
0.0656942
0.0656176
0.0655435
0.0654745
0.0654089
0.0653486
0.0652924
0.0652407
0.0651896
0.0651422
0.065096
0.0650532
0.0650128
0.0649745
0.0649399
0.0649047
0.0648714
0.0648389
0.0648037
0.0647669
0.0647264
0.06468
0.0646192
0.0645512
0.064443
0.0643444
0.0641579
0.0636221
0.123934
0.121728
0.117318
0.111509
0.105024
0.0985899
0.0928555