/*--------------------------------*- C++ -*----------------------------------*\
| =========                 |                                                 |
| \\      /  F ield         | OpenFOAM: The Open Source CFD Toolbox           |
|  \\    /   O peration     | Version:  5.x                                   |
|   \\  /    A nd           | Web:      www.OpenFOAM.org                      |
|    \\/     M anipulation  |                                                 |
\*---------------------------------------------------------------------------*/
FoamFile
{
    version     2.0;
    format      ascii;
    class       volScalarField;
    location    "250";
    object      p;
}
// * * * * * * * * * * * * * * * * * * * * * * * * * * * * * * * * * * * * * //

dimensions      [0 2 -2 0 0 0 0];

internalField   nonuniform List<scalar> 
11040
(
-0.00615933
-53.8179
-181.59
-216.377
-228.122
-235.316
-236.185
-230.702
-220.717
-206.83
-188.799
-161.159
-134.571
-115.587
-102.243
-88.0249
-73.605
-59.99
-47.1023
-34.6716
-22.6588
-12.3027
-3.66551
4.39475
11.9155
18.9041
25.3516
31.2455
36.5553
41.2286
45.1988
48.4154
50.8946
52.7096
54.0033
54.8781
55.156
54.8545
54.9022
57.0266
56.928
19.1226
-32.9445
-115.284
-157.466
-179.719
-196.063
-205.71
-207.947
-204.168
-195.315
-181.526
-158.575
-134.429
-115.777
-102.143
-88.0886
-73.8297
-60.2825
-47.434
-35.0335
-23.0385
-12.7039
-4.04682
4.03285
11.5744
18.5871
25.0634
30.9914
36.3386
41.0502
45.0614
48.3223
50.8411
52.6798
53.9894
54.8913
55.1997
54.8775
54.6998
56.2736
55.8741
31.8597
-18.6725
-78.0113
-127.372
-156.902
-176.491
-188.696
-193.371
-191.768
-184.971
-173.545
-154.499
-132.693
-114.481
-100.8
-87.2694
-73.4104
-60.0688
-47.3621
-35.0754
-23.1619
-12.8662
-4.22897
3.83737
11.3721
18.3847
24.8681
30.8097
36.1756
40.9116
44.9541
48.2515
50.804
52.6696
53.9953
54.9179
55.2556
54.9527
54.6906
55.8284
55.2338
40.6864
-4.5057
-48.9873
-94.0741
-125.518
-147.874
-163.799
-172.679
-174.921
-171.539
-163.367
-148.424
-129.537
-112.355
-98.8509
-85.909
-72.5691
-59.5395
-47.0547
-34.946
-23.1635
-12.952
-4.36337
3.67118
11.1852
18.1869
24.6694
30.6185
35.9999
40.76
44.8355
48.1726
50.7657
52.667
54.0123
54.9444
55.3016
55.0202
54.7174
55.5721
55.0865
47.5633
8.81287
-25.7484
-64.3527
-95.9698
-120.179
-138.572
-150.647
-156.303
-156.253
-151.367
-140.488
-125.001
-109.393
-96.2902
-83.963
-71.269
-58.6775
-46.5041
-34.6491
-23.0648
-12.9887
-4.48153
3.4936
10.9639
17.9359
24.4027
30.3488
35.7397
40.5228
44.6354
48.0226
50.6726
52.6286
54.0096
54.9544
55.3323
55.0861
54.7601
55.4831
55.3096
52.7541
20.4337
-7.13948
-39.186
-68.4953
-92.7321
-112.357
-126.83
-135.568
-138.838
-137.343
-130.488
-118.707
-105.23
-92.9214
-81.3209
-69.408
-57.3958
-45.6355
-34.1168
-22.8047
-12.9171
-4.53465
3.34282
10.7366
17.6504
24.0775
30.0011
35.3872
40.1847
44.3327
47.7764
50.4976
52.5287
53.9677
54.9398
55.3536
55.1763
54.8665
55.5533
55.7126
56.6584
30.1544
7.77118
-18.4417
-44.0823
-66.829
-86.3854
-102.114
-113.154
-119.357
-121.12
-118.124
-110.215
-99.4485
-88.4879
-77.8392
-66.8594
-55.5886
-44.3703
-33.2877
-22.333
-12.6986
-4.4933
3.24204
10.5203
17.3408
23.6966
29.5707
34.9299
39.7262
43.902
47.404
50.2079
52.3355
53.8605
54.8881
55.3681
55.306
55.0775
55.769
56.2421
59.5943
38.0257
19.6893
-1.61527
-23.2269
-43.4786
-61.8516
-77.6677
-90.002
-98.4067
-102.966
-103.425
-99.2915
-91.6431
-82.6138
-73.261
-63.4205
-53.091
-42.5832
-32.0651
-21.5764
-12.2787
-4.31519
3.2236
10.3384
17.0219
23.266
29.0537
34.3543
39.1239
43.3104
46.8642
49.7574
52.0006
53.6447
54.7721
55.3688
55.4814
55.4096
56.1567
56.8927
61.786
44.2549
29.1605
11.8775
-5.93819
-23.2602
-39.6743
-54.582
-67.1592
-76.836
-83.4579
-86.7345
-85.9855
-81.5632
-74.9315
-67.2756
-58.8338
-49.6813
-40.0961
-30.308
-20.4204
-11.5616
-3.91891
3.35365
10.2443
16.7367
22.8192
28.4742
33.6734
38.3786
42.5452
46.1302
49.1058
51.4746
53.2688
54.5504
55.3327
55.6958
55.8669
56.7513
57.6537
63.3934
49.1084
36.6429
22.6198
8.11283
-6.29837
-20.3876
-33.7202
-45.6539
-55.653
-63.4444
-68.7064
-70.6826
-69.2494
-65.2275
-59.6121
-52.8435
-45.1135
-36.6902
-27.8368
-18.718
-10.4223
-3.19503
3.72575
10.3179
16.5553
22.4188
27.8884
32.9373
37.5325
41.6375
45.2179
48.2506
50.7354
52.6949
54.1768
55.213
55.9063
56.4118
57.5193
58.5206
64.5439
52.8532
42.5299
31.1368
19.3934
7.61056
-4.13639
-15.585
-26.2804
-35.813
-43.9038
-50.2453
-54.1076
-55.1097
-53.5698
-50.1441
-45.2581
-39.1674
-32.139
-24.4443
-16.2922
-8.71028
-2.01193
4.45556
10.6607
16.5678
22.1479
27.3755
32.2234
36.6623
40.6622
44.1968
47.2494
49.8221
51.9361
53.6336
54.9574
56.0229
56.9236
58.308
59.4405
65.3438
55.7287
47.1572
37.8814
28.3936
18.8531
9.24663
-0.29301
-9.47505
-18.0253
-25.727
-32.3274
-37.2025
-39.8882
-40.3835
-39.013
-36.0505
-31.7206
-26.2635
-19.9311
-12.9482
-6.24764
-0.209831
5.68735
11.4023
16.8906
22.1119
27.0335
31.6263
35.8621
39.7154
43.1655
46.201
48.8268
51.0661
52.959
54.5521
55.9607
57.2421
58.8857
60.2329
65.8845
57.9386
50.8052
43.2338
35.5648
27.8745
20.108
12.3179
4.67348
-2.65366
-9.53093
-15.7796
-20.9163
-24.5083
-26.4024
-26.6862
-25.4572
-22.8412
-19.0112
-14.1683
-8.51801
-2.85688
2.38551
7.5891
12.7016
17.6712
22.4474
26.9891
31.2637
35.2431
38.9036
42.228
45.2078
47.849
50.1743
52.2194
54.0265
55.6951
57.2701
59.0773
60.6683
66.242
59.6488
53.7018
47.5051
41.2954
35.1039
28.8622
22.5795
16.3479
10.2666
4.40309
-1.13485
-6.00004
-9.84692
-12.4859
-13.8783
-13.9942
-12.8529
-10.5388
-7.17915
-2.93025
1.58394
5.9203
10.3217
14.7272
19.0793
23.3195
27.4002
31.2851
34.9446
38.3553
41.5011
44.3744
46.9797
49.3363
51.4712
53.4166
55.2453
56.9965
58.8541
60.5824
66.4751
60.9881
56.0249
50.9409
45.9015
40.9134
35.909
30.8768
25.8638
20.9224
16.0838
11.3999
7.10511
3.45033
0.601518
-1.36019
-2.3451
-2.30095
-1.23435
0.802018
3.71504
7.06761
10.4463
13.9799
17.6045
21.2614
24.8878
28.4319
31.8544
35.1249
38.2198
41.1219
43.8221
46.3215
48.6337
50.7754
52.7664
54.6525
56.4628
58.2856
60.0074
66.6372
62.0627
57.918
53.7366
49.6361
45.6106
41.5982
37.5799
33.5776
29.617
25.7089
21.8724
18.2591
15.0402
12.3387
10.2328
8.82123
8.18414
8.36097
9.35451
11.1289
13.4181
15.8727
18.5417
21.3661
24.2913
27.257
30.2112
33.114
35.9341
38.6471
41.2351
43.6869
45.9993
48.1786
50.2316
52.1664
54.0088
55.7759
57.5047
59.1369
66.787
62.9704
59.5093
56.0633
52.7187
49.462
46.2396
43.0308
39.8447
36.6927
33.5748
30.4958
27.5494
24.8489
22.4778
20.4957
18.985
18.0236
17.666
17.9437
18.8586
20.2761
21.9269
23.8142
25.8897
28.1075
30.4151
32.7659
35.1225
37.4549
39.7388
41.9555
44.0915
46.1396
48.1005
49.9734
51.758
53.4668
55.1074
56.6919
58.1911
66.9194
63.7035
60.782
57.9052
55.14
52.4679
49.8424
47.2447
44.6778
42.1465
39.6471
37.1793
34.802
32.588
30.5925
28.857
27.4426
26.4123
25.8169
25.6948
26.0649
26.8738
27.9253
29.2028
30.6709
32.2938
34.0293
35.8389
37.6906
39.5578
41.4182
43.2535
45.0495
46.7966
48.4914
50.1286
51.703
53.2198
54.6811
56.0878
57.4269
67.0267
64.2752
61.7713
59.3294
57.0029
54.7703
52.5913
50.4492
48.3439
46.2767
44.2427
42.2394
40.3066
38.4926
36.8338
35.3586
34.1108
33.1373
32.4795
32.1722
32.238
32.6666
33.316
34.165
35.1891
36.3614
37.6495
39.0231
40.4564
41.9269
43.4153
44.9051
46.3829
47.8384
49.266
50.6584
52.0086
53.3173
54.5835
55.8033
56.9715
67.1248
64.7404
62.5676
60.4658
58.4788
56.5838
54.7454
52.9492
51.1935
49.478
47.7976
46.1495
44.5612
43.0664
41.6889
40.4485
39.3763
38.5065
37.8706
37.497
37.4065
37.6084
37.9988
38.5579
39.2696
40.1137
41.0659
42.1029
43.2045
44.3525
45.5308
46.7253
47.924
49.1172
50.2987
51.4607
52.5958
53.703
54.7793
55.8196
56.8214
67.2183
65.1312
63.2269
61.3979
59.6808
58.0522
56.4812
54.9551
53.4716
52.0293
50.6235
49.2515
47.9329
46.6918
45.5446
44.5046
43.5943
42.8385
42.2605
41.8822
41.7206
41.7928
42.0203
42.3871
42.8827
43.4922
44.1969
44.9796
45.8243
46.7169
47.6442
48.5947
49.558
50.5256
51.4916
52.4486
53.3898
54.3132
55.2155
56.0913
56.939
67.3098
65.4677
63.7852
62.1795
60.6812
59.2674
57.9106
56.6
55.3326
54.1067
52.9181
51.7641
50.6592
49.621
48.6609
47.7882
47.0191
46.3717
45.8629
45.5092
45.3237
45.3249
45.4521
45.6928
46.0405
46.4838
47.0085
47.6014
48.2504
48.9444
49.6729
50.4265
51.1968
51.9765
52.7603
53.5417
54.3149
55.0777
55.8267
56.5571
57.2674
67.3995
65.7624
64.2657
62.8455
61.5277
60.2901
59.1082
57.9725
56.88
55.8285
54.8144
53.8352
52.9018
52.0271
51.2196
50.4852
49.8361
49.2853
48.8453
48.5282
48.3436
48.3088
48.3753
48.5339
48.7808
49.1068
49.501
49.9534
50.4546
50.9959
51.5691
52.1666
52.7816
53.4081
54.0416
54.6766
55.3083
55.9346
56.5523
57.1576
57.7485
67.4872
66.0236
64.6844
63.4204
62.2536
61.1624
60.1254
59.1339
58.1849
57.2761
56.4042
55.567
54.7728
54.0312
53.3483
52.7283
52.1799
51.7129
51.3361
51.0585
50.8869
50.8364
50.867
50.9724
51.1504
51.3935
51.6932
52.0416
52.4315
52.8561
53.3089
53.7838
54.2754
54.7789
55.2905
55.8056
56.3204
56.8331
57.3407
57.8403
58.3296
67.5727
66.2572
65.0529
63.9217
62.8824
61.9146
60.999
60.1278
59.298
58.5074
57.7529
57.0326
56.3525
55.7202
55.1398
54.6145
54.1504
53.7547
53.4339
53.1944
53.0409
52.986
52.996
53.067
53.1976
53.3819
53.6127
53.8839
54.19
54.5255
54.8852
55.2644
55.6588
56.0643
56.478
56.8961
57.3155
57.7349
58.1515
58.5632
58.9673
67.6555
66.4675
65.3795
64.3622
63.4318
62.5688
61.7559
60.9861
60.2566
59.5649
58.9083
58.2851
57.6997
57.1578
56.6624
56.2157
55.8221
55.4868
55.2144
55.0096
54.8755
54.8222
54.8211
54.8698
54.9678
55.1097
55.29
55.5036
55.7463
56.0136
56.3014
56.606
56.9238
57.2516
57.5872
57.9274
58.2697
58.613
58.9552
59.2944
59.628
67.7352
66.6577
65.6706
64.7518
63.9148
63.1416
62.4165
61.7331
61.0886
60.4805
59.9063
59.3644
58.8581
58.3917
57.9672
57.5862
57.2516
56.9672
56.7364
56.5623
56.447
56.3984
56.3917
56.426
56.501
56.6124
56.7551
56.9255
57.1198
57.3346
57.5667
57.8129
58.0705
58.3369
58.6102
58.8879
59.1682
59.4499
59.7314
60.0114
60.2869
67.8116
66.8302
65.9312
65.0979
64.3419
63.6461
62.9965
62.3871
61.8152
61.2784
60.7742
60.301
59.8614
59.4584
59.0935
58.7674
58.4825
58.2411
58.0456
57.8983
57.8001
57.7574
57.7486
57.7736
57.8324
57.9212
58.0359
58.1733
58.3305
58.5047
58.6933
58.8937
59.1038
59.3215
59.5452
59.7729
60.0031
60.2351
60.4674
60.6989
60.9269
67.8843
66.987
66.1652
65.4065
64.721
64.0924
63.5081
62.9626
62.4532
61.9774
61.5331
61.1185
60.7355
60.3862
60.0715
59.7918
59.5486
59.3436
59.1781
59.0538
58.971
58.9346
58.9255
58.9444
58.9916
59.0636
59.157
59.2691
59.3975
59.5401
59.6945
59.8588
60.0312
60.2101
60.3941
60.5817
60.7717
60.9635
61.1557
61.3478
61.5369
67.9532
67.1297
66.3758
65.6826
65.0585
64.4885
63.961
63.471
63.0157
62.5927
62.1998
61.8354
61.5007
61.1972
60.9252
60.6848
60.4769
60.3026
60.1627
60.0581
59.9888
59.9583
59.9501
59.9651
60.0037
60.0631
60.1401
60.2325
60.3384
60.456
60.5834
60.7191
60.8614
61.0093
61.1615
61.3168
61.4742
61.6333
61.793
61.9529
62.1103
68.0182
67.2596
66.5656
65.9298
65.3597
64.841
64.3632
63.9215
63.5133
63.1361
62.7877
62.4666
62.1734
61.909
61.6735
61.4666
61.2888
61.1406
61.0223
60.9345
60.8768
60.8519
60.845
60.8576
60.8899
60.9395
61.0037
61.0807
61.1688
61.2666
61.3725
61.4851
61.6034
61.7263
61.8528
61.9819
62.113
62.2455
62.3787
62.5122
62.6435
68.0794
67.3778
66.7367
66.1516
65.6288
65.1552
64.7209
64.3216
63.9546
63.6173
63.3077
63.0241
62.7668
62.5361
62.3319
62.1536
62.0014
61.8754
61.7756
61.7022
61.6545
61.6345
61.6293
61.6402
61.6678
61.7099
61.764
61.8287
61.9026
61.9844
62.073
62.1672
62.266
62.3686
62.4742
62.5821
62.6917
62.8025
62.9139
63.0258
63.1357
68.1365
67.4853
66.8908
66.3505
65.8694
65.4355
65.0395
64.6775
64.3465
64.0443
63.7685
63.5176
63.2914
63.0899
62.9126
62.759
62.6287
62.5217
62.4377
62.3765
62.3375
62.3219
62.3182
62.3282
62.3522
62.3883
62.4343
62.4892
62.5516
62.6206
62.6951
62.7742
62.8572
62.9433
63.0319
63.1224
63.2142
63.3072
63.4007
63.4947
63.5869
68.1898
67.5828
67.0296
66.5287
66.0845
65.6855
65.3234
64.9941
64.695
64.4235
64.1775
63.9551
63.7561
63.5799
63.4261
63.2937
63.1823
63.0916
63.0211
62.9704
62.9388
62.927
62.925
62.9343
62.9555
62.9868
63.0264
63.0733
63.1264
63.1849
63.2479
63.3147
63.3847
63.4572
63.5319
63.608
63.6853
63.7636
63.8423
63.9215
63.999
68.2391
67.6711
67.1542
66.6882
66.2764
65.9083
65.576
65.2758
65.0048
64.7605
64.5406
64.3434
64.1681
64.0141
63.8807
63.7667
63.6717
63.595
63.5361
63.4944
63.469
63.4606
63.46
63.4691
63.4881
63.5155
63.5498
63.5901
63.6355
63.6854
63.739
63.7957
63.855
63.9163
63.9793
64.0436
64.1089
64.1749
64.2413
64.3081
64.3734
68.2845
67.7506
67.2658
66.8304
66.4472
66.1064
65.8006
65.5261
65.28
65.0597
64.8629
64.6879
64.5335
64.399
64.2834
64.1855
64.1047
64.0401
63.9912
63.9573
63.9374
63.9319
63.9327
63.9416
63.9589
63.9833
64.0133
64.0482
64.0873
64.1301
64.1759
64.2242
64.2745
64.3266
64.38
64.4344
64.4896
64.5454
64.6015
64.658
64.7131
68.326
67.8219
67.3652
66.9567
66.5987
66.2819
65.9995
65.7478
65.5238
65.3249
65.1487
64.9932
64.8574
64.74
64.64
64.5563
64.4878
64.4338
64.3935
64.3662
64.3511
64.3481
64.3502
64.359
64.3749
64.3967
64.4231
64.4535
64.4874
64.5243
64.5635
64.6048
64.6477
64.692
64.7374
64.7835
64.8303
64.8776
64.925
64.9729
65.0194
68.3638
67.8854
67.4531
67.0682
66.7322
66.4366
66.1749
65.9434
65.7391
65.5592
65.4013
65.2633
65.1439
65.0417
64.9556
64.8842
64.8266
64.7819
64.7492
64.7278
64.7168
64.7161
64.7194
64.7284
64.7434
64.7631
64.7866
64.8134
64.843
64.8749
64.9087
64.9442
64.9809
65.0187
65.0573
65.0965
65.1362
65.1763
65.2165
65.257
65.2962
68.3978
67.9413
67.5302
67.1657
66.849
66.572
66.3286
66.115
65.9282
65.7653
65.6238
65.5014
65.3965
65.3079
65.234
65.1736
65.1256
65.089
65.0629
65.0466
65.039
65.0403
65.0447
65.0538
65.0678
65.0858
65.1069
65.1305
65.1564
65.1842
65.2135
65.244
65.2755
65.3079
65.3408
65.3742
65.408
65.442
65.476
65.5103
65.5435
68.4281
67.9902
67.597
67.25
66.9499
66.6891
66.4618
66.2642
66.0931
65.9454
65.8185
65.71
65.6183
65.5418
65.4789
65.4283
65.3889
65.3596
65.3395
65.3279
65.3237
65.3269
65.3326
65.3422
65.3558
65.3725
65.3918
65.413
65.436
65.4604
65.4859
65.5123
65.5395
65.5672
65.5954
65.6239
65.6526
65.6814
65.7103
65.7393
65.7672
68.4547
68.032
67.6539
67.3218
67.0359
66.7891
66.576
66.3925
66.2352
66.1011
65.9874
65.8915
65.8116
65.746
65.693
65.6511
65.6193
65.5963
65.5814
65.5736
65.5722
65.5768
65.5834
65.5932
65.6062
65.6218
65.6393
65.6584
65.6788
65.7003
65.7226
65.7456
65.7691
65.7931
65.8173
65.8416
65.8661
65.8906
65.9151
65.9397
65.9633
68.4777
68.067
67.7012
67.3813
67.1073
66.8727
66.6718
66.5008
66.3559
66.234
66.1321
66.0477
65.9785
65.9227
65.8788
65.845
65.8203
65.8036
65.7938
65.7902
65.7919
65.7986
65.8067
65.8173
65.8305
65.8456
65.8622
65.8798
65.8984
65.9177
65.9376
65.9578
65.9783
65.9989
66.0197
66.0406
66.0614
66.0822
66.1029
66.1237
66.1435
68.497
68.0951
67.7386
67.4285
67.1644
66.94
66.7498
66.5898
66.456
66.3451
66.254
66.1798
66.1204
66.0736
66.0377
66.0112
65.9926
65.9808
65.975
65.9743
65.9781
65.9858
65.9947
66.0055
66.0184
66.0328
66.0481
66.0643
66.0812
66.0985
66.1161
66.134
66.152
66.17
66.1881
66.2062
66.2241
66.242
66.2596
66.2773
66.2941
68.5127
68.1166
67.7668
67.464
67.2075
66.9914
66.8102
66.6597
66.5359
66.4349
66.3536
66.289
66.2386
66.2003
66.1724
66.1532
66.1413
66.1356
66.135
66.1388
66.1461
66.1565
66.1675
66.1799
66.1937
66.2085
66.2238
66.2395
66.2555
66.2716
66.2877
66.3039
66.3199
66.3357
66.3514
66.3669
66.3822
66.3973
66.4122
66.4269
66.441
68.525
68.1323
67.787
67.4893
67.2384
67.0286
66.8546
66.712
66.5965
66.5043
66.4317
66.3758
66.3336
66.3029
66.2817
66.2681
66.2608
66.2588
66.261
66.2668
66.2755
66.2867
66.2983
66.311
66.3247
66.339
66.3536
66.3684
66.3833
66.3981
66.4129
66.4275
66.4419
66.4561
66.47
66.4838
66.4972
66.5105
66.5234
66.5362
66.5484
68.5338
68.1412
67.7978
67.5033
67.2563
67.0516
66.8836
66.7476
66.6393
66.5546
66.4897
66.4415
66.4073
66.3848
66.3717
66.3664
66.3672
66.3726
66.3816
66.3932
66.4067
66.4216
66.4365
66.4518
66.4674
66.4831
66.4987
66.5139
66.5288
66.5434
66.5575
66.5713
66.5845
66.5974
66.6098
66.6217
66.6333
66.6445
66.6553
66.6658
66.6758
68.5377
68.1392
67.7929
67.4979
67.2525
67.0512
66.8885
66.7591
66.6582
66.5811
66.524
66.4831
66.4554
66.4383
66.4295
66.4274
66.4305
66.4378
66.4484
66.4617
66.4764
66.4921
66.5076
66.5234
66.5392
66.5548
66.5701
66.585
66.5994
66.6133
66.6268
66.6397
66.6521
66.664
66.6754
66.6863
66.6968
66.7068
66.7165
66.7257
66.7348
68.5365
68.1279
67.7748
67.4758
67.2288
67.0286
66.8691
66.7448
66.6503
66.5811
66.5328
66.5019
66.4854
66.4805
66.4848
66.496
66.5121
66.5314
66.5524
66.574
66.5955
66.6167
66.637
66.6567
66.6756
66.6937
66.7109
66.7271
66.7425
66.7569
66.7705
66.7833
66.7954
66.8067
66.8173
66.8273
66.8367
66.8455
66.8539
66.8618
66.8695
62.3586
66.4283
69.7603
71.6748
72.8328
73.6066
74.0464
74.2428
74.2802
74.2096
74.068
73.882
73.6709
73.4473
73.2197
72.9942
72.7746
72.5633
72.3617
72.1705
71.9901
71.8204
71.6611
71.512
71.3725
71.2422
71.1206
71.0071
70.9012
70.8024
70.7101
70.6238
70.543
70.4672
70.3959
70.3288
70.2653
70.2055
70.1491
70.0963
70.0469
70.001
69.9583
69.9183
69.8805
69.8448
69.8104
69.7773
69.7454
69.7144
69.6843
69.6553
69.6272
69.6
69.5739
69.5487
69.5246
69.5014
69.4791
69.4577
69.4372
69.4175
69.3986
69.3805
69.3632
69.3466
69.3308
69.3161
69.3018
69.2901
69.2767
69.2714
69.2543
69.2684
61.7587
66.1474
69.6212
71.6738
72.8949
73.6772
74.1077
74.291
74.3148
74.232
74.0798
73.8852
73.6671
73.438
73.2063
72.9775
72.7556
72.5426
72.3397
72.1478
71.967
71.7972
71.638
71.4891
71.3501
71.2203
71.0992
70.9864
70.8811
70.783
70.6913
70.6057
70.5255
70.4504
70.3798
70.3133
70.2505
70.1911
70.135
70.0824
70.0333
69.9877
69.9453
69.9059
69.869
69.8341
69.8007
69.7686
69.7375
69.7074
69.678
69.6497
69.622
69.5953
69.5695
69.5445
69.5205
69.4973
69.475
69.4536
69.4331
69.4133
69.3944
69.3763
69.3589
69.3424
69.3266
69.3119
69.2977
69.286
69.2727
69.2676
69.2505
69.2648
61.306
65.4592
69.2849
71.5938
72.9253
73.7421
74.1754
74.3478
74.3563
74.2587
74.0939
73.8889
73.6625
73.427
73.1903
72.958
72.7333
72.5184
72.3143
72.1217
71.9405
71.7706
71.6116
71.4632
71.3246
71.1954
71.0751
70.963
70.8586
70.7612
70.6704
70.5855
70.5062
70.4319
70.3621
70.2963
70.2341
70.1753
70.1196
70.0674
70.0186
69.9734
69.9315
69.8928
69.8566
69.8226
69.7902
69.7591
69.729
69.6997
69.6711
69.6434
69.6163
69.59
69.5644
69.5397
69.5158
69.4927
69.4705
69.4491
69.4285
69.4088
69.3898
69.3717
69.3544
69.3378
69.3221
69.3075
69.2933
69.2817
69.2685
69.2635
69.2466
69.2611
61.0542
64.8577
68.8582
71.4127
72.8976
73.775
74.2281
74.402
74.4005
74.2886
74.1096
73.8926
73.6566
73.4137
73.1713
72.9348
72.7072
72.4902
72.2848
72.0914
71.91
71.7402
71.5815
71.4336
71.2957
71.1673
71.0479
70.9367
70.8333
70.7369
70.647
70.5632
70.4847
70.4114
70.3425
70.2776
70.2162
70.158
70.103
70.0513
70.0029
69.9582
69.917
69.8789
69.8435
69.8104
69.7788
69.7486
69.7195
69.691
69.6632
69.6361
69.6095
69.5837
69.5585
69.534
69.5103
69.4874
69.4653
69.444
69.4235
69.4038
69.3849
69.3668
69.3495
69.3331
69.3174
69.3029
69.2888
69.2773
69.2642
69.2593
69.2426
69.2572
61.1035
64.6129
68.5015
71.1594
72.797
73.7597
74.2468
74.4315
74.4301
74.3116
74.1222
73.8937
73.6475
73.3964
73.1478
72.9066
72.6758
72.4567
72.2499
72.0559
71.8743
71.7047
71.5466
71.3994
71.2625
71.1351
71.0168
70.9068
70.8045
70.7094
70.6207
70.538
70.4607
70.3884
70.3206
70.2567
70.1962
70.1389
70.0847
70.0336
69.986
69.9419
69.9013
69.8639
69.8293
69.7971
69.7665
69.7372
69.7089
69.6813
69.6542
69.6278
69.6019
69.5765
69.5517
69.5276
69.5042
69.4814
69.4595
69.4384
69.418
69.3984
69.3796
69.3616
69.3444
69.328
69.3124
69.298
69.2841
69.2727
69.2598
69.2549
69.2384
69.2532
61.3103
64.6548
68.3188
70.9438
72.6495
73.6852
74.2207
74.4258
74.4278
74.3081
74.1159
73.8826
73.6299
73.3718
73.1172
72.8713
72.6373
72.416
72.2081
72.0136
71.8321
71.663
71.5057
71.3596
71.2238
71.0979
70.9809
70.8724
70.7716
70.6779
70.5907
70.5094
70.4335
70.3625
70.296
70.2332
70.1739
70.1177
70.0644
70.0142
69.9673
69.924
69.8842
69.8477
69.814
69.7827
69.753
69.7247
69.6973
69.6706
69.6443
69.6186
69.5932
69.5684
69.5441
69.5203
69.4973
69.4748
69.4531
69.4321
69.4119
69.3925
69.3738
69.3559
69.3389
69.3226
69.3072
69.2928
69.279
69.2678
69.255
69.2503
69.234
69.249
61.5883
64.8579
68.2995
70.8444
72.5221
73.5715
74.1434
74.3782
74.3909
74.2704
74.0755
73.8411
73.5885
73.33
73.0734
72.825
72.5886
72.3658
72.1571
71.9626
71.7816
71.6134
71.4573
71.3127
71.1786
71.0544
70.9393
70.8326
70.7336
70.6418
70.5563
70.4768
70.4025
70.3331
70.268
70.2067
70.1488
70.0937
70.0416
69.9925
69.9467
69.9043
69.8654
69.8299
69.7971
69.7668
69.7382
69.7108
69.6844
69.6586
69.6331
69.6082
69.5836
69.5593
69.5355
69.5122
69.4896
69.4674
69.446
69.4253
69.4053
69.3861
69.3676
69.3499
69.3329
69.3168
69.3016
69.2874
69.2738
69.2626
69.2501
69.2455
69.2295
69.2446
61.9616
65.113
68.3413
70.8148
72.4457
73.4646
74.0344
74.2858
74.3142
74.2004
74.0038
73.765
73.5107
73.2542
73.0016
72.7569
72.523
72.3015
72.0936
71.9
71.7203
71.5538
71.3996
71.2571
71.1252
71.0032
70.8905
70.7861
70.6895
70.5999
70.5166
70.4392
70.367
70.2995
70.2362
70.1766
70.1202
70.0667
70.016
69.9682
69.9236
69.8824
69.8447
69.8102
69.7785
69.7493
69.7217
69.6954
69.67
69.6452
69.6206
69.5965
69.5727
69.5491
69.5259
69.5032
69.4809
69.4592
69.4382
69.4178
69.3981
69.3791
69.3608
69.3433
69.3266
69.3107
69.2956
69.2816
69.2682
69.2572
69.2449
69.2404
69.2247
69.2399
62.5042
65.3916
68.3218
70.7433
72.3676
73.3656
73.9179
74.1647
74.1987
74.0934
73.9019
73.6626
73.4046
73.1448
72.8925
72.6525
72.4259
72.2117
72.0098
71.8207
71.6445
71.481
71.3298
71.1903
71.0615
70.9426
70.8329
70.7315
70.6378
70.551
70.4705
70.3957
70.3259
70.2607
70.1996
70.1421
70.0876
70.036
69.987
69.9408
69.8977
69.8579
69.8215
69.7883
69.7578
69.7298
69.7034
69.6782
69.6539
69.6301
69.6066
69.5834
69.5604
69.5376
69.5152
69.493
69.4713
69.4501
69.4295
69.4095
69.3901
69.3715
69.3535
69.3362
69.3198
69.3041
69.2892
69.2755
69.2622
69.2515
69.2394
69.2351
69.2196
69.235
63.1966
65.6762
68.2131
70.5497
72.1758
73.1821
73.7597
74.0219
74.061
73.9568
73.7676
73.5317
73.2753
73.0142
72.7588
72.5171
72.2926
72.0846
71.8919
71.7128
71.5455
71.3891
71.2437
71.109
70.9846
70.8699
70.7642
70.6668
70.5768
70.4936
70.4165
70.3449
70.2781
70.2158
70.1574
70.1023
70.0502
70.0007
69.9539
69.9097
69.8684
69.8303
69.7955
69.7637
69.7347
69.7079
69.6828
69.6589
69.6358
69.6132
69.5908
69.5687
69.5466
69.5247
69.5031
69.4816
69.4606
69.44
69.4199
69.4003
69.3814
69.3631
69.3455
69.3286
69.3124
69.2971
69.2825
69.2689
69.256
69.2454
69.2336
69.2295
69.2143
69.2299
63.8017
65.8547
67.9566
70.1513
71.7883
72.8219
73.4471
73.7712
73.8619
73.7879
73.6121
73.3807
73.1246
72.8629
72.6068
72.3642
72.1385
71.9304
71.7407
71.5685
71.4113
71.2663
71.1318
71.0066
70.8899
70.7816
70.6816
70.5894
70.5042
70.4256
70.3528
70.2852
70.2223
70.1634
70.1082
70.0562
70.0069
69.9602
69.9158
69.874
69.835
69.7989
69.7659
69.7359
69.7085
69.6833
69.6596
69.6372
69.6155
69.5942
69.573
69.552
69.5311
69.5102
69.4895
69.4689
69.4486
69.4287
69.4092
69.3903
69.3718
69.354
69.3368
69.3203
69.3045
69.2895
69.2752
69.262
69.2493
69.239
69.2274
69.2235
69.2088
69.2245
63.9893
65.7258
67.4477
69.417
71.0407
72.1417
72.8542
73.2801
73.4714
73.4838
73.375
73.1893
72.9577
72.7051
72.4497
72.2038
71.974
71.763
71.5719
71.4008
71.2473
71.1094
70.9851
70.8719
70.7674
70.6701
70.5796
70.4953
70.417
70.3444
70.2772
70.2147
70.1565
70.102
70.0508
70.0025
69.9567
69.9131
69.8719
69.8329
69.7966
69.763
69.7323
69.7043
69.6788
69.6553
69.6334
69.6126
69.5924
69.5726
69.5528
69.5332
69.5135
69.4938
69.4741
69.4546
69.4352
69.4161
69.3974
69.3791
69.3613
69.3441
69.3274
69.3113
69.296
69.2813
69.2674
69.2545
69.2421
69.2321
69.2209
69.2172
69.2029
69.2188
63.6727
65.1982
66.6548
68.3424
69.8541
70.9855
71.7986
72.3662
72.7159
72.8788
72.8996
72.8203
72.6731
72.483
72.269
72.0447
71.8213
71.6076
71.4095
71.2308
71.0721
70.9328
70.8114
70.7051
70.6109
70.526
70.4485
70.3766
70.309
70.2457
70.1863
70.1306
70.0784
70.0294
69.9833
69.9395
69.898
69.8584
69.8208
69.7854
69.7522
69.7216
69.6936
69.6681
69.6449
69.6235
69.6036
69.5846
69.5662
69.5481
69.53
69.5119
69.4936
69.4753
69.4569
69.4384
69.4202
69.402
69.3842
69.3667
69.3496
69.3331
69.317
69.3015
69.2867
69.2725
69.259
69.2465
69.2345
69.2248
69.214
69.2105
69.1967
69.2128
62.9375
64.2968
65.5833
67.0174
68.366
69.4714
70.3436
71.0213
71.5181
71.8483
72.0385
72.1179
72.1111
72.0394
71.9217
71.7739
71.6087
71.4351
71.2597
71.0879
70.9252
70.776
70.6438
70.5299
70.4333
70.3522
70.2836
70.2241
70.1705
70.1208
70.0736
70.0283
69.9846
69.9429
69.9031
69.8651
69.8288
69.7942
69.7612
69.73
69.7008
69.6737
69.649
69.6264
69.6059
69.587
69.5694
69.5526
69.5363
69.5202
69.504
69.4876
69.4711
69.4543
69.4373
69.4203
69.4032
69.3863
69.3695
69.3529
69.3368
69.321
69.3056
69.2908
69.2766
69.263
69.25
69.238
69.2264
69.2171
69.2067
69.2034
69.1902
69.2064
61.9095
63.1286
64.2974
65.545
66.7413
67.7879
68.6755
69.4172
70.0165
70.4781
70.816
71.0488
71.1942
71.268
71.2843
71.2553
71.1916
71.1025
70.9962
70.8794
70.7574
70.6339
70.5119
70.3953
70.288
70.1938
70.115
70.0515
70.0011
69.961
69.9274
69.897
69.8674
69.8376
69.8074
69.7771
69.7473
69.7185
69.6909
69.6649
69.6405
69.6179
69.5971
69.5782
69.5609
69.545
69.5302
69.516
69.5021
69.4883
69.4742
69.46
69.4454
69.4304
69.4152
69.3997
69.3841
69.3685
69.353
69.3376
69.3224
69.3076
69.2931
69.2791
69.2656
69.2526
69.2402
69.2287
69.2177
69.2088
69.1988
69.1959
69.1832
69.1998
60.7303
61.8318
62.9018
64.0098
65.0799
66.0566
66.9297
67.6996
68.363
68.9183
69.3705
69.729
70.0048
70.2094
70.3537
70.4482
70.5016
70.5214
70.5136
70.4836
70.4359
70.3753
70.3056
70.2304
70.1523
70.0732
69.9955
69.9225
69.858
69.805
69.7643
69.7346
69.7132
69.6966
69.6815
69.6657
69.6482
69.6291
69.6092
69.5893
69.5704
69.5527
69.5366
69.522
69.5087
69.4964
69.4849
69.4738
69.4628
69.4516
69.4402
69.4284
69.416
69.4032
69.39
69.3764
69.3625
69.3485
69.3344
69.3204
69.3065
69.2927
69.2793
69.2662
69.2535
69.2413
69.2296
69.2187
69.2083
69.1999
69.1905
69.1879
69.1759
69.1928
59.5452
60.5389
61.5131
62.503
63.465
64.369
65.2074
65.9762
66.6696
67.283
67.816
68.2713
68.6537
68.9693
69.2251
69.4286
69.5873
69.708
69.7969
69.8592
69.8989
69.9196
69.924
69.9147
69.8943
69.8656
69.8306
69.7912
69.7485
69.7035
69.6584
69.6162
69.5803
69.5527
69.5337
69.5217
69.514
69.508
69.5017
69.494
69.4851
69.4755
69.4658
69.4566
69.448
69.4401
69.4325
69.425
69.4174
69.4095
69.4011
69.3921
69.3824
69.3722
69.3613
69.3499
69.3381
69.3259
69.3135
69.3011
69.2886
69.2762
69.2639
69.2519
69.2402
69.2289
69.218
69.2079
69.1981
69.1903
69.1815
69.1794
69.1681
69.1855
58.5787
59.4651
60.3407
61.2209
62.0826
62.9096
63.6961
64.4373
65.1272
65.7609
66.3354
66.85
67.3052
67.7032
68.047
68.3409
68.5895
68.7977
68.9705
69.1127
69.2287
69.3222
69.3962
69.4532
69.495
69.523
69.5387
69.5439
69.5405
69.5305
69.5157
69.4974
69.4762
69.4533
69.4306
69.4105
69.3953
69.386
69.3819
69.3814
69.3823
69.383
69.3827
69.3813
69.3791
69.3765
69.3736
69.3704
69.3668
69.3625
69.3575
69.3517
69.3451
69.3376
69.3294
69.3205
69.311
69.3009
69.2905
69.2798
69.269
69.2581
69.2472
69.2364
69.2258
69.2156
69.2056
69.1963
69.1873
69.1801
69.172
69.1704
69.1598
69.1778
57.9475
58.7247
59.4989
60.2741
61.0392
61.7855
62.5082
63.2028
63.8641
64.4876
65.0695
65.6076
66.1002
66.547
66.9486
67.3065
67.6227
67.9001
68.1418
68.3509
68.5309
68.685
68.8162
68.9273
69.0205
69.0979
69.1609
69.211
69.2494
69.2774
69.2966
69.3086
69.315
69.3171
69.3157
69.3113
69.3045
69.2964
69.2889
69.2842
69.2834
69.2862
69.2916
69.2976
69.3031
69.3074
69.3102
69.3119
69.3125
69.3122
69.3108
69.3085
69.3051
69.3007
69.2953
69.289
69.2819
69.2741
69.2658
69.2571
69.248
69.2387
69.2293
69.2199
69.2105
69.2013
69.1924
69.1839
69.1757
69.1692
69.1618
69.1608
69.151
69.1697
57.6453
58.3141
58.9857
59.6591
60.3292
60.9915
61.6419
62.2766
62.8915
63.4825
64.0463
64.5797
65.0804
65.5466
65.9773
66.3723
66.7319
67.057
67.3491
67.6101
67.8419
68.0468
68.2271
68.3851
68.523
68.6429
68.7466
68.8359
68.9123
68.9769
69.0307
69.0749
69.1103
69.1382
69.1598
69.1762
69.1883
69.1967
69.2018
69.2041
69.2047
69.2055
69.2082
69.2137
69.2219
69.2313
69.2405
69.2483
69.2543
69.2586
69.2612
69.2625
69.2626
69.2613
69.2589
69.2554
69.2509
69.2456
69.2395
69.2329
69.2257
69.2181
69.2103
69.2023
69.1942
69.1862
69.1783
69.1708
69.1635
69.1577
69.1511
69.1507
69.1417
69.1614
57.63
58.1945
58.7656
59.3409
59.9185
60.4958
61.0695
61.6365
62.1935
62.7373
63.2648
63.773
64.2593
64.7214
65.1576
65.5666
65.9475
66.2999
66.6241
66.9205
67.1901
67.4341
67.6539
67.8509
68.0269
68.1835
68.3223
68.4451
68.5533
68.6486
68.7323
68.8055
68.8692
68.9241
68.9708
69.0099
69.0422
69.0686
69.0901
69.1073
69.1208
69.131
69.1385
69.1445
69.1506
69.1584
69.1681
69.1792
69.1903
69.2001
69.2079
69.2136
69.2174
69.2195
69.2203
69.2198
69.218
69.2153
69.2116
69.2071
69.2019
69.1962
69.1901
69.1836
69.1769
69.1702
69.1634
69.1569
69.1505
69.1456
69.1397
69.14
69.1317
69.1527
57.8429
58.311
58.7878
59.2715
59.7613
60.2556
60.7521
61.2481
61.7414
62.2293
62.7092
63.1786
63.6348
64.0757
64.4991
64.9032
65.2866
65.6482
65.9872
66.3032
66.5963
66.8667
67.1148
67.3416
67.5479
67.7349
67.9036
68.0554
68.1917
68.3136
68.4227
68.5201
68.607
68.6847
68.7537
68.8148
68.8684
68.9148
68.9544
68.9878
69.0157
69.0391
69.0585
69.0744
69.0871
69.0973
69.1064
69.1158
69.1263
69.1379
69.1495
69.1601
69.1686
69.175
69.1793
69.1819
69.1831
69.1831
69.1819
69.1797
69.1767
69.1729
69.1686
69.1637
69.1585
69.1531
69.1476
69.1422
69.1368
69.1327
69.1276
69.1287
69.1212
69.1438
58.2251
58.6076
58.9994
59.4
59.8092
60.2257
60.6479
61.0739
61.502
61.9303
62.3566
62.7789
63.1949
63.6027
64.0001
64.3853
64.7565
65.1122
65.4513
65.7727
66.0757
66.3599
66.6252
66.8716
67.0994
67.3092
67.5015
67.6773
67.8373
67.9825
68.1141
68.233
68.3404
68.4373
68.5248
68.6037
68.6749
68.7388
68.7959
68.8463
68.8903
68.9283
68.9607
68.9883
69.0116
69.0313
69.0475
69.0607
69.0719
69.0822
69.0929
69.1043
69.1158
69.1263
69.135
69.1415
69.146
69.1489
69.1504
69.1506
69.1499
69.1482