/*--------------------------------*- C++ -*----------------------------------*\
| =========                 |                                                 |
| \\      /  F ield         | OpenFOAM: The Open Source CFD Toolbox           |
|  \\    /   O peration     | Version:  5.x                                   |
|   \\  /    A nd           | Web:      www.OpenFOAM.org                      |
|    \\/     M anipulation  |                                                 |
\*---------------------------------------------------------------------------*/
FoamFile
{
    version     2.0;
    format      ascii;
    class       volScalarField;
    location    "250";
    object      p;
}
// * * * * * * * * * * * * * * * * * * * * * * * * * * * * * * * * * * * * * //

dimensions      [0 2 -2 0 0 0 0];

internalField   nonuniform List<scalar> 
11040
(
0.000670423
-25.9262
-106.56
-175.676
-239.128
-293.23
-335.99
-368.42
-391.965
-406.92
-412.605
-400.661
-384.687
-375.722
-372.888
-366.578
-358.162
-349.417
-340.469
-331.052
-321.201
-312.059
-304.043
-296.232
-288.577
-281.048
-273.667
-266.403
-259.224
-252.097
-244.983
-237.831
-230.582
-223.161
-215.476
-207.408
-198.88
-189.67
-179.867
-168.677
-158.76
-9.57548
-35.5926
-96.3732
-154.767
-211.031
-262.814
-306.626
-341.718
-368.397
-386.739
-396.28
-390.864
-379.555
-372.16
-369.416
-363.882
-356.158
-347.872
-339.273
-330.15
-320.537
-311.56
-303.674
-295.957
-288.376
-280.913
-273.583
-266.362
-259.22
-252.125
-245.04
-237.915
-230.693
-223.301
-215.648
-207.618
-199.14
-189.985
-180.269
-169.065
-159.658
-23.3017
-47.1865
-93.9335
-145.056
-196.922
-246.804
-290.704
-326.811
-354.786
-374.455
-385.828
-384.628
-376.086
-369.012
-365.874
-361.086
-354.044
-346.171
-337.892
-329.056
-319.682
-310.896
-303.131
-295.507
-288.008
-280.615
-273.343
-266.172
-259.072
-252.015
-244.963
-237.87
-230.68
-223.321
-215.706
-207.723
-199.305
-190.226
-180.637
-169.544
-160.565
-38.3267
-60.2144
-96.5843
-138.914
-184.168
-229.541
-271.393
-307.331
-336.247
-357.746
-371.857
-375.126
-370.083
-364.271
-361.285
-357.352
-351.14
-343.821
-335.975
-327.522
-318.471
-309.927
-302.323
-294.834
-287.45
-280.159
-272.97
-265.869
-258.831
-251.828
-244.825
-237.779
-230.636
-223.326
-215.765
-207.848
-199.518
-190.551
-181.135
-170.269
-161.713
-54.0546
-73.7568
-102.173
-136.187
-174.457
-214.459
-253.15
-287.975
-317.22
-340.014
-356.257
-363.51
-362.396
-358.524
-355.959
-352.799
-347.509
-340.873
-333.549
-325.553
-316.893
-308.642
-301.245
-293.93
-286.695
-279.532
-272.45
-265.442
-258.485
-251.556
-244.621
-237.64
-230.562
-223.323
-215.842
-208.024
-199.822
-191.028
-181.863
-171.373
-163.32
-69.885
-87.2565
-109.661
-136.565
-167.975
-202.04
-236.475
-268.992
-297.602
-321.079
-339.07
-349.806
-352.66
-351.256
-349.547
-347.246
-343.018
-337.228
-330.539
-323.087
-314.896
-307
-299.858
-292.757
-285.704
-278.7
-271.754
-264.864
-258.015
-251.182
-244.337
-237.442
-230.454
-223.311
-215.941
-208.26
-200.236
-191.683
-182.853
-172.901
-165.361
-85.2854
-100.342
-118.216
-139.386
-164.586
-192.714
-222.257
-251.446
-278.38
-301.667
-320.689
-334.106
-340.604
-342.065
-341.764
-340.514
-337.474
-332.709
-326.806
-320.013
-312.394
-304.932
-298.103
-291.266
-284.438
-277.629
-270.852
-264.112
-257.397
-250.688
-243.959
-237.179
-230.309
-223.296
-216.074
-208.576
-200.788
-192.555
-184.145
-174.887
-167.827
-99.849
-112.759
-127.184
-143.873
-163.81
-186.472
-210.992
-236.186
-260.506
-282.635
-301.792
-316.901
-326.379
-330.773
-332.351
-332.404
-330.674
-327.113
-322.177
-316.187
-309.265
-302.332
-295.891
-289.383
-282.836
-276.271
-269.707
-263.153
-256.606
-250.052
-243.471
-236.839
-230.122
-223.278
-216.25
-208.989
-201.501
-193.67
-185.761
-177.318
-170.729
-113.319
-124.325
-136.085
-149.33
-165.013
-182.963
-202.769
-223.751
-244.822
-264.914
-283.255
-298.961
-310.463
-317.443
-321.128
-322.737
-322.446
-320.245
-316.462
-311.439
-305.354
-299.064
-293.103
-287.003
-280.808
-274.548
-268.251
-261.935
-255.602
-249.247
-242.856
-236.411
-229.889
-223.258
-216.476
-209.511
-202.387
-195.036
-187.696
-180.128
-174.04
-125.554
-134.915
-144.586
-155.188
-167.532
-181.619
-197.309
-214.281
-231.867
-249.315
-266.009
-281.249
-293.666
-302.509
-308.164
-311.446
-312.682
-311.948
-309.482
-305.593
-300.5
-294.98
-289.602
-284.005
-278.247
-272.367
-266.405
-260.388
-254.327
-248.226
-242.078
-235.875
-229.602
-223.24
-216.76
-210.153
-203.456
-196.647
-189.926
-183.228
-177.689
-136.5
-144.456
-152.467
-161.027
-170.789
-181.816
-194.105
-207.546
-221.781
-236.35
-250.838
-264.751
-277.015
-286.774
-293.885
-298.689
-301.417
-302.171
-301.117
-298.502
-294.548
-289.929
-285.245
-280.257
-275.032
-269.62
-264.073
-258.431
-252.714
-246.933
-241.094
-235.196
-229.237
-223.209
-217.098
-210.914
-204.705
-198.485
-192.412
-186.532
-181.57
-146.156
-152.919
-159.591
-166.559
-174.331
-182.985
-192.568
-203.077
-214.349
-226.136
-238.202
-250.251
-261.513
-271.24
-279.054
-284.937
-288.921
-291.037
-291.375
-290.097
-287.39
-283.788
-279.905
-275.632
-271.042
-266.195
-261.155
-255.973
-250.682
-245.301
-239.847
-234.33
-228.758
-223.136
-217.465
-211.768
-206.102
-200.5
-195.087
-189.95
-185.557
-154.562
-160.311
-165.89
-171.6
-177.834
-184.662
-192.143
-200.315
-209.12
-218.442
-228.173
-238.163
-247.912
-256.858
-264.599
-270.939
-275.735
-278.911
-280.464
-280.461
-279.019
-276.501
-273.503
-270.034
-266.174
-261.988
-257.55
-252.921
-248.145
-243.252
-238.268
-233.214
-228.108
-222.969
-217.807
-212.655
-207.575
-202.605
-197.843
-193.377
-189.511
-161.788
-166.671
-171.347
-176.05
-181.086
-186.509
-192.373
-198.727
-205.56
-212.829
-220.499
-228.513
-236.57
-244.293
-251.36
-257.536
-262.602
-266.396
-268.832
-269.888
-269.599
-268.146
-266.061
-263.446
-260.383
-256.936
-253.183
-249.195
-245.022
-240.704
-236.276
-231.767
-227.207
-222.622
-218.03
-213.472
-209.005
-204.668
-200.535
-196.676
-193.291
-167.923
-172.065
-175.988
-179.876
-183.967
-188.302
-192.924
-197.879
-203.175
-208.802
-214.761
-221.043
-227.477
-233.83
-239.88
-245.432
-250.27
-254.207
-257.107
-258.883
-259.504
-258.985
-257.759
-255.982
-253.728
-251.056
-248.043
-244.758
-241.259
-237.59
-233.793
-229.903
-225.956
-221.983
-218.011
-214.078
-210.238
-206.524
-202.99
-199.689
-196.746
-173.05
-176.554
-179.845
-183.07
-186.41
-189.897
-193.564
-197.447
-201.561
-205.909
-210.505
-215.358
-220.376
-225.421
-230.356
-235.042
-239.31
-242.994
-245.951
-248.067
-249.268
-249.454
-248.945
-247.909
-246.406
-244.485
-242.213
-239.653
-236.861
-233.884
-230.765
-227.541
-224.252
-220.93
-217.603
-214.311
-211.096
-207.987
-205.022
-202.241
-199.719
-177.231
-180.187
-182.944
-185.623
-188.361
-191.181
-194.107
-197.168
-200.378
-203.745
-207.284
-211.009
-214.869
-218.786
-222.677
-226.455
-230.003
-233.192
-235.904
-238.03
-239.483
-240.105
-240.11
-239.653
-238.774
-237.511
-235.916
-234.042
-231.938
-229.646
-227.207
-224.657
-222.033
-219.367
-216.686
-214.023
-211.415
-208.884
-206.457
-204.164
-202.048
-180.447
-182.96
-185.287
-187.535
-189.809
-192.123
-194.498
-196.955
-199.506
-202.158
-204.925
-207.818
-210.808
-213.847
-216.888
-219.875
-222.73
-225.364
-227.687
-229.61
-231.057
-231.86
-232.154
-232.069
-231.629
-230.859
-229.799
-228.488
-226.965
-225.266
-223.426
-221.477
-219.45
-217.374
-215.273
-213.174
-211.107
-209.089
-207.14
-205.282
-203.542
-182.862
-185.027
-187.018
-188.934
-190.855
-192.79
-194.756
-196.771
-198.843
-200.979
-203.188
-205.482
-207.839
-210.231
-212.626
-214.991
-217.272
-219.408
-221.335
-222.985
-224.297
-225.12
-225.541
-225.66
-225.491
-225.051
-224.368
-223.472
-222.392
-221.156
-219.793
-218.328
-216.787
-215.195
-213.571
-211.938
-210.319
-208.726
-207.176
-205.687
-204.272
-184.698
-186.581
-188.304
-189.958
-191.603
-193.246
-194.901
-196.583
-198.298
-200.052
-201.851
-203.703
-205.595
-207.506
-209.416
-211.303
-213.129
-214.853
-216.427
-217.805
-218.938
-219.7
-220.151
-220.366
-220.352
-220.121
-219.693
-219.089
-218.331
-217.441
-216.44
-215.35
-214.191
-212.981
-211.738
-210.477
-209.218
-207.971
-206.748
-205.562
-204.423
-186.117
-187.769
-189.275
-190.717
-192.14
-193.552
-194.964
-196.387
-197.827
-199.288
-200.775
-202.295
-203.836
-205.383
-206.924
-208.442
-209.912
-211.303
-212.583
-213.717
-214.671
-215.341
-215.771
-216.019
-216.086
-215.982
-215.721
-215.318
-214.789
-214.151
-213.421
-212.614
-211.746
-210.833
-209.886
-208.919
-207.946
-206.975
-206.015
-205.077
-204.168
-187.231
-188.689
-190.016
-191.282
-192.525
-193.75
-194.966
-196.183
-197.407
-198.639
-199.884
-201.146
-202.416
-203.685
-204.941
-206.174
-207.364
-208.491
-209.531
-210.459
-211.249
-211.822
-212.209
-212.455
-212.559
-212.529
-212.374
-212.107
-211.738
-211.282
-210.749
-210.153
-209.504
-208.816
-208.096
-207.357
-206.607
-205.854
-205.104
-204.366
-203.644
-188.115
-189.409
-190.585
-191.706
-192.798
-193.869
-194.926
-195.976
-197.025
-198.075
-199.127
-200.186
-201.245
-202.296
-203.33
-204.339
-205.31
-206.227
-207.074
-207.832
-208.482
-208.963
-209.301
-209.528
-209.643
-209.653
-209.565
-209.388
-209.131
-208.803
-208.413
-207.972
-207.487
-206.967
-206.421
-205.855
-205.278
-204.694
-204.109
-203.53
-202.959
-188.823
-189.977
-191.026
-192.023
-192.99
-193.932
-194.856
-195.77
-196.677
-197.578
-198.475
-199.372
-200.262
-201.139
-201.998
-202.83
-203.628
-204.379
-205.071
-205.69
-206.224
-206.624
-206.912
-207.114
-207.227
-207.258
-207.211
-207.094
-206.913
-206.676
-206.389
-206.06
-205.696
-205.302
-204.886
-204.452
-204.007
-203.555
-203.099
-202.644
-202.194
-189.395
-190.429
-191.369
-192.26
-193.12
-193.954
-194.767
-195.567
-196.356
-197.135
-197.906
-198.671
-199.425
-200.163
-200.881
-201.573
-202.233
-202.85
-203.418
-203.925
-204.363
-204.694
-204.938
-205.113
-205.218
-205.256
-205.234
-205.156
-205.028
-204.855
-204.643
-204.396
-204.12
-203.821
-203.502
-203.169
-202.825
-202.472
-202.116
-201.759
-201.404
-189.86
-190.79
-191.637
-192.437
-193.205
-193.947
-194.667
-195.371
-196.061
-196.739
-197.406
-198.062
-198.705
-199.33
-199.934
-200.513
-201.062
-201.573
-202.04
-202.457
-202.817
-203.091
-203.295
-203.445
-203.538
-203.578
-203.571
-203.519
-203.427
-203.299
-203.14
-202.954
-202.744
-202.514
-202.269
-202.01
-201.743
-201.468
-201.188
-200.907
-200.626
-190.241
-191.08
-191.846
-192.567
-193.257
-193.92
-194.56
-195.183
-195.79
-196.382
-196.962
-197.529
-198.08
-198.613
-199.124
-199.611
-200.069
-200.495
-200.882
-201.225
-201.522
-201.747
-201.919
-202.045
-202.127
-202.165
-202.166
-202.131
-202.064
-201.969
-201.848
-201.706
-201.544
-201.367
-201.177
-200.975
-200.766
-200.55
-200.33
-200.107
-199.885
-190.553
-191.314
-192.009
-192.662
-193.284
-193.878
-194.45
-195.004
-195.54
-196.061
-196.567
-197.058
-197.534
-197.99
-198.425
-198.837
-199.222
-199.577
-199.899
-200.183
-200.428
-200.615
-200.758
-200.864
-200.934
-200.97
-200.974
-200.951
-200.901
-200.829
-200.737
-200.627
-200.502
-200.363
-200.214
-200.057
-199.892
-199.721
-199.547
-199.37
-199.192
-190.812
-191.504
-192.137
-192.73
-193.293
-193.828
-194.341
-194.835
-195.311
-195.77
-196.214
-196.642
-197.054
-197.446
-197.818
-198.167
-198.493
-198.791
-199.059
-199.296
-199.498
-199.653
-199.772
-199.862
-199.921
-199.953
-199.959
-199.943
-199.906
-199.851
-199.779
-199.693
-199.595
-199.487
-199.369
-199.244
-199.114
-198.978
-198.839
-198.697
-198.555
-191.026
-191.657
-192.236
-192.777
-193.288
-193.772
-194.234
-194.676
-195.1
-195.507
-195.897
-196.272
-196.63
-196.969
-197.288
-197.586
-197.862
-198.113
-198.338
-198.535
-198.703
-198.831
-198.931
-199.006
-199.056
-199.084
-199.091
-199.079
-199.051
-199.008
-198.952
-198.885
-198.807
-198.721
-198.628
-198.528
-198.424
-198.315
-198.204
-198.09
-197.976
-191.203
-191.782
-192.313
-192.808
-193.274
-193.713
-194.13
-194.528
-194.907
-195.268
-195.613
-195.943
-196.255
-196.548
-196.823
-197.079
-197.313
-197.525
-197.714
-197.879
-198.019
-198.125
-198.209
-198.272
-198.314
-198.338
-198.345
-198.337
-198.315
-198.281
-198.237
-198.183
-198.121
-198.052
-197.977
-197.898
-197.814
-197.726
-197.637
-197.545
-197.452
-191.352
-191.883
-192.372
-192.827
-193.253
-193.653
-194.031
-194.39
-194.73
-195.052
-195.358
-195.648
-195.921
-196.177
-196.415
-196.634
-196.834
-197.014
-197.173
-197.311
-197.428
-197.517
-197.586
-197.639
-197.675
-197.695
-197.701
-197.695
-197.678
-197.651
-197.616
-197.573
-197.523
-197.467
-197.407
-197.343
-197.275
-197.204
-197.131
-197.057
-196.982
-191.475
-191.966
-192.418
-192.837
-193.228
-193.594
-193.938
-194.262
-194.569
-194.857
-195.129
-195.385
-195.625
-195.848
-196.054
-196.242
-196.414
-196.567
-196.701
-196.817
-196.915
-196.989
-197.047
-197.092
-197.122
-197.139
-197.144
-197.14
-197.126
-197.105
-197.076
-197.041
-197.001
-196.956
-196.907
-196.854
-196.799
-196.742
-196.683
-196.621
-196.561
-191.579
-192.033
-192.452
-192.841
-193.201
-193.536
-193.851
-194.145
-194.422
-194.681
-194.923
-195.15
-195.361
-195.556
-195.735
-195.898
-196.044
-196.175
-196.289
-196.387
-196.469
-196.53
-196.579
-196.616
-196.641
-196.656
-196.661
-196.657
-196.646
-196.629
-196.605
-196.577
-196.544
-196.507
-196.467
-196.425
-196.38
-196.333
-196.284
-196.234
-196.184
-191.665
-192.088
-192.478
-192.839
-193.172
-193.482
-193.77
-194.038
-194.288
-194.522
-194.739
-194.94
-195.126
-195.297
-195.453
-195.593
-195.72
-195.831
-195.928
-196.01
-196.079
-196.13
-196.171
-196.203
-196.223
-196.235
-196.239
-196.237
-196.228
-196.213
-196.194
-196.171
-196.144
-196.114
-196.081
-196.047
-196.01
-195.971
-195.931
-195.89
-195.849
-191.738
-192.132
-192.498
-192.834
-193.144
-193.43
-193.695
-193.94
-194.168
-194.378
-194.573
-194.752
-194.917
-195.067
-195.203
-195.325
-195.433
-195.528
-195.611
-195.68
-195.738
-195.781
-195.815
-195.841
-195.859
-195.869
-195.872
-195.87
-195.863
-195.851
-195.835
-195.816
-195.794
-195.769
-195.742
-195.713
-195.683
-195.651
-195.619
-195.585
-195.551
-191.799
-192.169
-192.512
-192.828
-193.116
-193.382
-193.627
-193.852
-194.06
-194.25
-194.425
-194.585
-194.731
-194.863
-194.982
-195.087
-195.181
-195.262
-195.332
-195.391
-195.439
-195.475
-195.504
-195.526
-195.54
-195.549
-195.551
-195.549
-195.543
-195.533
-195.52
-195.505
-195.486
-195.466
-195.444
-195.42
-195.395
-195.369
-195.342
-195.315
-195.287
-191.85
-192.199
-192.523
-192.82
-193.091
-193.338
-193.565
-193.773
-193.963
-194.136
-194.294
-194.437
-194.567
-194.683
-194.786
-194.878
-194.959
-195.028
-195.088
-195.137
-195.178
-195.208
-195.232
-195.25
-195.262
-195.269
-195.271
-195.269
-195.264
-195.256
-195.245
-195.232
-195.217
-195.2
-195.182
-195.162
-195.142
-195.12
-195.098
-195.075
-195.052
-191.892
-192.223
-192.531
-192.812
-193.067
-193.299
-193.511
-193.703
-193.877
-194.035
-194.178
-194.306
-194.421
-194.524
-194.614
-194.694
-194.763
-194.823
-194.873
-194.915
-194.949
-194.974
-194.994
-195.009
-195.019
-195.024
-195.026
-195.024
-195.02
-195.013
-195.004
-194.993
-194.981
-194.967
-194.952
-194.936
-194.919
-194.901
-194.883
-194.864
-194.846
-191.928
-192.243
-192.537
-192.804
-193.046
-193.265
-193.463
-193.642
-193.803
-193.947
-194.076
-194.191
-194.294
-194.384
-194.464
-194.533
-194.593
-194.643
-194.686
-194.721
-194.749
-194.77
-194.787
-194.799
-194.807
-194.811
-194.812
-194.811
-194.807
-194.801
-194.793
-194.784
-194.773
-194.762
-194.749
-194.736
-194.722
-194.708
-194.692
-194.677
-194.662
-191.957
-192.26
-192.542
-192.798
-193.029
-193.236
-193.423
-193.589
-193.738
-193.871
-193.988
-194.092
-194.183
-194.263
-194.333
-194.393
-194.444
-194.487
-194.523
-194.553
-194.576
-194.593
-194.607
-194.617
-194.623
-194.626
-194.627
-194.625
-194.622
-194.617
-194.61
-194.603
-194.594
-194.585
-194.574
-194.563
-194.552
-194.54
-194.528
-194.515
-194.503
-191.982
-192.275
-192.547
-192.794
-193.015
-193.213
-193.389
-193.546
-193.684
-193.806
-193.914
-194.007
-194.089
-194.159
-194.22
-194.272
-194.316
-194.352
-194.383
-194.407
-194.426
-194.44
-194.45
-194.458
-194.463
-194.465
-194.465
-194.463
-194.46
-194.455
-194.449
-194.443
-194.435
-194.427
-194.419
-194.409
-194.4
-194.39
-194.38
-194.369
-194.359
-192.002
-192.287
-192.552
-192.792
-193.005
-193.195
-193.363
-193.511
-193.641
-193.754
-193.852
-193.937
-194.01
-194.072
-194.125
-194.17
-194.207
-194.238
-194.263
-194.283
-194.298
-194.309
-194.318
-194.324
-194.327
-194.329
-194.328
-194.327
-194.324
-194.32
-194.315
-194.309
-194.303
-194.296
-194.289
-194.282
-194.274
-194.266
-194.258
-194.249
-194.241
-192.018
-192.298
-192.558
-192.792
-193
-193.184
-193.345
-193.486
-193.608
-193.713
-193.803
-193.88
-193.945
-194
-194.046
-194.085
-194.116
-194.142
-194.162
-194.177
-194.189
-194.197
-194.203
-194.206
-194.208
-194.208
-194.207
-194.204
-194.201
-194.197
-194.192
-194.187
-194.181
-194.175
-194.169
-194.162
-194.156
-194.149
-194.142
-194.135
-194.128
-192.031
-192.307
-192.564
-192.794
-192.998
-193.177
-193.334
-193.469
-193.584
-193.683
-193.767
-193.837
-193.896
-193.944
-193.984
-194.017
-194.043
-194.064
-194.081
-194.093
-194.103
-194.109
-194.113
-194.116
-194.117
-194.116
-194.115
-194.112
-194.109
-194.106
-194.102
-194.097
-194.092
-194.087
-194.082
-194.077
-194.071
-194.066
-194.06
-194.055
-194.049
-192.041
-192.317
-192.572
-192.8
-193.002
-193.178
-193.33
-193.46
-193.571
-193.664
-193.742
-193.807
-193.86
-193.903
-193.937
-193.965
-193.986
-194.002
-194.013
-194.021
-194.026
-194.028
-194.029
-194.028
-194.027
-194.024
-194.02
-194.017
-194.012
-194.008
-194.003
-193.998
-193.993
-193.988
-193.983
-193.978
-193.973
-193.968
-193.964
-193.959
-193.954
-192.048
-192.329
-192.586
-192.816
-193.018
-193.193
-193.342
-193.469
-193.575
-193.663
-193.735
-193.794
-193.842
-193.88
-193.91
-193.933
-193.951
-193.964
-193.973
-193.98
-193.984
-193.985
-193.986
-193.985
-193.983
-193.98
-193.977
-193.973
-193.969
-193.965
-193.96
-193.956
-193.951
-193.947
-193.942
-193.938
-193.933
-193.929
-193.925
-193.921
-193.917
-192.053
-192.34
-192.604
-192.838
-193.043
-193.219
-193.368
-193.492
-193.595
-193.679
-193.747
-193.801
-193.843
-193.875
-193.899
-193.916
-193.926
-193.933
-193.935
-193.934
-193.932
-193.927
-193.922
-193.915
-193.908
-193.902
-193.895
-193.888
-193.881
-193.875
-193.869
-193.863
-193.857
-193.852
-193.847
-193.842
-193.838
-193.834
-193.83
-193.826
-193.823
-139.549
-157.408
-167.24
-169.021
-171.238
-174.194
-176.57
-178.369
-179.917
-181.294
-182.492
-183.531
-184.444
-185.251
-185.965
-186.6
-187.165
-187.669
-188.119
-188.523
-188.885
-189.21
-189.503
-189.766
-190.002
-190.216
-190.409
-190.582
-190.739
-190.881
-191.009
-191.125
-191.23
-191.324
-191.41
-191.488
-191.558
-191.622
-191.68
-191.733
-191.78
-191.824
-191.863
-191.899
-191.931
-191.961
-191.988
-192.013
-192.036
-192.057
-192.076
-192.094
-192.111
-192.126
-192.141
-192.156
-192.17
-192.183
-192.196
-192.209
-192.221
-192.232
-192.244
-192.255
-192.266
-192.277
-192.288
-192.299
-192.31
-192.321
-192.333
-192.34
-192.361
-192.339
-140.754
-157.318
-167.235
-169.095
-171.286
-174.237
-176.615
-178.412
-179.957
-181.333
-182.529
-183.568
-184.479
-185.285
-185.998
-186.631
-187.194
-187.697
-188.147
-188.549
-188.91
-189.234
-189.525
-189.787
-190.023
-190.235
-190.427
-190.6
-190.756
-190.896
-191.024
-191.139
-191.243
-191.337
-191.422
-191.499
-191.569
-191.632
-191.69
-191.742
-191.789
-191.832
-191.871
-191.906
-191.939
-191.968
-191.995
-192.019
-192.042
-192.062
-192.081
-192.099
-192.116
-192.131
-192.146
-192.16
-192.174
-192.187
-192.2
-192.212
-192.224
-192.236
-192.247
-192.258
-192.269
-192.28
-192.291
-192.302
-192.313
-192.323
-192.336
-192.343
-192.364
-192.341
-142.616
-157.361
-167.275
-169.25
-171.371
-174.299
-176.678
-178.47
-180.01
-181.382
-182.576
-183.612
-184.521
-185.324
-186.036
-186.667
-187.229
-187.73
-188.178
-188.579
-188.938
-189.261
-189.551
-189.811
-190.046
-190.257
-190.447
-190.619
-190.774
-190.914
-191.04
-191.154
-191.258
-191.351
-191.435
-191.512
-191.581
-191.644
-191.7
-191.752
-191.799
-191.841
-191.88
-191.915
-191.946
-191.975
-192.002
-192.026
-192.048
-192.069
-192.087
-192.105
-192.121
-192.136
-192.151
-192.165
-192.179
-192.192
-192.204
-192.216
-192.228
-192.239
-192.251
-192.262
-192.272
-192.283
-192.294
-192.305
-192.316
-192.326
-192.339
-192.346
-192.367
-192.343
-145.303
-157.712
-167.373
-169.51
-171.526
-174.395
-176.769
-178.552
-180.08
-181.445
-182.635
-183.666
-184.572
-185.372
-186.08
-186.709
-187.269
-187.768
-188.214
-188.613
-188.971
-189.291
-189.58
-189.839
-190.072
-190.282
-190.471
-190.641
-190.795
-190.934
-191.059
-191.172
-191.274
-191.367
-191.45
-191.526
-191.594
-191.656
-191.712
-191.763
-191.809
-191.851
-191.889
-191.924
-191.955
-191.984
-192.01
-192.034
-192.055
-192.075
-192.094
-192.111
-192.127
-192.142
-192.156
-192.17
-192.184
-192.196
-192.209
-192.221
-192.232
-192.243
-192.254
-192.265
-192.276
-192.287
-192.297
-192.308
-192.319
-192.329
-192.342
-192.349
-192.37
-192.345
-148.812
-158.537
-167.574
-169.911
-171.796
-174.552
-176.906
-178.672
-180.18
-181.531
-182.712
-183.736
-184.635
-185.43
-186.135
-186.76
-187.316
-187.812
-188.255
-188.652
-189.007
-189.326
-189.613
-189.87
-190.101
-190.309
-190.497
-190.666
-190.818
-190.956
-191.08
-191.192
-191.293
-191.384
-191.467
-191.542
-191.609
-191.67
-191.726
-191.776
-191.821
-191.862
-191.9
-191.934
-191.965
-191.993
-192.018
-192.042
-192.063
-192.083
-192.101
-192.118
-192.133
-192.148
-192.162
-192.176
-192.189
-192.202
-192.214
-192.225
-192.237
-192.248
-192.259
-192.269
-192.28
-192.29
-192.301
-192.311
-192.322
-192.332
-192.345
-192.352
-192.374
-192.347
-153.008
-160.006
-168
-170.508
-172.249
-174.817
-177.115
-178.852
-180.325
-181.653
-182.818
-183.829
-184.718
-185.505
-186.203
-186.822
-187.374
-187.865
-188.305
-188.698
-189.051
-189.367
-189.65
-189.905
-190.135
-190.341
-190.527
-190.694
-190.845
-190.981
-191.103
-191.214
-191.314
-191.404
-191.485
-191.559
-191.626
-191.686
-191.74
-191.79
-191.834
-191.875
-191.911
-191.945
-191.975
-192.003
-192.028
-192.051
-192.072
-192.091
-192.109
-192.125
-192.14
-192.155
-192.169
-192.182
-192.195
-192.207
-192.219
-192.23
-192.242
-192.252
-192.263
-192.273
-192.284
-192.294
-192.304
-192.315
-192.326
-192.336
-192.348
-192.355
-192.377
-192.35
-157.719
-162.224
-168.793
-171.346
-172.945
-175.25
-177.436
-179.123
-180.545
-181.831
-182.968
-183.959
-184.831
-185.605
-186.291
-186.902
-187.446
-187.931
-188.365
-188.754
-189.102
-189.414
-189.695
-189.947
-190.173
-190.377
-190.561
-190.726
-190.875
-191.009
-191.13
-191.239
-191.337
-191.426
-191.506
-191.579
-191.644
-191.703
-191.757
-191.805
-191.849
-191.888
-191.924
-191.957
-191.987
-192.014
-192.038
-192.06
-192.081
-192.1
-192.117
-192.133
-192.148
-192.162
-192.176
-192.189
-192.201
-192.213
-192.225
-192.236
-192.247
-192.257
-192.268
-192.278
-192.288
-192.298
-192.308
-192.319
-192.329
-192.339
-192.352
-192.359
-192.381
-192.353
-162.706
-165.171
-170.09
-172.476
-173.928
-175.912
-177.917
-179.52
-180.869
-182.093
-183.187
-184.145
-184.991
-185.743
-186.412
-187.008
-187.54
-188.016
-188.442
-188.823
-189.165
-189.472
-189.748
-189.996
-190.219
-190.42
-190.6
-190.763
-190.909
-191.041
-191.16
-191.267
-191.364
-191.451
-191.53
-191.601
-191.665
-191.723
-191.775
-191.822
-191.865
-191.904
-191.939
-191.971
-191.999
-192.026
-192.05
-192.071
-192.091
-192.109
-192.126
-192.142
-192.156
-192.17
-192.183
-192.196
-192.208
-192.219
-192.231
-192.242
-192.252
-192.263
-192.273
-192.283
-192.293
-192.303
-192.313
-192.323
-192.333
-192.343
-192.355
-192.362
-192.385
-192.356
-167.722
-168.707
-171.987
-173.964
-175.229
-176.86
-178.607
-180.08
-181.329
-182.467
-183.497
-184.408
-185.215
-185.935
-186.579
-187.154
-187.669
-188.129
-188.543
-188.913
-189.246
-189.546
-189.815
-190.057
-190.275
-190.471
-190.647
-190.806
-190.949
-191.078
-191.195
-191.299
-191.394
-191.479
-191.556
-191.625
-191.688
-191.744
-191.795
-191.841
-191.883
-191.921
-191.955
-191.986
-192.014
-192.039
-192.062
-192.083
-192.102
-192.12
-192.136
-192.151
-192.165
-192.179
-192.191
-192.204
-192.215
-192.226
-192.237
-192.248
-192.258
-192.268
-192.278
-192.288
-192.298
-192.307
-192.317
-192.327
-192.338
-192.347
-192.359
-192.367
-192.389
-192.36
-172.611
-172.638
-174.496
-175.877
-176.875
-178.135
-179.561
-180.845
-181.96
-182.984
-183.925
-184.769
-185.522
-186.199
-186.807
-187.353
-187.842
-188.282
-188.678
-189.033
-189.353
-189.641
-189.901
-190.134
-190.345
-190.534
-190.705
-190.859
-190.998
-191.123
-191.236
-191.338
-191.429
-191.512
-191.586
-191.654
-191.714
-191.769
-191.818
-191.863
-191.903
-191.939
-191.972
-192.002
-192.029
-192.054
-192.076
-192.096
-192.115
-192.132
-192.147
-192.162
-192.175
-192.188
-192.2
-192.212
-192.223
-192.234
-192.244
-192.255
-192.265
-192.274
-192.284
-192.293
-192.303
-192.312
-192.322
-192.332
-192.342
-192.352
-192.364
-192.371
-192.394
-192.364
-177.34
-176.78
-177.54
-178.252
-178.891
-179.768
-180.831
-181.864
-182.802
-183.679
-184.501
-185.254
-185.935
-186.553
-187.112
-187.617
-188.074
-188.485
-188.857
-189.192
-189.494
-189.767
-190.013
-190.235
-190.435
-190.616
-190.779
-190.926
-191.059
-191.178
-191.286
-191.384
-191.472
-191.551
-191.622
-191.687
-191.745
-191.798
-191.845
-191.888
-191.926
-191.961
-191.992
-192.021
-192.047
-192.07
-192.091
-192.111
-192.128
-192.144
-192.159
-192.173
-192.186
-192.198
-192.21
-192.221
-192.232
-192.242
-192.252
-192.262
-192.271
-192.281
-192.29
-192.299
-192.308
-192.318
-192.327
-192.337
-192.347
-192.357
-192.368
-192.375
-192.398
-192.369
-181.916
-180.997
-180.976
-181.066
-181.289
-181.771
-182.451
-183.183
-183.897
-184.591
-185.263
-185.895
-186.48
-187.019
-187.513
-187.965
-188.376
-188.75
-189.09
-189.398
-189.676
-189.929
-190.157
-190.364
-190.551
-190.72
-190.872
-191.01
-191.135
-191.247
-191.349
-191.441
-191.524
-191.599
-191.666
-191.727
-191.782
-191.831
-191.876
-191.917
-191.953
-191.986
-192.016
-192.042
-192.067
-192.089
-192.109
-192.127
-192.144
-192.159
-192.173
-192.186
-192.198
-192.209
-192.22
-192.231
-192.241
-192.251
-192.26
-192.27
-192.279
-192.288
-192.297
-192.306
-192.314
-192.323
-192.333
-192.342
-192.352
-192.361
-192.373
-192.38
-192.402
-192.375
-186.325
-185.179
-184.635
-184.227
-184.04
-184.13
-184.427
-184.83
-185.28
-185.757
-186.245
-186.726
-187.188
-187.625
-188.035
-188.416
-188.769
-189.093
-189.39
-189.662
-189.91
-190.136
-190.342
-190.528
-190.698
-190.851
-190.991
-191.117
-191.231
-191.334
-191.428
-191.512
-191.588
-191.657
-191.719
-191.776
-191.826
-191.872
-191.914
-191.951
-191.985
-192.015
-192.043
-192.067
-192.09
-192.11
-192.129
-192.146
-192.161
-192.175
-192.188
-192.2
-192.211
-192.222
-192.232
-192.242
-192.251
-192.26
-192.269
-192.278
-192.287
-192.295
-192.304
-192.312
-192.321
-192.33
-192.338
-192.348
-192.357
-192.367
-192.378
-192.385
-192.406
-192.381
-190.497
-189.22
-188.343
-187.585
-187.052
-186.785
-186.724
-186.798
-186.965
-187.197
-187.474
-187.776
-188.087
-188.398
-188.702
-188.994
-189.27
-189.531
-189.774
-189.999
-190.207
-190.399
-190.575
-190.736
-190.883
-191.017
-191.139
-191.25
-191.351
-191.442
-191.525
-191.6
-191.668
-191.73
-191.785
-191.836
-191.881
-191.922
-191.959
-191.993
-192.023
-192.05
-192.075
-192.097
-192.117
-192.136
-192.152
-192.167
-192.181
-192.194
-192.205
-192.216
-192.226
-192.236
-192.245
-192.254
-192.263
-192.271
-192.279
-192.288
-192.296
-192.304
-192.312
-192.32
-192.328
-192.336
-192.345
-192.354
-192.363
-192.372
-192.383
-192.391
-192.411
-192.389
-194.316
-192.99
-191.925
-190.954
-190.173
-189.621
-189.255
-189.031
-188.921
-188.902
-188.954
-189.058
-189.197
-189.36
-189.536
-189.718
-189.902
-190.082
-190.257
-190.423
-190.581
-190.729
-190.867
-190.996
-191.114
-191.223
-191.324
-191.416
-191.5
-191.576
-191.646
-191.709
-191.767
-191.819
-191.866
-191.909
-191.948
-191.983
-192.014
-192.043
-192.069
-192.092
-192.113
-192.132
-192.15
-192.165
-192.18
-192.193
-192.204
-192.215
-192.225
-192.235
-192.243
-192.252
-192.26
-192.268
-192.276
-192.283
-192.291
-192.298
-192.305
-192.313
-192.32
-192.328
-192.335
-192.343
-192.351
-192.36
-192.369
-192.378
-192.389
-192.397
-192.415
-192.398
-197.637
-196.338
-195.203
-194.138
-193.216
-192.47
-191.877
-191.415
-191.066
-190.817
-190.652
-190.556
-190.514
-190.514
-190.548
-190.604
-190.678
-190.763
-190.855
-190.95
-191.045
-191.139
-191.23
-191.317
-191.4
-191.478
-191.551
-191.619
-191.682
-191.74
-191.793
-191.842
-191.887
-191.927
-191.964
-191.998
-192.028
-192.056
-192.081
-192.104
-192.124
-192.143
-192.16
-192.175
-192.188
-192.201
-192.212
-192.222
-192.232
-192.241
-192.249
-192.256
-192.263
-192.27
-192.277
-192.284
-192.29
-192.297
-192.303
-192.31
-192.316
-192.323
-192.33
-192.337
-192.344
-192.351
-192.359
-192.367
-192.376
-192.385
-192.395
-192.403
-192.419
-192.408
-200.303
-199.1
-197.99
-196.931
-195.969
-195.128
-194.401
-193.78
-193.257
-192.826
-192.477
-192.202
-191.991
-191.833
-191.72
-191.645
-191.6
-191.578
-191.576
-191.587
-191.609
-191.639
-191.673
-191.711
-191.75
-191.79
-191.83
-191.868
-191.905
-191.94
-191.973
-192.003
-192.032
-192.059
-192.083
-192.105
-192.126
-192.144
-192.161
-192.177
-192.191
-192.203
-192.215
-192.225
-192.234
-192.243
-192.251
-192.258
-192.264
-192.27
-192.276
-192.281
-192.287
-192.292
-192.297
-192.302
-192.307
-192.312
-192.318
-192.323
-192.329
-192.334
-192.34
-192.346
-192.353
-192.36
-192.367
-192.375
-192.383
-192.392
-192.401
-192.41
-192.424
-192.418
-202.11
-201.048
-200.036
-199.055
-198.135
-197.291
-196.525
-195.834
-195.218
-194.677
-194.207
-193.804
-193.461
-193.175
-192.937
-192.744
-192.588
-192.465
-192.368
-192.295
-192.241
-192.202
-192.176
-192.159
-192.15
-192.147
-192.149
-192.154
-192.161
-192.169
-192.179
-192.189
-192.199
-192.209
-192.219
-192.228
-192.237
-192.245
-192.253
-192.26
-192.266
-192.272
-192.278
-192.282
-192.287
-192.291
-192.295
-192.298
-192.301
-192.304
-192.307