/*--------------------------------*- C++ -*----------------------------------*\
| =========                 |                                                 |
| \\      /  F ield         | OpenFOAM: The Open Source CFD Toolbox           |
|  \\    /   O peration     | Version:  5.x                                   |
|   \\  /    A nd           | Web:      www.OpenFOAM.org                      |
|    \\/     M anipulation  |                                                 |
\*---------------------------------------------------------------------------*/
FoamFile
{
    version     2.0;
    format      ascii;
    class       volScalarField;
    location    "250";
    object      p;
}
// * * * * * * * * * * * * * * * * * * * * * * * * * * * * * * * * * * * * * //

dimensions      [0 2 -2 0 0 0 0];

internalField   nonuniform List<scalar> 
11040
(
-0.0323708
-93.9359
-333.808
-378.154
-377.309
-370.855
-355.152
-329.023
-295.867
-257.122
-212.901
-155.263
-101.411
-60.4542
-28.3829
4.16114
35.9416
65.0459
90.7139
111.796
126.748
134.365
137.982
140.12
141.6
142.708
143.553
144.166
144.582
144.832
144.94
144.921
144.797
144.619
144.542
144.915
145.995
147.759
151.535
158.054
153.771
51.8771
-41.917
-192.391
-258.382
-283.178
-298.014
-301.695
-292.101
-271.601
-242.322
-205.374
-154.667
-103.827
-62.873
-30.2258
2.30546
34.1166
63.4358
89.4281
110.928
126.323
134.216
137.923
140.084
141.57
142.685
143.541
144.165
144.592
144.852
144.968
144.955
144.833
144.647
144.545
144.872
145.894
147.571
151.108
157.241
150.73
87.1937
-7.09583
-113.536
-197.976
-239.772
-261.657
-270.27
-265.591
-249.843
-225.242
-193.284
-149.493
-102.565
-62.4595
-29.9759
1.7688
33.0914
62.2749
88.3289
110.089
125.875
134.097
137.939
140.116
141.582
142.688
143.544
144.174
144.608
144.875
144.999
144.994
144.877
144.688
144.565
144.836
145.782
147.369
150.681
156.636
148.704
113.644
28.8878
-49.9513
-128.559
-177.58
-207.36
-224.678
-228.964
-221.129
-203.352
-177.548
-141.019
-99.0912
-60.8121
-28.8431
1.88131
32.424
61.2438
87.2119
109.155
125.331
133.958
138.007
140.211
141.652
142.732
143.574
144.2
144.637
144.91
145.041
145.042
144.929
144.737
144.587
144.785
145.619
147.072
150.097
155.789
147.676
135.51
62.8046
1.64695
-66.3228
-118.448
-154.154
-177.869
-189.442
-188.997
-178.145
-158.821
-129.672
-93.6414
-58.1434
-27.0988
2.41802
31.8448
59.999
85.6809
107.724
124.353
133.57
138.006
140.337
141.782
142.83
143.642
144.254
144.686
144.959
145.094
145.103
144.996
144.798
144.616
144.724
145.41
146.683
149.372
154.57
147.305
153.077
92.5978
43.6815
-13.0658
-62.8692
-100.945
-128.914
-146.421
-152.87
-149.055
-136.563
-114.889
-85.4108
-53.7162
-24.3168
3.67294
31.6074
58.7183
83.8059
105.737
122.775
132.749
137.815
140.441
141.962
142.994
143.768
144.35
144.764
145.028
145.164
145.18
145.078
144.876
144.657
144.661
145.166
146.217
148.543
153.034
147.341
167.182
117.789
77.9298
31.3201
-12.9918
-50.0872
-79.7645
-101.208
-113.274
-115.988
-110.323
-96.1109
-73.696
-46.8814
-20.0881
5.92791
31.9898
57.643
81.76
103.255
120.518
131.291
137.215
140.397
142.157
143.233
143.972
144.51
144.89
145.134
145.261
145.278
145.181
144.974
144.718
144.608
144.906
145.711
147.658
151.331
147.612
178.474
138.451
105.692
67.6971
29.977
-3.84739
-32.8927
-56.0651
-71.9174
-79.924
-80.4186
-73.2199
-57.9815
-36.9338
-13.8162
9.59354
33.356
57.1083
79.8312
100.482
117.643
129.034
135.879
139.915
142.215
143.52
144.285
144.77
145.093
145.298
145.401
145.41
145.314
145.102
144.81
144.585
144.668
145.219
146.79
149.679
147.943
187.44
155.039
128.013
97.1333
65.8532
36.4773
9.83426
-13.0482
-30.7159
-42.3355
-47.7595
-46.6337
-38.1504
-23.2955
-4.80152
15.2246
36.1712
57.5618
78.4577
97.8416
114.493
126.117
133.643
138.62
141.755
143.63
144.671
145.197
145.446
145.565
145.615
145.598
145.492
145.276
144.955
144.631
144.509
144.82
146.04
148.319
148.261
194.463
168.151
145.805
120.732
95.1741
70.499
47.2168
26.1118
8.39306
-5.04173
-13.7944
-17.3666
-14.6822
-5.84053
7.47823
23.4001
40.9556
59.4954
78.1223
95.8384
111.572
123.023
130.828
136.48
140.427
143.08
144.746
145.661
146.043
146.103
146.018
145.895
145.744
145.518
145.182
144.793
144.522
144.627
145.541
147.418
148.581
199.876
178.401
159.884
139.517
118.791
98.4912
78.8359
60.3384
43.8595
30.1733
19.7375
13.0766
11.333
14.9478
23.1279
34.5374
48.2164
63.4311
79.3314
94.9645
109.364
120.303
128.064
134.012
138.449
141.701
144.03
145.59
146.488
146.851
146.838
146.606
146.278
145.921
145.535
145.124
144.788
144.766
145.473
147.116
149.001
203.971
186.345
170.968
154.397
137.638
121.136
104.922
89.2801
74.7664
61.9406
51.204
43.003
38.3728
37.9901
41.6731
48.6658
58.2723
69.8383
82.613
95.7434
108.365
118.44
125.903
131.861
136.493
140.035
142.738
144.777
146.237
147.164
147.611
147.666
147.434
147.015
146.479
145.92
145.478
145.379
145.973
147.556
149.796
207.013
192.468
179.671
166.155
152.604
139.263
126.07
113.151
100.847
89.5075
79.4213
70.9168
64.8223
61.8263
62.0771
65.2686
71.0388
78.9395
88.3901
98.6979
109.13
117.945
124.804
130.512
135.136
138.791
141.653
143.891
145.632
146.95
147.878
148.434
148.65
148.582
148.297
147.909
147.528
147.347
147.721
149.117
151.245
209.231
197.172
186.501
175.446
164.469
153.701
143.041
132.526
122.351
112.715
103.792
95.8003
89.3383
84.9826
82.9973
83.3435
85.925
90.5238
96.77
104.17
112.159
119.358
125.275
130.428
134.802
138.418
141.35
143.699
145.569
147.055
148.229
149.135
149.8
150.242
150.483
150.612
150.748
151.054
151.739
153.297
155.081
210.814
200.78
191.87
182.8
173.885
165.186
156.596
148.103
139.812
131.835
124.254
117.198
111.073
106.304
103.147
101.678
101.95
103.919
107.407
112.117
117.667
123.069
127.782
132.094
135.943
139.296
142.154
144.551
146.54
148.181
149.538
150.672
151.641
152.494
153.27
154.026
154.835
155.813
157.038
159.052
160.76
211.932
203.563
196.115
188.65
181.384
174.34
167.414
160.577
153.877
147.376
141.101
135.118
129.692
125.111
121.574
119.178
118.028
118.173
119.565
122.066
125.456
129.11
132.53
135.836
138.95
141.817
144.4
146.693
148.709
150.477
152.03
153.411
154.669
155.859
157.043
158.288
159.657
161.248
163.072
165.522
167.754
212.757
205.768
199.537
193.373
187.429
181.705
176.108
170.599
165.2
159.94
154.823
149.874
145.262
141.175
137.745
135.054
133.206
132.277
132.287
133.196
134.901
137.069
139.296
141.6
143.91
146.165
148.319
150.344
152.233
153.994
155.641
157.198
158.693
160.165
161.658
163.223
164.912
166.804
168.935
171.482
174.18
213.328
207.428
202.155
196.994
192.062
187.34
182.747
178.246
173.846
169.558
165.378
161.31
157.46
153.95
150.866
148.265
146.228
144.828
144.105
144.066
144.675
145.785
147.097
148.581
150.183
151.851
153.54
155.218
156.867
158.484
160.071
161.637
163.198
164.774
166.393
168.081
169.867
171.793
173.888
176.2
178.723
213.696
208.639
204.107
199.713
195.545
191.579
187.739
183.994
180.344
176.792
173.331
169.957
166.738
163.757
161.068
158.71
156.741
155.22
154.188
153.668
153.655
154.107
154.806
155.709
156.777
157.972
159.255
160.597
161.978
163.389
164.825
166.287
167.779
169.311
170.896
172.546
174.271
176.089
178.013
180.045
182.198
213.953
209.562
205.619
201.824
198.25
194.864
191.602
188.434
185.357
182.37
179.465
176.636
173.928
171.397
169.079
167.001
165.203
163.73
162.617
161.89
161.557
161.629
161.945
162.463
163.158
164.001
164.962
166.017
167.147
168.341
169.591
170.891
172.242
173.642
175.099
176.612
178.183
179.819
181.522
183.285
185.111
214.144
210.292
206.828
203.515
200.413
197.487
194.68
191.966
189.34
186.799
184.334
181.938
179.644
177.489
175.5
173.692
172.097
170.746
169.669
168.887
168.414
168.282
168.373
168.648
169.092
169.685
170.403
171.226
172.14
173.132
174.193
175.316
176.496
177.731
179.018
180.355
181.739
183.171
184.647
186.16
187.709
214.295
210.89
207.823
204.905
202.187
199.634
197.195
194.846
192.581
190.398
188.286
186.241
184.284
182.443
180.737
179.175
177.781
176.578
175.589
174.832
174.32
174.094
174.06
174.188
174.47
174.891
175.43
176.074
176.81
177.627
178.515
179.467
180.476
181.538
182.648
183.801
184.992
186.22
187.479
188.762
190.066
214.423
211.393
208.658
206.071
203.671
201.425
199.288
197.238
195.27
193.378
191.556
189.797
188.119
186.54
185.075
183.73
182.522
181.469
180.587
179.893
179.397
179.138
179.043
179.087
179.267
179.57
179.982
180.49
181.084
181.754
182.492
183.29
184.142
185.041
185.984
186.963
187.974
189.013
190.075
191.153
192.244
214.535
211.823
209.373
207.064
204.932
202.943
201.058
199.257
197.535
195.886
194.303
192.782
191.335
189.977
188.716
187.559
186.518
185.605
184.834
184.216
183.762
183.506
183.387
183.386
183.504
183.728
184.048
184.453
184.935
185.486
186.098
186.764
187.478
188.233
189.026
189.849
190.698
191.57
192.46
193.361
194.269
214.638
212.198
209.992
207.921
206.016
204.246
202.574
200.983
199.467
198.021
196.64
195.318
194.066
192.893
191.807
190.812
189.916
189.13
188.464
187.926
187.524
187.289
187.166
187.145
187.224
187.396
187.65
187.977
188.372
188.827
189.334
189.889
190.485
191.116
191.779
192.468
193.177
193.905
194.647
195.398
196.152
214.733
212.53
210.534
208.669
206.959
205.376
203.885
202.473
201.133
199.86
198.649
197.496
196.408
195.393
194.456
193.599
192.83
192.156
191.585
191.122
190.775
190.567
190.453
190.424
190.482
190.618
190.823
191.092
191.418
191.795
192.218
192.68
193.177
193.704
194.257
194.832
195.423
196.03
196.647
197.271
197.896
214.824
212.825
211.014
209.326
207.786
206.363
205.029
203.77
202.581
201.456
200.391
199.381
198.433
197.553
196.743
196.006
195.346
194.77
194.282
193.889
193.593
193.415
193.315
193.286
193.331
193.442
193.612
193.835
194.107
194.422
194.774
195.161
195.576
196.016
196.477
196.956
197.449
197.954
198.467
198.986
199.505
214.91
213.09
211.441
209.909
208.515
207.232
206.034
204.908
203.848
202.851
201.911
201.025
200.197
199.432
198.731
198.096
197.531
197.039
196.625
196.293
196.044
195.895
195.809
195.784
195.822
195.916
196.059
196.247
196.475
196.739
197.035
197.359
197.706
198.074
198.459
198.859
199.27
199.69
200.117
200.549
200.98
214.993
213.33
211.822
210.427
209.161
208.001
206.921
205.91
204.964
204.077
203.246
202.466
201.742
201.075
200.468
199.921
199.437
199.019
198.668
198.389
198.181
198.058
197.988
197.969
198.002
198.083
198.206
198.365
198.558
198.782
199.031
199.303
199.594
199.902
200.225
200.559
200.902
201.253
201.609
201.969
202.327
215.072
213.548
212.165
210.889
209.737
208.683
207.707
206.797
205.95
205.16
204.423
203.736
203.1
202.52
201.993
201.522
201.108
200.752
200.456
200.222
200.051
199.951
199.894
199.881
199.912
199.984
200.09
200.226
200.391
200.58
200.791
201.021
201.266
201.525
201.796
202.076
202.363
202.656
202.953
203.254
203.552
215.148
213.746
212.473
211.304
210.25
209.291
208.406
207.585
206.824
206.119
205.464
204.857
204.3
203.793
203.337
202.931
202.577
202.274
202.026
201.831
201.69
201.611
201.566
201.558
201.588
201.652
201.744
201.863
202.004
202.165
202.344
202.538
202.746
202.964
203.191
203.426
203.667
203.913
204.162
204.413
204.663
215.22
213.926
212.751
211.675
210.71
209.834
209.029
208.287
207.602
206.97
206.388
205.852
205.362
204.92
204.524
204.175
203.872
203.616
203.407
203.245
203.131
203.068
203.035
203.032
203.061
203.118
203.2
203.302
203.424
203.562
203.714
203.879
204.055
204.239
204.431
204.629
204.831
205.038
205.246
205.457
205.666
215.289
214.09
213.002
212.009
211.121
210.318
209.585
208.911
208.294
207.728
207.209
206.734
206.304
205.918
205.575
205.274
205.016
204.799
204.625
204.492
204.399
204.351
204.326
204.328
204.356
204.408
204.48
204.57
204.675
204.794
204.924
205.065
205.214
205.37
205.532
205.699
205.869
206.043
206.218
206.395
206.571
215.354
214.239
213.228
212.308
211.488
210.751
210.08
209.468
208.91
208.402
207.939
207.519
207.141
206.804
206.507
206.248
206.028
205.846
205.7
205.591
205.517
205.481
205.464
205.469
205.497
205.545
205.609
205.687
205.778
205.881
205.993
206.113
206.239
206.372
206.509
206.65
206.794
206.94
207.088
207.237
207.385
215.416
214.374
213.431
212.576
211.817
211.137
210.522
209.965
209.46
209.002
208.589
208.217
207.884
207.59
207.333
207.112
206.925
206.772
206.651
206.562
206.504
206.478
206.468
206.475
206.503
206.546
206.603
206.672
206.752
206.84
206.937
207.039
207.147
207.26
207.376
207.496
207.617
207.741
207.866
207.991
208.115
215.473
214.496
213.613
212.815
212.11
211.481
210.916
210.406
209.948
209.536
209.167
208.837
208.545
208.289
208.067
207.877
207.719
207.591
207.492
207.421
207.376
207.358
207.353
207.363
207.389
207.43
207.481
207.542
207.611
207.688
207.771
207.859
207.952
208.047
208.146
208.248
208.351
208.455
208.56
208.666
208.77
215.526
214.606
213.775
213.028
212.37
211.786
211.264
210.798
210.381
210.01
209.68
209.388
209.131
208.908
208.717
208.556
208.422
208.316
208.235
208.179
208.145
208.134
208.133
208.145
208.171
208.208
208.254
208.308
208.369
208.436
208.508
208.583
208.662
208.744
208.829
208.914
209.002
209.09
209.179
209.268
209.356
215.575
214.704
213.919
213.216
212.599
212.055
211.572
211.144
210.764
210.429
210.134
209.875
209.65
209.456
209.292
209.155
209.044
208.957
208.892
208.848
208.823
208.818
208.821
208.835
208.86
208.895
208.937
208.985
209.038
209.097
209.159
209.224
209.292
209.362
209.434
209.507
209.581
209.655
209.73
209.806
209.88
215.62
214.791
214.045
213.38
212.799
212.291
211.842
211.447
211.101
210.798
210.534
210.305
210.107
209.94
209.8
209.685
209.592
209.521
209.47
209.437
209.42
209.42
209.426
209.442
209.466
209.498
209.536
209.579
209.627
209.678
209.732
209.788
209.846
209.906
209.967
210.029
210.092
210.155
210.219
210.283
210.345
215.66
214.866
214.154
213.522
212.973
212.494
212.076
211.712
211.395
211.12
210.884
210.681
210.509
210.365
210.246
210.15
210.074
210.018
209.978
209.955
209.945
209.949
209.959
209.975
209.999
210.03
210.065
210.103
210.146
210.191
210.238
210.287
210.337
210.388
210.441
210.494
210.547
210.6
210.654
210.708
210.76
215.695
214.931
214.247
213.643
213.12
212.668
212.277
211.938
211.648
211.399
211.187
211.008
210.859
210.735
210.635
210.556
210.495
210.451
210.422
210.407
210.403
210.411
210.422
210.44
210.463
210.492
210.524
210.559
210.597
210.637
210.678
210.72
210.764
210.808
210.853
210.898
210.943
210.989
211.034
211.08
211.124
215.726
214.985
214.324
213.743
213.243
212.814
212.445
212.13
211.862
211.636
211.447
211.289
211.16
211.055
210.972
210.908
210.861
210.829
210.809
210.801
210.803
210.815
210.829
210.848
210.872
210.899
210.93
210.962
210.996
211.032
211.068
211.106
211.144
211.182
211.22
211.259
211.297
211.336
211.374
211.412
211.449
215.752
215.028
214.385
213.822
213.341
212.931
212.582
212.287
212.04
211.835
211.665
211.527
211.415
211.327
211.26
211.209
211.174
211.151
211.139
211.138
211.144
211.158
211.174
211.194
211.218
211.244
211.272
211.302
211.333
211.365
211.398
211.431
211.464
211.497
211.53
211.563
211.596
211.629
211.662
211.694
211.725
215.773
215.061
214.43
213.881
213.414
213.019
212.687
212.41
212.182
211.995
211.843
211.722
211.628
211.555
211.502
211.464
211.441
211.428
211.425
211.431
211.442
211.46
211.48
211.502
211.526
211.553
211.581
211.609
211.638
211.668
211.697
211.727
211.756
211.785
211.814
211.843
211.871
211.899
211.926
211.953
211.979
215.79
215.085
214.462
213.923
213.466
213.083
212.764
212.502
212.288
212.117
211.982
211.877
211.797
211.738
211.697
211.67
211.655
211.651
211.654
211.664
211.679
211.699
211.72
211.742
211.767
211.793
211.82
211.847
211.874
211.901
211.928
211.955
211.981
212.007
212.032
212.057
212.082
212.106
212.129
212.152
212.175
215.801
215.097
214.479
213.945
213.496
213.122
212.814
212.564
212.363
212.205
212.084
211.993
211.927
211.882
211.855
211.842
211.84
211.846
211.859
211.877
211.899
211.924
211.949
211.975
212.002
212.03
212.057
212.084
212.111
212.137
212.162
212.187
212.211
212.234
212.256
212.278
212.299
212.32
212.34
212.359
212.378
215.806
215.092
214.468
213.934
213.488
213.12
212.822
212.583
212.396
212.252
212.144
212.065
212.011
211.977
211.958
211.952
211.956
211.968
211.985
212.006
212.03
212.057
212.083
212.11
212.138
212.165
212.192
212.218
212.244
212.269
212.293
212.316
212.338
212.359
212.38
212.4
212.419
212.437
212.455
212.472
212.489
215.803
215.071
214.435
213.894
213.444
213.079
212.786
212.556
212.38
212.249
212.156
212.095
212.059
212.044
212.046
212.06
212.083
212.112
212.143
212.176
212.209
212.243
212.276
212.308
212.339
212.369
212.397
212.425
212.451
212.475
212.499
212.521
212.542
212.562
212.58
212.598
212.615
212.631
212.646
212.66
212.674
159.539
164.409
170.764
175.809
180.998
186.387
191.517
196.217
200.419
204.091
207.242
209.904
212.122
213.948
215.431
216.618
217.554
218.279
218.83
219.237
219.528
219.725
219.846
219.908
219.923
219.901
219.852
219.781
219.695
219.598
219.494
219.385
219.274
219.163
219.053
218.946
218.843
218.744
218.65
218.561
218.478
218.402
218.33
218.264
218.203
218.146
218.091
218.04
217.991
217.943
217.896
217.852
217.808
217.765
217.724
217.684
217.645
217.608
217.572
217.538
217.506
217.475
217.446
217.419
217.394
217.371
217.35
217.332
217.315
217.303
217.29
217.285
217.271
217.286
155.932
162.384
169.098
174.708
180.279
185.892
191.186
196.01
200.302
204.038
207.233
209.922
212.156
213.99
215.476
216.661
217.593
218.314
218.859
219.26
219.545
219.735
219.852
219.909
219.92
219.895
219.843
219.77
219.682
219.584
219.478
219.369
219.257
219.146
219.036
218.928
218.824
218.725
218.63
218.541
218.458
218.381
218.31
218.245
218.184
218.128
218.075
218.025
217.978
217.932
217.887
217.844
217.801
217.76
217.719
217.68
217.642
217.605
217.569
217.535
217.503
217.472
217.443
217.416
217.391
217.368
217.347
217.328
217.312
217.299
217.286
217.281
217.268
217.283
152.703
159.183
166.699
173.24
179.365
185.296
190.809
195.786
200.185
203.994
207.238
209.957
212.208
214.05
215.536
216.719
217.645
218.358
218.896
219.289
219.566
219.75
219.86
219.912
219.918
219.889
219.834
219.758
219.668
219.568
219.461
219.351
219.239
219.127
219.016
218.908
218.804
218.704
218.609
218.52
218.436
218.359
218.289
218.224
218.164
218.109
218.058
218.009
217.964
217.919
217.876
217.835
217.793
217.753
217.714
217.675
217.638
217.601
217.566
217.532
217.5
217.469
217.44
217.412
217.387
217.364
217.343
217.324
217.307
217.294
217.282
217.277
217.264
217.279
150.047
155.977
163.879
171.357
178.197
184.563
190.367
195.544
200.075
203.97
207.267
210.019
212.287
214.134
215.619
216.796
217.713
218.416
218.943
219.327
219.594
219.77
219.872
219.917
219.918
219.884
219.825
219.746
219.653
219.551
219.443
219.331
219.218
219.106
218.995
218.887
218.782
218.682
218.587
218.497
218.414
218.337
218.267
218.202
218.143
218.089
218.039
217.992
217.948
217.905
217.864
217.823
217.783
217.744
217.706
217.668
217.631
217.595
217.56
217.526
217.494
217.464
217.435
217.407
217.382
217.359
217.338
217.319
217.303
217.29
217.277
217.273
217.259
217.275
148.467
153.585
161.172
169.189
176.742
183.654
189.834
195.268
199.97
203.972
207.331
210.115
212.398
214.249
215.729
216.896
217.801
218.491
219.004
219.375
219.63
219.795
219.888
219.925
219.919
219.88
219.815
219.733
219.637
219.533
219.423
219.309
219.196
219.082
218.971
218.863
218.758
218.658
218.562
218.473
218.39
218.313
218.243
218.179
218.121
218.069
218.02
217.974
217.931
217.89
217.85
217.811
217.772
217.734
217.696
217.659
217.623
217.588
217.553
217.52
217.488
217.457
217.429
217.402
217.376
217.353
217.332
217.314
217.297
217.284
217.272
217.268
217.255
217.271
147.786
152.098
159.045
167.11
175.124
182.563
189.19
194.941
199.855
203.998
207.439
210.261
212.556
214.405
215.875
217.027
217.914
218.585
219.081
219.435
219.676
219.827
219.909
219.936
219.922
219.875
219.806
219.719
219.62
219.512
219.4
219.285
219.17
219.056
218.944
218.836
218.731
218.631
218.535
218.446
218.363
218.287
218.218
218.155
218.098
218.046
217.998
217.954
217.912
217.873
217.834
217.796
217.759
217.722
217.685
217.649
217.614
217.579
217.545
217.512
217.481
217.45
217.422
217.395
217.37
217.347
217.326
217.307
217.291
217.279
217.266
217.263
217.249
217.266
147.812
151.516
157.809
165.541
173.646
181.414
188.45
194.559
199.727
204.035
207.583
210.462
212.775
214.618
216.07
217.198
218.06
218.707
219.179
219.512
219.733
219.868
219.936
219.951
219.926
219.872
219.796
219.703
219.6
219.489
219.374
219.258
219.141
219.026
218.914
218.805
218.701
218.6
218.506
218.417
218.334
218.259
218.19
218.128
218.072
218.021
217.975
217.932
217.892
217.854
217.816
217.78
217.744
217.708
217.673
217.638
217.603
217.569
217.536
217.503
217.472
217.442
217.414
217.387
217.362
217.34
217.319
217.301
217.284
217.272
217.26
217.257
217.244
217.261
148.491
151.848
157.58
164.809
172.671
180.475
187.74
194.15
199.587
204.087
207.753
210.701
213.048
214.894
216.327
217.423
218.25
218.862
219.304
219.608
219.806
219.92
219.969
219.97
219.933
219.869
219.784
219.686
219.577
219.462
219.345
219.226
219.108
218.992
218.88
218.771
218.666
218.567
218.472
218.384
218.302
218.228
218.16
218.099
218.044
217.994
217.949
217.908
217.869
217.832
217.796
217.762
217.727
217.692
217.658
217.624
217.591
217.557
217.525
217.493
217.462
217.433
217.405
217.379
217.354
217.331
217.311
217.293
217.277
217.265
217.253
217.251
217.238
217.256
149.739
153.038
158.351
165.064
172.5
180.063
187.299
193.835
199.467
204.156
207.955
210.974
213.354
215.212
216.636
217.706
218.493
219.063
219.463
219.731
219.897
219.985
220.012
219.994
219.943
219.866
219.772
219.666
219.551
219.432
219.311
219.19
219.07
218.953
218.84
218.731
218.627
218.528
218.435
218.347
218.267
218.193
218.126
218.067
218.013
217.965
217.921
217.881
217.844
217.809
217.774
217.741
217.708
217.675
217.642
217.609
217.576
217.544
217.512
217.481
217.451
217.422
217.395
217.369
217.345
217.323
217.302
217.285
217.269
217.258
217.246
217.244
217.232
217.251
151.369
154.883
160.027
166.293
173.261
180.425
187.395
193.828
199.485
204.273
208.184
211.281
213.696
215.557
216.969
218.016
218.774
219.306
219.662
219.886
220.012
220.066
220.066
220.025
219.955
219.864
219.758
219.642
219.521
219.396
219.271
219.147
219.026
218.908
218.795
218.686
218.582
218.484
218.392
218.306
218.227
218.154
218.089
218.031
217.978
217.932
217.89
217.851
217.816
217.782
217.749
217.717
217.686
217.654
217.623
217.591
217.56
217.528
217.498
217.467
217.438
217.41
217.383
217.358
217.334
217.313
217.293
217.276
217.261
217.25
217.239
217.237
217.225
217.245
153.059
156.999
162.281
168.329
174.893
181.616
188.192
194.338
199.824
204.551
208.471
211.607
214.057
215.929
217.322
218.333
219.054
219.552
219.876
220.064
220.151
220.167
220.133
220.064
219.971
219.862
219.742
219.615
219.485
219.354
219.225
219.098
218.974
218.855
218.742
218.633
218.531
218.434
218.343
218.259
218.181
218.11
218.047
217.99
217.94
217.895
217.854
217.818
217.784
217.752
217.721
217.691
217.661
217.631
217.601
217.571
217.541
217.511
217.481
217.452
217.424
217.396
217.37
217.346
217.323
217.302
217.283
217.266
217.251
217.241
217.23
217.229
217.218
217.239
154.674
159.029
164.584
170.706
177.078
183.467
189.649
195.422
200.611
205.123
208.915
211.989
214.422
216.295
217.677
218.656
219.33
219.779
220.061
220.216
220.276
220.267
220.206
220.109
219.99
219.859
219.722
219.582
219.443
219.304
219.17
219.039
218.913
218.793
218.68
218.572
218.47
218.375
218.286
218.204
218.129
218.06
217.999
217.944
217.896
217.853
217.814
217.78
217.748
217.718
217.689
217.661
217.633
217.604
217.576
217.548
217.519
217.49
217.462
217.434
217.407
217.381
217.356
217.332
217.31
217.289
217.271
217.255
217.241
217.231
217.222
217.221
217.211
217.232
156.788
161.248
166.811
172.973
179.278
185.508
191.449
196.914
201.785
206.014
209.583
212.499
214.828
216.643
217.992
218.942
219.582
219.989
220.221
220.328
220.35
220.315
220.238
220.129
219.997
219.851
219.697
219.543
219.391
219.244
219.103
218.968
218.841
218.72
218.606
218.5
218.4
218.307
218.221
218.141
218.069
218.003
217.944
217.892
217.846
217.805
217.769
217.737
217.707
217.679
217.652
217.626
217.6
217.574
217.548
217.521
217.495
217.468
217.441
217.414
217.389
217.363
217.339
217.317
217.296
217.276
217.259
217.243
217.23
217.221
217.212
217.212
217.203
217.225
161.126
164.817
169.627
175.465
181.513
187.458
193.141
198.382
203.044
207.048
210.388
213.108
215.28
216.979
218.249
219.152
219.763
220.144
220.344
220.409
220.387
220.312
220.204
220.076
219.937
219.791
219.639
219.483
219.325
219.171
219.023
218.883
218.753
218.632
218.519
218.414
218.317
218.227
218.144
218.068
217.999
217.936
217.881
217.832
217.789
217.751
217.717
217.687
217.66
217.635
217.611
217.587
217.564
217.54
217.516
217.491
217.467
217.442
217.417
217.392
217.368
217.344
217.321
217.3
217.28
217.261
217.245
217.23
217.218
217.21
217.202
217.203
217.194
217.218
166.882
170.11
174.192
179.485
185.014
190.356
195.435
200.138
204.337
207.972
211.049
213.587
215.615
217.18
218.353
219.2
219.781
220.15
220.347
220.41
220.378
220.284
220.146
219.985
219.819
219.657
219.501
219.351
219.205
219.06
218.918
218.78
218.649
218.526
218.414
218.311
218.217
218.131
218.053
217.982
217.917
217.859
217.807
217.762
217.722
217.688
217.658
217.631
217.607
217.585
217.563
217.543
217.522
217.501
217.479
217.457
217.435
217.412
217.389
217.367
217.344
217.322
217.301
217.281
217.262
217.245
217.229
217.216
217.205
217.198
217.191
217.193
217.185
217.21
172.619
175.528
178.833
183.056
187.639
192.22
196.723
201.052
205.055
208.608
211.644
214.146
216.127
217.612
218.662
219.358
219.788
220.033
220.155
220.19
220.163
220.088
219.971
219.824
219.659
219.49
219.321
219.159
219.009
218.872
218.744
218.624
218.508
218.397
218.29
218.191
218.1
218.018
217.945
217.879
217.82
217.768
217.721
217.681
217.646
217.615
217.589
217.566
217.545
217.527
217.509
217.491
217.474
217.456
217.437
217.418
217.399
217.379
217.358
217.338
217.317
217.297
217.278
217.26
217.243
217.227
217.213
217.201
217.191
217.184
217.178
217.182
217.175
217.201
177.584
180.177
182.915
186.091
189.553
193.125
196.733
200.313
203.775
207.021
209.974
212.575
214.782
216.577
217.969
218.99
219.68
220.084
220.253
220.247
220.125
219.946
219.75
219.561
219.384
219.22
219.061
218.906
218.758
218.62
218.492
218.379
218.279
218.189
218.107
218.03
217.956
217.885
217.82
217.76
217.707
217.66
217.62
217.586
217.556
217.531
217.509
217.49
217.474
217.46
217.446
217.432
217.419
217.404
217.389
217.374
217.357
217.34
217.323
217.305
217.287
217.27
217.253
217.236
217.221
217.207
217.194
217.184
217.175
217.17
217.165
217.17
217.164
217.192
181.177
183.365
185.651
188.109
190.739
193.484
196.293
199.122
201.921
204.636
207.218
209.62
211.806
213.743
215.408
216.785
217.869
218.67
219.213
219.537
219.683
219.691
219.597
219.436
219.237
219.028
218.831
218.653
218.498
218.363
218.242
218.134
218.038
217.952
217.878
217.815
217.76
217.71
217.664
217.619
217.578
217.54
217.506
217.478
217.455
217.435
217.419
217.406
217.395
217.385
217.376
217.367
217.357
217.347
217.336
217.324
217.312
217.298
217.284
217.269
217.254
217.239
217.224
217.21
217.197
217.185
217.174
217.165
217.158
217.155
217.151
217.157
217.153
217.183
184.134
185.939
187.828
189.795
191.862
194.018
196.234
198.48
200.728
202.946
205.098
207.155
209.087
210.87
212.486
213.922
215.171
216.229
217.097
217.777
218.277
218.608
218.793
218.857
218.83
218.739
218.607
218.454
218.297
218.148
218.016
217.905
217.812
217.735
217.668
217.61
217.56
217.518
217.483
217.453
217.427
217.404
217.382
217.362
217.346
217.333
217.323
217.315
217.309
217.305
217.3
217.296
217.291
217.285
217.279
217.271
217.262
217.252
217.242
217.23
217.218
217.206
217.194
217.182
217.171
217.161
217.152
217.145
217.14
217.138
217.137
217.144
217.141
217.173
186.71
188.177
189.708
191.289
192.939
194.658
196.429
198.233
200.054
201.872
203.665
205.41
207.085
208.672
210.152
211.513
212.746
213.844
214.807
215.636
216.335
216.908
217.36
217.696
217.924
218.053
218.1
218.082
218.019
217.927
217.823
217.715
217.615
217.528
217.457
217.402
217.36
217.326
217.299
217.277
217.261
217.249
217.24
217.234
217.228
217.223
217.22
217.218
217.218
217.219
217.22
217.221
217.221
217.22
217.218
217.214
217.21
217.204
217.197
217.189
217.18
217.171
217.162
217.153
217.144
217.136
217.129
217.124
217.121
217.121
217.121
217.13
217.129
217.162
189.038
190.221
191.451
192.723
194.05
195.431
196.858
198.318
199.803
201.298
202.791
204.265
205.705
207.095
208.421
209.669
210.83
211.896
212.861
213.725
214.488
215.155
215.729
216.217
216.622
216.947
217.195
217.369
217.473
217.518
217.516
217.48
217.423
217.356
217.287
217.225
217.173
217.135
217.111
217.096
217.089
217.086
217.086
217.09
217.095
217.102
217.109
217.115
217.122
217.128
217.135
217.141
217.146
217.15
217.153
217.154
217.154
217.152
217.149
217.145
217.139
217.133
217.127
217.121
217.115
217.109
217.105
217.102
217.1
217.102
217.104
217.115
217.115
217.151
191.167
192.115
193.1
194.123
195.191
196.305
197.459
198.645
199.858
201.09
202.331
203.572
204.8
206.005
207.175
208.299
209.368
210.373
211.306
212.164
212.943
213.643
214.267
214.817
215.298
215.716
216.075
216.379
216.628
216.824
216.966
217.057
217.103
217.112
217.096
217.064
217.025
216.986
216.953
216.93
216.919
216.919
216.926
216.938
216.953
216.968
216.985
217.002
217.018
217.032
217.045
217.056
217.067
217.076
217.084
217.09
217.094
217.097
217.098
217.097
217.096
217.094
217.09
217.087
217.084
217.081
217.079
217.078
217.078
217.082
217.086
217.099
217.101
217.14
193.154
193.909
194.695
195.515
196.374
197.271
198.203
199.166
200.156
201.168
202.197
203.235
204.275
205.309
206.328
207.323
208.287
209.21
210.087
210.912
211.679
212.385
213.03
213.613
214.136
214.601
215.013
215.376
215.695
215.973
216.213
216.414
216.575
216.695
216.775
216.82
216.836
216.834
216.82
216.802
216.785
216.775
216.775
216.786
216.805
216.828
216.853
216.878
216.903
216.926
216.948
216.967
216.983
216.998
217.011
217.022
217.031
217.038
217.044
217.047
217.05
217.051
217.051
217.051
217.051
217.051
217.051
217.053
217.055
217.061
217.067
217.082
217.086
217.128
195.019
195.618
196.241
196.896
197.585
198.305
199.056
199.835
200.641
201.47