/*--------------------------------*- C++ -*----------------------------------*\
| =========                 |                                                 |
| \\      /  F ield         | OpenFOAM: The Open Source CFD Toolbox           |
|  \\    /   O peration     | Version:  5.x                                   |
|   \\  /    A nd           | Web:      www.OpenFOAM.org                      |
|    \\/     M anipulation  |                                                 |
\*---------------------------------------------------------------------------*/
FoamFile
{
    version     2.0;
    format      ascii;
    class       volScalarField;
    location    "250";
    object      p;
}
// * * * * * * * * * * * * * * * * * * * * * * * * * * * * * * * * * * * * * //

dimensions      [0 2 -2 0 0 0 0];

internalField   nonuniform List<scalar> 
11040
(
-0.0128351
-99.7832
-337.131
-401.238
-422.404
-435.356
-436.788
-426.473
-407.788
-381.842
-348.149
-296.402
-246.591
-211.11
-186.314
-159.884
-133.042
-107.688
-83.6886
-60.527
-38.1161
-18.7594
-2.58619
12.5488
26.7253
39.9675
52.2718
63.6273
73.974
83.2135
91.235
97.9199
103.211
107.173
110.001
111.948
112.763
112.203
111.875
115.36
115.449
36.5803
-59.9369
-212.519
-290.515
-331.413
-361.469
-379.285
-383.453
-376.457
-360.006
-334.31
-291.415
-246.239
-211.403
-186.061
-159.94
-133.405
-108.184
-84.2629
-61.1648
-38.7946
-19.4856
-3.28178
11.883
26.0915
39.3714
51.7207
63.1273
73.534
82.8445
90.9422
97.7072
103.077
107.1
109.964
111.96
112.844
112.268
111.527
113.984
113.552
61.27
-32.51
-142.384
-234.041
-288.817
-325.038
-347.615
-356.269
-353.269
-340.596
-319.272
-283.682
-242.906
-208.896
-183.452
-158.323
-132.552
-107.725
-84.0761
-61.1975
-38.9863
-19.7561
-3.59486
11.5394
25.729
39.0018
51.3561
62.7778
73.2109
82.561
90.7113
97.5407
102.977
107.058
109.962
111.997
112.945
112.424
111.541
113.199
112.416
78.6613
-5.13385
-87.3883
-171.048
-229.438
-270.866
-300.447
-317.054
-321.338
-315.134
-299.966
-272.121
-236.867
-204.805
-179.686
-155.669
-130.886
-106.655
-83.4313
-60.8961
-38.9399
-19.876
-3.81298
11.2546
25.398
38.6421
50.9848
62.4099
72.8616
82.2475
90.4511
97.349
102.862
107.017
109.974
112.032
113.018
112.559
111.629
112.806
112.19
92.3657
20.5852
-43.3191
-114.927
-173.766
-218.796
-253.043
-275.626
-286.285
-286.309
-277.294
-257.083
-228.228
-199.133
-174.76
-151.892
-128.329
-104.93
-82.3002
-60.2513
-38.6787
-19.8792
-3.97823
10.9686
25.0201
38.1973
50.4979
61.903
72.3576
81.7714
90.0291
97.0075
102.621
106.884
109.928
112.024
113.047
112.676
111.747
112.751
112.635
102.796
42.9911
-8.01282
-67.4145
-121.961
-167.085
-203.654
-230.723
-247.162
-253.42
-250.777
-238.132
-216.259
-191.184
-168.303
-146.793
-124.701
-102.398
-80.5489
-59.1383
-38.0866
-19.6514
-3.99437
10.7589
24.6554
37.7103
49.9209
61.266
71.6915
81.1104
89.411
96.4726
102.205
106.608
109.78
111.949
113.04
112.825
111.987
112.98
113.41
110.696
61.6976
20.2739
-28.2833
-75.9796
-118.343
-154.794
-184.191
-204.921
-216.659
-220.121
-214.714
-200.126
-180.163
-159.823
-140.098
-119.763
-98.8601
-78.0337
-57.4461
-37.0725
-19.121
-3.80552
10.6707
24.3385
37.2039
49.2631
60.4938
70.8441
80.232
88.5521
95.6897
101.553
106.125
109.474
111.772
112.991
113.023
112.41
113.462
114.43
116.649
76.7942
42.8461
3.40086
-36.7716
-74.4734
-108.709
-138.246
-161.362
-177.194
-185.873
-186.926
-179.418
-165.321
-148.616
-131.321
-113.128
-94.0011
-74.5163
-54.9933
-35.4998
-18.1863
-3.33153
10.7665
24.1161
36.7098
48.5406
59.5855
69.7961
79.0981
87.3962
94.5858
100.578
105.343
108.918
111.425
112.872
113.267
113.035
114.263
115.655
121.078
88.6865
60.7318
28.7457
-4.34503
-36.5687
-67.1331
-94.9436
-118.473
-136.644
-149.147
-155.444
-154.258
-146.207
-134.003
-119.89
-104.318
-87.4056
-69.6598
-51.5129
-33.1536
-16.6694
-2.4217
11.1691
24.0876
36.3095
47.819
58.5907
68.5793
77.7196
85.9299
93.121
99.2133
104.173
108.014
110.818
112.62
113.523
113.84
115.413
117.052
124.3
97.8979
74.8057
48.8625
21.9369
-4.84911
-31.0616
-55.9064
-78.1932
-96.921
-111.567
-121.531
-125.407
-122.932
-115.61
-105.312
-92.8685
-78.6219
-63.0592
-46.67
-29.7586
-14.337
-0.873595
12.0503
24.3994
36.1303
47.2124
57.6133
67.2885
76.1806
84.2217
91.3404
97.4734
102.592
106.704
109.87
112.141
113.687
114.716
116.787
118.604
126.577
104.956
85.8284
64.757
42.9747
21.0912
-0.744395
-22.0553
-41.9996
-59.8147
-74.9755
-86.9071
-94.258
-96.2991
-93.5978
-87.3797
-78.4435
-67.2566
-54.3037
-40.0856
-24.9884
-10.9098
1.55664
13.6235
25.2372
36.3359
46.8693
56.7935
66.0615
74.62
82.4119
89.3813
95.482
100.697
105.041
108.571
111.352
113.591
115.411
118.057
120.167
128.132
110.336
94.4519
77.3002
59.7108
42.0038
24.1607
6.4201
-10.6804
-26.6301
-41.0274
-53.3974
-62.5885
-67.7271
-68.7929
-66.3865
-61.0207
-53.1061
-43.0799
-31.4039
-18.492
-6.06527
5.16054
16.1529
26.8381
37.138
46.9807
56.3073
65.0653
73.2028
80.6695
87.4204
93.4222
98.6681
103.184
107.025
110.265
113.113
115.653
118.798
121.374
129.16
114.442
101.222
87.2236
73.0118
58.7462
44.33
29.8546
15.633
1.9844
-10.8481
-22.5284
-32.1643
-38.9484
-42.5841
-43.2297
-41.0671
-36.3247
-29.3159
-20.4076
-9.97606
0.510595
10.2486
19.9398
29.4895
38.8051
47.7949
56.3844
64.5132
72.1287
79.1839
85.6409
91.4747
96.6839
101.298
105.367
108.959
112.252
115.32
118.754
121.805
129.821
117.6
106.58
95.1235
83.6195
72.1388
60.5587
48.892
37.3087
25.9927
15.0678
4.73537
-4.36312
-11.5852
-16.5725
-19.2491
-19.5594
-17.535
-13.326
-7.1631
0.669568
9.02345
17.0729
25.2654
33.4887
41.6391
49.6091
57.3111
64.6776
71.6531
78.1914
84.2577
89.8305
94.9093
99.5203
103.703
107.506
111.057
114.427
117.935
121.214
130.24
120.064
110.868
101.468
92.1345
82.8884
73.6075
64.2678
54.9558
45.7689
36.7635
28.0366
20.0215
13.1839
7.83502
4.12864
2.23101
2.24247
4.15548
7.87713
13.2398
19.44
25.71
32.2858
39.0491
45.8931
52.7027
59.3809
65.8542
72.0651
77.9672
83.5256
88.7183
93.5407
98.0112
102.153
105.995
109.617
113.069
116.5
119.74
130.525
122.04
114.361
106.63
99.0359
91.5755
84.1368
76.6817
69.2512
61.893
54.6253
47.4855
40.7525
34.7442
29.6905
25.739
23.0723
21.8416
22.1235
23.9268
27.189
31.4217
35.9779
40.9462
46.2169
51.6902
57.2551
62.8147
68.2937
73.6328
78.7846
83.713
88.3935
92.816
96.9883
100.918
104.614
108.121
111.468
114.715
117.778
130.791
123.71
117.299
110.927
104.734
98.6997
92.727
86.7759
80.8634
75.0108
69.2171
63.4923
58.009
52.9766
48.5519
44.847
42.0144
40.1999
39.5075
39.9978
41.6773
44.2997
47.3669
50.8831
54.7586
58.909
63.2378
67.6574
72.0979
76.5024
80.8242
85.0263
89.0812
92.9726
96.6988
100.255
103.639
106.869
109.961
112.93
115.738
131.029
125.063
119.653
114.334
109.214
104.264
99.3993
94.5831
89.8215
85.1235
80.4815
75.896
71.4757
67.355
63.6376
60.4012
57.7594
55.8296
54.7081
54.4679
55.1456
56.6442
58.6017
60.9856
63.7299
66.7688
70.0247
73.4251
76.9102
80.4295
83.9404
87.4076
90.803
94.107
97.3113
100.404
103.374
106.229
108.972
111.603
114.104
131.227
126.123
121.487
116.971
112.664
108.529
104.493
100.522
96.6182
92.7833
89.0079
85.2881
81.6973
78.3249
75.2387
72.4926
70.1676
68.3515
67.122
66.5453
66.6645
67.461
68.6735
70.261
72.178
74.3749
76.7921
79.3726
82.0677
84.8352
87.6385
90.4459
93.2312
95.9742
98.6636
101.284
103.822
106.279
108.65
110.928
113.107
131.411
126.988
122.966
119.08
115.402
111.892
108.487
105.159
101.904
98.7231
95.6056
92.547
89.5983
86.8216
84.2617
81.9559
79.9619
78.3436
77.1602
76.4651
76.2979
76.676
77.4083
78.4568
79.7911
81.3747
83.1621
85.11
87.18
89.3381
91.5539
93.8005
96.0547
98.2979
100.518
102.699
104.828
106.901
108.914
110.855
112.722
131.589
127.718
124.194
120.812
117.633
114.618
111.709
108.881
106.132
103.459
100.852
98.3072
95.8607
93.5574
91.4275
89.4965
87.8063
86.4029
85.3301
84.6293
84.3324
84.4709
84.9009
85.5911
86.5224
87.6669
88.9907
90.4606
92.0472
93.7237
95.4655
97.2504
99.0589
100.875
102.686
104.479
106.241
107.968
109.653
111.287
112.865
131.764
128.349
125.235
122.266
119.493
116.876
114.364
111.936
109.588
107.317
105.114
102.974
100.925
99
97.2193
95.6006
94.1743
92.9741
92.0317
91.3783
91.0383
91.0457
91.2889
91.744
92.3989
93.2325
94.2186
95.3322
96.5508
97.8534
99.2205
100.634
102.078
103.539
105.007
106.469
107.915
109.34
110.737
112.099
113.421
131.937
128.902
126.133
123.507
121.068
118.778
116.59
114.487
112.463
110.516
108.637
106.822
105.092
103.471
101.975
100.614
99.4115
98.3919
97.5783
96.9936
96.6558
96.5965
96.7266
97.0284
97.4945
98.1085
98.8498
99.6996
100.64
101.656
102.731
103.85
105.002
106.175
107.36
108.547
109.727
110.896
112.048
113.176
114.276
132.107
129.394
126.917
124.579
122.42
120.401
118.482
116.646
114.889
113.206
111.591
110.041
108.57
107.196
105.931
104.784
103.769
102.905
102.209
101.698
101.385
101.296
101.359
101.561
101.898
102.357
102.921
103.575
104.307
105.103
105.952
106.841
107.761
108.703
109.659
110.622
111.582
112.539
113.485
114.416
115.326
132.273
129.835
127.607
125.516
123.593
121.802
120.107
118.495
116.959
115.495
114.099
112.765
111.506
110.336
109.262
108.29
107.432
106.701
106.109
105.669
105.389
105.292
105.316
105.453
105.701
106.049
106.484
106.994
107.568
108.197
108.871
109.581
110.318
111.076
111.849
112.63
113.412
114.194
114.971
115.737
116.49
132.434
130.233
128.22
126.339
124.618
123.021
121.517
120.093
118.743
117.462
116.247
115.094
114.011
113.008
112.092
111.266
110.539
109.92
109.419
109.043
108.798
108.704
108.706
108.802
108.988
109.257
109.597
109.998
110.454
110.955
111.494
112.064
112.658
113.27
113.897
114.532
115.17
115.81
116.448
117.08
117.701
132.589
130.593
128.767
127.068
125.52
124.089
122.748
121.483
120.291
119.166
118.104
117.101
116.165
115.302
114.518
113.814
113.196
112.672
112.247
111.928
111.718
111.632
111.624
111.692
111.835
112.046
112.315
112.635
113
113.403
113.837
114.298
114.78
115.277
115.788
116.306
116.828
117.354
117.878
118.399
118.913
132.737
130.92
129.257
127.716
126.317
125.031
123.829
122.702
121.644
120.651
119.718
118.843
118.031
117.286
116.612
116.01
115.484
115.039
114.68
114.41
114.232
114.156
114.144
114.194
114.306
114.475
114.691
114.95
115.245
115.572
115.925
116.3
116.692
117.099
117.517
117.941
118.371
118.803
119.236
119.667
120.092
132.879
131.217
129.697
128.294
127.026
125.864
124.783
123.774
122.832
121.952
121.131
120.364
119.657
119.011
118.43
117.914
117.466
117.089
116.785
116.557
116.407
116.343
116.329
116.368
116.458
116.595
116.771
116.982
117.223
117.491
117.78
118.087
118.41
118.744
119.087
119.437
119.792
120.149
120.507
120.865
121.218
133.013
131.488
130.093
128.811
127.657
126.603
125.628
124.722
123.88
123.098
122.372
121.699
121.08
120.52
120.018
119.575
119.192
118.871
118.615
118.423
118.298
118.244
118.232
118.263
118.337
118.45
118.595
118.769
118.968
119.189
119.428
119.681
119.948
120.224
120.508
120.798
121.092
121.388
121.686
121.984
122.277
133.139
131.734
130.451
129.275
128.221
127.262
126.378
125.562
124.807
124.11
123.467
122.873
122.332
121.844
121.41
121.028
120.701
120.429
120.212
120.052
119.948
119.904
119.894
119.92
119.982
120.076
120.198
120.343
120.509
120.692
120.89
121.101
121.323
121.552
121.788
122.03
122.274
122.521
122.77
123.019
123.264
133.258
131.959
130.773
129.691
128.725
127.849
127.046
126.308
125.63
125.007
124.435
123.911
123.436
123.011
122.634
122.306
122.026
121.795
121.612
121.478
121.393
121.358
121.35
121.373
121.426
121.506
121.609
121.731
121.87
122.023
122.189
122.366
122.551
122.743
122.94
123.141
123.346
123.553
123.761
123.969
124.175
133.369
132.163
131.064
130.065
129.175
128.373
127.641
126.972
126.361
125.803
125.293
124.83
124.413
124.041
123.715
123.432
123.193
122.997
122.843
122.732
122.662
122.635
122.63
122.651
122.697
122.766
122.853
122.957
123.074
123.204
123.343
123.492
123.647
123.808
123.974
124.143
124.314
124.488
124.663
124.838
125.01
133.473
132.349
131.325
130.399
129.578
128.841
128.171
127.563
127.011
126.51
126.055
125.645
125.278
124.954
124.671
124.427
124.223
124.056
123.928
123.836
123.779
123.759
123.757
123.777
123.818
123.877
123.953
124.041
124.141
124.251
124.369
124.495
124.626
124.761
124.901
125.043
125.188
125.334
125.481
125.629
125.774
133.568
132.517
131.561
130.699
129.938
129.257
128.644
128.089
127.589
127.138
126.732
126.369
126.046
125.762
125.517
125.307
125.133
124.993
124.885
124.81
124.765
124.751
124.752
124.77
124.807
124.859
124.925
125.001
125.086
125.18
125.281
125.387
125.498
125.613
125.731
125.852
125.974
126.097
126.221
126.346
126.468
133.657
132.668
131.771
130.966
130.258
129.628
129.063
128.557
128.102
127.696
127.333
127.011
126.726
126.479
126.267
126.087
125.939
125.821
125.732
125.671
125.636
125.627
125.631
125.649
125.682
125.729
125.786
125.852
125.926
126.006
126.092
126.183
126.277
126.375
126.475
126.577
126.68
126.785
126.89
126.995
127.099
133.737
132.804
131.959
131.204
130.542
129.957
129.435
128.971
128.558
128.191
127.866
127.58
127.33
127.114
126.931
126.777
126.652
126.554
126.481
126.432
126.405
126.401
126.407
126.425
126.456
126.497
126.547
126.605
126.669
126.739
126.812
126.89
126.971
127.054
127.139
127.225
127.313
127.402
127.49
127.58
127.667
133.811
132.925
132.125
131.413
130.793
130.247
129.764
129.337
128.96
128.628
128.338
128.084
127.864
127.677
127.519
127.388
127.283
127.202
127.143
127.105
127.086
127.086
127.094
127.112
127.141
127.179
127.224
127.274
127.33
127.39
127.454
127.521
127.59
127.661
127.733
127.807
127.882
127.957
128.032
128.108
128.182
133.877
133.031
132.271
131.597
131.012
130.501
130.051
129.658
129.313
129.013
128.753
128.528
128.336
128.173
128.038
127.928
127.84
127.774
127.727
127.699
127.686
127.69
127.699
127.717
127.745
127.779
127.819
127.864
127.913
127.966
128.021
128.079
128.138
128.199
128.261
128.323
128.387
128.451
128.515
128.579
128.641
133.935
133.125
132.397
131.756
131.202
130.72
130.301
129.937
129.622
129.35
129.117
128.918
128.75
128.609
128.495
128.403
128.331
128.279
128.243
128.223
128.217
128.224
128.236
128.255
128.281
128.313
128.35
128.39
128.434
128.48
128.528
128.578
128.629
128.682
128.735
128.788
128.842
128.896
128.951
129.005
129.058
133.987
133.204
132.505
131.891
131.363
130.908
130.515
130.177
129.888
129.641
129.432
129.257
129.111
128.991
128.894
128.818
128.761
128.72
128.694
128.681
128.68
128.69
128.703
128.722
128.748
128.778
128.811
128.847
128.886
128.927
128.969
129.013
129.057
129.102
129.148
129.194
129.24
129.286
129.332
129.378
129.423
134.032
133.271
132.595
132.004
131.498
131.065
130.695
130.38
130.114
129.89
129.703
129.549
129.423
129.321
129.241
129.181
129.137
129.107
129.09
129.085
129.09
129.104
129.12
129.141
129.166
129.196
129.227
129.261
129.296
129.333
129.37
129.409
129.447
129.486
129.526
129.565
129.604
129.643
129.682
129.722
129.759
134.069
133.325
132.666
132.093
131.605
131.192
130.841
130.547
130.301
130.098
129.932
129.796
129.688
129.603
129.539
129.491
129.459
129.438
129.429
129.429
129.438
129.453
129.471
129.492
129.517
129.545
129.574
129.605
129.637
129.67
129.703
129.737
129.771
129.806
129.84
129.874
129.908
129.941
129.975
130.008
130.04
134.1
133.366
132.719
132.16
131.687
131.288
130.955
130.679
130.451
130.267
130.118
130.001
129.91
129.841
129.791
129.757
129.737
129.728
129.729
129.737
129.752
129.773
129.795
129.819
129.846
129.874
129.903
129.933
129.964
129.995
130.025
130.056
130.086
130.116
130.146
130.175
130.204
130.232
130.261
130.288
130.315
134.124
133.397
132.758
132.208
131.745
131.359
131.039
130.777
130.566
130.397
130.265
130.164
130.088
130.034
129.996
129.973
129.961
129.959
129.965
129.977
129.994
130.016
130.039
130.064
130.09
130.118
130.146
130.174
130.202
130.231
130.259
130.286
130.314
130.341
130.367
130.393
130.419
130.444
130.468
130.492
130.516
134.141
133.414
132.779
132.235
131.78
131.403
131.094
130.845
130.647
130.492
130.375
130.288
130.227
130.188
130.166
130.158
130.162
130.174
130.192
130.216
130.242
130.271
130.3
130.33
130.36
130.39
130.42
130.449
130.477
130.505
130.532
130.558
130.583
130.607
130.631
130.653
130.675
130.696
130.717
130.737
130.755
134.149
133.411
132.771
132.226
131.774
131.403
131.104
130.868
130.683
130.543
130.44
130.367
130.318
130.289
130.275
130.273
130.281
130.296
130.317
130.343
130.372
130.403
130.433
130.463
130.493
130.523
130.553
130.581
130.609
130.635
130.661
130.685
130.709
130.731
130.753
130.774
130.793
130.812
130.831
130.848
130.865
134.147
133.39
132.737
132.185
131.73
131.362
131.069
130.842
130.67
130.545
130.458
130.404
130.377
130.371
130.381
130.405
130.438
130.476
130.517
130.559
130.6
130.641
130.68
130.717
130.754
130.788
130.821
130.852
130.881
130.908
130.934
130.958
130.981
131.002
131.023
131.041
131.059
131.076
131.092
131.106
131.121
125.962
133.391
139.279
142.558
144.398
145.53
146.076
146.204
146.07
145.767
145.36
144.894
144.399
143.898
143.402
142.922
142.461
142.023
141.61
141.221
140.857
140.516
140.198
139.902
139.625
139.368
139.129
138.906
138.699
138.506
138.326
138.158
138.001
137.854
137.717
137.587
137.466
137.351
137.244
137.142
137.047
136.957
136.873
136.793
136.717
136.646
136.579
136.515
136.454
136.397
136.343
136.293
136.245
136.199
136.157
136.116
136.077
136.04
136.004
135.97
135.936
135.903
135.871
135.84
135.809
135.779
135.749
135.72
135.691
135.666
135.638
135.62
135.587
135.596
124.954
132.943
139.096
142.608
144.544
145.679
146.2
146.298
146.135
145.807
145.38
144.897
144.39
143.878
143.375
142.889
142.424
141.983
141.568
141.179
140.814
140.473
140.156
139.86
139.584
139.328
139.09
138.868
138.662
138.47
138.292
138.125
137.97
137.824
137.688
137.56
137.439
137.326
137.219
137.119
137.024
136.936
136.852
136.773
136.699
136.628
136.561
136.498
136.438
136.381
136.328
136.277
136.23
136.185
136.142
136.102
136.064
136.027
135.992
135.958
135.925
135.893
135.861
135.83
135.8
135.77
135.741
135.713
135.685
135.659
135.632
135.615
135.581
135.59
124.206
131.758
138.561
142.524
144.639
145.821
146.336
146.408
146.213
145.855
145.403
144.9
144.377
143.854
143.342
142.849
142.38
141.936
141.519
141.129
140.764
140.423
140.106
139.811
139.537
139.282
139.045
138.825
138.621
138.43
138.254
138.089
137.935
137.791
137.656
137.529
137.41
137.298
137.192
137.093
137
136.912
136.829
136.752
136.678
136.609
136.543
136.48
136.421
136.364
136.311
136.261
136.214
136.169
136.127
136.088
136.05
136.014
135.979
135.946
135.913
135.882
135.851
135.821
135.791
135.762
135.733
135.705
135.677
135.652
135.625
135.608
135.575
135.584
123.811
130.74
137.865
142.257
144.633
145.909
146.446
146.511
146.294
145.907
145.428
144.903
144.362
143.825
143.303
142.802
142.328
141.881
141.462
141.071
140.705
140.366
140.049
139.756
139.483
139.23
138.994
138.776
138.574
138.385
138.21
138.047
137.895
137.753
137.62
137.495
137.377
137.267
137.162
137.065
136.972
136.886
136.805
136.728
136.656
136.587
136.522
136.461
136.402
136.346
136.294
136.244
136.197
136.153
136.112
136.072
136.035
136
135.965
135.933
135.901
135.87
135.84
135.81
135.781
135.752
135.724
135.697
135.669
135.645
135.618
135.601
135.569
135.578
123.93
130.356
137.293
141.855
144.49
145.91
146.497
146.571
146.346
145.944
145.444
144.899
144.339
143.787
143.254
142.746
142.266
141.815
141.394
141.002
140.637
140.298
139.983
139.691
139.42
139.169
138.936
138.72
138.52
138.334
138.162
138.001
137.851
137.711
137.58
137.457
137.341
137.232
137.129
137.033
136.942
136.857
136.777
136.702
136.631
136.564
136.5
136.439
136.381
136.326
136.275
136.226
136.179
136.136
136.095
136.056
136.02
135.985
135.951
135.919
135.888
135.858
135.828
135.799
135.77
135.742
135.715
135.688
135.661
135.637
135.61
135.594
135.562
135.571
124.305
130.462
137.009
141.509
144.257
145.798
146.465
146.569
146.343
145.931
145.423
144.868
144.298
143.734
143.191
142.674
142.189
141.735
141.313
140.92
140.556
140.218
139.905
139.615
139.347
139.099
138.869
138.656
138.458
138.275
138.106
137.948
137.8
137.663
137.534
137.413
137.3
137.193
137.092
136.998
136.909
136.825
136.747
136.673
136.604
136.538
136.475
136.415
136.359
136.305
136.254
136.206
136.16
136.117
136.077
136.039
136.003
135.969
135.936
135.905
135.874
135.845
135.816
135.787
135.759
135.732
135.705
135.678
135.652
135.628
135.602
135.586
135.555
135.563
124.802
130.822
136.959
141.336
144.048
145.608
146.334
146.489
146.28
145.863
145.345
144.783
144.21
143.646
143.101
142.581
142.092
141.637
141.213
140.821
140.458
140.123
139.812
139.526
139.261
139.016
138.79
138.58
138.387
138.207
138.041
137.886
137.743
137.608
137.482
137.364
137.253
137.149
137.05
136.958
136.871
136.79
136.713
136.641
136.573
136.509
136.448
136.389
136.334
136.281
136.231
136.184
136.139
136.097
136.058
136.021
135.985
135.952
135.92
135.889
135.86
135.831
135.803
135.775
135.748
135.721
135.694
135.668
135.642
135.619
135.593
135.578
135.547
135.555
125.477
131.242
136.956
141.246
143.906
145.415
146.142
146.326
146.143
145.738
145.217
144.644
144.062
143.497
142.957
142.445
141.962
141.51
141.09
140.7
140.34
140.008
139.702
139.42
139.159
138.919
138.697
138.492
138.303
138.128
137.966
137.816
137.676
137.545
137.423
137.308
137.2
137.099
137.003
136.913
136.829
136.75
136.675
136.606
136.539
136.477
136.417
136.361
136.306
136.255
136.206
136.16
136.117
136.076
136.037
136.001
135.966
135.934
135.903
135.873
135.844
135.816
135.788
135.761
135.735
135.709
135.683
135.657
135.632
135.609
135.584
135.569
135.538
135.547
126.442
131.666
136.808
141.035
143.712
145.21
145.924
146.108
145.938
145.546
145.033
144.461
143.872
143.298
142.754
142.245
141.773
141.334
140.926
140.546
140.194
139.869
139.568
139.292
139.038
138.804
138.588
138.389
138.205
138.036
137.879
137.734
137.599
137.472
137.354
137.244
137.139
137.041
136.949
136.862
136.781
136.704
136.633
136.565
136.501
136.441
136.383
136.328
136.276
136.226
136.179
136.134
136.092
136.052
136.014
135.979
135.946
135.914
135.884
135.855
135.827
135.8
135.773
135.747
135.721
135.696
135.67
135.646
135.621
135.599
135.574
135.559
135.529
135.538
127.577
132.018
136.43
140.53
143.262
144.812
145.59
145.826
145.682
145.298
144.79
144.222
143.637
143.064
142.516
142.001
141.528
141.096
140.701
140.338
140.002
139.692
139.404
139.137
138.892
138.665
138.457
138.266
138.09
137.927
137.777
137.638
137.509
137.388
137.275
137.169
137.069
136.976
136.887
136.804
136.726
136.653
136.584
136.519
136.458
136.4
136.345
136.292
136.242
136.194
136.149
136.105
136.064
136.026
135.99
135.956
135.924
135.893
135.864
135.836
135.809
135.783
135.757
135.732
135.707
135.682
135.657
135.634
135.609
135.588
135.564
135.549
135.52
135.529
128.368
132.041
135.673
139.52
142.342
144.014
144.919
145.294
145.268
144.965
144.497
143.946
143.365
142.791
142.242
141.727
141.253
140.821
140.427
140.072
139.75
139.458
139.189
138.941
138.711
138.498
138.301
138.119
137.952
137.798
137.657
137.525
137.403
137.289
137.183
137.083
136.988
136.9
136.816
136.737
136.663
136.594
136.529
136.467
136.409
136.354
136.302
136.252
136.204
136.158
136.115
136.073
136.034
135.998
135.963
135.93
135.899
135.87
135.842
135.815
135.79
135.764
135.74
135.715
135.691
135.667
135.643
135.62
135.597
135.576
135.552
135.538
135.509
135.519
128.259
131.392
134.38
137.816
140.635
142.479
143.605
144.223
144.429
144.321
144.004
143.56
143.046
142.502
141.96
141.443
140.962
140.523
140.127
139.772
139.455
139.172
138.917
138.687
138.478
138.285
138.106
137.941
137.787
137.645
137.514
137.392
137.279
137.173
137.075
136.982
136.894
136.811
136.733
136.66
136.591
136.526
136.465
136.408
136.354
136.302
136.253
136.206
136.161
136.118
136.077
136.038
136.001
135.966
135.933
135.902
135.873
135.845
135.818
135.793
135.768
135.744
135.721
135.697
135.674
135.651
135.628
135.606
135.583
135.563
135.54
135.526
135.498
135.508
127.214
129.984
132.545
135.483
138.106
140.035
141.381
142.292
142.824
143.031
142.991
142.776
142.445
142.04
141.597
141.14
140.686
140.251
139.845
139.477
139.149
138.859
138.606
138.385
138.19
138.016
137.859
137.715
137.582
137.458
137.342
137.233
137.132
137.037
136.948
136.863
136.784
136.709
136.638
136.57
136.507
136.448
136.392
136.34
136.29
136.243
136.197
136.154
136.112
136.072
136.034
135.998
135.963
135.931
135.9
135.871
135.843
135.817
135.792
135.768
135.745
135.722
135.7
135.678
135.656
135.634
135.612
135.59
135.569
135.549
135.527
135.514
135.487
135.497
125.437
127.911
130.207
132.724
135.078
136.99
138.474
139.606
140.42
140.944
141.226
141.319
141.267
141.104
140.862
140.566
140.24
139.899
139.555
139.218
138.894
138.593
138.321
138.083
137.878
137.705
137.558
137.432
137.321
137.221
137.128
137.039
136.955
136.874
136.797
136.724
136.654
136.588
136.525
136.466
136.41
136.357
136.308
136.261
136.217
136.174
136.134
136.095
136.057
136.021
135.986
135.953
135.921
135.891
135.863
135.836
135.811
135.787
135.764
135.741
135.72
135.698
135.678
135.657
135.636
135.615
135.594
135.574
135.553
135.534
135.513
135.5
135.474
135.485
123.173
125.401
127.51
129.727
131.84
133.675
135.217
136.492
137.512
138.287
138.845
139.22
139.445
139.55
139.558
139.491
139.366
139.197
138.997
138.777
138.546
138.31
138.077
137.849
137.635
137.441
137.272
137.132
137.018
136.928
136.854
136.79
136.731
136.674
136.617
136.559
136.502
136.447
136.394
136.343
136.296
136.252
136.21
136.17
136.132
136.095
136.06
136.026
135.994
135.962
135.931
135.902
135.874
135.847
135.822
135.798
135.775
135.753
135.732
135.712
135.692
135.672
135.653
135.634
135.614
135.595
135.575
135.556
135.536
135.518
135.498
135.486
135.461
135.473
120.676
122.699
124.646
126.639
128.553
130.291
131.835
133.189
134.348
135.312
136.092
136.705
137.173
137.516
137.754
137.908
137.993
138.022
138.007
137.954
137.871
137.764
137.639
137.501
137.356
137.209
137.061
136.917
136.785
136.669
136.575
136.503
136.449
136.409
136.376
136.345
136.313
136.277
136.24
136.202
136.165
136.129
136.095
136.064
136.033
136.004
135.976
135.948
135.921
135.895
135.869
135.844
135.82
135.797
135.775
135.754
135.734
135.715
135.697
135.678
135.661
135.643
135.626
135.608
135.591
135.573
135.554
135.536
135.518
135.501
135.482
135.471
135.447
135.459
118.218
120.051
121.836
123.635
125.375
127.005
128.51
129.884
131.119
132.208
133.15
133.953
134.625
135.178
135.625
135.979
136.255
136.464
136.619
136.728
136.8
136.841
136.854
136.844
136.814
136.767
136.707
136.637
136.56
136.478
136.394
136.31
136.234
136.17
136.121
136.087
136.064
136.048
136.034
136.019
136.002
135.982
135.962
135.94
135.919
135.898
135.878
135.857
135.837
135.817
135.797
135.778
135.759
135.74
135.722
135.705
135.689
135.673
135.657
135.642
135.627
135.611
135.596
135.58
135.565
135.548
135.532
135.515
135.498
135.482
135.464
135.454
135.431
135.445
116.226
117.865
119.478
121.09
122.664
124.169
125.597
126.938
128.183
129.324
130.356
131.278
132.093
132.804
133.418
133.942
134.385
134.756
135.064
135.318
135.525
135.693
135.829
135.936
136.018
136.077
136.115
136.133
136.135
136.122
136.098
136.067
136.029
135.987
135.943
135.9
135.864
135.837
135.82
135.811
135.808
135.806
135.803
135.797
135.789
135.779
135.768
135.756
135.744
135.731
135.717
135.704
135.691
135.677
135.664
135.651
135.638
135.626
135.614
135.601
135.589
135.576
135.564
135.55
135.536
135.522
135.507
135.492
135.477
135.462
135.446
135.437
135.415
135.431
114.913
116.353
117.784
119.212
120.617
121.985
123.306
124.573
125.777
126.91
127.966
128.941
129.832
130.64
131.365
132.011
132.582
133.082
133.519
133.897
134.222
134.502
134.74
134.944
135.116
135.261
135.381
135.479
135.558
135.617
135.66
135.688
135.704
135.71
135.709
135.702
135.691
135.675
135.658
135.644
135.635
135.632
135.635
135.64
135.646
135.649
135.65
135.648
135.644
135.638
135.632
135.625
135.618
135.61
135.602
135.593
135.585
135.576
135.567
135.558
135.549
135.539
135.529
135.518
135.506
135.494
135.481
135.468
135.454
135.441
135.426
135.418
135.398
135.415
114.251
115.492
116.736
117.98
119.217
120.436
121.632
122.797
123.923
125.004
126.034
127.007
127.919
128.768
129.551
130.269
130.923
131.514
132.045
132.52
132.942
133.316
133.645
133.934
134.188
134.408
134.6
134.767
134.91
135.033
135.138
135.225
135.297
135.355
135.399
135.433
135.458
135.475
135.486
135.491
135.492
135.49
135.489
135.491
135.498
135.508
135.519
135.529
135.536
135.54
135.541
135.541
135.54
135.538
135.535
135.532
135.528
135.523
135.518
135.513
135.507
135.5
135.492
135.484
135.475
135.465
135.454
135.442
135.43
135.418
135.405
135.398
135.38
135.399
114.15
115.198
116.257
117.323
118.392
119.458
120.517
121.561
122.586
123.585
124.553
125.485
126.376
127.222
128.019
128.767
129.463
130.107
130.699
131.241
131.734
132.18
132.583
132.944
133.268
133.556
133.812
134.039
134.239
134.416
134.572
134.709
134.83
134.935
135.026
135.104
135.168
135.222
135.265
135.299
135.325
135.345
135.358
135.367
135.374
135.381
135.39
135.403
135.417
135.431
135.443
135.451
135.457
135.462
135.465
135.466
135.467
135.467
135.466
135.464
135.462
135.458
135.453
135.448
135.441
135.433
135.424
135.415
135.404
135.395
135.382
135.377
135.36
135.383
114.492
115.362
116.247
117.145
118.053
118.968
119.886
120.802
121.713
122.612
123.496
124.36
125.199
126.009
126.786
127.528
128.231
128.894
129.516
130.095
130.633
131.129
131.585
132.001
132.381
132.725
133.036
133.317
133.568
133.794
133.996
134.176
134.337
134.482
134.611
134.726
134.828
134.918
134.996
135.062
135.117
135.162
135.199
135.229
135.251
135.268
135.281
135.293
135.305
135.32
135.336
135.353
135.368
135.38
135.39
135.397
135.403
135.408
135.411
135.413
135.414
135.414
135.412
135.409
135.405
135.4
135.394
135.386
135.377
135.369
135.358
135.355
135.339
135.366
115.163
115.874
116.602
117.347
118.106
118.878
119.66
120.449
121.241
122.032
122.82
123.599
124.366
125.117
125.849
126.558
127.241
127.895
128.519
129.11
129.667
130.19
130.678
131.131
131.551
131.937
132.292
132.616
132.912
133.181
133.424
133.644
133.843
134.022
134.184
134.33
134.462
134.581
134.689
134.785
134.869
134.943
135.006
135.059
135.102
135.138
135.167
135.19
135.208
135.223
135.238
135.254
135.272
135.29
135.308
135.323
135.335
135.345
135.353
135.359
135.364
135.367
135.369
135.369
135.368