/*--------------------------------*- C++ -*----------------------------------*\
| =========                 |                                                 |
| \\      /  F ield         | OpenFOAM: The Open Source CFD Toolbox           |
|  \\    /   O peration     | Version:  5.x                                   |
|   \\  /    A nd           | Web:      www.OpenFOAM.org                      |
|    \\/     M anipulation  |                                                 |
\*---------------------------------------------------------------------------*/
FoamFile
{
    version     2.0;
    format      ascii;
    class       volScalarField;
    location    "250";
    object      p;
}
// * * * * * * * * * * * * * * * * * * * * * * * * * * * * * * * * * * * * * //

dimensions      [0 2 -2 0 0 0 0];

internalField   nonuniform List<scalar> 
11040
(
3.44841
56.1597
75.5197
78.2597
80.8147
82.3598
83.2583
83.7629
84.0024
84.0374
83.8851
83.5448
82.9966
82.2103
81.1385
79.7552
78.0486
76.0476
73.8307
71.6276
69.8912
69.1415
69.5614
71.3612
74.673
79.4693
85.5082
92.4882
99.9979
107.596
114.659
120.55
124.87
127.555
128.495
127.606
124.958
120.89
115.914
111.777
109.013
77.998
77.1061
76.3284
78.752
80.7011
82.3388
83.2953
83.8332
84.0958
84.1512
84.0208
83.7028
83.179
82.4199
81.3767
80.0192
78.3312
76.3378
74.1145
71.8792
70.0693
69.2187
69.5366
71.2359
74.4486
79.1535
85.1188
92.0453
99.5257
107.123
114.216
120.165
124.546
127.281
128.282
127.473
124.914
120.935
116.011
111.787
108.265
119.728
103.979
84.6686
80.2148
81.0545
82.3801
83.3497
83.9151
84.196
84.2668
84.1533
83.8536
83.351
82.6163
81.6004
80.2694
78.6036
76.6248
74.4068
72.1563
70.2909
69.3481
69.5635
71.1543
74.2534
78.8465
84.7121
91.5511
98.9614
106.51
113.588
119.555
123.975
126.764
127.834
127.105
124.629
120.736
115.851
111.588
107.802
138.546
120.027
101.223
86.5272
82.4871
82.7761
83.5007
84.0562
84.3531
84.4382
84.3392
84.0539
83.5683
82.8537
81.861
80.5526
78.9064
76.9382
74.7194
72.4465
70.5175
69.468
69.5601
71.0157
73.9737
78.428
84.1706
90.903
98.2274
105.713
112.764
118.734
123.185
126.024
127.161
126.514
124.13
120.331
115.499
111.178
107.163
157.281
135.968
117.929
99.7327
87.7351
84.2235
83.9865
84.2838
84.5516
84.6491
84.5685
84.3028
83.8384
83.1481
82.1817
80.8981
79.2722
77.3123
75.0858
72.776
70.7632
69.5815
69.5177
70.8003
73.5762
77.8512
83.433
90.0266
97.2405
104.646
111.658
117.628
122.107
124.995
126.203
125.646
123.367
119.669
114.904
110.442
106.25
172.653
151.843
132.786
114.922
99.1444
89.1274
85.6102
84.8862
84.8534
84.8946
84.8275
84.5874
84.1489
83.4892
82.5545
81.3006
79.6984
77.7479
75.5098
73.1527
71.035
69.69
69.431
70.4937
73.0366
77.0801
82.4507
88.8606
95.9261
103.221
110.173
116.135
120.642
123.579
124.86
124.401
122.239
118.645
113.956
109.268
104.985
183.743
165.256
146.701
129.198
113.282
99.6443
90.5954
86.7911
85.6244
85.2736
85.1236
84.8998
84.4927
83.8739
82.9802
81.7633
80.1891
78.2482
75.9933
73.5753
71.3284
69.7843
69.2831
70.0698
72.3173
76.0645
81.1614
87.3308
94.2001
101.344
108.208
114.149
118.682
121.665
123.02
122.665
120.629
117.139
112.53
107.544
103.246
191.771
175.945
159.391
142.714
127.065
112.933
100.727
92.1358
87.9037
86.3156
85.5981
85.2538
84.86
84.2925
83.4537
82.2859
80.7493
78.8208
76.543
74.0476
71.643
69.8567
69.0573
69.5001
71.3751
74.7454
79.4892
85.3469
91.9581
98.9018
105.638
111.539
116.094
119.122
120.547
120.299
118.394
115.007
110.467
105.152
100.894
197.594
184.033
169.845
154.98
140.126
126.127
113.378
102.199
93.8128
89.1119
87.016
85.8734
85.2811
84.7316
83.9621
82.8574
81.3729
79.4649
77.163
74.576
71.9818
69.9028
68.7381
68.7544
70.162
73.0536
77.344
82.7983
89.0722
95.7508
102.31
108.144
112.719
115.792
117.285
117.14
115.367
112.083
107.594
101.976
97.7917
201.673
189.933
177.824
165.086
151.881
138.638
125.979
114.336
103.956
95.723
90.5322
87.7632
86.2098
85.2581
84.4904
83.4564
82.0426
80.1641
77.8411
75.1538
72.3429
69.9209
68.3166
67.8104
68.6375
70.9247
74.6337
79.5659
85.3994
91.73
98.0503
103.778
108.366
111.494
113.055
113.012
111.37
108.195
103.735
97.9109
93.8345
204.351
194.094
183.697
172.843
161.525
149.789
137.889
126.362
115.638
105.965
97.9323
92.1936
88.7331
86.6856
85.2256
84.0648
82.7222
80.8885
78.5483
75.7515
72.7018
69.8917
67.7754
66.6492
66.7756
68.3168
71.2927
75.5537
80.8184
86.6935
92.6952
98.2632
102.851
106.055
107.705
107.769
106.264
103.216
98.8003
92.9592
89.0493
205.894
196.864
187.861
178.566
168.921
158.865
148.377
137.655
127.125
117.214
108.213
100.341
94.1563
90.0041
87.3005
85.235
83.427
81.5592
79.2259
76.324
73.0157
69.7739
67.0812
65.25
64.5677
65.231
67.3183
70.7508
75.2929
80.5864
86.1684
91.5122
96.0692
99.3849
101.181
101.398
100.071
97.235
92.9888
87.3998
83.7019
206.532
198.519
190.66
182.643
174.39
165.818
156.841
147.452
137.791
128.171
119.005
110.51
102.822
96.3579
91.5171
88.0756
85.2256
82.5012
79.7863
76.7582
73.2292
69.5514
66.2388
63.6386
62.0628
61.7479
62.8185
65.2749
68.9488
73.5368
78.6091
83.6593
88.1486
91.6041
93.6595
94.17
93.1747
90.7385
86.8881
81.8063
78.3269
206.457
199.302
192.391
185.427
178.323
170.992
163.337
155.305
146.898
138.2
129.43
120.881
112.779
105.278
98.6102
93.1155
88.8057
85.0639
81.2097
77.2482
73.2425
69.1718
65.3177
61.9687
59.4744
58.1284
58.1137
59.4832
62.1673
65.9323
70.4192
75.143
79.5813
83.227
85.6872
86.7308
86.3367
84.5336
81.3211
76.969
73.7371
205.832
199.421
193.309
187.225
181.075
174.776
168.234
161.384
154.196
146.671
138.857
130.856
122.849
115.06
107.651
100.756
94.5954
89.2986
84.5098
79.5106
74.0985
68.8738
64.3005
60.3542
57.1487
54.926
53.8899
54.1682
55.7986
58.6663
62.4825
66.8394
71.2481
75.2021
78.2459
80.0875
80.6097
79.7612
77.4607
74.0409
71.0133
204.804
199.052
193.628
188.29
182.943
177.511
171.907
166.065
159.942
153.52
146.799
139.78
132.486
125.011
117.506
110.11
102.922
96.0632
89.6871
83.708
77.6528
71.2676
65.0423
59.6748
55.5171
52.5777
50.8668
50.4565
51.3435
53.4498
56.6229
60.5905
64.9718
69.3186
73.1539
76.087
77.8701
78.3748
77.4935
75.4305
72.9355
203.548
198.392
193.57
188.873
184.209
179.509
174.702
169.723
164.527
159.083
153.382
147.406
141.132
134.551
127.671
120.528
113.178
105.687
98.1453
90.7035
83.4588
76.6992
70.3017
64.0177
58.3498
53.9568
51.1698
50.0272
50.4311
52.2613
55.33
59.3871
64.0844
69.0374
73.8582
78.1827
81.6963
84.19
85.4946
85.4635
84.3755
202.229
197.589
193.275
189.107
185.004
180.903
176.741
172.467
168.036
163.416
158.589
153.537
148.236
142.673
136.829
130.685
124.217
117.405
110.233
102.715
94.8618
87.2661
80.3562
73.9805
68.2454
63.4248
59.8538
57.8555
57.6061
59.0696
62.0281
66.238
71.3966
77.1352
83.0641
88.8038
94.0293
98.5585
102.213
104.505
105.403
200.954
196.754
192.87
189.143
185.502
181.887
178.246
174.536
170.721
166.771
162.667
158.393
153.929
149.269
144.415
139.367
134.114
128.622
122.831
116.67
110.056
103.293
96.7958
90.7382
85.3756
80.9595
77.6979
75.7849
75.3788
76.5719
79.3324
83.4443
88.5583
94.3595
100.565
106.847
112.889
118.505
123.52
127.458
130.088
199.771
195.95
192.434
189.08
185.827
182.621
179.415
176.174
172.87
169.477
165.979
162.359
158.603
154.706
150.67
146.504
142.223
137.837
133.346
128.733
123.966
119.171
114.529
110.171
106.293
103.129
100.904
99.8081
99.9596
101.41
104.131
108.017
112.884
118.467
124.398
130.322
135.998
141.298
146.121
150.162
153.085
198.68
195.194
191.995
188.963
186.04
183.183
180.343
177.498
174.623
171.7
168.711
165.646
162.493
159.253
155.925
152.524
149.064
145.575
142.084
138.633
135.258
132.09
129.218
126.718
124.678
123.219
122.468
122.561
123.594
125.619
128.61
132.477
137.059
142.15
147.506
152.874
158.015
162.731
166.889
170.31
172.573
197.683
194.488
191.568
188.814
186.176
183.614
181.09
178.579
176.067
173.538
170.98
168.383
165.741
163.054
160.331
157.583
154.829
152.097
149.423
146.855
144.457
142.36
140.643
139.352
138.541
138.261
138.571
139.523
141.166
143.518
146.572
150.269
154.515
159.166
164.049
168.922
173.544
177.698
181.275
184.15
185.853
196.769
193.833
191.155
188.643
186.25
183.943
181.686
179.461
177.254
175.057
172.859
170.653
168.436
166.21
163.985
161.772
159.594
157.477
155.455
153.575
151.893
150.522
149.521
148.919
148.751
149.037
149.801
151.051
152.797
155.029
157.731
160.863
164.37
168.172
172.175
176.241
180.216
183.918
187.179
189.846
191.39
195.932
193.224
190.76
188.455
186.275
184.184
182.157
180.17
178.221
176.299
174.403
172.52
170.654
168.803
166.982
165.198
163.477
161.836
160.314
158.942
157.776
156.892
156.34
156.122
156.262
156.759
157.62
158.829
160.378
162.24
164.394
166.798
169.418
172.201
175.103
178.051
180.976
183.791
186.394
188.699
190.23
195.163
192.657
190.379
188.255
186.256
184.351
182.516
180.732
178.995
177.305
175.653
174.037
172.452
170.906
169.403
167.959
166.587
165.31
164.15
163.143
162.322
161.752
161.454
161.433
161.686
162.213
162.999
164.031
165.281
166.728
168.338
170.083
171.923
173.83
175.766
177.696
179.577
181.384
183.063
184.633
185.796
194.456
192.128
190.012
188.045
186.201
184.453
182.78
181.165
179.605
178.101
176.65
175.246
173.887
172.578
171.325
170.139
169.03
168.016
167.116
166.354
165.752
165.361
165.191
165.238
165.491
165.946
166.583
167.387
168.33
169.393
170.545
171.762
173.013
174.279
175.529
176.747
177.906
178.997
179.991
180.912
181.619
193.804
191.634
189.659
187.827
186.114
184.501
182.962
181.488
180.071
178.72
177.426
176.191
175.007
173.884
172.818
171.825
170.905
170.079
169.352
168.747
168.272
167.969
167.84
167.88
168.069
168.405
168.865
169.439
170.099
170.833
171.614
172.428
173.248
174.066
174.857
175.617
176.327
176.985
177.575
178.114
178.536
193.204
191.171
189.321
187.604
186.004
184.501
183.076
181.715
180.417
179.184
178.017
176.911
175.864
174.876
173.952
173.094
172.312
171.608
170.995
170.479
170.071
169.793
169.656
169.643
169.743
169.943
170.233
170.594
171.015
171.475
171.966
172.469
172.977
173.472
173.953
174.405
174.831
175.218
175.569
175.888
176.137
192.649
190.739
188.995
187.378
185.874
184.465
183.132
181.866
180.661
179.523
178.453
177.447
176.5
175.613
174.789
174.027
173.334
172.71
172.162
171.692
171.305
171.019
170.843
170.76
170.761
170.832
170.966
171.147
171.369
171.616
171.882
172.154
172.43
172.699
172.959
173.203
173.436
173.647
173.84
174.024
174.157
192.139
190.334
188.685
187.152
185.73
184.397
183.143
181.951
180.823
179.757
178.763
177.83
176.959
176.142
175.388
174.688
174.053
173.473
172.96
172.504
172.114
171.798
171.57
171.412
171.317
171.272
171.273
171.308
171.372
171.454
171.551
171.654
171.762
171.869
171.974
172.073
172.171
172.262
172.346
172.434
172.489
191.668
189.959
188.389
186.93
185.575
184.31
183.117
181.989
180.919
179.913
178.973
178.097
177.276
176.512
175.8
175.143
174.537
173.984
173.479
173.024
172.613
172.262
171.977
171.751
171.569
171.428
171.32
171.24
171.181
171.14
171.111
171.092
171.079
171.072
171.066
171.065
171.068
171.073
171.079
171.095
171.093
191.236
189.608
188.11
186.713
185.417
184.206
183.066
181.988
180.967
180.006
179.109
178.272
177.489
176.759
176.077
175.443
174.855
174.31
173.805
173.339
172.904
172.515
172.18
171.892
171.64
171.421
171.228
171.06
170.909
170.777
170.657
170.55
170.452
170.365
170.283
170.212
170.148
170.093
170.043
170.008
169.964
190.839
189.285
187.846
186.505
185.257
184.094
182.996
181.961
180.979
180.056
179.19
178.384
177.627
176.92
176.256
175.637
175.055
174.513
174.001
173.521
173.063
172.643
172.266
171.929
171.622
171.345
171.09
170.859
170.646
170.451
170.27
170.105
169.952
169.812
169.683
169.565
169.461
169.367
169.283
169.214
169.144
190.477
188.985
187.601
186.305
185.102
183.977
182.917
181.916
180.969
180.074
179.235
178.451
177.716
177.024
176.374
175.762
175.186
174.641
174.124
173.631
173.157
172.712
172.308
171.936
171.593
171.275
170.982
170.71
170.457
170.223
170.007
169.806
169.622
169.452
169.296
169.154
169.028
168.914
168.812
168.728
168.644
190.147
188.712
187.372
186.118
184.951
183.86
182.833
181.863
180.944
180.075
179.259
178.494
177.775
177.097
176.458
175.853
175.281
174.737
174.218
173.719
173.236
172.78
172.359
171.969
171.606
171.268
170.954
170.661
170.39
170.138
169.906
169.691
169.494
169.314
169.15
169.002
168.869
168.753
168.648
168.561
168.477
189.848
188.46
187.162
185.941
184.807
183.747
182.748
181.805
180.912
180.067
179.271
178.525
177.822
177.158
176.53
175.934
175.369
174.829
174.313
173.816
173.335
172.878
172.454
172.06
171.693
171.35
171.032
170.736
170.463
170.21
169.978
169.765
169.571
169.395
169.236
169.095
168.969
168.859
168.762
168.681
168.607
189.578
188.233
186.968
185.779
184.673
183.638
182.666
181.747
180.879
180.056
179.282
178.554
177.869
177.221
176.607
176.024
175.471
174.942
174.437
173.95
173.48
173.034
172.62
172.235
171.876
171.543
171.235
170.95
170.687
170.447
170.228
170.029
169.849
169.688
169.544
169.417
169.306
169.21
169.127
169.059
168.998
189.337
188.027
186.792
185.628
184.546
183.537
182.587
181.692
180.848
180.049
179.296
178.589
177.923
177.295
176.699
176.135
175.598
175.087
174.599
174.132
173.683
173.259
172.865
172.5
172.162
171.85
171.562
171.299
171.059
170.84
170.643
170.465
170.307
170.166
170.043
169.935
169.842
169.763
169.696
169.641
169.595
189.122
187.842
186.63
185.489
184.429
183.44
182.513
181.641
180.82
180.046
179.317
178.633
177.991
177.385
176.813
176.272
175.759
175.273
174.811
174.371
173.951
173.556
173.192
172.855
172.546
172.262
172.003
171.766
171.553
171.361
171.189
171.035
170.9
170.782
170.679
170.59
170.516
170.453
170.401
170.36
170.326
188.932
187.675
186.484
185.361
184.319
183.35
182.443
181.593
180.796
180.048
179.345
178.688
178.072
177.494
176.95
176.438
175.955
175.5
175.07
174.664
174.279
173.921
173.592
173.291
173.016
172.765
172.538
172.334
172.151
171.987
171.842
171.715
171.603
171.507
171.425
171.355
171.296
171.248
171.21
171.18
171.156
188.766
187.527
186.351
185.243
184.216
183.263
182.375
181.547
180.774
180.053
179.378
178.75
178.165
177.618
177.107
176.629
176.182
175.763
175.37
175.003
174.659
174.341
174.051
173.786
173.547
173.332
173.138
172.964
172.811
172.675
172.555
172.451
172.362
172.285
172.22
172.165
172.12
172.084
172.055
172.032
172.015
188.623
187.395
186.23
185.132
184.117
183.179
182.308
181.501
180.752
180.057
179.413
178.817
178.265
177.754
177.28
176.84
176.432
176.053
175.702
175.377
175.077
174.802
174.553
174.329
174.128
173.948
173.788
173.647
173.522
173.413
173.317
173.235
173.165
173.105
173.054
173.012
172.976
172.948
172.924
172.906
172.891
188.501
187.279
186.118
185.027
184.021
183.094
182.238
181.45
180.725
180.058
179.444
178.882
178.367
177.894
177.461
177.062
176.696
176.361
176.053
175.772
175.514
175.282
175.073
174.886
174.719
174.572
174.442
174.327
174.227
174.14
174.064
173.999
173.942
173.895
173.854
173.82
173.79
173.766
173.745
173.727
173.711
188.399
187.176
186.015
184.925
183.923
183.003
182.16
181.389
180.687
180.047
179.466
178.937
178.459
178.026
177.634
177.279
176.958
176.668
176.407
176.171
175.959
175.771
175.603
175.456
175.326
175.212
175.112
175.026
174.95
174.885
174.828
174.779
174.736
174.699
174.667
174.639
174.613
174.591
174.569
174.549
174.531
188.315
187.086
185.921
184.829
183.825
182.908
182.072
181.313
180.629
180.015
179.467
178.977
178.541
178.152
177.804
177.494
177.217
176.971
176.752
176.558
176.386
176.235
176.103
175.987
175.885
175.797
175.72
175.653
175.594
175.543
175.498
175.458
175.422
175.39
175.361
175.334
175.308
175.283
175.259
175.234
175.209
188.25
187.008
185.833
184.735
183.727
182.809
181.978
181.228
180.556
179.956
179.425
178.96
178.558
178.211
177.909
177.646
177.417
177.219
177.048
176.9
176.773
176.666
176.574
176.496
176.429
176.373
176.324
176.283
176.247
176.215
176.186
176.161
176.136
176.113
176.089
176.066
176.041
176.015
175.988
175.958
175.928
188.204
186.934
185.735
184.618
183.596
182.67
181.838
181.099
180.449
179.885
179.396
178.975
178.616
178.308
178.044
177.819
177.628
177.467
177.33
177.217
177.121
177.042
176.975
176.92
176.872
176.833
176.798
176.769
176.741
176.716
176.692
176.669
176.645
176.621
176.595
176.567
176.538
176.506
176.471
176.432
176.394
188.18
186.871
185.638
184.49
183.44
182.488
181.63
180.86
180.179
179.587
179.097
178.716
178.419
178.168
177.954
177.776
177.631
177.514
177.424
177.353
177.301
177.262
177.237
177.219
177.209
177.203
177.201
177.2
177.2
177.199
177.196
177.191
177.183
177.171
177.155
177.135
177.11
177.08
177.046
177.005
176.962
117.985
102.891
88.2512
73.8846
59.4397
46.2522
34.7634
24.8657
16.5788
13.3748
18.668
33.0802
52.5905
71.9435
88.0087
100.729
110.961
119.572
126.841
133.089
138.486
143.231
147.51
151.448
155.144
158.665
162.052
165.292
168.409
171.286
173.85
176.143
178.203
179.971
181.411
182.685
184.187
186.165
188.994
192.346
195.746
198.466
200.451
201.549
201.787
201.663
201.002
200.171
199.149
198.141
197.107
196.1
195.142
194.203
193.291
192.355
191.425
190.437
189.402
188.311
187.151
185.923
184.646
183.318
181.956
180.546
179.03
177.321
175.231
172.495
168.968
164.058
159.06
154.587
116.061
100.452
86.5936
73.2868
60.1219
48.1883
37.6295
28.2378
20.4406
19.5854
28.3197
43.6934
61.9867
79.7623
94.6915
106.679
116.351
124.387
131.036
136.59
141.231
145.177
148.629
151.736
154.614
157.347
159.989
162.546
165.026
167.302
169.284
171.026
172.56
173.821
174.732
175.511
176.646
178.578
181.747
185.788
190.094
193.792
196.678
198.54
199.398
199.725
199.39
198.787
197.926
197.029
196.08
195.146
194.256
193.388
192.553
191.704
190.868
189.985
189.061
188.095
187.057
185.952
184.795
183.578
182.316
180.993
179.557
177.923
175.922
173.291
169.92
165.148
160.313
155.405
113.588
97.8212
84.7192
72.3469
60.3012
49.4655
39.7752
30.9485
23.7992
25.1769
36.9421
53.222
70.5015
86.9102
100.85
112.188
121.359
128.87
134.945
139.85
143.782
146.972
149.635
151.939
154.019
155.973
157.869
159.729
161.546
163.182
164.542
165.683
166.639
167.329
167.649
167.86
168.58
170.44
173.949
178.701
183.955
188.68
192.525
195.204
196.726
197.536
197.552
197.193
196.502
195.723
194.863
194.007
193.19
192.4
191.651
190.904
190.182
189.427
188.643
187.82
186.943
186.003
185.011
183.951
182.834
181.643
180.332
178.824
176.971
174.524
171.423
166.932
162.423
156.848
110.431
95.0233
82.6106
71.0218
59.8754
49.9218
40.9816
32.7483
26.3352
29.5419
43.5298
60.6095
77.2602
92.6786
105.859
116.687
125.446
132.531
138.138
142.521
145.888
148.478
150.518
152.191
153.643
154.984
156.292
157.597
158.882
159.998
160.851
161.496
161.973
162.182
161.999
161.713
162.069
163.848
167.61
172.923
178.931
184.47
189.089
192.433
194.495
195.702
196.006
195.847
195.297
194.613
193.824
193.029
192.27
191.543
190.864
190.199
189.571
188.922
188.256
187.567
186.827
186.027
185.177
184.254
183.265
182.19
180.989
179.595
177.875
175.592
172.731
168.503
164.298
158.157
106.735
92.0293
80.259
69.3537
58.9525
49.7287
41.4668
33.8614
28.344
33.0955
48.6531
66.4095
82.7315
97.46
110.063
120.468
128.874
135.586
140.788
144.726
147.617
149.709
151.237
152.393
153.335
154.176
155.004
155.854
156.697
157.377
157.804
158.033
158.108
157.908
157.3
156.597
156.659
158.389
162.388
168.175
174.797
180.996
186.243
190.125
192.629
194.157
194.698
194.703
194.268
193.662
192.932
192.187
191.476
190.802
190.182
189.587
189.04
188.482
187.918
187.333
186.71
186.032
185.305
184.501
183.623
182.652
181.548
180.255
178.653
176.518
173.87
169.88
165.953
159.322
102.543
88.8155
77.6491
67.3385
57.5666
48.9617
41.3226
34.3977
29.9466
36.049
52.667
70.994
87.2397
101.534
113.709
123.766
131.855
138.23
143.067
146.611
149.088
150.752
151.844
152.565
153.075
153.496
153.918
154.379
154.837
155.136
155.191
155.053
154.774
154.209
153.23
152.169
152.011
153.744
157.989
164.207
171.347
178.088
183.848
188.171
191.034
192.824
193.56
193.697
193.358
192.815
192.135
191.433
190.762
190.133
189.566
189.033
188.557
188.082
187.61
187.13
186.613
186.045
185.43
184.733
183.956
183.078
182.063
180.864
179.371
177.372
174.921
171.151
167.481
160.403
97.8979
85.3612
74.7754
64.9703
55.7379
47.6679
40.605
34.4126
31.1737
38.4319
55.7243
74.5462
90.9266
105.006
116.886
126.657
134.463
140.531
145.04
148.238
150.356
151.656
152.381
152.736
152.885
152.951
153.029
153.154
153.275
153.234
152.956
152.497
151.899
151.005
149.685
148.321
147.996
149.781
154.286
160.9
168.481
175.675
181.852
186.53
189.686
191.683
192.577
192.822
192.559
192.069
191.428
190.762
190.126
189.536
189.014
188.537
188.124
187.723
187.334
186.939
186.519
186.052
185.538
184.938
184.254
183.461
182.528
181.418
180.027
178.157
175.892
172.33
168.905
161.415
92.8561
81.6508
71.6397
62.2522
53.5018
45.9164
39.4064
34.0196
32.1011
40.3621
58.0736
77.3382
94.009
108.044
119.729
129.257
136.8
142.579
146.788
149.675
151.481
152.471
152.888
152.939
152.786
152.557
152.345
152.18
152.002
151.658
151.085
150.339
149.457
148.252
146.622
144.991
144.555
146.434
151.214
158.19
166.143
173.703
180.212
185.17
188.553
190.714
191.731
192.059
191.857
191.407
190.799
190.161
189.554
188.997
188.514
188.084
187.728
187.393
187.078
186.769
186.436
186.06
185.637
185.126
184.526
183.81
182.954
181.925
180.629
178.879
176.787
173.42
170.226
162.36
87.4939
77.6929
68.2602
59.2208
50.9319
43.8258
37.8846
33.3961
32.8788
42.0494
60.054
79.7128
96.7398
110.826
122.368
131.669
138.951
144.448
148.369
150.973
152.504
153.229
153.388
153.185
152.781
152.303
151.843
151.424
150.978
150.358
149.52
148.52
147.374
145.879
143.956
142.103
141.604
143.626
148.691
156
164.267
172.126
178.893
184.064
187.623
189.902
191.013
191.403
191.249
190.83
190.248
189.633
189.049
188.52
188.07
187.681
187.374
187.097
186.848
186.608
186.353
186.058
185.718
185.287
184.763
184.117
183.332
182.378
181.171
179.533
177.603
174.421
171.446
163.24
81.9239
73.5272
64.6729
55.9659
48.1784
41.6053
36.2987
32.8288
33.7947
43.8838
62.1629
82.1398
99.4742
113.609
125
134.051
141.044
146.241
149.872
152.201
153.479
153.969
153.906
153.487
152.871
152.183
151.507
150.861
150.167
149.295
148.218
146.988
145.596
143.821
141.625
139.587
139.085
141.298
146.662
154.278
162.805
170.899
177.856
183.182
186.863
189.226
190.403
190.838
190.718
190.322
189.76
189.163
188.599
188.092
187.67
187.317
187.052
186.825
186.635
186.463
186.278
186.057
185.79
185.431
184.975
184.392
183.672
182.788
181.663
180.129
178.348
175.338
172.57
164.057
76.3214
69.2332
60.9884
52.7282
45.5638
39.6348
35.0725
32.7763
35.3577
46.4863
65.0689
85.1985
102.639
116.691
127.838
136.562
143.205
148.059
151.377
153.427
154.46
154.733
154.471
153.864
153.063
152.189
151.32
150.462
149.536
148.429
147.131
145.687
144.054
142.001
139.543
137.37
136.925
139.383
145.057
152.956
161.699
169.977
177.069
182.495
186.258
188.669
189.891
190.354
190.259
189.88
189.334
188.753
188.204
187.717
187.319
186.996
186.767
186.584
186.444
186.325
186.203
186.047
185.846
185.552
185.157
184.632
183.971
183.151
182.102
180.664
179.022
176.173
173.601
164.815
70.9972
65.0732
57.5884
50.0381
43.6683
38.5
34.8392
33.9596
38.3929
50.7687
69.6349
89.5885
106.75
120.442
131.15
139.402
145.588
150.024
152.98
154.723
155.501
155.559
155.108
154.326
153.356
152.312
151.261
150.2
149.05
147.721
146.215
144.564
142.688
140.353
137.653
135.393
135.079
137.835
143.833
151.99
160.911
169.324
176.496
181.978
185.781
188.212
189.456
189.935
189.856
189.49
188.957
188.389
187.855
187.384
187.005
186.708
186.509
186.363
186.267
186.201
186.133
186.035
185.893
185.657
185.316
184.842
184.236
183.475
182.496
181.146
179.633
176.932
174.544
165.516
66.5224
61.7066
55.2144
48.6566
43.2084
38.9494
36.5318
37.5377
44.1849
57.9707
76.8908
96.0945
112.389
125.273
135.229
142.787
148.353
152.257
154.774
156.161
156.655
156.484
155.839
154.884
153.75
152.54
151.309
150.044
148.674
147.129
145.422
143.56
141.421
138.795
135.871
133.589
133.482
136.595
142.925
151.319
160.393
168.9
176.108
181.601
185.41
187.834
189.086
189.568
189.501
189.145
188.625
188.07
187.549
187.094
186.732
186.457
186.282
186.168
186.109
186.082
186.062
186.015
185.925
185.741
185.448
185.021
184.465
183.758
182.842
181.575
180.179
177.617
175.402
166.162
63.6787
59.9461
54.6216
49.3238
45.0931
42.3095
41.9874
45.662
54.8183
69.7378
87.9684
105.518
120.136
131.598
140.363
146.92
151.652
154.873
156.845
157.805
157.968
157.537
156.68
155.54
154.236
152.854
151.434
149.959
148.365
146.605
144.691
142.597
140.17
137.238
134.123
131.896
132.088
135.614
142.287
150.906
160.112
168.674
175.873
181.337
185.118
187.513
188.757
189.236
189.177
188.83
188.324
187.783
187.276
186.836
186.49
186.234
186.081
185.993
185.964
185.975
185.995
185.992
185.947
185.809
185.559
185.175
184.664
184.005
183.149
181.956
180.667
178.232
176.178
166.754
63.3315
60.8681
57.221
53.9703
52.0242
51.9666
54.7445
61.4287
72.6443
87.5592
103.688
118.356
130.346
139.672
146.735
151.93
155.577
157.942
159.247
159.694
159.466
158.731
157.631
156.286
154.794
153.224
151.602
149.903
148.077
146.092
143.951
141.587
138.827
135.579
132.32
130.245
130.836
134.833
141.86
150.708
160.026
168.606
175.754
181.152
184.877
187.223
188.45
188.92
188.87
188.535
188.045
187.522
187.032
186.609
186.28
186.042
185.907
185.84
185.836
185.874
185.927
185.961
185.955
185.857
185.645
185.3
184.831
184.217
183.414
182.289
181.098
178.778
176.874
167.295
68.2022
68.1006
67.3861
67.3821
68.7916
72.1383
78.0197
86.7898
98.1429
110.878
123.285
134.029
142.651
149.285
154.224
157.746
160.086
161.439
161.966
161.817
161.136
160.051
158.674
157.095
155.392
153.611
151.763
149.823
147.748
145.517
143.107
140.414
137.274
133.716
130.391
128.593
129.696
134.222
141.623
150.709
160.114
168.667
175.718
181.012
184.653
186.937
188.137
188.6
188.561
188.243
187.776
187.275
186.806
186.404
186.093
185.873
185.754
185.705
185.722
185.784
185.863
185.926
185.952
185.888
185.709
185.401
184.97
184.396
183.642
182.579
181.475
179.259
177.495
167.785
83.5422
86.4174
89.0972
92.436
96.8731
102.64
109.824
118.217
127.26
136.141
144.084
150.642
155.749
159.548
162.226
163.961
164.907
165.179
164.87
164.079
162.905
161.438
159.752
157.913
155.971
153.952
151.854
149.649
147.302
144.784
142.042
138.949
135.391
131.561
128.294
126.929
128.668
133.776
141.586
150.907
160.353
168.821
175.724
180.875
184.409
186.619
187.792
188.251
188.231
187.938
187.503
187.033
186.592
186.215
185.925
185.724
185.621
185.589
185.621
185.699
185.798
185.884
185.936
185.9
185.75
185.476
185.081
184.545
183.836
182.828
181.801
179.679
178.042
168.226
108.28
113.086
117.925
123.057
128.63
134.59
140.756
146.851
152.563
157.589
161.722
164.888
167.142
168.594
169.367
169.583
169.325
168.637
167.57
166.186
164.549
162.711
160.721
158.617
156.428
154.161
151.802
149.316
146.663
143.799
140.641
137.073
133.086
129.071
126.027
125.269
127.758
133.505
141.766
151.296
160.726
169.043
175.748
180.723
184.129
186.26
187.405
187.866
187.872
187.614
187.218
186.786
186.378
186.031
185.765
185.586
185.499
185.482
185.529
185.623
185.736
185.841
185.914
185.901
185.778
185.536
185.175
184.673
184.005
183.048
182.09
180.05
178.527
168.618
135.043
140.136
145.244
150.182
154.942
159.433
163.522
167.081
170.022
172.291
173.879
174.825
175.206
175.113
174.633
173.823
172.712
171.321
169.685
167.843
165.834
163.689
161.436
159.096
156.677
154.176
151.556
148.775
145.778
142.496
138.844
134.761
130.4
126.358
123.737
123.751
127.068
133.488
142.196
151.87
161.202
169.302
175.763
180.534
183.801
185.852
186.974
187.444
187.483
187.268
186.919
186.531
186.162
185.848
185.61
185.454
185.385
185.384
185.445
185.55
185.678
185.798
185.889
185.896
185.798
185.586
185.257
184.789
184.159
183.248
182.353
180.389
178.969
168.979
157.989
161.844
165.682
169.215
172.368
175.079
177.299
178.985
180.133
180.764
180.923
180.665
180.047
179.125
177.94
176.523
174.889
173.059
171.059
168.916
166.652
164.285
161.833
159.299
156.685
153.957
151.076
147.978
144.594
140.848
136.685
132.154
127.593
123.771
121.807
122.719
126.88
133.959
143.009
152.686
161.8
169.594
175.759
180.3
183.418
185.391
186.493
186.981
187.062
186.897
186.602
186.264
185.939
185.662
185.454
185.323
185.273
185.29
185.364
185.483
185.623
185.757
185.863
185.888
185.815
185.632
185.333
184.896
184.302
183.434
182.597
180.7
179.375
169.312
176.279
178.019
179.818
181.514
182.938
184.045
184.826
185.255
185.327
185.048
184.457
183.581
182.454
181.101
179.547
177.81
175.907
173.855
171.67
169.371
166.967
164.474
161.89
159.218
156.43
153.491
150.339
146.907
143.119
138.926
134.345
129.564
125.083
121.775
120.679
122.542
127.507
135.12
144.305
153.784
162.523
169.909
175.721
180.007
182.967
184.865
185.956
186.473
186.604
186.498
186.264
185.983
185.707
185.472
185.298
185.194
185.165
185.199
185.287
185.418
185.569
185.716
185.835
185.877
185.825
185.67
185.401
184.993
184.433
183.605
182.819
180.984
179.742
169.613
188.361
188.513
188.788
189.178
189.359
189.295
189.004
188.501
187.79
186.886
185.796
184.536
183.111
181.531
179.804
177.937
175.94
173.822
171.591
169.254
166.814
164.273
161.625
158.852
155.919
152.773
149.358
145.598
141.458
136.933
132.143
127.409
123.341
120.815
120.713
123.507
129.166
137.067
146.11
155.158
163.358
170.235
175.641
179.648
182.448
184.276
185.364
185.918
186.109
186.071
185.905
185.685
185.464
185.275
185.137
185.064
185.057
185.11
185.213
185.357
185.519
185.676
185.806
185.863
185.831
185.701
185.461
185.083
184.554
183.762
183.023
181.24
180.072
169.883
193.171
192.558
192.076
191.831
191.41
190.782
190
189.081
188.023
186.835
185.523
184.094
182.553
180.902
179.142
177.273
175.298
173.214
171.024
168.723
166.308
163.769
161.087
158.237
155.167
151.838
148.183
144.178
139.815
135.18
130.479
126.14
122.806
121.272
122.186
125.809
131.922
139.78
148.372
156.757
164.268
170.549
175.509
179.222
181.86
183.625
184.719
185.319
185.578
185.615
185.523
185.372
185.209
185.07
184.973
184.932
184.95
185.022
185.14
185.296
185.468
185.636
185.775
185.845
185.832
185.726
185.512
185.162
184.664
183.906
183.207
181.471
180.365
170.123
191.801
191.367
190.932
190.682
190.226
189.537
188.696
187.731
186.639
185.432
184.12
182.71
181.206
179.608
177.918
176.13
174.243
172.245
170.137
167.899
165.528