/*--------------------------------*- C++ -*----------------------------------*\
| =========                 |                                                 |
| \\      /  F ield         | OpenFOAM: The Open Source CFD Toolbox           |
|  \\    /   O peration     | Version:  5.x                                   |
|   \\  /    A nd           | Web:      www.OpenFOAM.org                      |
|    \\/     M anipulation  |                                                 |
\*---------------------------------------------------------------------------*/
FoamFile
{
    version     2.0;
    format      ascii;
    class       surfaceScalarField;
    location    "250";
    object      phi;
}
// * * * * * * * * * * * * * * * * * * * * * * * * * * * * * * * * * * * * * //

dimensions      [0 3 -1 0 0 0 0];

internalField   nonuniform List<scalar> 
21876
(
0.0202899
-0.00346026
-0.016828
0.0272209
-0.00693097
0.027871
-0.000650055
0.0288165
-0.000945587
0.0283254
0.000491128
0.0270042
0.00132124
0.0253343
0.00166987
0.0235401
0.00179418
0.0217139
0.00182623
0.0197018
0.00201207
0.017298
0.00240385
0.0154745
0.00182347
0.0144749
0.000999574
0.0138852
0.000589741
0.0131832
0.000701906
0.0124658
0.000717481
0.0117217
0.000744025
0.0109642
0.000757491
0.0102002
0.000764011
0.00942628
0.000773959
0.00863506
0.000791225
0.00799999
0.000635072
0.0073565
0.000643496
0.00670241
0.000654102
0.00603186
0.00067055
0.00534157
0.000690298
0.00463016
0.000711405
0.00390112
0.000729029
0.0031471
0.000754008
0.00236293
0.000784177
0.00156039
0.000802563
0.000789374
0.000771038
9.84105e-05
0.000691005
-0.00048834
0.000586793
-0.000971891
0.000483577
-0.00143724
0.000465386
-0.00208655
0.000649325
-0.00289689
0.000810356
-0.00367061
0.000773727
-0.00274372
-0.000926874
-0.00687868
0.00413495
0.0245104
-0.00837984
-0.0195906
0.0303037
-0.0127242
0.0323484
-0.00269479
0.0339026
-0.00249976
0.0346552
-0.000261448
0.0347568
0.00121963
0.0342804
0.0021463
0.0332817
0.00279288
0.0318679
0.0032401
0.0300342
0.00384578
0.0276208
0.00481727
0.0252322
0.00421208
0.02326
0.00297179
0.0216677
0.00218198
0.0202137
0.00215597
0.0189267
0.00200449
0.0177359
0.00193479
0.0165949
0.00189853
0.0154803
0.00187853
0.0143759
0.00187837
0.0132622
0.00190498
0.0123737
0.00152354
0.0114968
0.00152039
0.0106181
0.00153285
0.00972564
0.00156299
0.0088101
0.00160585
0.0078609
0.0016606
0.00686689
0.00172302
0.00582874
0.00179216
0.004756
0.00185691
0.00366149
0.00189708
0.00256258
0.00186997
0.00149838
0.00175523
0.000534877
0.00155033
-0.000306392
0.00132487
-0.00112501
0.00128402
-0.00200148
0.0015258
-0.00269021
0.0014991
-0.00290485
0.000988404
-0.00213626
-0.00169545
-0.0113806
0.00236567
0.0287915
-0.0139702
-0.0232012
0.0340576
-0.0179904
0.0374972
-0.0061344
0.0396016
-0.00460415
0.0407373
-0.0013971
0.0410436
0.000913289
0.040754
0.00243588
0.0400179
0.00352898
0.0389088
0.00434923
0.037407
0.00534755
0.0353702
0.00685409
0.0331859
0.00639642
0.031188
0.00496968
0.0293644
0.00400557
0.0275568
0.00396357
0.0258571
0.00370417
0.0242601
0.00353177
0.0227373
0.00342133
0.0212659
0.00334993
0.0198239
0.00332037
0.018381
0.00334792
0.0172337
0.00267078
0.0161102
0.00264387
0.0149931
0.00265002
0.0138668
0.00268924
0.0127185
0.00275417
0.0115346
0.0028445
0.0103032
0.00295448
0.0090184
0.00307695
0.00768081
0.00319451
0.00629967
0.00327822
0.00489321
0.00327643
0.0035004
0.00314803
0.002183
0.00286773
0.000989489
0.00251838
-0.000102156
0.00237567
-0.00111713
0.00254079
-0.00186777
0.00224976
-0.00213578
0.0012564
-0.00190068
-0.00193054
-0.0136336
0.0003523
0.0335446
-0.0201356
-0.0273792
0.0387956
-0.0232414
0.0429847
-0.0103235
0.0456748
-0.00729435
0.0473114
-0.00303362
0.0480201
0.00020459
0.0479725
0.00248349
0.047349
0.00415249
0.0462965
0.00540174
0.044863
0.00678103
0.0429646
0.0087525
0.0408979
0.00846315
0.0389988
0.00686881
0.0372493
0.00575507
0.0354498
0.00576306
0.0336371
0.00551689
0.0318413
0.00532757
0.0300621
0.00520055
0.0282981
0.00511387
0.0265437
0.00507483
0.0247766
0.00511497
0.0233636
0.00408376
0.0219777
0.00402983
0.0206003
0.00402736
0.0192148
0.0040748
0.0178061
0.00416285
0.0163587
0.00429193
0.0148586
0.0044546
0.0132956
0.00463993
0.0116642
0.00482594
0.00996672
0.00497568
0.00821562
0.00502753
0.00644351
0.00492014
0.00470568
0.00460556
0.00307531
0.00414875
0.00161788
0.00383312
0.000355413
0.00380327
-0.000635755
0.00324094
-0.00114294
0.0017636
-0.00150718
-0.00156628
-0.0138382
-0.00130256
0.0387923
-0.0268755
-0.0320526
0.0442863
-0.0287355
0.0491011
-0.0151382
0.0525992
-0.0107925
0.0549556
-0.00538999
0.0562769
-0.00111669
0.0566709
0.0020895
0.0562958
0.00452757
0.055326
0.00637156
0.0538641
0.00824297
0.051904
0.0107126
0.0497161
0.0106511
0.0476789
0.00890596
0.0458448
0.00758921
0.0440314
0.00757646
0.0422017
0.00734654
0.0403639
0.00716536
0.0384997
0.00706481
0.0365967
0.0070168
0.0346519
0.00701964
0.0326528
0.0071141
0.0310248
0.00571179
0.0294096
0.00564499
0.0277924
0.00564463
0.0261575
0.00570964
0.0244904
0.00583
0.0227746
0.00600768
0.020995
0.00623428
0.0191382
0.00649673
0.0171942
0.00676993
0.0151586
0.00701127
0.0130346
0.00715155
0.0108429
0.00711184
0.0086243
0.00682416
0.00645758
0.00631547
0.00448987
0.00580083
0.00281557
0.00547757
0.00140964
0.00464687
0.00045562
0.00271762
-0.000553384
-0.000557269
-0.0121783
-0.00221324
0.0446
-0.0342579
-0.0372175
0.0505511
-0.0346867
0.0559844
-0.0205715
0.0603053
-0.0151134
0.0634634
-0.00854812
0.0655299
-0.0031832
0.0665596
0.00105988
0.0666634
0.00442375
0.0659922
0.00704276
0.0646689
0.00956626
0.0627334
0.0126481
0.0604157
0.0129688
0.058123
0.0111986
0.0560159
0.0096963
0.0540014
0.00959097
0.0520217
0.00932622
0.0500771
0.00910998
0.0481387
0.00900322
0.0461688
0.00898676
0.044142
0.00904639
0.0420351
0.00922101
0.0402905
0.00745635
0.0385367
0.00739883
0.0367601
0.00742126
0.034946
0.00752368
0.0330802
0.00769585
0.0311462
0.00794165
0.0291279
0.00825265
0.0270097
0.00861495
0.0247778
0.00900185
0.0224214
0.00936763
0.0199339
0.00963907
0.0173208
0.00972488
0.0146016
0.00954338
0.0118372
0.00907995
0.00921923
0.00841877
0.00692707
0.00776975
0.00490861
0.00666534
0.00324937
0.00437688
0.00152636
0.00116575
-0.00897695
-0.00167502
0.0510502
-0.0424221
-0.0428861
0.0576697
-0.0413063
0.0637885
-0.0266903
0.0689314
-0.0202563
0.0729492
-0.012566
0.0758526
-0.00608663
0.0776539
-0.000741407
0.0784199
0.0036578
0.0782585
0.00720419
0.077293
0.0105318
0.075585
0.0143561
0.0733022
0.0152516
0.0708316
0.0136692
0.0684229
0.012105
0.0661026
0.0119113
0.0638361
0.0115928
0.0616346
0.0113114
0.0594903
0.0111476
0.0573674
0.0111096
0.0552297
0.0111841
0.0530406
0.0114101
0.0512342
0.00926278
0.0494213
0.0092117
0.0475815
0.00926106
0.0456947
0.00941049
0.0437422
0.00964841
0.041704
0.0099798
0.0395602
0.0103965
0.0372907
0.0108845
0.0348756
0.0114169
0.0322962
0.0119471
0.0295343
0.012401
0.0265786
0.0126806
0.0234237
0.0126983
0.0200942
0.0124094
0.0167711
0.0117419
0.0136831
0.0108577
0.0108268
0.00952167
0.00820073
0.00700294
0.00560013
0.00376636
-0.00453652
0.00115972
0.05824
-0.051578
-0.0490841
0.0657511
-0.0488174
0.0726818
-0.0336209
0.0786767
-0.0262512
0.0835867
-0.017476
0.0873843
-0.00988419
0.0900584
-0.00341554
0.0916312
0.00208503
0.0921666
0.00666877
0.0917726
0.0109259
0.0905183
0.0156103
0.0885045
0.0172654
0.0860531
0.0161206
0.0834571
0.0147011
0.0808591
0.0145093
0.0782773
0.0141745
0.0757412
0.0138475
0.0732739
0.013615
0.0708647
0.0135188
0.0684901
0.0135586
0.0661194
0.0137808
0.0641995
0.0111827
0.0623117
0.0110995
0.0604291
0.0111437
0.0585249
0.0113147
0.0565738
0.0115996
0.0545495
0.0120041
0.052425
0.012521
0.0501718
0.0131377
0.0477598
0.0138289
0.0451567
0.0145501
0.0423277
0.0152299
0.0392392
0.0157692
0.0358568
0.0160806
0.0321593
0.0161069
0.0282668
0.0156345
0.0243793
0.0147452
0.0205479
0.013353
0.0167551
0.0107958
0.012991
0.00753045
0.000973804
0.00748066
0.0662873
-0.0620023
-0.0558632
0.0749419
-0.057472
0.0828628
-0.0415418
0.0897917
-0.0331801
0.0956308
-0.0233151
0.100357
-0.0146101
0.10396
-0.00701876
0.106436
-0.000390751
0.107814
0.00528997
0.108181
0.0105594
0.107599
0.016192
0.106104
0.0187606
0.103928
0.0182966
0.101358
0.0172715
0.0986213
0.0172458
0.0958051
0.0169907
0.0929659
0.0166868
0.0901554
0.0164254
0.0873944
0.0162798
0.0846829
0.0162702
0.0820095
0.0164542
0.0798707
0.0133215
0.0778119
0.0131583
0.075809
0.0131466
0.0738369
0.0132868
0.0718706
0.0135658
0.0698838
0.0139909
0.0678477
0.0145572
0.0657298
0.0152555
0.0634928
0.016066
0.0610921
0.0169508
0.0584744
0.0178476
0.0555794
0.0186642
0.0523377
0.0193223
0.0486758
0.0197688
0.044624
0.0196863
0.0402758
0.0190934
0.0356556
0.0179732
0.0307482
0.0157032
0.0256231
0.0126555
0.00746111
0.0191358
0.0753386
-0.0740376
-0.0633033
0.0854316
-0.0675651
0.094571
-0.0506812
0.102574
-0.0411835
0.109413
-0.0301544
0.115103
-0.0203
0.11966
-0.011575
0.123089
-0.0038204
0.125398
0.00298114
0.126661
0.00929618
0.126933
0.0159204
0.126187
0.0195066
0.124558
0.0199252
0.122287
0.0195422
0.119639
0.0198945
0.11676
0.0198697
0.113744
0.0197026
0.110671
0.0194984
0.107593
0.0193574
0.104537
0.0193266
0.101514
0.0194777
0.0990861
0.015749
0.0967696
0.0154749
0.094549
0.0153672
0.0924075
0.0154283
0.0903287
0.0156446
0.0882952
0.0160244
0.086287
0.0165654
0.0842803
0.0172623
0.0822443
0.018102
0.0801379
0.0190572
0.077905
0.0200805
0.0754726
0.0210966
0.0727464
0.0220486
0.0696085
0.0229067
0.0659987
0.0232962
0.0618743
0.0232178
0.0571415
0.022706
0.0517185
0.0211262
0.0456072
0.0187668
0.0147516
0.0383167
0.0855775
-0.0880985
-0.0715165
0.0974607
-0.0794483
0.108102
-0.0613225
0.117382
-0.0504637
0.125346
-0.0381177
0.132064
-0.0270178
0.137599
-0.01711
0.141997
-0.00821925
0.145265
-0.000286725
0.14749
0.00707143
0.148725
0.0146854
0.1489
0.019332
0.148059
0.0207662
0.146375
0.0212254
0.144098
0.0221725
0.141402
0.0225652
0.138417
0.0226873
0.13525
0.0226655
0.131984
0.0226238
0.128672
0.0226382
0.125352
0.0227979
0.122643
0.0184583
0.120051
0.0180664
0.117573
0.0178455
0.115201
0.0178002
0.112929
0.0179168
0.110749
0.0182035
0.108657
0.0186583
0.106641
0.0192781
0.104688
0.0200544
0.102777
0.0209685
0.10087
0.0219876
0.0989099
0.0230565
0.0968112
0.0241473
0.0944496
0.0252683
0.091716
0.0260298
0.0884727
0.0264611
0.0845075
0.0266712
0.0796204
0.0260133
0.0736593
0.024728
0.02207
0.0663408
0.0972364
-0.104683
-0.0806522
0.111332
-0.0935441
0.123824
-0.0738139
0.13465
-0.0612898
0.143925
-0.0473931
0.151785
-0.0348778
0.158353
-0.0236781
0.16373
-0.013596
0.167958
-0.00451468
0.171147
0.00388235
0.173374
0.012458
0.174552
0.0181543
0.174659
0.020659
0.173804
0.0220812
0.17218
0.0237956
0.169955
0.0247909
0.16727
0.0253724
0.16425
0.0256851
0.161003
0.0258709
0.157611
0.0260305
0.154137
0.0262717
0.151228
0.0213673
0.14842
0.0208736
0.145723
0.0205427
0.143139
0.0203845
0.140669
0.0203865
0.138316
0.0205568
0.136081
0.020893
0.133967
0.021392
0.131975
0.0220471
0.130099
0.0228442
0.128328
0.0237592
0.126632
0.0247518
0.12496
0.0258196
0.123219
0.0270088
0.121315
0.0279342
0.119097
0.0286789
0.116328
0.0294408
0.112743
0.0295982
0.108096
0.0293746
0.0281789
0.101987
0.110608
-0.124387
-0.0909035
0.127426
-0.110362
0.142193
-0.0885816
0.154908
-0.0740043
0.165754
-0.0582393
0.174935
-0.0440584
0.182641
-0.0313842
0.189038
-0.0199932
0.194226
-0.00970264
0.198352
-0.000243637
0.201539
0.00927112
0.203713
0.01598
0.204824
0.0195478
0.204936
0.0219696
0.204185
0.0245466
0.202694
0.0262818
0.200592
0.0274742
0.198004
0.0282735
0.195045
0.0288296
0.191817
0.0292583
0.188409
0.0296805
0.185445
0.0243313
0.182544
0.0237739
0.179732
0.0233553
0.177022
0.0230938
0.174427
0.0229817
0.171954
0.0230298
0.169611
0.023236
0.167406
0.0235973
0.165345
0.024108
0.163433
0.0247562
0.16167
0.0255227
0.160046
0.0263755
0.158535
0.0273301
0.157083
0.0284607
0.155636
0.0293817
0.154086
0.0302286
0.152254
0.0312733
0.149915
0.031937
0.146866
0.0324239
0.0324311
0.142613
0.12606
-0.147932
-0.102515
0.146215
-0.130516
0.163778
-0.106145
0.178808
-0.0890339
0.191562
-0.0709934
0.202314
-0.0548106
0.211328
-0.0403981
0.21884
-0.0275059
0.225018
-0.0158802
0.230066
-0.00529182
0.234157
0.00517983
0.237264
0.012873
0.239344
0.0174681
0.240448
0.0208659
0.240672
0.0243224
0.240094
0.0268604
0.238809
0.028759
0.236921
0.0301612
0.234537
0.0312134
0.23176
0.0320352
0.228691
0.0327504
0.225868
0.0271542
0.223048
0.0265938
0.220273
0.0261299
0.217575
0.0257918
0.214976
0.0255802
0.212494
0.025512
0.210142
0.0255886
0.207929
0.0258097
0.205866
0.0261711
0.203959
0.0266636
0.20221
0.0272718
0.200615
0.02797
0.199159
0.0287865
0.197803
0.0298163
0.196524
0.0306614
0.195254
0.0314979
0.193882
0.0326452
0.192272
0.0335476
0.190317
0.0343793
0.035107
0.187641
0.144049
-0.176186
-0.115795
0.168287
-0.154754
0.189279
-0.127136
0.207149
-0.106905
0.222237
-0.0860808
0.234892
-0.0674661
0.245458
-0.0509636
0.254248
-0.0362957
0.261503
-0.0231354
0.267495
-0.0112842
0.272454
0.000220861
0.276419
0.0089085
0.279382
0.0145047
0.281414
0.0188338
0.282601
0.0231362
0.28299
0.0264706
0.282649
0.0290999
0.281653
0.031158
0.280083
0.0327829
0.278029
0.0340891
0.275585
0.0351942
0.273127
0.0296127
0.270595
0.0291257
0.268049
0.028676
0.265535
0.0283057
0.263089
0.0280259
0.26074
0.0278614
0.258508
0.0278203
0.256411
0.0279072
0.254459
0.028123
0.25266
0.0284624
0.251017
0.0289151
0.249526
0.0294601
0.248175
0.030138
0.24693
0.0310609
0.24578
0.0318119
0.24468
0.0325978
0.243555
0.0337705
0.242337
0.0347656
0.240984
0.0357323
0.0367893
0.239301
0.16514
-0.210203
-0.131122
0.194367
-0.183982
0.219558
-0.152328
0.240915
-0.128261
0.258865
-0.104031
0.273847
-0.0824483
0.286291
-0.0634072
0.296595
-0.0465995
0.305083
-0.0316241
0.312099
-0.0182995
0.31794
-0.00562003
0.322715
0.00413318
0.326477
0.0107426
0.329336
0.0159747
0.331394
0.0210778
0.332702
0.0251635
0.333311
0.0284908
0.333276
0.0311924
0.332658
0.0334011
0.331522
0.0352253
0.329943
0.0367726
0.328059
0.0314972
0.326024
0.0311606
0.323909
0.0307909
0.321772
0.0304429
0.319659
0.0301388
0.317608
0.0299124
0.315649
0.0297792
0.313805
0.0297508
0.312095
0.0298339
0.310528
0.0300295
0.30911
0.0303327
0.307841
0.0307288
0.30671
0.0312689
0.30569
0.0320808
0.304776
0.0327261
0.303938
0.0334362
0.303118
0.0345901
0.302286
0.0355979
0.301422
0.0365962
0.0377734
0.300438
0.190004
-0.251261
-0.148946
0.225323
-0.219301
0.255656
-0.182661
0.281291
-0.153895
0.302759
-0.125499
0.320601
-0.10029
0.335345
-0.0781518
0.347487
-0.0587414
0.357444
-0.0415809
0.365636
-0.0264911
0.372436
-0.01242
0.37803
-0.00146111
0.382542
0.00623008
0.386137
0.0123799
0.388955
0.0182601
0.391069
0.0230491
0.392544
0.0270163
0.393431
0.0303052
0.39378
0.0330526
0.393639
0.0353662
0.393064
0.0373475
0.3919
0.0326613
0.390527
0.0325335
0.389018
0.0322994
0.387437
0.0320244
0.385835
0.0317412
0.384255
0.031492
0.382734
0.0313002
0.3813
0.0311843
0.379977
0.0311577
0.378779
0.031227
0.377718
0.0313936
0.376799
0.0316479
0.376017
0.0320511
0.375354
0.0327443
0.374811
0.0332682
0.374372
0.0338751
0.373995
0.0349675
0.373667
0.0359262
0.373378
0.0368848
0.0380712
0.37308
0.199208
-0.296244
-0.154225
0.237938
-0.258031
0.271116
-0.215839
0.299092
-0.181871
0.322459
-0.148866
0.341816
-0.119647
0.357747
-0.0940835
0.370802
-0.0717963
0.381455
-0.0522336
0.390166
-0.0352023
0.397348
-0.0196014
0.403243
-0.00735685
0.408031
0.00144234
0.411917
0.00849391
0.415074
0.0151028
0.417607
0.0205163
0.419599
0.0250241
0.421114
0.0287901
0.422203
0.031964
0.422908
0.0346613
0.423271
0.0369847
0.42288
0.0330524
0.422272
0.0331408
0.421514
0.0330582
0.42066
0.0328783
0.419759
0.0326422
0.418852
0.032399
0.417973
0.0321786
0.417152
0.0320056
0.416411
0.0318989
0.415767
0.0318704
0.415235
0.0319258
0.414823
0.03206
0.414533
0.0323416
0.414355
0.0329215
0.4143
0.0333235
0.41436
0.0338151
0.41451
0.0348178
0.414749
0.0356874
0.415074
0.0365591
0.0376868
0.415459
0.206031
-0.344579
-0.157697
0.247671
-0.29967
0.283275
-0.251444
0.313251
-0.211847
0.338241
-0.173856
0.358891
-0.140297
0.375833
-0.111026
0.389661
-0.0856241
0.400895
-0.0634671
0.410027
-0.0443348
0.4175
-0.0270746
0.423605
-0.0134611
0.42856
-0.00351336
0.432604
0.00445019
0.435936
0.0117707
0.438689
0.0177638
0.440968
0.0227448
0.442854
0.0269037
0.444409
0.0304091
0.44568
0.0333903
0.446707
0.0359581
0.446895
0.0328639
0.446885
0.0331515
0.44673
0.0332123
0.446482
0.033127
0.44618
0.0329435
0.445863
0.0327165
0.44556
0.0324816
0.445297
0.032268
0.445097
0.0320996
0.444975
0.0319921
0.444946
0.0319551
0.44502
0.0319863
0.445201
0.0321599
0.445489
0.0326341
0.445893
0.0329194
0.446414
0.0332943
0.447037
0.0341942
0.447769
0.0349558
0.448611
0.0357171
0.0367494
0.449548
0.214432
-0.396579
-0.162432
0.259249
-0.344486
0.297521
-0.289716
0.329708
-0.244034
0.356506
-0.200653
0.37861
-0.162402
0.396704
-0.12912
0.411426
-0.100345
0.423341
-0.0753829
0.432979
-0.0539728
0.440812
-0.0349072
0.44717
-0.0198189
0.452313
-0.00865683
0.456505
0.000258467
0.459972
0.00830387
0.462872
0.014864
0.465332
0.020284
0.467453
0.0247829
0.46931
0.0285525
0.47096
0.0317402
0.472449
0.0344695
0.473051
0.0322614
0.473478
0.0327241
0.47378
0.0329105
0.473999
0.0329079
0.474173
0.0327702
0.474332
0.0325572
0.474505
0.0323091
0.474713
0.0320595
0.474977
0.0318359
0.475311
0.0316576
0.475729
0.031537
0.476241
0.0314745
0.476853
0.0315478
0.477567
0.0319204
0.478393
0.0320936
0.479334
0.0323536
0.480382
0.0331456
0.481545
0.0337925
0.482828
0.0344348
0.0353554
0.484222
0.224289
-0.452575
-0.168292
0.272565
-0.392762
0.313756
-0.330907
0.348371
-0.27865
0.377164
-0.229446
0.400885
-0.186123
0.420268
-0.148503
0.436001
-0.116079
0.448699
-0.0880806
0.458926
-0.0642001
0.467188
-0.0431694
0.473855
-0.0264851
0.479221
-0.0140232
0.483576
-0.0040969
0.487171
0.00470879
0.490188
0.011847
0.492777
0.0176957
0.495054
0.0225058
0.497111
0.0264951
0.49902
0.0298319
0.500833
0.0326561
0.501731
0.0313631
0.50248
0.0319757
0.503124
0.0322661
0.503703
0.0323283
0.504251
0.0322225
0.504795
0.0320131
0.50536
0.0317447
0.505964
0.0314547
0.506626
0.0311741
0.507359
0.0309249
0.508174
0.030722
0.509081
0.0305677
0.510086
0.0305427
0.511192
0.030814
0.512408
0.0308773
0.513738
0.0310235
0.515179
0.0317047
0.516737
0.0322349
0.518416
0.0327562
0.033559
0.520212
0.235543
-0.51292
-0.175199
0.287583
-0.444802
0.331957
-0.375282
0.369231
-0.315923
0.400214
-0.260429
0.425717
-0.211626
0.446531
-0.169317
0.463396
-0.132943
0.476976
-0.101661
0.487877
-0.0751012
0.49664
-0.0519325
0.503672
-0.0335167
0.509303
-0.0196543
0.513848
-0.00864265
0.517582
0.000974747
0.520711
0.0087187
0.523403
0.0150038
0.525794
0.0201146
0.527992
0.0242973
0.53008
0.0277434
0.532125
0.0306116
0.533233
0.0302546
0.534215
0.0309938
0.535115
0.0313665
0.535969
0.0314738
0.536809
0.0313824
0.537661
0.0311615
0.538545
0.0308602
0.539481
0.0305196
0.540481
0.0301736
0.541559
0.029847
0.542724
0.0295569
0.543984
0.0293074
0.545346
0.0291811
0.546813
0.0293472
0.548391
0.0292993
0.550083
0.0293309
0.55189
0.0298977
0.553816
0.0303092
0.555864
0.0307085
0.0313909
0.558032
0.248183
-0.577993
-0.18311
0.304313
-0.500932
0.352156
-0.423125
0.392331
-0.356098
0.425713
-0.29381
0.453174
-0.239087
0.475565
-0.191709
0.493685
-0.151063
0.50825
-0.116226
0.519911
-0.0867621
0.529247
-0.0612684
0.536703
-0.0409726
0.542644
-0.0255955
0.547412
-0.013411
0.551306
-0.00291861
0.554553
0.00547195
0.557342
0.0122145
0.559827
0.0176297
0.56213
0.0219938
0.56435
0.0255236
0.566563
0.0283984
0.567821
0.0289966
0.568972
0.0298432
0.570059
0.0302787
0.571121
0.0304121
0.572187
0.0303168
0.573281
0.0300676
0.574423
0.029718
0.57563
0.0293129
0.576914
0.0288894
0.578286
0.0284748
0.579755
0.0280883
0.581326
0.0277356
0.583007
0.027501
0.584799
0.0275549
0.586707
0.0273912
0.588734
0.0273043
0.59088
0.0277512
0.593148
0.0280408
0.595541
0.0283162
0.0288751
0.598057
0.262225
-0.648203
-0.192014
0.3228
-0.561507
0.37442
-0.474745
0.417759
-0.399437
0.45376
-0.329812
0.483366
-0.268692
0.507492
-0.215835
0.526997
-0.170567
0.542656
-0.131885
0.555166
-0.0992721
0.565149
-0.0712512
0.573089
-0.0489133
0.579388
-0.0318943
0.584414
-0.0184375
0.588492
-0.00699611
0.591871
0.00209292
0.594761
0.00932487
0.597331
0.0150591
0.599721
0.0196039
0.602041
0.0232032
0.604381
0.0260586
0.605746
0.0276322
0.607017
0.0285716
0.608242
0.0290536
0.609459
0.0291959
0.610696
0.0290796
0.611978
0.0287852
0.613325
0.0283712
0.614752
0.0278864
0.61627
0.0273712
0.617889
0.0268557
0.619616
0.0263611
0.621457
0.0258948
0.623416
0.0255422
0.625496
0.0254742
0.6277
0.0251876
0.630028
0.0249761
0.632484
0.0252958
0.635066
0.0254582
0.637777
0.0256059
0.026037
0.640615
0.277711
-0.723997
-0.201917
0.343118
-0.626914
0.398846
-0.530473
0.445633
-0.446224
0.484495
-0.368674
0.516447
-0.300644
0.542475
-0.241863
0.563504
-0.191597
0.580371
-0.148752
0.593824
-0.112725
0.604532
-0.0819586
0.61302
-0.0574014
0.619726
-0.0386
0.625048
-0.0237599
0.629337
-0.011285
0.632866
-0.00143608
0.635864
0.00632662
0.638519
0.0124038
0.640985
0.0171379
0.643387
0.0208019
0.645824
0.0236211
0.647264
0.0261927
0.64862
0.0272149
0.649944
0.0277306
0.651272
0.0278673
0.652637
0.0277145
0.654063
0.0273591
0.65557
0.0268649
0.657171
0.0262852
0.658878
0.0256636
0.660701
0.0250333
0.662644
0.0244174
0.664714
0.0238256
0.666912
0.0233438
0.669244
0.0231428
0.671707
0.0227244
0.674302
0.0223804
0.677034
0.0225642
0.679899
0.0225926
0.682898
0.0226073
0.022905
0.68603
0.294703
-0.805859
-0.212841
0.365362
-0.697573
0.425562
-0.590673
0.476105
-0.496767
0.518087
-0.410657
0.552603
-0.335159
0.580714
-0.269975
0.603418
-0.2143
0.621616
-0.166949
0.636113
-0.127223
0.647627
-0.0934725
0.656728
-0.0665031
0.663893
-0.0457647
0.669551
-0.029418
0.674081
-0.0158145
0.677779
-0.00513489
0.680897
0.00320886
0.68364
0.00966131
0.686176
0.0146015
0.688645
0.0183333
0.691158
0.0211078
0.692649
0.0247022
0.694062
0.0258013
0.695451
0.0263414
0.696858
0.0264609
0.698314
0.0262584
0.699845
0.0258277
0.701472
0.0252386
0.703208
0.024549
0.705065
0.0238066
0.707051
0.0230473
0.709171
0.0222969
0.71143
0.0215669
0.71383
0.0209438
0.716375
0.020598
0.719061
0.0200378
0.721889
0.0195524
0.724863
0.0195905
0.727979
0.0194771
0.731234
0.019352
0.0195095
0.734629
0.313278
-0.894317
-0.22482
0.389648
-0.773943
0.454715
-0.65574
0.50935
-0.551403
0.554737
-0.456044
0.592054
-0.372475
0.622446
-0.300367
0.646986
-0.238841
0.666648
-0.186611
0.682298
-0.142872
0.694706
-0.105881
0.704491
-0.0762885
0.71217
-0.0534431
0.718205
-0.0354536
0.723006
-0.0206153
0.726896
-0.00902448
0.730145
-4.04938e-05
0.732979
0.0068275
0.735582
0.0119982
0.738107
0.0158084
0.740678
0.0185366
0.742199
0.0231809
0.743646
0.0243551
0.745073
0.0249138
0.746527
0.0250071
0.748042
0.0247437
0.749644
0.0242252
0.751355
0.0235278
0.753189
0.0227147
0.755159
0.0218375
0.75727
0.0209355
0.75953
0.0200372
0.761941
0.0191562
0.764505
0.0183797
0.767226
0.0178767
0.7701
0.0171642
0.773124
0.0165276
0.776305
0.0164098
0.779636
0.0161458
0.783115
0.0158734
0.0158832
0.786741
0.333531
-0.98995
-0.237898
0.416113
-0.856525
0.486479
-0.726106
0.545575
-0.610499
0.594676
-0.505145
0.635052
-0.412852
0.66794
-0.333255
0.694495
-0.265395
0.715765
-0.207882
0.732684
-0.159791
0.746082
-0.119278
0.756626
-0.0868329
0.764877
-0.0616937
0.771334
-0.041911
0.776439
-0.0257197
0.780541
-0.0131266
0.783934
-0.00343423
0.786864
0.00389803
0.789531
0.0093312
0.792102
0.0132375
0.794713
0.0159249
0.796247
0.0216474
0.797703
0.0228987
0.799144
0.0234733
0.800617
0.0235343
0.802159
0.0232013
0.8038
0.0225844
0.805561
0.0217669
0.807458
0.0208176
0.809503
0.0197926
0.811703
0.0187349
0.814065
0.0176757
0.81659
0.0166312
0.819281
0.015689
0.822141
0.0150166
0.825164
0.0141411
0.828348
0.0133431
0.831699
0.0130588
0.83521
0.0126349
0.838877
0.012207
0.012061
0.842699
0.355569
-1.09339
-0.252131
0.444912
-0.945868
0.52105
-0.802243
0.585009
-0.674457
0.638164
-0.5583
0.681885
-0.456573
0.717504
-0.368875
0.746266
-0.294157
0.769304
-0.230919
0.787621
-0.178108
0.80211
-0.133767
0.813494
-0.0982176
0.82238
-0.0705794
0.829307
-0.0488375
0.834748
-0.0311616
0.839086
-0.0174637
0.842636
-0.00698501
0.845665
0.000869134
0.848392
0.00660466
0.850997
0.0106321
0.853631
0.013291
0.855158
0.0201206
0.856602
0.0214549
0.858029
0.022046
0.859492
0.0220713
0.861031
0.0216623
0.862677
0.0209383
0.864454
0.0199905
0.866378
0.0188937
0.868461
0.017709
0.870713
0.0164832
0.873138
0.0152509
0.875738
0.0140308
0.878516
0.012911
0.881475
0.0120572
0.884609
0.0110077
0.887914
0.0100383
0.891396
0.00957663
0.895047
0.00898351
0.898863
0.00839158
0.0080812
0.902842
0.379516
-1.20532
-0.267581
0.476222
-1.04257
0.558651
-0.884672
0.627913
-0.74372
0.685494
-0.615881
0.732871
-0.50395
0.77148
-0.407483
0.802663
-0.325341
0.827641
-0.255897
0.847496
-0.197963
0.86319
-0.14946
0.875503
-0.110531
0.885092
-0.0801682
0.892538
-0.0562834
0.898353
-0.0369769
0.902949
-0.022059
0.906669
-0.0107049
0.9098
-0.00226184
0.91258
0.00382459
0.915206
0.00800606
0.917841
0.0106561
0.91934
0.0186211
0.920747
0.0200481
0.922133
0.0206597
0.923556
0.0206488
0.925059
0.0201597
0.926675
0.0193221
0.92843
0.0182354
0.930342
0.0169813
0.932425
0.0156261
0.934687
0.0142211
0.937134
0.0128042
0.939768
0.011397
0.942591
0.0100881
0.945607
0.00904121
0.948807
0.00780728
0.952189
0.00665629
0.955759
0.00600659
0.959508
0.00523462
0.96343
0.00446997
0.00398661
0.967524
0.405509
-1.32651
-0.284318
0.510239
-1.1473
0.599527
-0.97396
0.674579
-0.818772
0.736996
-0.678297
0.788371
-0.555325
0.830254
-0.449366
0.864092
-0.359179
0.891202
-0.283007
0.91275
-0.21951
0.929771
-0.166481
0.94311
-0.12387
0.953475
-0.0905339
0.961495
-0.0643033
0.967722
-0.0432036
0.9726
-0.0269364
0.9765
-0.0146056
0.979734
-0.00549579
0.982559
0.000999747
0.985188
0.00537673
0.987799
0.00804555
0.989248
0.0171725
0.99059
0.018706
0.991904
0.0193456
0.993252
0.0193009
0.994681
0.0187304
0.996228
0.0177748
0.997921
0.0165426
0.99978
0.0151228
1.00182
0.0135878
1.00405
0.0119934
1.00647
0.0103813
1.00909
0.0087764
1.01191
0.00726756
1.01493
0.00601644
1.01815
0.00458784
1.02156
0.00324547
1.02517
0.0023973
1.02897
0.00143708
1.03295
0.00049106
-0.000173935
1.03711
0.433703
-1.45779
-0.302423
0.547182
-1.26078
0.643956
-1.07073
0.72533
-0.900146
0.793033
-0.746
0.848785
-0.611076
0.894255
-0.494837
0.931007
-0.39593
0.960459
-0.31246
0.983869
-0.24292
1.00235
-0.184965
1.01682
-0.138341
1.02805
-0.101757
1.0367
-0.0729563
1.04338
-0.0498823
1.04856
-0.0321205
1.05265
-0.0186978
1.05599
-0.00883127
1.05885
-0.00185771
1.06146
0.00276607
1.06401
0.0054902
1.06538
0.0158026
1.06663
0.0174609
1.06783
0.0181398
1.06907
0.018067
1.07038
0.0174164
1.07182
0.0163407
1.0734
0.0149584
1.07516
0.0133666
1.0771
0.0116438
1.07924
0.00985115
1.08159
0.00803443
1.08414
0.00622199
1.08691
0.00450325
1.08989
0.00303743
1.09307
0.00140451
1.09646
-0.000138584
1.10005
-0.00119532
1.10384
-0.00235289
1.10782
-0.0034887
-0.00434379
1.11199
0.464266
-1.60008
-0.321981
0.587294
-1.38381
0.692242
-1.17568
0.780526
-0.988431
0.854012
-0.819486
0.914556
-0.67162
0.963961
-0.544242
1.00391
-0.43588
1.03594
-0.344487
1.0614
-0.268381
1.0815
-0.205062
1.09721
-0.15406
1.10938
-0.113926
1.11873
-0.0823063
1.12591
-0.0570562
1.13142
-0.0376366
1.13572
-0.0229911
1.13915
-0.0122641
1.14202
-0.00473139
1.14459
0.000201687
1.14705
0.00302786
1.14831
0.0145444
1.14942
0.0163507
1.15047
0.0170844
1.15155
0.0169929
1.1527
0.0162666
1.15397
0.0150715
1.15539
0.0135368
1.15699
0.0117683
1.15878
0.00985165
1.16078
0.00785337
1.16299
0.00582388
1.16541
0.00379528
1.16806
0.0018576
1.17093
0.000167438
1.17401
-0.00167869
1.17731
-0.00343123
1.18082
-0.00470602
1.18453
-0.00606958
1.18845
-0.0074032
-0.00845648
1.19256
0.497386
-1.75438
-0.343087
0.630842
-1.51727
0.744724
-1.28956
0.840567
-1.08427
0.920385
-0.899304
0.986182
-0.737417
1.0399
-0.597964
1.08337
-0.479344
1.11823
-0.379348
1.14595
-0.296099
1.16782
-0.226937
1.18492
-0.171156
1.19813
-0.127139
1.20825
-0.0924233
1.21596
-0.0647718
1.22184
-0.0435108
1.22634
-0.0274937
1.22986
-0.0157867
1.23273
-0.00759958
1.23521
-0.00228201
1.23754
0.000704848
1.23864
0.0134375
1.23957
0.0154207
1.24043
0.0162293
1.24129
0.0161324
1.24222
0.0153385
1.24326
0.0140276
1.24446
0.0123408
1.24583
0.0103935
1.24741
0.0082787
1.24919
0.0060692
1.25119
0.00382029
1.25342
0.00156825
1.25587
-0.000596201
1.25856
-0.00251929
1.26147
-0.00458658
1.26459
-0.00655641
1.26795
-0.00805805
1.27151
-0.00963555
1.27528
-0.0111744
-0.0124334
1.27926
0.533268
-1.9218
-0.365843
0.678123
-1.66212
0.801778
-1.41322
0.905896
-1.18839
0.992652
-0.98606
1.06421
-0.808976
1.12267
-0.656427
1.17
-0.526672
1.20798
-0.417328
1.23819
-0.326307
1.26203
-0.250774
1.28064
-0.189772
1.29501
-0.141501
1.30597
-0.103384
1.31427
-0.0730791
1.32053
-0.0497699
1.32525
-0.0322123
1.32885
-0.0193877
1.33169
-0.0104345
1.33405
-0.00464252
1.33618
-0.00142273
1.33708
0.0125294
1.33778
0.0147243
1.33838
0.0156336
1.33896
0.0155493
1.3396
0.0146996
1.34035
0.0132801
1.34124
0.0114446
1.34232
0.00931883
1.34359
0.00700414
1.34508
0.00457988
1.34679
0.00210681
1.34874
-0.000374311
1.35091
-0.0027719
1.35333
-0.00493518
1.35597
-0.00723036
1.35884
-0.00942423
1.36194
-0.0111605
1.36527
-0.012959
1.3688
-0.0147096
-0.0161812
1.37255
0.572139
-2.10358
-0.390361
0.729465
-1.81945
0.863819
-1.54757
0.977004
-1.30158
1.07137
-1.08043
1.14926
-0.886863
1.21293
-0.720103
1.26451
-0.578254
1.30593
-0.458744
1.33888
-0.359261
1.36489
-0.276776
1.38518
-0.210066
1.40081
-0.157133
1.4127
-0.115271
1.42165
-0.0820319
1.42832
-0.0564416
1.43326
-0.0371511
1.43693
-0.0230504
1.43969
-0.013201
1.44188
-0.00682743
1.44374
-0.00328655
1.44439
0.0118769
1.44479
0.0143258
1.44506
0.0153674
1.44529
0.0153192
1.44556
0.0144303
1.44593
0.0129133
1.44643
0.0109361
1.44712
0.0086354
1.448
0.00612169
1.4491
0.0034816
1.45042
0.000781754
1.45198
-0.00193209
1.45378
-0.00456742
1.45582
-0.00697657
1.45809
-0.00950488
1.4606
-0.0119282
1.46334
-0.0139057
1.46631
-0.0159311
1.4695
-0.0178989
-0.0195888
1.47291
0.614248
-2.30107
-0.416759
0.785231