/*--------------------------------*- C++ -*----------------------------------*\
| =========                 |                                                 |
| \\      /  F ield         | OpenFOAM: The Open Source CFD Toolbox           |
|  \\    /   O peration     | Version:  5.x                                   |
|   \\  /    A nd           | Web:      www.OpenFOAM.org                      |
|    \\/     M anipulation  |                                                 |
\*---------------------------------------------------------------------------*/
FoamFile
{
    version     2.0;
    format      ascii;
    class       surfaceScalarField;
    location    "250";
    object      phi;
}
// * * * * * * * * * * * * * * * * * * * * * * * * * * * * * * * * * * * * * //

dimensions      [0 3 -1 0 0 0 0];

internalField   nonuniform List<scalar> 
21876
(
0.0105888
0.0106599
-0.0219497
-0.000987694
0.0115765
-0.0041665
0.00317867
-0.00405437
-0.000112427
-0.00357213
-0.000482599
-0.00319502
-0.000377417
-0.00296761
-0.000227412
-0.00282425
-0.000143346
-0.00274041
-8.32792e-05
-0.00270566
-3.36635e-05
-0.00271903
1.43747e-05
-0.00279022
7.33246e-05
-0.00292976
0.000141121
-0.00314385
0.000217769
-0.00344288
0.000301343
-0.00383091
0.000390559
-0.00430891
0.000479821
-0.00486436
0.000557888
-0.00546908
0.000605677
-0.0060827
0.00061528
-0.00665331
0.000571552
-0.00708164
0.000429786
-0.00735524
0.000272469
-0.00744003
8.63699e-05
-0.0073329
-0.000109674
-0.00704182
-0.000289162
-0.00656841
-0.000476351
-0.0059125
-0.000654345
-0.00509587
-0.000820674
-0.00412483
-0.000967997
-0.0029985
-0.00112655
-0.00172041
-0.00127734
-0.000277112
-0.001444
0.00132922
-0.00160307
0.00301153
-0.00168063
0.00468823
-0.001674
0.00630442
-0.00161299
0.00780882
-0.00150306
0.00912139
-0.00130824
0.00979807
-0.000678721
-0.000405988
0.0102022
0.0248109
0.0125556
-0.0267068
0.012584
0.0238033
0.000376722
0.0153858
-0.00430687
0.00457087
-0.00459427
-0.000195537
-0.00427516
-0.000696876
-0.00404183
-0.000461088
-0.00392547
-0.000260301
-0.00388734
-0.000121986
-0.00392102
-8.68922e-07
-0.00402962
0.000122089
-0.00421645
0.000259367
-0.00448441
0.000408401
-0.00483821
0.000571969
-0.00528083
0.000743721
-0.00580403
0.000914113
-0.00638937
0.00106507
-0.00700537
0.00117547
-0.00761679
0.00121756
-0.00818228
0.00118529
-0.00865184
0.00104488
-0.00895377
0.00073199
-0.00909441
0.000415803
-0.00906793
6.10336e-05
-0.00885285
-0.000323474
-0.00842023
-0.000719281
-0.00776726
-0.00112916
-0.00689307
-0.00152531
-0.00580918
-0.00190581
-0.00452319
-0.0022509
-0.00305279
-0.00259843
-0.00140339
-0.00292481
0.000399475
-0.00324766
0.00232307
-0.00352432
0.00431653
-0.00367401
0.00632502
-0.00368029
0.00828553
-0.00357307
0.0101288
-0.00334432
0.0117632
-0.0029416
0.012925
-0.00183937
-0.000899223
0.0134188
0.032917
0.00989624
-0.0302575
0.0274332
0.0292872
0.0136019
0.0292171
0.00106651
0.0171061
-0.0043073
0.00517801
-0.005107
0.000102647
-0.00500374
-0.000564328
-0.00490137
-0.000362488
-0.00489116
-0.000131886
-0.00496041
6.88907e-05
-0.00510752
0.000269827
-0.00533745
0.000490399
-0.00565297
0.000724917
-0.00605429
0.000975023
-0.00654068
0.00123134
-0.00710219
0.00147714
-0.00772389
0.00168769
-0.00838337
0.00183604
-0.0090511
0.00188563
-0.009685
0.00181897
-0.010231
0.00158982
-0.0106012
0.001103
-0.0107858
0.000598973
-0.0107552
3.11274e-05
-0.0104809
-0.000599312
-0.00994249
-0.00125725
-0.00913755
-0.00193528
-0.00806518
-0.00259772
-0.00673523
-0.00323716
-0.00515765
-0.00382745
-0.00335646
-0.00439887
-0.00134552
-0.00493579
0.000842793
-0.00543611
0.00316944
-0.00585027
0.00557654
-0.00608054
0.00800548
-0.00610859
0.0103801
-0.00594632
0.0126289
-0.00559309
0.0146302
-0.00494095
0.0161408
-0.00335198
-0.00169208
0.0169316
0.0389255
0.00587912
-0.0349082
0.0393726
0.0288401
0.0306435
0.0379462
0.0151445
0.0326051
0.00176915
0.0185532
-0.0043088
0.0061805
-0.00560654
0.000733359
-0.00575098
-0.000218111
-0.00579239
-9.0726e-05
-0.00589229
0.0001684
-0.00606451
0.00044143
-0.00631963
0.000744746
-0.00666318
0.00106765
-0.00709776
0.00140898
-0.00762738
0.00176025
-0.00824805
0.00209726
-0.00895064
0.00238989
-0.00971682
0.00260249
-0.0105148
0.00268401
-0.0112935
0.00260001
-0.011984
0.00228272
-0.012469
0.00158964
-0.0127263
0.000858504
-0.0127164
2.33547e-05
-0.012408
-0.00090548
-0.0117811
-0.00188164
-0.0108307
-0.0028838
-0.00955567
-0.00387044
-0.00796609
-0.00482566
-0.00607475
-0.00571705
-0.00390958
-0.00656359
-0.00149191
-0.00735288
0.00113908
-0.00806707
0.00393934
-0.00865021
0.00683958
-0.00898095
0.0097702
-0.00903913
0.0126404
-0.00881664
0.0153791
-0.00833168
0.017828
-0.00738979
0.0198049
-0.00532936
-0.00291978
0.0210327
0.0450659
0.00143607
-0.0406225
0.0486093
0.0252968
0.0466114
0.0399442
0.0351747
0.0440417
0.017862
0.0358659
0.00315323
0.0208892
-0.00403112
0.00791774
-0.00599774
0.00174851
-0.00645377
0.000365385
-0.00665701
0.000371646
-0.00687441
0.000658933
-0.00716627
0.00103668
-0.00755119
0.00145295
-0.00803786
0.00189609
-0.00863879
0.00236192
-0.00935711
0.00281624
-0.0101876
0.00322126
-0.0111129
0.00352838
-0.0120962
0.00366804
-0.0130759
0.00357934
-0.0139664
0.00317239
-0.0146156
0.00223929
-0.0149899
0.001232
-0.0150404
7.40744e-05
-0.0147297
-0.00121681
-0.0140339
-0.00257753
-0.0129445
-0.00397341
-0.0114598
-0.00535537
-0.00959064
-0.00669523
-0.00735318
-0.00795394
-0.00477943
-0.00913658
-0.001899
-0.0102332
0.00124146
-0.0112075
0.00459445
-0.0120028
0.00807712
-0.0124632
0.0116053
-0.012567
0.015072
-0.0122826
0.0184099
-0.0116693
0.0214225
-0.0104015
0.0240088
-0.00791673
-0.00475876
0.0258465
0.0523451
-0.00350033
-0.0474086
0.0569815
0.0206606
0.0596411
0.0372846
0.055473
0.0482098
0.0417531
0.0495859
0.0224283
0.0402141
0.00571591
0.0246302
-0.00319762
0.0106622
-0.00615266
0.00332064
-0.00704094
0.00126009
-0.00743808
0.0010561
-0.00780568
0.00140419
-0.0082571
0.00190405
-0.00882166
0.00246021
-0.00952598
0.00306574
-0.0103819
0.00367161
-0.0113872
0.00422624
-0.0125248
0.0046657
-0.0137528
0.00489621
-0.0149994
0.00482681
-0.0161621
0.00433655
-0.017046
0.00312485
-0.0176036
0.00179134
-0.0177736
0.000246148
-0.0175084
-0.00148008
-0.0167773
-0.00330643
-0.0155669
-0.00518228
-0.0138739
-0.00704686
-0.01171
-0.00885816
-0.00909545
-0.0105675
-0.00606714
-0.0121645
-0.00266454
-0.0136359
0.00105733
-0.0149295
0.00504976
-0.0159954
0.009215
-0.0166288
0.0134512
-0.0168035
0.0176333
-0.016465
0.0217011
-0.0157372
0.0254225
-0.0141233
0.0287811
-0.0112762
-0.00741444
0.0314364
0.0612059
-0.00929069
-0.0554152
0.0663066
0.0155601
0.0708568
0.0327346
0.0725648
0.0465018
0.0667101
0.0554406
0.0510858
0.0558384
0.0295374
0.0461786
0.0100793
0.0301204
-0.00138374
0.0147838
-0.00585665
0.00573308
-0.0073759
0.00257536
-0.00806685
0.00209507
-0.00864992
0.00248696
-0.00931705
0.00312724
-0.0101484
0.00389702
-0.0111759
0.00469931
-0.0124031
0.00545372
-0.0138135
0.00607657
-0.0153592
0.00644246
-0.0169578
0.00642556
-0.0184895
0.0058681
-0.0197056
0.0043414
-0.0205412
0.00262696
-0.0209181
0.000623243
-0.0207735
-0.00162443
-0.0200664
-0.00401343
-0.0187757
-0.00647255
-0.0168955
-0.00892715
-0.0144375
-0.0113158
-0.0114263
-0.0135785
-0.00790445
-0.0156857
-0.00392395
-0.0176164
0.000450934
-0.0193042
0.0051721
-0.0207165
0.0101269
-0.0215833
0.0151926
-0.0218692
0.0202256
-0.0214976
0.0251737
-0.0206852
0.0297782
-0.0187275
0.0340914
-0.01559
-0.0111124
0.0377889
0.0717847
-0.0162183
-0.064857
0.0776142
0.00973082
0.0826862
0.0276627
0.0870387
0.0421493
0.088
0.0544795
0.0810387
0.0627997
0.0639378
0.0632796
0.0400588
0.0539995
0.0171581
0.0376845
0.00213544
0.0207561
-0.00471036
0.0094214
-0.00724433
0.00462959
-0.00841745
0.00366043
-0.00930185
0.00401186
-0.0102849
0.00488035
-0.0115013
0.00591581
-0.0129838
0.00693632
-0.0147257
0.0078185
-0.0166733
0.00839015
-0.018731
0.00848349
-0.0207588
0.00789661
-0.0224396
0.00602299
-0.0236864
0.00387463
-0.0243982
0.0013361
-0.0244919
-0.00152967
-0.0239094
-0.0045948
-0.0226188
-0.00776249
-0.0206083
-0.010937
-0.0178885
-0.0140352
-0.0144871
-0.0169793
-0.0104538
-0.0197187
-0.00585517
-0.0222149
-0.000766272
-0.024393
0.00476574
-0.0262485
0.0106144
-0.0274318
0.0166346
-0.0278892
0.0226633
-0.0275261
0.0286554
-0.0266771
0.0343374
-0.0244094
0.0397962
-0.0210491
-0.0160662
0.0447499
0.0843103
-0.0245294
-0.075999
0.0912609
0.00278044
0.0969078
0.0220159
0.10189
0.0371674
0.106004
0.0503654
0.106568
0.0622353
0.0991407
0.0707075
0.0811351
0.0720052
0.0550665
0.0637534
0.0283013
0.0475214
0.00856086
0.0291624
-0.00195831
0.0151492
-0.0062612
0.00796387
-0.00820832
0.0059594
-0.00956264
0.00623492
-0.0110131
0.00736651
-0.0127671
0.00869042
-0.0148773
0.00992895
-0.017301
0.0108142
-0.0199339
0.0111167
-0.0226129
0.010576
-0.0249306
0.00834116
-0.0267702
0.00571478
-0.0280005
0.00256693
-0.0285106
-0.00101908
-0.0282168
-0.00488818
-0.0270699
-0.00890898
-0.0250475
-0.0129593
-0.0221552
-0.0169273
-0.0184219
-0.0207123
-0.0139037
-0.0242368
-0.00868198
-0.0274364
-0.00284627
-0.0302288
0.00355063
-0.0326452
0.0103736
-0.0342548
0.0174582
-0.0349735
0.0246196
-0.0346874
0.0318149
-0.033872
0.0387643
-0.0313588
0.0455432
-0.0278281
-0.0224438
0.0519209
0.0991767
-0.0345492
-0.0891566
0.107538
-0.00558125
0.114212
0.0153425
0.119628
0.031751
0.124398
0.0455959
0.128316
0.0583174
0.128864
0.0701595
0.121659
0.0792103
0.103533
0.0818797
0.0759015
0.075153
0.0452562
0.0598078
0.019586
0.0408199
0.00374152
0.0238089
-0.00367164
0.0133733
-0.0069421
0.00950582
-0.00907553
0.00950066
-0.0112008
0.0108158
-0.0137147
0.0124431
-0.016669
0.0137688
-0.0199796
0.0144273
-0.0234698
0.0140666
-0.026625
0.0114966
-0.0292876
0.00837762
-0.0312836
0.00456313
-0.0324658
0.00016344
-0.0327125
-0.00464115
-0.031947
-0.00967493
-0.0301278
-0.0147782
-0.0272484
-0.0198072
-0.0233329
-0.0246272
-0.0184413
-0.0291287
-0.0126661
-0.0332111
-0.00611726
-0.0367779
0.00113498
-0.0398969
0.00895278
-0.0420726
0.0171594
-0.0431795
0.0255442
-0.0430721
0.0340584
-0.0423857
0.0424116
-0.0397123
0.0506252
-0.0360415
-0.0303313
0.0585124
0.116861
-0.0467012
-0.104709
0.126939
-0.0156592
0.134982
0.00729919
0.14131
0.0254233
0.146379
0.0405266
0.150839
0.053857
0.154606
0.0663933
0.155471
0.0783449
0.149186
0.0881646
0.131996
0.0923431
0.103919
0.0878851
0.0697296
0.0750093
0.0375845
0.0559547
0.0145654
0.0363926
0.00203398
0.0220383
-0.00375401
0.0152887
-0.0071574
0.0142196
-0.010316
0.0156023
-0.0138917
0.0173449
-0.0179815
0.0185179
-0.0224424
0.0185279
-0.0266498
0.0157045
-0.0303989
0.0121268
-0.0334636
0.00762848
-0.0356529
0.00235327
-0.0367978
-0.00349651
-0.0367752
-0.00969693
-0.0355128
-0.0160417
-0.0329773
-0.0223417
-0.0291805
-0.0284249
-0.0241759
-0.0341319
-0.0180638
-0.039324
-0.0109728
-0.0438675
-0.00299667
-0.0478737
0.00571689
-0.0507847
0.0149802
-0.0524433
0.0245606
-0.0526512
0.0343919
-0.0522176
0.0441562
-0.0494757
0.0538007
-0.045687
-0.0397096
0.0631799
0.137921
-0.0615089
-0.123113
0.150119
-0.0278572
0.159836
-0.00241737
0.167457
0.017802
0.17332
0.0346632
0.177935
0.049242
0.18199
0.0623384
0.185598
0.0747369
0.187
0.0867621
0.182268
0.0970749
0.167187
0.102966
0.140011
0.102186
0.103654
0.0923115
0.0654122
0.0746349
0.0337935
0.053657
0.0135804
0.035502
0.00310171
0.0246991
-0.00263743
0.0213419
-0.00737389
0.0220822
-0.0124521
0.0235963
-0.0180787
0.0241549
-0.023587
0.0212126
-0.0287314
0.0172717
-0.033228
0.0121249
-0.0368363
0.00596236
-0.0393434
-0.0009893
-0.0405666
-0.00847389
-0.0403827
-0.0162253
-0.038722
-0.0240028
-0.0355637
-0.0315824
-0.0309451
-0.0387509
-0.0249518
-0.0453161
-0.0177225
-0.0510971
-0.00937993
-0.056215
-0.000110728
-0.0600542
0.00989979
-0.0624525
0.0204059
-0.0631577
0.0313177
-0.0631284
0.0422775
-0.0604363
0.0531863
-0.056595
-0.0504417
0.0639178
0.16303
-0.0796116
-0.144928
0.177866
-0.0426927
0.189645
-0.0141962
0.198854
0.00859313
0.205907
0.0276105
0.211199
0.0439495
0.215259
0.0582782
0.218803
0.071193
0.222172
0.0833925
0.224156
0.0950906
0.221408
0.105715
0.209438
0.114156
0.185005
0.116744
0.148733
0.110907
0.106055
0.0963351
0.065677
0.0758804
0.0353554
0.0550208
0.0170383
0.0396595
0.00676278
0.0323577
-0.000620942
0.03098
-0.00785797
0.0313908
-0.0149975
0.028352
-0.0219255
0.0241982
-0.028314
0.018515
-0.0338709
0.0115182
-0.0383371
0.00347877
-0.0414733
-0.00533873
-0.0430857
-0.0146114
-0.0430588
-0.0240307
-0.0413332
-0.0333064
-0.0379131
-0.0421718
-0.0328533
-0.0503744
-0.0262787
-0.0576724
-0.018326
-0.0641661
-0.00921174
-0.0691691
0.000850526
-0.072513
0.0116074
-0.0739153
0.0229658
-0.0744851
0.0345736
-0.0720449
0.0463017
-0.0683215
-0.0621495
0.0580084
0.193
-0.101786
-0.170825
0.211106
-0.0607991
0.225448
-0.0285383
0.23661
-0.0025681
0.245128
0.0190922
0.251484
0.0375939
0.256109
0.0536525
0.259528
0.0677745
0.262457
0.0804634
0.26543
0.0921175
0.267858
0.103286
0.267218
0.114797
0.259161
0.1248
0.239373
0.130695
0.206129
0.129579
0.1622
0.119809
0.114889
0.102332
0.0734657
0.0810828
0.043923
0.0619003
0.0255046
0.0493975
0.0131942
0.0437011
0.00333146
0.0382128
-0.00595134
0.0334821
-0.0148022
0.0273642
-0.0229649
0.0196838
-0.0301558
0.0106681
-0.0360845
0.000592944
-0.0404913
-0.0102066
-0.0431699
-0.0213492
-0.0440082
-0.0324702
-0.0429578
-0.0432192
-0.0400617
-0.0532728
-0.0354125
-0.0623182
-0.0291433
-0.0704377
-0.0214486
-0.0768599
-0.0125804
-0.0813839
-0.00277863
-0.0837126
0.00786802
-0.0851346
0.0190395
-0.0832117
0.0305562
-0.0798407
-0.0738827
0.0422931
0.228807
-0.128972
-0.201621
0.250951
-0.0829425
0.268471
-0.0460583
0.282059
-0.0161566
0.292375
0.00877611
0.300037
0.0299325
0.305576
0.0481133
0.309451
0.0638992
0.312165
0.0777499
0.314384
0.0898984
0.316787
0.100882
0.319429
0.112155
0.320671
0.123558
0.316859
0.134507
0.303276
0.143163
0.276268
0.146817
0.235578
0.143022
0.185688
0.130973
0.13508
0.112508
0.0924695
0.0920078
0.0616097
0.0745609
0.0415033
0.0583195
0.0266379
0.0483473
0.0139383
0.0400649
0.00228464
0.0313379
-0.00848474
0.0214391
-0.01821
0.0103185
-0.026626
-0.00178898
-0.0334366
-0.0145387
-0.0384041
-0.0275011
-0.0414142
-0.0402094
-0.042447
-0.0522383
-0.0415615
-0.0632043
-0.0388686
-0.0731286
-0.0345344
-0.0811947
-0.0287611
-0.0871548
-0.0217929
-0.0906815
-0.0137444
-0.0931802
-0.00490334
-0.0920531
0.00454589
-0.0892872
-0.0838713
0.0145344
0.271638
-0.162307
-0.238303
0.298745
-0.11005
0.320184
-0.0674969
0.336777
-0.03275
0.349323
-0.00376997
0.358579
0.0206768
0.365222
0.0414699
0.369829
0.0592918
0.372881
0.0746981
0.374838
0.0879415
0.376302
0.0994184
0.378064
0.110392
0.380593
0.121029
0.383212
0.131888
0.383375
0.143001
0.376792
0.153399
0.358775
0.16104
0.326383
0.163365
0.280502
0.15839
0.226632
0.145878
0.173238
0.127955
0.130375
0.101184
0.0981227
0.0806003
0.0738016
0.0643876
0.0543103
0.0508294
0.0375761
0.0381754
0.0225552
0.0253394
0.00885935
0.011909
-0.00353788
-0.00214189
-0.0144504
-0.0165864
-0.023641
-0.0310197
-0.030974
-0.0449033
-0.0364008
-0.0577788
-0.0399561
-0.0695709
-0.0417147
-0.0794378
-0.0418162
-0.0870506
-0.0404326
-0.0920671
-0.0377216
-0.0958876
-0.0339194
-0.0958572
-0.0292696
-0.0939336
-0.0893055
-0.0238367
0.322911
-0.203167
-0.282051
0.356106
-0.143245
0.38236
-0.0937516
0.40266
-0.0530494
0.417965
-0.019075
0.429191
0.00945029
0.437169
0.0334921
0.442626
0.0538345
0.446178
0.0711462
0.448313
0.0858061
0.44947
0.098262
0.450221
0.10964
0.451298
0.119952
0.453439
0.129747
0.456798
0.139642
0.460123
0.150074
0.460284
0.160879
0.4527
0.17095
0.432818
0.178271
0.398206
0.180491
0.350288
0.175874
0.298017
0.153456
0.247678
0.130939
0.203407
0.10866
0.166235
0.0880011
0.135202
0.0692119
0.108736
0.0518045
0.0854921
0.0351562
0.0645124
0.0188367
0.0452521
0.00267743
0.0274873
-0.0132567
0.011227
-0.0286397
-0.00343971
-0.0431147
-0.0164984
-0.0565092
-0.0278511
-0.0680883
-0.0374549
-0.0774434
-0.0453202
-0.0842058
-0.0516573
-0.0895457
-0.0564955
-0.0910232
-0.0600823
-0.0903414
-0.0867579
-0.0626334
0.348382
-0.248473
-0.303076
0.385173
-0.180035
0.414283
-0.122861
0.436783
-0.0755494
0.453721
-0.0360134
0.466097
-0.00292547
0.474819
0.0247709
0.480687
0.0479662
0.484397
0.0674361
0.486522
0.0836809
0.487525
0.0972599
0.487834
0.10933
0.487881
0.119905
0.488249
0.129379
0.489691
0.138199
0.492842
0.146923
0.497604
0.156117
0.502466
0.166088
0.504233
0.176504
0.498577
0.186147
0.481461
0.19299
0.452803
0.182115
0.415253
0.168488
0.372807
0.151109
0.329352
0.131454
0.287653
0.110915
0.249049
0.0904075
0.213806
0.0704026
0.181575
0.0510672
0.15181
0.0324468
0.123964
0.0145876
0.0977533
-0.00242541
0.0730196
-0.0183834
0.0496067
-0.0330925
0.027657
-0.0461424
0.00734941
-0.0571312
-0.0111827
-0.0656782
-0.0281455
-0.072577
-0.0432186
-0.0759547
-0.0565286
-0.0770246
-0.0750497
-0.0682408
0.368898
-0.297576
-0.319795
0.40876
-0.219897
0.440309
-0.154411
0.464693
-0.0999324
0.483035
-0.0543562
0.496405
-0.0162951
0.505773
0.0154019
0.511997
0.0417423
0.515819
0.0636144
0.517865
0.081635
0.518658
0.0964666
0.518659
0.109329
0.518219
0.120345
0.517669
0.129928
0.517436
0.138433
0.518138
0.14622
0.520528
0.153727
0.525144
0.161472
0.531728
0.169919
0.538664
0.179211
0.542832
0.18882
0.540174
0.184774
0.529108
0.179552
0.509445
0.170773
0.48236
0.158537
0.449814
0.143463
0.413878
0.126342
0.376309
0.107974
0.338333
0.0890412
0.300698
0.0700843
0.263774
0.0515087
0.227742
0.0336086
0.192725
0.0166305
0.15876
0.000874678
0.126193
-0.0135802
0.0953445
-0.0262794
0.0664814
-0.0368214
0.0393742
-0.045464
0.014605
-0.0511924
-0.00789393
-0.0545184
-0.0548851
-0.0280647
0.391456
-0.35073
-0.338301
0.434599
-0.26304
0.468756
-0.188567
0.49515
-0.126327
0.514992
-0.074198
0.529423
-0.0307274
0.539489
0.00533675
0.546105
0.0351259
0.550066
0.0596536
0.552041
0.0796593
0.552597
0.0959114
0.552235
0.10969
0.55135
0.121231
0.550247
0.131031
0.549187
0.139493
0.548461
0.146945
0.548509
0.153679
0.549969
0.160012
0.553555
0.166332
0.559691
0.173075
0.567937
0.180573
0.575542
0.177169
0.580526
0.174566
0.580861
0.170439
0.575129
0.164268
0.562752
0.15584
0.543891
0.145201
0.519238
0.132627
0.489737
0.11854
0.456409
0.103414
0.420192
0.0877217
0.381919
0.0718833
0.342291
0.0562549
0.301798
0.0413691
0.261264
0.0269489
0.22151
0.0134789
0.18331
0.0013726
0.146749
-0.00889756
0.112838
-0.0172876
0.0816813
-0.0233544
-0.0268063
0.0535959
0.416098
-0.408224
-0.358605
0.462761
-0.309701
0.499713
-0.225521
0.528269
-0.154881
0.549721
-0.0956529
0.565302
-0.0463057
0.576118
-0.00548238
0.583164
0.0280824
0.587281
0.0555341
0.589195
0.0777474
0.589502
0.0956024
0.588742
0.110452
0.587336
0.122635
0.585636
0.132731
0.583905
0.141222
0.582352
0.148499
0.581161
0.154867
0.580601
0.160573
0.58109
0.16584
0.583233
0.170933
0.587612
0.176189
0.593419
0.171363
0.600111
0.167869
0.606492
0.164061
0.611057
0.159696
0.612368
0.154531
0.609234
0.148329
0.600897
0.140966
0.586992
0.132438
0.567553
0.122855
0.542871
0.112397
0.513474
0.101282
0.479994
0.0897275
0.443018
0.0783474
0.403385
0.0665743
0.362064
0.0548038
0.320144
0.043284
0.278179
0.0330737
0.237776
0.0231064
0.199599
0.0148298
0.00828856
0.164495
0.442908
-0.470374
-0.380756
0.493353
-0.360145
0.533316
-0.265482
0.564199
-0.185765
0.587396
-0.11885
0.60422
-0.0631305
0.615864
-0.0171262
0.623385
0.0205611
0.627693
0.0512265
0.629555
0.0758838
0.62962
0.0955383
0.628447
0.111624
0.626492
0.124591
0.624123
0.1351
0.62164
0.143705
0.61927
0.150869
0.617173
0.156964
0.615462
0.162283
0.61426
0.167042
0.613771
0.171421
0.614349
0.175611
0.615725
0.169985
0.618175
0.16542
0.621568
0.160665
0.625429
0.155837
0.628966
0.150991
0.631223
0.146073
0.631193
0.140993
0.627979
0.135654
0.620847
0.129984
0.609305
0.123941
0.593076
0.117508
0.572126
0.110681
0.546486
0.103984
0.516508
0.0965573
0.482705
0.088603
0.445887
0.0801087
0.406468
0.0724895
0.366091
0.0634896
0.325799
0.0551176
0.0469766
0.287119
0.471991
-0.537535
-0.404831
0.526513
-0.414663
0.56972
-0.30869
0.603122
-0.219165
0.62821
-0.143938
0.646394
-0.0813139
0.658949
-0.029683
0.667011
0.0124999
0.671551
0.0466848
0.673395
0.0740398
0.673233
0.0956996
0.67166
0.113196
0.669157
0.127094
0.666113
0.138143
0.662845
0.146973
0.659599
0.154114
0.656561
0.160002
0.653848
0.164994
0.651522
0.169368
0.6496
0.173342
0.648121
0.17709
0.646668
0.171437
0.64549
0.166599
0.644732
0.161421
0.644464
0.156106
0.644592
0.15086
0.644857
0.14581
0.644819
0.141028
0.643937
0.136538
0.64159
0.132327
0.637183
0.128351
0.630142
0.124545
0.620007
0.120819
0.606349
0.117639
0.588904
0.114006
0.56751
0.109992
0.542224
0.105399
0.512896
0.101811
0.480337
0.0960524
0.445231
0.0902165
0.0832117
0.409
0.503476
-0.610089
-0.430919
0.562392
-0.473579
0.609111
-0.355403
0.645237
-0.255295
0.672386
-0.171083
0.692055
-0.100988
0.705626
-0.0432507
0.714299
0.00382175
0.719133
0.0418542
0.720996
0.0721711
0.720643
0.0960561
0.718693
0.115141
0.715669
0.130121
0.711971
0.141836
0.707945
0.151002
0.703836
0.158217
0.699859
0.163983
0.696137
0.16871
0.692769
0.172741
0.689753
0.17635
0.687069
0.179778
0.684182
0.174316
0.681182
0.169604
0.678073
0.164521
0.674949
0.159235
0.671866
0.153935
0.668903
0.148776
0.666035
0.143886
0.663204
0.139372
0.660222
0.1353
0.656868
0.131707
0.652815
0.128589
0.647733
0.125905
0.641209
0.124154
0.632858
0.122362
0.622244
0.120597
0.609008
0.118642
0.592583
0.118227
0.572829
0.115813
0.549552
0.113484
0.109595
0.523173
0.537505
-0.688462
-0.459133
0.60117
-0.537239
0.651681
-0.405914
0.690771
-0.294382
0.720159
-0.200472
0.741466
-0.122295
0.75616
-0.0579465
0.76554
-0.00555811
0.770727
0.0366647
0.772671
0.0702278
0.772161
0.0965636
0.769877
0.117425
0.76636
0.133635
0.762056
0.146141
0.75731
0.155745
0.752405
0.163123
0.747545
0.16884
0.742888
0.173367
0.73853
0.177096
0.734523
0.180358
0.730851
0.183446
0.727041
0.178128
0.723106
0.173535
0.719006
0.168623
0.714704
0.163532
0.710221
0.158419
0.705592
0.1534
0.700901
0.148578
0.696217
0.14405
0.691625
0.139892
0.687158
0.136167
0.682838
0.132911
0.678606
0.130129
0.674385
0.128379
0.669989
0.126751
0.665211
0.125381
0.659732
0.124115
0.653153
0.124813
0.645005
0.123954
0.634777
0.123718
0.12239
0.621976
0.574241
-0.773109
-0.489593
0.643034
-0.606031
0.697657
-0.46053
0.739959
-0.336685
0.771794
-0.232304
0.794896
-0.1454
0.810846
-0.0738951
0.821029
-0.0157435
0.826654
0.03104
0.828735
0.0681441
0.828126
0.0971722
0.82555
0.12
0.821589
0.137595
0.816719
0.15101
0.811314
0.161148
0.805676
0.168761
0.800026
0.174488
0.794536
0.178857
0.789315
0.182314
0.784441
0.185234
0.779928
0.187956
0.775361
0.182697
0.770783
0.178108
0.766172
0.173236
0.761475
0.168225
0.756677
0.163219
0.751755
0.158316
0.746745
0.153591
0.741679
0.14911
0.736653
0.144921
0.731745
0.141068
0.727085
0.137575
0.722757
0.13445
0.718881
0.13226
0.715495
0.130129
0.712651
0.128231
0.710289
0.126469
0.708348
0.126761
0.706589
0.125705
0.704736
0.125576
0.124844
0.702274
0.613858
-0.864533
-0.522436
0.688198
-0.680365
0.747267
-0.519599
0.793066
-0.382476
0.827564
-0.266808
0.852646
-0.170476
0.869984
-0.0912406
0.881089
-0.0268425
0.887232
0.0248872
0.889532
0.0658513
0.888876
0.0978185
0.886067
0.122815
0.881706
0.141946
0.876331
0.156392
0.87032
0.167149
0.864025
0.175063
0.857664
0.180839
0.851454
0.185073
0.845499
0.188258
0.839919
0.190821
0.834732
0.193132
0.829574
0.187862
0.824502
0.183168
0.819553
0.178192
0.814683
0.173082
0.809916
0.167992
0.805206
0.163013
0.800584
0.158218
0.796028
0.153653
0.7916
0.149354
0.787316
0.145339
0.78328
0.141617
0.779544
0.138173
0.776252
0.135559
0.773473
0.132896
0.771353
0.130359
0.769951
0.12786
0.769406
0.127314
0.769702
0.1254
0.770869
0.124415
0.12297
0.772735
0.656549
-0.963272
-0.557809
0.736885
-0.7607
0.800778
-0.583486
0.850365
-0.432062
0.887779
-0.304218
0.915022
-0.197721
0.933912
-0.11013
0.946048
-0.0389814
0.952821
0.0181148
0.955401
0.0632668
0.954779
0.0984415
0.951781
0.125809
0.94709
0.146637
0.941248
0.162229
0.934706
0.173692
0.927805
0.181959
0.920829
0.187816
0.913978
0.191918
0.907421
0.194817
0.901256
0.196979
0.895573
0.198816
0.889969
0.193457
0.884574
0.188563
0.879398
0.183358
0.874476
0.178004
0.869801
0.172656
0.865405
0.167411
0.86127
0.162341
0.857431
0.157495
0.853873
0.152903
0.850638
0.148579
0.847724
0.144522
0.845193
0.14071
0.84307
0.137672
0.841436
0.134537
0.840326
0.131461
0.839841
0.128352
0.840063
0.127083
0.841074
0.124394
0.842938
0.122543
0.120194
0.845719
0.70252
-1.06992
-0.595875
0.789344
-0.84752
0.858459
-0.652601
0.912169
-0.485764
0.952753
-0.344805
0.982375
-0.227339
1.00298
-0.130735
1.01628
-0.0522861
1.02378
0.0106141
1.02673
0.0603118
1.0262
0.0989686
1.02308
0.128926
1.01811
0.151612
1.01186
0.168471
1.00483
0.180719
0.997398
0.189391
0.989867
0.195347
0.982465
0.199315
0.975386
0.201896
0.968754
0.203604
0.962685
0.204885
0.956772
0.199362
0.951166
0.194168
0.945888
0.188627
0.940986
0.182906
0.936467
0.177165
0.932372
0.171507
0.928696
0.166006
0.92548
0.160714
0.922709
0.155665
0.92042
0.150873
0.918596
0.146339
0.91727
0.142042
0.916439
0.138496
0.916133
0.134849
0.916338
0.13125
0.917093
0.127602
0.918441
0.125727
0.920397
0.122442
0.922994
0.11994
0.116914
0.926276
0.751997
-1.18511
-0.636806
0.845838
-0.941366
0.920619
-0.727373
0.978796
-0.543946
1.02285
-0.388846
1.05506
-0.259563
1.07756
-0.153228
1.09217
-0.0669039
1.10051
0.00228034
1.10392
0.0568932
1.10356
0.099333
1.10037
0.132102
1.09517
0.156822
1.08856
0.175066
1.0811
0.188185
1.07318
0.197304
1.06515
0.203379
1.05725
0.207198
1.04973
0.209428
1.0427
0.210619
1.03633
0.211261
1.03018
0.205493
1.02445
0.199909
1.01913
0.193928
1.0143
0.187734
1.00996
0.18149
1.00617
0.175308
1.0029
0.169262
1.00021
0.163412
0.998066
0.157792
0.996522
0.152424
0.995543
0.147308
0.995161
0.142429
0.995361
0.138288
0.996154
0.134061
0.997502
0.129893
0.999414
0.125694
1.00191
0.123222
1.00496
0.1194
1.00855
0.116345
0.112794
1.01267
0.80522
-1.30954
-0.680792
0.906662
-1.04281
0.987573
-0.808287
1.05062
-0.606982
1.09843
-0.436659
1.1335
-0.294631
1.15807
-0.17781
1.17415
-0.0829789
1.18344
-0.00701201
1.1874
0.0529257
1.18727
0.099457
1.18409
0.135286
1.17869
0.162213
1.17178
0.181975
1.16391
0.196044
1.15556
0.205662
1.14706
0.211868
1.13873
0.215529
1.13078
0.217365
1.12341
0.21798
1.11677
0.217894
1.11044
0.211814
1.10458
0.205753
1.09926
0.199245
1.0945
0.192484
1.09034
0.185646
1.08679
0.178847
1.08388
0.172172
1.0816
0.165683
1.07997
0.159421
1.07898
0.153408
1.07864
0.147652
1.07892
0.14214
1.07985
0.137357
1.08139
0.132512
1.08354
0.127749
1.08625
0.122981
1.08957
0.119899
1.09342
0.115551
1.09779
0.111968
0.107939
1.10264
0.862455
-1.44397
-0.728033
0.97212
-1.15248
1.05969
-0.895847
1.128
-0.6753
1.17992
-0.488569
1.2181
-0.332816
1.24497
-0.204682
1.26266
-0.10068
1.27303
-0.0173813
1.27765
0.0483078
1.27783
0.0992738
1.27469
0.138417
1.26915
0.167748
1.26196
0.189161
1.25373
0.204274
1.24495
0.21444
1.23601
0.220796
1.22725
0.224286
1.21891
0.225695
1.21121
0.225674
1.20431
0.224782
1.19779
0.218326
1.19182
0.211716
1.18645
0.204602
1.18173
0.197198
1.17768
0.18969
1.17431
0.182204
1.17165
0.174833
1.16968
0.167647
1.16841
0.160691
1.16781
0.153993
1.1679
0.147564
1.16864
0.141395
1.17004
0.135955
1.17206
0.130486
1.17468
0.12513
1.17785
0.119805
1.18163
0.116125
1.1859
0.111274
1.19068
0.107191
0.10272
1.19589
0.923978
-1.5892
-0.778746
1.04256
-1.27105
1.13733
-0.990629
1.21138
-0.749343
1.26775
-0.54495
1.30934
-0.374396
1.33872
-0.234076
1.35822
-0.120171
1.36979
-0.0289664
1.37516
0.0429473
1.37571
0.0987048
1.37269
0.141447
1.36704
0.173384
1.35961
0.196603
1.35101
0.212855
1.34182
0.22363
1.33244
0.230158
1.32326
0.233475
1.31451
0.234425
1.30647
0.23372
1.29928
0.231954
1.29254
0.225068
1.28639
0.217846
1.28093
0.210065
1.27616
0.201954
1.27213
0.193716
1.26883
0.185488
1.26629
0.177374
1.26448
0.169448
1.2634
0.161766
1.26303
0.154358
1.26335
0.147241
1.26433
0.140409
1.26597
0.134312
1.26822
0.128231
1.27105
0.1223
1.2744
0.116445
1.27833
0.112196
1.28272
0.106881
1.28757
0.102339
0.0974719
1.29282
0.990101
-1.74614
-0.833163
1.11832
-1.39929
1.22092
-1.09322
1.30119
-0.829618
1.36243
-0.606183
1.40772
-0.419689
1.43987
-0.266222
1.46134
-0.141645
1.47427
-0.0418976
1.48047
0.0367348
1.4815
0.0976841
1.47862
0.14432
1.4729
0.179096
1.46522
0.204278
1.45629
0.221786
1.44667
0.233235
1.43686
0.239973
1.4272
0.243118
1.41803
0.243593
1.40958
0.242163
1.40206
0.239469
1.39501
0.232109
1.38862
0.224228
1.38295
0.215728
1.37803
0.206864
1.37388
0.197852
1.37053
0.188843
1.36794
0.179951
1.36612
0.171261
1.36505
0.162832
1.3647
0.154703
1.36504
0.146894
1.36604
0.139404
1.36769
0.13266
1.36993
0.125984
1.37273
0.119503
1.37602
0.113148
1.37985
0.108364
1.3841
0.102625
1.38877
0.0976686
0.0924536
1.39378
1.06114
-1.91576
-0.891533
1.19983
-1.53797
1.3109
-1.20431
1.39794
-0.916645
1.46446
-0.672706
1.5138
-0.46903
1.54897
-0.301389
1.57262
-0.165296
1.58705
-0.0563281
1.59421
0.029569
1.59576
0.0961349
1.59308
0.146997
1.58732
0.184858
1.5794
0.212186
1.57012
0.231075
1.56006
0.243283
1.54976
0.250275
1.5396
0.253267
1.52993
0.253261
1.521
0.251082
1.51305
0.247424
1.50559
0.239558
1.49884
0.230981
1.49283
0.221727
1.48762
0.212076
1.48321
0.202259
1.47962
0.192444
1.47681
0.182754
1.47479
0.173285
1.47353
0.164102
1.47299
0.15525
1.47313
0.146753
1.47393
0.138614
1.47535
0.131238
1.47735
0.123987
1.47988
0.116981
1.48287
0.110156
1.48637
0.104867
1.49026
0.098741
1.49452
0.0934075
0.0878838
1.49909
1.13746
-2.0991
-0.954122
1.28749
-1.68801
1.40778
-1.32459
1.50215
-1.01103
1.57443
-0.744987
1.6282
-0.522786
1.66667
-0.339866
1.69272
-0.191341
1.7088
-0.0724183
1.71704
0.0213377
1.71918
0.093983
1.71674
0.149433
1.71095
0.190652
1.7028
0.220331
1.69312
0.240746
1.68259
0.253812
1.67174
0.261119
1.66101
0.263991
1.65075
0.263513
1.64125
0.260579
1.63273
0.255936
1.62474
0.247544
1.61748
0.238246
1.61099
0.228215
1.60531
0.217753
1.60046
0.207112
1.59643
0.196474
1.59322
0.185976
1.59079
0.17572
1.58912
0.165781
1.58817
0.156209
1.58789
0.147031
1.58826
0.138255
1.58924
0.130262
1.59078
0.122454
1.59282
0.114945
1.5953
0.107673
1.59827
0.101905
1.60159
0.0954174
1.60527