/*--------------------------------*- C++ -*----------------------------------*\
| =========                 |                                                 |
| \\      /  F ield         | OpenFOAM: The Open Source CFD Toolbox           |
|  \\    /   O peration     | Version:  5.x                                   |
|   \\  /    A nd           | Web:      www.OpenFOAM.org                      |
|    \\/     M anipulation  |                                                 |
\*---------------------------------------------------------------------------*/
FoamFile
{
    version     2.0;
    format      ascii;
    class       surfaceScalarField;
    location    "250";
    object      phi;
}
// * * * * * * * * * * * * * * * * * * * * * * * * * * * * * * * * * * * * * //

dimensions      [0 3 -1 0 0 0 0];

internalField   nonuniform List<scalar> 
21876
(
0.0302075
-0.00419004
-0.026014
0.0394731
-0.00926556
0.0395681
-9.49389e-05
0.0400168
-0.000448769
0.0382634
0.00175339
0.0354735
0.00278985
0.0324022
0.00307134
0.0293545
0.00304773
0.0263996
0.00295486
0.0232628
0.00313685
0.0196302
0.00363265
0.0167779
0.00285228
0.0150016
0.00177645
0.0137009
0.00130066
0.0121465
0.00155436
0.010423
0.00172353
0.00851099
0.00191196
0.00642778
0.00208323
0.00417856
0.0022492
0.00189955
0.00227908
-6.93807e-05
0.00196898
-0.001254
0.00118471
-0.00208951
0.000835589
-0.00260421
0.000514794
-0.00289968
0.000295552
-0.00306093
0.000161361
-0.0031538
9.29829e-05
-0.00322849
7.48215e-05
-0.00331481
8.64375e-05
-0.00343012
0.000115454
-0.00358636
0.000156359
-0.00379274
0.000206519
-0.00404601
0.000253368
-0.00431866
0.000272776
-0.00454864
0.00023007
-0.00461792
6.93857e-05
-0.00437651
-0.000241354
-0.00381206
-0.000564357
-0.00329234
-0.000519704
-0.00144425
-0.00184803
-0.00890006
0.00745578
0.0365714
-0.0105455
-0.0302155
0.0442393
-0.0169333
0.0463208
-0.00217638
0.0478997
-0.00202753
0.0485567
0.00109639
0.0481557
0.003191
0.0467831
0.004444
0.044583
0.00524788
0.0417924
0.00574554
0.0384225
0.00650684
0.0342852
0.00777002
0.030232
0.00690561
0.0268044
0.00520412
0.0239075
0.00419756
0.0211562
0.00430573
0.0184807
0.00439901
0.0157051
0.00468754
0.0126974
0.00509098
0.00941816
0.0055284
0.00595044
0.00574676
0.00254355
0.00537585
0.000284306
0.00344397
-0.00129827
0.00241818
-0.00233367
0.00155023
-0.00298829
0.000950229
-0.00339987
0.000572986
-0.00368534
0.000378541
-0.00392027
0.000309847
-0.00414575
0.000312035
-0.00438505
0.000354871
-0.00464622
0.000417668
-0.00492682
0.000487264
-0.00520964
0.000536327
-0.00545899
0.000522278
-0.0056224
0.000393619
-0.00562265
6.9788e-05
-0.00529861
-0.000565283
-0.0044296
-0.00143324
-0.00288034
-0.00206888
-0.00041335
-0.00431492
-0.0152576
0.0059442
0.0428429
-0.0178599
-0.0355288
0.0496514
-0.023742
0.0537956
-0.00632061
0.0559688
-0.0042008
0.0568977
0.000167581
0.0567666
0.00332208
0.0558494
0.00536117
0.0542865
0.00681083
0.0521571
0.00787494
0.049406
0.00925798
0.0458155
0.0113605
0.0419168
0.0108043
0.0381931
0.00892792
0.0346372
0.0077534
0.0310467
0.0078962
0.0274853
0.00796039
0.0238571
0.0083158
0.0200208
0.00892728
0.0158567
0.00969253
0.0113327
0.0102707
0.0066367
0.0100719
0.00323153
0.00684916
0.000618745
0.00503099
-0.00120705
0.00337606
-0.00242225
0.00216545
-0.00323067
0.00138146
-0.0037991
0.000947002
-0.00423227
0.000743072
-0.00459822
0.00067802
-0.00493898
0.000695695
-0.0052758
0.000754523
-0.00561745
0.000828968
-0.00595953
0.000878435
-0.00627828
0.000841078
-0.00652168
0.000637037
-0.00658779
0.000135929
-0.00628734
-0.000865732
-0.00533003
-0.00239052
-0.00342051
-0.00397843
-0.000623657
-0.00711177
-0.0199142
0.00403288
0.0497724
-0.0259728
-0.0416596
0.0565016
-0.0304713
0.0617038
-0.0115229
0.064662
-0.00715895
0.0661567
-0.0013271
0.0664251
0.00305374
0.0656941
0.00609217
0.0642255
0.00827957
0.062218
0.00988249
0.0597068
0.0117692
0.0565329
0.0145345
0.0530289
0.0143084
0.0495859
0.012371
0.0461332
0.0112061
0.0424081
0.0116214
0.0384457
0.0119228
0.0342283
0.0125333
0.0296707
0.0134849
0.0246585
0.0147047
0.0190869
0.0158422
0.0130156
0.0161432
0.00822125
0.0116435
0.00416215
0.0090901
0.00110401
0.00643421
-0.00102029
0.00428977
-0.00246298
0.00282419
-0.00346726
0.00195133
-0.0042016
0.00147747
-0.00477948
0.00125598
-0.00527059
0.00118689
-0.0057196
0.00120362
-0.00615736
0.00126683
-0.00659822
0.0013194
-0.00702847
0.00127144
-0.00739169
0.00100037
-0.00757028
0.000314629
-0.00736262
-0.00107329
-0.00644044
-0.00331261
-0.00444185
-0.00597695
-0.00147174
-0.0100818
-0.023449
0.00206314
0.0574167
-0.0348576
-0.0485322
0.0644381
-0.0374929
0.0704967
-0.0175815
0.0745788
-0.0112411
0.0770142
-0.00376249
0.0780286
0.00203931
0.0777718
0.00634902
0.0764849
0.0095665
0.0744412
0.0119263
0.0717907
0.0144198
0.0685249
0.0178002
0.0649633
0.0178701
0.0615316
0.0158028
0.0582073
0.0145304
0.054684
0.0151446
0.050847
0.0157598
0.0466078
0.0167725
0.0418308
0.0182618
0.0363605
0.020175
0.0300189
0.0221839
0.022716
0.0234461
0.0164452
0.0179144
0.0105607
0.0149746
0.00565691
0.011338
0.00199231
0.00795438
-0.000566534
0.00538307
-0.00233065
0.00371548
-0.00358449
0.00273135
-0.0045211
0.00219261
-0.00526278
0.00192861
-0.00589288
0.00183376
-0.00647405
0.00184803
-0.00704846
0.00189384
-0.00762249
0.00184551
-0.00814655
0.00152446
-0.00849885
0.000666956
-0.00847388
-0.00109825
-0.00773045
-0.00405602
-0.00588148
-0.00782593
-0.00295171
-0.0130116
-0.0261826
-0.000218144
0.0658767
-0.0445848
-0.0561495
0.0734864
-0.0451026
0.0803654
-0.0244605
0.0855802
-0.016456
0.0891067
-0.00728889
0.0910862
5.9781e-05
0.0916291
0.0058062
0.0908865
0.0103091
0.089104
0.0137088
0.0864673
0.0170566
0.0830562
0.0212114
0.0791936
0.0217327
0.0753884
0.019608
0.0717851
0.0181338
0.0682023
0.0187274
0.0644851
0.0194771
0.0604957
0.0207619
0.0560157
0.0227419
0.0507622
0.0254285
0.0443802
0.0285659
0.036526
0.0313004
0.0291419
0.0252984
0.0214148
0.0227016
0.0141655
0.0185874
0.0081399
0.01398
0.00362087
0.00990213
0.000431837
0.00690456
-0.00180068
0.00496392
-0.00340752
0.00379952
-0.00461237
0.00313354
-0.00556681
0.00278828
-0.00638161
0.00266291
-0.00714177
0.00265408
-0.00789406
0.00259789
-0.00862055
0.00225104
-0.00921641
0.0012629
-0.00948692
-0.000827649
-0.00910457
-0.0044383
-0.00767941
-0.00925103
-0.00510591
-0.0155851
-0.028224
-0.00306441
0.0752885
-0.0553293
-0.0645442
0.0837695
-0.0535838
0.0915428
-0.032234
0.0978666
-0.0227798
0.102553
-0.0119757
0.105638
-0.00302452
0.107184
0.0042598
0.107277
0.0102165
0.106094
0.0148919
0.103811
0.019339
0.100532
0.0244905
0.0965216
0.0257435
0.0923034
0.0238262
0.0881762
0.022261
0.0841563
0.0227473
0.0801754
0.023458
0.0761691
0.0247682
0.0719789
0.0269321
0.0673102
0.0300972
0.0616763
0.0341998
0.0544191
0.0385576
0.0469555
0.0327621
0.038198
0.0314591
0.0288039
0.0279815
0.0198533
0.0229306
0.0123081
0.0174474
0.00656268
0.01265
0.00243602
0.00909061
-0.000494977
0.00673056
-0.00262093
0.00525954
-0.00421826
0.00438567
-0.00547894
0.00392365
-0.0065553
0.0037305
-0.0075617
0.00360434
-0.00854593
0.00323533
-0.00945639
0.0021734
-0.0101467
-0.00013731
-0.0103416
-0.0042434
-0.00966236
-0.0099302
-0.00787996
-0.0173674
-0.0294639
-0.00664006
0.085815
-0.0673661
-0.0737783
0.0954612
-0.0632301
0.104285
-0.0410577
0.111734
-0.0302287
0.117611
-0.0178525
0.121888
-0.00730185
0.12457
0.00157749
0.125707
0.00907993
0.125401
0.0151982
0.123802
0.0209374
0.121012
0.0272804
0.117203
0.0295529
0.11283
0.028199
0.108269
0.0268226
0.103708
0.0273077
0.099196
0.0279702
0.0947738
0.0291904
0.0904375
0.0312684
0.0860666
0.0344682
0.0813151
0.0389513
0.075468
0.0444047
0.0691889
0.0390412
0.0610681
0.0395799
0.051073
0.0379766
0.0399322
0.0340715
0.0289342
0.0284454
0.0193415
0.0222427
0.0118051
0.0166271
0.00625569
0.01228
0.0022482
0.00926707
-0.000677199
0.00731113
-0.00286875
0.00611526
-0.00458954
0.00545135
-0.00605708
0.00507195
-0.00742932
0.00460763
-0.00875812
0.00350226
-0.0100017
0.00110629
-0.0109967
-0.00324836
-0.0114115
-0.00951528
-0.0109574
-0.0178216
-0.0295228
-0.0108985
0.0976606
-0.0810635
-0.0839633
0.108802
-0.0743716
0.118902
-0.0511577
0.127562
-0.038889
0.134657
-0.024947
0.140157
-0.0128019
0.14405
-0.00231566
0.146363
0.00676733
0.147139
0.0144222
0.146497
0.0215786
0.144526
0.029252
0.1413
0.0327792
0.137159
0.0323392
0.132479
0.0315027
0.127565
0.0322218
0.122564
0.0329717
0.117591
0.0341629
0.112762
0.0360974
0.108147
0.0390838
0.1037
0.0433983
0.0990218
0.0490829
0.0943914
0.0436716
0.0883107
0.0456606
0.080011
0.0462763
0.0692465
0.044836
0.056599
0.0410929
0.0433995
0.0354422
0.0312005
0.0288262
0.0210903
0.0223902
0.0133452
0.0170123
0.00762963
0.0130267
0.00342954
0.0103154
0.000296498
0.00858445
-0.00215202
0.00752053
-0.00424978
0.00670545
-0.00622231
0.00547485
-0.00820928
0.00309331
-0.010233
-0.00122463
-0.0120787
-0.00766952
-0.013503
-0.0163973
-0.0278037
-0.015222
0.111082
-0.0968816
-0.0952644
0.124107
-0.0873963
0.135776
-0.0628262
0.145813
-0.0489267
0.154193
-0.0333273
0.160939
-0.0195472
0.166071
-0.0074483
0.169613
0.00322535
0.171588
0.0124471
0.172093
0.0210735
0.171199
0.0301466
0.168893
0.0350854
0.165386
0.0358459
0.160998
0.0358902
0.156084
0.0371358
0.150867
0.0381893
0.145513
0.0395163
0.140197
0.0414142
0.135084
0.0441965
0.130337
0.0481459
0.12594
0.0534797
0.122304
0.0473074
0.118199
0.0497657
0.11272
0.0517552
0.104924
0.0526325
0.0942455
0.0517711
0.0808822
0.0488054
0.0658963
0.0438121
0.0508972
0.0373893
0.0374247
0.0304847
0.0263877
0.0240637
0.0179096
0.0187935
0.0115966
0.0148975
0.00687956
0.0122376
0.00317983
0.0104052
3.57777e-06
0.00865115
-0.00310005
0.00619696
-0.00645734
0.00213271
-0.0100629
-0.00406398
-0.0138221
-0.012638
-0.0236391
-0.0179867
0.126404
-0.115379
-0.107907
0.141777
-0.102769
0.15538
-0.0764297
0.167046
-0.0605923
0.176851
-0.0431327
0.1849
-0.0275958
0.191282
-0.0138302
0.196056
-0.00154851
0.199259
0.00924341
0.200994
0.0193384
0.20133
0.0298111
0.200188
0.0362273
0.197658
0.0383761
0.193977
0.0395716
0.189482
0.0416302
0.184435
0.0432364
0.179045
0.0449068
0.173515
0.0469437
0.16805
0.0496614
0.162872
0.0533237
0.158167
0.0581853
0.154613
0.0508608
0.151341
0.053038
0.147848
0.0552482
0.143312
0.0571685
0.136736
0.0583468
0.127263
0.0582788
0.114569
0.0565059
0.0991313
0.0528272
0.082181
0.0474351
0.0653435
0.0409012
0.0501171
0.03402
0.0374399
0.0275746
0.0275149
0.0221626
0.0199245
0.0179957
0.0139715
0.0146041
0.00877593
0.0113926
0.00350161
0.00740701
-0.00228062
0.00171831
-0.00875674
-0.00616189
-0.0164288
-0.015967
0.144032
-0.137229
-0.122183
0.162312
-0.121048
0.178304
-0.0924217
0.191938
-0.0742261
0.203394
-0.0545888
0.21287
-0.0370711
0.22054
-0.0215002
0.226542
-0.00755034
0.230948
0.00483654
0.233904
0.0163828
0.235503
0.0282121
0.23564
0.0360905
0.234312
0.0397039
0.231673
0.0422102
0.228
0.0453037
0.22354
0.0476968
0.218522
0.0499249
0.213171
0.0522939
0.207714
0.0551191
0.202379
0.0586583
0.197399
0.0631656
0.19357
0.0546895
0.190243
0.0563647
0.187303
0.0581887
0.184419
0.0600519
0.180985
0.061781
0.176125
0.063139
0.168868
0.0637628
0.15846
0.0632351
0.144684
0.0612116
0.128028
0.0575568
0.109624
0.0524245
0.0909667
0.0462315
0.0735078
0.0396216
0.0582592
0.0332444
0.0457085
0.0271549
0.0354343
0.0216667
0.0263417
0.0164997
0.0173882
0.0106717
0.00768887
0.00353752
-0.00551896
-0.00322097
0.164471
-0.163238
-0.138462
0.186336
-0.142913
0.205275
-0.11136
0.221316
-0.0902673
0.234744
-0.0680166
0.245855
-0.0481821
0.254922
-0.0305672
0.262177
-0.0148056
0.267758
-0.0007441
0.271876
0.0122652
0.274678
0.02541
0.276077
0.0346912
0.276028
0.0397535
0.274626
0.0436121
0.272073
0.0478563
0.268566
0.0512041
0.264318
0.0541722
0.259557
0.0570553
0.254517
0.0601588
0.249437
0.0637381
0.244557
0.0680462
0.240625
0.0586217
0.237136
0.0598534
0.23411
0.0612146
0.231508
0.0626537
0.229181
0.0641078
0.226785
0.0655353
0.223715
0.0668327
0.219141
0.0678094
0.21217
0.0681831
0.202099
0.0676273
0.188661
0.0658622
0.172155
0.062738
0.153382
0.0583943
0.133439
0.0531873
0.113724
0.0468698
0.0952413
0.0401498
0.078235
0.033506
0.0625095
0.0263972
0.047272
0.018775
0.0101796
0.0315735
0.188345
-0.194381
-0.157202
0.214614
-0.169182
0.237183
-0.133929
0.256182
-0.109267
0.272007
-0.0838413
0.28506
-0.0612343
0.295718
-0.0412253
0.304316
-0.0234034
0.311085
-0.00751401
0.316311
0.00703952
0.320218
0.021503
0.322777
0.0321325
0.323948
0.0385823
0.323813
0.0437474
0.322519
0.0491502
0.320203
0.0535204
0.317038
0.0573374
0.313223
0.0608696
0.308984
0.0643986
0.304556
0.0681659
0.300187
0.0724148
0.296477
0.0623321
0.293113
0.0632174
0.290131
0.0641963
0.287549
0.0652355
0.285373
0.0662843
0.283572
0.0673361
0.282023
0.068382
0.280428
0.0694038
0.278272
0.0703395
0.274845
0.0710542
0.269367
0.0713403
0.261164
0.0709411
0.24982
0.0697389
0.235233
0.0677741
0.21786
0.0642432
0.198372
0.0596374
0.177331
0.054547
0.155463
0.0482656
0.133017
0.0412207
0.0331912
0.110006
0.216421
-0.231834
-0.178968
0.248089
-0.20085
0.275119
-0.160959
0.297759
-0.131907
0.316521
-0.102604
0.331926
-0.0766386
0.344465
-0.0537648
0.354585
-0.033523
0.362625
-0.015554
0.368953
0.000711964
0.373885
0.0165705
0.377476
0.0285416
0.379735
0.0363237
0.380767
0.0427151
0.380705
0.0492127
0.379646
0.0545794
0.377722
0.0592614
0.375092
0.0634994
0.371946
0.0675447
0.368498
0.0716141
0.364986
0.0759267
0.361774
0.0655437
0.35882
0.0661711
0.356179
0.066838
0.353873
0.0675414
0.351913
0.0682442
0.350311
0.0689382
0.349082
0.0696112
0.34822
0.0702659
0.347648
0.0709113
0.34716
0.0715416
0.346383
0.072118
0.34478
0.0725438
0.341712
0.072807
0.3365
0.0729857
0.328645
0.0720983
0.317822
0.0704606
0.303773
0.0685959
0.286642
0.0653966
0.266589
0.0612743
0.0559465
0.243833
0.249634
-0.277022
-0.204447
0.287908
-0.239123
0.320414
-0.193466
0.347529
-0.159022
0.369904
-0.124978
0.388188
-0.0949231
0.403004
-0.068581
0.41492
-0.0454386
0.424393
-0.0250267
0.431892
-0.00678756
0.437828
0.0106352
0.442354
0.0240157
0.445556
0.0331218
0.447594
0.0406763
0.448623
0.0481845
0.448735
0.0544673
0.448041
0.0599549
0.446669
0.0648722
0.444767
0.0694464
0.442511
0.0738695
0.440108
0.0783303
0.4376
0.0680512
0.435253
0.0685183
0.433147
0.0689438
0.43133
0.0693592
0.429819
0.0697546
0.42862
0.0701375
0.427733
0.0704983
0.427167
0.0708316
0.42694
0.0711383
0.42706
0.0714214
0.427495
0.0716831
0.428131
0.0719083
0.428736
0.0722017
0.42894
0.0727815
0.428276
0.0727623
0.426207
0.0725296
0.422119
0.072684
0.415511
0.0720053
0.406005
0.0707799
0.0689014
0.39305
0.289097
-0.331664
-0.234454
0.33544
-0.285467
0.374661
-0.232686
0.407276
-0.191636
0.434096
-0.151799
0.455927
-0.116753
0.473535
-0.0861894
0.487628
-0.0595313
0.498795
-0.0361936
0.50762
-0.0156124
0.514612
0.0036432
0.520038
0.0185892
0.524077
0.0290832
0.526963
0.0377907
0.528897
0.0462505
0.530002
0.0533622
0.530396
0.0595607
0.530195
0.0650733
0.529523
0.0701185
0.528519
0.0748731
0.527347
0.0795022
0.525668
0.0697305
0.524054
0.0701326
0.522599
0.0703987
0.52137
0.0705878
0.520408
0.0707165
0.519731
0.0708147
0.519339
0.07089
0.519224
0.0709467
0.519375
0.0709873
0.519788
0.0710092
0.520463
0.0710076
0.521404
0.0709677
0.522593
0.0710128
0.523968
0.0714059
0.52541
0.0713209
0.526706
0.0712335
0.527541
0.071849
0.527513
0.0720328
0.526244
0.0720497
0.0721489
0.522996
0.305032
-0.391623
-0.245073
0.355935
-0.336369
0.398905
-0.275656
0.434563
-0.227295
0.463816
-0.181051
0.487553
-0.140491
0.506629
-0.105265
0.521828
-0.0747302
0.533821
-0.0481859
0.543249
-0.025041
0.550679
-0.0037868
0.556456
0.0128119
0.560834
0.0247057
0.564101
0.0345234
0.566502
0.0438502
0.568193
0.0516711
0.569312
0.0584416
0.569977
0.0644079
0.5703
0.0697958
0.570391
0.0747821
0.570371
0.0795224
0.569575
0.070526
0.56878
0.0709277
0.56807
0.0711088
0.56751
0.0711478
0.567147
0.0710801
0.567008
0.0709531
0.567108
0.0707903
0.567444
0.0706102
0.568005
0.0704267
0.568769
0.0702448
0.569714
0.0700629
0.570817
0.0698648
0.572059
0.0697712
0.57342
0.0700443
0.574887
0.069854
0.576429
0.0696922
0.577986
0.0702922
0.579461
0.0705576
0.580754
0.0707566
0.0713268
0.581576
0.317301
-0.456122
-0.252802
0.372093
-0.391161
0.418265
-0.321828
0.456524
-0.265555
0.487856
-0.212383
0.513225
-0.16586
0.533553
-0.125593
0.549689
-0.0908667
0.56237
-0.0608671
0.572287
-0.0349576
0.580049
-0.0115483
0.586059
0.00680151
0.59063
0.0201349
0.594091
0.0310623
0.59672
0.0412212
0.598708
0.0496834
0.600215
0.0569346
0.601373
0.0632499
0.602295
0.0688741
0.603082
0.0739951
0.603832
0.0787717
0.603659
0.0706992
0.603461
0.0711259
0.603309
0.0712608
0.603259
0.0711971
0.603355
0.0709849
0.603624
0.0706841
0.604083
0.0703305
0.60474
0.0699534
0.60559
0.0695768
0.60662
0.0692147
0.60781
0.0688731
0.609133
0.0685417
0.610559
0.068345
0.612057
0.068547
0.613599
0.0683111
0.615165
0.0681263
0.616733
0.0687247
0.61829
0.0690007
0.619837
0.0692091
0.0698215
0.621342
0.331936
-0.525568
-0.262491
0.390958
-0.450182
0.440635
-0.371505
0.481758
-0.306678
0.515395
-0.24602
0.542587
-0.193052
0.56433
-0.147336
0.58154
-0.108076
0.595018
-0.0743455
0.605506
-0.045445
0.613656
-0.0196991
0.619928
0.000529657
0.624685
0.0153784
0.628292
0.0274554
0.631059
0.0384542
0.633207
0.0475348
0.634922
0.0552199
0.636351
0.0618204
0.637618
0.0676075
0.638824
0.0727887
0.640061
0.0775348
0.640286
0.0704744
0.640481
0.0709311
0.640707
0.0710348
0.641013
0.0708911
0.641436
0.0705623
0.642001
0.0701188
0.642726
0.0696058
0.643618
0.0690611
0.644679
0.0685163
0.645901
0.067992
0.647275
0.0674999
0.648781
0.0670349
0.650401
0.0667258
0.652108
0.0668398
0.653877
0.0665415
0.655685
0.0663184
0.657508
0.0669024
0.659329
0.0671791
0.661147
0.0673918
0.0680105
0.662958
0.348779
-0.600388
-0.273959
0.412391
-0.513795
0.465888
-0.425002
0.510145
-0.350935
0.546316
-0.282191
0.575525
-0.22226
0.598843
-0.170654
0.617259
-0.126493
0.631642
-0.088729
0.642786
-0.0565889
0.651392
-0.0283047
0.657969
-0.00604737
0.662927
0.0104199
0.666668
0.023715
0.669531
0.0355909
0.671768
0.0452978
0.673587
0.0534009
0.675156
0.0602516
0.67661
0.0661534
0.678059
0.0713392
0.679596
0.0759985
0.680066
0.0700043
0.680512
0.0704851
0.680988
0.0705582
0.681538
0.070341
0.682194
0.0699064
0.682979
0.0693337
0.683909
0.0686764
0.684991
0.0679792
0.686228
0.0672795
0.687616
0.0666031
0.689151
0.0659658
0.69082
0.0653659
0.692611
0.0649342
0.694511
0.0649397
0.696503
0.06455
0.69857
0.0642513
0.700697
0.0647751
0.702871
0.0650056
0.705081
0.0651811
0.0657721
0.70732
0.367763
-0.68104
-0.287111
0.436355
-0.582387
0.494008
-0.482655
0.541684
-0.398611
0.580628
-0.321135
0.612051
-0.253684
0.63711
-0.195713
0.656868
-0.146251
0.672266
-0.104127
0.684154
-0.0684768
0.693283
-0.0374338
0.700215
-0.0129791
0.705404
0.00523097
0.709285
0.0198338
0.71223
0.0326459
0.714518
0.0430096
0.716382
0.0515374
0.718008
0.0586255
0.719548
0.0646139
0.721122
0.069765
0.722828
0.0742922
0.723433
0.0693994
0.724026
0.0698925
0.724657
0.0699268
0.725367
0.0696311
0.726185
0.0690886
0.727132
0.0683868
0.728222
0.0675864
0.729463
0.0667383
0.730857
0.0658848
0.732405
0.0650558
0.7341
0.0642703
0.735937
0.0635293
0.737907
0.0629643
0.740002
0.0628442
0.742211
0.0623415
0.744523
0.0619392
0.746932
0.0623661
0.749428
0.0625095
0.752005
0.0626043
0.0631216
0.754656
0.388887
-0.768019
-0.301908
0.462879
-0.656379
0.525049
-0.544825
0.576447
-0.450009
0.618418
-0.363105
0.652267
-0.287533
0.67924
-0.222685
0.700481
-0.167492
0.717006
-0.120652
0.729729
-0.0811993
0.739453
-0.047158
0.746792
-0.0203187
0.752247
-0.000223768
0.756287
0.0157936
0.759316
0.0296174
0.76164
0.0406854
0.763516
0.049662
0.765149
0.0569918
0.766709
0.0630545
0.768328
0.068146
0.770113
0.0725067
0.770771
0.0687418
0.77143
0.0692336
0.77214
0.0692164
0.772941
0.0688305
0.77386
0.0681697
0.774917
0.0673294
0.776127
0.066377
0.777496
0.0653693
0.779027
0.0643529
0.780722
0.0633614
0.782575
0.0624167
0.784583
0.0615215
0.78674
0.0608078
0.78904
0.0605435
0.791474
0.0599079
0.794034
0.0593794
0.796718
0.059682
0.799518
0.0597095
0.802429
0.0596929
0.0601025
0.805448
0.412194
-0.861858
-0.318354
0.492042
-0.736228
0.559119
-0.611902
0.614567
-0.505458
0.659838
-0.408376
0.696337
-0.324033
0.725407
-0.251755
0.74828
-0.190365
0.766053
-0.138425
0.779705
-0.0948511
0.790099
-0.0575523
0.797903
-0.0281227
0.803664
-0.00598438
0.807888
0.0115699
0.81101
0.0264951
0.813367
0.0383287
0.815237
0.0477914
0.816849
0.0553799
0.818386
0.0615173
0.819997
0.0665357
0.821798
0.0707053
0.822448
0.068092
0.823112
0.0685699
0.823841
0.0684871
0.824675
0.0679964
0.825643
0.0672023
0.826764
0.0662083
0.828052
0.0650889
0.829515
0.0639061
0.831157
0.0627112
0.832977
0.0615409
0.834974
0.0604197
0.837143
0.0593523
0.839481
0.0584707
0.841983
0.0580408
0.84464
0.057251
0.847446
0.0565742
0.8504
0.0567275
0.853495
0.0566146
0.856726
0.0564625
0.0567387
0.860089
0.43776
-0.963139
-0.336479
0.523962
-0.82243
0.596368
-0.684308
0.656222
-0.565311
0.705087
-0.457241
0.74448
-0.363426
0.775845
-0.28312
0.80051
-0.215029
0.819658
-0.157573
0.83434
-0.109533
0.845484
-0.0686958
0.853813
-0.0364516
0.859923
-0.0120942
0.864358
0.00713442
0.86759
0.0232636
0.869982
0.0359358
0.871841
0.0459332
0.873413
0.0538081
0.8749
0.0600303
0.876464
0.0649711
0.878236
0.068933
0.878834
0.0674948
0.879455
0.0679483
0.880156
0.0677863
0.880977
0.0671752
0.881949
0.0662308
0.883092
0.0650653
0.884421
0.0637602
0.885943
0.0623834
0.887664
0.0609902
0.889584
0.059621
0.891701
0.0583028
0.894011
0.0570423
0.896511
0.055971
0.899199
0.0553525
0.902064
0.0543864
0.905099
0.0535389
0.908308
0.0535189
0.91168
0.0532425
0.91521
0.052933
0.0530531
0.918895
0.465692
-1.07249
-0.356337
0.558789
-0.915527
0.636985
-0.762503
0.70163
-0.629956
0.75441
-0.510021
0.79696
-0.405976
0.830836
-0.316995
0.857466
-0.241659
0.878126
-0.178234
0.893948
-0.125355
0.905925
-0.0806736
0.914844
-0.0453698
0.921349
-0.0185996
0.926028
0.00245545
0.929388
0.019904
0.931824
0.0334992
0.933668
0.0440898
0.935188
0.0522881
0.936604
0.0586137
0.938095
0.06348
0.939804
0.0672245
0.940313
0.066986
0.940855
0.0674065
0.941488
0.0671528
0.942257
0.066406
0.943194
0.0652937
0.944322
0.0639375
0.945656
0.0624267
0.947205
0.0608347
0.948973
0.0592218
0.950962
0.0576316
0.953171
0.056094
0.955596
0.0546179
0.958233
0.0533343
0.961081
0.0525037
0.964129
0.0513389
0.967369
0.0502987
0.970806
0.0500818
0.974429
0.0496201
0.978229
0.0491326
0.0490756
0.982207
0.49612
-1.19061
-0.378003
0.596702
-1.01611
0.68119
-0.846992
0.751048
-0.699813
0.808093
-0.567066
0.854087
-0.45197
0.890706
-0.353614
0.91949
-0.270443
0.941813
-0.200557
0.958891
-0.142434
0.971795
-0.0935775
0.981372
-0.0549469
0.988324
-0.0255512
0.993281
-0.00250158
0.99679
0.0163949
0.99928
0.0310091
1.00111
0.0422614
1.00257
0.0508285
1.0039
0.0572837
1.00529
0.0620857
1.00691
0.0656091
1.0073
0.066596
1.00773
0.0669775
1.00826
0.0666213
1.00894
0.0657241
1.00981
0.0644266
1.01089
0.0628604
1.01219
0.0611229
1.01373
0.0592939
1.01551
0.0574386
1.01754
0.0556046
1.01981
0.0538245
1.02232
0.0521097
1.02506
0.0505906
1.02804
0.0495243
1.03124
0.0481386
1.03466
0.0468841
1.03829
0.0464479
1.04213
0.0457799
1.04617
0.0450947
0.0448411
1.0504
0.529197
-1.31824
-0.401565
0.637909
-1.12482
0.729238
-0.93832
0.804768
-0.775344
0.866461
-0.628758
0.916214
-0.501723
0.955832
-0.393233
0.986975
-0.301585
1.01112
-0.224707
1.02959
-0.160898
1.04352
-0.107507
1.05383
-0.0652583
1.06128
-0.0330035
1.06656
-0.00777433
1.07024
0.0127131
1.07279
0.0284541
1.07461
0.0404468
1.076
0.0494371
1.07723
0.0560559
1.0785
0.0608101
1.08
0.0641147
1.08024
0.0663535
1.08052
0.0666927
1.08092
0.066225
1.08148
0.065164
1.08224
0.0636647
1.08323
0.0618694
1.08447
0.0598844
1.08597
0.0577965
1.08773
0.0556761
1.08976
0.053575
1.09206
0.0515291
1.09461
0.0495524
1.09743
0.0477746
1.10051
0.0464493
1.10382
0.0448209
1.10738
0.0433309
1.11117
0.0426534
1.11519
0.0417589
1.11943
0.0408571
0.0403882
1.12388
0.565098
-1.45621
-0.427128
0.682645
-1.24237
0.781415
-1.03709
0.863122
-0.857051
0.92988
-0.695516
0.983736
-0.555579
1.02663
-0.436131
1.06036
-0.335313
1.08652
-0.250863
1.10651
-0.18089
1.12158
-0.122572
1.1327
-0.0763866
1.14072
-0.0410164
1.14635
-0.0134035
1.15023
0.00883344
1.15286
0.0258222
1.15466
0.0386451
1.15597
0.0481222
1.15708
0.0549464
1.15822
0.0596766
1.15956
0.0627707
1.15963
0.066288
1.15973
0.0665842
1.15996
0.0659981
1.16036
0.0647615
1.16098
0.0630449
1.16185
0.0610023
1.16299
0.0587496
1.1644
0.0563811
1.1661
0.0539731
1.1681
0.0515819
1.17038
0.0492471
1.17295
0.0469855
1.17579
0.0449262
1.17893
0.0433188
1.18232
0.041426
1.18597
0.0396798
1.18989
0.0387396
1.19404
0.0375991
1.19844
0.0364624
0.0357602
1.20307
0.604017
-1.60542
-0.454813
0.731174
-1.36952
0.838042
-1.14396
0.926478
-0.945487
0.998761
-0.7678
1.0571
-0.613916
1.10359
-0.482618
1.14015
-0.371875
1.16851
-0.279223
1.19018
-0.202564
1.2065
-0.138892
1.21854
-0.0884222
1.22718
-0.0496549
1.23321
-0.0194333
1.23731
0.0047289
1.24003
0.0231009
1.24182
0.0368558
1.24305
0.0468937
1.24402
0.0539741
1.24499
0.0587116
1.24615
0.0616104
1.246
0.0664316
1.2459
0.0666874
1.24592
0.0659784
1.24613
0.0645563
1.24656
0.0626083
1.24726
0.0603012
1.24825
0.0577614
1.24954
0.0550914
1.25114
0.0523738
1.25305
0.0496701
1.25528
0.0470235
1.25781
0.0444544
1.26064
0.0420912
1.26378
0.0401791
1.26721
0.0380009
1.27091
0.0359783
1.27489
0.0347546
1.27914
0.0333488
1.28365
0.0319595
0.0310064
1.2884
0.646174
-1.76684
-0.48475
0.783786
-1.50714
0.899474
-1.25965
0.995246
-1.04126
1.07356
-0.846113
1.13679
-0.67715
1.18721
-0.533033
1.22688
-0.411544
1.25766
-0.310006
1.28119
-0.226092
1.2989
-0.1566
1.31194
-0.101464
1.32128
-0.0589908
1.32775
-0.0259121
1.33211
0.000370545
1.33494
0.0202774
1.33671
0.03508
1.33784
0.0457643
1.33865
0.0531616
1.33942
0.0579464
1.34036
0.0606727
1.33997
0.0668206
1.33961
0.0670421
1.33938
0.0662084
1.33935
0.0645932
1.33955
0.0624016
1.34004
0.0598143
1.34083
0.0569692
1.34195
0.0539776
1.34339
0.0509293
1.34517
0.0478912
1.34728
0.0449108
1.34972
0.0420122
1.35249
0.0393232
1.35559
0.0370844
1.35899
0.0346002
1.36269
0.0322813
1.36669
0.0307538
1.37097
0.0290639
1.37553
0.0274047
0.0261837
1.38035
0.691809
-1.94157
-0.517086
0.840806
-1.65613
0.966106
-1.38495
1.06988
-1.14503
1.15478
-0.931013
1.22337
-0.745741
1.27809
-0.58775
1.32117
-0.454624
1.35461
-0.343453
1.38019
-0.251664
1.39943
-0.175842
1.41359
-0.115624
1.4237
-0.069103
1.43068
-0.0328927
1.43532
-0.00427284
1.43826
0.017339
1.44002
0.0333204
1.44104
0.04475
1.44166
0.0525362
1.44219
0.0574183
1.44286
0.0600038
1.44218
0.0674974
1.44153
0.0676945
1.441
0.0667378
1.44067
0.0649244
1.44059
0.062479
1.44081
0.0595976
1.44135
0.0564303
1.44223
0.0530985
1.44346
0.0496994
1.44504
0.0463059
1.44698
0.0429705
1.44927
0.0397211
1.45191
0.0366851
1.4549
0.034098
1.45821
0.0312879
1.46184
0.0286536
1.46579
0.0268023
1.47004
0.0248102
1.47458
0.022864
0.0213585
1.47941
0.741186
-2.13077
-0.551979
0.90259
-1.81754
1.03837
-1.52073
1.15088
-1.25754
1.24298
-1.02311
1.31743
-0.820193
1.37687
-0.647183
1.42369
-0.50145
1.46007
-0.379831
1.4879
-0.279491
1.50883
-0.196781
1.52423
-0.131021
1.53521
-0.0800785
1.54275
-0.0404332
1.54771
-0.00923481
1.55078
0.0142728
1.55251
0.0315819
1.55339
0.0438709
1.5538
0.0521314
1.55404
0.0571725
1.55439
0.0596593
1.55337
0.0685116
1.55237
0.0686989
1.55148
0.0676244
1.5508
0.0656108
1.55037
0.062904
1.55025
0.0597167
1.55047
0.0562123
1.55105
0.052523
1.55199
0.0487542
1.55331
0.0449857
1.55501
0.041275
1.55707
0.0376545
1.55951
0.034251
1.56231
0.0312949
1.56546
0.0281397
1.56894
0.0251713
1.57277
0.0229769
1.57691
0.020665
1.58136
0.0184154
0.0166091
1.58611
0.794596
-2.33577
-0.589604
0.969529
-1.99247
1.11675
-1.66795
1.23881
-1.3796
1.33878
-1.12308
1.41965
-0.901066
1.48426
-0.711789
1.5352
-0.552391
1.57481
-0.419437
1.60512
-0.309804
1.62794
-0.219597
1.64471
-0.147792
1.65664
-0.0920137
1.66481
-0.0485971
1.67012
-0.0145514
1.67333
0.0110666
1.67504
0.0298724
1.67576
0.0431524
1.6759
0.0519879
1.67581
0.0572633
1.67576
0.0597058
1.67435
0.0699217
1.67293
0.070119
1.67162
0.0689364
1.67051
0.0667243
1.66966
0.0637516
1.66913
0.0602491
1.66895
0.0563948
1.66914
0.0523326
1.66971
0.0481771
1.67069
0.044015
1.67205
0.03991
1.67381
0.0358992
1.67595
0.0321089
1.67848
0.0287638
1.68137
0.0252451
1.68462
0.0219249
1.68823
0.0193688
1.69217
0.01672
1.69644
0.0141513
0.0120285
1.70102
0.852357
-2.55798
-0.630146
1.04206
-2.18217
1.20178
-1.82768
1.33427
-1.51209
1.44286
-1.23168
1.53077
-0.988978
1.60106
-0.782077
1.65653
-0.607858
1.69969
-0.4626
1.73275
-0.342865
1.75765
-0.24449
1.77594
-0.166086
1.78894
-0.105016
1.7978
-0.0574547
1.80351
-0.0202615
1.80687
0.00770796
1.80854
0.0282029
1.80907
0.0426257
1.8089
0.0521548
1.80841
0.0577557
1.80789
0.060223
1.80602
0.0717966
1.8041
0.0720299
1.80229
0.070754
1.80066
0.0683493
1.7993
0.0651099
1.79827
0.061286
1.79759
0.0570718
1.7973
0.0526235
1.79741
0.048066
1.79793
0.043494
1.79886
0.0389772
1.80021
0.0345581
1.80195
0.0303629
1.8041
0.0266101
1.80664
0.0227105
1.80954
0.0190218
1.81283
0.0160861
1.81646
0.0130842
1.82043
0.0101814
0.00772734
1.82473
0.914815
-2.79898
-0.673808
1.12064
-2.388
1.29403
-2.00106
1.43795
-1.656
1.55598
-1.34971
1.65162
-1.08461
1.72815
-0.858607
1.7886
-0.66831
1.83569
-0.509687
1.87178
-0.378962
1.89898
-0.271684
1.91896
-0.186071
1.93315
-0.119203
1.94278
-0.0670836
1.94892
-0.0264074
1.95245
0.00418545
1.95406
0.0265883
1.95436
0.0423292
1.95382
0.0526912
1.95285
0.0587277
1.95177
0.0613061
1.94935
0.0742177
1.94686
0.0745202
1.94444
0.0731718
1.9422
0.0705858
1.94023
0.0670831
1.93858
0.0629354
1.9373
0.0583542
1.93641
0.0535097
1.93594
0.0485374
1.93589
0.0435409
1.93627
0.0385968
1.93708
0.0337534
1.9383
0.0291366
1.93995
0.0249588
1.942
0.0206623
1.94444
0.0165896
1.94726
0.0132576
1.95046
0.00988743
1.95401
0.00663649
0.00383715
1.9579
0.98235
-3.06053
-0.720806
1.20582
-2.61146
1.39416
-2.1894
1.55058
-1.81243
1.67898
-1.47811
1.7831
-1.18873
1.86649
-0.942005
1.93244
-0.734253
1.98385
-0.561104
2.02331
-0.418417
2.05305
-0.301428
2.07491
-0.207933
2.09042
-0.134709
2.10091
-0.0775693
2.10753
-0.0330346
2.11123