/*--------------------------------*- C++ -*----------------------------------*\
| =========                 |                                                 |
| \\      /  F ield         | OpenFOAM: The Open Source CFD Toolbox           |
|  \\    /   O peration     | Version:  5.x                                   |
|   \\  /    A nd           | Web:      www.OpenFOAM.org                      |
|    \\/     M anipulation  |                                                 |
\*---------------------------------------------------------------------------*/
FoamFile
{
    version     2.0;
    format      ascii;
    class       surfaceScalarField;
    location    "250";
    object      phi;
}
// * * * * * * * * * * * * * * * * * * * * * * * * * * * * * * * * * * * * * //

dimensions      [0 3 -1 0 0 0 0];

internalField   nonuniform List<scalar> 
83317
(
0.000481112
0.00012846
-0.000572427
0.000392351
8.88419e-05
0.000318908
7.34171e-05
0.00028684
3.20841e-05
0.000269943
1.69052e-05
0.000257841
1.21188e-05
0.000249608
8.2451e-06
0.000243757
5.86335e-06
0.000238972
4.79484e-06
0.000234539
4.44139e-06
0.000230746
4.70513e-06
0.000226914
3.0282e-06
0.000224854
3.0312e-06
0.000223587
2.37864e-07
0.000223388
1.17775e-06
0.000223351
-9.23071e-07
0.000222788
1.53948e-06
0.000222418
-5.94888e-07
0.000221388
2.04761e-06
0.000220605
-2.06908e-07
0.000219622
9.69017e-07
0.000218464
1.15877e-06
0.000217687
7.77739e-07
0.000216582
1.10705e-06
0.000215806
7.78043e-07
0.00021498
8.30233e-07
0.000213996
9.8786e-07
0.000213114
8.84686e-07
0.00021229
8.23991e-07
0.000211121
1.16643e-06
0.000209571
1.55487e-06
0.000208423
1.99321e-06
0.000207939
-2.99508e-07
0.00020735
1.4608e-06
0.00020679
-2.83317e-07
0.000206452
1.1456e-06
0.000205939
-3.35713e-07
0.000206449
2.47685e-07
0.000207177
-1.46366e-06
0.000207254
5.93497e-07
0.000207578
-9.81546e-07
0.000203775
4.34145e-06
0.000200512
2.71236e-06
0.0002004
5.7867e-07
0.000199853
8.81106e-08
0.000199957
2.54964e-07
0.000200296
-6.91687e-07
0.000200258
3.69948e-07
0.00019977
1.61972e-07
0.000199291
7.91648e-07
0.000199344
-3.31292e-07
0.000199465
1.60055e-07
0.000200164
-1.00016e-06
0.000200961
-5.24923e-07
0.000201039
-3.51201e-07
0.000201202
1.10697e-07
0.00020117
-2.46244e-07
0.000201568
-2.89828e-07
0.000201959
-5.08466e-07
0.00020252
-5.46424e-07
0.00020299
-4.95285e-07
0.000202544
4.23165e-07
0.000202906
-3.52806e-07
0.000203258
-3.86683e-07
0.00020408
-7.82144e-07
0.000205056
-1.04385e-06
0.000205236
-1.27184e-07
0.000205325
-2.95381e-07
0.000205022
5.06763e-07
0.000204918
-3.51543e-07
0.000204981
3.63417e-07
0.00020472
-4.63449e-07
0.00020359
1.80177e-06
0.000202601
-9.02557e-08
0.000202078
1.64439e-06
0.000200707
-4.1171e-07
0.000198697
3.77896e-06
0.000196279
-5.32183e-07
0.000192244
7.04602e-06
0.000192056
-6.68923e-06
0.000101699
9.71937e-05
-0.000426037
0.000527879
0.000728537
0.000246932
-0.000846906
0.000564933
0.000252472
0.000447684
0.000190641
0.000400228
7.95481e-05
0.000380922
3.62185e-05
0.000369797
2.32521e-05
0.000365717
1.23308e-05
0.000365137
6.45186e-06
0.000366046
3.89499e-06
0.000367661
2.8306e-06
0.000369289
3.57867e-06
0.000370821
1.05632e-06
0.000373266
1.11707e-06
0.000376613
-3.68326e-06
0.000381342
-3.01618e-06
0.000385356
-5.46446e-06
0.00038976
-2.33597e-06
0.000393368
-4.72624e-06
0.000396897
-9.3683e-07
0.000399997
-3.83451e-06
0.000402165
-1.21016e-06
0.000404408
-1.08457e-06
0.000405635
-4.50742e-07
0.000406758
-1.54972e-08
0.000407248
2.88491e-07
0.000407191
8.88978e-07
0.000407443
7.38654e-07
0.000406927
1.40162e-06
0.000406111
1.63947e-06
0.000405328
1.94625e-06
0.000404689
2.19427e-06
0.000403694
3.43552e-06
0.000402217
7.59089e-07
0.000400793
3.35304e-06
0.000399293
7.67623e-07
0.000397727
3.14429e-06
0.000396226
7.05654e-07
0.000394497
2.38918e-06
0.000392491
1.43452e-07
0.000390827
2.6297e-06
0.000389228
2.60728e-07
0.000390986
2.87804e-06
0.000393628
-2.2418e-07
0.000394219
2.39299e-07
0.000394229
-1.66524e-07
0.00039366
1.02036e-06
0.000393182
-4.06227e-07
0.000392918
8.1824e-07
0.000392888
1.49373e-08
0.000392909
9.43592e-07
0.000392743
-3.176e-07
0.00039261
4.49111e-07
0.000392272
-8.24095e-07
0.000391947
-4.93064e-08
0.000392211
-7.67637e-07
0.000392514
-4.1051e-08
0.000392473
-3.58065e-07
0.000392532
-2.87922e-07
0.000392634
-6.7452e-07
0.000392478
-3.82342e-07
0.000392642
-6.73578e-07
0.000393148
-9.44092e-08
0.000393167
-3.63157e-07
0.000393139
-3.77235e-07
0.000392806
-4.22487e-07
0.000392587
-8.65466e-07
0.000392615
-1.27321e-07
0.000392069
1.38564e-07
0.000391599
1.09386e-06
0.000391229
-2.46692e-07
0.000390388
1.43756e-06
0.00038922
2.92325e-07
0.000388268
3.11962e-06
0.000387048
5.35096e-07
0.000384961
4.35638e-06
0.000382576
9.84725e-07
0.000379662
7.68207e-06
0.00037611
1.39943e-06
0.000369972
1.48565e-05
0.000369704
-1.02402e-05
0.000210852
0.000259821
-0.0008687
0.000653669
0.000965837
0.000391732
-0.00111111
0.000741513
0.000476848
0.000580854
0.000351295
0.000518443
0.000141968
0.000495318
5.93444e-05
0.000483807
3.47713e-05
0.000482367
1.37753e-05
0.00048564
3.18372e-06
0.000490912
-1.37504e-06
0.000497223
-3.47636e-06
0.000503055
-1.94347e-06
0.000508504
-4.66653e-06
0.000514179
-4.23091e-06
0.00052028
-1.01319e-05
0.000527926
-1.03441e-05
0.000534052
-1.18992e-05
0.000540748
-8.72535e-06
0.000546161
-1.04333e-05
0.000551416
-5.88152e-06
0.000556034
-8.74033e-06
0.000559505
-4.68441e-06
0.000562885
-4.46441e-06
0.000564892
-2.45611e-06
0.000566707
-1.82859e-06
0.000567712
-7.154e-07
0.000568247
3.55106e-07
0.000568606
3.80294e-07
0.000568224
1.78617e-06
0.000567765
2.0986e-06
0.000566892
2.82024e-06
0.000565994
3.09478e-06
0.00056474
4.92733e-06
0.000563186
2.09558e-06
0.000561509
5.28133e-06
0.000559664
2.37156e-06
0.000557705
5.33862e-06
0.000555613
2.5512e-06
0.00055326
4.96154e-06
0.000550692
2.49009e-06
0.000548313
5.20995e-06
0.000545638
2.73373e-06
0.000549218
-5.35062e-07
0.000554001
-5.16979e-06
0.00055456
-1.81959e-07
0.000554507
-2.47234e-07
0.000554167
1.46396e-06
0.000553735
-7.78391e-08
0.00055344
1.20953e-06
0.000553278
8.00211e-08
0.000553158
1.15476e-06
0.000552932
-1.72618e-07
0.000552741
7.2067e-07
0.00055244
-6.12913e-07
0.000552151
3.19632e-07
0.000552108
-8.05037e-07
0.000552088
5.95963e-08
0.000552153
-5.05888e-07
0.000552161
-2.64699e-07
0.000552214
-7.63042e-07
0.000552274
-4.37593e-07
0.000552395
-8.01838e-07
0.00055268
-3.87655e-07
0.000552601
-2.83456e-07
0.000552471
-2.57314e-07
0.000552088
-2.98201e-08
0.000551649
-4.45394e-07
0.00055124
2.97802e-07
0.000550765
5.50897e-07
0.000550206
1.71216e-06
0.000549279
5.49846e-07
0.000548255
2.5909e-06
0.000546883
1.44819e-06
0.000545293
4.91811e-06
0.000543391
2.11462e-06
0.000540795
7.2914e-06
0.000537581
3.6523e-06
0.000533449
1.23456e-05
0.000528795
5.14837e-06
0.000520875
2.36884e-05
0.000520594
-1.20717e-05
0.000324574
0.000457915
-0.00136379
0.000819863
0.00125375
0.000561806
-0.00142399
0.000963297
0.000767324
0.000748826
0.000565743
0.000666729
0.000224071
0.000637911
8.81679e-05
0.00062534
4.73486e-05
0.000626065
1.3055e-05
0.000632828
-3.57296e-06
0.000642118
-1.06588e-05
0.000652638
-1.39918e-05
0.000662519
-1.15737e-05
0.000671451
-1.38136e-05
0.00067996
-1.2488e-05
0.000687918
-1.83719e-05
0.000697368
-1.9544e-05
0.000704972
-1.97508e-05
0.000712936
-1.64474e-05
0.000719545
-1.72798e-05
0.000725701
-1.17931e-05
0.000731209
-1.44816e-05
0.000735429
-8.91141e-06
0.000739412
-8.44737e-06
0.000741982
-5.02657e-06
0.000744189
-4.03506e-06
0.000745579
-2.10559e-06
0.000746427
-4.92213e-07
0.000746951
-1.41273e-07
0.000746713
2.02567e-06
0.000746405
2.40525e-06
0.000745541
3.6816e-06
0.000744493
4.1434e-06
0.000743113
6.50275e-06
0.000741592
3.43422e-06
0.000739849
7.23111e-06
0.00073789
4.13252e-06
0.000735818
7.60151e-06
0.00073348
4.68128e-06
0.000731049
7.57987e-06
0.000728407
4.9485e-06
0.000725759
8.03102e-06
0.000722709
5.61783e-06
0.00072624
-3.92641e-06
0.000731345
-1.04031e-05
0.000732095
-8.21011e-07
0.000732052
-3.13069e-07
0.000731839
1.76451e-06
0.00073152
1.55959e-07
0.000731268
1.54449e-06
0.000731064
2.05219e-07
0.000730901
1.39671e-06
0.000730717
-5.66909e-08
0.000730577
9.30975e-07
0.000730424
-5.32492e-07
0.000730297
5.14606e-07
0.000730252
-8.29483e-07
0.00073024
1.41268e-07
0.000730363
-6.99297e-07
0.000730461
-3.34224e-07
0.000730603
-9.34999e-07
0.000730826
-6.56677e-07
0.000731052
-1.03591e-06
0.00073124
-5.7995e-07
0.000731197
-2.35617e-07
0.000731089
-1.57802e-07
0.00073078
2.93847e-07
0.000730428
-1.13342e-07
0.000729894
8.44575e-07
0.000729363
1.02903e-06
0.000728631
2.50103e-06
0.000727418
1.63349e-06
0.000726203
3.91365e-06
0.000724517
2.93566e-06
0.000722318
7.28762e-06
0.000719808
4.34581e-06
0.000716638
1.076e-05
0.000712513
7.31263e-06
0.000707137
1.81939e-05
0.000701138
1.03822e-05
0.000690948
3.46713e-05
0.000690674
-1.3592e-05
0.000469685
0.000680687
-0.00192683
0.00103287
0.00159815
0.000748845
-0.00178577
0.00123396
0.00113157
0.000956456
0.000843249
0.000848175
0.000332359
0.000810652
0.000125689
0.000795588
6.24207e-05
0.000797197
1.14492e-05
0.000806635
-1.3008e-05
0.000819469
-2.34928e-05
0.000833893
-2.84139e-05
0.000847943
-2.54761e-05
0.000860652
-2.6653e-05
0.000872537
-2.42166e-05
0.000882936
-2.89396e-05
0.000894596
-3.10495e-05
0.000904255
-2.95603e-05
0.000914009
-2.60488e-05
0.000922348
-2.57641e-05
0.000929943
-1.92314e-05
0.000936844
-2.15259e-05
0.000942207
-1.42763e-05
0.000947206
-1.34451e-05
0.00095067
-8.48906e-06
0.00095358
-6.94409e-06
0.000955602
-4.12615e-06
0.000956896
-1.78516e-06
0.000957837
-1.08164e-06
0.000957892
1.97215e-06
0.000957794
2.50357e-06
0.000957074
4.4028e-06
0.000956092
5.12796e-06
0.000954754
7.96646e-06
0.000953236
4.84009e-06
0.000951469
9.12831e-06
0.000949445
6.03056e-06
0.000947295
9.87534e-06
0.000944836
7.01017e-06
0.000942314
1.02163e-05
0.00093954
7.60435e-06
0.000936708
1.09684e-05
0.000933435
8.78087e-06
0.000936803
-7.20435e-06
0.000942149
-1.58364e-05
0.000943253
-1.85146e-06
0.000943332
-4.64314e-07
0.000943214
1.93764e-06
0.000943003
3.12316e-07
0.000942837
1.7597e-06
0.000942693
2.96799e-07
0.000942589
1.54948e-06
0.000942499
-8.85775e-09
0.00094246
1.01094e-06
0.000942445
-5.67212e-07
0.000942465
5.36943e-07
0.000942546
-9.52695e-07
0.00094267
5.9568e-08
0.000942889
-9.62696e-07
0.000943133
-5.62165e-07
0.000943422
-1.2442e-06
0.000943797
-1.03009e-06
0.000944189
-1.4307e-06
0.000944474
-8.70387e-07
0.000944515
-2.77853e-07
0.000944465
-1.13067e-07
0.000944204
5.58256e-07
0.000943895
1.86549e-07
0.000943322
1.4262e-06
0.000942679
1.63634e-06
0.000941767
3.44392e-06
0.000940321
3.01213e-06
0.000938838
5.4682e-06
0.000936742
4.91564e-06
0.000933975
1.01691e-05
0.000930819
7.32729e-06
0.000926849
1.49146e-05
0.000921656
1.22068e-05
0.000914875
2.52617e-05
0.000907257
1.75e-05
0.000894292
4.81336e-05
0.000894036
-1.4491e-05
0.000653035
0.000922824
-0.00257163
0.00129802
0.0020081
0.000948841
-0.00220836
0.00155864
0.00158105
0.00120614
0.00119573
0.00106581
0.000472695
0.00101697
0.000174533
0.000998424
8.09715e-05
0.00100066
9.21319e-06
0.00101306
-2.53985e-05
0.00103003
-4.04525e-05
0.00104912
-4.75047e-05
0.00106818
-4.43945e-05
0.0010856
-4.41906e-05
0.00110193
-4.04166e-05
0.00111585
-4.30097e-05
0.00113068
-4.57382e-05
0.00114317
-4.21928e-05
0.00115544
-3.81792e-05
0.00116613
-3.65993e-05
0.00117574
-2.8692e-05
0.00118455
-3.04749e-05
0.00119149
-2.12292e-05
0.00119792
-1.98693e-05
0.00120262
-1.31894e-05
0.00120654
-1.08612e-05
0.00120945
-7.03833e-06
0.0012114
-3.74104e-06
0.00121296
-2.63453e-06
0.00121346
1.47119e-06
0.00121371
2.2501e-06
0.00121325
4.86299e-06
0.00121246
5.92203e-06
0.00121127
9.28137e-06
0.0012098
6.19625e-06
0.00120806
1.09922e-05
0.00120602
7.95348e-06
0.00120383
1.21801e-05
0.0012013
9.40532e-06
0.00119869
1.29402e-05
0.00119579
1.03965e-05
0.00119282
1.40455e-05
0.00118936
1.21393e-05
0.00119259
-1.03443e-05
0.00119823
-2.15613e-05
0.00119979
-3.33581e-06
0.00120007
-8.20491e-07
0.0012001
1.96429e-06
0.00120004
3.22715e-07
0.00120001
1.8417e-06
0.00119999
2.69458e-07
0.00120001
1.57637e-06
0.00120007
-1.0462e-07
0.00120018
9.41473e-07
0.00120034
-7.71998e-07
0.00120054
3.77034e-07
0.0012008
-1.26017e-06
0.00120112
-2.1254e-07
0.0012015
-1.39023e-06
0.00120195
-9.90165e-07
0.00120244
-1.75753e-06
0.00120303
-1.61596e-06
0.00120365
-2.05074e-06
0.00120412
-1.34943e-06
0.00120429
-4.41434e-07
0.00120433
-1.58857e-07
0.00120413
7.70019e-07
0.00120384
4.59567e-07
0.00120324
2.03973e-06
0.00120248
2.35761e-06
0.00120139
4.56889e-06
0.00119968
4.63647e-06
0.00119787
7.34861e-06
0.0011953
7.35001e-06
0.00119189
1.3682e-05
0.00118796
1.10833e-05
0.001183
2.0072e-05
0.00117653
1.83783e-05
0.00116805
3.40446e-05
0.00115848
2.65863e-05
0.00114216
6.49666e-05
0.00114191
-1.53943e-05
0.000878872
0.00118701
-0.00331284
0.00162019
0.00249814
0.00115626
-0.0027061
0.00195034
0.00212891
0.00150729
0.00163879
0.00132848
0.000651506
0.00126572
0.000237292
0.00124283
0.000103864
0.00124586
6.18908e-06
0.00126187
-4.14049e-05
0.00128388
-6.24668e-05
0.00130872
-7.23395e-05
0.00133389
-6.94873e-05
0.00135714
-6.75151e-05
0.0013791
-6.22897e-05
0.00139766
-6.16549e-05
0.00141672
-6.4715e-05
0.00143292
-5.84799e-05
0.00144852
-5.36922e-05
0.00146229
-5.04497e-05
0.00147455
-4.08581e-05
0.00148585
-4.18617e-05
0.0014949
-3.02763e-05
0.00150322
-2.81877e-05
0.00150955
-1.95175e-05
0.00151483
-1.61391e-05
0.00151894
-1.11494e-05
0.00152182
-6.62337e-06
0.00152422
-5.03195e-06
0.00152536
3.30509e-07
0.00152614
1.47604e-06
0.00152608
4.92502e-06
0.00152559
6.40998e-06
0.00152464
1.03098e-05
0.00152331
7.46467e-06
0.00152167
1.27042e-05
0.00151966
9.88591e-06
0.00151749
1.44274e-05
0.00151494
1.18818e-05
0.00151228
1.5667e-05
0.00150927
1.33313e-05
0.0015062
1.71732e-05
0.00150258
1.56953e-05
0.00150571
-1.34195e-05
0.00151174
-2.76417e-05
0.00151385
-5.40199e-06
0.00151444
-1.45912e-06
0.00151469
1.74836e-06
0.00151484
1.46057e-07
0.001515
1.70214e-06
0.00151518
6.59864e-08
0.00151539
1.38663e-06
0.00151565
-3.87932e-07
0.00151598
6.34188e-07
0.00151637
-1.19095e-06
0.00151681
-3.88691e-08
0.00151732
-1.78876e-06
0.00151789
-7.56432e-07
0.00151851
-2.04179e-06
0.00151922
-1.6969e-06
0.00151999
-2.53481e-06
0.00152087
-2.49343e-06
0.00152178
-2.96201e-06
0.00152252
-2.09235e-06
0.00152286
-7.84267e-07
0.00152303
-3.35682e-07
0.00152291
8.92246e-07
0.00152265
7.1368e-07
0.00152201
2.68121e-06
0.00152115
3.20298e-06
0.00151988
5.85551e-06
0.00151785
6.62484e-06
0.00151563
9.60735e-06
0.00151251
1.04026e-05
0.00150834
1.79217e-05
0.00150346
1.58586e-05
0.0014973
2.63497e-05
0.00148929
2.62074e-05
0.00147875
4.47542e-05
0.00146679
3.82315e-05
0.0014464
8.5663e-05
0.00144615
-1.5857e-05
0.00115452
0.00147933
-0.00416584
0.00200766
0.00308572
0.00136525
-0.00329497
0.00242606
0.00278859
0.00187376
0.00219107
0.00164843
0.000876835
0.00156838
0.000317348
0.00153998
0.00013227
0.00154388
2.29073e-06
0.00156423
-6.17496e-05
0.00159236
-9.05912e-05
0.0016242
-0.000104172
0.00165682
-0.000102028
0.00168725
-9.80118e-05
0.0017162
-9.11552e-05
0.00174069
-8.62441e-05
0.00176523
-8.91641e-05
0.00178619
-7.95367e-05
0.00180609
-7.34975e-05
0.00182378
-6.8235e-05
0.00183946
-5.64406e-05
0.00185396
-5.64569e-05
0.00186572
-4.20419e-05
0.0018765
-3.89617e-05
0.00188494
-2.79626e-05
0.00189202
-2.32109e-05
0.0018977
-1.68345e-05
0.00190184
-1.07582e-05
0.00190536
-8.55426e-06
0.00190738
-1.68587e-06
0.0019089
-4.20579e-08
0.00190941
4.40627e-06
0.00190939
6.43667e-06
0.0019088
1.0979e-05
0.00190772
8.47403e-06
0.00190628
1.42256e-05
0.00190439
1.16974e-05
0.0019023
1.65887e-05
0.00189977
1.43192e-05
0.00189712
1.83999e-05
0.00189406
1.63121e-05
0.00189095
2.03567e-05
0.00188721
1.93744e-05
0.00189028
-1.64301e-05
0.00189677
-3.41831e-05
0.00189956
-8.1467e-06
0.00190058
-2.52348e-06
0.00190114
1.22097e-06
0.00190157
-3.17369e-07
0.00190202
1.29089e-06
0.00190246
-4.10028e-07
0.00190296
9.2618e-07
0.0019035
-9.56358e-07
0.00190412
3.87961e-08
0.00190481
-1.91216e-06
0.00190557
-7.6593e-07
0.00190639
-2.63702e-06
0.00190729
-1.62723e-06
0.00190824
-3.0254e-06
0.00190931
-2.75231e-06
0.00191043
-3.66877e-06
0.00191169
-3.74951e-06
0.00191298
-4.25609e-06
0.00191405
-3.17212e-06
0.00191463
-1.35575e-06
0.00191498
-6.91362e-07
0.00191497
9.1194e-07
0.00191476
9.10976e-07
0.0019141
3.34933e-06
0.00191311
4.17018e-06
0.00191165
7.34811e-06
0.00190924
8.96434e-06
0.00190654
1.23462e-05
0.00190276
1.40873e-05
0.00189767
2.30812e-05
0.00189164
2.17752e-05
0.00188401
3.4113e-05
0.00187413
3.58916e-05
0.00186107
5.80161e-05
0.00184622
5.27553e-05
0.00182088
0.000111356
0.00182058
-1.63265e-05
0.0014924
0.00180826
-0.0051471
0.00247374
0.00379163
0.00156764
-0.00399449
0.00300578
0.0035745
0.00232222
0.00287464
0.00204032
0.00115875
0.00193852
0.000419137
0.00190298
0.000167814
0.00190773
-2.45851e-06
0.00193321
-8.72232e-05
0.00196868
-0.000126071
0.00200901
-0.000144496
0.0020507
-0.000143674
0.0020899
-0.000137255
0.00212748
-0.000128683
0.00215945
-0.000118263
0.00219095
-0.000120617
0.00221797
-0.000106602
0.00224333
-9.8803e-05
0.002266
-9.09536e-05
0.00228602
-7.64113e-05
0.00230459
-7.50694e-05
0.00231982
-5.72689e-05
0.00233373
-5.28745e-05
0.00234489
-3.91222e-05
0.00235429
-3.26014e-05
0.00236202
-2.45638e-05
0.0023678
-1.6545e-05
0.00237282
-1.35663e-05
0.00237601
-4.88276e-06
0.00237854
-2.56806e-06
0.00237987
3.08308e-06
0.00238049
5.81236e-06
0.00238044
1.10819e-05
0.00237975
9.12452e-06
0.00237864
1.53814e-05
0.00237697
1.33203e-05
0.00237507
1.85305e-05
0.00237266
1.66898e-05
0.00237009
2.10074e-05
0.00236706
1.9299e-05
0.00236397
2.34766e-05
0.00236017
2.31386e-05
0.00236322
-1.94494e-05
0.00237025
-4.12433e-05
0.00237386
-1.17343e-05
0.00237545
-4.13958e-06
0.00237645
2.42224e-07
0.00237726
-1.15315e-06
0.00237809
4.80267e-07
0.00237891
-1.24657e-06
0.00237978
7.13202e-08
0.0023807
-1.89311e-06
0.00238172
-9.65054e-07
0.00238281
-3.02344e-06
0.00238398
-1.91892e-06
0.00238521
-3.88527e-06
0.00238654
-2.94549e-06
0.00238793
-4.42715e-06
0.00238945
-4.27498e-06
0.00239103
-5.25482e-06
0.00239278
-5.49596e-06
0.00239456
-6.03596e-06
0.00239607
-4.69051e-06
0.00239695
-2.24178e-06
0.00239755
-1.28741e-06
0.00239769
7.69595e-07
0.00239756
1.0387e-06
0.00239688
4.0312e-06
0.00239576
5.27599e-06
0.00239407
9.04899e-06
0.00239122
1.17901e-05
0.00238794
1.56564e-05
0.00238337
1.8623e-05
0.00237716
2.93323e-05
0.00236972
2.91494e-05
0.00236032
4.35837e-05
0.00234816
4.79425e-05
0.00233204
7.42255e-05
0.00231367
7.09453e-05
0.00228229
0.000142909
0.00228184
-1.63037e-05
0.0019095
0.00218102
-0.00627354
0.00303602
0.00464074
0.00175449
-0.00482782
0.00371321
0.00450205
0.00287274
0.0037151
0.00252192
0.00150957
0.00239259
0.000548461
0.0023477
0.000212712
0.00235308
-7.82879e-06
0.00238451
-0.000118651
0.00242875
-0.000170306
0.00247931
-0.000195044
0.00253198
-0.000196293
0.00258189
-0.000187205
0.00263007
-0.000176812
0.00267137
-0.00015963
0.00271165
-0.000160835
0.0027463
-0.000141312
0.00277856
-0.00013101
0.00280751
-0.000119954
0.00283303
-0.000101874
0.00285672
-9.88175e-05
0.00287634
-7.68952e-05
0.00289425
-7.07804e-05
0.00290887
-5.37412e-05
0.00292124
-4.49757e-05
0.0029316
-3.49242e-05
0.00293955
-2.44883e-05
0.0029465
-2.05185e-05
0.00295126
-9.63911e-06
0.00295514
-6.45154e-06
0.00295757
6.58421e-07
0.0029591
4.27507e-06
0.00295979
1.04448e-05
0.0029597
9.17294e-06
0.00295908
1.60518e-05
0.00295778
1.4564e-05
0.00295621
2.01507e-05
0.00295402
1.88184e-05
0.00295166
2.34277e-05
0.00294876
2.21492e-05
0.0029458
2.64809e-05
0.00294203
2.68633e-05
0.00294511
-2.249e-05
0.00295275
-4.89126e-05
0.00295735
-1.63063e-05
0.00295969
-6.50453e-06
0.00296127
-1.31312e-06
0.00296261
-2.51421e-06
0.00296394
-8.29074e-07
0.00296525
-2.58158e-06
0.00296663
-1.27918e-06
0.00296805
-3.33421e-06
0.00296959
-2.48019e-06
0.0029712
-4.65754e-06
0.00297291
-3.60537e-06
0.00297468
-5.67654e-06
0.00297657
-4.81892e-06
0.00297851
-6.39128e-06
0.00298063
-6.38103e-06
0.0029828
-7.43086e-06
0.00298517
-7.86583e-06
0.00298757
-8.43909e-06
0.00298964
-6.76529e-06
0.00299092
-3.52301e-06
0.00299184
-2.20045e-06
0.00299218
4.31313e-07
0.00299217
1.04203e-06
0.00299149
4.71647e-06
0.00299022
6.52591e-06
0.00298827
1.10194e-05
0.0029849
1.5113e-05
0.00298092
1.96655e-05
0.00297538
2.40822e-05
0.00296782
3.69336e-05
0.00295868
3.82168e-05
0.00294711
5.52492e-05
0.00293218
6.27369e-05
0.00291234
9.42066e-05
0.00288967
9.33983e-05
0.00285097
0.000181845
0.00285017
-1.60228e-05
0.00242706
0.00260464
-0.00756226
0.00371583
0.00566265
0.00191327
-0.00582187
0.00457688
0.00558788
0.00354978
0.00474223
0.00311514
0.00194421
0.00295081
0.000712787
0.00289356
0.000269962
0.00289909
-1.33551e-05
0.00293733
-0.000156894
0.00299194
-0.000224919
0.00305476
-0.000257863
0.0031207
-0.000262207
0.00318361
-0.000250135
0.00324476
-0.000237935
0.00329763
-0.000212526
0.00334888
-0.000212056
0.00339311
-0.000185572
0.00343406
-0.000171927
0.00347087
-0.000156789
0.00350331
-0.000134286
0.00353344
-0.000128966
0.0035586
-0.000102061
0.00358155
-9.37267e-05
0.00360056
-7.27434e-05
0.00361673
-6.11512e-05
0.00363046
-4.86509e-05
0.00364119
-3.52207e-05
0.00365066
-2.99872e-05
0.00365747
-1.64477e-05
0.00366315
-1.21234e-05
0.00366704
-3.2348e-06
0.00366981
1.50438e-06
0.00367154
8.74286e-06
0.00367228
8.41273e-06
0.00367239
1.5972e-05
0.00367166
1.5268e-05
0.0036706
2.12411e-05
0.00366879
2.05939e-05
0.00366679
2.54566e-05
0.00366416
2.4751e-05
0.00366148
2.91793e-05
0.00365788
3.04352e-05
0.00366106
-2.56495e-05
0.00366937
-5.72472e-05
0.00367515
-2.2062e-05
0.00367844
-9.81865e-06
0.0036808
-3.65575e-06
0.00368283
-4.55426e-06
0.00368483
-2.82548e-06
0.0036868
-4.56465e-06
0.00368883
-3.30378e-06
0.00369092
-5.42418e-06
0.00369313
-4.68492e-06
0.00369542
-6.96388e-06
0.00369782
-6.00024e-06
0.00370029
-8.15055e-06
0.0037029
-7.42403e-06
0.00370556
-9.06101e-06
0.00370843
-9.24633e-06
0.00371134
-1.03498e-05
0.0037145
-1.1028e-05
0.00371769
-1.16274e-05
0.00372047
-9.5516e-06
0.00372228
-5.33171e-06
0.00372361
-3.52953e-06
0.00372423
-1.91639e-07
0.00372438
8.89328e-07
0.00372371
5.38206e-06
0.00372229
7.94118e-06
0.00372004
1.32729e-05
0.00371605
1.91e-05
0.00371121
2.45162e-05
0.00370452
3.07522e-05
0.00369532
4.61552e-05
0.00368411
4.93988e-05
0.00366991
6.94886e-05
0.00365161
8.09685e-05
0.00362724
0.000118622
0.00359935
0.000121184
0.00355177
0.000229524
0.00355025
-1.47576e-05
0.00307118
0.00308395
-0.00902952
0.0045385
0.00689287
0.00202853
-0.00700837
0.00563147
0.00684932
0.00438336
0.00599033
0.00384715
0.00248041
0.00363822
0.000921714
0.00356458
0.000343617
0.00356938
-1.81535e-05
0.00361527
-0.000202775
0.00368204
-0.000291684
0.00375947
-0.000335292
0.00384135
-0.00034405
0.00391999
-0.000328793
0.00399694
-0.000314858
0.00406405
-0.000279677
0.00412893
-0.000276901
0.00418513
-0.000241808
0.00423695
-0.000223706
0.0042836
-0.000203477
0.00432472
-0.000175364
0.0043629
-0.000167185
0.00439503
-0.0001342
0.00442433
-0.000123023
0.00444887
-9.72836e-05
0.00446987
-8.21581e-05
0.00448789
-6.66616e-05
0.0045022
-4.953e-05
0.0045149
-4.26919e-05
0.00452437
-2.5913e-05
0.00453239
-2.01465e-05
0.00453824
-9.0765e-06
0.00454267
-2.92903e-06
0.0045458
5.64498e-06
0.00454771
6.47728e-06
0.00454883
1.48877e-05
0.00454892
1.51409e-05
0.00454861
2.15852e-05
0.00454741
2.17475e-05
0.00454597
2.69319e-05
0.00454381
2.68789e-05
0.0045416
3.14267e-05
0.00453836
3.36383e-05
0.00454174
-2.8997e-05
0.0045508
-6.6334e-05
0.00455794
-2.91788e-05
0.00456246
-1.4359e-05
0.00456583
-7.00012e-06
0.00456876
-7.50491e-06
0.00457164
-5.68778e-06
0.00457447
-7.40615e-06
0.00457736
-6.17728e-06
0.0045803
-8.37187e-06
0.00458338
-7.75356e-06
0.00458655
-1.01457e-05
0.00458984
-9.28448e-06
0.0045932
-1.15195e-05
0.00459673
-1.09443e-05
0.0046003
-1.26464e-05
0.00460413
-1.30628e-05
0.00460799
-1.42176e-05
0.00461215
-1.51869e-05
0.00461633
-1.58105e-05
0.00462001
-1.32358e-05
0.00462248
-7.80287e-06
0.00462435
-5.39409e-06
0.00462533
-1.16866e-06
0.00462571
5.03726e-07
0.00462509
6.00475e-06
0.00462349
9.52866e-06
0.00462089
1.58866e-05
0.00461616
2.37967e-05
0.00461031
3.03787e-05
0.00460222
3.87826e-05
0.00459104
5.73538e-05
0.00457731
6.3085e-05
0.0045599
8.69686e-05
0.00453752
0.000103259
0.00450765
0.000148583
0.00447341
0.000155282
0.00441509
0.000288009
0.00441222
-1.22468e-05
0.00387363
0.00362289
-0.0106896
0.00553378
0.00837426
0.00207874
-0.00842487
0.00691947
0.00830418
0.00541049
0.00749934
0.00475178
0.00313912
0.00448604
0.00118744
0.00439055
0.000439117
0.00439321
-2.08101e-05
0.00444746
-0.000257028
0.00452835
-0.000372581
0.00462309
-0.000430032
0.00472405
-0.000444997
0.00482161
-0.000426366
0.00491773
-0.000410965
0.00500226
-0.00036422
0.00508398
-0.000358602
0.00515503
-0.000312875
0.0052204
-0.000289053
0.00527931
-0.000262404
0.00533126
-0.000227298
0.0053795
-0.000215434
0.00542036
-0.000175053
0.00545761
-0.00016028
0.00548911
-0.000128782
0.00551622
-0.000109261
0.00553966
-9.01009e-05
0.00555854
-6.8408e-05
0.00557538
-5.95366e-05
0.00558829
-3.88195e-05
0.00559935
-3.12044e-05
0.00560775
-1.74686e-05
0.00561437
-9.555e-06
0.00561939
6.44273e-07
0.00562287
2.98608e-06
0.00562538
1.23884e-05
0.00562663
1.38758e-05
0.00562739
2.08476e-05
0.00562708
2.20412e-05
0.00562649
2.75347e-05
0.00562505
2.82999e-05
0.00562357
3.29189e-05
0.00562096
3.6232e-05
0.00562469
-3.27129e-05
0.00563458
-7.62404e-05
0.00564329
-3.78853e-05
0.00564935
-2.04193e-05
0.00565401
-1.16618e-05
0.00565812
-1.16215e-05
0.00566214
-9.70141e-06
0.00566607
-1.13468e-05
0.00567007
-1.01738e-05
0.00567411
-1.24091e-05
0.00567831
-1.19572e-05
0.0056826
-1.44421e-05
0.00568704
-1.37219e-05
0.00569153
-1.60123e-05
0.00569623
-1.56424e-05
0.00570096
-1.73802e-05
0.00570598
-1.80915e-05
0.00571104
-1.92771e-05
0.00571645
-2.06012e-05
0.00572188
-2.12375e-05
0.0057267
-1.80587e-05
0.00573002
-1.11349e-05
0.00573259
-7.95576e-06
0.00573404
-2.62957e-06
0.00573473
-1.80715e-07
0.00573419
6.54584e-06
0.0057324
1.13096e-05
0.0057294
1.88872e-05
0.00572379
2.94112e-05
0.00571671
3.74654e-05
0.00570694
4.85522e-05
0.00569336
7.0938e-05
0.00567658
7.98517e-05
0.00565529
0.00010828
0.00562794
0.000130571
0.00559141
0.000185127
0.00554946
0.000197173
0.00547821
0.000359304
0.00547294
-7.11541e-06
0.00487311
0.00422285
-0.0125529
0.00673643
0.0101588
0.00203556
-0.0101159
0.00849302
0.00997006
0.00667683
0.00931553
0.00587125
0.00394471
0.00553326
0.00152542
0.00540865
0.000563747
0.00540692
-1.90773e-05
0.00547004
-0.000320138
0.00556714
-0.000469677
0.00568221
-0.000545099
0.00580586
-0.000568624
0.0059261
-0.000546614
0.00604536
-0.000530205
0.00615107
-0.000469963
0.00625344
-0.000460948
0.00634284
-0.000402293
0.006425
-0.000371189
0.00649914
-0.000336568
0.00656457
-0.000292706
0.00662532
-0.000276205
0.00667705
-0.000226793
0.00672426
-0.000207485
0.00676448
-0.000169
0.00679926
-0.000144042
0.00682954
-0.000120383
0.00685421
-9.30794e-05
0.00687632
-8.1645e-05
0.00689363
-5.61184e-05
0.00690861
-4.61908e-05
0.00692031
-2.91714e-05
0.00692982
-1.90631e-05
0.00693732
-6.82656e-06
0.00694291
-2.63069e-06
0.0069473
8.02338e-06
0.00695014
1.10088e-05
0.00695237
1.86409e-05
0.00695333
2.1054e-05
0.00695394
2.69459e-05
0.00695357
2.8648e-05
0.00695315
3.33608e-05
0.00695151
3.7853e-05
0.00695582
-3.69933e-05
0.00696664
-8.70825e-05
0.00697716
-4.83849e-05
0.00698509
-2.83661e-05
0.00699142
-1.79822e-05
0.00699705
-1.72594e-05
0.00700253
-1.51635e-05
0.00700788
-1.67083e-05
0.0070133
-1.55836e-05
0.00701874
-1.78528e-05
0.00702437
-1.75832e-05
0.00703008
-2.01608e-05
0.00703598
-1.96099e-05
0.0070419
-2.19444e-05
0.00704808
-2.18144e-05
0.00705427
-2.3575e-05
0.00706082
-2.46364e-05
0.00706737
-2.58361e-05
0.00707435
-2.75875e-05
0.00708134
-2.82234e-05
0.00708758
-2.43054e-05
0.007092
-1.55483e-05
0.00709545
-1.14061e-05
0.00709753
-4.69828e-06
0.00709862
-1.28248e-06
0.00709821
6.96047e-06
0.00709622
1.32867e-05
0.00709276
2.23672e-05
0.0070861
3.60331e-05
0.00707756
4.60082e-05
0.00706575
6.03175e-05
0.00704929
8.74009e-05
0.00702882
0.000100299
0.00700281
0.000134349
0.00696946
0.000163856
0.00692487
0.000229779
0.00687358
0.00024836
0.00678683
0.000446172
0.00677749
1.97837e-06
0.00611691
0.00488367
-0.014623
0.00818705
0.0123098
0.00185957
-0.0121342
0.0104163
0.0118637
0.00823885
0.011493
0.00725829
0.00492528
0.00682874
0.00195495
0.00666531
0.000727187
0.00665586
-9.62732e-06
0.00672795
-0.000392227
0.00684338
-0.000585122
0.00698215
-0.000683864
0.00713264
-0.000719113
0.00727987
-0.000693847
0.00742693
-0.000677254
0.00755824
-0.000601276
0.00768579
-0.000588501
0.00779768
-0.000514181
0.00790055
-0.00047405
0.0079935
-0.00042952
0.00807563
-0.000374827
0.00815187
-0.000352454
0.00821713
-0.000292042
0.00827671
-0.000267068
0.00832781
-0.000220091
0.00837219
-0.000188427
0.00841107
-0.000159253
0.00844306
-0.00012507
0.00847182
-0.000110412
0.00849473
-7.90247e-05
0.00851472
-6.61796e-05
0.00853069
-4.5134e-05
0.00854393
-3.23006e-05
0.00855466
-1.75579e-05
0.00856304
-1.10131e-05
0.00856993
1.14503e-06
0.00857491
6.01666e-06
0.00857914
1.44258e-05
0.00858183
1.83559e-05
0.00858412
2.46583e-05
0.00858525
2.75072e-05
0.00858635
3.2271e-05
0.00858612
3.80659e-05
0.00859133
-4.21942e-05
0.00860323
-9.89936e-05
0.00861578
-6.09293e-05
0.008626
-3.85912e-05
0.00863444
-2.642e-05
0.008642
-2.48225e-05
0.00864934
-2.25029e-05
0.0086565
-2.38759e-05
0.00866373
-2.28136e-05
0.00867095
-2.50767e-05
0.00867841
-2.50359e-05
0.00868592
-2.76794e-05
0.00869365
-2.73442e-05
0.00870139
-2.96785e-05
0.00870943
-2.98594e-05
0.00871745
-3.15958e-05
0.0087259
-3.30914e-05
0.00873433
-3.42707e-05
0.00874328
-3.65328e-05
0.0087522
-3.71487e-05
0.00876023
-3.23437e-05
0.00876603
-2.13484e-05
0.00877062
-1.59994e-05
0.0087735
-7.57554e-06
0.00877514
-2.92051e-06
0.00877492
7.17586e-06
0.00877273
1.54725e-05
0.00876873
2.63662e-05
0.00876084
4.39246e-05
0.00875056
5.63024e-05
0.00873629
7.45829e-05
0.00871636
0.00010734
0.00869144
0.000125216
0.00865973
0.000166061
0.00861911
0.000204456
0.0085648
0.000284085
0.00850222
0.000310913
0.00839699
0.000551416
0.008381