/*--------------------------------*- C++ -*----------------------------------*\
| =========                 |                                                 |
| \\      /  F ield         | OpenFOAM: The Open Source CFD Toolbox           |
|  \\    /   O peration     | Version:  5.x                                   |
|   \\  /    A nd           | Web:      www.OpenFOAM.org                      |
|    \\/     M anipulation  |                                                 |
\*---------------------------------------------------------------------------*/
FoamFile
{
    version     2.0;
    format      ascii;
    class       surfaceScalarField;
    location    "250";
    object      phi;
}
// * * * * * * * * * * * * * * * * * * * * * * * * * * * * * * * * * * * * * //

dimensions      [0 3 -1 0 0 0 0];

internalField   nonuniform List<scalar> 
21876
(
0.00600446
-0.00653852
0.000532493
0.0136093
-0.00760484
0.0180048
-0.00439551
0.0220403
-0.00403549
0.0246383
-0.00259797
0.0262025
-0.0015642
0.027038
-0.000835498
0.0272933
-0.000255221
0.0269589
0.00033432
0.0259093
0.00104965
0.0240302
0.00187908
0.0224742
0.00155601
0.0216703
0.000803973
0.0212856
0.00038467
0.0207784
0.000507187
0.0202779
0.000500562
0.0197556
0.000522305
0.0192255
0.000530054
0.0187043
0.000521206
0.0181991
0.000505194
0.0177111
0.000487989
0.0173443
0.000366829
0.0169924
0.000351899
0.0166541
0.000338321
0.0163258
0.000328317
0.016006
0.000319756
0.0156896
0.000316438
0.0153723
0.00031731
0.0150492
0.000323077
0.0147146
0.000334637
0.0143611
0.000353485
0.0139795
0.000381624
0.0135584
0.00042103
0.0130822
0.000476224
0.0125247
0.000557533
0.0118602
0.0006645
0.0110447
0.000815517
0.00999423
0.00105046
0.00859731
0.00139692
0.00662799
0.00196932
0.00133343
0.00529455
0.00771351
-0.0133663
-0.00088587
0.0148182
-0.0147096
0.0200967
-0.00967398
0.0246073
-0.00854609
0.0278722
-0.00586292
0.0300896
-0.00378157
0.0314918
-0.00223769
0.0322813
-0.00104473
0.0326601
-4.45218e-05
0.0326677
0.00104209
0.0319774
0.00256938
0.0310128
0.00252062
0.0301303
0.00168648
0.0293785
0.00113655
0.0285691
0.00131659
0.0278293
0.00124033
0.0271331
0.00121847
0.0264564
0.00120682
0.0257922
0.00118535
0.0251403
0.00115712
0.0244945
0.00113381
0.0240018
0.000859523
0.0235369
0.000816839
0.023094
0.000781204
0.0226673
0.000755064
0.022254
0.000733058
0.0218492
0.000721242
0.0214485
0.000718012
0.0210468
0.000724758
0.0206382
0.00074327
0.0202153
0.000776343
0.0197691
0.00082786
0.0192884
0.000901733
0.0187582
0.00100648
0.0181534
0.00116224
0.0174493
0.00136865
0.0166082
0.00165664
0.0155374
0.00212123
0.0141717
0.00276267
0.0120413
0.00409969
0.00417453
0.00920019
0.00972161
-0.0206281
-0.00245971
0.0169065
-0.0218944
0.0229847
-0.0157522
0.0282052
-0.0137666
0.0322923
-0.00995004
0.0352806
-0.00676985
0.0373268
-0.00428388
0.0385833
-0.00230116
0.0391644
-0.000625629
0.0391872
0.00101925
0.0386057
0.00315089
0.0378311
0.00329528
0.0371638
0.00235379
0.0365779
0.00172246
0.0358699
0.00202457
0.0351525
0.00195773
0.0344462
0.00192475
0.0337423
0.00191071
0.0330398
0.00188791
0.0323404
0.00185653
0.03164
0.00183417
0.0310965
0.00140307
0.0305759
0.00133744
0.0300748
0.00128229
0.0295879
0.00124192
0.0291125
0.00120855
0.0286433
0.00119042
0.0281757
0.00118559
0.0277041
0.00119633
0.0272217
0.00122567
0.0267201
0.00127795
0.026189
0.00135902
0.0256158
0.0014749
0.0249835
0.0016388
0.0242647
0.001881
0.0234342
0.00219918
0.0224552
0.00263566
0.0212362
0.00334021
0.0197421
0.00425671
0.0175929
0.00624897
0.00711938
0.014648
0.0121208
-0.0284625
-0.00428634
0.0196233
-0.029397
0.0263322
-0.0224611
0.0322452
-0.0196796
0.0370867
-0.0147915
0.040816
-0.0104992
0.0435129
-0.00698078
0.0453014
-0.00408963
0.0462891
-0.00161331
0.0465872
0.000721124
0.04617
0.00356809
0.0454189
0.00404642
0.0447614
0.00301123
0.044243
0.00224091
0.043641
0.00262655
0.0429875
0.00261122
0.0423228
0.00258943
0.0416468
0.00258672
0.0409622
0.00257259
0.0402746
0.00254414
0.039582
0.0025267
0.039039
0.00194617
0.0385124
0.001864
0.0379986
0.00179611
0.0374928
0.00174773
0.0369928
0.0017085
0.0364945
0.00168874
0.035993
0.00168712
0.0354822
0.0017071
0.0349548
0.00175314
0.0344016
0.00183115
0.0338115
0.00194915
0.0331708
0.0021156
0.0324605
0.00234911
0.0316506
0.00269087
0.0307145
0.00313524
0.0296133
0.00373686
0.0282551
0.00469849
0.0266039
0.00590784
0.0243969
0.00845598
0.0100323
0.021484
0.0149017
-0.0370256
-0.00633854
0.0228985
-0.0373937
0.0302421
-0.0298046
0.0369033
-0.0263407
0.0425732
-0.0204615
0.0471605
-0.0150865
0.0506614
-0.0104816
0.053146
-0.00657431
0.0546911
-0.00315834
0.0554089
3.29824e-06
0.0553052
0.00367179
0.0546777
0.00467389
0.0540056
0.00368333
0.0534457
0.00280088
0.0528345
0.00323775
0.0521602
0.00328553
0.0514741
0.00327549
0.0507818
0.00327903
0.0500827
0.00327165
0.0493834
0.00324344
0.0486844
0.00322576
0.0481387
0.00249182
0.047613
0.00238969
0.0471022
0.00230695
0.0466001
0.00224979
0.0461028
0.00220583
0.0456044
0.00218716
0.0450986
0.00219286
0.0445788
0.00222693
0.044037
0.00229492
0.0434638
0.00240441
0.042847
0.00256589
0.042172
0.00279058
0.0414184
0.00310278
0.0405543
0.0035549
0.0395533
0.00413631
0.0383754
0.00491471
0.0369337
0.00614016
0.0351841
0.00765751
0.0329789
0.0106612
0.0128863
0.0301248
0.0180868
-0.0464998
-0.00861256
0.0267821
-0.046089
0.0348494
-0.0378719
0.0423032
-0.0337945
0.0488364
-0.0269947
0.0543358
-0.0205859
0.0587382
-0.0148839
0.0620524
-0.00988855
0.0643119
-0.00541778
0.0656303
-0.0013151
0.0660348
0.00326723
0.0657176
0.00499118
0.0651366
0.00426426
0.0645594
0.0033781
0.0639269
0.00387029
0.0632098
0.00400258
0.0624654
0.00401995
0.0617146
0.0040298
0.0609586
0.00402764
0.0602048
0.00399727
0.0594572
0.00397342
0.0588763
0.00307271
0.0583225
0.00294348
0.0577905
0.00283893
0.0572737
0.00276656
0.056767
0.0027126
0.0562636
0.00269049
0.0557562
0.00270029
0.0552365
0.00274669
0.0546948
0.00283663
0.0541198
0.0029794
0.0534981
0.00318756
0.0528141
0.00347464
0.0520466
0.00387029
0.0511636
0.00443786
0.0501404
0.00515952
0.0489391
0.00611604
0.0474848
0.00759439
0.0457306
0.00941173
0.0436475
0.0127443
0.0155763
0.0409575
0.0217163
-0.0571208
-0.0110952
0.0313584
-0.0557311
0.0403062
-0.0468197
0.048632
-0.0421203
0.0560724
-0.034435
0.0625242
-0.0270377
0.0679
-0.0202597
0.0721606
-0.0141491
0.0752868
-0.00854399
0.0773791
-0.00340733
0.0784733
0.00217298
0.0786699
0.0047946
0.0783552
0.00457901
0.0778693
0.00386397
0.0772739
0.00446566
0.0765507
0.00472578
0.0757582
0.00481243
0.0749404
0.00484764
0.0741092
0.00485881
0.0732757
0.00483079
0.0724492
0.00479996
0.0718046
0.00371732
0.0711926
0.00355541
0.0706086
0.00342297
0.0700462
0.003329
0.0694999
0.0032589
0.0689632
0.00322712
0.0684284
0.00323509
0.0678866
0.00328855
0.0673273
0.00339587
0.0667386
0.00356808
0.0661064
0.00381983
0.065414
0.00416698
0.0646399
0.00464439
0.0637524
0.00532538
0.0627309
0.00618106
0.0615427
0.00730424
0.0601333
0.00900372
0.0584603
0.0110848
0.0566143
0.0145903
0.0179465
0.0542442
0.025848
-0.0691883
-0.0137804
0.0367326
-0.0666157
0.0467827
-0.0568699
0.0561159
-0.0514534
0.064538
-0.0428571
0.0719843
-0.034484
0.0783803
-0.0266558
0.0836684
-0.0194371
0.0877873
-0.012663
0.0908156
-0.00643554
0.0927838
0.000204729
0.0937155
0.00386295
0.0938897
0.00440477
0.0936659
0.00408773
0.0932181
0.00491351
0.0925715
0.00537242
0.0917885
0.00559536
0.0909359
0.0057003
0.0900448
0.00574985
0.0891344
0.00574123
0.0882216
0.00571278
0.0874995
0.00443941
0.0868119
0.00424299
0.0861557
0.00407915
0.0855256
0.00395915
0.084916
0.00386848
0.0843206
0.00382258
0.0837313
0.00382433
0.0831392
0.00388065
0.0825339
0.00400118
0.0819034
0.00419856
0.0812339
0.00448938
0.0805094
0.00489146
0.0797095
0.00544437
0.0788043
0.0062305
0.07778
0.00720537
0.0766111
0.0084732
0.0752675
0.0103473
0.0737187
0.0126335
0.0721549
0.0161542
0.0198765
0.0702248
0.0305533
-0.0830781
-0.0166635
0.0430332
-0.0790955
0.0544739
-0.0683106
0.0650187
-0.0619983
0.0745496
-0.0523879
0.0830584
-0.0429928
0.0905149
-0.0341122
0.0968784
-0.0258006
0.102073
-0.0178573
0.106159
-0.0105223
0.109166
-0.00280161
0.111044
0.00198467
0.111957
0.00349159
0.112227
0.00381758
0.112101
0.00503958
0.111667
0.00580679
0.111002
0.00626023
0.110193
0.00650942
0.109296
0.00664652
0.108346
0.00669176
0.107369
0.00668932
0.106576
0.00523242
0.105813
0.00500621
0.10508
0.00481221
0.104374
0.00466524
0.10369
0.00455213
0.103023
0.00448972
0.102365
0.00448262
0.101706
0.0045392
0.101037
0.0046705
0.100345
0.00489062
0.0996166
0.00521762
0.0988375
0.00567049
0.0979892
0.00629267
0.0970454
0.00717436
0.096001
0.00824971
0.0948404
0.00963381
0.0935562
0.0116316
0.0921374
0.0140522
0.0908213
0.0174703
0.0213432
0.0893546
0.0359213
-0.0992519
-0.0197475
0.0504185
-0.0935927
0.0636083
-0.0815003
0.075644
-0.074034
0.0864805
-0.0632243
0.096173
-0.0526854
0.104754
-0.0426928
0.112229
-0.033276
0.118542
-0.0241703
0.123758
-0.0157377
0.127912
-0.0069558
0.130903
-0.0010068
0.13279
0.00160438
0.13382
0.00278786
0.134252
0.00460769
0.134226
0.00583257
0.133846
0.00664014
0.133216
0.00713968
0.132419
0.00744386
0.13151
0.00760099
0.130532
0.00766732
0.129702
0.0060623
0.128887
0.00582115
0.128093
0.00560594
0.127321
0.00543677
0.12657
0.00530352
0.125834
0.00522536
0.125108
0.0052091
0.124382
0.00526503
0.123647
0.00540576
0.122891
0.00564678
0.122101
0.00600727
0.121265
0.00650672
0.120366
0.00719175
0.119381
0.00815907
0.118316
0.00931526
0.117165
0.0107848
0.115937
0.012859
0.11465
0.0153393
0.113529
0.0185912
0.0224053
0.112467
0.0420641
-0.11827
-0.023046
0.0590843
-0.110613
0.0744606
-0.0968767
0.0883482
-0.0879216
0.100768
-0.0756445
0.111839
-0.0637562
0.121662
-0.0525153
0.130309
-0.0419229
0.137772
-0.0316332
0.144144
-0.0221105
0.149488
-0.0122991
0.153689
-0.0052083
0.156724
-0.00143052
0.158757
0.000754589
0.16001
0.00335474
0.160638
0.00520472
0.160767
0.00651173
0.160513
0.00739337
0.159982
0.00797491
0.159253
0.00833027
0.158388
0.00853215
0.157592
0.00685759
0.156783
0.00663105
0.155973
0.00641511
0.155173
0.00623736
0.154383
0.00609289
0.153604
0.00600464
0.152831
0.00598244
0.152057
0.00603902
0.151274
0.00618897
0.150471
0.00644913
0.149639
0.00683945
0.148767
0.00737926
0.147841
0.0081177
0.146843
0.0091569
0.145787
0.0103711
0.144679
0.0118925
0.143537
0.0140012
0.142405
0.0164715
0.141467
0.0195292
0.0231386
0.140734
0.0491234
-0.140809
-0.0265846
0.0692736
-0.130763
0.0873671
-0.11497
0.103558
-0.104112
0.117929
-0.0900161
0.130659
-0.0764862
0.141919
-0.0637748
0.151854
-0.0518578
0.160524
-0.0403038
0.168074
-0.0296602
0.174609
-0.0188338
0.180042
-0.010642
0.184312
-0.00570031
0.187519
-0.0024519
0.189822
0.00105181
0.191355
0.00367117
0.192246
0.00562092
0.192615
0.00702475
0.192576
0.00801361
0.192228
0.00867865
0.191652
0.00910771
0.19101
0.00749979
0.190304
0.00733653
0.189563
0.00715595
0.188805
0.00699575
0.188039
0.00685865
0.187271
0.00677321
0.1865
0.00675351
0.185723
0.00681552
0.184936
0.00697624
0.184131
0.00725399
0.183301
0.0076692
0.18244
0.00824031
0.181539
0.00901848
0.180586
0.0101104
0.179602
0.0113545
0.178605
0.0128899
0.177613
0.014993
0.17669
0.0173948
0.175975
0.020244
0.0235793
0.175534
0.0572781
-0.167684
-0.0304026
0.0812894
-0.154774
0.102742
-0.136422
0.12179
-0.12316
0.138578
-0.106805
0.153344
-0.0912517
0.166326
-0.0767572
0.177747
-0.0632782
0.187744
-0.0503008
0.196523
-0.0384397
0.204252
-0.0265626
0.2109
-0.01729
0.216415
-0.0112152
0.220869
-0.00690645
0.22437
-0.00244872
0.227011
0.00102975
0.228902
0.00373036
0.230149
0.00577746
0.230863
0.00729964
0.231147
0.00839489
0.231095
0.00915941
0.230775
0.00782017
0.230321
0.00778986
0.229779
0.00769886
0.229177
0.00759752
0.228537
0.0074988
0.227871
0.00743881
0.227187
0.00743733
0.226488
0.00751457
0.225774
0.00769056
0.225042
0.00798534
0.224292
0.00841967
0.223522
0.00901063
0.222729
0.0098111
0.221907
0.010932
0.221088
0.0121741
0.220294
0.013684
0.219545
0.015742
0.21891
0.0180295
0.218496
0.0206584
0.0237044
0.218371
0.0667537
-0.199883
-0.0345549
0.0955088
-0.183529
0.121096
-0.16201
0.143677
-0.145741
0.163459
-0.126587
0.180741
-0.108533
0.195831
-0.091848
0.209029
-0.076476
0.220556
-0.0618276
0.230687
-0.0485703
0.239657
-0.0355328
0.247512
-0.0251452
0.254247
-0.0179499
0.259946
-0.012606
0.264697
-0.00719946
0.268561
-0.00283433
0.271621
0.000670518
0.273964
0.00343483
0.27568
0.00558348
0.276863
0.00721199
0.277606
0.00841658
0.277817
0.00760832
0.27781
0.00779758
0.277642
0.00786702
0.277358
0.00788128
0.276991
0.00786536
0.276565
0.00786458
0.276097
0.00790584
0.275597
0.00801462
0.275073
0.0082147
0.27453
0.00852826
0.273973
0.00897654
0.273408
0.00957519
0.272841
0.0103789
0.272269
0.0115032
0.271733
0.012711
0.271259
0.0141581
0.270865
0.0161356
0.270619
0.0182756
0.270602
0.0206753
0.0234408
0.270866
0.0778334
-0.238602
-0.0391147
0.112402
-0.218098
0.143067
-0.192675
0.170001
-0.172676
0.193482
-0.150068
0.213876
-0.128927
0.23157
-0.109542
0.246942
-0.0918474
0.2603
-0.0751863
0.271994
-0.0602637
0.282332
-0.0458705
0.291444
-0.0342575
0.299395
-0.0259009
0.306312
-0.0195234
0.312299
-0.0131858
0.317413
-0.00794816
0.321721
-0.00363784
0.325292
-0.000136528
0.328198
0.00267738
0.330513
0.00489762
0.332314
0.00661532
0.333284
0.00663846
0.333942
0.00713907
0.334361
0.00744831
0.334597
0.00764494
0.334696
0.00776657
0.334692
0.00786838
0.334613
0.00798522
0.334479
0.00814865
0.334307
0.00838691
0.33411
0.00872481
0.333902
0.00918447
0.333697
0.0097805
0.333506
0.0105701
0.333335
0.0116738
0.333227
0.0128189
0.333212
0.0141728
0.333306
0.0160419
0.333569
0.0180131
0.334064
0.0201805
0.0226811
0.334823
0.0908684
-0.285296
-0.0441739
0.13255
-0.259779
0.169438
-0.229562
0.201725
-0.204963
0.229767
-0.17811
0.254009
-0.153169
0.274925
-0.130458
0.292981
-0.109903
0.308581
-0.0907864
0.322152
-0.0738348
0.334081
-0.0577996
0.344588
-0.0447643
0.353818
-0.0351312
0.36196
-0.0276652
0.36916
-0.0203858
0.375503
-0.0142914
0.381066
-0.0092011
0.385915
-0.00498508
0.39011
-0.00151786
0.393711
0.00129682
0.396778
0.003548
0.398708
0.0047085
0.400247
0.00560063
0.401472
0.00622326
0.402449
0.00666763
0.403232
0.00698304
0.403867
0.00723398
0.404389
0.00746323
0.404829
0.00770865
0.405212
0.00800326
0.405562
0.00837494
0.4059
0.00884726
0.406246
0.00943452
0.406618
0.0101971
0.40703
0.011262
0.407525
0.0123239
0.408135
0.0135636
0.40887
0.015306
0.409785
0.0170982
0.410929
0.0190366
0.0212894
0.412321
0.106285
-0.341739
-0.0498415
0.156664
-0.310159
0.201173
-0.274071
0.240033
-0.243824
0.27369
-0.211767
0.302683
-0.182162
0.327586
-0.155361
0.348967
-0.131285
0.367339
-0.109158
0.383215
-0.0897116
0.397069
-0.0716534
0.409213
-0.0569082
0.419881
-0.0457991
0.429331
-0.0371155
0.437772
-0.0288265
0.445338
-0.0218571
0.452139
-0.0160023
0.458261
-0.0111073
0.463772
-0.00702907
0.468731
-0.00366148
0.473188
-0.00090967
0.476223
0.00167402
0.478811
0.00301242
0.481032
0.00400219
0.482955
0.00474469
0.484639
0.00529922
0.486135
0.00573842
0.487486
0.00611222
0.48873
0.00646442
0.4899
0.00683277
0.491027
0.00724845
0.492137
0.00773698
0.493258
0.00831317
0.494414
0.00904141
0.495621
0.0100556
0.496922
0.0110227
0.498347
0.012138
0.499908
0.0137452
0.501649
0.0153576
0.503608
0.017077
0.0191
0.505798
0.113029
-0.403651
-0.051118
0.168295
-0.365425
0.217062
-0.322838
0.259566
-0.286328
0.296307
-0.248508
0.327876
-0.213731
0.354903
-0.182388
0.378013
-0.154394
0.397781
-0.128925
0.414766
-0.106697
0.429484
-0.0863719
0.442309
-0.0697333
0.453537
-0.0570264
0.463469
-0.0470479
0.47236
-0.0377174
0.480388
-0.0298851
0.487698
-0.0233126
0.494403
-0.0178121
0.500589
-0.0132148
0.506322
-0.00939504
0.511657
-0.00624463
0.515465
-0.00213343
0.518839
-0.000361775
0.521852
0.000988883
0.524568
0.0020284
0.527043
0.00282431
0.529326
0.00345571
0.53146
0.0039784
0.533483
0.00444116
0.53543
0.00488581
0.537332
0.00534665
0.539218
0.00585128
0.541115
0.00641563
0.543049
0.00710797
0.545036
0.00806869
0.547114
0.00894446
0.549309
0.00994257
0.551631
0.0114236
0.554113
0.012875
0.556786
0.0144047
0.0162311
0.559655
0.118304
-0.470243
-0.0517113
0.177753
-0.424874
0.230166
-0.375251
0.275796
-0.331957
0.315186
-0.287897
0.348971
-0.247517
0.377829
-0.211245
0.40243
-0.178995
0.4234
-0.149895
0.441337
-0.124634
0.456791
-0.101826
0.470182
-0.0831243
0.481853
-0.0686973
0.49214
-0.057335
0.501333
-0.0469101
0.509646
-0.0381985
0.517258
-0.0309242
0.524308
-0.0248618
0.530905
-0.019812
0.537134
-0.0156241
0.54306
-0.0121706
0.547421
-0.0064946
0.55138
-0.00432028
0.555003
-0.00263396
0.558349
-0.00131787
0.56147
-0.000297092
0.564413
0.000513189
0.567217
0.00117397
0.56992
0.00173842
0.572554
0.00225203
0.575148
0.00275199
0.577732
0.00326808
0.580329
0.00381772
0.582965
0.00447264
0.585655
0.00537872
0.58843
0.00616874
0.591314
0.00705947
0.594313
0.00842454
0.597454
0.00973335
0.60076
0.0110987
0.0127552
0.604236
0.124389
-0.54196
-0.0526732
0.188415
-0.488899
0.24483
-0.431666
0.293905
-0.381033
0.336232
-0.330224
0.372491
-0.283777
0.403411
-0.242165
0.429713
-0.205298
0.452076
-0.172258
0.471138
-0.143695
0.487486
-0.118174
0.501584
-0.0972224
0.513817
-0.0809309
0.524554
-0.0680717
0.534116
-0.0564718
0.542751
-0.0468335
0.550666
-0.0388392
0.558028
-0.032224
0.564971
-0.0267547
0.571599
-0.0222524
0.577995
-0.0185666
0.582801
-0.0113011
0.587234
-0.00875296
0.591358
-0.00675766
0.595229
-0.00518937
0.598898
-0.00396572
0.602407
-0.00299617
0.605796
-0.00221462
0.609098
-0.00156364
0.612344
-0.000994133
0.615562
-0.000466024
0.618777
5.27744e-05
0.622014
0.000581435
0.625292
0.00119473
0.628627
0.00204295
0.632046
0.00275016
0.635565
0.00354001
0.639194
0.0047958
0.642953
0.00597485
0.646858
0.00719369
0.00869849
0.650914
0.131274
-0.619268
-0.0539654
0.200294
-0.557919
0.261085
-0.492458
0.31394
-0.433888
0.359498
-0.375781
0.398492
-0.322771
0.431705
-0.275378
0.459913
-0.233506
0.48385
-0.196194
0.504198
-0.164044
0.521587
-0.135564
0.536524
-0.112159
0.549434
-0.0938411
0.560717
-0.0793543
0.570725
-0.0664801
0.579738
-0.0558462
0.587989
-0.0470908
0.595672
-0.0399071
0.602944
-0.0340262
0.60993
-0.0292383
0.616731
-0.0253675
0.621916
-0.0164866
0.62675
-0.0135865
0.631297
-0.011305
0.635615
-0.00950719
0.639752
-0.00810267
0.64375
-0.00699462
0.647647
-0.00611159
0.651475
-0.00539167
0.655263
-0.00478202
0.659036
-0.00423948
0.662819
-0.00372947
0.666631
-0.0032308
0.670492
-0.00266601
0.674416
-0.00188139
0.678424
-0.00125754
0.68253
-0.000566077
0.686743
0.000582851
0.691078
0.00163947
0.695549
0.00272294
0.00408725
0.70016
0.138968
-0.702672
-0.0555639
0.213431
-0.632383
0.279
-0.558026
0.335988
-0.490877
0.385087
-0.42488
0.427089
-0.364772
0.462833
-0.311122
0.493155
-0.263828
0.518847
-0.221887
0.540643
-0.185839
0.559216
-0.154137
0.575118
-0.12806
0.588815
-0.107538
0.600739
-0.0912781
0.611274
-0.0770151
0.620728
-0.0653008
0.629364
-0.0557261
0.637396
-0.04794
0.645006
-0.0416358
0.652339
-0.0365715
0.659516
-0.0325438
0.665043
-0.0220144
0.670232
-0.0187751
0.67515
-0.0162235
0.679857
-0.0142141
0.684402
-0.0126475
0.688828
-0.01142
0.69317
-0.0104539
0.697461
-0.00968263
0.701728
-0.00904907
0.705995
-0.00850673
0.710284
-0.00801824
0.714613
-0.00756013
0.719
-0.00705257
0.723458
-0.00633929
0.728002
-0.0058022
0.732646
-0.00521005
0.737398
-0.00416914
0.74227
-0.00323219
0.747271
-0.00227845
-0.00104899
0.752408
0.147497
-0.792714
-0.0574547
0.227891
-0.712776
0.298668
-0.628803
0.36017
-0.552379
0.413143
-0.477853
0.45844
-0.410069
0.496965
-0.349647
0.529618
-0.296481
0.557255
-0.249524
0.580662
-0.209247
0.600563
-0.174037
0.617555
-0.145053
0.632149
-0.122132
0.644808
-0.103937
0.65595
-0.0881572
0.665913
-0.0752641
0.674985
-0.0647977
0.683405
-0.0563609
0.691377
-0.0496071
0.699065
-0.0442599
0.706608
-0.0400871
0.712461
-0.0278672
0.717979
-0.0242928
0.723235
-0.0214796
0.728292
-0.0192707
0.7332
-0.0175561
0.738005
-0.0162243
0.742742
-0.0151911
0.747443
-0.014384
0.752136
-0.0137416
0.756843
-0.0132136
0.761584
-0.0127594
0.766377
-0.0123531
0.771237
-0.0119125
0.776177
-0.0112795
0.781209
-0.0108347
0.786344
-0.0103453
0.791591
-0.0094162
0.796959
-0.0085996
0.802454
-0.00777394
-0.0066778
0.808083
0.156904
-0.889987
-0.0596308
0.243756
-0.799629
0.32021
-0.705257
0.386636
-0.618805
0.443841
-0.535058
0.492743
-0.45897
0.534317
-0.391222
0.569533
-0.331697
0.599312
-0.279303
0.624502
-0.234436
0.645878
-0.195414
0.664089
-0.163264
0.679689
-0.137731
0.693177
-0.117426
0.705007
-0.099987
0.715547
-0.0858035
0.72511
-0.0743608
0.733961
-0.0652124
0.742324
-0.0579699
0.750385
-0.0523204
0.758298
-0.0480009
0.764471
-0.0340399
0.770304
-0.0301259
0.775877
-0.0270526
0.781256
-0.0246495
0.786496
-0.0227958
0.791642
-0.0213707
0.796733
-0.0202825
0.801802
-0.0194525
0.806875
-0.0188142
0.811974
-0.0183131
0.81712
-0.0179051
0.822328
-0.0175612
0.827613
-0.0171974
0.832988
-0.0166541
0.838461
-0.0163084
0.844043
-0.0159271
0.849742
-0.0151154
0.855565
-0.0144223
0.861517
-0.0137261
-0.0127646
0.867604
0.167238
-0.995135
-0.0620908
0.261125
-0.893516
0.343766
-0.787897
0.415564
-0.690603
0.477389
-0.596883
0.530232
-0.511813
0.575144
-0.436134
0.613169
-0.369722
0.645303
-0.311437
0.672456
-0.261589
0.695464
-0.218422
0.715027
-0.182827
0.731746
-0.15445
0.746161
-0.131841
0.75876
-0.112586
0.769944
-0.0969873
0.780054
-0.084471
0.78938
-0.0745386
0.798167
-0.0667567
0.806621
-0.060774
0.814914
-0.0562947
0.821409
-0.0405341
0.827551
-0.0362681
0.833427
-0.0329289
0.839109
-0.0303313
0.844655
-0.0283418
0.850114
-0.0268297
0.855526
-0.0256948
0.860925
-0.0248516
0.866339
-0.0242277
0.87179
-0.0237638
0.877297
-0.0234123
0.882877
-0.0231409
0.888542
-0.0228632
0.894307
-0.0224187
0.900178
-0.0221792
0.906163
-0.0219121
0.912272
-0.0212244
0.918509
-0.0206596
0.924879
-0.0200961
-0.0192727
0.931387
0.178564
-1.10886
-0.0648376
0.280115
-0.995068
0.3695
-0.877282
0.447156
-0.768259
0.514024
-0.663751
0.571174
-0.568962
0.619737
-0.484698
0.660841
-0.410825
0.695558
-0.346155
0.724869
-0.2909
0.749674
-0.243226
0.77073
-0.203882
0.788687
-0.172407
0.804128
-0.147281
0.81758
-0.126038
0.829477
-0.108885
0.840191
-0.0951846
0.850036
-0.0843837
0.859279
-0.0760005
0.868148
-0.0696425
0.876833
-0.0649792
0.883653
-0.0473545
0.890102
-0.0427168
0.896272
-0.0390993
0.902242
-0.0363008
0.908073
-0.0341736
0.91382
-0.0325762
0.919524
-0.0313989
0.925221
-0.0305485
0.93094
-0.0299464
0.936704
-0.0295281
0.942533
-0.0292415
0.948443
-0.0290508
0.954447
-0.0288675
0.960559
-0.0285302
0.966784
-0.0284041
0.973129
-0.0282576
0.979606
-0.027701
0.986216
-0.0272699
0.992964
-0.0268437
-0.026163
0.999854
0.190954
-1.23194
-0.0678779
0.300859
-1.10497
0.397597
-0.97402
0.481645
-0.852307
0.554019
-0.736126
0.615874
-0.630817
0.668431
-0.537255
0.712904
-0.455298
0.750453
-0.383704
0.782133
-0.322581
0.808913
-0.270006
0.831612
-0.226581
0.850933
-0.191728
0.867504
-0.163853
0.881896
-0.14043
0.894577
-0.121566
0.905951
-0.106558
0.916358
-0.0947914
0.926091
-0.0857331
0.935395
-0.0789468
0.944481
-0.0740647
0.951633
-0.0545066
0.958386
-0.0494701
0.964842
-0.0455555
0.971085
-0.0425437
0.977184
-0.040272
0.983194
-0.0385864
0.989162
-0.037367
0.995125
-0.0365121
1.00112
-0.0359361
1.00716
-0.0355688
1.01327
-0.0353535
1.01947
-0.0352503
1.02577
-0.0351683
1.03218
-0.0349458
1.03872
-0.0349395
1.04538
-0.0349198
1.05218
-0.034501
1.05912
-0.0342096
1.0662
-0.0339258
-0.033393
1.07343
0.204493
-1.36521
-0.0712212
0.323507
-1.22399
0.428267
-1.07878
0.519291
-0.943331
0.597679
-0.814514
0.664675
-0.697813
0.721601
-0.59418
0.769763
-0.503461
0.810414
-0.424355
0.844692
-0.356858
0.87364
-0.298954
0.898143
-0.251084
0.918962
-0.212548
0.936775
-0.181666
0.952197
-0.155851
0.965735
-0.135105
0.977826
-0.118649
0.98884
-0.105805
0.999092
-0.0959851
1.00885
-0.0887055
1.01834
-0.0835584
1.02583
-0.0619945
1.03289
-0.0565249
1.03962
-0.0522879
1.04612
-0.0490449
1.05246
-0.0466164
1.05871
-0.0448351
1.06492
-0.0435699
1.07111
-0.0427096
1.07734
-0.042161
1.08362
-0.0418477
1.08997
-0.0417076
1.09642
-0.0416967
1.10297
-0.0417215
1.10965
-0.0416198
1.11644
-0.041739
1.12338
-0.0418517
1.13045
-0.0415772
1.13767
-0.0414311
1.14504
-0.0412947
-0.0409154
1.15257
0.219275
-1.5096
-0.0748797
0.34823
-1.35294
0.461745
-1.19229
0.560387
-1.04197
0.645345
-0.899472
0.717964
-0.770432
0.779668
-0.655884
0.83187
-0.555662
0.87592
-0.468406
0.913046
-0.393984
0.944372
-0.33028
0.970855
-0.277566
0.993317
-0.235011
1.01249
-0.200839
1.02904
-0.172398
1.04351
-0.149576
1.05637
-0.131515
1.06804
-0.117467
1.07884
-0.106785
1.08906
-0.0989337
1.09897
-0.0934632
1.10679
-0.0698198
1.11414
-0.0638753
1.12114
-0.0592839
1.12788
-0.0557857
1.13445
-0.053183
1.14091
-0.0512939
1.14731
-0.0499748
1.15371
-0.0491046
1.16013
-0.0485815
1.1666
-0.0483222
1.17315
-0.048259
1.1798
-0.048343
1.18656
-0.0484782
1.19344
-0.0485019
1.20045
-0.0487511
1.2076
-0.0490007
1.2149
-0.0488761
1.22235
-0.0488804
1.22995
-0.0488964
-0.0486756
1.23771
0.235409
-1.66614
-0.0788681
0.375217
-1.49275
0.498295
-1.31537
0.605262
-1.14894
0.697403
-0.991614
0.776172
-0.849201
0.843107
-0.72282
0.899733
-0.612288
0.947509
-0.516181
0.987756
-0.434231
1.02169
-0.364214
1.05034
-0.306219
1.07461
-0.259273
1.09527
-0.221499
1.11304
-0.190172
1.12852
-0.165059
1.14222
-0.145215
1.15457
-0.129818
1.16595
-0.118157
1.17665
-0.109642
1.18697
-0.103776
1.19513
-0.0779802
1.20276
-0.0715111
1.21001
-0.0665261
1.21696
-0.0627424
1.22372
-0.0599426
1.23036
-0.0579286
1.23693
-0.0565433
1.24348
-0.0556546
1.25005
-0.0551515
1.25667
-0.0549433
1.26336
-0.0549559
1.27016
-0.0551352
1.27706
-0.0553824
1.28409
-0.0555344
1.29126
-0.0559165
1.29856
-0.0563064
1.30602
-0.0563362
1.31364
-0.0564952
1.32141
-0.0566677
-0.0566101
1.32934
0.253015
-1.83596
-0.0832032
0.404682
-1.64442
0.538212
-1.4489
0.654282
-1.26501
0.754282
-1.09161
0.839783
-0.934703
0.912448
-0.795485
0.973922
-0.673763
1.02578
-0.56804
1.06945
-0.477903
1.10625
-0.401008
1.13728
-0.337252
1.16351
-0.285506
1.1858
-0.243784
1.20491
-0.209282
1.22148
-0.181636
1.23608
-0.159809
1.24916
-0.142899
1.26113
-0.130124
1.27232
-0.120836
1.28303
-0.114488
1.29152
-0.0864683
1.29942
-0.0794159
1.30689
-0.0739906
1.31403
-0.0698844
1.32095
-0.0668584
1.32772
-0.064697
1.3344
-0.0632286
1.34105
-0.0623086
1.34772
-0.0618165
1.35443
-0.0616529
1.36121
-0.0617373
1.36809
-0.0620097
1.37507
-0.0623682
1.38219
-0.0626493
1.38943
-0.0631654
1.39683
-0.0636974
1.40437
-0.0638847
1.41208
-0.0642015
1.41995
-0.0645337
-0.064643
1.42798
0.272227
-2.02028
-0.0879039
0.436863
-1.80905
0.581828
-1.59387
0.707858
-1.39104
0.816462
-1.20022
0.909339
-1.02758
0.988283
-0.874429
1.05507
-0.740554
1.11141
-0.624379
1.15884
-0.525332
1.19877
-0.440939
1.23241
-0.370892
1.2608
-0.313896
1.28486
-0.267842
1.30542
-0.229843
1.32318
-0.199395
1.33873
-0.17536
1.35258
-0.156748
1.36516
-0.142704
1.37684
-0.132514
1.38793
-0.125578
1.39673
-0.0952702
1.40488
-0.0875663
1.41254
-0.0816454
1.41982
-0.0771722
1.42685
-0.0738843
1.4337
-0.0715472
1.44045
-0.0699732
1.44714
-0.0690047
1.45384
-0.0685101
1.46056
-0.0683813
1.46736
-0.0685301
1.47424
-0.0688904
1.48123
-0.0693567
1.48834
-0.0697652
1.49559
-0.0704145
1.50298
-0.0710884
1.51053
-0.0714348
1.51824
-0.071911
1.52611
-0.0724047
-0.0726835
1.53415
0.293197
-2.22048
-0.0929913
0.472028
-1.98788
0.62951
-1.75135
0.766451
-1.52798
0.884483
-1.31825
0.985445
-1.12854
1.07128
-0.960263
1.1439
-0.813179
1.20516
-0.685635
1.25671
-0.576884
1.30009
-0.484314
1.33659
-0.407392
1.36734
-0.344646
1.39333
-0.293835
1.41547
-0.251981
1.4345
-0.218428
1.45107
-0.19193
1.46573
-0.171402
1.47893
-0.155909
1.49108
-0.144668
1.50252
-0.137019
1.51162
-0.104364
1.51998
-0.0959297
1.52779
-0.0894485
1.53517
-0.0845553
1.54225
-0.0809624
1.54911
-0.0784146
1.55585
-0.0767069
1.56251
-0.0756672
1.56915
-0.0751521
1.57581
-0.0750437
1.58253
-0.0752458
1.58932
-0.0756854
1.59622
-0.0762531
1.60324
-0.0767847
1.61039
-0.0775636
1.61768
-0.0783772
1.62513
-0.0788819
1.63273
-0.0795172
1.6405
-0.0801725
-0.0806219
1.64844
0.316092
-2.43809
-0.0984883
0.510473
-2.18227
0.681672
-1.92255
0.830574
-1.67688
0.958947
-1.44662
1.06878
-1.23838
1.16218
-1.05366
1.24121
-0.892214
1.30787
-0.752295
1.36396
-0.632967
1.41111
-0.53147
1.45075
-0.447029
1.48408
-0.37798
1.51219
-0.321939
1.53604
-0.27583
1.55644
-0.238832
1.57409
-0.209582
1.58959
-0.186895
1.60342
-0.169746
1.61603
-0.157278
1.62778
-0.148768
1.63714
-0.113718
1.64567
-0.104463
1.65357
-0.0973455
1.66098
-0.0919699
1.66804
-0.0880204
1.67484
-0.0852195
1.68148
-0.0833432
1.68802
-0.0822037
1.69451
-0.0816447
1.701
-0.0815377
1.70753
-0.0817775
1.71413
-0.0822837
1.72082
-0.0829428
1.72763
-0.0835899
1.73456
-0.0844919
1.74162
-0.08544
1.74884
-0.0861001
1.75621
-0.0868918
1.76375
-0.0877067
-0.0883257
1.77145
0.3411
-2.67477
-0.10442
0.552534
-2.3937
0.738778
-2.10879
0.900803
-1.83891
1.04053
-1.58635
1.16011
-1.35796
1.26182
-1.15537
1.3479
-0.978294
1.4205
-0.824896
1.48157
-0.694032
1.53288
-0.58278
1.57596
-0.490109
1.61212
-0.414145
1.64253
-0.352348
1.66824
-0.301536
1.69011
-0.26071
1.70891
-0.228383
1.72528
-0.203257
1.73975
-0.184214
1.75278
-0.170315
1.76478
-0.160766
1.77435
-0.12329
1.783
-0.113108
1.79092
-0.105268
1.79829
-0.0993364
1.80524
-0.0949692
1.81188
-0.0918642
1.81831
-0.0897766
1.82461
-0.0885019
1.83084
-0.0878694
1.83704
-0.087739
1.84326
-0.087996
1.84952
-0.0885516
1.85587
-0.0892878
1.86232
-0.0900389
1.86888
-0.091054
1.87557
-0.0921282
1.88241
-0.0929375
1.88939
-0.0938802
1.89654
-0.0948502
-0.0956353
1.90385
0.368431
-2.93239
-0.110813
0.598582
-2.62385
0.801346
-2.31156
0.977787
-2.01535
1.12999
-1.73855
1.26029
-1.48826
1.37114
-1.26622
1.46497
-1.07213
1.54411
-0.904036
1.61066
-0.76058
1.66654
-0.638661
1.7134
-0.536972
1.75267
-0.453412
1.78559
-0.385272
1.81331
-0.329255
1.83677
-0.284172
1.85679
-0.248398
1.87405
-0.220515
1.88914
-0.199303
1.90256
-0.183734
1.91473
-0.17294
1.92446
-0.133023
1.93315
-0.121794
1.94101
-0.113128
1.94823
-0.106556
1.95496
-0.101699
1.96132
-0.098229
1.96743
-0.0958789
1.97335
-0.0944253
1.97916
-0.0936825