/*--------------------------------*- C++ -*----------------------------------*\
| =========                 |                                                 |
| \\      /  F ield         | OpenFOAM: The Open Source CFD Toolbox           |
|  \\    /   O peration     | Version:  5.x                                   |
|   \\  /    A nd           | Web:      www.OpenFOAM.org                      |
|    \\/     M anipulation  |                                                 |
\*---------------------------------------------------------------------------*/
FoamFile
{
    version     2.0;
    format      ascii;
    class       volVectorField;
    location    "250";
    object      U;
}
// * * * * * * * * * * * * * * * * * * * * * * * * * * * * * * * * * * * * * //

dimensions      [0 1 -1 0 0 0 0];

internalField   nonuniform List<vector> 
11040
(
(-2.54534 16.4391 0)
(-0.0644091 20.6967 -1.26237e-19)
(4.3486 23.389 1.22928e-17)
(8.59658 23.0518 1.44168e-17)
(12.023 21.3072 3.19592e-17)
(14.548 18.8618 -1.57731e-17)
(16.2532 16.1326 -1.57236e-17)
(17.2704 13.3841 1.60624e-17)
(17.7295 10.7841 3.65886e-17)
(17.6989 8.39518 1.19376e-18)
(16.9503 6.02896 1.80972e-17)
(15.7796 4.06976 -9.808e-19)
(14.8105 2.84258 1.57008e-17)
(14.2705 2.17641 1.49088e-17)
(13.7991 1.64591 1.19143e-17)
(13.194 1.13215 7.05207e-18)
(12.4764 0.668266 -5.56128e-18)
(11.7125 0.272855 -4.63928e-19)
(10.9218 -0.0578895 4.83705e-19)
(10.1019 -0.32813 2.61652e-18)
(9.24465 -0.539987 1.80203e-18)
(8.4619 -0.674978 1.13004e-18)
(7.75351 -0.753893 7.09109e-19)
(7.04068 -0.799882 -8.85783e-20)
(6.32016 -0.816073 -5.04641e-20)
(5.59057 -0.803992 1.50928e-19)
(4.85038 -0.764482 -1.34461e-17)
(4.10376 -0.697242 3.10395e-19)
(3.36183 -0.611396 -2.38487e-17)
(2.60186 -0.512081 2.99755e-17)
(1.83357 -0.39289 6.03072e-19)
(1.0674 -0.255674 4.49824e-19)
(0.386673 -0.111169 -5.86957e-19)
(-0.217749 0.024495 0)
(-0.671746 0.13874 1.73176e-16)
(-1.01878 0.253323 0)
(-1.48998 0.413064 0)
(-2.17113 0.578635 -1.94291e-19)
(-2.82041 0.591822 2.12395e-19)
(-2.98178 0.223517 -7.80897e-17)
(-1.8877 -0.343952 -1.02056e-16)
(0.107987 16.0164 0)
(2.94295 19.2339 0)
(8.25308 20.6954 -7.21299e-18)
(12.9053 20.1945 7.88467e-18)
(16.3892 18.8542 -1.97035e-17)
(18.9676 17.2967 2.07959e-17)
(20.8066 15.54 1.00688e-17)
(21.9712 13.6133 1.33094e-18)
(22.5412 11.5883 -7.69594e-19)
(22.6168 9.56043 1.14702e-17)
(22.1311 7.44344 -1.29465e-18)
(20.9702 5.58801 0)
(19.5467 4.24684 0)
(18.3062 3.29423 -7.82218e-18)
(17.2992 2.45385 -7.97887e-18)
(16.3444 1.72854 -5.51725e-18)
(15.3917 1.13047 0)
(14.444 0.635271 2.60101e-19)
(13.4931 0.223768 -7.07535e-19)
(12.5273 -0.111691 -3.5012e-19)
(11.5364 -0.375775 -1.10958e-18)
(10.6318 -0.553903 -6.03442e-19)
(9.8299 -0.667227 -1.21974e-22)
(9.03431 -0.741459 -4.50765e-19)
(8.23739 -0.780621 1.18332e-18)
(7.43393 -0.787549 1.43214e-19)
(6.61897 -0.764987 6.28913e-18)
(5.78682 -0.714929 -1.4075e-19)
(4.93164 -0.64061 1.04677e-17)
(4.06369 -0.544545 -1.25967e-17)
(3.18937 -0.429242 -1.55039e-17)
(2.32299 -0.301434 1.93034e-17)
(1.48119 -0.168358 1.51393e-20)
(0.704236 -0.0373538 -6.39328e-19)
(0.0506336 0.0811174 -3.24549e-17)
(-0.49681 0.204448 0)
(-1.12351 0.384988 -2.35199e-19)
(-1.75201 0.57431 5.11297e-17)
(-2.0656 0.680437 4.59177e-17)
(-1.75019 0.384291 4.22043e-17)
(-1.37197 -0.588224 7.31201e-17)
(1.50362 15.4792 0)
(4.17109 17.9363 0)
(7.9396 19.3474 1.97932e-18)
(11.5562 19.5442 -5.61919e-18)
(14.5652 18.8222 6.00168e-18)
(17.0834 17.5326 -7.63205e-18)
(19.1479 15.8933 -6.19612e-18)
(20.7291 14.0546 0)
(21.8206 12.1214 -1.0042e-17)
(22.454 10.1705 -5.95697e-18)
(22.601 8.14933 0)
(22.1201 6.34723 0)
(21.2167 4.95581 -6.25784e-18)
(20.2327 3.89044 -5.69538e-18)
(19.2702 2.93933 -6.08434e-19)
(18.2754 2.11421 6.28351e-19)
(17.2484 1.42599 0)
(16.2179 0.853127 0)
(15.1885 0.377386 1.70728e-19)
(14.1509 -0.0106513 -2.1545e-19)
(13.0937 -0.317305 2.19528e-19)
(12.1307 -0.532051 -3.68994e-19)
(11.2785 -0.670012 -7.43587e-20)
(10.4373 -0.762768 -2.45585e-19)
(9.59918 -0.816222 -5.17011e-20)
(8.75852 -0.834092 -9.2653e-20)
(7.90955 -0.819726 -6.58393e-20)
(7.04657 -0.775777 1.53502e-19)
(6.16495 -0.705145 0)
(5.26576 -0.610864 0)
(4.35252 -0.497286 1.88708e-17)
(3.43627 -0.371607 -2.17848e-17)
(2.53346 -0.241348 1.24872e-17)
(1.67491 -0.115783 0)
(0.906094 0.00159346 1.69543e-17)
(0.248862 0.130376 1.94624e-17)
(-0.39261 0.299791 0)
(-0.955144 0.423522 1.81387e-19)
(-1.2452 0.439246 -1.2778e-19)
(-1.0463 0.0993823 0)
(-1.26405 -0.94128 -3.4497e-17)
(2.87972 14.8418 3.45934e-20)
(5.37083 16.7676 -3.15101e-20)
(8.31236 17.9508 5.93749e-19)
(11.4482 18.2588 0)
(14.2655 17.7503 -7.08207e-18)
(16.6368 16.7117 0)
(18.5727 15.3299 1.40258e-17)
(20.0716 13.723 -4.47709e-20)
(21.1473 11.994 1.41021e-18)
(21.8394 10.2284 9.47684e-18)
(22.1551 8.40349 1.39782e-18)
(22.0036 6.7157 3.86856e-18)
(21.4843 5.3543 1.10468e-17)
(20.8311 4.29044 4.50316e-18)
(20.1356 3.34167 0)
(19.3476 2.48967 -8.35687e-19)
(18.4594 1.75227 1.42502e-19)
(17.508 1.12372 -5.76017e-19)
(16.5168 0.59286 -2.3235e-19)
(15.4919 0.153337 2.36668e-19)
(14.4319 -0.198902 5.39987e-19)
(13.4577 -0.449114 3.41166e-19)
(12.59 -0.613926 0)
(11.7309 -0.729179 4.68764e-19)
(10.8747 -0.801334 -7.16219e-19)
(10.0165 -0.834554 1.11244e-18)
(9.15122 -0.832608 -3.12982e-18)
(8.27359 -0.798638 0)
(7.37925 -0.735787 0)
(6.46633 -0.647711 0)
(5.5355 -0.5394 -6.83396e-18)
(4.59258 -0.418411 8.07213e-18)
(3.64961 -0.293269 -2.81004e-19)
(2.72853 -0.173785 -1.03278e-17)
(1.86402 -0.0610265 -1.09263e-17)
(1.10305 0.0663273 -1.28724e-17)
(0.424504 0.22038 -2.74967e-17)
(-0.141328 0.304481 -2.71962e-17)
(-0.518816 0.274393 -1.04262e-19)
(-0.44971 -0.0657817 -2.36479e-17)
(-1.10578 -1.09601 1.41691e-17)
(4.23513 14.1152 0)
(6.43499 15.6257 -4.56759e-20)
(8.78736 16.5914 -3.63825e-19)
(11.3667 16.999 2.17904e-19)
(13.8261 16.7772 5.18849e-18)
(15.9996 16.0579 -5.66934e-18)
(17.8629 14.9567 -1.33536e-18)
(19.3713 13.5722 -7.24802e-18)
(20.4949 12.0121 0)
(21.2501 10.3736 -8.741e-18)
(21.6531 8.66762 0)
(21.6577 7.04624 -2.20366e-18)
(21.3294 5.68968 -5.83271e-18)
(20.8524 4.60977 0)
(20.3337 3.66389 3.1147e-18)
(19.7419 2.80987 0)
(19.0485 2.05826 0)
(18.2679 1.40606 5.89698e-19)
(17.4161 0.8439 4.84556e-19)
(16.4999 0.367822 0)
(15.5216 -0.0224025 -4.39014e-19)
(14.6022 -0.306221 0)
(13.7687 -0.498998 0)
(12.9339 -0.63888 -1.62631e-19)
(12.0953 -0.732375 0)
(11.2503 -0.783896 8.60113e-19)
(10.3953 -0.797454 2.42357e-18)
(9.52627 -0.776574 0)
(8.63952 -0.724767 0)
(7.73244 -0.646144 0)
(6.80413 -0.546232 5.57462e-18)
(5.85656 -0.433071 5.40162e-18)
(4.89607 -0.315858 -6.51655e-18)
(3.93593 -0.204632 -2.28429e-19)
(2.99853 -0.101269 2.58352e-19)
(2.13614 0.0144487 0)
(1.38268 0.147823 2.02562e-17)
(0.766972 0.206139 -2.14453e-17)
(0.259231 0.148268 2.25659e-17)
(0.165373 -0.154483 2.19469e-17)
(-0.752843 -1.1185 2.57721e-20)
(5.48311 13.3306 -8.90901e-20)
(7.37242 14.5115 5.31811e-20)
(9.28572 15.2908 -2.40143e-20)
(11.3832 15.7291 2.28772e-19)
(13.4874 15.7015 -8.39835e-19)
(15.4381 15.243 5.5354e-18)
(17.1826 14.4222 -6.83833e-18)
(18.6623 13.3029 5.90122e-18)
(19.8224 11.9691 2.90161e-18)
(20.6515 10.5083 -1.49364e-18)
(21.1545 8.94938 0)
(21.2965 7.41161 0)
(21.1128 6.05915 1.36265e-18)
(20.7463 4.94302 -1.43851e-18)
(20.3146 3.97593 -4.94243e-18)
(19.8255 3.11124 1.04359e-18)
(19.2581 2.34817 -1.98963e-18)
(18.6169 1.68269 1.0283e-19)
(17.9096 1.10398 -6.06138e-19)
(17.1357 0.606336 1.06176e-18)
(16.2908 0.190275 -9.41407e-19)
(15.4801 -0.119866 2.2789e-19)
(14.7308 -0.336831 -7.83213e-20)
(13.9688 -0.499889 6.49041e-20)
(13.1934 -0.615067 -4.71259e-19)
(12.4037 -0.686506 -1.15993e-20)
(11.5978 -0.718004 -2.22935e-18)
(10.7728 -0.713096 -2.19981e-18)
(9.92608 -0.675431 0)
(9.05507 -0.609374 0)
(8.15817 -0.520785 -3.8697e-18)
(7.23502 -0.417959 -9.59071e-18)
(6.28738 -0.31052 -3.31803e-19)
(5.32101 -0.208823 5.77719e-18)
(4.34627 -0.117139 6.79281e-18)
(3.40542 -0.0203685 -7.31218e-18)
(2.55764 0.0850375 2.41315e-19)
(1.85044 0.122176 3.33451e-17)
(1.2099 0.0446486 -3.60145e-17)
(0.89202 -0.207297 7.59824e-20)
(-0.121023 -1.03528 1.32425e-17)
(6.60643 12.5154 0)
(8.20555 13.4344 -1.48442e-19)
(9.77688 14.0603 -1.39033e-20)
(11.4785 14.4804 1.4216e-19)
(13.2392 14.5729 1.21108e-18)
(14.9398 14.3203 2.03097e-18)
(16.5238 13.7492 -4.53744e-18)
(17.9316 12.8912 1.71621e-18)
(19.0968 11.8031 0)
(19.9873 10.5541 2.18052e-18)
(20.5947 9.17804 -4.35241e-18)
(20.8824 7.76534 4.38177e-18)
(20.8542 6.4539 -1.76571e-19)
(20.6073 5.31905 0)
(20.2522 4.32657 1.0681e-18)
(19.8281 3.44193 1.21621e-19)
(19.3324 2.65866 8.46244e-19)
(18.772 1.97412 6.83846e-19)
(18.1578 1.37839 -2.7153e-19)
(17.4914 0.863709 -3.05625e-19)
(16.7667 0.428699 4.37199e-19)
(16.0697 0.0993065 2.45844e-19)
(15.4224 -0.13597 0)
(14.7597 -0.317663 1.04378e-19)
(14.0805 -0.451599 4.41566e-19)
(13.3834 -0.54165 -6.18829e-19)
(12.6662 -0.591243 6.03293e-19)
(11.9263 -0.603652 2.01019e-18)
(11.1609 -0.582373 -3.23571e-19)
(10.3671 -0.531706 -4.01041e-20)
(9.54239 -0.457465 -2.41904e-18)
(8.68444 -0.367763 -8.73619e-19)
(7.79164 -0.272276 -3.53782e-18)
(6.86399 -0.181445 0)
(5.90232 -0.102139 -4.90215e-18)
(4.93199 -0.0271591 5.73204e-18)
(4.0079 0.0450822 -6.08387e-18)
(3.19148 0.0599466 -2.56548e-17)
(2.41916 -0.0321209 1.3877e-17)
(1.8658 -0.238509 6.21585e-20)
(0.806289 -0.887262 -2.79964e-17)
(7.59955 11.6919 5.85683e-19)
(8.9438 12.4041 -1.5879e-19)
(10.2422 12.9049 -1.5356e-19)
(11.626 13.2806 -3.33428e-19)
(13.0777 13.4333 -8.39902e-19)
(14.5231 13.3272 -2.50661e-18)
(15.9175 12.961 2.65147e-18)
(17.2103 12.3415 3.63456e-18)
(18.3366 11.4979 -2.58517e-18)
(19.2543 10.477 0)
(19.9447 9.30835 -1.57014e-18)
(20.3674 8.05801 2.82654e-20)
(20.5009 6.83372 -6.41349e-20)
(20.3975 5.7168 1.48968e-18)
(20.1449 4.71438 1.38387e-18)
(19.7964 3.81405 -1.43672e-18)
(19.3663 3.01014 0)
(18.8663 2.30206 0)
(18.3117 1.68408 9.88633e-19)
(17.7115 1.14914 -8.33114e-19)
(17.0658 0.694794 1.29346e-19)
(16.451 0.347872 -2.50139e-19)
(15.8855 0.0968498 -5.04768e-20)
(15.3115 -0.100311 0)
(14.7272 -0.249662 1.75359e-19)
(14.1306 -0.35531 -1.79413e-19)
(13.5189 -0.420723 -6.30726e-19)
(12.8886 -0.449125 0)
(12.236 -0.443913 0)
(11.5571 -0.409229 2.96233e-19)
(10.8475 -0.350617 2.6051e-18)
(10.1023 -0.275684 2.5272e-18)
(9.31627 -0.193732 5.87444e-18)
(8.48447 -0.114904 4.19077e-19)
(7.60053 -0.047844 0)
(6.67364 0.00687972 -2.5495e-19)
(5.73707 0.0465799 4.69233e-18)
(4.84394 0.0367421 -3.34345e-20)
(3.96063 -0.0659256 1.0863e-17)
(3.20465 -0.246375 1.18815e-17)
(2.07343 -0.709798 1.35767e-17)
(8.46605 10.8793 -3.58817e-19)
(9.59353 11.4295 -3.69284e-21)
(10.671 11.8281 2.89972e-19)
(11.8008 12.1493 -4.06305e-19)
(12.988 12.3208 0)
(14.1928 12.3069 8.08898e-19)
(15.3874 12.0939 -1.52762e-18)
(16.5347 11.673 -2.19123e-18)
(17.5808 11.0527 1.61371e-18)
(18.483 10.2579 2.09247e-18)
(19.2179 9.30787 1.28184e-19)
(19.7438 8.24663 -4.28629e-18)
(20.023 7.15189 0)
(20.071 6.09696 9.82161e-19)
(19.9455 5.11409 -2.28817e-18)
(19.6974 4.21459 -9.65944e-19)
(19.3507 3.39989 -8.5201e-19)
(18.9211 2.6727 8.8185e-19)
(18.4264 2.03213 -3.23347e-19)
(17.8805 1.47407 0)
(17.2903 0.99743 3.77272e-19)
(16.73 0.630936 -5.27479e-19)
(16.2184 0.362828 4.7177e-20)
(15.7051 0.149646 -7.83451e-20)
(15.1899 -0.0148451 2.84009e-19)
(14.6721 -0.135176 -2.90214e-19)
(14.1497 -0.21513 0)
(13.6202 -0.258142 1.61058e-18)
(13.0802 -0.267725 7.55752e-19)
(12.5254 -0.248 4.18424e-19)
(11.9505 -0.204263 -1.99683e-18)
(11.3488 -0.143561 -5.76506e-19)
(10.712 -0.0746054 5.5449e-19)
(10.0304 -0.00705316 -3.3541e-19)
(9.29179 0.0495891 -2.11256e-18)
(8.49224 0.0893276 -3.76223e-19)
(7.64084 0.104753 0)
(6.76449 0.0735301 7.28035e-18)
(5.84172 -0.0355204 -7.98432e-18)
(4.9654 -0.207222 -8.75617e-18)
(3.76038 -0.52779 0)
(9.21392 10.0932 0)
(10.1599 10.517 0)
(11.0571 10.8321 0)
(11.9835 11.0981 1.22595e-18)
(12.9517 11.2631 -3.47521e-19)
(13.9429 11.2993 1.91162e-20)
(14.944 11.1902 -2.05793e-19)
(15.9318 10.9209 -2.93221e-19)
(16.8669 10.4876 9.13025e-19)
(17.7134 9.89834 1.34002e-18)
(18.4487 9.16111 -1.31732e-18)
(19.0339 8.30033 1.75026e-18)
(19.424 7.36613 -1.53609e-19)
(19.6095 6.41554 1.65076e-18)
(19.6189 5.48969 -2.97232e-18)
(19.4892 4.61735 2.36355e-18)
(19.2455 3.81042 1.26875e-18)
(18.9055 3.07674 -1.3105e-18)
(18.4869 2.42074 5.04695e-19)
(18.006 1.8425 0)
(17.4734 1.3433 4.86428e-19)
(16.9615 0.955618 -3.63106e-19)
(16.4918 0.668413 2.60127e-20)
(16.0216 0.437078 -6.30773e-20)
(15.5532 0.255371 3.00818e-19)
(15.088 0.118497 0)
(14.6264 0.0224204 0)
(14.1682 -0.0364855 -4.74754e-19)
(13.7121 -0.0618532 -3.01145e-18)
(13.2561 -0.0577655 -1.39966e-18)
(12.7965 -0.029228 1.61212e-18)
(12.3281 0.0173632 4.53968e-19)
(11.8425 0.074101 -2.38788e-18)
(11.3291 0.132021 -5.21333e-19)
(10.7725 0.181497 3.27378e-18)
(10.1606 0.213769 -5.69463e-19)
(9.48447 0.218621 -2.44648e-18)
(8.74454 0.179363 3.27594e-19)
(7.90812 0.0749889 5.31074e-18)
(7.05156 -0.0848617 0)
(5.85541 -0.325182 0)
(9.85357 9.34564 0)
(10.6485 9.6712 0)
(11.3977 9.91829 -1.40243e-19)
(12.1605 10.133 -1.15041e-18)
(12.9502 10.2787 0)
(13.7596 10.3359 -4.75262e-19)
(14.5853 10.2906 2.53303e-19)
(15.4153 10.1279 0)
(16.2237 9.83844 -1.2453e-18)
(16.9845 9.42027 2.01354e-19)
(17.6799 8.87326 -2.76388e-19)
(18.2775 8.20639 9.90946e-19)
(18.7333 7.44678 -1.22936e-18)
(19.0241 6.63232 0)
(19.156 5.80064 -1.85972e-18)
(19.1477 4.98754 2.1669e-18)
(19.0179 4.21386 0)
(18.7822 3.49341 0)
(18.4569 2.83608 2.81032e-19)
(18.0579 2.24697 -1.1449e-18)
(17.5972 1.73058 4.85917e-19)
(17.1428 1.3239 0)
(16.7188 1.01777 2.27062e-20)
(16.291 0.76739 1.72824e-19)
(15.8633 0.566808 -2.03967e-19)
(15.4391 0.411207 2.38867e-19)
(15.0207 0.296442 0)
(14.6099 0.21878 0)
(14.208 0.174545 -4.99061e-19)
(13.8155 0.159774 2.25306e-18)
(13.4319 0.169865 -1.2559e-18)
(13.0551 0.199229 1.31997e-18)
(12.6806 0.241092 7.25858e-19)
(12.3009 0.287685 0)
(11.9035 0.330262 1.25086e-18)
(11.4753 0.35972 -1.25608e-20)
(11.0002 0.365628 4.20605e-18)
(10.4653 0.334948 0)
(9.82517 0.252115 -4.15508e-18)
(9.13463 0.124599 4.54887e-18)
(8.11001 -0.0669592 0)
(10.396 8.64562 0)
(11.0651 8.89488 -8.53276e-19)
(11.6925 9.0867 7.4752e-19)
(12.3228 9.25638 0)
(12.9683 9.37781 7.56153e-19)
(13.6271 9.43825 -6.45053e-19)
(14.3014 9.4278 -1.22457e-18)
(14.9864 9.33409 1.46443e-19)
(15.6668 9.14677 4.51869e-19)
(16.326 8.86015 1.40133e-18)
(16.9522 8.46956 -1.45773e-18)
(17.5217 7.97414 -4.50677e-19)
(17.9967 7.38424 1.15864e-18)
(18.3506 6.7205 -5.58544e-19)
(18.5754 6.01052 2.18523e-18)
(18.6742 5.28748 -1.39407e-18)
(18.6552 4.57569 -5.62425e-19)
(18.5285 3.89332 -2.55499e-19)
(18.3064 3.25478 -7.36443e-19)
(18.0026 2.66999 1.45615e-18)
(17.6284 2.1472 -6.50207e-19)
(17.2442 1.72821 -6.24254e-21)
(16.876 1.40689 -6.49339e-21)
(16.4986 1.13948 0)
(16.1171 0.920746 -4.45827e-19)
(15.7358 0.746136 1.34218e-19)
(15.3583 0.611581 8.44004e-19)
(14.9876 0.513367 -5.90938e-19)
(14.6263 0.447854 1.60467e-18)
(14.2763 0.411213 -8.3558e-19)
(13.9393 0.399212 0)
(13.6158 0.407002 -1.62617e-18)
(13.3048 0.428974 -5.72308e-19)
(13.0032 0.458836 6.46004e-19)
(12.7041 0.489521 -3.99945e-18)
(12.3992 0.513479 -7.03213e-19)
(12.075 0.522183 -1.46759e-18)
(11.7186 0.506753 1.52081e-18)
(11.2877 0.455067 1.59766e-18)
(10.8161 0.375457 -3.26904e-18)
(10.0821 0.237225 -1.12008e-19)
(10.8522 7.99896 0)
(11.4162 8.18898 4.85718e-20)
(11.9427 8.33624 6.76905e-19)
(12.4654 8.46762 2.17676e-18)
(12.9944 8.56446 -1.4926e-18)
(13.5307 8.61881 2.09263e-19)
(14.0785 8.62429 -4.20718e-20)
(14.6373 8.57185 -1.5863e-18)
(15.1989 8.45259 -9.44027e-20)
(15.7538 8.25997 -2.42611e-19)
(16.2956 7.98831 8.353e-19)
(16.8088 7.63215 -7.28039e-19)
(17.2646 7.19161 -4.10882e-19)
(17.6388 6.67467 4.79214e-19)
(17.918 6.09783 0)
(18.0954 5.48609 0)
(18.1697 4.86141 1.93848e-18)
(18.1436 4.24265 1.59567e-20)
(18.0239 3.64636 -1.32432e-18)
(17.82 3.08582 7.00571e-20)
(17.5409 2.57242 -2.03527e-19)
(17.2365 2.15214 2.0178e-19)
(16.9332 1.82293 -8.16816e-21)
(16.6148 1.54371 0)
(16.2875 1.31038 -6.27706e-20)
(15.956 1.11908 7.54973e-19)
(15.6246 0.966127 -9.8235e-19)
(15.2968 0.84799 1.13513e-18)
(14.9758 0.76116 -8.42725e-19)
(14.664 0.702021 0)
(14.3635 0.666702 7.83734e-19)
(14.076 0.650955 1.77122e-18)
(13.8022 0.6501 -9.0406e-19)
(13.5413 0.659096 1.02223e-18)
(13.2904 0.67252 5.72735e-19)
(13.0457 0.684905 -1.08963e-18)
(12.8 0.690358 1.7179e-18)
(12.5453 0.683982 -1.20551e-18)
(12.2541 0.657684 -9.34375e-19)
(11.945 0.620151 -1.57088e-19)
(11.4811 0.540827 2.58257e-18)
(11.2326 7.40887 -8.17633e-19)
(11.7087 7.55294 -2.83336e-18)
(12.1513 7.66453 2.76078e-18)
(12.5859 7.7642 0)
(13.0207 7.83851 -1.27541e-19)
(13.458 7.88268 0)
(13.9023 7.89293 -4.13709e-18)
(14.3553 7.8631 3.00579e-18)
(14.8129 7.78637 1.3564e-18)
(15.2703 7.65701 -1.46219e-18)
(15.7251 7.47017 1.60295e-19)
(16.1679 7.21915 -1.116e-19)
(16.5787 6.89927 3.57086e-19)
(16.9387 6.51096 5.59529e-19)
(17.2347 6.06207 1.01789e-19)
(17.456 5.56836 -6.6986e-19)
(17.5954 5.04598 5.7831e-19)
(17.6496 4.5109 -7.01929e-19)
(17.6196 3.97879 0)
(17.5098 3.46381 -2.76063e-19)
(17.3254 2.97886 2.73921e-19)
(17.104 2.57195 3.45976e-20)
(16.8703 2.24551 3.59931e-21)
(16.6165 1.96283 0)
(16.3488 1.72129 5.11832e-20)
(16.0727 1.51818 7.67557e-20)
(15.7926 1.35061 0)
(15.5125 1.21552 0)
(15.2356 1.10978 2.14223e-21)
(14.9645 1.03011 0)
(14.7013 0.973075 -9.47789e-19)
(14.4478 0.935007 0)
(14.2049 0.912037 1.49945e-18)
(13.9728 0.90013 -1.55409e-18)
(13.75 0.895103 0)
(13.535 0.893096 8.8483e-19)
(13.3245 0.890293 -9.23193e-19)
(13.1144 0.884147 4.65197e-19)
(12.8909 0.870452 1.47758e-18)
(12.6634 0.855914 -1.31289e-19)
(12.3651 0.821318 -3.08238e-18)
(11.5474 6.87636 2.17533e-18)
(11.9495 6.98478 8.06142e-20)
(12.322 7.06802 -1.21956e-18)
(12.6842 7.14194 -2.22069e-18)
(13.0427 7.19681 -4.8045e-18)
(13.4001 7.22986 5.55887e-18)
(13.7606 7.23901 -2.78086e-19)
(14.1268 7.22029 -2.46818e-18)
(14.4969 7.16884 4.5591e-18)
(14.8688 7.08028 -4.36667e-19)
(15.2423 6.95084 -1.88107e-18)
(15.6123 6.77459 4.51556e-19)
(15.9657 6.54555 -4.61738e-19)
(16.2895 6.26072 8.35125e-19)
(16.573 5.92254 -1.26869e-19)
(16.8059 5.53944 0)
(16.9792 5.12136 3.01444e-19)
(17.0864 4.67962 -2.06767e-19)
(17.1242 4.22665 -2.10343e-20)
(17.0926 3.77504 -1.29718e-19)
(16.9929 3.33705 2.05462e-19)
(16.8497 2.95947 -3.5403e-20)
(16.6845 2.64858 -2.97312e-21)
(16.4958 2.3733 -7.7387e-19)
(16.2894 2.13263 1.73789e-18)
(16.0707 1.92513 -1.03516e-18)
(15.8442 1.74896 1.26989e-18)
(15.6141 1.60198 -1.55734e-18)
(15.3837 1.48171 -1.94623e-18)
(15.1556 1.38544 1.76066e-18)
(14.9319 1.31032 5.09198e-19)
(14.7142 1.25334 8.62017e-19)
(14.5035 1.21142 -2.66379e-18)
(14.3003 1.18139 2.52255e-18)
(14.1037 1.16004 -1.29768e-18)
(13.913 1.14466 -6.94592e-19)
(13.7268 1.13272 0)
(13.5425 1.12258 -7.63245e-19)
(13.3541 1.11229 -7.92145e-19)
(13.1662 1.10559 -8.13331e-19)
(12.9493 1.09295 8.45933e-19)
(11.8056 6.40055 3.02124e-21)
(12.1453 6.48129 2.95315e-19)
(12.459 6.54214 1.07266e-18)
(12.7614 6.59554 -1.9096e-18)
(13.0578 6.63432 7.54045e-18)
(13.3505 6.65695 -6.36086e-18)
(13.6437 6.66244 7.99615e-18)
(13.9396 6.64827 3.86614e-18)
(14.2379 6.61113 -1.99402e-18)
(14.5378 6.54791 -6.06323e-19)
(14.8402 6.4559 -4.33314e-18)
(15.1426 6.33064 1.86602e-19)
(15.4366 6.16657 0)
(15.7139 5.95977 -3.26373e-19)
(15.9669 5.71002 4.28251e-19)
(16.1877 5.42108 -5.59061e-19)
(16.368 5.09809 0)
(16.5006 4.74787 6.30678e-19)
(16.5804 4.37891 -1.43639e-18)
(16.6048 4.00077 5.1421e-19)
(16.5719 3.62343 -9.63125e-19)
(16.495 3.28901 1.089e-18)
(16.391 3.00615 4.62619e-20)
(16.2624 2.74989 -2.1265e-20)
(16.1142 2.5206 1.85951e-18)
(15.951 2.31803 -1.87949e-18)
(15.7772 2.14144 6.74486e-20)
(15.5965 1.98961 1.53456e-19)
(15.4123 1.86093 -1.46364e-18)
(15.2271 1.75352 1.6723e-18)
(15.043 1.6653 -2.07034e-19)
(14.8618 1.594 2.23578e-19)
(14.6845 1.5373 -9.80054e-19)
(14.5117 1.49286 4.58648e-19)
(14.343 1.45829 2.1291e-18)
(14.1784 1.4317 -5.31786e-19)
(14.0173 1.41139 5.92057e-19)
(13.8582 1.396 -1.19529e-18)
(13.6983 1.38447 6.22671e-19)
(13.5402 1.37832 6.52464e-19)
(13.3701 1.37217 0)
(12.015 5.97837 -3.33307e-18)
(12.3018 6.03751 5.96601e-18)
(12.566 6.08095 5.57978e-18)
(12.8186 6.11845 -1.46692e-17)
(13.064 6.14452 5.4314e-18)
(13.3045 6.1584 -1.11062e-17)
(13.5434 6.15973 8.95697e-18)
(13.7829 6.14695 -1.29412e-17)
(14.0232 6.11782 1.17309e-17)
(14.2642 6.0702 -4.17e-19)
(14.507 6.00228 -4.7358e-18)
(14.7506 5.91077 -4.3452e-19)
(14.9899 5.79135 -3.49584e-18)
(15.2195 5.64047 3.46046e-18)
(15.4347 5.45697 -2.66409e-18)
(15.6298 5.24217 2.89428e-18)
(15.7984 4.99828 0)
(15.9345 4.72885 -1.97858e-18)
(16.0329 4.43896 2.4517e-18)
(16.0899 4.13497 -2.32667e-18)
(16.1022 3.824 -1.62924e-19)
(16.0747 3.54119 3.96432e-18)
(16.0197 3.29576 7.92771e-20)
(15.9414 3.06844 -1.57008e-18)
(15.8436 2.86047 -3.01821e-24)
(15.73 2.67249 0)
(15.6043 2.5046 -2.1677e-18)
(15.4696 2.35643 2.1455e-18)
(15.3289 2.22716 0)
(15.1846 2.11571 -1.60091e-19)
(15.0386 2.02074 0)
(14.8927 1.94079 1.5214e-18)
(14.7481 1.87431 -1.72365e-18)
(14.6055 1.8197 -1.68181e-18)
(14.4652 1.77526 3.4448e-18)
(14.3274 1.73969 -1.98802e-18)
(14.1923 1.71187 -2.33246e-19)
(14.059 1.69064 4.85888e-19)
(13.9265 1.67522 -5.02397e-19)
(13.7962 1.66601 0)
(13.6619 1.65929 -5.18865e-19)
(12.1761 5.62276 0)
(12.4199 5.66592 -8.12788e-18)
(12.6439 5.69675 3.8951e-19)
(12.8568 5.72274 1.07974e-17)
(13.0619 5.73953 6.56005e-18)
(13.2615 5.74687 -6.74166e-18)
(13.4584 5.74479 6.0837e-18)
(13.6546 5.73227 5.78855e-18)
(13.8503 5.70777 1.07901e-17)
(14.0458 5.66982 -1.36433e-17)
(14.2421 5.6172 1.32497e-18)
(14.4389 5.54753 1.26574e-18)
(14.633 5.45752 -4.28881e-18)
(14.8209 5.34434 3.11991e-18)
(14.9996 5.20677 4.32907e-18)
(15.1654 5.0451 -3.29413e-18)
(15.3137 4.86013 -3.78548e-18)
(15.44 4.65354 3.88422e-18)
(15.5398 4.42818 0)
(15.6098 4.18802 4.44109e-19)
(15.6462 3.93773 4.45436e-19)
(15.6495 3.7052 3.38211e-18)
(15.6277 3.49897 -6.87283e-18)
(15.5856 3.30438 3.57088e-18)
(15.5258 3.12295 1.94725e-18)
(15.4509 2.95575 3.78112e-20)
(15.3639 2.80337 -2.06762e-18)
(15.2673 2.66597 3.34643e-20)
(15.1634 2.54334 2.39369e-21)
(15.0544 2.43497 2.5331e-18)
(14.9419 2.34015 -2.56166e-18)
(14.8275 2.258 -1.40091e-18)
(14.7124 2.18757 1.49559e-18)
(14.5975 2.12784 -1.51959e-18)
(14.4833 2.07765 1.32725e-18)
(14.3703 2.03618 1.21689e-18)
(14.2591 2.00268 -6.08929e-19)
(14.1494 1.9762 2.13653e-19)
(14.0409 1.95612 0)
(13.9346 1.94239 0)
(13.8281 1.93242 4.90781e-21)
(12.2958 5.33638 -3.76415e-18)
(12.5058 5.36815 4.19536e-18)
(12.6985 5.39001 -1.75383e-18)
(12.8805 5.40769 -3.35292e-18)
(13.0548 5.4177 0)
(13.2234 5.42013 6.32607e-18)
(13.3886 5.41519 -1.50054e-17)
(13.5522 5.40221 9.24566e-18)
(13.7145 5.38012 -2.94726e-18)
(13.8759 5.34789 2.6394e-18)
(14.0372 5.30471 -1.26529e-18)
(14.1985 5.24889 -1.12888e-17)
(14.3575 5.17799 1.98051e-17)
(14.5121 5.08982 -8.49389e-18)
(14.6602 4.98332 -1.00549e-18)
(14.7994 4.8584 -4.12648e-18)
(14.9265 4.71522 1.24956e-17)
(15.038 4.55452 -5.44951e-18)
(15.1308 4.37787 -8.1704e-18)
(15.2018 4.1877 3.3775e-18)
(15.2479 3.98699 -9.29174e-19)
(15.2672 3.79748 0)
(15.2651 3.62653 0)
(15.246 3.46286 -4.01993e-18)
(15.2116 3.30797 4.02483e-18)
(15.1638 3.16301 6.21708e-20)
(15.1048 3.02877 0)
(15.0365 2.90568 2.31711e-18)
(14.9608 2.79387 -2.32303e-18)
(14.8793 2.69321 1.85911e-20)
(14.7936 2.60337 -2.03245e-20)
(14.7048 2.52391 0)
(14.6141 2.45428 1.30905e-18)
(14.5224 2.39383 -1.38301e-18)
(14.4304 2.34177 1.79331e-19)
(14.3385 2.29759 -1.84934e-19)
(14.2475 2.26081 0)
(14.1576 2.23068 -1.95348e-19)
(14.0687 2.20669 -4.04523e-19)
(13.9815 2.18868 1.97671e-19)
(13.8956 2.17495 6.13629e-19)
(12.3866 5.10307 0)
(12.5696 5.12652 0)
(12.7372 5.14183 -6.55811e-18)
(12.8949 5.15346 -1.26808e-17)
(13.045 5.15855 1.92678e-17)
(13.1894 5.1574 -1.52182e-17)
(13.3302 5.15033 -5.74169e-18)
(13.4687 5.13688 1.20216e-17)
(13.6054 5.11629 -1.1501e-17)
(13.7407 5.08781 1.14725e-17)
(13.8753 5.05088 0)
(14.0093 5.0043 0)
(14.1411 4.94626 1.0273e-17)
(14.2693 4.87512 -2.02052e-17)
(14.3926 4.79006 1.92668e-17)
(14.5092 4.69087 -9.3775e-18)
(14.6169 4.57749 -1.17177e-18)
(14.7134 4.45022 1.02512e-17)
(14.796 4.30994 -6.96409e-18)
(14.8625 4.15811 0)
(14.9104 3.99664 4.81868e-19)
(14.9369 3.84239 0)
(14.9457 3.70142 -4.47218e-18)
(14.9404 3.56497 8.73256e-18)
(14.9223 3.43436 -4.25931e-18)
(14.8928 3.31064 0)
(14.8534 3.19462 0)
(14.8056 3.08684 2.18315e-18)
(14.7507 2.98757 -2.33111e-18)
(14.6901 2.89689 -2.45537e-18)
(14.625 2.81474 2.47331e-18)
(14.5565 2.7409 2.58297e-18)
(14.4855 2.67508 -2.59114e-18)
(14.4128 2.61692 0)
(14.3391 2.56585 -2.16293e-20)
(14.2648 2.52158 0)
(14.1908 2.48379 -5.61533e-21)
(14.1172 2.45187 -2.2845e-20)
(14.0442 2.42546 7.93555e-19)
(13.9725 2.40434 -1.12481e-18)
(13.9022 2.38745 3.71044e-19)
(12.4569 4.90953 0)
(12.6178 4.92676 -7.97118e-19)
(12.7649 4.93721 0)
(12.9028 4.94438 6.09921e-18)
(13.0334 4.94588 -5.99905e-18)
(13.1585 4.94214 0)
(13.2798 4.93352 5.80296e-18)
(13.3986 4.91973 5.56862e-18)
(13.5152 4.90018 -1.46265e-17)
(13.63 4.87436 0)
(13.7437 4.84186 1.09477e-17)
(13.8563 4.80181 -2.18133e-17)
(13.9668 4.75287 1.08372e-17)
(14.0741 4.69384 0)
(14.1773 4.62407 -9.99623e-18)
(14.2752 4.5434 1.11306e-17)
(14.3663 4.4517 1.05061e-17)
(14.4487 4.34909 -1.16126e-17)
(14.5207 4.23605 -1.072e-18)
(14.5805 4.11354 0)
(14.6262 3.98276 0)
(14.6548 3.85684 -5.71863e-19)
(14.6689 3.74068 2.59669e-19)
(14.6717 3.62735 4.44858e-18)
(14.6639 3.51795 3.44463e-19)
(14.6465 3.41338 -4.4623e-18)
(14.6206 3.31438 4.59824e-18)
(14.5874 3.22146 -4.45017e-18)
(14.5478 3.13495 -2.67916e-18)
(14.503 3.05503 2.37323e-18)
(14.4538 2.98175 -2.46351e-18)
(14.4012 2.91505 2.45871e-18)
(14.3459 2.8548 0)
(14.2886 2.80078 -2.75838e-18)
(14.2299 2.75261 2.60913e-18)
(14.1703 2.71011 0)
(14.1104 2.67309 5.22429e-21)
(14.0505 2.64108 7.10293e-19)
(13.9908 2.61378 -7.29957e-19)
(13.9319 2.59102 3.31151e-19)
(13.874 2.57214 -3.44062e-19)
(12.5122 4.74659 0)
(12.6546 4.75911 7.36685e-19)
(12.7847 4.76591 -5.89088e-18)
(12.9062 4.76975 1.14695e-17)
(13.0208 4.76862 -2.30888e-17)
(13.1301 4.76302 1.16087e-17)
(13.2356 4.75335 0)
(13.3384 4.73938 5.56964e-18)
(13.4389 4.7207 3.33752e-17)
(13.5374 4.69693 -2.2473e-17)
(13.6344 4.66778 0)
(13.73 4.63261 -2.77233e-18)
(13.8235 4.59043 7.88148e-18)
(13.914 4.54034 -2.12694e-19)
(14.0009 4.48189 -1.0471e-17)
(14.0835 4.41493 1.13252e-17)
(14.1605 4.33936 -9.85043e-18)
(14.2306 4.25524 9.4234e-18)
(14.2926 4.16286 -9.45139e-18)
(14.3452 4.06284 -9.26929e-18)
(14.3867 3.956 7.98752e-18)
(14.4147 3.85263 -3.99793e-18)
(14.431 3.75665 5.06721e-18)
(14.438 3.66252 -4.78727e-18)
(14.4364 3.57111 -8.91612e-19)
(14.4269 3.48316 4.5235e-18)
(14.4103 3.3993 0)
(14.3873 3.31999 0)
(14.3589 3.24554 -4.42413e-18)
(14.3259 3.17615 4.69476e-18)
(14.2889 3.11193 0)
(14.2486 3.05288 3.07602e-19)
(14.2057 2.99896 3.108e-19)
(14.1608 2.95005 2.65106e-18)
(14.1143 2.90589 -2.64813e-18)
(14.0668 2.86638 -1.27734e-18)
(14.0186 2.83139 1.27268e-18)
(13.9701 2.80056 -4.88616e-19)
(13.9216 2.77367 1.30657e-18)
(13.8735 2.75058 -6.34193e-19)
(13.8259 2.73093 -8.13296e-20)
(12.5564 4.60774 5.46184e-18)
(12.6831 4.61665 6.66169e-18)
(12.7987 4.62069 -1.27667e-19)
(12.9064 4.62203 0)
(13.0077 4.61897 0)
(13.1039 4.61206 0)
(13.1964 4.60169 0)
(13.2861 4.58771 -2.16392e-17)
(13.3734 4.56982 3.82082e-17)
(13.4585 4.54773 -2.18998e-17)
(13.542 4.52124 2.14076e-17)
(13.6239 4.48988 -1.35716e-17)
(13.7036 4.45292 2.36694e-17)
(13.7805 4.40968 -2.89728e-17)
(13.8542 4.35985 1.04958e-17)
(13.9241 4.30333 7.61519e-18)
(13.9894 4.24007 -9.96067e-18)
(14.049 4.17008 1.17477e-18)
(14.1021 4.09359 -1.22239e-18)
(14.1476 4.01102 1.18386e-17)
(14.1845 3.92293 1.03937e-17)
(14.2105 3.83748 -1.72092e-17)
(14.2269 3.7578 -5.50064e-19)
(14.236 3.67941 0)
(14.238 3.60298 5.50511e-19)
(14.2334 3.52913 -5.8111e-19)
(14.2229 3.45835 -4.0038e-18)
(14.2072 3.39103 4.56823e-18)
(14.1868 3.32744 -4.64166e-18)
(14.1624 3.26777 4.62359e-18)
(14.1345 3.21214 4.70919e-18)
(14.1038 3.16058 -4.9801e-18)
(14.0706 3.1131 -2.92446e-19)
(14.0355 3.06962 2.40961e-18)
(13.9988 3.02996 -1.9452e-18)
(13.9611 2.99406 0)
(13.9226 2.96186 0)
(13.8835 2.93307 -1.52771e-19)
(13.8443 2.90751 3.1197e-19)
(13.8051 2.88509 3.13392e-19)
(13.7662 2.86565 7.58953e-20)
(12.592 4.48819 0)
(12.7053 4.49431 -1.26831e-18)
(12.8086 4.49624 1.01594e-17)
(12.9045 4.4957 -1.0363e-17)
(12.9944 4.49125 -2.04833e-17)
(13.0795 4.48343 2.09818e-17)
(13.1611 4.47265 1.02042e-17)
(13.2399 4.4588 -2.11485e-17)
(13.3162 4.44166 -2.08513e-17)
(13.3904 4.42102 2.11878e-17)
(13.4627 4.39674 0)
(13.5334 4.36847 -1.04536e-17)
(13.6018 4.33567 2.06815e-17)
(13.6676 4.29784 -2.33585e-17)
(13.7305 4.25478 0)
(13.7899 4.20642 -2.57279e-18)
(13.8454 4.15274 2.5157e-18)
(13.8961 4.09378 0)
(13.9414 4.02969 1.16429e-18)
(13.9807 3.96081 -2.30159e-18)
(14.0129 3.88752 1.04925e-17)
(14.0363 3.81637 -1.03101e-17)
(14.052 3.74985 1.15702e-18)
(14.0616 3.6843 8.48034e-18)
(14.0654 3.62026 -8.43226e-18)
(14.0639 3.55819 5.50542e-19)
(14.0575 3.4985 -5.08037e-18)
(14.0468 3.44149 4.50713e-18)
(14.0321 3.3874 5.75905e-19)
(14.014 3.33638 0)
(13.993 3.28854 0)
(13.9694 3.24393 0)
(13.9437 3.20257 -2.31406e-18)
(13.9163 3.1644 2.30317e-18)
(13.8874 3.1293 -2.8704e-19)
(13.8574 3.09723 -2.34444e-18)
(13.8267 3.06816 2.62796e-18)
(13.7954 3.04186 0)
(13.7637 3.0182 4.11108e-21)
(13.732 2.99711 -5.91198e-19)
(13.7002 2.97855 2.87022e-19)
(12.6209 4.38433 4.69641e-18)
(12.7226 4.38829 0)
(12.8152 4.38863 -2.36417e-17)
(12.9011 4.38668 1.93967e-17)
(12.9812 4.38122 0)
(13.0569 4.37281 1.95413e-17)
(13.1292 4.36183 -1.60615e-19)
(13.1987 4.34822 1.98998e-17)
(13.2659 4.33181 -3.04623e-17)
(13.3308 4.31246 -2.01135e-17)
(13.3939 4.29007 2.0436e-17)
(13.4552 4.26439 5.0077e-18)
(13.5143 4.23501 0)
(13.5709 4.20157 0)
(13.6248 4.16393 -5.08651e-18)
(13.6756 4.12209 2.23086e-17)
(13.7229 4.07604 -4.39652e-17)
(13.7662 4.02583 1.92625e-17)
(13.8049 3.97159 2.40277e-18)
(13.8385 3.91358 2.37799e-18)
(13.8664 3.8521 -1.12836e-18)
(13.8871 3.79243 1.70233e-17)