/*--------------------------------*- C++ -*----------------------------------*\
| =========                 |                                                 |
| \\      /  F ield         | OpenFOAM: The Open Source CFD Toolbox           |
|  \\    /   O peration     | Version:  5.x                                   |
|   \\  /    A nd           | Web:      www.OpenFOAM.org                      |
|    \\/     M anipulation  |                                                 |
\*---------------------------------------------------------------------------*/
FoamFile
{
    version     2.0;
    format      ascii;
    class       volVectorField;
    location    "250";
    object      U;
}
// * * * * * * * * * * * * * * * * * * * * * * * * * * * * * * * * * * * * * //

dimensions      [0 1 -1 0 0 0 0];

internalField   nonuniform List<vector> 
11040
(
(-3.53317 22.5352 0)
(-0.132225 28.3539 -1.72209e-19)
(5.88699 32.0341 1.67653e-17)
(11.6859 31.5839 1.96538e-17)
(16.3679 29.2131 4.34536e-17)
(19.827 25.8818 -2.14044e-17)
(22.181 22.1538 -2.13028e-17)
(23.6061 18.3919 2.17614e-17)
(24.2713 14.8288 4.95066e-17)
(24.2642 11.5523 1.61514e-18)
(23.2678 8.303 2.44468e-17)
(21.6929 5.6097 -1.31856e-18)
(20.3993 3.92167 2.10487e-17)
(19.6995 3.0067 1.98919e-17)
(19.0963 2.27975 1.58318e-17)
(18.3095 1.57511 9.32105e-18)
(17.3654 0.93632 -7.30499e-18)
(16.3548 0.388745 -6.01188e-19)
(15.3061 -0.0723234 6.25534e-19)
(14.2171 -0.452194 3.29768e-18)
(13.0771 -0.753536 2.18377e-18)
(12.0365 -0.949827 1.23711e-18)
(11.094 -1.06841 3.77142e-19)
(10.1452 -1.14206 -1.56747e-19)
(9.18556 -1.17522 -6.73841e-20)
(8.21272 -1.17026 2.22503e-19)
(7.22267 -1.13006 -1.93363e-17)
(6.20991 -1.05875 4.38625e-19)
(5.16444 -0.957424 -3.45785e-17)
(4.08965 -0.818806 4.41763e-17)
(3.03229 -0.647094 8.65855e-19)
(1.99792 -0.458855 6.04266e-19)
(1.02923 -0.262315 -7.59552e-19)
(0.150963 -0.0703178 0)
(-0.580199 0.109493 2.80535e-16)
(-1.10817 0.277827 0)
(-1.76096 0.506985 0)
(-2.76733 0.75482 -3.25777e-19)
(-3.80083 0.799299 3.12975e-19)
(-4.15178 0.311068 -1.2605e-16)
(-2.61187 -0.449888 -1.54285e-16)
(0.134172 21.9624 0)
(4.03514 26.3662 0)
(11.3233 28.3567 -9.88786e-18)
(17.7262 27.658 1.07697e-17)
(22.5239 25.8091 -2.69391e-17)
(26.0743 23.6721 2.83932e-17)
(28.6045 21.2725 1.37275e-17)
(30.2063 18.6447 1.8078e-18)
(30.9945 15.8824 -1.06747e-18)
(31.1086 13.1145 1.55497e-17)
(30.4576 10.2207 -1.75471e-18)
(28.8832 7.68052 0)
(26.948 5.84242 0)
(25.2619 4.53565 -1.04896e-17)
(23.8993 3.38043 -1.06682e-17)
(22.6141 2.38166 -7.34775e-18)
(21.3367 1.55693 0)
(20.0698 0.872535 3.40314e-19)
(18.8009 0.30171 -9.1949e-19)
(17.5135 -0.166265 -4.46447e-19)
(16.1936 -0.537861 -1.36734e-18)
(14.9893 -0.791944 -6.706e-19)
(13.9228 -0.956788 1.966e-20)
(12.8656 -1.06859 -9.64947e-19)
(11.8074 -1.13285 1.93439e-18)
(10.7409 -1.15336 2.16576e-19)
(9.65904 -1.13404 9.30714e-18)
(8.55451 -1.07793 -2.05083e-19)
(7.42449 -0.987591 1.55166e-17)
(6.26643 -0.864041 -1.89032e-17)
(5.07354 -0.709493 -2.30298e-17)
(3.86741 -0.532628 2.77692e-17)
(2.67819 -0.345356 2.27015e-20)
(1.55131 -0.157975 -8.89542e-19)
(0.545016 0.0228023 -4.61685e-17)
(-0.269773 0.194838 0)
(-1.15998 0.44531 -3.76362e-19)
(-2.13722 0.742171 8.20405e-17)
(-2.69552 0.922441 7.24905e-17)
(-2.3423 0.537962 6.74091e-17)
(-1.89353 -0.781796 1.10727e-16)
(2.04371 21.2259 0)
(5.70846 24.5906 0)
(10.8713 26.5248 2.72516e-18)
(15.8307 26.8017 -7.742e-18)
(19.9551 25.8224 8.26207e-18)
(23.4086 24.0625 -1.04971e-17)
(26.2509 21.8195 -8.48288e-18)
(28.4396 19.3007 0)
(29.9617 16.6505 -1.3736e-17)
(30.8581 13.9753 -8.13661e-18)
(31.0908 11.2025 0)
(30.462 8.72918 0)
(29.2515 6.81916 -8.44969e-18)
(27.9277 5.35604 -7.66564e-18)
(26.6316 4.0477 -8.15318e-19)
(25.2905 2.91056 8.41721e-19)
(23.9055 1.96053 0)
(22.5176 1.16811 0)
(21.1342 0.508093 2.23254e-19)
(19.743 -0.0326434 -2.72957e-19)
(18.3284 -0.462975 2.7802e-19)
(17.0421 -0.767413 -4.2426e-19)
(15.9056 -0.966284 -1.01983e-19)
(14.785 -1.10375 -5.28325e-19)
(13.67 -1.18785 -8.51076e-20)
(12.5525 -1.22359 -1.44049e-19)
(11.4247 -1.21542 -9.04183e-20)
(10.2787 -1.16678 2.28271e-19)
(9.10838 -1.08069 0)
(7.90961 -0.960022 0)
(6.67893 -0.808841 2.76218e-17)
(5.4255 -0.635371 -3.16247e-17)
(4.16957 -0.450556 1.79721e-17)
(2.94757 -0.266455 0)
(1.80473 -0.090413 2.40533e-17)
(0.821728 0.0895326 2.78966e-17)
(-0.114198 0.328572 0)
(-1.00315 0.541004 2.82213e-19)
(-1.51553 0.592445 -1.96426e-19)
(-1.324 0.143437 0)
(-1.70836 -1.25522 -5.25305e-17)
(3.92758 20.3387 5.32844e-20)
(7.35512 22.9773 -4.94153e-20)
(11.3883 24.6017 7.86367e-19)
(15.6974 25.0276 0)
(19.5745 24.3322 -9.70971e-18)
(22.8385 22.9078 0)
(25.5036 21.0148 1.92978e-17)
(27.5695 18.8151 -6.29611e-20)
(29.0563 16.4482 1.93513e-18)
(30.0194 14.0308 1.29689e-17)
(30.4706 11.5315 1.91136e-18)
(30.2866 9.21882 5.26659e-18)
(29.6006 7.35266 1.49949e-17)
(28.7324 5.89426 6.09206e-18)
(27.8079 4.59235 0)
(26.7578 3.42104 -1.11822e-18)
(25.5699 2.40505 1.95831e-19)
(24.2944 1.53665 -7.57515e-19)
(22.9646 0.800732 -3.02251e-19)
(21.5901 0.188783 3.07838e-19)
(20.1699 -0.304669 6.69909e-19)
(18.8666 -0.658158 3.85433e-19)
(17.7073 -0.89414 0)
(16.561 -1.0627 1.03194e-18)
(15.4199 -1.17269 -1.19818e-18)
(14.2774 -1.2297 1.72887e-18)
(13.1264 -1.23867 -4.7247e-18)
(11.9593 -1.20362 0)
(10.7695 -1.1281 0)
(9.55184 -1.01593 0)
(8.30303 -0.872165 -9.97706e-18)
(7.02611 -0.704997 1.17398e-17)
(5.73241 -0.525757 -4.12159e-19)
(4.44577 -0.347763 -1.49168e-17)
(3.19803 -0.178924 -1.57427e-17)
(2.06874 0.000109504 -1.85828e-17)
(1.05992 0.223616 -4.01446e-17)
(0.178983 0.380888 -4.12064e-17)
(-0.45241 0.365107 -1.61786e-19)
(-0.442133 -0.0819587 -3.72426e-17)
(-1.42966 -1.45725 2.16811e-17)
(5.78891 19.3239 0)
(8.81466 21.3935 -4.50855e-20)
(12.0396 22.7205 -4.73039e-19)
(15.5819 23.2861 3.0733e-19)
(18.9644 22.9905 7.17072e-18)
(21.9546 22.0124 -7.78243e-18)
(24.5215 20.5092 -1.89708e-18)
(26.6042 18.6154 -9.95984e-18)
(28.1606 16.4784 0)
(29.2118 14.2316 -1.20142e-17)
(29.7805 11.8911 0)
(29.8048 9.66589 -3.01756e-18)
(29.3742 7.80379 -7.94463e-18)
(28.7413 6.32168 0)
(28.0548 5.0234 4.19978e-18)
(27.2721 3.85006 0)
(26.3527 2.81576 0)
(25.3153 1.91638 7.857e-19)
(24.1815 1.13883 6.39014e-19)
(22.9606 0.477497 0)
(21.656 -0.0678106 -5.45897e-19)
(20.4297 -0.467496 0)
(19.3185 -0.742057 0)
(18.2061 -0.944682 -3.70854e-19)
(17.0893 -1.08422 0)
(15.9648 -1.16658 1.34654e-18)
(14.8276 -1.19699 3.67856e-18)
(13.6719 -1.1799 0)
(12.492 -1.11939 0)
(11.2828 -1.01993 0)
(10.0411 -0.887341 8.1519e-18)
(8.76637 -0.730298 7.87111e-18)
(7.46318 -0.560741 -9.47169e-18)
(6.14396 -0.392375 -3.24921e-19)
(4.82611 -0.234796 3.73189e-19)
(3.57357 -0.0695612 0)
(2.45291 0.128338 2.95588e-17)
(1.50918 0.248685 -3.15303e-17)
(0.711867 0.192372 3.34589e-17)
(0.479619 -0.200294 3.47307e-17)
(-0.859926 -1.47924 4.01277e-20)
(7.50186 18.2259 -1.3629e-19)
(10.0986 19.843 6.60844e-20)
(12.721 20.9137 3.16105e-20)
(15.5997 21.5213 2.83964e-19)
(18.4933 21.4932 -1.14894e-18)
(21.1784 20.8737 7.63035e-18)
(23.5825 19.7571 -9.46288e-18)
(25.6263 18.2305 8.1525e-18)
(27.2337 16.4079 3.99046e-18)
(28.3879 14.4087 -2.04964e-18)
(29.0952 12.2724 0)
(29.3078 10.1626 0)
(29.0734 8.30548 1.85334e-18)
(28.5879 6.7721 -1.95468e-18)
(28.0146 5.44323 -6.67702e-18)
(27.366 4.25422 1.40059e-18)
(26.6135 3.2037 -2.65994e-18)
(25.7629 2.28623 1.42809e-19)
(24.8249 1.48664 -7.88457e-19)
(23.799 0.796697 1.36589e-18)
(22.6791 0.21683 -1.17176e-18)
(21.6041 -0.218385 2.56695e-19)
(20.6107 -0.525836 -7.83352e-20)
(19.6003 -0.760162 1.20376e-19)
(18.5721 -0.92951 -8.09769e-19)
(17.525 -1.03935 -1.42646e-20)
(16.4564 -1.09457 -3.38628e-18)
(15.3622 -1.09954 -3.29161e-18)
(14.2383 -1.05847 0)
(13.0803 -0.976155 0)
(11.8849 -0.858862 -5.66983e-18)
(10.6503 -0.715644 -1.40055e-17)
(9.37631 -0.55881 -4.83668e-19)
(8.0671 -0.402289 8.38296e-18)
(6.72746 -0.257841 9.82061e-18)
(5.3983 -0.114269 -1.05684e-17)
(4.16079 0.0466792 3.49685e-19)
(3.09922 0.134206 4.86037e-17)
(2.12958 0.0509071 -5.29247e-17)
(1.57745 -0.275334 1.15231e-19)
(0.116208 -1.35377 2.09274e-17)
(9.04332 17.084 0)
(11.2389 18.3412 -2.47074e-19)
(13.3913 19.2007 -1.34414e-19)
(15.7245 19.7821 1.61563e-19)
(18.1439 19.9186 1.56468e-18)
(20.4836 19.5827 2.72573e-18)
(22.6659 18.81 -6.2021e-18)
(24.6099 17.6439 2.35306e-18)
(26.2242 16.161 0)
(27.4636 14.4554 2.99459e-18)
(28.3163 12.5735 -5.95861e-18)
(28.7311 10.6385 5.9833e-18)
(28.7121 8.83968 -2.47986e-19)
(28.3915 7.28137 0)
(27.9218 5.9176 1.44894e-18)
(27.3589 4.70082 1.68253e-19)
(26.6995 3.62203 1.13381e-18)
(25.9535 2.67775 9.07779e-19)
(25.1364 1.85439 -3.54612e-19)
(24.2513 1.14103 -3.85412e-19)
(23.2907 0.53556 5.61549e-19)
(22.3681 0.0745113 2.90483e-19)
(21.5126 -0.257529 0)
(20.6375 -0.516947 1.96028e-19)
(19.7412 -0.711647 7.15773e-19)
(18.8215 -0.846757 -9.90467e-19)
(17.8755 -0.926657 9.20399e-19)
(16.8993 -0.955322 3.01508e-18)
(15.8888 -0.936713 -4.79557e-19)
(14.8394 -0.875504 -5.78186e-20)
(13.7471 -0.777936 -3.55293e-18)
(12.6081 -0.652937 -1.27775e-18)
(11.4193 -0.51263 -5.16002e-18)
(10.1787 -0.370837 0)
(8.88236 -0.240899 -7.09934e-18)
(7.54953 -0.121327 8.27652e-18)
(6.24157 -0.00317172 -8.77275e-18)
(5.05244 0.0498178 -3.70431e-17)
(3.91636 -0.0520303 2.0114e-17)
(3.05013 -0.316937 9.09123e-20)
(1.51221 -1.14594 -4.41906e-17)
(10.4048 15.9313 8.95315e-19)
(12.2481 16.9044 -2.43957e-19)
(14.025 17.5912 -2.25453e-19)
(15.9204 18.11 -3.4105e-19)
(17.9129 18.3279 -1.14023e-18)
(19.8998 18.1922 -3.37935e-18)
(21.8194 17.7009 3.65289e-18)
(23.6029 16.8628 4.96932e-18)
(25.1617 15.717 -3.53024e-18)
(26.4372 14.3268 0)
(27.4035 12.7324 -2.14851e-18)
(28.0048 11.0237 3.74564e-20)
(28.2096 9.34773 -9.35926e-20)
(28.0883 7.81646 2.01448e-18)
(27.7612 6.4406 1.86461e-18)
(27.3027 5.20336 -1.93259e-18)
(26.7325 4.09679 0)
(26.0668 3.1203 0)
(25.3273 2.26626 1.2829e-18)
(24.527 1.52482 -1.07645e-18)
(23.6671 0.892664 1.42266e-19)
(22.8499 0.407606 -3.04591e-19)
(22.0998 0.0541596 -2.63764e-20)
(21.3401 -0.226143 0)
(20.5683 -0.441553 2.87827e-19)
(19.7817 -0.597586 -2.94157e-19)
(18.9764 -0.698727 -9.67264e-19)
(18.1477 -0.748915 0)
(17.2903 -0.752015 0)
(16.3987 -0.712531 4.38216e-19)
(15.4664 -0.636454 3.83778e-18)
(14.4867 -0.532216 3.71142e-18)
(13.4524 -0.411254 8.59826e-18)
(12.3559 -0.286839 6.10502e-19)
(11.1861 -0.172848 0)
(9.94606 -0.0758863 -3.68927e-19)
(8.66578 0.00209874 6.76291e-18)
(7.41367 0.0195596 -3.04143e-20)
(6.15466 -0.0949808 1.5565e-17)
(5.03963 -0.32626 1.70776e-17)
(3.40003 -0.905996 2.0308e-17)
(11.5911 14.796 -5.50005e-19)
(13.1349 15.5466 -5.79937e-21)
(14.6077 16.0924 4.81366e-19)
(16.1535 16.5347 -7.17116e-19)
(17.7809 16.7763 0)
(19.4349 16.7656 1.03541e-18)
(21.0774 16.4832 -1.92334e-18)
(22.6581 15.9168 -3.02087e-18)
(24.1035 15.0777 2.1787e-18)
(25.3548 13.9987 2.85789e-18)
(26.3798 12.7063 1.8558e-19)
(27.1213 11.2597 -5.81355e-18)
(27.5259 9.76468 0)
(27.6135 8.32145 1.3196e-18)
(27.4626 6.97494 -3.08569e-18)
(27.1435 5.74098 -1.28901e-18)
(26.6892 4.62141 -1.12933e-18)
(26.1211 3.62001 1.16693e-18)
(25.4633 2.73582 -4.18124e-19)
(24.7357 1.96322 0)
(23.948 1.30075 4.44219e-19)
(23.2001 0.788926 -5.88632e-19)
(22.5178 0.412109 -4.30981e-20)
(21.8341 0.109982 -1.09654e-19)
(21.1491 -0.125939 4.70171e-19)
(20.4619 -0.301762 -4.79991e-19)
(19.7704 -0.422434 0)
(19.0712 -0.492225 2.44361e-18)
(18.3599 -0.515233 1.13555e-18)
(17.6313 -0.496037 6.24313e-19)
(16.8787 -0.440471 -2.95862e-18)
(16.0934 -0.356442 -8.50918e-19)
(15.2648 -0.25453 8.13997e-19)
(14.3801 -0.14724 -4.92135e-19)
(13.4216 -0.0483636 -3.08163e-18)
(12.3793 0.0306598 -5.46124e-19)
(11.2552 0.0794242 0)
(10.077 0.0688072 1.04778e-17)
(8.81172 -0.0510045 -1.14199e-17)
(7.5826 -0.266974 -1.24698e-17)
(5.86781 -0.666135 0)
(12.6133 13.7009 0)
(13.9067 14.2782 0)
(15.1315 14.7088 0)
(16.3976 15.0739 2.12398e-18)
(17.7229 15.3044 -7.36148e-19)
(19.0816 15.3602 1.45456e-19)
(20.456 15.2182 -1.75856e-19)
(21.8147 14.8582 -4.25485e-19)
(23.1042 14.2744 1.198e-18)
(24.2753 13.477 1.81079e-18)
(25.2971 12.4769 -1.77026e-18)
(26.1165 11.3067 2.3845e-18)
(26.6708 10.0341 -2.21583e-19)
(26.9458 8.73658 2.22298e-18)
(26.9799 7.47088 -3.97193e-18)
(26.8237 6.27667 3.16043e-18)
(26.5116 5.17017 1.67274e-18)
(26.0675 4.16203 -1.72427e-18)
(25.5155 3.25848 6.50594e-19)
(24.8776 2.45969 0)
(24.1686 1.76753 5.52746e-19)
(23.4856 1.22753 -4.12529e-19)
(22.8581 0.825097 6.64002e-20)
(22.2296 0.498558 -1.52368e-19)
(21.6034 0.239496 5.48091e-19)
(20.9815 0.0414766 0)
(20.365 -0.100805 0)
(19.7537 -0.191929 -7.2649e-19)
(19.1466 -0.236244 -4.54611e-18)
(18.5416 -0.238426 -2.09723e-18)
(17.9349 -0.204115 2.39826e-18)
(17.3206 -0.140596 6.73494e-19)
(16.6893 -0.0573812 -3.53236e-18)
(16.0278 0.0341077 -7.69494e-19)
(15.3165 0.120701 4.81493e-18)
(14.5372 0.188984 -8.32947e-19)
(13.6731 0.224491 -3.55937e-18)
(12.7189 0.204313 4.74296e-19)
(11.6209 0.0948643 7.62105e-18)
(10.4791 -0.0962787 0)
(8.83631 -0.396402 0)
(13.4858 12.6634 0)
(14.5711 13.1061 0)
(15.5929 13.4428 -2.05151e-19)
(16.6341 13.7365 -1.88198e-18)
(17.7137 13.9385 0)
(18.8215 14.0208 -9.00666e-19)
(19.9533 13.9642 2.65394e-19)
(21.0928 13.748 0)
(22.2051 13.3593 -1.59555e-18)
(23.2548 12.795 1.84314e-19)
(24.2176 12.0548 -4.01324e-19)
(25.0496 11.1504 1.32122e-18)
(25.6899 10.1181 -1.65939e-18)
(26.1062 9.00883 0)
(26.3058 7.87424 -2.44221e-18)
(26.3146 6.76344 2.86814e-18)
(26.1577 5.70484 0)
(25.8565 4.71721 0)
(25.4325 3.81411 3.47351e-19)
(24.9075 3.00252 -1.41046e-18)
(24.2976 2.28875 5.83295e-19)
(23.6937 1.72432 0)
(23.1287 1.29728 1.35638e-19)
(22.5574 0.945825 2.40522e-19)
(21.9853 0.66198 -3.91659e-19)
(21.4168 0.439338 3.8955e-19)
(20.8553 0.272458 0)
(20.3034 0.156571 0)
(19.7631 0.0871543 -7.59844e-19)
(19.2358 0.059506 3.39046e-18)
(18.7215 0.0682699 -1.88135e-18)
(18.2191 0.106939 1.97198e-18)
(17.7244 0.167371 1.08028e-18)
(17.2294 0.239825 0)
(16.7197 0.312816 1.85006e-18)
(16.1786 0.373602 -1.91202e-20)
(15.5838 0.407722 6.17933e-18)
(14.9166 0.397445 0)
(14.1098 0.318252 -6.04041e-18)
(13.2339 0.178129 6.53498e-18)
(11.8889 -0.055516 0)
(14.2241 11.6954 0)
(15.1365 12.0338 -1.34406e-18)
(15.9913 12.2944 1.18561e-18)
(16.8509 12.5254 0)
(17.7321 12.6927 1.28775e-18)
(18.6328 12.7776 -9.4653e-19)
(19.5555 12.7666 -2.52342e-18)
(20.4944 12.6427 1.14016e-18)
(21.4285 12.3917 9.29442e-20)
(22.3355 12.0056 1.58307e-18)
(23.1995 11.4778 -1.7571e-18)
(23.9883 10.8071 -5.63912e-19)
(24.6504 10.0067 1.49118e-18)
(25.1487 9.10442 -7.13239e-19)
(25.4718 8.13757 2.86561e-18)
(25.624 7.15156 -1.81073e-18)
(25.6162 6.17953 -7.11641e-19)
(25.462 5.2461 -3.18421e-19)
(25.1779 4.37089 -8.92691e-19)
(24.7822 3.56744 1.73289e-18)
(24.2902 2.84714 -7.44337e-19)
(23.7823 2.26783 -3.08654e-21)
(23.2936 1.82175 1.28634e-20)
(22.7912 1.44869 0)
(22.282 1.14164 -7.6227e-19)
(21.7718 0.894603 2.35841e-19)
(21.2654 0.702249 1.32626e-18)
(20.7669 0.5598 -9.24143e-19)
(20.2796 0.462688 2.44636e-18)
(19.8069 0.406223 -1.27118e-18)
(19.351 0.38529 0)
(18.9137 0.394044 -2.44015e-18)
(18.495 0.425612 -8.56701e-19)
(18.0927 0.472086 9.63892e-19)
(17.6995 0.524345 -5.95454e-18)
(17.3063 0.572292 -1.04279e-18)
(16.8967 0.604339 -2.17493e-18)
(16.4549 0.608858 2.23857e-18)
(15.9233 0.56764 2.33847e-18)
(15.3455 0.492057 -4.76722e-18)
(14.4231 0.333744 -1.61955e-19)
(14.8436 10.8043 0)
(15.612 11.0619 7.62019e-20)
(16.3288 11.2612 1.07369e-18)
(17.041 11.4393 3.51248e-18)
(17.7625 11.5717 -2.35124e-18)
(18.4948 11.6469 4.64865e-19)
(19.2434 11.656 9.6474e-20)
(20.0081 11.5867 -2.97082e-18)
(20.7775 11.4268 2.39922e-20)
(21.5391 11.1672 -2.91024e-20)
(22.2844 10.8003 7.48834e-19)
(22.9922 10.3183 -7.49781e-19)
(23.6235 9.72108 -4.42445e-19)
(24.145 9.01902 6.16146e-19)
(24.5383 8.23439 0)
(24.7938 7.40121 0)
(24.9096 6.54932 2.39882e-18)
(24.8895 5.7043 -7.19086e-21)
(24.7422 4.88857 -1.58009e-18)
(24.4805 4.12019 8.10948e-20)
(24.1162 3.41482 -1.22577e-19)
(23.7158 2.83572 -2.64529e-20)
(23.3147 2.38067 1.43335e-19)
(22.8922 1.99328 0)
(22.4563 1.66814 -1.08328e-19)
(22.0137 1.40016 1.22167e-18)
(21.5701 1.18455 -1.58227e-18)
(21.1301 1.01677 1.76137e-18)
(20.6979 0.892365 -1.30851e-18)
(20.2769 0.806793 0)
(19.8704 0.755241 1.18954e-18)
(19.4807 0.732428 2.67105e-18)
(19.1095 0.732471 -1.36135e-18)
(18.7569 0.748908 1.5326e-18)
(18.4201 0.774667 8.56815e-19)
(18.0958 0.802483 -1.62378e-18)
(17.7755 0.824351 2.55552e-18)
(17.4507 0.833992 -1.79112e-18)
(17.0862 0.819851 -1.38415e-18)
(16.7057 0.794126 -2.31319e-19)
(16.1365 0.713578 3.76778e-18)
(15.3591 9.99382 -1.27322e-18)
(16.0072 10.1887 -4.44696e-18)
(16.6095 10.3391 4.33741e-18)
(17.2013 10.4734 0)
(17.794 10.5743 -1.87396e-19)
(18.3904 10.6346 0)
(18.9969 10.649 -6.91899e-18)
(19.6159 10.6091 5.11961e-18)
(20.2418 10.5059 2.55578e-18)
(20.8683 10.3311 -2.85972e-18)
(21.4922 10.0783 5.13682e-19)
(22.1008 9.73827 -2.98338e-19)
(22.667 9.30444 3.87077e-19)
(23.1652 8.77707 5.49136e-19)
(23.5772 8.16662 1.50053e-19)
(23.8884 7.4945 -7.02937e-19)
(24.0889 6.7826 6.38179e-19)
(24.1743 6.05255 -7.44206e-19)
(24.1455 5.32554 0)
(24.0086 4.62075 -1.3739e-19)
(23.7701 3.95587 3.69803e-19)
(23.48 3.39672 -2.0759e-19)
(23.1716 2.94708 7.18976e-21)
(22.8352 2.55667 0)
(22.4792 2.22207 8.88718e-20)
(22.1106 1.93974 1.25676e-19)
(21.7359 1.70596 0)
(21.3603 1.51684 0)
(20.988 1.36837 3.7231e-21)
(20.6227 1.25641 0)
(20.2674 1.1766 -1.44707e-18)
(19.9246 1.12428 0)
(19.596 1.0945 2.26809e-18)
(19.2822 1.08199 -2.34507e-18)
(18.9819 1.08122 0)
(18.6939 1.087 1.32824e-18)
(18.4144 1.09403 -1.38239e-18)
(18.139 1.09887 6.92687e-19)
(17.8509 1.09564 2.19425e-18)
(17.5615 1.09329 -1.94067e-19)
(17.1915 1.06663 -4.54624e-18)
(15.7847 9.26423 3.38243e-18)
(16.3318 9.41055 1.25919e-19)
(16.8385 9.52209 -1.91329e-18)
(17.3315 9.6211 -3.5047e-18)
(17.8199 9.69496 -7.66788e-18)
(18.3069 9.73937 8.90368e-18)
(18.7987 9.75149 -4.08882e-19)
(19.2985 9.72591 -4.1182e-18)
(19.804 9.65603 7.68599e-18)
(20.3125 9.53581 -6.43742e-19)
(20.8237 9.36007 -3.3855e-18)
(21.3309 9.12073 9.01616e-19)
(21.8163 8.80959 -1.1419e-18)
(22.262 8.42232 1.91057e-18)
(22.6536 7.9621 -2.98321e-19)
(22.9771 7.44034 0)
(23.22 6.87051 -6.88045e-20)
(23.3737 6.26788 1.53607e-19)
(23.4333 5.64929 4.14846e-19)
(23.399 5.03174 -1.02415e-18)
(23.2721 4.43204 7.40847e-19)
(23.0852 3.91414 -7.17344e-20)
(22.8674 3.48698 -5.97782e-21)
(22.6169 3.10807 -1.33134e-18)
(22.3421 2.77614 2.93165e-18)
(22.0497 2.48936 -1.71703e-18)
(21.7462 2.2454 2.02324e-18)
(21.437 2.04153 -2.47554e-18)
(21.1268 1.87462 -3.03054e-18)
(20.8192 1.74127 2.73671e-18)
(20.5172 1.63781 7.82868e-19)
(20.2231 1.5604 1.31576e-18)
(19.9387 1.50503 -4.05766e-18)
(19.6646 1.46755 3.82894e-18)
(19.4001 1.44371 -1.96489e-18)
(19.1446 1.42975 -1.04686e-18)
(18.8967 1.42217 0)
(18.6533 1.41856 -1.14553e-18)
(18.407 1.41612 -1.18516e-18)
(18.1633 1.4195 -1.20955e-18)
(17.8882 1.41629 1.25735e-18)
(16.1329 8.61358 4.22096e-21)
(16.5949 8.72214 4.59089e-19)
(17.0216 8.80311 1.67894e-18)
(17.4331 8.87408 -3.01151e-18)
(17.8366 8.92571 1.19123e-17)
(18.2355 8.95555 -1.01884e-17)
(18.6351 8.96219 1.28113e-17)
(19.0387 8.94226 6.32008e-18)
(19.4457 8.89123 -3.14727e-18)
(19.8553 8.80481 -8.93888e-19)
(20.2684 8.67929 -7.23597e-18)
(20.682 8.50856 2.74807e-19)
(21.0848 8.28506 0)
(21.465 8.00333 -6.79592e-19)
(21.8128 7.66293 8.23717e-19)
(22.1171 7.26896 -1.01015e-18)
(22.3666 6.82836 0)
(22.5517 6.35033 1.30009e-18)
(22.6653 5.84636 -2.89661e-18)
(22.7037 5.32935 1.03212e-18)
(22.6641 4.81296 -1.76711e-18)
(22.5643 4.35472 1.98902e-18)
(22.427 3.96669 7.85449e-20)
(22.2558 3.61473 -3.50866e-20)
(22.0576 3.29943 3.05314e-18)
(21.8385 3.02056 -3.08147e-18)
(21.6046 2.77724 1.08638e-19)
(21.3609 2.56794 2.43859e-19)
(21.1118 2.39063 -2.29074e-18)
(20.8612 2.24294 2.61244e-18)
(20.6119 2.12218 -3.20636e-19)
(20.3663 2.0255 3.44355e-19)
(20.1263 1.94987 -1.50038e-18)
(19.8927 1.89219 7.04435e-19)
(19.6655 1.84929 3.23944e-18)
(19.4447 1.81856 -8.0762e-19)
(19.2298 1.79762 8.94656e-19)
(19.019 1.78452 -1.80253e-18)
(18.809 1.77761 9.35396e-19)
(18.6027 1.77865 9.78672e-19)
(18.3845 1.78025 0)
(16.4145 8.03699 -5.15604e-18)
(16.8045 8.1161 9.24632e-18)
(17.1638 8.17335 8.71195e-18)
(17.5075 8.22266 -2.29246e-17)
(17.8415 8.25685 8.50238e-18)
(18.169 8.27457 -1.75615e-17)
(18.4945 8.27533 1.4241e-17)
(18.821 8.25699 -2.06532e-17)
(19.1486 8.21651 1.88903e-17)
(19.4774 8.15095 -6.14041e-19)
(19.8089 8.05779 -7.70365e-18)
(20.1416 7.93252 -7.31858e-19)
(20.4687 7.76931 -5.86457e-18)
(20.7828 7.56321 5.78526e-18)
(21.0775 7.31259 -4.59246e-18)
(21.3451 7.01921 4.99675e-18)
(21.5768 6.68606 0)
(21.7645 6.31792 -3.46239e-18)
(21.901 5.92164 4.26636e-18)
(21.9813 5.50586 -3.989e-18)
(22.0005 5.08028 -2.32524e-19)
(21.9655 4.69292 6.70009e-18)
(21.8926 4.35652 1.03542e-19)
(21.7876 4.04472 -2.60099e-18)
(21.656 3.7593 -4.97731e-24)
(21.5025 3.50118 0)
(21.3321 3.2706 -3.45337e-18)
(21.1493 3.06713 3.41439e-18)
(20.9581 2.88979 0)
(20.7616 2.73718 -2.51004e-19)
(20.5628 2.60762 0)
(20.3641 2.49921 2.35348e-18)
(20.1672 2.40993 -2.66301e-18)
(19.9735 2.33766 -2.58165e-18)
(19.7833 2.28014 5.2756e-18)
(19.5973 2.23563 -3.03711e-18)
(19.4157 2.20252 -3.54692e-19)
(19.2378 2.17918 7.37844e-19)
(19.0623 2.16441 -7.60785e-19)
(18.8908 2.15865 0)
(18.7166 2.1566 -7.8166e-19)
(16.6308 7.55168 0)
(16.9622 7.60899 -1.25451e-17)
(17.2668 7.64912 5.66612e-19)
(17.5563 7.68279 1.67546e-17)
(17.8355 7.7043 1.02545e-17)
(18.1072 7.71304 -1.05358e-17)
(18.3754 7.70903 9.58882e-18)
(18.6426 7.69091 9.16987e-18)
(18.9093 7.65657 1.72085e-17)
(19.1758 7.60398 -2.17645e-17)
(19.4435 7.53145 2.12088e-18)
(19.712 7.43573 2.03476e-18)
(19.9769 7.31233 -7.01412e-18)
(20.2334 7.15737 5.09549e-18)
(20.4777 6.96911 7.09587e-18)
(20.7043 6.74795 -5.39279e-18)
(20.9073 6.49494 -6.25303e-18)
(21.0802 6.21235 6.37933e-18)
(21.2173 5.90404 0)
(21.3136 5.57537 7.23338e-19)
(21.3642 5.23273 7.24047e-19)
(21.3694 4.91427 5.52848e-18)
(21.3403 4.63171 -1.12101e-17)
(21.2833 4.36501 5.80566e-18)
(21.202 4.11632 3.13095e-18)
(21.1 3.88709 4.55592e-20)
(20.9812 3.67822 -3.30194e-18)
(20.8491 3.48999 5.32457e-20)
(20.707 3.32216 3.76384e-21)
(20.5577 3.17413 3.97002e-18)
(20.4036 3.04496 -4.01096e-18)
(20.2469 2.93354 -2.17879e-18)
(20.0893 2.83862 2.32341e-18)
(19.9322 2.75882 -2.34774e-18)
(19.7764 2.69257 2.04899e-18)
(19.6226 2.63877 1.86941e-18)
(19.4719 2.59635 -9.34176e-19)
(19.3239 2.564 3.26333e-19)
(19.1785 2.5408 0)
(19.0366 2.52664 0)
(18.8963 2.51784 8.08986e-21)
(16.7908 7.16122 -5.77218e-18)
(17.0763 7.20303 6.43116e-18)
(17.3382 7.23101 -2.70163e-18)
(17.5858 7.25346 -5.18515e-18)
(17.823 7.26575 0)
(18.0525 7.26778 9.85882e-18)
(18.2775 7.25986 -2.35153e-17)
(18.5002 7.24107 1.44912e-17)
(18.7213 7.20993 -4.64218e-18)
(18.9411 7.16504 4.19825e-18)
(19.161 7.10525 -2.0225e-18)
(19.3807 7.02825 -1.80739e-17)
(19.5976 6.93074 3.18101e-17)
(19.8083 6.80972 -1.36556e-17)
(20.0104 6.6637 -1.63784e-18)
(20.2002 6.49253 -6.68148e-18)
(20.3736 6.29643 2.02313e-17)
(20.5258 6.07641 -8.80688e-18)
(20.6524 5.83456 -1.32088e-17)
(20.7494 5.57418 5.44578e-18)
(20.8123 5.29937 -1.50138e-18)
(20.8385 5.03984 0)
(20.8355 4.8057 0)
(20.809 4.58152 -6.44162e-18)
(20.7617 4.36939 6.44463e-18)
(20.6959 4.17088 9.96011e-20)
(20.6147 3.98713 0)
(20.5207 3.81876 3.66158e-18)
(20.4165 3.66598 -3.66836e-18)
(20.3043 3.52866 2.9296e-20)
(20.1862 3.40639 -3.17901e-20)
(20.0641 3.2986 0)
(19.9394 3.20454 2.03737e-18)
(19.8135 3.12337 -2.15108e-18)
(19.6872 3.054 2.78228e-19)
(19.5615 2.99571 -2.86167e-19)
(19.4373 2.94783 0)
(19.3149 2.9093 -3.00746e-19)
(19.1945 2.8794 -6.20423e-19)
(19.0769 2.85787 3.03283e-19)
(18.9619 2.84226 9.40152e-19)
(16.912 6.84322 0)
(17.1607 6.87371 0)
(17.3886 6.89285 -1.00601e-17)
(17.6031 6.90715 -1.95231e-17)
(17.8073 6.91278 2.97089e-17)
(18.0038 6.90998 -2.36018e-17)
(18.1954 6.89917 -8.96161e-18)
(18.384 6.87975 1.87493e-17)
(18.5701 6.85065 -1.80312e-17)
(18.7543 6.81085 1.80252e-17)
(18.9376 6.75957 0)
(19.12 6.69514 0)
(19.2996 6.61513 1.6333e-17)
(19.4742 6.51729 -3.22255e-17)
(19.6421 6.40045 3.07992e-17)
(19.801 6.26435 -1.4976e-17)
(19.9477 6.10889 -1.86619e-18)
(20.0789 5.93448 1.6397e-17)
(20.1913 5.74228 -1.11202e-17)
(20.2817 5.53431 0)
(20.3466 5.31318 7.74076e-19)
(20.3822 5.10195 0)
(20.3936 4.90893 -7.12853e-18)
(20.3857 4.72214 1.39045e-17)
(20.3604 4.54337 -6.77505e-18)
(20.3193 4.37411 0)
(20.2646 4.21547 0)
(20.1983 4.0682 3.44484e-18)
(20.1224 3.93272 -3.6762e-18)
(20.0386 3.80915 -3.8567e-18)
(19.9487 3.6974 3.88301e-18)
(19.8541 3.59722 4.03973e-18)
(19.7561 3.50822 -4.05038e-18)
(19.656 3.42988 0)
(19.5545 3.36146 -3.36091e-20)
(19.4525 3.30252 0)
(19.351 3.25262 -8.69341e-21)
(19.2504 3.21091 -3.53009e-20)
(19.1509 3.17684 1.22394e-18)
(19.0534 3.15014 -1.73289e-18)
(18.9582 3.12921 5.72445e-19)
(17.0054 6.57946 0)
(17.2241 6.60151 -1.21268e-18)
(17.4242 6.61412 0)
(17.6117 6.62244 9.33759e-18)
(17.7894 6.62323 -9.21739e-18)
(17.9596 6.61695 0)
(18.1247 6.6041 8.9843e-18)
(18.2863 6.58424 8.66801e-18)
(18.445 6.5566 -2.27516e-17)
(18.6013 6.52045 0)
(18.756 6.47522 1.7181e-17)
(18.9093 6.41971 -3.42962e-17)
(19.0596 6.35212 1.70619e-17)
(19.2056 6.27079 0)
(19.3461 6.17483 -1.58796e-17)
(19.4792 6.06401 1.76432e-17)
(19.603 5.93814 1.66841e-17)
(19.715 5.79741 -1.84057e-17)
(19.8127 5.64247 -1.70634e-18)
(19.8938 5.47459 0)
(19.9554 5.29546 0)
(19.9937 5.12304 -9.0293e-19)
(20.0123 4.96402 4.13219e-19)
(20.0153 4.80894 7.03828e-18)
(20.0038 4.6593 5.37412e-19)
(19.9792 4.51634 -7.05311e-18)
(19.9429 4.38108 7.25064e-18)
(19.8966 4.25424 -7.0151e-18)
(19.8416 4.13628 -4.21179e-18)
(19.7794 4.02746 3.73044e-18)
(19.7113 3.92783 -3.86174e-18)
(19.6385 3.83735 3.85312e-18)
(19.5621 3.75581 0)
(19.483 3.68293 -4.30431e-18)
(19.402 3.61819 4.06985e-18)
(19.32 3.56132 0)
(19.2377 3.51205 8.1268e-21)
(19.1555 3.46972 1.10177e-18)
(19.0739 3.43391 -1.13163e-18)
(18.9934 3.40437 5.12129e-19)
(18.9146 3.38013 -5.33653e-19)
(17.0788 6.35743 0)
(17.2724 6.37309 1.11671e-18)
(17.4492 6.38083 -8.94871e-18)
(17.6145 6.3847 1.74874e-17)
(17.7704 6.38197 -3.52887e-17)
(17.9191 6.37322 1.77896e-17)
(18.0626 6.35898 0)
(18.2025 6.33894 8.60716e-18)
(18.3392 6.31254 5.17253e-17)
(18.4732 6.27922 -3.48935e-17)
(18.6052 6.2386 0)
(18.7352 6.1898 -4.32625e-18)
(18.8623 6.13146 1.23583e-17)
(18.9854 6.06237 -3.10119e-19)
(19.1036 5.98188 -1.64913e-17)
(19.2157 5.88981 1.78594e-17)
(19.3202 5.78602 -1.55205e-17)
(19.4154 5.67056 1.48646e-17)
(19.4994 5.54388 -1.48762e-17)
(19.5704 5.4068 -1.45851e-17)
(19.6264 5.26043 1.25724e-17)
(19.6638 5.1189 -6.2929e-18)
(19.6852 4.98753 7.98697e-18)
(19.6941 4.85876 -7.54386e-18)
(19.6911 4.73378 -1.39988e-18)
(19.6772 4.61362 7.12266e-18)
(19.6536 4.49913 0)
(19.6214 4.39093 0)
(19.5818 4.28948 -6.94325e-18)
(19.5357 4.19504 7.36878e-18)
(19.4843 4.10777 0)
(19.4285 4.02767 4.81073e-19)
(19.3692 3.95468 4.85631e-19)
(19.3071 3.88863 4.14091e-18)
(19.243 3.82916 -4.13468e-18)
(19.1775 3.77612 -1.99067e-18)
(19.1113 3.72934 1.98294e-18)
(19.0447 3.6883 -7.59839e-19)
(18.9782 3.6527 2.03017e-18)
(18.9122 3.62232 -9.84715e-19)
(18.8473 3.59665 -1.26547e-19)
(17.1371 6.16821 8.24757e-18)
(17.3095 6.179 1.00772e-17)
(17.4667 6.18306 -1.82186e-19)
(17.6132 6.18363 0)
(17.7509 6.17834 0)
(17.8817 6.16787 0)
(18.0075 6.15274 0)
(18.1295 6.13275 -3.32626e-17)
(18.2482 6.10747 5.88704e-17)
(18.364 6.07651 -3.38259e-17)
(18.4775 6.03957 3.31968e-17)
(18.5889 5.99601 -2.10675e-17)
(18.6972 5.94484 3.68705e-17)
(18.8017 5.88514 -4.51711e-17)
(18.9018 5.81647 1.64007e-17)
(18.9967 5.73871 1.19489e-17)
(19.0852 5.65176 -1.56147e-17)
(19.166 5.55567 1.8455e-18)
(19.2377 5.45073 -1.91172e-18)
(19.2992 5.33754 1.85263e-17)
(19.3488 5.21686 1.62854e-17)
(19.3835 5.09987 -2.69752e-17)
(19.4053 4.99083 -8.65269e-19)
(19.4168 4.88363 0)
(19.4188 4.77918 8.65678e-19)
(19.4117 4.67832 -9.10286e-19)
(19.3966 4.58172 -6.27885e-18)
(19.3744 4.48993 7.16395e-18)
(19.3458 4.40331 -7.27167e-18)
(19.3117 4.32214 7.24437e-18)
(19.2729 4.24655 7.36965e-18)
(19.2302 4.17662 -7.7948e-18)
(19.1842 4.11232 -4.57799e-19)
(19.1357 4.05356 3.76377e-18)
(19.0851 4.00008 -3.03862e-18)
(19.033 3.9518 0)
(18.98 3.90862 0)
(18.9263 3.87013 -2.38146e-19)
(18.8725 3.8361 4.85331e-19)
(18.8188 3.80637 4.87195e-19)
(18.7656 3.78074 1.18535e-19)
(17.1841 6.00529 0)
(17.3381 6.01232 -1.9093e-18)
(17.4786 6.01362 1.53284e-17)
(17.6091 6.01171 -1.56559e-17)
(17.7313 6.00459 -3.10623e-17)
(17.8471 5.99295 3.18768e-17)
(17.958 5.97733 1.55792e-17)
(18.0651 5.95757 -3.23216e-17)
(18.1689 5.93337 -3.19922e-17)
(18.2697 5.90444 3.25666e-17)
(18.368 5.87057 0)
(18.464 5.83129 -1.61574e-17)
(18.5569 5.78585 3.20384e-17)
(18.6463 5.73359 -3.62176e-17)
(18.7316 5.67421 0)
(18.8123 5.60764 -4.01396e-18)
(18.8874 5.53383 3.92269e-18)
(18.9561 5.45285 0)
(19.0173 5.36491 1.81874e-18)
(19.0702 5.27047 -3.59301e-18)
(19.1134 5.17007 1.63598e-17)
(19.1446 5.07267 -1.60947e-17)
(19.1653 4.98165 1.80623e-18)
(19.1778 4.89203 1.32589e-17)
(19.1824 4.80453 -1.31882e-17)
(19.1796 4.71979 8.62356e-19)
(19.1702 4.63835 -7.9452e-18)
(19.1548 4.56065 7.04977e-18)
(19.1341 4.487 8.99575e-19)
(19.1087 4.41761 0)
(19.0794 4.35263 0)
(19.0466 4.29211 0)
(19.0109 4.23608 -3.61423e-18)
(18.9729 4.18446 3.5978e-18)
(18.9331 4.13709 -4.4846e-19)
(18.8917 4.09389 -3.65724e-18)
(18.8494 4.05482 4.09949e-18)
(18.8063 4.01957 0)
(18.7628 3.98794 5.9137e-21)
(18.7193 3.95983 -9.20741e-19)
(18.6758 3.93523 4.49073e-19)
(17.2221 5.86376 7.04369e-18)
(17.3604 5.8679 0)
(17.4863 5.8671 -3.55521e-17)
(17.603 5.86335 2.92022e-17)
(17.712 5.85493 0)
(17.8149 5.84255 2.95992e-17)
(17.9132 5.82672 -2.29263e-19)
(18.0077 5.80735 3.03093e-17)
(18.0989 5.78421 -4.64845e-17)
(18.1872 5.75709 -3.0799e-17)
(18.2729 5.72585 3.13458e-17)
(18.3561 5.69015 7.70762e-18)
(18.4364 5.64944 0)
(18.5132 5.60323 0)
(18.5863 5.55131 -7.85385e-18)
(18.6552 5.49369 3.46069e-17)
(18.7192 5.43035 -6.83406e-17)
(18.7777 5.36137 2.99211e-17)
(18.8299 5.28693 3.72772e-18)
(18.8752 5.2074 3.68709e-18)
(18.9126 5.12317 -1.75507e-18)
(18.9402 5.04149 2.64715e-17)