/*--------------------------------*- C++ -*----------------------------------*\
| =========                 |                                                 |
| \\      /  F ield         | OpenFOAM: The Open Source CFD Toolbox           |
|  \\    /   O peration     | Version:  5.x                                   |
|   \\  /    A nd           | Web:      www.OpenFOAM.org                      |
|    \\/     M anipulation  |                                                 |
\*---------------------------------------------------------------------------*/
FoamFile
{
    version     2.0;
    format      ascii;
    class       volVectorField;
    location    "250";
    object      U;
}
// * * * * * * * * * * * * * * * * * * * * * * * * * * * * * * * * * * * * * //

dimensions      [0 1 -1 0 0 0 0];

internalField   nonuniform List<vector> 
11040
(
(1.69354 2.16484 0)
(1.84391 7.86868 -1.06628e-19)
(4.31553 12.8078 1.10255e-17)
(7.65097 15.6129 1.4358e-17)
(11.1721 16.8269 3.83053e-17)
(14.4196 16.8642 -2.11881e-17)
(17.1991 16.0904 -2.21529e-17)
(19.4741 14.8085 2.35287e-17)
(21.1734 13.1522 5.63451e-17)
(22.2162 11.1887 1.83727e-18)
(22.342 8.79924 3.1344e-17)
(21.8383 6.53677 -1.97711e-18)
(21.3651 4.92565 3.26448e-17)
(21.2316 3.91335 3.44802e-17)
(21.1225 3.05602 3.04378e-17)
(20.854 2.24089 2.02053e-17)
(20.4429 1.49587 -1.8144e-17)
(19.9559 0.831958 -1.96827e-18)
(19.424 0.241055 1.99532e-18)
(18.8593 -0.283456 1.54885e-17)
(18.2615 -0.74377 1.51797e-17)
(17.7248 -1.11087 1.58418e-17)
(17.2383 -1.38677 3.05188e-17)
(16.757 -1.61878 1.9678e-18)
(16.2804 -1.81518 -2.55076e-20)
(15.8094 -1.98049 -9.81354e-19)
(15.3427 -2.11879 6.10285e-17)
(14.8781 -2.23344 -9.32658e-19)
(14.4124 -2.32703 6.09234e-17)
(13.9423 -2.40157 -5.85382e-17)
(13.463 -2.4585 -9.34448e-19)
(12.9686 -2.49859 -4.49867e-19)
(12.451 -2.52173 4.60659e-19)
(11.9007 -2.52672 0)
(11.3006 -2.51113 -1.14745e-16)
(10.6334 -2.4706 0)
(9.86822 -2.39571 0)
(8.97946 -2.27753 2.21124e-19)
(7.82519 -2.07678 -5.99307e-21)
(6.54451 -1.78735 1.26404e-16)
(3.82976 -1.41496 2.95652e-16)
(2.82616 2.93395 0)
(3.32874 7.36155 0)
(6.15705 11.1214 -6.6375e-18)
(9.61878 13.3036 8.83409e-18)
(13.1549 14.2366 -2.32403e-17)
(16.3894 14.2235 2.82755e-17)
(19.1469 13.5365 1.47855e-17)
(21.3754 12.391 2.12259e-18)
(23.1354 10.9863 -1.00702e-18)
(24.5127 9.48639 2.22812e-17)
(25.4294 7.77415 -2.49703e-18)
(25.5235 6.1797 0)
(25.0687 4.98201 0)
(24.5594 4.07213 -2.08869e-17)
(24.1668 3.14755 -2.35911e-17)
(23.7276 2.26717 -1.84091e-17)
(23.2235 1.48442 0)
(22.6776 0.788544 1.27519e-18)
(22.0941 0.165306 -3.80991e-18)
(21.4717 -0.388964 -2.49477e-18)
(20.8098 -0.876085 -1.09402e-17)
(20.1954 -1.26209 -1.02751e-17)
(19.651 -1.55489 -1.25727e-18)
(19.1177 -1.80421 2.1488e-17)
(18.5935 -2.01729 -1.8755e-17)
(18.0774 -2.19761 -1.26802e-18)
(17.5689 -2.34966 -3.91239e-17)
(17.0662 -2.47688 5.96353e-19)
(16.5669 -2.58197 -3.88119e-17)
(16.0681 -2.66709 3.77071e-17)
(15.566 -2.73386 3.77624e-17)
(15.0557 -2.78322 -3.78073e-17)
(14.5307 -2.81516 1.78719e-20)
(13.9833 -2.82856 8.37627e-19)
(13.4006 -2.82152 3.46061e-17)
(12.7688 -2.7895 0)
(12.0625 -2.72297 2.57202e-19)
(11.2691 -2.61431 -6.60618e-17)
(10.2529 -2.42134 -6.45347e-17)
(9.20162 -2.15869 -6.31095e-17)
(6.75821 -1.59924 -2.06144e-16)
(4.45796 3.37924 0)
(5.17702 6.91231 0)
(7.26722 10.0499 1.9881e-18)
(9.92693 12.1538 -5.84353e-18)
(12.7883 13.3449 6.81043e-18)
(15.5883 13.7253 -1.00468e-17)
(18.143 13.4325 -9.59531e-18)
(20.3482 12.6212 0)
(22.1512 11.4341 -1.81588e-17)
(23.5696 9.98294 -1.15661e-17)
(24.5898 8.27197 0)
(25.0316 6.6814 0)
(25.0281 5.44144 -1.56738e-17)
(24.8958 4.4555 -1.58494e-17)
(24.7488 3.47904 -1.9885e-18)
(24.4946 2.56052 2.02908e-18)
(24.1282 1.73575 0)
(23.69 0.993819 0)
(23.1967 0.323715 9.90527e-19)
(22.6506 -0.276969 -1.91274e-18)
(22.0526 -0.809153 1.92411e-18)
(21.484 -1.23214 -6.02773e-18)
(20.9688 -1.55763 -5.04316e-20)
(20.4563 -1.83705 1.27504e-17)
(19.9467 -2.077 1.00845e-18)
(19.44 -2.2814 9.26596e-19)
(18.9363 -2.45495 8.24678e-21)
(18.4348 -2.60132 -9.4603e-19)
(17.9336 -2.72336 0)
(17.4304 -2.82339 0)
(16.9218 -2.90307 -5.69644e-17)
(16.4033 -2.9634 5.55455e-17)
(15.8694 -3.00443 -2.70404e-17)
(15.3128 -3.02502 0)
(14.7216 -3.02302 -2.63299e-17)
(14.0846 -2.99371 -2.5744e-17)
(13.3798 -2.92783 0)
(12.6009 -2.81476 -2.56579e-19)
(11.6301 -2.62028 1.88796e-19)
(10.6798 -2.32528 0)
(8.64895 -1.82069 9.13565e-17)
(6.11575 3.67782 -1.04265e-19)
(6.85962 6.51592 1.24197e-19)
(8.45232 9.08686 1.51743e-18)
(10.577 10.9577 0)
(12.9787 12.1484 -1.04622e-17)
(15.4416 12.6618 0)
(17.7877 12.5607 2.18286e-17)
(19.8869 11.9554 -2.45904e-19)
(21.6538 10.9658 2.50104e-18)
(23.0563 9.71423 1.9116e-17)
(24.0612 8.22294 2.81362e-18)
(24.5743 6.73898 8.74331e-18)
(24.7002 5.5065 2.75186e-17)
(24.6918 4.5202 1.24868e-17)
(24.6616 3.58618 0)
(24.5385 2.69426 -3.1098e-18)
(24.2983 1.87473 6.02941e-20)
(23.973 1.12822 -3.06484e-18)
(23.5837 0.447698 -1.52901e-18)
(23.1359 -0.168457 1.54852e-18)
(22.6315 -0.719633 5.99743e-18)
(22.1413 -1.16321 6.39026e-18)
(21.6879 -1.50825 0)
(21.2285 -1.80654 -2.66505e-17)
(20.7645 -2.06457 1.40021e-17)
(20.2971 -2.28645 -1.22863e-17)
(19.8274 -2.47654 2.42472e-17)
(19.3554 -2.63837 0)
(18.8799 -2.77476 0)
(18.3991 -2.88792 0)
(17.9102 -2.97951 2.26801e-17)
(17.4096 -3.05047 -2.29329e-17)
(16.8923 -3.1008 6.97201e-19)
(16.3522 -3.12929 2.19748e-17)
(15.7784 -3.1336 2.0123e-17)
(15.1612 -3.10865 2.05648e-17)
(14.4813 -3.04555 3.94077e-17)
(13.7351 -2.93074 3.7505e-17)
(12.8198 -2.73914 1.46685e-19)
(11.9339 -2.41765 3.44627e-17)
(10.2194 -1.96306 -3.40036e-17)
(7.67356 3.84805 0)
(8.39758 6.12493 -5.41543e-19)
(9.64444 8.19773 -1.21196e-18)
(11.3078 9.82247 2.09719e-19)
(13.2612 10.9773 7.4027e-18)
(15.3505 11.6052 -9.74306e-18)
(17.4313 11.7065 -8.30527e-19)
(19.3729 11.3354 -1.3515e-17)
(21.069 10.5771 0)
(22.4667 9.52964 -1.79401e-17)
(23.5257 8.22519 0)
(24.1516 6.85176 -4.80525e-18)
(24.3931 5.64281 -1.45668e-17)
(24.4548 4.64614 0)
(24.4685 3.72229 9.78978e-18)
(24.4043 2.8372 0)
(24.2338 2.0171 0)
(23.9779 1.26796 2.53194e-18)
(23.6571 0.582738 2.49382e-18)
(23.2784 -0.0413177 0)
(22.8443 -0.603095 -4.8307e-18)
(22.4172 -1.05872 0)
(22.0187 -1.41579 0)
(21.6125 -1.72656 1.01696e-17)
(21.1997 -1.99734 0)
(20.7813 -2.23224 -9.98512e-18)
(20.3578 -2.43526 -1.97526e-17)
(19.9289 -2.60978 0)
(19.4937 -2.75844 0)
(19.0507 -2.88328 0)
(18.598 -2.98577 -1.96991e-17)
(18.1324 -3.06672 -1.64782e-17)
(17.6499 -3.12603 1.7251e-17)
(17.145 -3.16235 5.34138e-19)
(16.6084 -3.17316 -5.38473e-19)
(16.0322 -3.15304 0)
(15.4 -3.09344 -3.19016e-17)
(14.711 -2.97834 3.07282e-17)
(13.878 -2.79014 -2.95085e-17)
(13.078 -2.45542 -2.74006e-17)
(11.6455 -2.02925 -5.38561e-20)
(9.11292 3.90956 2.0148e-19)
(9.78699 5.73068 2.82795e-19)
(10.7812 7.38849 -1.74407e-18)
(12.0764 8.76513 1.15101e-18)
(13.6376 9.83194 -1.74502e-18)
(15.3681 10.5098 9.74869e-18)
(17.1643 10.7623 -1.20039e-17)
(18.9125 10.598 1.07922e-17)
(20.5019 10.0645 6.07119e-18)
(21.8631 9.23612 -3.27791e-18)
(22.9534 8.15091 0)
(23.6854 6.93635 0)
(24.0553 5.78687 3.83993e-18)
(24.2038 4.78886 -3.95163e-18)
(24.2619 3.86979 -1.59019e-17)
(24.2392 2.99293 3.99011e-18)
(24.1157 2.17464 -8.04869e-18)
(23.9053 1.42361 5.963e-20)
(23.628 0.734663 -3.9546e-18)
(23.2931 0.104626 7.92555e-18)
(22.9039 -0.464951 -9.7871e-18)
(22.5174 -0.929191 4.15225e-18)
(22.1548 -1.29473 -2.09491e-18)
(21.7845 -1.61407 -2.03845e-18)
(21.408 -1.89345 1.02714e-17)
(21.0263 -2.13718 2.74955e-20)
(20.64 -2.34914 1.81823e-17)
(20.2487 -2.5326 1.39452e-17)
(19.8517 -2.69007 0)
(19.4473 -2.82348 0)
(19.0336 -2.9342 1.43844e-17)
(18.6077 -3.02293 3.10125e-17)
(18.1659 -3.08945 9.05736e-19)
(17.7038 -3.13226 -1.44068e-17)
(17.2137 -3.14862 -1.48788e-17)
(16.6897 -3.13291 1.40072e-17)
(16.1184 -3.07706 -4.18938e-19)
(15.5022 -2.96363 -5.04144e-17)
(14.7707 -2.78105 4.82421e-17)
(14.0779 -2.44746 -8.61681e-20)
(12.9251 -2.04923 -2.18197e-17)
(10.4221 3.882 0)
(11.0316 5.33504 8.7275e-19)
(11.8368 6.65546 3.03999e-18)
(12.8485 7.79752 1.2079e-18)
(14.0807 8.7431 5.17778e-18)
(15.4826 9.4164 6.05712e-18)
(16.9893 9.7665 -1.08789e-17)
(18.5153 9.77266 3.91549e-18)
(19.9611 9.44836 0)
(21.2523 8.83897 5.47015e-18)
(22.3435 7.97737 -1.12414e-17)
(23.1554 6.9469 1.17134e-17)
(23.6479 5.89592 -5.63425e-20)
(23.8995 4.92644 0)
(24.0208 4.02338 3.30765e-18)
(24.0471 3.16197 2.03432e-20)
(23.9718 2.3501 3.29874e-18)
(23.8046 1.59869 3.31175e-18)
(23.565 0.906799 -1.62758e-18)
(23.265 0.271851 -2.81046e-18)
(22.9094 -0.304283 3.30719e-18)
(22.5521 -0.775836 3.43569e-18)
(22.2141 -1.14869 0)
(21.8675 -1.47527 -3.33739e-18)
(21.5145 -1.76163 -6.6545e-18)
(21.1563 -2.01215 8.41684e-18)
(20.7939 -2.23055 -4.92974e-18)
(20.4275 -2.42005 -1.31256e-17)
(20.0566 -2.58321 1.59865e-18)
(19.6799 -2.72199 -4.28529e-20)
(19.2958 -2.83778 9.44008e-18)
(18.902 -2.93118 3.08178e-18)
(18.4953 -3.00186 1.06107e-17)
(18.072 -3.04826 0)
(17.6257 -3.06763 1.15778e-17)
(17.1524 -3.05435 -1.1933e-17)
(16.6423 -3.00098 1.12651e-17)
(16.1002 -2.88983 4.17727e-17)
(15.474 -2.71394 -1.95678e-17)
(14.8902 -2.39409 -7.16368e-20)
(14.0064 -2.02534 3.59115e-17)
(11.5958 3.78557 -1.13137e-18)
(12.1367 4.9428 3.48272e-19)
(12.7975 5.99188 1.21715e-19)
(13.5953 6.92347 -3.92003e-18)
(14.5627 7.73283 -2.33084e-18)
(15.6794 8.35975 -7.79672e-18)
(16.9113 8.75478 6.04274e-18)
(18.2029 8.88388 1.0222e-17)
(19.4761 8.73668 -7.10038e-18)
(20.6627 8.33154 0)
(21.7178 7.68978 -4.65456e-18)
(22.5711 6.85971 -1.83911e-19)
(23.1631 5.94405 -1.92e-19)
(23.5202 5.03942 5.04658e-18)
(23.7203 4.17103 5.22731e-18)
(23.8079 3.33556 -5.30532e-18)
(23.789 2.53871 0)
(23.6724 1.79248 0)
(23.4755 1.10068 6.69233e-18)
(23.2126 0.462699 -5.74911e-18)
(22.8904 -0.118936 2.60082e-18)
(22.5603 -0.597174 -2.86434e-18)
(22.2438 -0.976914 -2.77127e-18)
(21.9167 -1.31022 0)
(21.582 -1.6029 -2.72783e-18)
(21.2413 -1.85936 2.77341e-18)
(20.8961 -2.08331 5.44751e-18)
(20.5468 -2.27785 0)
(20.1933 -2.44552 0)
(19.835 -2.58819 -1.2952e-18)
(19.4706 -2.70713 -1.03231e-17)
(19.0986 -2.80289 -8.89717e-18)
(18.7166 -2.87519 -1.87626e-17)
(18.322 -2.92258 -1.24288e-18)
(17.9098 -2.94243 0)
(17.4777 -2.92928 5.70981e-19)
(17.0194 -2.87651 -9.57452e-18)
(16.5408 -2.76767 1.09923e-19)
(16.0079 -2.59855 -1.69378e-17)
(15.5164 -2.30223 -1.54039e-17)
(14.8599 -1.96094 -1.49291e-17)
(12.6344 3.63826 6.44102e-19)
(13.109 4.55884 1.07386e-20)
(13.6571 5.39089 -1.52912e-18)
(14.2939 6.14114 3.45704e-18)
(15.0544 6.81473 0)
(15.9346 7.36934 4.43363e-18)
(16.9215 7.76512 -9.28361e-18)
(17.9844 7.96741 -5.94495e-18)
(19.0693 7.95376 5.66442e-18)
(20.1221 7.7228 6.7926e-18)
(21.1036 7.2828 4.36362e-19)
(21.9549 6.6552 -1.48821e-17)
(22.6101 5.90155 0)
(23.0593 5.09866 4.10752e-18)
(23.3441 4.29158 -8.43751e-18)
(23.5028 3.49872 -4.25059e-18)
(23.5491 2.73007 -4.36098e-18)
(23.4921 1.99881 4.42547e-18)
(23.3471 1.31337 -2.18902e-18)
(23.1287 0.676454 0)
(22.8457 0.0919271 5.44296e-18)
(22.5464 -0.391483 -9.21429e-18)
(22.2536 -0.7774 6.81604e-18)
(21.9472 -1.11706 -6.98731e-20)
(21.6311 -1.41585 -4.48016e-18)
(21.3074 -1.67808 4.55102e-18)
(20.9779 -1.90733 0)
(20.6437 -2.10656 -1.09909e-17)
(20.305 -2.27821 -4.34564e-18)
(19.9617 -2.42412 -2.1817e-18)
(19.6128 -2.54551 8.47846e-18)
(19.2575 -2.64291 2.05955e-18)
(18.8941 -2.71603 -2.07087e-18)
(18.5209 -2.76347 9.89672e-19)
(18.1345 -2.78271 5.89322e-18)
(17.7342 -2.76876 9.72842e-19)
(17.3169 -2.71599 0)
(16.8884 -2.61053 -1.47399e-17)
(16.4305 -2.449 1.4172e-17)
(16.009 -2.18294 1.3025e-17)
(15.5163 -1.86947 0)
(13.5429 3.45581 0)
(13.9566 4.18771 0)
(14.4149 4.84656 0)
(14.9295 5.4448 -9.2567e-18)
(15.5309 5.99315 6.60464e-18)
(16.2221 6.46442 -3.44755e-18)
(17.0019 6.83026 -4.01141e-18)
(17.8565 7.06215 -3.49418e-19)
(18.7533 7.13529 4.59024e-18)
(19.6548 7.03776 5.41594e-18)
(20.5316 6.76763 -5.57468e-18)
(21.3378 6.32734 6.40387e-18)
(22.012 5.7458 -2.60995e-19)
(22.5245 5.07399 6.63604e-18)
(22.8858 4.35822 -1.36849e-17)
(23.1182 3.63041 1.05811e-17)
(23.2351 2.90779 7.13232e-18)
(23.2453 2.20591 -7.22364e-18)
(23.1612 1.53726 3.62745e-18)
(22.9968 0.908705 0)
(22.7612 0.326328 8.04519e-18)
(22.4997 -0.159077 -5.68095e-18)
(22.2357 -0.549351 -1.84535e-18)
(21.9545 -0.894242 3.70417e-18)
(21.6605 -1.1985 -7.4361e-18)
(21.3567 -1.46612 0)
(21.0452 -1.70044 0)
(20.7277 -1.90423 3.68195e-18)
(20.4049 -2.07978 1.79162e-17)
(20.0771 -2.22886 7.04023e-18)
(19.7439 -2.35261 -6.96656e-18)
(19.405 -2.45153 -1.6879e-18)
(19.0593 -2.52538 8.4288e-18)
(18.706 -2.57292 1.6233e-18)
(18.3429 -2.59194 -9.65318e-18)
(17.9702 -2.57816 1.59576e-18)
(17.5877 -2.52682 6.13367e-18)
(17.2004 -2.4273 -7.27586e-19)
(16.8016 -2.2763 -1.07818e-17)
(16.4342 -2.04405 0)
(16.0467 -1.76359 0)
(14.3294 3.2517 0)
(14.6883 3.83339 0)
(15.0739 4.35407 -1.95391e-20)
(15.4944 4.82734 5.36772e-18)
(15.9739 5.26617 0)
(16.5177 5.65429 6.21753e-18)
(17.1294 5.9733 3.36014e-18)
(17.8056 6.20267 0)
(18.5287 6.32092 -8.06326e-18)
(19.2761 6.31319 3.63468e-18)
(20.0289 6.17216 -5.21697e-19)
(20.755 5.88913 4.83053e-18)
(21.4042 5.47077 -5.43228e-18)
(21.9409 4.94384 0)
(22.3555 4.344 -1.10313e-17)
(22.6523 3.70514 1.1362e-17)
(22.8377 3.04958 0)
(22.9176 2.3955 0)
(22.9007 1.75857 2.94482e-18)
(22.7983 1.14977 -1.19109e-17)
(22.6191 0.577998 5.87577e-18)
(22.4031 0.0963205 0)
(22.1746 -0.294638 -6.07139e-18)
(21.9246 -0.642173 1.10794e-19)
(21.6583 -0.950141 6.15029e-18)
(21.3791 -1.22196 -2.98976e-18)
(21.0899 -1.46057 0)
(20.7929 -1.66846 0)
(20.4894 -1.8477 2.84437e-18)
(20.1802 -1.9999 -1.15437e-17)
(19.8654 -2.12614 5.6809e-18)
(19.5453 -2.22691 -5.65214e-18)
(19.2195 -2.30203 -2.78268e-18)
(18.8879 -2.35051 0)
(18.5493 -2.37055 -3.97576e-18)
(18.2048 -2.35876 -3.78279e-20)
(17.8559 -2.31142 -1.13154e-17)
(17.5069 -2.22133 0)
(17.1571 -2.08537 9.38752e-18)
(16.8352 -1.88802 -9.21244e-18)
(16.515 -1.64715 0)
(15.0033 3.03714 0)
(15.3137 3.49919 2.5736e-18)
(15.6395 3.90966 -2.28441e-18)
(15.9862 4.28152 0)
(16.3721 4.62801 -5.29109e-18)
(16.8022 4.94001 -2.28252e-19)
(17.2817 5.20636 2.30132e-17)
(17.8118 5.41363 -3.03078e-17)
(18.3847 5.54563 1.90335e-17)
(18.9881 5.58905 1.75206e-17)
(19.6124 5.53545 -1.45338e-17)
(20.2374 5.3718 -4.04039e-18)
(20.8264 5.09184 8.27672e-18)
(21.3473 4.70456 -4.32294e-18)
(21.7818 4.23155 1.39416e-17)
(22.1211 3.69982 -9.23725e-18)
(22.3624 3.13131 -4.65297e-18)
(22.5062 2.54491 -2.36286e-18)
(22.5562 1.9578 -8.46442e-18)
(22.5197 1.38395 1.83212e-17)
(22.4033 0.834966 -9.69709e-18)
(22.2395 0.365789 -3.08531e-19)
(22.0531 -0.0197766 -1.254e-18)
(21.8407 -0.365334 0)
(21.6081 -0.673568 7.36749e-18)
(21.3592 -0.947059 -2.47524e-18)
(21.0977 -1.18813 -7.22091e-18)
(20.8263 -1.39883 4.85771e-18)
(20.5467 -1.58093 -9.48068e-18)
(20.2604 -1.73584 4.74677e-18)
(19.9682 -1.86452 0)
(19.6708 -1.96745 6.86266e-18)
(19.3686 -2.04456 2.26756e-18)
(19.062 -2.09517 -2.17101e-18)
(18.7509 -2.11799 1.29183e-17)
(18.4369 -2.1106 2.08623e-18)
(18.1225 -2.07038 4.10036e-18)
(17.8115 -1.99308 -4.02648e-18)
(17.5057 -1.87649 -3.92429e-18)
(17.2247 -1.71379 7.2676e-18)
(16.9527 -1.51617 2.31992e-19)
(15.575 2.82107 0)
(15.8428 3.18769 -1.33082e-19)
(16.1188 3.51025 -2.17221e-18)
(16.4067 3.80057 -9.10314e-18)
(16.7199 4.07112 4.2914e-18)
(17.0625 4.31716 -5.09114e-18)
(17.4397 4.53227 -5.34941e-18)
(17.8543 4.70828 2.04942e-17)
(18.3034 4.83405 -5.5224e-18)
(18.7816 4.89944 -1.15538e-17)
(19.285 4.89732 1.84997e-17)
(19.8028 4.8148 -1.26688e-17)
(20.3108 4.64048 -6.6756e-18)
(20.7842 4.37272 3.67627e-18)
(21.2045 4.02108 0)
(21.557 3.60256 0)
(21.8321 3.134 1.95723e-17)
(22.0244 2.6319 2.1467e-18)
(22.1324 2.11255 -1.58458e-17)
(22.1586 1.5908 1.01878e-18)
(22.1059 1.07979 -8.90952e-18)
(21.9981 0.634823 1.64811e-17)
(21.8582 0.263295 -8.10769e-18)
(21.6886 -0.0733404 0)
(21.4952 -0.376346 9.90771e-19)
(21.2822 -0.647217 -7.88607e-18)
(21.0538 -0.887451 9.9452e-18)
(20.8131 -1.0985 -7.74066e-18)
(20.5626 -1.2817 5.88188e-18)
(20.3041 -1.43817 0)
(20.0391 -1.56873 -3.75011e-18)
(19.7688 -1.67383 -7.38464e-18)
(19.4943 -1.75353 3.68816e-18)
(19.2165 -1.80747 -3.5417e-18)
(18.9362 -1.83492 -1.69096e-18)
(18.6552 -1.83438 3.4565e-18)
(18.3766 -1.80434 -5.0845e-18)
(18.1035 -1.74273 3.27075e-18)
(17.8385 -1.64857 2.39282e-18)
(17.5951 -1.51954 4.04532e-19)
(17.3623 -1.36463 -5.75347e-18)
(16.0553 2.61034 2.0626e-18)
(16.2857 2.9007 8.37471e-18)
(16.5198 3.1531 -7.93578e-18)
(16.76 3.37826 0)
(17.0161 3.58739 6.95877e-20)
(17.2913 3.77833 0)
(17.5897 3.94753 2.60829e-17)
(17.9145 4.09029 -2.19565e-17)
(18.2652 4.1994 -1.88221e-17)
(18.6399 4.26786 2.38683e-17)
(19.038 4.29057 -1.01627e-17)
(19.4546 4.25695 5.2288e-18)
(19.8748 4.15523 5.69039e-18)
(20.2822 3.97925 1.17057e-17)
(20.6618 3.73081 3.1634e-19)
(20.9989 3.41802 -1.22599e-17)
(21.2813 3.05112 9.6711e-18)
(21.5 2.64186 -1.27585e-17)
(21.6491 2.20337 0)
(21.7267 1.74903 -1.30753e-17)
(21.7319 1.29162 8.75686e-19)
(21.6782 0.884221 1.28214e-17)
(21.586 0.537383 -1.00758e-19)
(21.4617 0.218711 0)
(21.3108 -0.0715322 -8.21162e-19)
(21.1378 -0.333605 -7.97782e-19)
(20.9469 -0.568019 0)
(20.7416 -0.775483 0)
(20.5248 -0.956793 2.18091e-20)
(20.2987 -1.11269 0)
(20.0654 -1.24378 4.59117e-18)
(19.8264 -1.35045 0)
(19.5835 -1.43286 -5.8933e-18)
(19.338 -1.49094 5.85838e-18)
(19.0911 -1.52448 0)
(18.845 -1.53277 -2.80385e-18)
(18.6028 -1.51519 2.74477e-18)
(18.3669 -1.4712 -1.37315e-18)
(18.1398 -1.40085 -3.98866e-18)
(17.9309 -1.30386 3.20245e-19)
(17.7322 -1.18818 7.18833e-18)
(16.4549 2.40997 -5.58419e-18)
(16.6525 2.6392 -2.23415e-19)
(16.8512 2.83561 3.65821e-18)
(17.0523 3.00893 7.24591e-18)
(17.2628 3.16897 1.83737e-17)
(17.4853 3.31499 -2.19151e-17)
(17.723 3.44512 2.29124e-20)
(17.9786 3.55679 1.5557e-17)
(18.2527 3.64549 -3.16267e-17)
(18.5447 3.70672 -4.51998e-19)
(18.8558 3.73716 2.10092e-17)
(19.1841 3.72901 -8.82486e-18)
(19.5212 3.67241 1.84681e-17)
(19.8569 3.56042 -2.78449e-17)
(20.181 3.39117 4.78765e-18)
(20.4818 3.16688 0)
(20.7478 2.89211 2.34877e-17)
(20.9692 2.57375 -2.08918e-17)
(21.1382 2.22062 -2.13314e-17)
(21.2497 1.84295 4.01434e-17)
(21.2996 1.45143 -2.12983e-17)
(21.2925 1.09376 9.99585e-19)
(21.2444 0.782409 8.43536e-20)
(21.1638 0.491589 1.06069e-17)
(21.0558 0.222895 -2.10304e-17)
(20.9243 -0.0227669 1.11686e-17)
(20.7732 -0.244921 -9.65881e-18)
(20.6062 -0.443481 1.1614e-17)
(20.4264 -0.618631 1.13699e-17)
(20.2363 -0.770671 -1.01251e-17)
(20.0381 -0.899919 -2.47994e-18)
(19.8338 -1.00665 -3.63235e-18)
(19.6254 -1.09104 1.08554e-17)
(19.4147 -1.15325 -9.49858e-18)
(19.2031 -1.19345 4.70791e-18)
(18.9928 -1.21149 2.29376e-18)
(18.7866 -1.2074 0)
(18.5865 -1.18152 2.19879e-18)
(18.3946 -1.13456 2.15393e-18)
(18.217 -1.06706 2.13987e-18)
(18.0488 -0.985795 -2.05039e-18)
(16.7835 2.22326 -9.17591e-20)
(16.9525 2.40339 -8.27753e-19)
(17.1211 2.55516 -3.20498e-18)
(17.2897 2.68746 6.58566e-18)
(17.4636 2.80866 -2.5527e-17)
(17.6447 2.91872 2.6041e-17)
(17.8353 3.01673 -3.24279e-17)
(18.0376 3.10137 -2.02109e-17)
(18.2525 3.1699 6.19567e-18)
(18.4801 3.2195 -6.02092e-19)
(18.7218 3.24817 2.82592e-17)
(18.9774 3.25053 8.67941e-20)
(19.242 3.21919 0)
(19.5099 3.14819 7.91214e-18)
(19.7748 3.03463 -8.00612e-18)
(20.0285 2.87785 8.05678e-18)
(20.2621 2.67882 0)
(20.467 2.44053 -1.72646e-17)
(20.6354 2.16801 3.69037e-17)
(20.7611 1.86796 -1.30738e-17)
(20.8386 1.54802 1.74705e-17)
(20.8655 1.24805 -1.90448e-17)
(20.8532 0.980738 -5.30054e-19)
(20.8107 0.726516 1.95931e-19)
(20.7418 0.487842 -1.70031e-17)
(20.6497 0.266468 1.70214e-17)
(20.5379 0.0636483 -5.32596e-19)
(20.4097 -0.119842 -1.05387e-18)
(20.268 -0.28361 8.19616e-18)
(20.1153 -0.427509 -9.21841e-18)
(19.954 -0.551543 1.01428e-18)
(19.7863 -0.655802 -9.99496e-19)
(19.614 -0.740426 3.89961e-18)
(19.4393 -0.805647 -1.99482e-18)
(19.2635 -0.851866 -7.60778e-18)
(19.0888 -0.879234 1.90177e-18)
(18.9175 -0.888123 -1.82817e-18)
(18.7514 -0.879311 3.63813e-18)
(18.5919 -0.853734 -1.78569e-18)
(18.4431 -0.812206 -1.73793e-18)
(18.3023 -0.760115 0)
(17.0501 2.05173 9.08135e-18)
(17.1941 2.1924 -1.68896e-17)
(17.3369 2.30871 -1.7559e-17)
(17.4785 2.40886 4.52796e-17)
(17.6225 2.49971 -1.67895e-17)
(17.7705 2.58156 3.97162e-17)
(17.9242 2.65401 -3.41019e-17)
(18.0854 2.71643 5.16542e-17)
(18.2547 2.76718 -5.24161e-17)
(18.4325 2.80452 -4.00418e-19)
(18.6202 2.82727 2.3957e-17)
(18.818 2.83188 3.11862e-18)
(19.0231 2.81314 2.5393e-17)
(19.2325 2.76658 -2.54418e-17)
(19.4423 2.68951 2.65666e-17)
(19.6475 2.58037 -3.01188e-17)
(19.8417 2.43851 0)
(20.0184 2.26462 2.45905e-17)
(20.1713 2.06094 -2.99599e-17)
(20.2945 1.83132 2.68952e-17)
(20.3824 1.58058 1.2824e-19)
(20.4288 1.33984 -4.16427e-17)
(20.4411 1.12046 4.60325e-19)
(20.4274 0.908112 1.41691e-17)
(20.3903 0.705505 2.691e-23)
(20.3321 0.514755 0)
(20.2556 0.337528 1.3599e-17)
(20.1633 0.175024 -1.33744e-17)
(20.0579 0.0280391 0)
(19.9417 -0.102933 8.36492e-19)
(19.8167 -0.217621 0)
(19.6851 -0.315927 -6.42857e-18)
(19.5488 -0.397884 7.22211e-18)
(19.4095 -0.463693 6.25794e-18)
(19.2687 -0.513798 -1.24141e-17)
(19.1283 -0.548453 6.91808e-18)
(18.9903 -0.568106 7.52798e-19)
(18.8558 -0.573648 -1.48006e-18)
(18.7262 -0.565977 1.45536e-18)
(18.604 -0.545882 0)
(18.4882 -0.517328 1.40346e-18)
(17.2555 1.90324 0)
(17.3787 2.01352 2.3046e-17)
(17.5003 2.1029 2.02096e-19)
(17.6198 2.17904 -3.13649e-17)
(17.7402 2.24739 -2.10612e-17)
(17.8626 2.3083 2.09028e-17)
(17.9882 2.3617 -2.11023e-17)
(18.1184 2.40729 -2.12934e-17)
(18.2538 2.4441 -4.33963e-17)
(18.3948 2.47102 5.43205e-17)
(18.5424 2.48736 -5.53408e-18)
(18.697 2.49073 -5.61972e-18)
(18.857 2.47756 2.31233e-17)
(19.0204 2.44464 -1.73699e-17)
(19.1853 2.38988 -2.67605e-17)
(19.3481 2.31173 2.09066e-17)
(19.505 2.20909 2.77053e-17)
(19.6511 2.08166 -2.77345e-17)
(19.7818 1.93022 0)
(19.8924 1.75669 -3.14811e-18)
(19.9779 1.56384 -3.1481e-18)
(20.0312 1.37509 -2.54324e-17)
(20.0566 1.19984 5.02527e-17)
(20.0608 1.02768 -2.53963e-17)
(20.0455 0.861088 -1.23914e-17)
(20.0122 0.70213 4.29184e-19)
(19.9629 0.552513 1.22442e-17)
(19.8997 0.413555 -1.91572e-19)
(19.8246 0.286218 -1.15932e-20)
(19.7394 0.171171 -1.17208e-17)
(19.646 0.0688443 1.17774e-17)
(19.5461 -0.0205257 5.7692e-18)
(19.4415 -0.0968666 -6.10689e-18)
(19.3337 -0.160298 5.62543e-18)
(19.224 -0.211202 -4.91065e-18)
(19.1138 -0.249805 -4.11332e-18)
(19.0049 -0.276487 2.0481e-18)
(18.8982 -0.292058 -6.68289e-19)
(18.7946 -0.297254 0)
(18.6959 -0.292715 0)
(18.6019 -0.281182 7.04117e-21)
(17.4076 1.7811 1.01922e-17)
(17.5143 1.86876 -1.11048e-17)
(17.619 1.93838 4.89859e-18)
(17.7214 1.99704 9.72195e-18)
(17.8236 2.04907 0)
(17.9264 2.09483 -1.96476e-17)
(18.0311 2.13437 4.97172e-17)
(18.1385 2.16762 -2.97875e-17)
(18.2491 2.19396 1.0105e-17)
(18.3634 2.21266 -1.02813e-17)
(18.482 2.2233 5.22621e-18)
(18.6053 2.22428 4.77804e-17)
(18.7322 2.21308 -8.55691e-17)
(18.8616 2.18747 3.76123e-17)
(18.9921 2.1459 5.55024e-18)
(19.1217 2.08714 2.23907e-17)
(19.2475 2.01014 -7.0657e-17)
(19.3664 1.91434 3.11378e-17)
(19.4749 1.79985 4.9027e-17)
(19.5696 1.6676 -2.02651e-17)
(19.6465 1.51912 5.8342e-18)
(19.6989 1.37178 0)
(19.729 1.23302 0)
(19.7425 1.09515 2.29085e-17)
(19.7403 0.96026 -2.27914e-17)
(19.7233 0.830148 -3.58362e-19)
(19.693 0.706343 0)
(19.6508 0.590077 -1.10925e-17)
(19.5984 0.482298 1.10494e-17)
(19.5371 0.383703 -8.59783e-20)
(19.4685 0.294776 8.36248e-20)
(19.394 0.215817 0)
(19.3149 0.146969 -4.95904e-18)
(19.2326 0.0881913 5.22561e-18)
(19.1481 0.0391956 -6.45387e-19)
(19.0627 -0.000172645 6.36533e-19)
(18.9776 -0.0301868 0)
(18.8936 -0.0515097 6.18756e-19)
(18.8115 -0.0646996 1.21566e-18)
(18.7324 -0.0702346 -6.08241e-19)
(18.6565 -0.0699321 -1.75115e-18)
(17.5223 1.67985 0)
(17.6157 1.75028 0)
(17.7069 1.8051 1.82592e-17)
(17.7955 1.85078 3.64893e-17)
(17.8833 1.89074 -5.44935e-17)
(17.9711 1.92534 4.60314e-17)
(18.0596 1.95471 1.88517e-17)
(18.1496 1.97888 -3.73113e-17)
(18.2417 1.99746 3.80881e-17)
(18.3359 2.00995 -3.82631e-17)
(18.4329 2.01609 0)
(18.533 2.01475 0)
(18.6354 2.00418 -4.01227e-17)
(18.7393 1.98277 8.07119e-17)
(18.8439 1.94944 -8.16559e-17)
(18.9477 1.90327 4.11015e-17)
(19.0489 1.84342 5.17756e-18)
(19.1451 1.76933 -5.01645e-17)
(19.2341 1.6809 3.43809e-17)
(19.3132 1.57857 0)
(19.3794 1.46317 -2.703e-18)
(19.4269 1.34768 0)
(19.4572 1.23784 2.24286e-17)
(19.4745 1.12783 -4.33602e-17)
(19.4793 1.01931 2.09344e-17)
(19.4724 0.913754 0)
(19.4546 0.812442 0)
(19.4271 0.716436 -9.59017e-18)
(19.391 0.626573 1.01695e-17)
(19.3474 0.543492 1.00337e-17)
(19.2975 0.467656 -1.00597e-17)
(19.2425 0.399371 -9.82951e-18)
(19.1833 0.338807 9.81103e-18)
(19.121 0.285976 0)
(19.0565 0.240677 7.40864e-20)
(18.9908 0.202822 0)
(18.9248 0.172236 1.81022e-20)
(18.8591 0.148404 7.15504e-20)
(18.7944 0.130919 -2.40112e-18)
(18.7315 0.119438 3.35938e-18)
(18.6707 0.112813 -1.08688e-18)
(17.6106 1.59467 0)
(17.693 1.6517 2.09554e-18)
(17.7729 1.69523 0)
(17.8503 1.73106 -1.67253e-17)
(17.9265 1.76193 1.68863e-17)
(18.0021 1.78816 0)
(18.0779 1.80995 -1.73001e-17)
(18.1544 1.82736 -1.76607e-17)
(18.2319 1.84014 4.4241e-17)
(18.3108 1.84796 0)
(18.3914 1.85064 -3.66258e-17)
(18.4738 1.84738 7.38757e-17)
(18.5576 1.83693 -3.71749e-17)
(18.6421 1.81816 0)
(18.7269 1.79029 3.81622e-17)
(18.8108 1.75268 -4.3003e-17)
(18.8925 1.70469 -4.36971e-17)
(18.9705 1.6459 4.86178e-17)
(19.043 1.57615 4.95231e-18)
(19.1082 1.49566 0)
(19.1639 1.4049 0)
(19.2053 1.31368 2.43529e-18)
(19.2333 1.22637 -1.22818e-18)
(19.2513 1.13851 -1.93444e-17)
(19.2595 1.05135 -1.19293e-18)
(19.2584 0.966071 1.91512e-17)
(19.2486 0.883682 -1.89971e-17)
(19.231 0.805047 1.82936e-17)
(19.2064 0.730859 1.05067e-17)
(19.1756 0.661662 -9.29168e-18)
(19.1396 0.597858 9.17668e-18)
(19.0991 0.539728 -9.12466e-18)
(19.0551 0.487441 0)
(19.0082 0.441039 9.45747e-18)
(18.9593 0.400385 -8.91904e-18)
(18.909 0.365439 0)
(18.8581 0.3361 -1.69311e-20)
(18.8071 0.311979 -2.19799e-18)
(18.7564 0.292785 2.24773e-18)
(18.7067 0.278283 -9.75154e-19)
(18.6583 0.267792 1.01115e-18)
(17.6796 1.52211 0)
(17.7527 1.56854 -1.91126e-18)
(17.8232 1.60332 1.54328e-17)
(17.8913 1.63157 -3.10823e-17)
(17.9579 1.65547 6.27277e-17)
(18.0236 1.67534 -3.16985e-17)
(18.0891 1.69139 0)
(18.1547 1.70371 -1.63671e-17)
(18.2208 1.71215 -9.98165e-17)
(18.2875 1.71648 6.71146e-17)
(18.3551 1.71657 0)
(18.4239 1.71186 8.61504e-18)
(18.4932 1.70144 -2.62875e-17)
(18.5628 1.6845 -2.17566e-19)
(18.6321 1.66051 3.53427e-17)
(18.7005 1.62902 -4.02251e-17)
(18.767 1.58958 3.58579e-17)
(18.8304 1.54188 -3.63169e-17)
(18.8894 1.4858 3.62591e-17)
(18.9429 1.42148 3.65582e-17)
(18.9891 1.34919 -3.1742e-17)
(19.0243 1.27645 1.58739e-17)
(19.0492 1.20659 -2.01805e-17)
(19.0662 1.13612 1.90144e-17)
(19.0755 1.06598 3.33253e-18)
(19.0775 0.997083 -1.76712e-17)
(19.0727 0.930214 0)
(19.0617 0.866048 0)
(19.045 0.805137 1.61619e-17)
(19.0233 0.747918 -1.71378e-17)
(18.9973 0.694722 0)
(18.9677 0.645784 -1.04538e-18)
(18.935 0.601254 -1.03588e-18)
(18.8998 0.561183 -8.75119e-18)
(18.8628 0.525477 8.69379e-18)
(18.8245 0.494126 4.03835e-18)
(18.7853 0.467078 -4.01361e-18)
(18.7458 0.444045 1.48556e-18)
(18.7063 0.424825 -3.92632e-18)
(18.6672 0.409255 1.8849e-18)
(18.6289 0.396975 2.34593e-19)
(17.7343 1.45966 -1.41055e-17)
(17.7994 1.49762 -1.77002e-17)
(17.862 1.52553 -7.72818e-20)
(17.9222 1.54786 0)
(17.9808 1.56635 0)
(18.0383 1.58132 0)
(18.0952 1.59299 0)
(18.1519 1.60147 6.11744e-17)
(18.2087 1.60664 -1.08473e-16)
(18.2657 1.60836 6.27354e-17)
(18.323 1.60655 -6.39688e-17)
(18.3809 1.60079 4.0193e-17)
(18.4389 1.59045 -7.35027e-17)
(18.4967 1.57492 9.02011e-17)
(18.5539 1.55385 -3.29864e-17)
(18.6101 1.52692 -2.50019e-17)
(18.6645 1.49386 3.33835e-17)
(18.7162 1.45445 -4.22558e-18)
(18.7645 1.4086 4.19658e-18)
(18.8083 1.35643 -4.22745e-17)
(18.8464 1.29814 -3.7995e-17)
(18.8759 1.23954 6.29731e-17)
(18.8973 1.18319 2.09493e-18)
(18.9126 1.12632 0)
(18.9219 1.06964 -2.07191e-18)
(18.9255 1.01384 2.03208e-18)
(18.9236 0.959514 1.4202e-17)
(18.9168 0.907187 -1.61061e-17)
(18.9055 0.857283 1.59535e-17)
(18.8902 0.810143 -1.58406e-17)
(18.8715 0.766025 -1.56702e-17)
(18.8497 0.725118 1.6536e-17)
(18.8254 0.687546 9.67228e-19)
(18.799 0.653356 -7.61734e-18)
(18.771 0.622485 6.15199e-18)
(18.7418 0.594935 0)
(18.7118 0.570684 0)
(18.6812 0.549516 4.60551e-19)
(18.6505 0.531289 -9.07765e-19)
(18.6198 0.515893 -8.99426e-19)
(18.5895 0.503175 -2.18467e-19)
(17.7781 1.40543 0)
(17.8363 1.43655 3.21295e-18)
(17.8921 1.45901 -2.61535e-17)
(17.9456 1.47667 2.63145e-17)
(17.9974 1.49093 5.38678e-17)
(18.0479 1.50211 -5.46359e-17)
(18.0977 1.5104 -2.80421e-17)
(18.1471 1.51594 5.66787e-17)
(18.1962 1.51866 5.79349e-17)
(18.2452 1.51845 -5.85721e-17)
(18.2942 1.51526 0)
(18.3433 1.50881 3.01535e-17)
(18.3922 1.49862 -6.0986e-17)
(18.4406 1.48427 6.88351e-17)
(18.4882 1.46551 0)
(18.5347 1.44215 7.73276e-18)
(18.5795 1.414 -7.76415e-18)
(18.622 1.38094 0)
(18.6615 1.34292 -3.93658e-18)
(18.6974 1.30007 7.88562e-18)
(18.7288 1.2525 -3.50918e-17)
(18.7533 1.20482 3.50734e-17)
(18.7715 1.15899 -3.84108e-18)
(18.7849 1.11277 -2.8798e-17)
(18.7935 1.0667 2.86007e-17)
(18.7976 1.02131 -1.90487e-18)
(18.7975 0.977049 1.69194e-17)
(18.7934 0.934307 -1.49173e-17)
(18.7857 0.893407 -1.84047e-18)
(18.7749 0.854606 0)
(18.7613 0.818105 0)
(18.7452 0.784046 0)
(18.7271 0.752527 7.12359e-18)
(18.7072 0.723587 -7.07153e-18)
(18.686 0.697178 8.78508e-19)
(18.6637 0.67331 6.92673e-18)
(18.6406 0.651975 -7.73244e-18)
(18.617 0.633013 0)
(18.593 0.616322 4.13995e-21)
(18.5691 0.601825 1.67163e-18)
(18.5452 0.589498 -8.08439e-19)
(17.8135 1.35798 -1.17444e-17)
(17.8657 1.38353 0)
(17.9156 1.40165 5.99769e-17)
(17.9633 1.41559 -4.85376e-17)
(18.0092 1.42652 0)
(18.0539 1.43472 -5.08541e-17)
(18.0977 1.44041 -1.04308e-19)
(18.1409 1.44371 -5.29473e-17)
(18.1837 1.44457 8.06235e-17)
(18.2261 1.44294 5.48374e-17)
(18.2682 1.43879 -5.54622e-17)
(18.3101 1.43191 -1.40915e-17)
(18.3516 1.42196 0)
(18.3924 1.40865 0)
(18.4323 1.3918 1.43555e-17)
(18.4711 1.3713 -6.51811e-17)
(18.5082 1.34705 1.30591e-16)
(18.5432 1.31898 -5.80905e-17)
(18.5757 1.28708 -7.25829e-18)