/*--------------------------------*- C++ -*----------------------------------*\
| =========                 |                                                 |
| \\      /  F ield         | OpenFOAM: The Open Source CFD Toolbox           |
|  \\    /   O peration     | Version:  5.x                                   |
|   \\  /    A nd           | Web:      www.OpenFOAM.org                      |
|    \\/     M anipulation  |                                                 |
\*---------------------------------------------------------------------------*/
FoamFile
{
    version     2.0;
    format      ascii;
    class       volVectorField;
    location    "250";
    object      U;
}
// * * * * * * * * * * * * * * * * * * * * * * * * * * * * * * * * * * * * * //

dimensions      [0 1 -1 0 0 0 0];

internalField   nonuniform List<vector> 
11040
(
(-4.48635 25.0101 0)
(-0.62586 30.4992 -1.54192e-19)
(5.68764 33.7055 1.58742e-17)
(11.5557 32.6826 1.8352e-17)
(16.0139 29.3991 3.81628e-17)
(19.0851 25.2595 -1.82783e-17)
(20.9903 20.9287 -1.78123e-17)
(21.9253 16.799 1.77816e-17)
(22.0638 13.0836 3.89313e-17)
(21.4962 9.81718 1.2538e-18)
(19.9146 6.7158 1.6981e-17)
(17.7578 4.22504 -7.30568e-19)
(15.8972 2.71832 1.06505e-17)
(14.612 1.93863 7.32847e-18)
(13.3526 1.34464 3.31807e-18)
(11.787 0.777263 -2.13842e-19)
(9.92282 0.30141 2.69288e-18)
(7.84836 -0.0315845 7.71278e-19)
(5.61795 -0.221045 -8.91733e-19)
(3.20008 -0.286131 -1.32364e-17)
(0.852328 -0.192142 -2.12264e-17)
(-0.846316 0.00141571 -3.20865e-17)
(-1.82327 0.132253 -6.0175e-17)
(-2.41981 0.223731 -3.81162e-18)
(-2.76439 0.297436 -1.76039e-20)
(-2.93821 0.355687 1.98152e-18)
(-3.01726 0.404734 -1.29445e-16)
(-3.05864 0.454017 2.02936e-18)
(-3.0975 0.505155 -1.32232e-16)
(-3.15478 0.556947 1.27651e-16)
(-3.24215 0.612764 1.98595e-18)
(-3.36911 0.675455 9.55195e-19)
(-3.54034 0.744974 -9.03899e-19)
(-3.7451 0.816256 0)
(-3.9408 0.876391 2.02338e-16)
(-4.03937 0.904222 0)
(-3.93655 0.875823 0)
(-3.59512 0.773723 -3.66703e-19)
(-2.85697 0.509969 4.40765e-19)
(-1.77042 -0.128063 -2.10862e-16)
(-1.60185 -0.986609 -1.92937e-16)
(-0.27416 24.3175 0)
(4.0179 28.4419 0)
(11.682 29.9919 -8.99494e-18)
(18.2034 28.7228 9.38442e-18)
(22.8818 26.6338 -2.26351e-17)
(26.1491 24.2851 2.2996e-17)
(28.264 21.6203 1.09089e-17)
(29.3449 18.6934 1.4002e-18)
(29.5405 15.6562 -9.03321e-19)
(29.0124 12.6753 1.06741e-17)
(27.6468 9.65324 -1.18871e-18)
(25.366 7.05257 0)
(22.7894 5.18786 0)
(20.5035 3.89252 -3.38703e-18)
(18.4848 2.82829 -1.7982e-18)
(16.4418 1.96605 3.14567e-19)
(14.2474 1.30199 0)
(11.8534 0.805843 -3.32206e-19)
(9.19975 0.457142 1.24547e-18)
(6.31752 0.251515 1.2149e-18)
(3.33349 0.170775 7.24791e-18)
(0.905821 0.183213 1.04677e-17)
(-0.639882 0.224174 1.62739e-18)
(-1.62798 0.266785 -2.90714e-17)
(-2.25086 0.313968 2.73063e-17)
(-2.61966 0.361444 1.96155e-18)
(-2.84701 0.411521 6.62437e-17)
(-3.011 0.465094 -1.07391e-18)
(-3.15081 0.521774 7.15034e-17)
(-3.29194 0.582834 -7.12361e-17)
(-3.44445 0.649174 -7.196e-17)
(-3.60996 0.72108 7.116e-17)
(-3.78189 0.795978 -1.09591e-21)
(-3.94236 0.86702 -1.45795e-18)
(-4.05617 0.921557 -5.78826e-17)
(-4.06917 0.938531 0)
(-3.93365 0.898523 -4.01419e-19)
(-3.54767 0.792926 9.51196e-17)
(-2.61133 0.580684 9.63665e-17)
(-0.835159 -0.00964381 8.92835e-17)
(-0.336817 -1.14467 1.26705e-16)
(1.51814 23.3927 0)
(5.46514 26.5291 0)
(10.8652 28.1345 2.35876e-18)
(15.9184 28.0245 -6.80307e-18)
(20.0106 26.6538 7.02314e-18)
(23.3682 24.5674 -8.37691e-18)
(26.0515 22.0807 -6.37657e-18)
(27.9979 19.3717 0)
(29.1794 16.5698 -9.78169e-18)
(29.6389 13.7864 -5.46601e-18)
(29.3187 10.9517 0)
(28.0508 8.42861 0)
(26.1557 6.46937 -3.69416e-18)
(24.1052 4.98276 -2.40249e-18)
(22.0136 3.72297 -7.35487e-20)
(19.8057 2.69415 7.71033e-20)
(17.4467 1.90092 0)
(14.9177 1.31219 0)
(12.1577 0.898906 -2.74807e-19)
(9.12349 0.630271 7.85563e-19)
(5.86466 0.468523 -8.77876e-19)
(3.03005 0.375073 4.16333e-18)
(1.0101 0.32123 -3.84744e-20)
(-0.408738 0.298887 -1.35318e-17)
(-1.35119 0.309072 -1.11831e-18)
(-1.95259 0.339157 -1.2177e-18)
(-2.35445 0.385037 -2.21889e-21)
(-2.63722 0.440202 1.36138e-18)
(-2.85459 0.500901 0)
(-3.0417 0.565937 0)
(-3.21705 0.634198 9.42296e-17)
(-3.3891 0.70495 -9.23575e-17)
(-3.5598 0.775162 4.42557e-17)
(-3.72294 0.838594 0)
(-3.85581 0.884415 3.97601e-17)
(-3.90785 0.889708 3.74027e-17)
(-3.81418 0.819745 0)
(-3.47981 0.653929 1.38375e-19)
(-2.61099 0.355219 -2.20973e-19)
(-0.853717 -0.351055 0)
(-0.276536 -1.70005 -5.46957e-17)
(3.33554 22.3381 1.01664e-19)
(7.02543 24.7963 -1.04773e-19)
(11.2434 26.1546 3.13176e-19)
(15.6619 26.2679 0)
(19.521 25.2361 -7.32104e-18)
(22.6442 23.5161 0)
(25.1127 21.3819 1.4209e-17)
(26.9522 18.9973 1.03272e-20)
(28.1848 16.5013 1.37441e-18)
(28.8616 14.0089 8.39436e-18)
(28.9877 11.4838 1.20884e-18)
(28.4219 9.16733 2.83217e-18)
(27.2785 7.2948 6.55122e-18)
(25.8486 5.83033 1.87584e-18)
(24.2212 4.55639 0)
(22.3324 3.46223 1.36921e-19)
(20.1645 2.57702 2.51466e-19)
(17.7368 1.89837 6.5915e-19)
(15.0311 1.41053 4.49713e-19)
(12.0067 1.08011 -4.75946e-19)
(8.64971 0.853205 -2.63899e-18)
(5.5391 0.67221 -3.76569e-18)
(3.06706 0.517195 0)
(1.15344 0.406621 2.39467e-17)
(-0.189423 0.353401 -1.47678e-17)
(-1.08112 0.344722 1.40881e-17)
(-1.68509 0.370438 -2.93233e-17)
(-2.10295 0.416363 0)
(-2.41096 0.473521 0)
(-2.65415 0.537021 0)
(-2.86071 0.604156 -3.35631e-17)
(-3.04982 0.674025 3.44876e-17)
(-3.23395 0.743464 -1.00465e-18)
(-3.4157 0.805161 -3.19411e-17)
(-3.57821 0.845957 -2.80459e-17)
(-3.6729 0.839096 -2.76091e-17)
(-3.63635 0.742067 -4.86521e-17)
(-3.38835 0.526324 -4.24755e-17)
(-2.66543 0.161406 -1.52279e-19)
(-1.11875 -0.588711 -3.49466e-17)
(-0.57013 -2.02893 2.11851e-17)
(5.15474 21.1811 0)
(8.38963 23.11 1.47219e-19)
(11.7549 24.2294 -6.66103e-20)
(15.3883 24.5539 2.87162e-19)
(18.7776 23.9856 5.49191e-18)
(21.6831 22.7336 -5.13781e-18)
(24.0887 20.988 -1.85186e-18)
(25.9551 18.8971 -6.60617e-18)
(27.2572 16.6173 0)
(28.0298 14.287 -7.73439e-18)
(28.311 11.9252 0)
(28.0443 9.72375 -1.7217e-18)
(27.3044 7.90065 -3.52975e-18)
(26.3067 6.46328 0)
(25.148 5.23243 6.54586e-19)
(23.7537 4.16266 0)
(22.0558 3.27335 0)
(20.0349 2.56828 -3.39141e-19)
(17.6626 2.04004 -5.19535e-19)
(14.8949 1.66361 0)
(11.6755 1.38262 1.98804e-18)
(8.49626 1.12776 0)
(5.69827 0.87072 0)
(3.2767 0.641345 -7.99242e-18)
(1.41195 0.484089 0)
(0.10448 0.404626 1.12344e-17)
(-0.783032 0.388114 2.39799e-17)
(-1.39126 0.409573 0)
(-1.82609 0.453314 0)
(-2.15053 0.509195 0)
(-2.40703 0.571896 2.73356e-17)
(-2.62602 0.639599 2.32876e-17)
(-2.83039 0.708525 -2.4321e-17)
(-3.0326 0.769452 -7.60668e-19)
(-3.22432 0.80563 7.03769e-19)
(-3.36418 0.786125 0)
(-3.39619 0.66241 3.81777e-17)
(-3.25604 0.397979 -3.32047e-17)
(-2.71965 -0.0288348 2.98391e-17)
(-1.47781 -0.796899 2.6787e-17)
(-1.02023 -2.21807 3.59373e-20)
(6.82689 19.9624 -2.27241e-19)
(9.58503 21.4708 -2.44372e-20)
(12.3157 22.381 6.86375e-19)
(15.2673 22.8052 -1.26074e-19)
(18.1778 22.565 -6.65765e-19)
(20.8076 21.7236 5.04614e-18)
(23.0888 20.3957 -6.20129e-18)
(24.9535 18.6819 5.39856e-18)
(26.3365 16.7081 2.45096e-18)
(27.2305 14.6033 -1.24639e-18)
(27.6549 12.415 0)
(27.5805 10.3068 0)
(27.0633 8.4884 6.54471e-19)
(26.2824 7.0208 -6.94041e-19)
(25.3718 5.79117 -9.95596e-19)
(24.3148 4.74419 -1.85219e-19)
(23.0474 3.88103 6.84098e-19)
(21.5235 3.19969 1.50876e-19)
(19.6837 2.68708 1.08618e-18)
(17.4457 2.31621 -2.46052e-18)
(14.685 2.02613 3.69206e-18)
(11.7564 1.73971 -1.98878e-18)
(8.90371 1.41226 1.1676e-18)
(6.11979 1.06256 1.44168e-18)
(3.70164 0.7656 -8.69939e-18)
(1.83696 0.56684 1.15679e-20)
(0.512393 0.467584 -2.20967e-17)
(-0.398135 0.439518 -1.86173e-17)
(-1.03537 0.454329 0)
(-1.49298 0.492658 0)
(-1.83597 0.544875 -1.98465e-17)
(-2.10816 0.60695 -4.32633e-17)
(-2.34376 0.673735 -1.27611e-18)
(-2.56724 0.733589 1.94898e-17)
(-2.78427 0.765875 1.94257e-17)
(-2.96807 0.735447 -1.77016e-17)
(-3.07454 0.588189 4.90977e-19)
(-3.05584 0.279879 5.44798e-17)
(-2.73055 -0.202914 -4.84041e-17)
(-1.84688 -0.983846 8.27903e-20)
(-1.53038 -2.31276 1.562e-17)
(8.33205 18.7195 0)
(10.6489 19.8934 -5.85854e-19)
(12.8829 20.6309 -1.27814e-18)
(15.2715 21.0747 -2.62472e-19)
(17.7093 21.0496 -1.69305e-19)
(20.016 20.5363 8.36085e-19)
(22.1102 19.5866 -2.90157e-18)
(23.9136 18.2568 1.23755e-18)
(25.3419 16.6339 0)
(26.3557 14.8207 1.55515e-18)
(26.9484 12.8696 -2.98989e-18)
(27.0828 10.9111 2.69901e-18)
(26.7793 9.13142 -2.80255e-19)
(26.1701 7.62964 0)
(25.3966 6.36442 3.1473e-19)
(24.5046 5.29874 2.27454e-19)
(23.4793 4.42944 -1.68728e-19)
(22.3024 3.757 -5.39168e-19)
(20.9359 3.26976 3.80467e-19)
(19.3023 2.93945 9.43292e-19)
(17.2357 2.69625 -1.04273e-18)
(14.904 2.44862 -1.4441e-18)
(12.3983 2.12729 0)
(9.62632 1.71312 2.05137e-18)
(6.85253 1.27983 4.92203e-18)
(4.40307 0.916748 -7.41547e-18)
(2.48104 0.674956 5.37234e-18)
(1.09192 0.548297 1.675e-17)
(0.116995 0.502313 -2.35996e-18)
(-0.57108 0.503764 -3.10748e-21)
(-1.07027 0.533353 -1.41954e-17)
(-1.44403 0.582035 -4.61482e-18)
(-1.74114 0.642353 -1.55057e-17)
(-2.00001 0.699787 0)
(-2.2444 0.72929 -1.55401e-17)
(-2.46835 0.691389 1.53841e-17)
(-2.6469 0.527308 -1.39276e-17)
(-2.75343 0.185721 -4.64313e-17)
(-2.65021 -0.341233 2.02037e-17)
(-2.14842 -1.13394 7.01924e-20)
(-2.02279 -2.34926 -2.83322e-17)
(9.66176 17.4834 1.38782e-18)
(11.5936 18.3939 -3.9671e-19)
(13.4298 18.9899 -2.79969e-19)
(15.3652 19.4072 1.07953e-18)
(17.3724 19.5052 -4.2283e-19)
(19.3376 19.2341 -9.26985e-19)
(21.1943 18.6019 1.84949e-18)
(22.8707 17.6268 1.85025e-18)
(24.2814 16.3586 -1.49035e-18)
(25.3711 14.8684 0)
(26.1149 13.2016 -8.89101e-19)
(26.4633 11.4563 1.32891e-19)
(26.3981 9.7834 -1.2036e-20)
(25.996 8.29443 4.05493e-19)
(25.3742 7.00331 3.21694e-20)
(24.6065 5.90347 -3.3484e-20)
(23.7165 4.99804 0)
(22.7217 4.29498 0)
(21.6312 3.79347 -1.70973e-18)
(20.4287 3.47904 1.50952e-18)
(19.0048 3.29097 -1.0383e-18)
(17.4043 3.13036 1.06896e-18)
(15.5781 2.90474 1.27927e-18)
(13.3165 2.54309 0)
(10.6932 2.06738 1.70959e-18)
(7.96319 1.56255 -2.02075e-18)
(5.46049 1.12881 -4.9021e-18)
(3.42692 0.827004 0)
(1.91224 0.656774 0)
(0.8273 0.580397 1.9886e-18)
(0.0504768 0.56145 1.74037e-17)
(-0.514252 0.579239 1.527e-17)
(-0.93716 0.621566 3.09167e-17)
(-1.27269 0.67081 1.92152e-18)
(-1.56569 0.697649 0)
(-1.83538 0.657552 -8.05466e-19)
(-2.08254 0.487167 1.27494e-17)
(-2.3068 0.129373 6.39476e-20)
(-2.41839 -0.422379 1.8172e-17)
(-2.29149 -1.21825 1.54069e-17)
(-2.407 -2.32276 1.30782e-17)
(10.8214 16.2811 -8.36034e-19)
(12.4282 16.9861 -1.02343e-20)
(13.9419 17.4661 1.09848e-18)
(15.5143 17.8354 -2.06912e-18)
(17.1506 17.9906 0)
(18.788 17.8802 -4.73693e-19)
(20.3839 17.4904 1.30061e-18)
(21.8838 16.816 -1.16974e-18)
(23.2134 15.876 4.39655e-19)
(24.3155 14.7106 8.91906e-19)
(25.1576 13.3508 4.27337e-20)
(25.6838 11.8643 -1.61113e-18)
(25.8492 10.3638 0)
(25.6801 8.95261 -2.56145e-20)
(25.2554 7.6784 -3.19826e-19)
(24.6465 6.56474 2.20596e-19)
(23.8929 5.62472 5.64234e-19)
(23.0277 4.87366 -5.82621e-19)
(22.0868 4.32038 5.01101e-19)
(21.1038 3.96659 0)
(20.0667 3.77965 -1.96123e-18)
(19.0208 3.67964 3.53707e-18)
(17.8823 3.57408 -3.01442e-18)
(16.4032 3.36241 -2.39433e-20)
(14.4695 2.99951 2.43616e-18)
(12.104 2.5041 -2.74833e-18)
(9.50284 1.95182 0)
(6.97206 1.44291 9.71121e-18)
(4.78921 1.05533 4.66751e-18)
(3.08293 0.811671 2.74738e-18)
(1.82279 0.685235 -1.26954e-17)
(0.907324 0.635729 -3.54494e-18)
(0.239113 0.634462 3.85261e-18)
(-0.258696 0.658942 -1.88643e-18)
(-0.655276 0.67618 -1.02781e-17)
(-0.999429 0.636549 -1.54038e-18)
(-1.32371 0.472706 0)
(-1.65724 0.121626 2.02901e-17)
(-1.96074 -0.428144 -1.70787e-17)
(-2.16875 -1.20696 -1.43833e-17)
(-2.55841 -2.21321 0)
(11.823 15.1341 0)
(13.1595 15.6802 0)
(14.4107 16.0649 0)
(15.6922 16.3793 5.72364e-18)
(17.0201 16.5497 -3.25241e-18)
(18.3637 16.5349 1.45097e-18)
(19.7013 16.3154 1.29011e-18)
(20.9982 15.8752 -3.49229e-19)
(22.198 15.2136 -3.00284e-19)
(23.2514 14.3468 1.60676e-19)
(24.1263 13.2898 -1.58138e-19)
(24.7688 12.083 5.68589e-19)
(25.1209 10.8021 -1.27584e-19)
(25.1735 9.53047 1.86631e-19)
(24.9668 8.32801 5.54653e-19)
(24.5533 7.24027 -4.76083e-19)
(23.9726 6.29252 -9.94513e-19)
(23.2592 5.5058 1.02568e-18)
(22.453 4.89554 -8.26021e-19)
(21.6003 4.47111 0)
(20.7432 4.22453 -2.84809e-18)
(19.9745 4.10996 2.02941e-18)
(19.2592 4.05807 8.22166e-19)
(18.4164 3.97983 -1.65282e-18)
(17.2957 3.80465 3.57549e-18)
(15.7643 3.48756 0)
(13.7826 3.02677 0)
(11.4536 2.4711 -2.50686e-18)
(9.00567 1.90535 -1.47158e-17)
(6.70899 1.41697 -6.98262e-18)
(4.76729 1.06113 8.20904e-18)
(3.25286 0.844722 2.38461e-18)
(2.1247 0.738423 -1.34469e-17)
(1.29596 0.70042 -2.91614e-18)
(0.674947 0.685539 1.81383e-17)
(0.181007 0.639141 -3.03292e-18)
(-0.255911 0.491374 -1.13499e-17)
(-0.704819 0.170551 1.2612e-18)
(-1.17674 -0.345924 1.55554e-17)
(-1.65698 -1.07878 0)
(-2.319 -1.99336 0)
(12.6816 14.0587 0)
(13.7949 14.4823 0)
(14.8317 14.789 -2.15486e-19)
(15.8795 15.0494 -4.02156e-18)
(16.9562 15.2119 0)
(18.0485 15.247 -3.27722e-18)
(19.1492 15.1375 -9.49359e-19)
(20.2398 14.8656 0)
(21.2825 14.4214 1.13303e-18)
(22.2401 13.8063 -1.02014e-18)
(23.0869 13.0231 -2.49725e-19)
(23.7773 12.09 -9.30918e-20)
(24.2525 11.0511 -4.49894e-20)
(24.4837 9.96454 0)
(24.4808 8.88616 1.15839e-18)
(24.272 7.87031 -9.19251e-19)
(23.8871 6.95258 0)
(23.3556 6.15991 0)
(22.7124 5.51292 -8.16726e-19)
(21.9984 5.02426 3.34412e-18)
(21.262 4.69799 -1.7933e-18)
(20.6164 4.51682 0)
(20.0749 4.43437 2.57459e-18)
(19.5436 4.38856 1.03385e-19)
(18.9446 4.32999 -2.79571e-18)
(18.1592 4.20569 1.48458e-18)
(17.0588 3.9685 0)
(15.5582 3.59471 0)
(13.6658 3.09874 -1.92896e-18)
(11.4996 2.53355 8.70084e-18)
(9.25802 1.97431 -5.01992e-18)
(7.15499 1.49311 5.85969e-18)
(5.35236 1.13572 3.38048e-18)
(3.91855 0.909403 0)
(2.82882 0.782826 6.34263e-18)
(2.00471 0.69281 5.74036e-21)
(1.34366 0.554988 2.06476e-17)
(0.731513 0.283519 0)
(0.0974892 -0.16678 -1.8039e-17)
(-0.593005 -0.821283 1.49626e-17)
(-1.50232 -1.63974 0)
(13.4131 13.0653 0)
(14.3422 13.3947 -2.3158e-18)
(15.2035 13.6379 2.10799e-18)
(16.0631 13.8495 0)
(16.9371 13.993 3.31087e-18)
(17.8213 14.049 -9.64936e-19)
(18.7167 14.0048 -1.12403e-17)
(19.6153 13.8454 1.2512e-17)
(20.4944 13.559 -6.74959e-18)
(21.3294 13.1398 -4.31929e-18)
(22.1028 12.584 2.88213e-18)
(22.7805 11.8951 6.93607e-19)
(23.3116 11.0934 -1.03697e-18)
(23.6612 10.2132 6.29237e-19)
(23.82 9.29701 -1.59977e-18)
(23.7952 8.3954 1.21101e-18)
(23.6025 7.54754 8.78306e-19)
(23.2622 6.78459 5.19134e-19)
(22.8015 6.13163 2.26745e-18)
(22.2528 5.60499 -5.23902e-18)
(21.6549 5.21439 2.99491e-18)
(21.1108 4.96225 1.17005e-19)
(20.6513 4.81522 5.10475e-19)
(20.2308 4.72511 0)
(19.8347 4.66828 -3.43299e-18)
(19.42 4.61717 1.14363e-18)
(18.9094 4.53623 3.70884e-18)
(18.2022 4.38446 -2.56398e-18)
(17.2023 4.12672 5.48169e-18)
(15.8556 3.74843 -2.93117e-18)
(14.1784 3.26485 0)
(12.263 2.71916 -5.35882e-18)
(10.2567 2.17012 -2.01672e-18)
(8.32205 1.67468 2.28208e-18)
(6.592 1.27158 -1.54979e-17)
(5.14768 0.967515 -2.90411e-18)
(3.99077 0.723864 -6.23811e-18)
(3.03248 0.459246 6.70756e-18)
(2.15355 0.092124 7.16333e-18)
(1.27343 -0.44163 -1.41887e-17)
(0.149272 -1.13621 -4.2124e-19)
(14.033 12.1597 0)
(14.8098 12.4167 1.26778e-19)
(15.5271 12.6088 1.91511e-18)
(16.2345 12.7781 6.99705e-18)
(16.9459 12.899 -4.11689e-18)
(17.6612 12.9592 2.32433e-18)
(18.385 12.9505 2.03378e-18)
(19.1158 12.8618 -1.08364e-17)
(19.8409 12.6827 2.05409e-18)
(20.5459 12.4055 4.00463e-18)
(21.2207 12.0245 -5.3745e-18)
(21.8426 11.5356 3.31043e-18)
(22.3725 10.9438 1.67039e-18)
(22.7782 10.2654 -5.4031e-19)
(23.0428 9.52749 0)
(23.1597 8.76904 0)
(23.1312 8.02517 -4.20369e-18)
(22.9673 7.32683 -8.42347e-19)
(22.6856 6.70095 4.00677e-18)
(22.3102 6.16737 -2.95902e-19)
(21.8697 5.7402 3.14711e-18)
(21.446 5.4373 -6.23257e-18)
(21.0716 5.23472 3.20842e-18)
(20.7204 5.08729 0)
(20.3978 4.98086 -4.59204e-19)
(20.1014 4.90377 3.86589e-18)
(19.8141 4.84328 -4.91024e-18)
(19.4974 4.78067 4.10494e-18)
(19.0898 4.68873 -3.13386e-18)
(18.5156 4.53548 0)
(17.7042 4.29342 2.28811e-18)
(16.6141 3.94969 4.83226e-18)
(15.2493 3.51194 -2.59089e-18)
(13.663 3.00636 2.81222e-18)
(11.9421 2.46932 1.51785e-18)
(10.2001 1.93995 -3.46873e-18)
(8.54523 1.4464 5.71321e-18)
(7.03448 0.989121 -4.13666e-18)
(5.66621 0.543445 -3.40516e-18)
(4.42287 0.0517434 -6.25847e-19)
(3.02675 -0.510379 1.03208e-17)
(14.5557 11.3437 -2.01246e-18)
(15.2063 11.5448 -7.49099e-18)
(15.8051 11.6959 7.36392e-18)
(16.3892 11.8298 0)
(16.9701 11.9285 -2.09337e-19)
(17.5497 11.9842 0)
(18.1338 11.9924 -1.69462e-17)
(18.7238 11.9456 1.36525e-17)
(19.3137 11.8356 9.72552e-18)
(19.8956 11.6559 -1.15601e-17)
(20.4648 11.4007 3.9912e-18)
(21.0077 11.0637 -2.03098e-18)
(21.497 10.6422 -1.45383e-18)
(21.9076 10.1409 -3.22762e-18)
(22.2224 9.57444 3.20009e-20)
(22.4291 8.96849 3.23209e-18)
(22.5215 8.34939 -2.5502e-18)
(22.5004 7.74315 3.50888e-18)
(22.3743 7.17464 0)
(22.1584 6.66457 4.41968e-18)
(21.8723 6.22984 4.45243e-20)
(21.5762 5.90044 -4.84952e-18)
(21.3 5.6624 4.30789e-20)
(21.0299 5.47384 0)
(20.7726 5.32308 3.77976e-19)
(20.5329 5.20101 3.93158e-19)
(20.3132 5.10139 0)
(20.1105 5.01928 0)
(19.9124 4.94765 2.34488e-21)
(19.6916 4.87383 0)
(19.4058 4.7783 -2.66631e-18)
(19.0024 4.63738 0)
(18.4303 4.42903 3.77845e-18)
(17.653 4.13879 -3.92814e-18)
(16.6545 3.76239 0)
(15.4518 3.30901 2.16091e-18)
(14.09 2.79758 -2.31315e-18)
(12.6198 2.24566 1.29863e-18)
(11.0801 1.67395 4.18913e-18)
(9.55983 1.0873 -3.8442e-19)
(7.82366 0.49006 -9.67401e-18)
(14.9949 10.6159 5.34359e-18)
(15.5406 10.7737 2.07014e-19)
(16.0413 10.8921 -3.26009e-18)
(16.5251 10.9969 -6.22909e-18)
(17.0011 11.0754 -1.4628e-17)
(17.4722 11.1231 1.73821e-17)
(17.944 11.1375 -4.27032e-19)
(18.4193 11.114 -1.0098e-17)
(18.8955 11.0467 1.99416e-17)
(19.3689 10.9307 -5.55389e-19)
(19.8381 10.7616 -1.08085e-17)
(20.2957 10.5332 3.89996e-18)
(20.7239 10.2399 -7.28741e-18)
(21.1052 9.88086 1.10884e-17)
(21.426 9.46241 -1.8567e-18)
(21.6739 8.99928 0)
(21.8395 8.50841 -7.70553e-18)
(21.9183 8.00849 6.97792e-18)
(21.9114 7.51919 7.50834e-18)
(21.8262 7.05881 -1.45119e-17)
(21.6741 6.64388 7.9644e-18)
(21.4947 6.31132 -4.18416e-19)
(21.3139 6.05675 -3.57331e-20)
(21.1282 5.84451 -4.9455e-18)
(20.9439 5.6662 1.00556e-17)
(20.7653 5.51388 -5.46968e-18)
(20.5958 5.381 5.07023e-18)
(20.4379 5.26304 -6.14366e-18)
(20.2934 5.1574 -6.34544e-18)
(20.1613 5.06202 5.68535e-18)
(20.035 4.97321 1.45409e-18)
(19.8988 4.88342 2.21442e-18)
(19.7272 4.78036 -6.71849e-18)
(19.4875 4.64799 6.06574e-18)
(19.1422 4.46845 -3.10327e-18)
(18.6591 4.2271 -1.61904e-18)
(18.0168 3.91606 0)
(17.2059 3.53163 -1.69921e-18)
(16.2113 3.07987 -1.78937e-18)
(15.1084 2.57671 -1.9846e-18)
(13.6716 2.01132 2.04362e-18)
(15.3621 9.9723 1.46902e-20)
(15.8202 10.0963 7.48497e-19)
(16.2398 10.1887 2.8518e-18)
(16.6417 10.27 -5.41424e-18)
(17.0333 10.3312 2.15813e-17)
(17.4176 10.3697 -2.00689e-17)
(17.7999 10.3846 2.53536e-17)
(18.1832 10.373 1.4072e-17)
(18.5666 10.331 -5.69427e-18)
(18.9488 10.2551 -7.94825e-19)
(19.3302 10.1425 -1.75525e-17)
(19.7069 9.98809 2.45079e-19)
(20.0682 9.78624 0)
(20.4026 9.53379 -3.33581e-18)
(20.7009 9.2327 3.4753e-18)
(20.9531 8.8904 -3.64993e-18)
(21.1503 8.51636 0)
(21.286 8.12222 6.91019e-18)
(21.3577 7.72148 -1.49226e-17)
(21.367 7.32799 5.31369e-18)
(21.3186 6.95528 -7.49402e-18)
(21.2345 6.6411 8.422e-18)
(21.1351 6.388 2.56147e-19)
(21.0238 6.1676 -1.00038e-19)
(20.9067 5.97541 8.63371e-18)
(20.788 5.80634 -8.7016e-18)
(20.6707 5.65514 2.79329e-19)
(20.5568 5.51698 5.71643e-19)
(20.4476 5.38801 -4.72965e-18)
(20.3449 5.26564 5.35896e-18)
(20.25 5.14844 -6.01417e-19)
(20.1634 5.0355 6.08978e-19)
(20.0823 4.92519 -2.4859e-18)
(19.9995 4.81398 1.22572e-18)
(19.9015 4.69521 5.09933e-18)
(19.7693 4.55994 -1.30203e-18)
(19.5797 4.39819 1.32226e-18)
(19.3107 4.19932 -2.70141e-18)
(18.9254 3.95346 1.40337e-18)
(18.4474 3.66612 1.40129e-18)
(17.7216 3.30297 0)
(15.6672 9.40645 -8.18766e-18)
(16.052 9.5038 1.50598e-17)
(16.4038 9.57563 1.49027e-17)
(16.7383 9.63832 -3.95015e-17)
(17.0615 9.68537 1.47991e-17)
(17.3765 9.7153 -3.25264e-17)
(17.6875 9.72804 2.72768e-17)
(17.9975 9.722 -4.05629e-17)
(18.3066 9.69456 3.92037e-17)
(18.6147 9.64335 -5.55145e-19)
(18.9226 9.56657 -1.67951e-17)
(19.2288 9.46062 -1.84127e-18)
(19.5267 9.32079 -1.46572e-17)
(19.8095 9.14371 1.4506e-17)
(20.0711 8.92938 -1.3521e-17)
(20.3049 8.68108 1.50463e-17)
(20.5038 8.40349 0)
(20.6618 8.10295 -1.15024e-17)
(20.7751 7.78763 1.40426e-17)
(20.8424 7.46668 -1.26781e-17)
(20.8643 7.14962 -2.04372e-19)
(20.8494 6.87039 2.04666e-17)
(20.8123 6.63516 -1.00245e-19)
(20.7598 6.42209 -7.30157e-18)
(20.6967 6.22958 -1.38392e-23)
(20.627 6.05527 0)
(20.5538 5.89625 -7.75334e-18)
(20.4792 5.74935 7.66513e-18)
(20.4042 5.61131 0)
(20.3295 5.47915 -4.99851e-19)
(20.2554 5.35041 0)
(20.1827 5.22336 4.18195e-18)
(20.1119 5.09708 -4.71284e-18)
(20.0433 4.97116 -4.28245e-18)
(19.9759 4.84503 8.61986e-18)
(19.9069 4.71818 -4.8925e-18)
(19.83 4.58929 -5.59911e-19)
(19.7375 4.45569 1.09866e-18)
(19.6117 4.31204 -1.11613e-18)
(19.4522 4.16105 0)
(19.2025 3.97946 -1.19409e-18)
(15.9084 8.93339 0)
(16.2342 9.01056 -2.04699e-17)
(16.5317 9.0671 5.47071e-19)
(16.8129 9.11596 2.82915e-17)
(17.0827 9.15218 1.81012e-17)
(17.344 9.17514 -1.84991e-17)
(17.6005 9.18522 1.77081e-17)
(17.8547 9.1815 1.74432e-17)
(18.1072 9.16225 3.41165e-17)
(18.3581 9.12583 -4.32496e-17)
(18.6088 9.07107 4.29806e-18)
(18.8585 8.99536 4.10307e-18)
(19.1033 8.89507 -1.51589e-17)
(19.3389 8.76736 1.11492e-17)
(19.5619 8.61161 1.62115e-17)
(19.7677 8.42915 -1.24554e-17)
(19.9515 8.22209 -1.54595e-17)
(20.1085 7.99366 1.55436e-17)
(20.2353 7.74844 0)
(20.3295 7.49201 1.74215e-18)
(20.3898 7.23045 1.73513e-18)
(20.4171 6.99197 1.37886e-17)
(20.4209 6.78381 -2.75981e-17)
(20.4086 6.58927 1.41148e-17)
(20.3837 6.40824 7.12017e-18)
(20.3493 6.23997 -1.4933e-19)
(20.3082 6.08326 -7.23899e-18)
(20.2623 5.93651 1.1336e-19)
(20.213 5.79792 7.41208e-21)
(20.161 5.66556 7.54549e-18)
(20.1064 5.53757 -7.62112e-18)
(20.0493 5.41221 -3.89292e-18)
(19.9893 5.28808 4.14785e-18)
(19.9263 5.16417 -3.98194e-18)
(19.8601 5.03981 3.47875e-18)
(19.7905 4.91536 3.04815e-18)
(19.7173 4.7918 -1.53451e-18)
(19.6395 4.67 5.24718e-19)
(19.5545 4.55051 0)
(19.4607 4.43702 0)
(19.3513 4.32431 -2.42935e-20)
(16.0927 8.55486 -9.18424e-18)
(16.3726 8.6172 1.03102e-17)
(16.6281 8.6624 -4.47198e-18)
(16.8684 8.70081 -8.79007e-18)
(17.0978 8.72861 0)
(17.3187 8.74571 1.73861e-17)
(17.5345 8.75273 -4.27535e-17)
(17.7472 8.74917 2.62351e-17)
(17.9575 8.73385 -8.63901e-18)
(18.1659 8.70566 8.29108e-18)
(18.3735 8.66392 -4.11617e-18)
(18.5802 8.60671 -3.6351e-17)
(18.7835 8.53125 6.27762e-17)
(18.9807 8.43525 -2.69376e-17)
(19.1695 8.31794 -3.56019e-18)
(19.3472 8.17976 -1.4296e-17)
(19.5103 8.02155 4.4003e-17)
(19.6555 7.84487 -1.92447e-17)
(19.7797 7.65221 -2.9369e-17)
(19.8809 7.44685 1.2084e-17)
(19.9571 7.23252 -3.3917e-18)
(20.0053 7.03197 0)
(20.0316 6.85218 0)
(20.0428 6.68021 -1.38516e-17)
(20.0415 6.51662 1.38637e-17)
(20.0297 6.36147 2.14783e-19)
(20.0095 6.21447 0)
(19.9826 6.07499 7.17602e-18)
(19.9503 5.9422 -7.18876e-18)
(19.9134 5.81513 5.59859e-20)
(19.8724 5.6928 -5.82026e-20)
(19.8274 5.57425 0)
(19.7784 5.45857 3.5591e-18)
(19.7249 5.34497 -3.76133e-18)
(19.6664 5.23264 4.70114e-19)
(19.6025 5.12147 -4.74892e-19)
(19.533 5.01191 0)
(19.4576 4.90423 -4.84941e-19)
(19.3762 4.7994 -9.98713e-19)
(19.289 4.69979 4.93482e-19)
(19.1978 4.60553 1.49139e-18)
(16.2367 8.24794 0)
(16.4801 8.29898 0)
(16.7022 8.33549 -1.66458e-17)
(16.9105 8.36587 -3.30003e-17)
(17.1084 8.38713 5.04173e-17)
(17.2981 8.39952 -4.13153e-17)
(17.4824 8.40376 -1.62286e-17)
(17.6634 8.39958 3.35587e-17)
(17.8416 8.38618 -3.31783e-17)
(18.0175 8.36278 3.34731e-17)
(18.1923 8.32895 0)
(18.3659 8.28332 0)
(18.5367 8.22377 3.13172e-17)
(18.703 8.14853 -6.10966e-17)
(18.8633 8.05689 5.94148e-17)
(19.0159 7.94891 -2.92024e-17)
(19.1583 7.82485 -3.63116e-18)
(19.2881 7.68537 3.32622e-17)
(19.403 7.53177 -2.26302e-17)
(19.5012 7.36594 0)
(19.5808 7.19007 1.65964e-18)
(19.6371 7.02231 0)
(19.674 6.86885 -1.44898e-17)
(19.6977 6.71953 2.81436e-17)
(19.7096 6.57514 -1.3656e-17)
(19.7112 6.43615 0)
(19.7041 6.30272 0)
(19.6895 6.17476 6.53721e-18)
(19.6685 6.05202 -6.97543e-18)
(19.6418 5.9341 -7.07159e-18)
(19.6101 5.82059 7.12176e-18)
(19.5737 5.71107 7.17051e-18)
(19.5328 5.60515 -7.19231e-18)
(19.4874 5.50249 0)
(19.4374 5.40262 -5.76108e-20)
(19.3824 5.30552 0)
(19.3223 5.21145 -1.46099e-20)
(19.2569 5.12024 -5.88427e-20)
(19.1861 5.03224 2.00923e-18)
(19.1098 4.94842 -2.84149e-18)
(19.0294 4.8687 9.37394e-19)
(16.3512 7.99424 0)
(16.565 8.03644 -1.94789e-18)
(16.76 8.06613 0)
(16.9424 8.09023 1.56058e-17)
(17.1149 8.10634 -1.56764e-17)
(17.2798 8.11492 0)
(17.4394 8.11674 1.58054e-17)
(17.5953 8.11166 1.56669e-17)
(17.7483 8.09913 -4.05943e-17)
(17.8989 8.0786 0)
(18.0478 8.04978 3.21167e-17)
(18.1954 8.0117 -6.46648e-17)
(18.3405 7.96275 3.15222e-17)
(18.4818 7.90154 0)
(18.6186 7.82752 -2.93892e-17)
(18.7496 7.74059 3.27086e-17)
(18.873 7.64077 3.17333e-17)
(18.9871 7.52829 -3.50442e-17)
(19.0903 7.40381 -3.38034e-18)
(19.1809 7.26842 0)
(19.2574 7.12335 0)
(19.3147 6.98308 -1.71929e-18)
(19.3555 6.85287 8.22535e-19)
(19.3848 6.72462 1.34726e-17)
(19.4036 6.59912 8.93939e-19)
(19.4128 6.47698 -1.34436e-17)
(19.4136 6.35859 1.35385e-17)
(19.407 6.24415 -1.31036e-17)
(19.3937 6.13371 -7.68428e-18)
(19.3745 6.02721 6.81297e-18)
(19.3499 5.92455 -6.88588e-18)
(19.3203 5.82561 6.87437e-18)
(19.286 5.7303 0)
(19.2473 5.6385 -7.43157e-18)
(19.2044 5.54999 7.02996e-18)
(19.1572 5.46489 0)
(19.1059 5.38347 1.36836e-20)
(19.0505 5.30558 1.84086e-18)
(18.991 5.23134 -1.89222e-18)
(18.9276 5.16124 8.46451e-19)
(18.8609 5.09505 -8.84881e-19)
(16.444 7.78126 0)
(16.6331 7.81639 1.79457e-18)
(16.8056 7.84062 -1.45855e-17)
(16.9666 7.85972 2.91393e-17)
(17.1184 7.87172 -5.93761e-17)
(17.263 7.87723 3.02106e-17)
(17.4024 7.877 0)
(17.5382 7.871 1.51813e-17)
(17.671 7.85883 9.21195e-17)
(17.8011 7.8401 -6.24235e-17)
(17.9295 7.81463 0)
(18.0562 7.7817 -7.90708e-18)
(18.1805 7.74009 2.28795e-17)
(18.3015 7.68874 -2.89892e-19)
(18.4188 7.6272 -2.92336e-17)
(18.5313 7.55535 3.20701e-17)
(18.6379 7.4731 -2.80909e-17)
(18.7374 7.38054 2.74042e-17)
(18.8284 7.27797 -2.73535e-17)
(18.9097 7.16602 -2.7e-17)
(18.98 7.0454 2.33505e-17)
(19.0347 6.92774 -1.16714e-17)
(19.0753 6.81739 1.48617e-17)
(19.1061 6.70782 -1.39831e-17)
(19.1278 6.59973 -2.50097e-18)
(19.1409 6.49374 1.31398e-17)
(19.1464 6.39032 0)
(19.1449 6.28978 0)
(19.137 6.19232 -1.2432e-17)
(19.1233 6.09807 1.32177e-17)
(19.1044 6.00708 0)
(19.0806 5.9194 8.41146e-19)
(19.0523 5.83507 8.43383e-19)
(19.0198 5.75409 7.13934e-18)
(18.9834 5.67636 -7.12884e-18)
(18.9432 5.60202 -3.38528e-18)
(18.8996 5.53133 3.37547e-18)
(18.8527 5.46415 -1.27653e-18)
(18.8028 5.40058 3.4086e-18)
(18.75 5.34093 -1.65105e-18)
(18.6947 5.28516 -2.11418e-19)
(16.52 7.60014 1.3071e-17)
(16.6882 7.62953 1.63264e-17)
(16.8418 7.64934 -1.77092e-19)
(16.9848 7.6644 0)
(17.1193 7.67311 0)
(17.247 7.67612 0)
(17.3699 7.67419 0)
(17.4891 7.66734 -5.79334e-17)
(17.6052 7.65529 1.0317e-16)
(17.7187 7.63776 -5.97497e-17)
(17.8302 7.61463 5.97258e-17)
(17.9398 7.58537 -3.79569e-17)
(18.0471 7.54906 6.73543e-17)
(18.1515 7.50488 -8.03133e-17)
(18.2524 7.45248 2.855e-17)
(18.3493 7.39177 2.08859e-17)
(18.4414 7.32264 -2.74694e-17)
(18.5277 7.24507 3.3279e-18)
(18.6071 7.15925 -3.37604e-18)
(18.6789 7.06555 3.31395e-17)
(18.7419 6.96436 2.92897e-17)
(18.7918 6.86513 -4.87784e-17)
(18.8301 6.77144 -1.58717e-18)
(18.8601 6.67794 0)
(18.8821 6.58526 1.58012e-18)
(18.8968 6.49395 -1.61846e-18)
(18.9046 6.40446 -1.1202e-17)
(18.9062 6.31716 1.27851e-17)
(18.902 6.23229 -1.28344e-17)
(18.8925 6.15004 1.2799e-17)
(18.8781 6.07057 1.28661e-17)
(18.8592 5.99398 -1.36225e-17)
(18.8362 5.92036 -7.96379e-19)
(18.8094 5.84979 6.46559e-18)
(18.779 5.78221 -5.22906e-18)
(18.7454 5.71775 0)
(18.7088 5.65662 0)
(18.6695 5.59869 -4.02634e-19)
(18.6277 5.54402 8.17731e-19)
(18.5838 5.49282 8.18563e-19)
(18.5379 5.44518 1.98285e-19)
(16.583 7.44446 0)
(16.7334 7.46913 -3.05931e-18)
(16.8707 7.4853 2.49608e-17)
(16.9984 7.49708 -2.56778e-17)
(17.1182 7.50311 -5.1942e-17)
(17.2318 7.50411 5.35411e-17)
(17.3406 7.50078 2.68001e-17)
(17.4459 7.4932 -5.54424e-17)
(17.5482 7.48117 -5.57705e-17)
(17.6478 7.46449 5.69441e-17)
(17.7453 7.4431 0)
(17.8408 7.41658 -2.88786e-17)
(17.934 7.38425 5.78538e-17)
(18.0244 7.34549 -6.3881e-17)
(18.1117 7.30002 0)
(18.1954 7.24779 -6.82127e-18)
(18.275 7.18869 6.71221e-18)
(18.3496 7.12271 0)
(18.4186 7.04994 3.20958e-18)
(18.4813 6.97064 -6.36405e-18)
(18.5366 6.88502 2.86547e-17)
(18.5813 6.80084 -2.84346e-17)
(18.6161 6.72102 3.16203e-18)
(18.6439 6.64117 2.33907e-17)
(18.6649 6.5618 -2.33101e-17)
(18.6796 6.48341 1.53402e-18)
(18.6883 6.4064 -1.3948e-17)
(18.6916 6.33111 1.23772e-17)
(18.6897 6.25781 1.56174e-18)
(18.6831 6.1867 0)
(18.6722 6.11795 0)
(18.6573 6.0517 0)
(18.6388 5.98805 -6.20586e-18)
(18.6169 5.92708 6.18363e-18)
(18.5919 5.86877 -7.68163e-19)
(18.5641 5.81324 -6.21403e-18)
(18.5339 5.76064 6.96945e-18)
(18.5013 5.71086 0)
(18.4667 5.66392 9.22878e-21)
(18.4304 5.61995 -1.54835e-18)
(18.3924 5.57914 7.55917e-19)
(16.6356 7.30941 1.10981e-17)
(16.7706 7.33014 0)
(16.8939 7.34331 -5.78069e-17)
(17.0084 7.35239 4.77822e-17)
(17.1156 7.35625 0)
(17.217 7.35561 4.98017e-17)
(17.3139 7.35116 -2.26131e-19)
(17.4074 7.34299 5.19631e-17)
(17.4979 7.33096 -7.99284e-17)
(17.5858 7.31494 -5.36928e-17)
(17.6715 7.2949 5.48014e-17)
(17.7552 7.27054 1.36927e-17)
(17.8366 7.24132 0)
(17.9152 7.20679 0)
(17.991 7.16675 -1.34319e-17)
(18.0635 7.12116 5.86734e-17)
(18.1323 7.06996 -1.15831e-16)
(18.1968 7.01313 5.09283e-17)
(18.2565 6.95074 6.33792e-18)
(18.3109 6.88297 6.28864e-18)
(18.3591 6.80997 -3.05056e-18)
(18.3983 6.73815 4.585e-17)
(18.4293 6.6699 -7.87835e-17)
(18.4544 6.60156 1.48899e-18)
(18.4736 6.53358 2.25665e-17)
(18.4874 6.46636 0)