/*--------------------------------*- C++ -*----------------------------------*\
| =========                 |                                                 |
| \\      /  F ield         | OpenFOAM: The Open Source CFD Toolbox           |
|  \\    /   O peration     | Version:  5.x                                   |
|   \\  /    A nd           | Web:      www.OpenFOAM.org                      |
|    \\/     M anipulation  |                                                 |
\*---------------------------------------------------------------------------*/
FoamFile
{
    version     2.0;
    format      ascii;
    class       volVectorField;
    location    "250";
    object      wallShearStress;
}
// * * * * * * * * * * * * * * * * * * * * * * * * * * * * * * * * * * * * * //

dimensions      [0 2 -2 0 0 0 0];

internalField   uniform (0 0 0);

boundaryField
{
    inlet
    {
        type            calculated;
        value           uniform (0 0 0);
    }
    outlet
    {
        type            calculated;
        value           uniform (0 0 0);
    }
    walls
    {
        type            calculated;
        value           nonuniform List<vector> 
82
(
(0.116051 -0.817483 -3.76158e-37)
(-0.0277489 -1.20582 7.14691e-21)
(-0.216564 -1.53179 -8.36352e-19)
(-0.4962 -1.57368 -9.43889e-19)
(-0.728531 -1.4785 -2.20261e-18)
(-0.898369 -1.30321 1.1033e-18)
(-1.00324 -1.09474 1.06354e-18)
(-1.05221 -0.884212 -9.98017e-19)
(-1.05721 -0.690099 -2.26147e-18)
(-1.02419 -0.518805 -7.33055e-20)
(-0.931463 -0.353887 -1.00764e-18)
(-0.813736 -0.219797 5.09006e-20)
(-0.725678 -0.140785 -7.73754e-19)
(-0.678801 -0.102597 -7.11628e-19)
(-0.639217 -0.0763522 -5.54295e-19)
(-0.590502 -0.0511113 -3.16842e-19)
(-0.535475 -0.0290578 2.3933e-19)
(-0.479765 -0.0113933 1.8925e-20)
(-0.425054 0.00219909 -1.88906e-20)
(-0.371444 0.0121591 -9.64261e-20)
(-0.318793 0.0188463 -6.2278e-20)
(-0.273774 0.0220717 -3.66626e-20)
(-0.235599 0.0230997 -2.17525e-20)
(-0.199713 0.0228451 2.50969e-21)
(-0.166088 0.0215656 1.34012e-21)
(-0.134819 0.0194676 -3.63268e-21)
(-0.106032 0.0167371 2.93927e-19)
(-0.0800798 0.013556 -6.06923e-21)
(-0.0574638 0.0103405 4.07512e-19)
(-0.0377543 0.00731185 -4.34756e-19)
(-0.0215916 0.00450648 -7.10042e-21)
(-0.00948006 0.00216961 -3.98817e-21)
(-0.00245783 0.000615618 3.70041e-21)
(0.00123316 -0.000215889 0)
(0.00479361 -0.00108207 -1.2432e-18)
(0.00858753 -0.00233034 1.50463e-36)
(0.0152014 -0.00464587 -5.87747e-38)
(0.0275046 -0.00780857 2.46734e-21)
(0.0419892 -0.00831836 -2.56511e-21)
(0.0460114 -0.000376277 1.17945e-18)
(0.0214033 0.00974874 1.17737e-18)
(0.142485 -0.531431 -2.28625e-19)
(0.0874728 -0.23963 -3.23365e-20)
(0.0324413 -0.0847658 -1.54383e-18)
(-0.000218162 -0.0157324 -6.53441e-19)
(-0.0166596 0.00156245 -7.97713e-19)
(-0.0501938 0.0202515 -1.02676e-18)
(-0.0895919 0.0369895 -2.1203e-18)
(-0.128509 0.0491223 -9.8778e-19)
(-0.165201 0.0581404 8.7474e-19)
(-0.205235 0.0692156 5.9052e-20)
(-0.251653 0.0786764 -1.74096e-18)
(-0.292765 0.0774913 7.77204e-19)
(-0.324266 0.0696326 2.09654e-21)
(-0.350685 0.0610367 4.68036e-19)
(-0.374131 0.0523629 7.12571e-19)
(-0.393916 0.0430078 -4.31931e-20)
(-0.409782 0.0331166 2.82119e-37)
(-0.422022 0.0230389 -2.71383e-19)
(-0.430975 0.0130591 -1.89539e-20)
(-0.437008 0.00339721 -1.41217e-19)
(-0.440142 -0.00570838 3.52959e-22)
(-0.441495 -0.0138401 -4.70198e-38)
(-0.441073 -0.0202778 -2.83794e-19)
(-0.439897 -0.0259156 -2.44105e-19)
(-0.438208 -0.0309123 5.07315e-19)
(-0.436136 -0.0353557 4.94907e-19)
(-0.433826 -0.0393047 9.66758e-19)
(-0.431392 -0.0428216 4.72403e-19)
(-0.428901 -0.045969 1.43301e-20)
(-0.426421 -0.0488088 -4.65306e-19)
(-0.424015 -0.0514024 -4.48054e-19)
(-0.421761 -0.0538111 8.68911e-19)
(-0.419689 -0.0560938 8.48597e-19)
(-0.417831 -0.0582985 -8.28303e-19)
(-0.416176 -0.060469 6.23313e-21)
(-0.414753 -0.0626462 -6.14694e-21)
(-0.413474 -0.0648673 0)
(-0.412825 -0.0672203 -1.46937e-39)
(-0.411125 -0.06969 1.4046e-21)
(-0.416657 -0.0727573 -7.13312e-19)
(-0.398823 -0.0758561 6.51691e-22)
)
;
    }
    frontAndBack
    {
        type            empty;
    }
}


// ************************************************************************* //
