/*--------------------------------*- C++ -*----------------------------------*\
| =========                 |                                                 |
| \\      /  F ield         | OpenFOAM: The Open Source CFD Toolbox           |
|  \\    /   O peration     | Version:  5.x                                   |
|   \\  /    A nd           | Web:      www.OpenFOAM.org                      |
|    \\/     M anipulation  |                                                 |
\*---------------------------------------------------------------------------*/
FoamFile
{
    version     2.0;
    format      ascii;
    class       volVectorField;
    location    "250";
    object      wallShearStress;
}
// * * * * * * * * * * * * * * * * * * * * * * * * * * * * * * * * * * * * * //

dimensions      [0 2 -2 0 0 0 0];

internalField   uniform (0 0 0);

boundaryField
{
    inlet
    {
        type            calculated;
        value           uniform (0 0 0);
    }
    outlet
    {
        type            calculated;
        value           uniform (0 0 0);
    }
    walls
    {
        type            calculated;
        value           nonuniform List<vector> 
164
(
(-597.438 -923.906 0)
(-1080.15 -833.158 -1.56692e-15)
(-1579.3 -642.277 -4.44305e-16)
(-1411.25 -473.45 1.76847e-15)
(-1317.43 -369.536 4.45437e-21)
(-1204.29 -291.569 1.24017e-15)
(-1094.23 -233.287 1.46537e-15)
(-998.273 -190.197 -1.67654e-15)
(-914.133 -157.296 -3.31501e-32)
(-840.463 -131.492 2.04795e-15)
(-775.044 -110.948 -2.24728e-15)
(-720.241 -94.6115 -2.31844e-15)
(-670.729 -81.1499 1.94189e-20)
(-636.822 -71.0667 -2.46853e-15)
(-604.533 -62.3135 2.71519e-15)
(-582.282 -55.5361 2.62385e-15)
(-558.83 -49.2383 -2.72133e-15)
(-538.796 -43.8838 2.75239e-15)
(-521.26 -39.1625 2.71611e-15)
(-502.571 -34.7875 -2.84549e-15)
(-489.308 -31.1434 2.73923e-15)
(-473.484 -27.6035 5.96809e-21)
(-461.684 -24.5969 1.57655e-20)
(-450.235 -21.8026 -1.04542e-20)
(-438.985 -19.2296 -5.53881e-15)
(-430.612 -16.9463 2.66018e-15)
(-420.859 -14.749 -1.6551e-35)
(-412.794 -12.7685 1.30112e-15)
(-404.834 -10.9061 -1.29878e-15)
(-397.755 -9.17473 -1.35417e-35)
(-389.301 -7.52627 -9.54878e-21)
(-381.403 -5.98573 9.40702e-21)
(-375.158 -4.57382 8.44237e-21)
(-370.327 -3.2384 -1.7879e-20)
(-363.959 -1.98058 -5.73407e-16)
(-359.624 -0.788221 -1.08381e-35)
(-354.213 0.330002 6.7858e-17)
(-349.474 1.40005 -5.32346e-16)
(-347.872 2.4176 5.03137e-16)
(-343.849 3.39472 -9.8008e-16)
(-339.932 4.30301 1.20371e-35)
(-336.757 5.18618 3.65622e-15)
(-320.197 5.69426 3.31019e-35)
(-317.54 6.32901 -9.82529e-21)
(-313.425 6.86412 -2.40948e-15)
(-309.458 7.37462 4.62771e-21)
(-307.62 7.89593 -4.56231e-21)
(-304.5 8.35205 -2.40237e-15)
(-301.512 8.79157 4.79724e-15)
(-297.042 9.1399 2.41801e-15)
(-294.175 9.52728 4.61939e-21)
(-291.467 9.87243 -2.41344e-15)
(-288.85 10.2208 2.40981e-15)
(-287.968 10.59 -4.55686e-21)
(-285.642 10.9157 -1.77127e-23)
(-282.616 11.1718 -1.75476e-23)
(-280.563 11.4645 4.50805e-21)
(-277.01 11.6684 1.80556e-35)
(-276.234 11.983 4.7004e-15)
(-272.687 12.1635 4.54136e-21)
(-272.403 12.4838 -4.65503e-15)
(-268.62 12.6666 4.7229e-15)
(-265.769 12.9075 -4.73271e-15)
(-264.32 13.1917 9.37962e-15)
(-261.428 13.4136 -4.70785e-15)
(-261.289 13.7539 4.61069e-15)
(-258.787 13.983 -1.20371e-35)
(-256.499 14.1995 -2.18306e-21)
(-253.784 14.4012 -9.02304e-24)
(-250.462 14.5602 4.5546e-15)
(-248.361 14.7755 9.55108e-24)
(-245.476 14.9554 -2.18356e-21)
(-242.573 15.1237 -9.04979e-15)
(-237.587 15.1581 1.10383e-21)
(-235.094 15.3405 -9.2226e-15)
(-231.342 15.4488 2.96449e-31)
(-226.854 15.4955 1.83788e-14)
(-221.69 15.4944 5.51335e-22)
(-216.397 15.4675 -9.40274e-15)
(-207.474 15.1865 9.40505e-15)
(-211.675 15.7829 -9.50497e-15)
(-6.2924 1.45938 1.69722e-14)
(482.835 -909.577 0)
(-322.975 209.207 -1.12764e-14)
(-627.849 273.008 -9.62965e-35)
(-748.37 251.322 1.87212e-31)
(-769.544 213.705 -1.4406e-31)
(-754.602 180.161 5.17524e-15)
(-741.556 155.261 1.9836e-20)
(-728.748 135.84 1.46937e-39)
(-709.533 119.033 -3.26511e-20)
(-687.56 104.539 -4.77955e-15)
(-663.239 91.9681 -1.83452e-20)
(-644.223 81.7055 -4.59181e-15)
(-621.684 72.3811 1.80857e-20)
(-606.854 64.9391 -1.68235e-20)
(-586.638 57.7727 -4.62665e-15)
(-572.648 51.9703 4.34312e-15)
(-556.013 46.4296 -1.66841e-20)
(-540.943 41.5742 4.30619e-15)
(-527.938 37.2452 -1.5742e-20)
(-512.516 33.1449 5.65822e-21)
(-502.104 29.6847 4.01119e-15)
(-489.056 26.3309 -3.61112e-35)
(-479.557 23.4297 -3.91281e-15)
(-469.756 20.6942 -3.82746e-15)
(-459.629 18.1464 -1.72165e-20)
(-452.725 15.8847 -3.5869e-15)
(-445.253 13.7402 -1.08514e-32)
(-438.905 11.7726 1.69659e-15)
(-431.764 9.88971 -3.35143e-15)
(-425.703 8.13302 -1.15728e-20)
(-416.505 6.44233 -1.59508e-15)
(-410.665 4.89788 -7.73886e-16)
(-408.678 3.48251 -1.11306e-20)
(-401.554 2.07541 3.57837e-16)
(-397.089 0.788109 1.71119e-16)
(-391.37 -0.452955 -2.06268e-20)
(-390.636 -1.62309 9.62278e-21)
(-386.673 -2.75038 6.12188e-16)
(-381.371 -3.7862 -1.18606e-15)
(-379.764 -4.8271 -8.63432e-21)
(-376.994 -5.78624 2.15747e-15)
(-374.19 -6.71866 -2.07025e-15)
(-358.712 -7.24057 -3.53585e-32)
(-356.797 -7.92182 -2.66546e-15)
(-354.255 -8.52028 -2.64222e-15)
(-349.211 -9.03217 -2.66731e-15)
(-346.602 -9.55394 5.28956e-15)
(-344.069 -10.0446 -2.63506e-15)
(-341.686 -10.5198 -2.61592e-15)
(-339.39 -10.9503 2.60011e-15)
(-337.191 -11.3808 3.70281e-37)
(-335.108 -11.7615 2.56565e-15)
(-335.427 -12.2351 4.80113e-21)
(-333.519 -12.5883 5.00181e-15)
(-331.688 -12.946 4.95883e-15)
(-329.854 -13.2642 -2.10649e-35)
(-328.203 -13.5922 1.0108e-31)
(-326.448 -13.8847 -4.64348e-21)
(-324.928 -14.1889 9.60577e-15)
(-323.199 -14.455 4.6931e-21)
(-321.89 -14.7477 -9.4255e-15)
(-320.217 -14.9476 -4.71359e-15)
(-318.713 -15.1368 -6.01853e-36)
(-317.403 -15.3255 -2.21224e-21)
(-315.999 -15.5054 -4.58999e-15)
(-313.141 -15.6069 -4.60946e-15)
(-311.248 -15.7535 -4.62429e-15)
(-312.485 -16.0513 4.46143e-15)
(-310.657 -16.1994 4.50594e-15)
(-308.21 -16.3144 2.12114e-21)
(-306.711 -16.472 1.61775e-33)
(-305.477 -16.6514 -1.09937e-21)
(-305.669 -16.9117 -4.29759e-15)
(-303.188 -17.0291 2.07049e-21)
(-302.7 -17.262 4.28951e-15)
(-300.832 -17.4228 -2.032e-21)
(-298.972 -17.59 1.00222e-21)
(-296.715 -17.7399 5.01344e-22)
(-294.717 -17.9122 -8.40484e-15)
(-290.17 -17.9398 8.27755e-15)
(-297.674 -18.6299 3.70005e-22)
(-33.9521 -2.6496 -1.70797e-14)
)
;
    }
    frontAndBack
    {
        type            empty;
    }
}


// ************************************************************************* //
