/*--------------------------------*- C++ -*----------------------------------*\
| =========                 |                                                 |
| \\      /  F ield         | OpenFOAM: The Open Source CFD Toolbox           |
|  \\    /   O peration     | Version:  5.x                                   |
|   \\  /    A nd           | Web:      www.OpenFOAM.org                      |
|    \\/     M anipulation  |                                                 |
\*---------------------------------------------------------------------------*/
FoamFile
{
    version     2.0;
    format      ascii;
    class       volVectorField;
    location    "250";
    object      wallShearStress;
}
// * * * * * * * * * * * * * * * * * * * * * * * * * * * * * * * * * * * * * //

dimensions      [0 2 -2 0 0 0 0];

internalField   uniform (0 0 0);

boundaryField
{
    inlet
    {
        type            calculated;
        value           uniform (0 0 0);
    }
    outlet
    {
        type            calculated;
        value           uniform (0 0 0);
    }
    walls
    {
        type            calculated;
        value           nonuniform List<vector> 
82
(
(0.308266 -1.71136 0)
(0.00942966 -2.3909 1.14517e-20)
(-0.340384 -2.92463 -1.43877e-18)
(-0.839274 -2.91615 -1.54899e-18)
(-1.2119 -2.60702 -3.36137e-18)
(-1.45154 -2.17851 1.61024e-18)
(-1.57179 -1.73317 1.48117e-18)
(-1.59584 -1.32618 -1.32006e-18)
(-1.54658 -0.980499 -2.83463e-18)
(-1.43525 -0.695643 -8.88847e-20)
(-1.23123 -0.440002 -1.06451e-18)
(-0.99756 -0.245265 4.08945e-20)
(-0.819496 -0.138137 -5.5328e-19)
(-0.706473 -0.08987 -3.54825e-19)
(-0.603163 -0.0589151 -1.51073e-19)
(-0.485327 -0.0310868 8.94354e-21)
(-0.360421 -0.0103752 -9.77545e-20)
(-0.241122 0.00121752 -2.38479e-20)
(-0.13677 0.00530996 2.17729e-20)
(-0.0538346 0.00468515 2.22742e-19)
(-0.00725729 0.00149967 1.80057e-19)
(0.0070229 -0.000246103 2.67953e-19)
(0.021761 -0.00184338 7.19823e-19)
(0.0339654 -0.00330483 5.36288e-20)
(0.0420031 -0.00457782 2.64521e-22)
(0.0462804 -0.0055839 -3.12232e-20)
(0.048222 -0.00642018 2.06999e-18)
(0.0491963 -0.00728589 -3.26635e-20)
(0.0501107 -0.00822206 2.14114e-18)
(0.0515191 -0.00921316 -2.0868e-18)
(0.0537547 -0.0103476 -3.29688e-20)
(0.0571274 -0.0117115 -1.62176e-20)
(0.0618563 -0.0133256 1.58153e-20)
(0.0677425 -0.015061 3.00927e-36)
(0.0735661 -0.0165097 -3.77931e-18)
(0.0764886 -0.0169538 3.00927e-36)
(0.0731039 -0.0156703 -9.9917e-38)
(0.0627442 -0.0123978 6.37222e-21)
(0.0429683 -0.00597505 -4.36358e-21)
(0.0203723 0.00370288 2.31177e-18)
(0.0177877 0.0197515 2.19455e-18)
(0.376822 -1.18982 -4.54698e-19)
(0.26645 -0.596532 -6.68811e-20)
(0.139217 -0.25556 -3.43166e-18)
(0.0392225 -0.076855 -1.67842e-18)
(-0.0021383 -0.0113159 -1.1187e-18)
(-0.0297673 0.00546988 -1.96052e-18)
(-0.0801505 0.0291518 -4.57378e-18)
(-0.138114 0.0510071 -2.18424e-18)
(-0.196652 0.0680606 1.96624e-18)
(-0.26127 0.0870346 1.36544e-19)
(-0.33641 0.104067 -4.19828e-18)
(-0.406797 0.106954 1.92606e-18)
(-0.46525 0.0998564 3.83573e-21)
(-0.516743 0.0904424 1.20281e-18)
(-0.563843 0.079779 1.85774e-18)
(-0.60548 0.0672108 -1.13562e-19)
(-0.641143 0.0530783 5.64237e-37)
(-0.67114 0.0379996 -7.30914e-19)
(-0.695856 0.0224975 -5.12437e-20)
(-0.715828 0.00699691 -3.86237e-19)
(-0.731006 -0.00803533 6.88529e-22)
(-0.742177 -0.0219179 1.88079e-37)
(-0.749126 -0.0331782 -7.84065e-19)
(-0.75441 -0.043232 -6.75861e-19)
(-0.758538 -0.0523284 1.40612e-18)
(-0.76185 -0.0606156 1.37095e-18)
(-0.76468 -0.0681833 2.67387e-18)
(-0.767277 -0.0751231 1.30375e-18)
(-0.769822 -0.0815259 3.94122e-20)
(-0.772484 -0.0874914 -1.27689e-18)
(-0.775419 -0.0931203 -1.2252e-18)
(-0.778802 -0.098519 2.36714e-18)
(-0.782794 -0.103803 2.3015e-18)
(-0.787587 -0.109083 -2.23449e-18)
(-0.793354 -0.114477 1.66528e-20)
(-0.800365 -0.120104 -1.64013e-20)
(-0.808836 -0.126108 -1.17549e-38)
(-0.820033 -0.132759 -2.93874e-39)
(-0.831909 -0.140174 3.57171e-21)
(-0.86059 -0.150008 -1.78854e-18)
(-0.856844 -0.159575 1.61886e-21)
)
;
    }
    frontAndBack
    {
        type            empty;
    }
}


// ************************************************************************* //
