/*--------------------------------*- C++ -*----------------------------------*\
| =========                 |                                                 |
| \\      /  F ield         | OpenFOAM: The Open Source CFD Toolbox           |
|  \\    /   O peration     | Version:  5.x                                   |
|   \\  /    A nd           | Web:      www.OpenFOAM.org                      |
|    \\/     M anipulation  |                                                 |
\*---------------------------------------------------------------------------*/
FoamFile
{
    version     2.0;
    format      ascii;
    class       volScalarField;
    location    "150";
    object      nut;
}
// * * * * * * * * * * * * * * * * * * * * * * * * * * * * * * * * * * * * * //

dimensions      [0 2 -1 0 0 0 0];

internalField   nonuniform List<scalar> 
11040
(
0.00180791
0.0019592
0.00235124
0.00266923
0.00281583
0.00285961
0.00284804
0.00280281
0.00272818
0.00262544
0.00247338
0.0023439
0.00226179
0.00220341
0.00214014
0.0020755
0.0020114
0.00195056
0.00189604
0.00184783
0.0018031
0.00176509
0.00173203
0.00170098
0.00167179
0.00164403
0.00161713
0.00159074
0.00156461
0.00153842
0.0015117
0.00148385
0.00145416
0.00142173
0.00138511
0.00134267
0.00129159
0.00122879
0.00114139
0.00103722
0.000781234
0.00816763
0.00857538
0.00795464
0.00728202
0.00657552
0.00590737
0.00530476
0.00476552
0.0042904
0.00388055
0.00348271
0.00332855
0.00326944
0.00314006
0.00297568
0.00281805
0.00268112
0.0025629
0.00247782
0.00242278
0.00238201
0.00234554
0.00231287
0.00228465
0.00226192
0.00224278
0.00222558
0.00221018
0.00219713
0.00218663
0.00217846
0.0021724
0.00216839
0.00216647
0.00216675
0.00216914
0.00217379
0.00217857
0.00218417
0.00217711
0.00210866
0.0163972
0.0170002
0.0162618
0.0151888
0.013941
0.012671
0.0114583
0.0103245
0.00928066
0.0083054
0.00733131
0.00648781
0.0058398
0.00534456
0.00490925
0.00452661
0.00418819
0.00389926
0.00375148
0.00368399
0.00362911
0.00357419
0.00353419
0.00351148
0.00350018
0.00349169
0.00348338
0.00347734
0.00347522
0.00347629
0.0034789
0.00348192
0.00348479
0.00348687
0.00348678
0.0034828
0.00347403
0.00345314
0.00342486
0.0033577
0.00321207
0.025785
0.0265176
0.0257697
0.0244004
0.0227092
0.0208904
0.0190706
0.0172948
0.0156202
0.0140476
0.0124824
0.0110872
0.00997497
0.00909768
0.00832934
0.00765891
0.00707329
0.00655577
0.00610267
0.00570971
0.00536517
0.00510905
0.00499159
0.00493957
0.00490318
0.00486283
0.00482846
0.00480958
0.0048041
0.00480482
0.00480793
0.00481313
0.00482025
0.0048278
0.0048331
0.0048329
0.00482469
0.00479739
0.00475169
0.00464947
0.00438951
0.0359182
0.0367378
0.0360646
0.0345517
0.0325681
0.0302992
0.027922
0.0254879
0.0231485
0.0209296
0.0187306
0.0167474
0.0151533
0.0138844
0.01276
0.0117682
0.0109024
0.0101317
0.00943657
0.00880931
0.00824461
0.00778681
0.00742643
0.00711263
0.0068367
0.00659971
0.00645677
0.00638867
0.00634834
0.00631128
0.00628125
0.00626389
0.00625628
0.00625234
0.00624754
0.00623805
0.00622051
0.00618247
0.00612047
0.00600521
0.00567596
0.0464478
0.0473154
0.0467576
0.0452384
0.0431177
0.040504
0.037646
0.0347212
0.0318511
0.0290595
0.026238
0.0236146
0.0214264
0.0196697
0.0181584
0.0168388
0.015698
0.0146479
0.0136833
0.0128078
0.0120163
0.0113673
0.0108331
0.0103456
0.0099038
0.00950227
0.00914148
0.00882172
0.00853726
0.00829396
0.00814216
0.00805994
0.00800217
0.00794955
0.00790164
0.0078549
0.00780293
0.00773075
0.00763078
0.00748536
0.00710072
0.0570562
0.057923
0.0574923
0.0560698
0.0539325
0.0512356
0.0482202
0.0450427
0.0418297
0.0386148
0.0352852
0.0320865
0.0293122
0.0269992
0.0249664
0.0231642
0.0215714
0.0201558
0.0188909
0.0177604
0.0167358
0.0158755
0.015131
0.0144598
0.0138631
0.0133164
0.0128116
0.0123443
0.0119104
0.0115054
0.0111312
0.0107887
0.0104726
0.0102213
0.0100552
0.00992489
0.00979845
0.00965472
0.00948082
0.009266
0.00879081
0.0674122
0.0682578
0.0679463
0.0666841
0.0646772
0.0621116
0.0591731
0.0559827
0.0526559
0.0492276
0.0455906
0.0419818
0.0387251
0.0359002
0.0333534
0.0310479
0.0289681
0.027094
0.0254047
0.0238824
0.0225138
0.0213681
0.0204104
0.0195447
0.018762
0.0180503
0.0173976
0.0167939
0.0162312
0.0157018
0.015199
0.0147169
0.0142492
0.0137932
0.0133492
0.0129178
0.0125551
0.0122506
0.0119444
0.0116104
0.0109878
0.077287
0.0780604
0.0778404
0.0767663
0.0749927
0.0726922
0.0699994
0.0669969
0.0637761
0.0603577
0.0566493
0.0528533
0.0492926
0.0460836
0.0431209
0.0403824
0.0378611
0.035547
0.0334264
0.0314858
0.0297148
0.0282447
0.0270402
0.0259505
0.0249585
0.0240507
0.0232148
0.0224399
0.021716
0.0210341
0.0203855
0.0197619
0.0191549
0.0185554
0.0179516
0.0173339
0.0167028
0.016047
0.0153987
0.0148273
0.0139965
0.0864319
0.0871076
0.086955
0.0860706
0.084572
0.0826027
0.0802554
0.0775753
0.0746282
0.0713967
0.0678246
0.064071
0.0604256
0.0570327
0.0538553
0.0508398
0.0479951
0.0453321
0.0428471
0.0405339
0.0383856
0.0365941
0.0351292
0.0337981
0.0325797
0.0314587
0.0304217
0.0294566
0.0285524
0.0276988
0.0268859
0.026104
0.0253434
0.0245937
0.02384
0.0230712
0.0222762
0.0214304
0.0205166
0.01957
0.018357
0.0946811
0.0952534
0.0951485
0.0944378
0.093212
0.091585
0.0896189
0.0873137
0.0847239
0.0818602
0.0786446
0.0751836
0.0717073
0.0683474
0.0650841
0.0619392
0.0589296
0.0560821
0.0533659
0.050785
0.0483451
0.0462861
0.0445853
0.0430259
0.0415881
0.0402582
0.0390222
0.0378673
0.0367814
0.0357533
0.0347724
0.0338281
0.0329098
0.0320063
0.0311011
0.0301829
0.0292406
0.0282491
0.0271806
0.026064
0.0245122
0.101962
0.102434
0.10236
0.101798
0.100817
0.0995076
0.0979109
0.0960069
0.0938454
0.0914287
0.0886867
0.0856827
0.0825815
0.0794842
0.0763797
0.0733039
0.070287
0.0673567
0.06453
0.0618174
0.0592308
0.0570101
0.0551291
0.0533845
0.0517671
0.0502703
0.0488699
0.0475526
0.0463074
0.0451237
0.0439911
0.042899
0.0418372
0.040794
0.0397516
0.0386993
0.0376267
0.0365094
0.0353218
0.0340966
0.0324348
0.108277
0.108654
0.108597
0.108156
0.107384
0.106348
0.105079
0.103553
0.10181
0.0998495
0.0976125
0.0951308
0.0924987
0.0898021
0.0870423
0.0842606
0.081463
0.0786752
0.0759206
0.0732197
0.0705889
0.0682939
0.066335
0.0645026
0.0627856
0.0611744
0.0596585
0.058227
0.0568691
0.0555743
0.0543322
0.0531317
0.0519694
0.0508262
0.0496838
0.0485332
0.0473661
0.0461596
0.0448924
0.0435931
0.0419116
0.113679
0.113964
0.113918
0.113575
0.112974
0.112165
0.111169
0.109967
0.108593
0.107043
0.105272
0.103277
0.10115
0.0989325
0.0966208
0.0942369
0.0917999
0.0893432
0.0868625
0.0843738
0.0818948
0.0796878
0.0777736
0.075962
0.0742446
0.0726159
0.0710689
0.069596
0.0681893
0.0668404
0.0655407
0.064281
0.0630531
0.0618465
0.0606452
0.0594411
0.0582273
0.0569822
0.0556887
0.0543674
0.0527307
0.118226
0.11845
0.118415
0.118151
0.117689
0.117059
0.116281
0.115343
0.114271
0.113065
0.111676
0.110127
0.108465
0.106716
0.10487
0.102939
0.100935
0.0988707
0.0967581
0.0946101
0.0924496
0.0904893
0.0887479
0.0870744
0.0854691
0.083939
0.0824713
0.08106
0.0796999
0.0783859
0.0771117
0.0758713
0.0746578
0.073463
0.072273
0.0710824
0.0698864
0.0686662
0.0674092
0.0661287
0.064603
0.122048
0.122222
0.122195
0.12199
0.121642
0.121146
0.120537
0.119807
0.118977
0.118046
0.116978
0.115791
0.114518
0.113171
0.11173
0.110215
0.108642
0.107006
0.105312
0.103567
0.101778
0.10013
0.0986507
0.0972153
0.0958241
0.0944769
0.0931728
0.0919094
0.090684
0.0894929
0.0883317
0.0872022
0.0860933
0.0849978
0.0839045
0.0828103
0.0817128
0.0805963
0.0794524
0.0782888
0.0769477
0.12525
0.125385
0.125363
0.125203
0.124929
0.124543
0.124068
0.123504
0.122862
0.122145
0.121327
0.120424
0.119457
0.118425
0.117328
0.116173
0.114963
0.113701
0.112398
0.111049
0.109654
0.108351
0.107167
0.106009
0.104877
0.103773
0.102694
0.101642
0.100615
0.0996102
0.0986261
0.09766
0.0967089
0.0957689
0.0948312
0.0938943
0.0929569
0.0920066
0.0910378
0.0900544
0.0889545
0.127807
0.127915
0.127899
0.127771
0.127553
0.127249
0.126874
0.126435
0.125929
0.125365
0.12473
0.124032
0.123288
0.122495
0.121655
0.120771
0.119846
0.11888
0.117876
0.116834
0.115757
0.114745
0.113819
0.112909
0.112018
0.111145
0.11029
0.109458
0.108643
0.107844
0.107058
0.106285
0.105522
0.104767
0.104014
0.103263
0.102513
0.101755
0.100985
0.100206
0.0993568
0.129776
0.129864
0.129851
0.129748
0.12957
0.129329
0.129022
0.128665
0.128258
0.127807
0.127308
0.126756
0.126169
0.125546
0.124889
0.1242
0.123481
0.122733
0.121955
0.121149
0.120317
0.11953
0.118806
0.118094
0.117396
0.116713
0.116042
0.115385
0.114742
0.11411
0.113495
0.112889
0.112293
0.111704
0.111117
0.110533
0.109952
0.109367
0.108776
0.10818
0.107544
0.131321
0.131395
0.131384
0.131298
0.131149
0.130948
0.130696
0.130402
0.130073
0.129703
0.129295
0.128849
0.128376
0.127882
0.127357
0.126809
0.126238
0.125647
0.125035
0.124403
0.123752
0.123135
0.122566
0.122007
0.121459
0.120921
0.120395
0.11988
0.119375
0.118881
0.118396
0.117921
0.117454
0.116997
0.116544
0.116095
0.11565
0.115204
0.114756
0.114307
0.113837
0.132564
0.132626
0.132617
0.132544
0.132418
0.132247
0.132039
0.131792
0.131516
0.131208
0.130871
0.130507
0.130119
0.129715
0.129288
0.128844
0.128384
0.127909
0.12742
0.126917
0.126401
0.125911
0.125459
0.125015
0.12458
0.124156
0.123737
0.123327
0.122929
0.122541
0.122162
0.121791
0.121427
0.121073
0.120724
0.120379
0.120039
0.1197
0.119361
0.119023
0.118676
0.133582
0.133636
0.133628
0.133565
0.133456
0.133309
0.133131
0.132925
0.13269
0.132433
0.132149
0.131844
0.131521
0.131185
0.130836
0.130471
0.130095
0.129709
0.129312
0.128906
0.128492
0.128097
0.127734
0.127377
0.127026
0.126687
0.126352
0.126025
0.125707
0.1254
0.125102
0.124811
0.124527
0.124251
0.12398
0.123714
0.123453
0.123194
0.122937
0.122681
0.122425
0.134431
0.134476
0.134468
0.134414
0.13432
0.134192
0.134038
0.133859
0.133661
0.133441
0.133202
0.132943
0.132673
0.13239
0.132097
0.131796
0.131487
0.131168
0.130843
0.13051
0.130173
0.129852
0.129556
0.129267
0.128983
0.128709
0.12844
0.128177
0.127921
0.127674
0.127436
0.127207
0.126986
0.12677
0.126558
0.126351
0.12615
0.12595
0.125754
0.12556
0.125368
0.135146
0.135185
0.135178
0.13513
0.135047
0.134936
0.134801
0.134646
0.134474
0.134284
0.134078
0.133857
0.133627
0.13339
0.133143
0.13289
0.132631
0.132367
0.132099
0.131825
0.131548
0.131284
0.13104
0.130803
0.130572
0.130349
0.13013
0.129917
0.12971
0.12951
0.129317
0.129132
0.128955
0.128784
0.128618
0.128457
0.1283
0.128146
0.127994
0.127848
0.127705
0.135756
0.135789
0.135782
0.13574
0.135667
0.13557
0.135451
0.135315
0.135164
0.135001
0.134823
0.134634
0.134436
0.134233
0.134023
0.13381
0.13359
0.133368
0.133143
0.132916
0.132688
0.132469
0.132266
0.13207
0.13188
0.131694
0.131514
0.13134
0.131171
0.131009
0.130852
0.130702
0.130559
0.130421
0.130289
0.130162
0.13004
0.129921
0.129805
0.129692
0.129584
0.13628
0.136309
0.136302
0.136265
0.136201
0.136115
0.13601
0.13589
0.135757
0.135614
0.13546
0.135296
0.135126
0.13495
0.13477
0.134587
0.134401
0.134214
0.134024
0.133832
0.133641
0.133459
0.133291
0.133127
0.132969
0.132815
0.132666
0.132522
0.132384
0.13225
0.132123
0.132
0.131883
0.131772
0.131665
0.131562
0.131465
0.131372
0.131283
0.131196
0.131114
0.136735
0.136759
0.136754
0.13672
0.136663
0.136587
0.136494
0.136388
0.136271
0.136144
0.136009
0.135867
0.135718
0.135567
0.135412
0.135256
0.135096
0.134935
0.134774
0.134613
0.134452
0.134298
0.134156
0.134019
0.133886
0.133757
0.133633
0.133513
0.133398
0.133288
0.133183
0.133082
0.132986
0.132895
0.132808
0.132725
0.132647
0.132572
0.1325
0.132432
0.132369
0.137132
0.137153
0.137148
0.137118
0.137068
0.137
0.136917
0.136823
0.136719
0.136606
0.136486
0.136361
0.136232
0.136101
0.135967
0.135831
0.135693
0.135556
0.135417
0.135279
0.135143
0.135013
0.134892
0.134776
0.134663
0.134555
0.13445
0.13435
0.134254
0.134162
0.134075
0.133992
0.133913
0.133838
0.133767
0.1337
0.133636
0.133575
0.133518
0.133463
0.133413
0.137481
0.137499
0.137494
0.137468
0.137423
0.137362
0.137289
0.137204
0.137112
0.137012
0.136905
0.136794
0.136681
0.136565
0.136447
0.136329
0.13621
0.136091
0.135972
0.135855
0.135738
0.135627
0.135523
0.135424
0.135328
0.135236
0.135147
0.135063
0.134982
0.134906
0.134833
0.134764
0.134699
0.134637
0.134578
0.134523
0.134471
0.134422
0.134375
0.134331
0.134292
0.137789
0.137805
0.1378
0.137777
0.137737
0.137682
0.137617
0.137541
0.137459
0.137369
0.137275
0.137176
0.137075
0.136973
0.136869
0.136765
0.136661
0.136558
0.136456
0.136354
0.136255
0.136159
0.13607
0.135984
0.135902
0.135823
0.135748
0.135677
0.135609
0.135544
0.135483
0.135425
0.135371
0.13532
0.135272
0.135226
0.135184
0.135144
0.135106
0.13507
0.135039
0.138062
0.138076
0.138072
0.138051
0.138015
0.137967
0.137908
0.13784
0.137766
0.137687
0.137602
0.137515
0.137425
0.137334
0.137242
0.13715
0.137059
0.136968
0.136879
0.136791
0.136706
0.136623
0.136546
0.136472
0.136402
0.136334
0.13627
0.136209
0.136151
0.136096
0.136045
0.135997
0.135951
0.135908
0.135868
0.135831
0.135796
0.135763
0.135732
0.135704
0.135679
0.138305
0.138317
0.138314
0.138296
0.138263
0.13822
0.138167
0.138107
0.13804
0.137969
0.137894
0.137816
0.137736
0.137655
0.137574
0.137492
0.137412
0.137332
0.137254
0.137177
0.137103
0.137031
0.136964
0.1369
0.136839
0.136781
0.136726
0.136674
0.136624
0.136578
0.136534
0.136494
0.136455
0.13642
0.136387
0.136355
0.136327
0.1363
0.136275
0.136251
0.136232
0.138522
0.138533
0.138531
0.138514
0.138486
0.138447
0.138399
0.138345
0.138286
0.138222
0.138155
0.138085
0.138014
0.137942
0.137869
0.137797
0.137726
0.137656
0.137587
0.13752
0.137455
0.137393
0.137334
0.137279
0.137226
0.137176
0.137128
0.137083
0.137041
0.137002
0.136965
0.13693
0.136898
0.136868
0.13684
0.136814
0.13679
0.136768
0.136748
0.136729
0.136713
0.138716
0.138727
0.138725
0.138711
0.138685
0.13865
0.138608
0.138559
0.138506
0.138449
0.138389
0.138326
0.138263
0.138199
0.138135
0.138071
0.138008
0.137946
0.137885
0.137826
0.137769
0.137715
0.137664
0.137615
0.137569
0.137526
0.137485
0.137446
0.13741
0.137376
0.137344
0.137315
0.137288
0.137263
0.137239
0.137218
0.137198
0.13718
0.137163
0.137147
0.137135
0.138891
0.138901
0.1389
0.138887
0.138864
0.138833
0.138795
0.138752
0.138705
0.138653
0.1386
0.138544
0.138487
0.13843
0.138373
0.138317
0.138261
0.138206
0.138152
0.138101
0.138051
0.138003
0.137958
0.137916
0.137876
0.137838
0.137803
0.137769
0.137738
0.137709
0.137682
0.137657
0.137634
0.137612
0.137593
0.137575
0.137558
0.137543
0.137529
0.137517
0.137507
0.139048
0.139058
0.139057
0.139046
0.139026
0.138999
0.138965
0.138926
0.138884
0.138838
0.138791
0.138741
0.138691
0.13864
0.138589
0.138539
0.138489
0.138441
0.138394
0.138348
0.138305
0.138263
0.138223
0.138186
0.138152
0.138119
0.138088
0.138059
0.138032
0.138007
0.137984
0.137962
0.137942
0.137924
0.137908
0.137892
0.137879
0.137866
0.137855
0.137844
0.137836
0.13919
0.1392
0.1392
0.13919
0.139173
0.139149
0.139119
0.139085
0.139047
0.139006
0.138964
0.13892
0.138875
0.13883
0.138785
0.13874
0.138696
0.138654
0.138612
0.138572
0.138534
0.138497
0.138463
0.138431
0.1384
0.138371
0.138344
0.138319
0.138296
0.138274
0.138254
0.138236
0.138219
0.138203
0.138189
0.138176
0.138165
0.138154
0.138145
0.138136
0.13813
0.139319
0.139328
0.139329
0.139321
0.139306
0.139285
0.139258
0.139228
0.139195
0.139159
0.139122
0.139083
0.139043
0.139003
0.138963
0.138924
0.138885
0.138847
0.138811
0.138776
0.138742
0.13871
0.13868
0.138652
0.138625
0.1386
0.138576
0.138555
0.138534
0.138516
0.138498
0.138482
0.138468
0.138455
0.138443
0.138432
0.138422
0.138413
0.138405
0.138398
0.138393
0.139435
0.139444
0.139446
0.139439
0.139427
0.139408
0.139386
0.13936
0.139331
0.139299
0.139266
0.139232
0.139197
0.139162
0.139127
0.139092
0.139058
0.139025
0.138993
0.138962
0.138932
0.138904
0.138878
0.138853
0.13883
0.138808
0.138788
0.138769
0.138751
0.138735
0.13872
0.138706
0.138694
0.138682
0.138672
0.138663
0.138655
0.138647
0.138641
0.138635
0.138631
0.13954
0.139549
0.139552
0.139547
0.139537
0.139521
0.139502
0.13948
0.139455
0.139428
0.139399
0.139369
0.139339
0.139308
0.139277
0.139247
0.139217
0.139188
0.13916
0.139133
0.139107
0.139083
0.13906
0.139038
0.139018
0.138999
0.138981
0.138964
0.138949
0.138935
0.138922
0.13891
0.1389
0.13889
0.138881
0.138873
0.138866
0.13886
0.138854
0.13885
0.138846
0.139636
0.139645
0.139648
0.139645
0.139637
0.139625
0.139609
0.139591
0.13957
0.139547
0.139522
0.139497
0.139471
0.139444
0.139417
0.139391
0.139365
0.13934
0.139315
0.139292
0.13927
0.139248
0.139228
0.13921
0.139192
0.139175
0.13916
0.139145
0.139132
0.13912
0.139109
0.139098
0.139089
0.139081
0.139073
0.139067
0.139061
0.139055
0.139051
0.139047
0.139044
0.139722
0.139732
0.139736
0.139735
0.139729
0.13972
0.139708
0.139693
0.139676
0.139657
0.139637
0.139616
0.139594
0.139571
0.139549
0.139526
0.139504
0.139483
0.139462
0.139442
0.139422
0.139404
0.139387
0.139371
0.139356
0.139341
0.139328
0.139315
0.139304
0.139294
0.139284
0.139275
0.139267
0.13926
0.139254
0.139249
0.139244
0.139239
0.139236
0.139233
0.139231
0.1398
0.13981
0.139815
0.139816
0.139813
0.139807
0.139799
0.139788
0.139775
0.13976
0.139745
0.139728
0.13971
0.139692
0.139674
0.139656
0.139638
0.13962
0.139603
0.139586
0.13957
0.139555
0.139541
0.139527
0.139515
0.139503
0.139492
0.139481
0.139472
0.139463
0.139456
0.139449
0.139442
0.139437
0.139432
0.139428
0.139425
0.139422
0.13942
0.139418
0.139417
0.13987
0.13988
0.139886
0.139888
0.139888
0.139885
0.13988
0.139873
0.139865
0.139855
0.139844
0.139832
0.13982
0.139807
0.139793
0.13978
0.139767
0.139754
0.139741
0.139729
0.139717
0.139706
0.139695
0.139685
0.139676
0.139667
0.139659
0.139651
0.139644
0.139638
0.139633
0.139628
0.139624
0.13962
0.139617
0.139615
0.139613
0.139612
0.139612
0.139612
0.139613
0.13993
0.139938
0.139943
0.139945
0.139946
0.139945
0.139943
0.139939
0.139935
0.13993
0.139924
0.139917
0.13991
0.139903
0.139895
0.139887
0.139879
0.139871
0.139863
0.139856
0.139849
0.139842
0.139836
0.139829
0.139824
0.139818
0.139813
0.139809
0.139805
0.139801
0.139797
0.139794
0.139791
0.139789
0.139787
0.139785
0.139784
0.139783
0.139782
0.139782
0.139782
0.139969
0.139973
0.139975
0.139976
0.139976
0.139975
0.139974
0.139972
0.13997
0.139967
0.139964
0.13996
0.139956
0.139952
0.139947
0.139942
0.139937
0.139932
0.139927
0.139922
0.139916
0.139911
0.139907
0.139902
0.139897
0.139893
0.139889
0.139885
0.139881
0.139878
0.139874
0.139871
0.139868
0.139865
0.139863
0.13986
0.139858
0.139856
0.139854
0.139852
0.139851
0.139988
0.139989
0.13999
0.139991
0.139991
0.139991
0.13999
0.13999
0.139988
0.139987
0.139985
0.139983
0.13998
0.139977
0.139974
0.13997
0.139966
0.139961
0.139956
0.13995
0.139943
0.139936
0.139929
0.139922
0.139915
0.139909
0.139902
0.139896
0.13989
0.139884
0.139879
0.139874
0.13987
0.139866
0.139862
0.139858
0.139855
0.139852
0.139849
0.139847
0.139844
0.139998
0.139998
0.139998
0.139999
0.139999
0.139999
0.139998
0.139998
0.139998
0.139997
0.139997
0.139996
0.139995
0.139993
0.139991
0.139989
0.139985
0.139981
0.139975
0.139965
0.139955
0.139946
0.139937
0.139928
0.13992
0.139913
0.139906
0.139899
0.139892
0.139886
0.139881
0.139875
0.13987
0.139865
0.13986
0.139856
0.139852
0.139848
0.139845
0.139842
0.139839
0.00194418
0.00281
0.0034871
0.00407709
0.0046284
0.00515924
0.00568073
0.00620349
0.00673707
0.00729445
0.00788713
0.00852343
0.00920931
0.00994925
0.0107467
0.0116055
0.0125291
0.0135192
0.014576
0.0156981
0.016884
0.0181336
0.0194425
0.0208036
0.0222391
0.0237657
0.0251859
0.0263136
0.0284308
0.0344064
0.04425
0.054423
0.0626471
0.0689083
0.073846
0.0779323
0.081426
0.0844739
0.0871706
0.0895833
0.0917616
0.0937433
0.0955578
0.0972287
0.0987751
0.100212
0.101553
0.102808
0.103986
0.105095
0.106142
0.107133
0.108075
0.108973
0.109836
0.11067
0.111476
0.112259
0.113019
0.113759
0.114479
0.115181
0.115867
0.116539
0.117197
0.117841
0.118476
0.119099
0.119714
0.120323
0.120918
0.121531
0.122033
0.122984
0.00287575
0.00347641
0.00400286
0.00451769
0.00501383
0.00549211
0.00595902
0.00642342
0.00689335
0.00738675
0.00791409
0.00848131
0.00909342
0.00975507
0.0104708
0.0112475
0.0120905
0.0130022
0.013983
0.0150312
0.0161464
0.0173294
0.0185762
0.0198787
0.0212571
0.0227354
0.0241249
0.0251935
0.0271359
0.0329122
0.0427879
0.0532428
0.0618041
0.0683377
0.0734732
0.0777058
0.081313
0.0844525
0.087225
0.0897014
0.0919341
0.0939628
0.0958184
0.0975255
0.0991041
0.10057
0.101937
0.103215
0.104414
0.105542
0.106606
0.107612
0.108567
0.109477
0.110349
0.111188
0.111998
0.112782
0.11354
0.114276
0.11499
0.115685
0.116362
0.117021
0.117666
0.118295
0.118912
0.119516
0.12011
0.120696
0.121267
0.121853
0.122333
0.123235
0.00394239
0.00456282
0.00507735
0.00551352
0.00590863
0.00628786
0.00666208
0.00703758
0.0074195
0.00783838
0.00829128
0.00877792
0.00930176
0.00986742
0.0104811
0.0111557
0.0118975
0.0127084
0.013589
0.0145375
0.0155567
0.0166491
0.0178118
0.0190353
0.0203334
0.0217394
0.0231035
0.0241407
0.0257608
0.0308691
0.040322
0.0509117
0.059885
0.0668224
0.0722714
0.0767412
0.0805344
0.0838251
0.0867235
0.0893065
0.091631
0.0937396
0.0956655
0.0974349
0.0990694
0.100586
0.101998
0.103318
0.104555
0.105718
0.106814
0.10785
0.108832
0.109767
0.11066
0.111518
0.112343
0.113139
0.113907
0.114651
0.11537
0.116068
0.116746
0.117405
0.118046
0.11867
0.11928
0.119875
0.120458
0.12103
0.121586
0.122154
0.122619
0.123484
0.00500441
0.00560991
0.00615983
0.0066388
0.00706106
0.0074481
0.00781399
0.00816774
0.00851635
0.00887316
0.00924679
0.00964248
0.0100648
0.0105181
0.0110119
0.0115706
0.0121926
0.0128773
0.0136264
0.0144383
0.0153257
0.0162924
0.0173355
0.0184456
0.0196271
0.0209194
0.0222347
0.0232715
0.0245232
0.0285654
0.0370359
0.0474502
0.0568093
0.0642486
0.0701258
0.0749309
0.0789907
0.0824998
0.0855812
0.08832
0.0907789
0.0930052
0.0950346
0.0968962
0.0986133
0.100205
0.101685
0.103068
0.104362
0.105578
0.106723
0.107804
0.108828
0.109801
0.11073
0.111619
0.112472
0.113293
0.114084
0.114847
0.115584
0.116297
0.116987
0.117656
0.118306
0.118936
0.119549
0.120145
0.120727
0.121296
0.121848
0.122408
0.122867
0.12371
0.00618773
0.00674183
0.00727902
0.00777944
0.00824375
0.00868182
0.0091006
0.00950466
0.00989799
0.0102856
0.010673
0.0110651
0.0114664
0.0118811
0.012314
0.0127767
0.0132773
0.0138215
0.0144145
0.0150538
0.0157796
0.0165838
0.0174625
0.0184099
0.019423
0.0205433
0.0217467
0.0227841
0.0237389
0.0264929
0.0333375
0.0430241
0.0525588
0.0605141
0.0669099
0.0721481
0.0765611
0.0803635
0.0836925
0.0866431
0.089286
0.0916734
0.0938452
0.0958335
0.0976644
0.0993589
0.100933
0.102402
0.103775
0.105064
0.106277
0.107421
0.108504
0.109532
0.11051
0.111445
0.112341
0.113201
0.114028
0.114823
0.11559
0.116331
0.117046
0.117737
0.118406
0.119054
0.119682
0.120292
0.120885
0.121462
0.12202
0.122583
0.123046
0.123884
0.00754861
0.00807299
0.00859657
0.00910068
0.00958486
0.0100582
0.0105263
0.0109908
0.0114522
0.0119112
0.0123682
0.0128242
0.01328
0.0137372
0.0141973
0.014664
0.0151423
0.015637
0.0161537
0.0166945
0.0172747
0.0179038
0.0185873
0.0193278
0.0201199
0.0210175
0.0220238
0.0229974
0.0237866
0.0253498
0.0300114
0.0381233
0.0473057
0.0556071
0.0625326
0.0682732
0.0731192
0.0772912
0.0809369
0.0841615
0.0870437
0.0896421
0.0920008
0.0941558
0.0961365
0.0979668
0.0996652
0.101247
0.102724
0.104109
0.105412
0.10664
0.1078
0.1089
0.109946
0.110943
0.111897
0.112811
0.113687
0.11453
0.11534
0.116121
0.116874
0.117601
0.118302
0.118981
0.119636
0.120271
0.120887
0.121485
0.122061
0.122641
0.123117
0.123969
0.00920806
0.00973968
0.010282
0.0108118
0.0113253
0.011831
0.0123369
0.0128465
0.0133609
0.0138804
0.0144043
0.0149315
0.0154606
0.0159904
0.0165195
0.0170473
0.0175741
0.0181011
0.0186303
0.0191634
0.0197053
0.0202623
0.020841
0.0214477
0.0220833
0.0227671
0.0235257
0.0243276
0.0250181
0.0258191
0.0282615
0.033843
0.0416773
0.0497864
0.0570521
0.0632672
0.0685806
0.0731781
0.0772016
0.0807598
0.0839383
0.0868008
0.0893951
0.0917611
0.0939324
0.0959358
0.0977919
0.0995176
0.101128
0.102636
0.104053
0.105387
0.106647
0.107839
0.108971
0.110049
0.111078
0.112062
0.113005
0.113909
0.114778
0.115614
0.116419
0.117194
0.117942
0.118664
0.11936
0.120033
0.120685
0.121316
0.121923
0.122532
0.123034
0.12392
0.0113913
0.0119638
0.0125623
0.0131526
0.0137249
0.0142836
0.0148371
0.01539
0.0159453
0.0165051
0.0170704
0.0176414
0.0182174
0.0187974
0.0193798
0.019963
0.0205451
0.0211247
0.0217008
0.0222726
0.0228406
0.0234059
0.0239712
0.0245401
0.0251148
0.0257009
0.0263133
0.0269631
0.0275897
0.0281403
0.0291438
0.0319264
0.0371615
0.0439663
0.0509457
0.0573504
0.063026
0.0680275
0.0724437
0.0763683
0.0798851
0.0830572
0.085932
0.0885523
0.0909555
0.0931712
0.0952216
0.0971254
0.0988998
0.10056
0.102118
0.103585
0.104968
0.106275
0.107514
0.108693
0.109816
0.110889
0.111916
0.112899
0.113842
0.114748
0.11562
0.116459
0.117267
0.118045
0.118796
0.119521
0.120221
0.120899
0.121551
0.122201
0.12274
0.123681
0.0144079
0.0150517
0.0157332
0.0164058
0.0170552
0.0176819
0.0182928
0.0188933
0.0194868
0.0200765
0.0206651
0.0212545
0.0218458
0.0224397
0.0230365
0.0236356
0.0242365
0.0248379
0.0254384
0.0260365
0.0266306
0.0272198
0.0278033
0.0283811
0.0289538
0.0295221
0.0300897
0.0306663
0.0312454
0.0317773
0.0323257
0.0334143
0.0359102
0.040175
0.0456268
0.0513981
0.0569889
0.0621597
0.066845
0.0710788
0.0749184
0.0784068
0.0815799
0.08448
0.0871455
0.0896057
0.0918825
0.0939953
0.0959638
0.0978051
0.0995329
0.101158
0.102689
0.104134
0.105504
0.106804
0.108043
0.109224
0.110353
0.111432
0.112467
0.11346
0.114414
0.115331
0.116214
0.117064
0.117883
0.118674
0.119436
0.120174
0.120882
0.121589
0.122175
0.123193
0.0187013
0.0193774
0.0201162
0.0208505
0.0215604
0.0222419
0.022899
0.0235365
0.0241578
0.0247663
0.025365
0.0259566
0.0265433
0.0271268
0.0277088
0.0282902
0.028872
0.0294545
0.0300377
0.0306212
0.0312044
0.0317862
0.0323654
0.032941
0.0335118
0.0340769
0.0346357
0.0351899
0.0357427
0.0362812
0.0367874
0.0373588
0.0383523
0.040275
0.0433727
0.0474208
0.0519776
0.0566384
0.0611406
0.0654023
0.0693954
0.0730948
0.0765001
0.0796463
0.0825629
0.0852689
0.0877804
0.0901153
0.092295
0.0943374
0.0962555
0.0980599
0.0997593
0.101364
0.102883
0.104326
0.105699
0.107008
0.108257
0.10945
0.110593
0.111688
0.112741
0.113752
0.114725
0.11566
0.116562
0.11743
0.118268
0.119079
0.119857
0.120633
0.121276
0.122391
0.024665
0.0252465
0.0259494
0.0266782
0.0273963
0.0280905
0.0287592
0.0294047
0.0300292
0.0306355
0.0312262
0.0318038
0.0323706
0.0329287
0.0334797
0.0340255
0.0345673
0.0351065
0.0356442
0.0361811
0.0367178
0.0372546
0.0377914
0.038328
0.0388637
0.0393978
0.0399292
0.040457
0.0409818
0.0415028
0.0420111
0.0425082
0.0430672
0.0438863
0.0452348
0.0472975
0.0500715
0.0533844
0.0569913
0.0606969
0.0643718
0.0679267
0.0713016
0.0745191
0.0775686
0.0804369
0.0831236
0.0856403
0.0880086
0.0902409
0.0923458
0.0943305
0.0962022
0.0979728
0.0996528
0.10125
0.10277
0.104219
0.105601
0.106921
0.108185
0.109397
0.110561
0.111679
0.112754
0.113788
0.114784
0.115743
0.116669
0.117564
0.118423
0.119279
0.11999
0.121219
0.0324433
0.0328635
0.033379
0.0339797
0.0346185
0.0352597
0.0358887
0.0365004
0.0370933
0.0376681
0.0382262
0.0387693
0.039299
0.0398168
0.0403242
0.0408228
0.0413137
0.0417985
0.0422782
0.042754
0.043227
0.0436982
0.0441684
0.0446381
0.045108
0.0455782
0.0460489
0.0465196
0.0469904
0.0474615
0.047932
0.0483982
0.0488655
0.0493742
0.0500184
0.0509306
0.0522345
0.053994
0.0561862
0.0587259
0.0615041
0.0644109
0.0673481
0.0702645
0.0731225
0.0758911
0.0785454
0.0810851
0.0835295
0.0858664
0.0880913
0.0902042
0.0922069
0.0941162
0.0959385
0.0976778
0.0993381
0.100923
0.102435
0.103883
0.105271
0.106604
0.107885
0.109117
0.110301
0.11144
0.112537
0.113595
0.114616
0.115604
0.116553
0.117497
0.118283
0.119639
0.0417879
0.0420816
0.0424447
0.0428168
0.0432304
0.0437194
0.0442407
0.044766
0.0452851
0.0457943
0.0462916
0.0467761
0.047248
0.047708
0.0481571
0.0485962
0.0490263
0.0494482
0.0498627
0.0502709
0.0506738
0.0510722
0.0514672
0.0518597
0.0522505
0.0526405
0.0530305
0.0534209
0.0538125
0.0542062
0.054603
0.0550026
0.0554044
0.055812
0.0562433
0.056738
0.0573566
0.0581678
0.0592289
0.0605701
0.0621894
0.0640558
0.066116
0.0683146
0.0706009
0.0729299
0.0752602
0.0775642
0.0798313
0.0820484
0.0842035
0.086286
0.0882842
0.0902374
0.0921242
0.0939409
0.0956868
0.0973621
0.0989674
0.100514
0.102005
0.103443
0.104829
0.106163
0.107447
0.108684
0.109879
0.111034
0.112151
0.113232
0.11427
0.115305
0.116167
0.117654
0.052473
0.0526276
0.0528486
0.0530767
0.0533066
0.0535428
0.0537995
0.0541286
0.0545123
0.0549132
0.0553129
0.055707
0.056095
0.0564763
0.0568499
0.057215
0.0575716
0.0579201
0.0582612
0.0585955
0.0589235
0.0592459
0.0595632
0.0598763
0.0601857
0.0604924
0.0607972
0.0611009
0.0614045
0.0617091
0.062016
0.0623265
0.0626409
0.0629597
0.0632846
0.0636226
0.063989
0.0644089
0.0649151
0.0655426
0.0663224
0.0672755
0.0684086
0.069715
0.0711774
0.072772
0.0744693
0.0762394
0.0780585
0.0799057
0.0817623
0.0836107
0.0854348
0.0872357
0.0890073
0.0907423
0.0924355
0.0940809
0.0956728
0.0972405
0.0987681
0.100252
0.10169
0.103083
0.104427
0.105731
0.106998
0.108228
0.109421
0.11058
0.111694
0.112807
0.113735
0.115343
0.064231
0.0642404
0.0643085
0.0643833
0.064459
0.0645388
0.0646265
0.0647261
0.0648405
0.0649724
0.0651573
0.0654012
0.0656739
0.0659528
0.0662276
0.0664974
0.0667631
0.0670252
0.0672833
0.0675368
0.067785
0.0680278
0.0682655
0.0684984
0.0687272
0.0689524
0.0691745
0.0693941
0.069612
0.069829
0.0700464
0.0702652
0.0704865
0.0707109
0.0709388
0.071171
0.0714101
0.0716616
0.0719353
0.0722452
0.0726088
0.0730451
0.0735723
0.0742052
0.0749534
0.0758209
0.0768053
0.0778985
0.0790889
0.0803632
0.0817069
0.0831048
0.0845408
0.0860033
0.0874826
0.0889694
0.0904552
0.091931
0.0933887
0.0948316
0.0962571
0.0976607
0.0990387
0.100388
0.101699
0.102997
0.104274
0.105523
0.106743
0.107933
0.109082
0.110237
0.111205
0.112895
0.0764983
0.0763743
0.0763008
0.0762336
0.0761672
0.076104
0.0760473
0.0760001
0.0759644
0.0759414
0.0759327
0.0759396
0.0759626
0.0760008
0.0760716
0.0761946
0.0763503