/*--------------------------------*- C++ -*----------------------------------*\
| =========                 |                                                 |
| \\      /  F ield         | OpenFOAM: The Open Source CFD Toolbox           |
|  \\    /   O peration     | Version:  5.x                                   |
|   \\  /    A nd           | Web:      www.OpenFOAM.org                      |
|    \\/     M anipulation  |                                                 |
\*---------------------------------------------------------------------------*/
FoamFile
{
    version     2.0;
    format      ascii;
    class       volScalarField;
    location    "150";
    object      nut;
}
// * * * * * * * * * * * * * * * * * * * * * * * * * * * * * * * * * * * * * //

dimensions      [0 2 -1 0 0 0 0];

internalField   nonuniform List<scalar> 
11040
(
0.00267503
0.00138727
0.000444974
0.000659342
0.000602327
0.000550621
0.000561448
0.000545369
0.000526479
0.000513132
0.000504999
0.00050399
0.000508538
0.000518069
0.000532125
0.000550998
0.000574949
0.00060454
0.000640865
0.000684481
0.000735282
0.000789972
0.000845639
0.000901147
0.000954107
0.00100263
0.00104521
0.00107875
0.0011009
0.00110824
0.00109895
0.00106956
0.00101798
0.000950194
0.00089225
0.000845523
0.000751416
0.000640388
0.000623514
0.000599509
0.000686978
0.00544398
0.00407808
0.00308116
0.00323664
0.00277548
0.00218263
0.00172518
0.00142067
0.00122979
0.00110983
0.00102087
0.000970601
0.000946458
0.000941518
0.000948721
0.000966273
0.000992412
0.00102573
0.00106956
0.00112729
0.00120209
0.00129119
0.00138848
0.0014933
0.00160298
0.00171744
0.00183978
0.0019631
0.00208493
0.00220567
0.00232262
0.00243432
0.00254087
0.00264403
0.00275154
0.00286215
0.00296518
0.00307
0.00315153
0.00315843
0.00338947
0.0111023
0.0082727
0.00603826
0.00522005
0.00533679
0.0050583
0.00407386
0.0033635
0.00287633
0.00258701
0.00236148
0.00222523
0.00215602
0.00214047
0.00215684
0.00219979
0.00226622
0.00234748
0.00244997
0.00258301
0.00275668
0.00296995
0.00321207
0.00347905
0.00376042
0.00404895
0.00433968
0.00462925
0.00491459
0.00519272
0.00546093
0.00571676
0.00595935
0.00618834
0.00640709
0.00661296
0.00680505
0.00699584
0.00717578
0.00720429
0.00757121
0.0185402
0.0141841
0.0103983
0.00796615
0.00722927
0.00743771
0.00717685
0.00632166
0.00536191
0.00481715
0.00438005
0.00409736
0.00394304
0.00390741
0.00394085
0.0040262
0.00416492
0.00432853
0.00451951
0.00475303
0.00504518
0.00540652
0.00583019
0.00630676
0.00681419
0.00733653
0.00786264
0.00838454
0.00889688
0.00939518
0.00987401
0.0103288
0.0107569
0.0111569
0.0115316
0.0118793
0.0122015
0.0125095
0.0128062
0.0129011
0.0133963
0.0268941
0.0222058
0.0165463
0.0124774
0.0100457
0.00939915
0.00974104
0.00980724
0.00922672
0.00827485
0.00736993
0.0067984
0.00646803
0.00637046
0.00641604
0.0065467
0.00679138
0.00708548
0.00741141
0.00778898
0.00822957
0.00876521
0.00941377
0.010165
0.0109772
0.0118182
0.0126665
0.0135055
0.0143243
0.0151172
0.0158751
0.0165907
0.0172579
0.0178736
0.0184399
0.018958
0.0194326
0.0198765
0.0203007
0.0205148
0.0211489
0.0358693
0.0314487
0.0252085
0.0196025
0.0152562
0.0126315
0.0119012
0.0123892
0.012837
0.0125616
0.0118372
0.0109509
0.0101748
0.0097189
0.00959854
0.00977428
0.0101873
0.0107088
0.0112733
0.0119175
0.0125959
0.0133402
0.0142428
0.0153262
0.0165256
0.0177806
0.0190516
0.0203066
0.0215238
0.0226964
0.0238106
0.0248556
0.0258206
0.026698
0.0274873
0.0281932
0.0288276
0.0294101
0.0299602
0.0303337
0.0311264
0.0453249
0.041314
0.0354461
0.0288689
0.0231858
0.0186285
0.0157302
0.0147869
0.0153331
0.0161488
0.0162762
0.0158303
0.0151115
0.0144121
0.0139567
0.0138817
0.0142123
0.0148924
0.0158618
0.0170458
0.0182753
0.0194546
0.0207008
0.0221621
0.0238234
0.0255914
0.0273964
0.0291822
0.0309015
0.032548
0.0341002
0.0355456
0.0368674
0.0380496
0.0390838
0.0399765
0.0407518
0.041445
0.0420903
0.0426238
0.0435836
0.0550627
0.0515069
0.046321
0.0399626
0.0332456
0.0274739
0.0226814
0.0194113
0.0181036
0.0185357
0.019647
0.0203016
0.0202283
0.0197926
0.0193307
0.0191078
0.0193172
0.0200367
0.0212605
0.0229166
0.0248818
0.026926
0.0289603
0.0311042
0.033358
0.0357346
0.0381837
0.0406264
0.0429594
0.0451782
0.0472468
0.0491538
0.0508817
0.0524029
0.0536898
0.0547417
0.0555977
0.0563205
0.0569708
0.0575838
0.0586646
0.0648459
0.0617843
0.0573122
0.0517065
0.0452325
0.0385003
0.0325987
0.0275162
0.0237779
0.0219375
0.0220199
0.0232732
0.0244931
0.0249962
0.0250085
0.0249554
0.0252101
0.0260198
0.0275206
0.0297189
0.0325319
0.0356872
0.0389424
0.0422846
0.0456217
0.0489045
0.052122
0.0552766
0.0583294
0.0612168
0.0638648
0.0662649
0.0684176
0.0702908
0.0718187
0.0729668
0.0737767
0.0743568
0.0748284
0.0753255
0.0763577
0.0744227
0.0718671
0.068102
0.0633336
0.0577014
0.0513034
0.0446274
0.0385816
0.0331972
0.0289434
0.0264259
0.0259073
0.0270013
0.028693
0.0299828
0.030689
0.0313028
0.0323193
0.0341133
0.0368713
0.040617
0.0450737
0.0498662
0.0548671
0.0599107
0.0648644
0.0696243
0.074098
0.0782016
0.0818763
0.0851054
0.0879264
0.0904079
0.0925551
0.0942499
0.0953699
0.0959134
0.096038
0.0960051
0.0960048
0.0965906
0.0835502
0.081475
0.078396
0.0744417
0.0697277
0.0642728
0.058113
0.0515974
0.0453207
0.0396958
0.0349723
0.031709
0.0303639
0.0309302
0.0327671
0.0348675
0.0366042
0.0382205
0.0403696
0.0435861
0.0481365
0.0538192
0.0601559
0.0669066
0.073816
0.0806737
0.087313
0.0936005
0.0994282
0.104708
0.109378
0.113401
0.116758
0.119418
0.1213
0.1223
0.122367
0.121651
0.120657
0.119571
0.119009
0.0920174
0.0903726
0.0879234
0.0847357
0.0808902
0.0764271
0.0712969
0.0654983
0.0592119
0.0527701
0.0470406
0.0419392
0.0379434
0.0356303
0.0353052
0.0367659
0.0393288
0.0422271
0.0452588
0.0489881
0.0541009
0.0606815
0.0682911
0.0765925
0.0852114
0.0938312
0.102196
0.11011
0.117426
0.124042
0.129896
0.134941
0.139182
0.142653
0.145367
0.147306
0.148422
0.148619
0.147699
0.145429
0.143009
0.0996694
0.0983912
0.0964841
0.0939815
0.0909302
0.0873676
0.0832592
0.0785703
0.0732559
0.0673427
0.0611574
0.055375
0.0499793
0.0453406
0.0420277
0.0405356
0.0410505
0.0433499
0.0469581
0.0515382
0.0572637
0.0644067
0.0728299
0.0822636
0.0922469
0.102348
0.112181
0.121457
0.129962
0.137557
0.144164
0.149742
0.154321
0.15801
0.160934
0.163205
0.164905
0.166058
0.166573
0.166247
0.164965
0.106424
0.105445
0.103984
0.102056
0.0996909
0.0969154
0.0936997
0.0900349
0.0858633
0.0811309
0.0758167
0.0701154
0.0641992
0.0587714
0.0537894
0.0496811
0.0469952
0.0461714
0.0474095
0.0507052
0.0560576
0.0632868
0.0720526
0.082102
0.0929773
0.104148
0.115106
0.125441
0.134851
0.14313
0.150152
0.155872
0.160318
0.163677
0.16621
0.168214
0.169966
0.171669
0.173386
0.174986
0.176207
0.11227
0.111527
0.110419
0.108949
0.107142
0.105019
0.102553
0.0997333
0.0965415
0.0929441
0.0888819
0.0842937
0.0791669
0.0737104
0.0683394
0.0632661
0.0586683
0.0549942
0.0527519
0.0523818
0.0542617
0.0585546
0.0652449
0.0742301
0.0849577
0.0965692
0.108241
0.119352
0.129463
0.138265
0.145551
0.151201
0.155253
0.157945
0.159672
0.160953
0.162345
0.164331
0.167195
0.170868
0.174999
0.117255
0.116692
0.115854
0.114738
0.113364
0.111754
0.109887
0.107753
0.105343
0.102643
0.0996309
0.0962462
0.0924139
0.0880819
0.0833307
0.0782824
0.0734083
0.0687499
0.0645402
0.0611935
0.0591912
0.0589661
0.0607807
0.0648344
0.0712166
0.0797167
0.0897226
0.100333
0.110626
0.11987
0.127587
0.133504
0.137498
0.13985
0.141012
0.141625
0.1425
0.144498
0.148317
0.154142
0.161605
0.121462
0.121036
0.120398
0.119549
0.118503
0.117282
0.115874
0.11427
0.112467
0.110456
0.108228
0.10576
0.103011
0.0999239
0.096441
0.0925214
0.0882569
0.0837308
0.079347
0.07516
0.0713465
0.0683129
0.0663896
0.065756
0.0666005
0.0690575
0.0731169
0.0785468
0.0848917
0.0915526
0.0979153
0.103496
0.108028
0.111267
0.113241
0.114308
0.115192
0.116988
0.120995
0.128153
0.138597
0.124831
0.124507
0.124008
0.123344
0.122531
0.121584
0.120499
0.119281
0.117914
0.1164
0.114734
0.112903
0.110892
0.10868
0.106231
0.103494
0.10042
0.0969793
0.0932416
0.0892898
0.0852671
0.0816928
0.0785733
0.0759723
0.0740142
0.0728231
0.0725006
0.0730906
0.0745438
0.076702
0.0793165
0.0821017
0.084799
0.0872616
0.0893645
0.0910163
0.0922971
0.0937696
0.0967571
0.103088
0.11424
0.12742
0.127159
0.126759
0.126227
0.125586
0.124833
0.123972
0.12301
0.12194
0.120763
0.119478
0.118077
0.11655
0.11489
0.113086
0.11112
0.108959
0.106561
0.103888
0.100915
0.0976603
0.0943593
0.0911663
0.088312
0.0858082
0.0836197
0.0817921
0.0803847
0.0794425
0.0789798
0.0789702
0.0793471
0.0800213
0.0809097
0.0819184
0.0829244
0.0837965
0.0845562
0.0859035
0.0897268
0.098763
0.129439
0.129225
0.128898
0.128465
0.127942
0.127329
0.126636
0.125858
0.125
0.124057
0.123033
0.121923
0.120724
0.11943
0.118036
0.116537
0.114926
0.113187
0.111299
0.109226
0.106924
0.104461
0.101933
0.0994277
0.0970142
0.0947158
0.0925616
0.0907553
0.0892132
0.0879179
0.0868767
0.0860935
0.0855626
0.0852699
0.0851989
0.0853038
0.0854543
0.0855032
0.0857202
0.0875889
0.0942427
0.13105
0.130871
0.130601
0.130249
0.129817
0.129309
0.128735
0.128092
0.127387
0.126619
0.125784
0.124884
0.123917
0.122879
0.121768
0.120582
0.119317
0.11797
0.116542
0.115022
0.113449
0.111804
0.110041
0.108137
0.1062
0.104271
0.102377
0.100571
0.0988719
0.0972865
0.0958219
0.0945763
0.0935611
0.0927091
0.0920135
0.0914573
0.0909491
0.0903535
0.0898876
0.0909389
0.0967645
0.132361
0.132211
0.131988
0.131695
0.131334
0.130913
0.130432
0.129898
0.129308
0.128667
0.127977
0.127236
0.126439
0.125589
0.124682
0.123722
0.122704
0.121623
0.120482
0.119279
0.118025
0.116819
0.115656
0.114455
0.113193
0.11187
0.110483
0.108997
0.107419
0.105861
0.104357
0.102926
0.101581
0.10032
0.0991962
0.0982306
0.0972818
0.0962168
0.0953775
0.0964835
0.103251
0.133446
0.133322
0.13314
0.132892
0.13259
0.132233
0.13183
0.131378
0.130882
0.130346
0.129766
0.129145
0.128481
0.127775
0.127025
0.126231
0.125393
0.124507
0.123573
0.122591
0.121558
0.120516
0.119532
0.118638
0.117778
0.116908
0.115998
0.115019
0.113961
0.112837
0.111663
0.110442
0.109179
0.107885
0.106581
0.10527
0.103891
0.102411
0.101475
0.103485
0.112898
0.134359
0.134257
0.134104
0.133895
0.133639
0.133338
0.132993
0.13261
0.132187
0.131731
0.131242
0.13072
0.130164
0.129573
0.128945
0.128279
0.127578
0.126841
0.126065
0.125249
0.124395
0.123516
0.122642
0.121787
0.120996
0.120282
0.1196
0.118913
0.118195
0.117426
0.116594
0.115685
0.114691
0.113613
0.112453
0.11118
0.109716
0.108136
0.107544
0.111255
0.124458
0.135136
0.135054
0.134926
0.134751
0.134533
0.134274
0.133978
0.133647
0.133285
0.132895
0.132479
0.132034
0.131562
0.131063
0.130536
0.129979
0.129391
0.128772
0.128121
0.127438
0.12672
0.12598
0.125234
0.124482
0.123732
0.122998
0.122288
0.12164
0.121025
0.120413
0.119775
0.119087
0.11833
0.117491
0.116553
0.115468
0.114152
0.112749
0.112684
0.118082
0.135232
0.135806
0.135741
0.135634
0.135483
0.135294
0.135072
0.134815
0.13453
0.134218
0.133884
0.133525
0.133144
0.132742
0.132318
0.131872
0.131403
0.13091
0.13039
0.129842
0.129266
0.128659
0.128032
0.1274
0.126758
0.126106
0.125444
0.124774
0.124106
0.123442
0.122784
0.122124
0.121452
0.120783
0.12008
0.11931
0.118421
0.117339
0.116184
0.116262
0.121704
0.138898
0.136388
0.136337
0.136247
0.136118
0.135954
0.135759
0.135537
0.13529
0.13502
0.134731
0.134422
0.134094
0.133749
0.133387
0.133007
0.132608
0.132191
0.131753
0.131294
0.13081
0.130301
0.129775
0.129243
0.128701
0.12815
0.127595
0.127038
0.126484
0.125933
0.125383
0.124826
0.124248
0.123634
0.122967
0.122231
0.12141
0.120478
0.119512
0.119228
0.122031
0.132872
0.136898
0.136858
0.136783
0.136672
0.136529
0.13636
0.136166
0.13595
0.135713
0.13546
0.135192
0.134909
0.134613
0.134303
0.133977
0.133637
0.133282
0.13291
0.132522
0.132119
0.131696
0.131263
0.13084
0.130445
0.130082
0.129734
0.129379
0.129017
0.128645
0.128262
0.127861
0.127435
0.126972
0.126457
0.12588
0.125232
0.124504
0.123702
0.123006
0.12321
0.126487
0.137346
0.137316
0.137254
0.137159
0.137037
0.136891
0.136722
0.136532
0.136325
0.136102
0.135867
0.13562
0.135362
0.135093
0.134811
0.134519
0.134224
0.133931
0.133638
0.133338
0.13304
0.132767
0.132506
0.132254
0.132009
0.131766
0.131521
0.131272
0.131017
0.130753
0.130478
0.130188
0.129876
0.129533
0.12915
0.128717
0.128226
0.12766
0.127014
0.126395
0.126298
0.137742
0.137721
0.137672
0.137594
0.137491
0.137366
0.13722
0.137055
0.136873
0.136677
0.13647
0.136253
0.136025
0.135788
0.135553
0.135337
0.135138
0.134947
0.134757
0.134561
0.134364
0.134175
0.133992
0.133814
0.133639
0.133466
0.133294
0.133121
0.132946
0.132769
0.132587
0.132399
0.132202
0.131992
0.131764
0.131512
0.13123
0.130902
0.130509
0.130021
0.129465
0.138093
0.138082
0.138046
0.137986
0.137903
0.137798
0.137673
0.13753
0.137371
0.137199
0.137016
0.136824
0.136623
0.136436
0.136273
0.136127
0.135989
0.135854
0.13572
0.135583
0.135445
0.13531
0.13518
0.135053
0.13493
0.134809
0.134691
0.134574
0.134458
0.134343
0.134227
0.13411
0.133992
0.13387
0.133743
0.13361
0.133465
0.133305
0.133119
0.132893
0.132619
0.138407
0.138407
0.138387
0.138345
0.138282
0.138196
0.138091
0.137968
0.13783
0.137679
0.137517
0.137347
0.137193
0.137064
0.13695
0.136843
0.13674
0.136637
0.136535
0.136431
0.136328
0.136227
0.136131
0.136039
0.135951
0.135867
0.135786
0.135708
0.135633
0.13556
0.135489
0.135419
0.13535
0.135282
0.135213
0.135144
0.135073
0.134999
0.134919
0.134834
0.134754
0.13869
0.138703
0.138702
0.138679
0.138634
0.138567
0.138481
0.138377
0.138258
0.138126
0.137985
0.137857
0.137752
0.137661
0.137576
0.137493
0.137411
0.137329
0.137247
0.137165
0.137083
0.137005
0.13693
0.13686
0.136795
0.136733
0.136676
0.136622
0.136572
0.136525
0.13648
0.136438
0.136398
0.136359
0.136321
0.136283
0.136246
0.136207
0.136167
0.136128
0.136103
0.138946
0.138978
0.138996
0.138992
0.138966
0.138918
0.138852
0.138769
0.138671
0.13856
0.138459
0.138378
0.138307
0.138241
0.138174
0.138107
0.138039
0.137971
0.137903
0.137835
0.137768
0.137703
0.137643
0.137586
0.137534
0.137486
0.137442
0.137402
0.137366
0.137333
0.137302
0.137274
0.137248
0.137223
0.137199
0.137174
0.13715
0.137123
0.137094
0.137065
0.137042
0.139183
0.139236
0.139273
0.139288
0.139281
0.139257
0.139217
0.139163
0.139098
0.139032
0.138979
0.13893
0.13888
0.138828
0.138773
0.138716
0.138657
0.138598
0.138539
0.13848
0.138422
0.138367
0.138315
0.138267
0.138223
0.138183
0.138147
0.138114
0.138084
0.138057
0.138033
0.138011
0.13799
0.13797
0.13795
0.137929
0.137908
0.137884
0.137857
0.137828
0.137797
0.139405
0.13948
0.139534
0.139566
0.139582
0.139586
0.13958
0.139566
0.139542
0.139513
0.139482
0.139448
0.139411
0.13937
0.139326
0.139279
0.139232
0.139183
0.139134
0.139086
0.139038
0.138992
0.13895
0.13891
0.138873
0.13884
0.13881
0.138782
0.138757
0.138734
0.138714
0.138694
0.138676
0.138657
0.138638
0.138618
0.138597
0.138572
0.138545
0.138515
0.138478
0.139615
0.139704
0.139769
0.139815
0.139846
0.139863
0.13987
0.139868
0.139858
0.139843
0.139826
0.139807
0.139785
0.139761
0.139735
0.139706
0.139677
0.139646
0.139614
0.139582
0.13955
0.139519
0.13949
0.139463
0.139438
0.139415
0.139394
0.139374
0.139356
0.13934
0.139325
0.13931
0.139295
0.13928
0.139264
0.139246
0.139226
0.139204
0.139178
0.13915
0.139107
0.139802
0.139891
0.139947
0.139983
0.140007
0.140023
0.140033
0.140037
0.140036
0.140032
0.140026
0.140019
0.140011
0.140002
0.139991
0.13998
0.139967
0.139954
0.13994
0.139926
0.139912
0.139899
0.139886
0.139873
0.139862
0.139852
0.139842
0.139834
0.139826
0.139818
0.139811
0.139804
0.139795
0.139786
0.139775
0.139763
0.139748
0.139731
0.13971
0.139686
0.139643
0.139938
0.140004
0.140045
0.140074
0.140097
0.140115
0.140129
0.14014
0.140147
0.14015
0.140153
0.140154
0.140154
0.140154
0.140153
0.140152
0.14015
0.140149
0.140147
0.140145
0.140144
0.140143
0.140142
0.140141
0.140141
0.140142
0.140142
0.140143
0.140144
0.140144
0.140145
0.140144
0.140142
0.140139
0.140134
0.140128
0.140118
0.140107
0.140093
0.140075
0.14005
0.140021
0.140067
0.140101
0.140129
0.140154
0.140175
0.140194
0.14021
0.140223
0.140233
0.140242
0.140249
0.140256
0.140262
0.140267
0.140272
0.140276
0.140281
0.140285
0.14029
0.140295
0.140301
0.140306
0.140312
0.140318
0.140325
0.140331
0.140337
0.140342
0.140347
0.140351
0.140355
0.140357
0.140357
0.140356
0.140353
0.140348
0.140341
0.140331
0.140315
0.140298
0.140066
0.140103
0.140135
0.140164
0.140191
0.140216
0.140239
0.14026
0.140279
0.140295
0.140309
0.140322
0.140334
0.140345
0.140355
0.140364
0.140373
0.140382
0.14039
0.140399
0.140407
0.140416
0.140424
0.140433
0.140441
0.14045
0.140458
0.140465
0.140472
0.140479
0.140484
0.140489
0.140492
0.140494
0.140495
0.140493
0.14049
0.140485
0.140474
0.14045
0.140439
0.14009
0.140123
0.140155
0.140185
0.140215
0.140244
0.140272
0.140298
0.140321
0.140343
0.140363
0.140381
0.140398
0.140413
0.140428
0.140441
0.140454
0.140466
0.140477
0.140488
0.140499
0.14051
0.14052
0.14053
0.14054
0.140549
0.140558
0.140566
0.140573
0.14058
0.140586
0.14059
0.140594
0.140596
0.140597
0.140597
0.140595
0.140589
0.140572
0.140552
0.140549
0.140101
0.140132
0.140163
0.140196
0.140228
0.140261
0.140293
0.140325
0.140354
0.140381
0.140407
0.14043
0.140452
0.140472
0.140491
0.140508
0.140524
0.140539
0.140553
0.140567
0.14058
0.140592
0.140604
0.140615
0.140626
0.140636
0.140645
0.140654
0.140662
0.140669
0.140675
0.14068
0.140684
0.140687
0.140689
0.14069
0.140689
0.140683
0.14067
0.140656
0.140658
0.140102
0.140131
0.140162
0.140196
0.140231
0.140268
0.140306
0.140343
0.140379
0.140413
0.140444
0.140474
0.140501
0.140526
0.140549
0.14057
0.14059
0.140608
0.140625
0.140641
0.140656
0.140671
0.140684
0.140696
0.140708
0.140719
0.140729
0.140738
0.140747
0.140754
0.140761
0.140767
0.140773
0.140777
0.14078
0.140782
0.140783
0.140782
0.140774
0.140766
0.14077
0.140095
0.140121
0.140151
0.140185
0.140223
0.140264
0.140308
0.140354
0.140398
0.140441
0.14048
0.140517
0.140551
0.140581
0.140609
0.140635
0.140658
0.140679
0.140699
0.140717
0.140734
0.14075
0.140765
0.140778
0.140791
0.140803
0.140814
0.140825
0.140834
0.140843
0.140851
0.140858
0.140865
0.140871
0.140876
0.14088
0.140883
0.140886
0.140886
0.140882
0.140887
0.140079
0.140101
0.140128
0.140161
0.1402
0.140245
0.140296
0.140352
0.14041
0.140466
0.140518
0.140566
0.14061
0.14065
0.140684
0.140715
0.140742
0.140765
0.140786
0.140805
0.140822
0.140837
0.140851
0.140864
0.140876
0.140887
0.140897
0.140907
0.140916
0.140924
0.140932
0.140939
0.140946
0.140952
0.140958
0.140963
0.140967
0.140971
0.140974
0.140974
0.140981
0.140054
0.14007
0.140091
0.140118
0.140152
0.140197
0.140252
0.140317
0.140393
0.140475
0.140555
0.140629
0.140697
0.140758
0.140812
0.14086
0.140902
0.140938
0.140968
0.140995
0.141018
0.141037
0.141053
0.141068
0.14108
0.14109
0.1411
0.141108
0.141116
0.141123
0.14113
0.141136
0.141142
0.141147
0.141152
0.141157
0.141161
0.141165
0.141169
0.141172
0.141171
0.14002
0.140026
0.140035
0.140048
0.140066
0.140091
0.140128
0.140179
0.140251
0.140345
0.140497
0.140576
0.140635
0.14069
0.140744
0.140798
0.14085
0.140901
0.140948
0.140993
0.141035
0.141073
0.141107
0.141138
0.141167
0.141192
0.141215
0.141235
0.141253
0.14127
0.141285
0.141298
0.14131
0.141322
0.141332
0.141341
0.141349
0.141357
0.141364
0.14137
0.141373
0.0136329
0.0331216
0.0600081
0.0885928
0.11264
0.128901
0.137028
0.138171
0.133904
0.125883
0.116035
0.106959
0.101535
0.100657
0.102519
0.105233
0.108196
0.111452
0.115033
0.118824
0.122618
0.126236
0.129575
0.132601
0.135323
0.137783
0.140017
0.142058
0.143927
0.145645
0.147233
0.148696
0.150049
0.1513
0.152381
0.15325
0.153895
0.154314
0.154518
0.154521
0.15434
0.153996
0.15351
0.152911
0.152223
0.151472
0.150681
0.149871
0.149057
0.148256
0.147475
0.146719
0.14599
0.145289
0.144615
0.143971
0.143357
0.142777
0.142234
0.141732
0.141276
0.140869
0.140519
0.140227
0.139999
0.139838
0.139744
0.139719
0.139759
0.139859
0.140022
0.140238
0.140517
0.14085
0.0170522
0.0383985
0.0667174
0.0958066
0.119785
0.135917
0.144094
0.145482
0.14158
0.133929
0.124226
0.114619
0.10769
0.104961
0.105592
0.10794
0.111058
0.114573
0.118303
0.122075
0.125715
0.129107
0.132209
0.135024
0.137578
0.139911
0.142054
0.144032
0.145857
0.147544
0.149103
0.150533
0.151838
0.153009
0.15398
0.154724
0.155237
0.155523
0.155595
0.155472
0.155172
0.154718
0.154135
0.15345
0.152689
0.151877
0.151037
0.150187
0.149344
0.14852
0.147721
0.14695
0.146208
0.145494
0.144808
0.14415
0.143522
0.142928
0.142369
0.141851
0.141379
0.140959
0.140594
0.140291
0.140053
0.139884
0.139786
0.139757
0.139798
0.139899
0.140068
0.140289
0.140586
0.140929
0.0211699
0.0447467
0.0747203
0.104406
0.128401
0.144546
0.152983
0.154874
0.151608
0.144572
0.13519
0.125103
0.116409
0.111115
0.109679
0.111073
0.114026
0.117617
0.12137
0.12505
0.128511
0.13169
0.134588
0.137233
0.139655
0.141894
0.143974
0.145911
0.147712
0.149382
0.150925
0.152332
0.153595
0.154696
0.155584
0.156239
0.156662
0.156859
0.156844
0.156636
0.156254
0.155723
0.155066
0.154309
0.15348
0.152604
0.151704
0.1508
0.149909
0.149042
0.148206
0.147403
0.146632
0.145892
0.145181
0.144499
0.143848
0.14323
0.142647
0.142105
0.141609
0.141164
0.140776
0.140451
0.140193
0.140006
0.139892
0.139852
0.139884
0.13998
0.140146
0.140367
0.140673
0.141009
0.0271556
0.0522518
0.0839504
0.114208
0.138198
0.154395
0.163189
0.165719
0.163246
0.156973
0.148049
0.137663
0.127362
0.119244
0.115004
0.11471
0.117062
0.120523
0.124203
0.127749
0.131029
0.134017
0.136744
0.139252
0.141575
0.143748
0.145788
0.147706
0.1495
0.15117
0.152714
0.154114
0.155355
0.156415
0.157256
0.157868
0.15825
0.15841
0.158359
0.158113
0.157688
0.157107
0.156392
0.155569
0.154668
0.153715
0.152735
0.151752
0.150786
0.14985
0.148952
0.148095
0.147277
0.146496
0.145748
0.145031
0.144346
0.143693
0.143076
0.1425
0.14197
0.14149
0.141068
0.140709
0.140419
0.140202
0.140063
0.139999
0.140013
0.140094
0.140251
0.140464
0.140769
0.141084
0.0350667
0.06102
0.0943592
0.124989
0.148835
0.16502
0.174166
0.177379
0.175772
0.170356
0.162021
0.151591
0.140101
0.129369
0.121858
0.119053
0.120218
0.123286
0.126795
0.130183
0.133291
0.136114
0.138702
0.141105
0.143356
0.145487
0.147509
0.149427
0.151234
0.152923
0.154486
0.155901
0.15715
0.15821
0.159054
0.159675
0.160071
0.160246
0.160208
0.159967
0.159536
0.158932
0.158175
0.157291
0.156312
0.155265
0.154181
0.153089
0.152014
0.150976
0.149984
0.149045
0.148157
0.147315
0.146515
0.145752
0.145023
0.144328
0.143667
0.143047
0.14247
0.141944
0.141475
0.14107
0.140735
0.140475
0.140295
0.140197
0.140181
0.140238
0.140376
0.140575
0.140868
0.141151
0.045111
0.0713161
0.105866
0.136454
0.159896
0.17592
0.18534
0.18921
0.188496
0.184009
0.176408
0.166222
0.154076
0.141306
0.130491
0.124423
0.123656
0.125955
0.129167
0.132372
0.135321
0.138005
0.140482
0.142805
0.145009
0.14712
0.149145
0.151082
0.152921
0.154649
0.156255
0.157714
0.159007
0.160112
0.161011
0.161696
0.162162
0.162409
0.162436
0.162249
0.161851
0.161256
0.160479
0.159544
0.158482
0.157324
0.156109
0.154872
0.153649
0.152466
0.151341
0.150285
0.149296
0.14837
0.147498
0.146673
0.145888
0.145141
0.144428
0.143754
0.143122
0.142537
0.142008
0.141541
0.141145
0.140827
0.140593
0.140445
0.140386
0.140407
0.140517
0.140693
0.140963
0.14121
0.0574921
0.0836323
0.118262
0.14818
0.170871
0.186526
0.196094
0.20056
0.200736
0.197248
0.190539
0.180903
0.168657
0.154632
0.140972
0.131184
0.127651
0.128655
0.131367
0.134343
0.137141
0.139709
0.142099
0.144366
0.146544
0.148655
0.1507
0.152676
0.154566
0.156357
0.158032
0.159567
0.160942
0.162142
0.163149
0.163955
0.16455
0.164927
0.165079
0.165
0.164686
0.164141
0.163374
0.162403
0.16126
0.159979
0.158604
0.157184
0.155766
0.154388
0.153079
0.151859
0.150729
0.149684
0.148715
0.147809
0.146953
0.146142
0.145367
0.14463
0.143932
0.143279
0.142676
0.142133
0.141661
0.141267
0.14096
0.140746
0.140629
0.140602
0.140672
0.140815
0.141053
0.141259
0.0722801
0.0978404
0.131075
0.159585
0.181132
0.19619
0.205761
0.210744
0.2118
0.209375
0.203729
0.194961
0.183152
0.16871
0.153074
0.139623
0.132575
0.131597
0.133488
0.136138
0.138775
0.141242
0.143566
0.145797
0.147967
0.150095
0.152179
0.154211
0.156174
0.15805
0.159822
0.161467
0.162967
0.164309
0.165478
0.166462
0.167247
0.167818
0.168159
0.168252
0.168082
0.16764
0.166925
0.165948
0.164736
0.163325
0.161768
0.160124
0.158459
0.156826
0.155271
0.153827
0.152503
0.151296
0.150194
0.149179
0.148233
0.147342
0.146495
0.145685
0.144912
0.144179
0.143491
0.142858
0.142292
0.141803
0.141405
0.141106
0.140912
0.14082
0.140837
0.140937
0.141135
0.141297
0.0893078
0.113325
0.143553
0.169907
0.189938
0.204191
0.213637
0.219061
0.220982
0.219688
0.215277
0.207692
0.196827
0.18277
0.166245
0.149797
0.138818
0.135092
0.135684
0.137823
0.140253
0.142621
0.144893
0.147104
0.149282
0.151442
0.153581
0.155688
0.157744
0.159729
0.161626
0.163416
0.165082
0.166614
0.167997
0.169216
0.170253
0.171085
0.171684
0.172021
0.172065
0.171794
0.171189
0.170251
0.168998
0.167465
0.16571
0.163806
0.16184
0.159884
0.15801
0.156268
0.154681
0.153252
0.151969
0.150808
0.149745
0.148757
0.147823
0.14693
0.146073
0.145249
0.144464
0.143727
0.14305
0.142448
0.141937
0.14153
0.14124
0.141065
0.141012
0.141057
0.141208
0.141324
0.108122
0.129307
0.154706
0.178307
0.196503
0.209795
0.219027
0.22484
0.227618
0.227516
0.224501
0.218393
0.208941
0.195985
0.17968
0.161414
0.146666
0.139519
0.138191
0.139508
0.141623
0.143868
0.14609
0.148291
0.150489
0.152696
0.154905
0.157103
0.15927
0.161388
0.16344
0.165407
0.167279
0.169044
0.170691
0.172202
0.173552
0.174712
0.175644
0.176304
0.176644
0.176623
0.176204
0.175369
0.174121
0.17249
0.170537
0.168346
0.166028
0.163682
0.161405
0.159278
0.157343
0.155616
0.154087
0.152732
0.151515
0.150403
0.149365
0.148378
0.147426
0.146504
0.145611
0.144755
0.143951
0.143215
0.142569
0.14203
0.141619
0.141338
0.141199
0.141176
0.141272
0.141341
0.128
0.144919
0.164062
0.184081
0.200184
0.212407
0.221372
0.227549
0.231181
0.232316
0.230825
0.22644
0.218798
0.207552
0.192454
0.173814
0.156141
0.145254
0.141328
0.141368
0.142964
0.145016
0.147173
0.149366
0.151591
0.153853
0.156144
0.158449
0.160746
0.163019
0.16525
0.167427
0.169539
0.17158
0.173536
0.17539
0.177113
0.178669
0.180009
0.181076
0.181803
0.182125
0.181981
0.181329
0.180152
0.178468
0.176334
0.173847
0.171138
0.168336
0.165574
0.162964
0.160582
0.158462
0.156607
0.154991
0.153571
0.152301
0.151137
0.150041
0.148987
0.147958
0.146948
0.145963
0.145014
0.144124
0.143317
0.14262
0.14206
0.141648
0.141401
0.141295
0.141328
0.141348
0.148013
0.159607
0.172754
0.186888
0.200673
0.211795
0.220466
0.22697
0.231435
0.233809
0.233904
0.231396
0.225849
0.216779
0.203675
0.186075
0.166883
0.152536
0.145467
0.143659
0.144408
0.146124
0.148165
0.150335
0.152587
0.154911
0.157293
0.159716
0.16216
0.164606
0.167041
0.169454
0.171839
0.17419
0.176497
0.178741
0.180892
0.182908
0.184733
0.186292
0.187499
0.188263
0.188494
0.188119
0.187095
0.185419
0.183143
0.180369
0.177249
0.173943
0.170619
0.167432
0.164495
0.161876
0.159596
0.157635
0.155947
0.154474
0.153154
0.151933
0.150767
0.149625
0.148493
0.147369
0.146263
0.145198
0.144204
0.143318
0.142578
0.142005
0.141624
0.141417
0.141377
0.141347
0.166402
0.172736
0.18047
0.189024
0.198449
0.208338
0.216646
0.2234
0.228616
0.232147
0.233768
0.233142
0.229803
0.223181
0.212606
0.197188
0.178144
0.161305
0.150939
0.146711
0.146162
0.147299
0.149116
0.15122
0.153484
0.155866
0.158343
0.160894
0.163496
0.166133
0.168791
0.171464
0.174148
0.17684
0.179532
0.182208
0.184837
0.187375
0.189755
0.19189
0.19367
0.194976
0.195683
0.195683
0.194898
0.193303
0.190935
0.187901
0.184373
0.180537
0.176598
0.172755
0.169163
0.165934
0.163119
0.160716
0.158681
0.156945
0.155432
0.154064
0.152776
0.15152
0.150264
0.148996
0.147721
0.146463
0.145258
0.14415
0.143193
0.142424
0.141878
0.141547
0.141421
0.141339
0.178247
0.182402
0.186852
0.191465
0.196858
0.203499
0.210969
0.217738
0.223542
0.228018
0.230938
0.231995
0.230742
0.226586
0.218778
0.20626
0.188909
0.171093
0.157887
0.150875
0.148513
0.148714
0.150115
0.152063
0.154298
0.156721
0.159289
0.161969
0.164738
0.167577
0.170476
0.173428
0.176434
0.179493
0.182602
0.185747
0.1889
0.192015
0.195019
0.197808
0.200249
0.202187
0.203461
0.203921
0.203451
0.202001
0.199591
0.196331
0.192412
0.188048
0.183476
0.17893
0.17461
0.170677
0.167222
0.164274
0.161801
0.159734
0.15798
0.156439
0.15502
0.153648
0.152272
0.150863
0.149416
0.147951
0.146509
0.145146
0.143931
0.142923
0.142175
0.141691
0.141463
0.141324
0.178461
0.182419
0.18689
0.191576
0.196255
0.200815
0.205642
0.211381
0.217547
0.222623
0.226434
0.228748
0.229193
0.227218
0.222073
0.212679
0.198126
0.18103
0.166098
0.156396
0.151802
0.150628
0.15132
0.152949
0.155071
0.157495
0.160133
0.162937
0.165874
0.168924
0.172076
0.175325
0.178674
0.182126
0.185682
0.189333
0.193057
0.196806
0.200499
0.204016
0.207194
0.209839
0.211744
0.212716
0.212602
0.211322
0.208887
0.205418
0.201126
0.196254
0.191066
0.18582
0.18075
0.17606
0.171889
0.168308
0.165312
0.162841
0.160794
0.159051
0.157491
0.15601
0.154526
0.152987
0.151372
0.149694
0.147994
0.14634
0.144823
0.143526
0.142531
0.141857
0.141507
0.141305
0.167944
0.173853
0.180285
0.18681
0.193012
0.198592
0.203403
0.207582
0.212343
0.217493
0.221653
0.224623
0.226133
0.225746
0.222791
0.216255
0.20497
0.190012
0.174893
0.163218
0.156303
0.153357
0.152971
0.154034
0.155899
0.158243
0.160909
0.163814
0.166913
0.170179
0.173597
0.177164
0.180883
0.18476
0.188804
0.193011
0.197363
0.201811
0.206264
0.210578
0.214554
0.217947
0.2205
0.221975
0.222184
0.221029
0.218521
0.214804
0.210121
0.204754
0.198991
0.193097
0.18732
0.18189
0.176988
0.172731
0.169155
0.166223
0.16384
0.16187
0.160166
0.158588
0.157018
0.155373
0.153608
0.151721
0.14975
0.147774
0.145906
0.144264
0.142965
0.142057
0.141557
0.141282
0.148954
0.158658
0.168753
0.178608
0.187636
0.195446
0.201855
0.206815
0.210513
0.214188
0.218147
0.221135
0.222942
0.223301
0.221715
0.217338
0.209052
0.196969
0.183164
0.170776
0.162003
0.157155
0.155364
0.155564
0.156965
0.159102