/*--------------------------------*- C++ -*----------------------------------*\
| =========                 |                                                 |
| \\      /  F ield         | OpenFOAM: The Open Source CFD Toolbox           |
|  \\    /   O peration     | Version:  5.x                                   |
|   \\  /    A nd           | Web:      www.OpenFOAM.org                      |
|    \\/     M anipulation  |                                                 |
\*---------------------------------------------------------------------------*/
FoamFile
{
    version     2.0;
    format      ascii;
    class       volScalarField;
    location    "150";
    object      nuTilda;
}
// * * * * * * * * * * * * * * * * * * * * * * * * * * * * * * * * * * * * * //

dimensions      [0 2 -1 0 0 0 0];

internalField   nonuniform List<scalar> 
11040
(
0.0023674
0.00284387
0.0030755
0.00312384
0.0030321
0.00287549
0.00270418
0.00256476
0.00244342
0.00231235
0.00213737
0.00196241
0.00182907
0.00173405
0.00164368
0.00155415
0.0014655
0.00138042
0.00129867
0.00121863
0.00113855
0.00106677
0.00100224
0.000937473
0.000871428
0.000802706
0.000724034
0.000577808
0.000447486
0.000397567
0.000351961
0.000324853
0.000299966
0.000272497
0.000250197
0.000237732
0.000254707
0.000302744
0.000349337
0.000384321
0.000576341
0.00622597
0.00666699
0.00608107
0.00548107
0.00488262
0.00436614
0.00392629
0.00383633
0.00383821
0.0038005
0.00370025
0.00355395
0.0034346
0.00331582
0.00317182
0.00302367
0.00288603
0.0027622
0.00265062
0.00254903
0.0024559
0.00237802
0.00231011
0.00224615
0.00218578
0.00212742
0.00206551
0.00197334
0.00186424
0.00178407
0.00173219
0.00168195
0.0015854
0.00148158
0.00134739
0.00124918
0.0012234
0.0013288
0.00149561
0.00179853
0.00250856
0.0128163
0.0134991
0.0126712
0.011634
0.0104882
0.0093527
0.00830767
0.00737902
0.00658316
0.00589644
0.00526051
0.00475415
0.00464488
0.00460318
0.00454097
0.00446848
0.00438823
0.00430544
0.00422548
0.00415093
0.00408183
0.00402599
0.00397548
0.0039243
0.00387252
0.00382009
0.00376532
0.00370161
0.00363138
0.00356672
0.00351057
0.00345941
0.00339982
0.00333413
0.00320082
0.00302636
0.0030136
0.00325242
0.00351363
0.0038374
0.00481843
0.0205031
0.02127
0.0203643
0.0189995
0.0174095
0.0157738
0.0141962
0.0127049
0.0113253
0.0100505
0.00880799
0.00772749
0.00693245
0.00633789
0.00605923
0.00593434
0.00584496
0.00577597
0.00572127
0.00567656
0.00563877
0.0056121
0.00558852
0.00556263
0.00553306
0.00549946
0.00546102
0.0054159
0.00536465
0.00531123
0.00525952
0.00521429
0.0051791
0.00516022
0.00511363
0.00500632
0.00499428
0.0052886
0.0057316
0.00640796
0.00739423
0.0290539
0.0298193
0.0289157
0.0273455
0.0254215
0.023345
0.0212533
0.019179
0.0172131
0.0153676
0.0135544
0.0119312
0.0106362
0.00961493
0.00876444
0.00805859
0.00764701
0.00744504
0.00732604
0.00725039
0.00720356
0.00718042
0.00716705
0.00715539
0.00714254
0.00712689
0.00710672
0.00708039
0.00704726
0.00700875
0.00696862
0.00693449
0.00691779
0.0069344
0.00696512
0.00695487
0.00698529
0.00732139
0.00799723
0.00910474
0.0102628
0.038209
0.0389324
0.0380797
0.0364273
0.0342988
0.0318456
0.0292528
0.026659
0.0241592
0.0217697
0.0193908
0.017199
0.0153749
0.0139079
0.0126506
0.011557
0.0106459
0.00986453
0.00942078
0.00916851
0.00901548
0.00892571
0.00886859
0.00882685
0.00879663
0.00877364
0.00875355
0.00873278
0.00870894
0.00868145
0.00865272
0.00862997
0.00862671
0.00866479
0.00874999
0.00883919
0.00894874
0.00930378
0.0101009
0.0114774
0.0135515
0.0477457
0.048389
0.0476122
0.0459803
0.0437522
0.0411038
0.038231
0.0352731
0.0323443
0.0294768
0.0265719
0.023822
0.0214512
0.0194778
0.0177504
0.0162228
0.0148738
0.0136717
0.0126331
0.0118551
0.0114166
0.011143
0.0109471
0.0108011
0.0106943
0.0106116
0.010545
0.0104891
0.01044
0.0103957
0.0103569
0.0103289
0.0103234
0.0103619
0.0104666
0.0106255
0.0108253
0.0111975
0.011988
0.0133884
0.015775
0.0573896
0.0579548
0.0572702
0.055733
0.0535372
0.0508746
0.0479159
0.0447806
0.0415864
0.0383748
0.0350548
0.0318237
0.0289396
0.0264538
0.0242291
0.0222264
0.0204229
0.0187932
0.0173129
0.0159835
0.0148599
0.0141478
0.0137029
0.0133805
0.013129
0.012922
0.0127454
0.0125907
0.0124535
0.0123317
0.0122263
0.012142
0.0120889
0.0120848
0.0121555
0.0123175
0.012566
0.0129519
0.0136599
0.0148944
0.0170846
0.0669338
0.0674113
0.066816
0.0654185
0.0633644
0.0608286
0.057949
0.0548196
0.0515451
0.0481626
0.044591
0.041018
0.037716
0.0347701
0.0320763
0.0296077
0.0273475
0.0252758
0.0233701
0.0216096
0.0199831
0.0186674
0.0177418
0.0170768
0.0165714
0.0161548
0.0157891
0.0154563
0.0151479
0.0148615
0.0145989
0.0143663
0.0141745
0.0140403
0.0139871
0.0140435
0.0142286
0.0145651
0.0151472
0.0161171
0.0178144
0.0761355
0.0765289
0.0760197
0.074787
0.0729418
0.0706305
0.0679575
0.064989
0.0618068
0.058418
0.0547697
0.0510269
0.0474546
0.0441686
0.0411182
0.0382609
0.0355923
0.0331069
0.0307901
0.0286247
0.0265915
0.024868
0.0234815
0.0223572
0.0214704
0.0207415
0.0201069
0.0195275
0.0189819
0.0184605
0.0179618
0.0174906
0.0170583
0.0166818
0.0163837
0.0161952
0.0161509
0.0162805
0.0166347
0.0172825
0.0184076
0.0847957
0.0851149
0.0846857
0.0836253
0.0820193
0.0799859
0.077601
0.074889
0.0719171
0.0687102
0.0651998
0.0615106
0.0578758
0.0544154
0.0511013
0.0479483
0.0449628
0.0421542
0.0394913
0.036965
0.0345656
0.0325126
0.0307932
0.0292589
0.0279679
0.0268832
0.0259375
0.0250778
0.024269
0.0234903
0.0227313
0.02199
0.0212725
0.0205917
0.0199659
0.0194249
0.0190066
0.018748
0.0186967
0.0188972
0.019409
0.092769
0.093025
0.092666
0.0917702
0.0904058
0.0886663
0.0866066
0.0842265
0.081584
0.0786907
0.0754818
0.0720434
0.0685606
0.0651373
0.0617607
0.0584657
0.0552771
0.0522126
0.0492768
0.0464674
0.043781
0.0414572
0.0394739
0.0376155
0.0359221
0.0344768
0.0332232
0.0320948
0.0310428
0.0300346
0.0290498
0.0280771
0.0271137
0.0261631
0.0252331
0.0243453
0.0235307
0.0228196
0.0222575
0.0218937
0.0217063
0.0999686
0.100167
0.0998638
0.0991158
0.097977
0.0965209
0.0947875
0.0927661
0.0905031
0.0880018
0.0852023
0.0821568
0.0789871
0.0757855
0.0725527
0.0693343
0.0661439
0.0630046
0.0599344
0.0569447
0.054041
0.0515003
0.0493208
0.047262
0.0453094
0.0434733
0.0418172
0.0403793
0.0390955
0.0379016
0.0367545
0.0356281
0.03451
0.0333907
0.0322659
0.0311457
0.0300486
0.0289886
0.0279958
0.0271197
0.0262626
0.106353
0.106493
0.106234
0.105615
0.104677
0.103479
0.102048
0.100373
0.0984902
0.0963981
0.094045
0.0914447
0.0887038
0.0858772
0.0829609
0.0799871
0.0769823
0.0739791
0.0709787
0.0679949
0.0650401
0.0624108
0.0601267
0.0579542
0.0558777
0.0538841
0.051972
0.0501539
0.0484863
0.0470158
0.0456835
0.0444268
0.0432069
0.0419998
0.0407875
0.0395672
0.0383439
0.0371148
0.0358904
0.0347083
0.0334112
0.111901
0.112003
0.111783
0.111275
0.110514
0.109539
0.108374
0.10701
0.105474
0.103764
0.101828
0.0996915
0.0974184
0.0950402
0.092547
0.0899581
0.0872924
0.0845683
0.0818019
0.0790064
0.0762013
0.0736591
0.0714056
0.0692362
0.0671459
0.0651337
0.063183
0.0612844
0.0594392
0.0576596
0.0559669
0.0544314
0.0530452
0.0517456
0.0504814
0.0492297
0.0479808
0.046718
0.0454366
0.0441581
0.0427097
0.116683
0.116751
0.116564
0.116148
0.115542
0.114751
0.113807
0.112706
0.111469
0.110095
0.108542
0.106829
0.104998
0.103066
0.101012
0.0988564
0.0966191
0.0942987
0.0919036
0.0894431
0.0869271
0.0846091
0.082527
0.0805012
0.0785298
0.0766106
0.0747393
0.0729102
0.0711169
0.0693535
0.0676179
0.0659237
0.0642777
0.0626914
0.0612175
0.0598644
0.0585852
0.057329
0.0560707
0.0548138
0.0534037
0.12077
0.120812
0.120652
0.120311
0.119819
0.119182
0.118424
0.117545
0.116559
0.115466
0.114237
0.112885
0.11144
0.109901
0.108265
0.106537
0.104725
0.102832
0.100868
0.0988287
0.0967151
0.0947356
0.0929306
0.0911566
0.0894145
0.0877034
0.0860219
0.0843684
0.0827399
0.0811327
0.0795424
0.0779652
0.0763989
0.0748424
0.0732967
0.0717756
0.0702888
0.06884
0.0674789
0.0662103
0.0648654
0.124081
0.12411
0.123975
0.123695
0.123293
0.122777
0.122163
0.121461
0.120665
0.119786
0.118804
0.117728
0.116583
0.115363
0.114068
0.1127
0.111262
0.109754
0.108177
0.106532
0.104819
0.103197
0.101702
0.100222
0.0987585
0.0973129
0.0958844
0.094477
0.0930848
0.0917051
0.0903359
0.0889745
0.0876184
0.0862638
0.0849019
0.0835339
0.0821634
0.080783
0.0793993
0.0780285
0.0766021
0.126663
0.126681
0.126567
0.126334
0.126
0.12558
0.125073
0.124493
0.123842
0.123125
0.122335
0.121467
0.120544
0.119563
0.118524
0.117429
0.11628
0.115075
0.113815
0.112498
0.111124
0.109814
0.108599
0.107391
0.106193
0.105005
0.103828
0.102661
0.101505
0.100357
0.0992203
0.0980896
0.0969624
0.0958362
0.0947042
0.093566
0.0924226
0.0912638
0.090086
0.088893
0.0876407
0.128708
0.128719
0.128622
0.128425
0.128144
0.12779
0.127365
0.126882
0.126345
0.12575
0.125097
0.124385
0.123629
0.122835
0.121991
0.121103
0.120173
0.119201
0.118186
0.117127
0.116024
0.114967
0.113982
0.113003
0.112031
0.111067
0.11011
0.109161
0.108219
0.107284
0.106354
0.105429
0.104509
0.103593
0.102675
0.101753
0.100828
0.0998932
0.0989443
0.0979827
0.0969813
0.130363
0.130372
0.130289
0.130121
0.12988
0.129577
0.129221
0.128811
0.128356
0.127855
0.127308
0.12672
0.126093
0.125435
0.124739
0.12401
0.12325
0.122458
0.121634
0.120776
0.119885
0.119029
0.118231
0.117437
0.116649
0.115868
0.11509
0.114318
0.113556
0.112801
0.112052
0.111307
0.110567
0.109831
0.109095
0.108358
0.107621
0.106877
0.106125
0.105365
0.104584
0.131728
0.131736
0.131664
0.131519
0.13131
0.131049
0.130742
0.130394
0.130005
0.129582
0.129118
0.12862
0.128093
0.127541
0.126965
0.126359
0.12573
0.125077
0.1244
0.123699
0.122973
0.122276
0.121624
0.120978
0.120334
0.119701
0.119069
0.118444
0.117826
0.117218
0.116616
0.116019
0.115427
0.114841
0.114256
0.113671
0.113088
0.112501
0.11191
0.111315
0.11071
0.132871
0.132878
0.132815
0.132688
0.132507
0.132279
0.132012
0.131709
0.131377
0.131013
0.130618
0.130193
0.129747
0.12928
0.128793
0.128287
0.127764
0.127221
0.126659
0.126079
0.125483
0.124909
0.124373
0.123842
0.123316
0.122798
0.122284
0.121775
0.121274
0.120779
0.120295
0.119818
0.119347
0.118881
0.118416
0.117953
0.117493
0.117033
0.11657
0.116106
0.11564
0.13384
0.133845
0.13379
0.133679
0.133519
0.13332
0.133086
0.132821
0.132531
0.132215
0.131874
0.131508
0.131126
0.130729
0.130315
0.129886
0.129445
0.128991
0.128524
0.128042
0.127548
0.127072
0.126628
0.126189
0.125757
0.125332
0.12491
0.124494
0.124085
0.123683
0.123288
0.122901
0.122522
0.12215
0.12178
0.121414
0.121052
0.12069
0.120329
0.11997
0.119613
0.134668
0.134673
0.134625
0.134526
0.134386
0.13421
0.134003
0.133771
0.133516
0.133242
0.132944
0.13263
0.132299
0.131957
0.131603
0.131239
0.130863
0.130477
0.130083
0.12968
0.12927
0.128873
0.128501
0.128136
0.127777
0.127423
0.127075
0.126733
0.126398
0.126069
0.125747
0.125432
0.125123
0.124822
0.124526
0.124236
0.12395
0.123667
0.123384
0.123104
0.122828
0.135383
0.135388
0.135345
0.135258
0.135133
0.134978
0.134795
0.134589
0.134364
0.134122
0.133864
0.133589
0.133303
0.133006
0.1327
0.132386
0.132066
0.131739
0.131404
0.131062
0.130717
0.130384
0.130074
0.129768
0.129467
0.129173
0.128883
0.1286
0.128323
0.128052
0.127788
0.12753
0.127279
0.127034
0.126794
0.12656
0.126331
0.126107
0.125886
0.125667
0.125454
0.136005
0.136009
0.135971
0.135894
0.135784
0.135645
0.135483
0.1353
0.135101
0.134887
0.134658
0.134419
0.134168
0.133911
0.133647
0.133377
0.1331
0.132818
0.132533
0.132244
0.131951
0.131669
0.131405
0.131148
0.130896
0.130648
0.130406
0.13017
0.12994
0.129716
0.129498
0.129286
0.12908
0.12888
0.128685
0.128495
0.12831
0.128129
0.127953
0.12778
0.127614
0.136549
0.136553
0.13652
0.136452
0.136353
0.13623
0.136085
0.135922
0.135745
0.135554
0.135352
0.13514
0.134921
0.134697
0.134467
0.134232
0.133992
0.133751
0.133505
0.133257
0.133008
0.132769
0.132545
0.132326
0.132112
0.131903
0.1317
0.131502
0.131309
0.131123
0.130942
0.130767
0.130597
0.130433
0.130273
0.130119
0.129969
0.129823
0.129681
0.129542
0.129411
0.137027
0.137032
0.137003
0.136942
0.136854
0.136744
0.136615
0.136469
0.136311
0.136141
0.135961
0.135773
0.135579
0.135381
0.135179
0.134974
0.134767
0.134556
0.134345
0.134133
0.13392
0.133715
0.133523
0.133336
0.133154
0.132976
0.132804
0.132637
0.132476
0.13232
0.132169
0.132024
0.131884
0.131748
0.131617
0.131491
0.131369
0.13125
0.131135
0.131024
0.13092
0.13745
0.137456
0.13743
0.137376
0.137298
0.137199
0.137083
0.136953
0.136811
0.136659
0.136499
0.136331
0.136159
0.135984
0.135805
0.135624
0.135442
0.13526
0.135077
0.134894
0.134711
0.134535
0.134369
0.134209
0.134053
0.133902
0.133755
0.133614
0.133478
0.133347
0.133221
0.133099
0.132983
0.132871
0.132763
0.132659
0.132559
0.132463
0.132369
0.13228
0.132196
0.137826
0.137832
0.13781
0.137762
0.137692
0.137603
0.137499
0.137382
0.137255
0.13712
0.136976
0.136827
0.136674
0.136518
0.13636
0.1362
0.13604
0.13588
0.13572
0.135561
0.135404
0.135252
0.135109
0.13497
0.134836
0.134706
0.134582
0.134461
0.134346
0.134235
0.134129
0.134027
0.13393
0.133837
0.133747
0.133661
0.133579
0.133501
0.133425
0.133352
0.133285
0.138161
0.138168
0.138149
0.138106
0.138043
0.137964
0.13787
0.137766
0.137652
0.137531
0.137403
0.13727
0.137133
0.136995
0.136854
0.136713
0.136571
0.13643
0.13629
0.136151
0.136014
0.135882
0.135758
0.135638
0.135522
0.135411
0.135304
0.135201
0.135103
0.135009
0.134919
0.134834
0.134752
0.134674
0.1346
0.134529
0.134461
0.134397
0.134335
0.134276
0.134222
0.13846
0.138468
0.138452
0.138414
0.138357
0.138286
0.138203
0.13811
0.138008
0.1379
0.137786
0.137667
0.137546
0.137422
0.137297
0.137172
0.137047
0.136922
0.136799
0.136677
0.136558
0.136443
0.136334
0.13623
0.13613
0.136034
0.135942
0.135854
0.13577
0.13569
0.135614
0.135541
0.135473
0.135408
0.135346
0.135287
0.135231
0.135178
0.135128
0.13508
0.135037
0.138729
0.138737
0.138723
0.138689
0.13864
0.138577
0.138503
0.13842
0.13833
0.138234
0.138132
0.138027
0.137918
0.137809
0.137698
0.137587
0.137476
0.137366
0.137257
0.13715
0.137046
0.136945
0.136851
0.13676
0.136673
0.13659
0.13651
0.136435
0.136363
0.136294
0.13623
0.136169
0.136111
0.136056
0.136004
0.135955
0.135909
0.135866
0.135824
0.135785
0.135751
0.13897
0.138979
0.138967
0.138938
0.138894
0.138839
0.138775
0.138702
0.138623
0.138537
0.138448
0.138354
0.138258
0.138161
0.138062
0.137964
0.137866
0.137769
0.137673
0.137579
0.137488
0.1374
0.137317
0.137238
0.137162
0.13709
0.137021
0.136956
0.136894
0.136836
0.136781
0.136729
0.13668
0.136634
0.13659
0.13655
0.136512
0.136476
0.136442
0.13641
0.136383
0.139187
0.139196
0.139187
0.139162
0.139125
0.139078
0.139023
0.13896
0.138891
0.138816
0.138737
0.138655
0.13857
0.138484
0.138397
0.13831
0.138223
0.138137
0.138053
0.137971
0.137891
0.137814
0.137741
0.137672
0.137606
0.137544
0.137484
0.137428
0.137375
0.137325
0.137278
0.137234
0.137192
0.137154
0.137117
0.137084
0.137052
0.137023
0.136995
0.136969
0.136948
0.139383
0.139392
0.139385
0.139365
0.139335
0.139297
0.139251
0.139198
0.139139
0.139075
0.139007
0.138935
0.138861
0.138785
0.138708
0.138631
0.138555
0.13848
0.138406
0.138333
0.138264
0.138197
0.138133
0.138073
0.138015
0.137961
0.137909
0.137861
0.137815
0.137772
0.137732
0.137695
0.13766
0.137628
0.137598
0.13757
0.137544
0.13752
0.137498
0.137479
0.137466
0.139559
0.139568
0.139564
0.13955
0.139528
0.139499
0.139463
0.13942
0.139372
0.139318
0.139261
0.139199
0.139136
0.13907
0.139004
0.138937
0.13887
0.138805
0.13874
0.138677
0.138616
0.138558
0.138503
0.13845
0.1384
0.138353
0.138309
0.138267
0.138228
0.138192
0.138158
0.138127
0.138099
0.138074
0.138051
0.138031
0.138015
0.138001
0.13799
0.137982
0.137982
0.139716
0.139725
0.139725
0.139718
0.139705
0.139685
0.139659
0.139627
0.139591
0.139549
0.139504
0.139455
0.139403
0.13935
0.139295
0.139239
0.139183
0.139128
0.139073
0.139019
0.138968
0.138919
0.138872
0.138829
0.138787
0.138749
0.138713
0.138681
0.138652
0.138627
0.138605
0.138586
0.138571
0.138559
0.13855
0.138545
0.138542
0.138541
0.138542
0.138546
0.138554
0.139851
0.13986
0.139863
0.139863
0.139858
0.139847
0.139832
0.139812
0.139789
0.139762
0.139732
0.1397
0.139665
0.139628
0.13959
0.139552
0.139513
0.139474
0.139436
0.1394
0.139366
0.139334
0.139304
0.139276
0.139251
0.139227
0.139206
0.139188
0.139173
0.13916
0.139149
0.139141
0.139135
0.139132
0.13913
0.13913
0.139132
0.139135
0.139139
0.139145
0.139155
0.139949
0.139955
0.139959
0.13996
0.139957
0.139952
0.139945
0.139936
0.139925
0.139912
0.139897
0.139881
0.139864
0.139845
0.139826
0.139806
0.139786
0.139766
0.139746
0.139727
0.139709
0.139691
0.139674
0.139659
0.139645
0.139631
0.139619
0.139609
0.1396
0.139592
0.139586
0.139582
0.139578
0.139576
0.139575
0.139576
0.139577
0.139579
0.139582
0.139586
0.139592
0.139997
0.140002
0.140005
0.140006
0.140006
0.140004
0.140002
0.139998
0.139993
0.139988
0.139981
0.139974
0.139966
0.139957
0.139948
0.139939
0.139929
0.139919
0.13991
0.1399
0.139892
0.139883
0.139875
0.139867
0.139861
0.139854
0.139848
0.139843
0.139839
0.139835
0.139833
0.13983
0.139829
0.139828
0.139828
0.139829
0.13983
0.139832
0.139834
0.139836
0.13984
0.140022
0.140026
0.140029
0.140031
0.140032
0.140033
0.140033
0.140032
0.140031
0.14003
0.140028
0.140025
0.140022
0.140019
0.140015
0.140011
0.140007
0.140003
0.139999
0.139995
0.139991
0.139988
0.139984
0.139981
0.139978
0.139976
0.139973
0.139971
0.13997
0.139969
0.139968
0.139968
0.139967
0.139968
0.139969
0.13997
0.139971
0.139973
0.139975
0.139977
0.13998
0.140034
0.140038
0.14004
0.140042
0.140044
0.140046
0.140048
0.140049
0.14005
0.140051
0.140052
0.140052
0.140052
0.140052
0.140052
0.140051
0.140051
0.14005
0.140049
0.140049
0.140048
0.140048
0.140047
0.140046
0.140046
0.140046
0.140046
0.140046
0.140046
0.140046
0.140047
0.140048
0.140049
0.14005
0.140051
0.140053
0.140055
0.140057
0.140059
0.140061
0.140064
0.140037
0.14004
0.140042
0.140044
0.140047
0.140049
0.140052
0.140054
0.140057
0.140059
0.140061
0.140063
0.140064
0.140066
0.140068
0.140069
0.140071
0.140072
0.140074
0.140075
0.140077
0.140078
0.140079
0.140081
0.140082
0.140084
0.140085
0.140086
0.140088
0.140089
0.140091
0.140093
0.140094
0.140096
0.140098
0.1401
0.140102
0.140104
0.140106
0.140109
0.140111
0.140033
0.140035
0.140037
0.140039
0.140042
0.140044
0.140047
0.140049
0.140052
0.140054
0.140056
0.140059
0.140061
0.140063
0.140065
0.140068
0.14007
0.140073
0.140075
0.140078
0.140081
0.140083
0.140086
0.140089
0.140091
0.140094
0.140096
0.140099
0.140101
0.140104
0.140106
0.140109
0.140111
0.140113
0.140116
0.140118
0.14012
0.140123
0.140125
0.140128
0.14013
0.140023
0.140025
0.140026
0.140028
0.140029
0.140031
0.140033
0.140035
0.140037
0.140039
0.14004
0.140042
0.140042
0.140043
0.140043
0.140044
0.140044
0.140043
0.140044
0.140045
0.140047
0.140049
0.140052
0.140055
0.140059
0.140062
0.140066
0.14007
0.140074
0.140078
0.140081
0.140085
0.140089
0.140092
0.140096
0.140099
0.140103
0.140106
0.140109
0.140112
0.140115
0.140009
0.140009
0.14001
0.14001
0.140011
0.140012
0.140013
0.140013
0.140014
0.140014
0.140015
0.140014
0.140013
0.140011
0.140007
0.140001
0.139982
0.13996
0.139937
0.139919
0.139905
0.139893
0.139884
0.139877
0.139872
0.139869
0.139868
0.139868
0.139869
0.139871
0.139874
0.139877
0.139881
0.139885
0.13989
0.139894
0.139899
0.139904
0.13991
0.139915
0.139921
0.00287573
0.00358118
0.00424766
0.0054784
0.0072144
0.00925842
0.0115013
0.0138817
0.0163717
0.0189431
0.0216
0.0243351
0.0271348
0.0299894
0.0328922
0.0358361
0.0388053
0.0417932
0.0448471
0.0481645
0.0520541
0.056645
0.0616724
0.0666646
0.0712751
0.0753934
0.0790599
0.0823624
0.0853828
0.0881805
0.0907887
0.0932291
0.0955235
0.0976948
0.0997597
0.101729
0.103613
0.105417
0.107145
0.108802
0.110392
0.111919
0.113384
0.114791
0.11614
0.117433
0.118671
0.119855
0.120986
0.122065
0.123093
0.124072
0.125002
0.125885
0.126722
0.127517
0.12827
0.128983
0.12966
0.1303
0.130907
0.131483
0.132029
0.132548
0.133041
0.133509
0.133956
0.134381
0.134787
0.135175
0.135544
0.135907
0.136206
0.136712
0.00606932
0.00648158
0.00610323
0.00615221
0.00704821
0.00863976
0.0106523
0.0129064
0.0153183
0.0178394
0.0204592
0.023167
0.0259438
0.0287865
0.0316844
0.0346261
0.037598
0.0405921
0.0436562
0.0469985
0.0509581
0.0556851
0.0608999
0.0660916
0.0708804
0.0751427
0.0789203
0.0823078
0.0853917
0.0882364
0.0908805
0.0933485
0.0956605
0.0978382
0.0999004
0.101861
0.103732
0.10552
0.107233
0.108875
0.11045
0.111963
0.113417
0.114812
0.116152
0.117437
0.118669
0.119847
0.120974
0.12205
0.123075
0.124052
0.124981
0.125863
0.1267
0.127494
0.128246
0.128959
0.129634
0.130273
0.130878
0.131451
0.131995
0.13251
0.132999
0.133464
0.133906
0.134328
0.134729
0.135113
0.135478
0.135837
0.136133
0.136634
0.00928998
0.0101604
0.00955352
0.00865188
0.008283
0.00880927
0.010149
0.0120325
0.0142395
0.0166416
0.0191843
0.0218406
0.0245849
0.027406
0.0302919
0.0332254
0.0361979
0.039198
0.0422639
0.0456058
0.0495854
0.0543909
0.0597575
0.065149
0.0701438
0.0745899
0.0785192
0.0820292
0.0852089
0.0881265
0.0908253
0.0933386
0.0956849
0.0978835
0.0999557
0.101918
0.103786
0.105567
0.107271
0.108904
0.11047
0.111974
0.113418
0.114806
0.11614
0.117419
0.118646
0.119821
0.120945
0.122019
0.123043
0.124019
0.124948
0.12583
0.126668
0.127462
0.128215
0.128928
0.129603
0.130241
0.130846
0.131417
0.131959
0.132472
0.132958
0.13342
0.133859
0.134276
0.134674
0.135054
0.135415
0.13577
0.136063
0.136558
0.0115539
0.0133536
0.0133706
0.0124319
0.0113196
0.0106573
0.010805
0.0117956
0.0134414
0.0155154
0.0178619
0.0203957
0.023064
0.0258368
0.0286943
0.031615
0.034585
0.0375887
0.0406496
0.0439651
0.0479101
0.0527196
0.0581826
0.0637628
0.0689887
0.0736635
0.0777977
0.0814788
0.0847932
0.0878144
0.090592
0.0931662
0.0955665
0.0978049
0.0999033
0.101882
0.103758
0.105543
0.107247
0.108877
0.11044
0.11194
0.113381
0.114765
0.116095
0.117372
0.118597
0.11977
0.120894
0.121967
0.122992
0.123969
0.1249
0.125784
0.126623
0.12742
0.128174
0.128888
0.129564
0.130204
0.130808
0.131379
0.13192
0.132432
0.132916
0.133376
0.133812
0.134226
0.13462
0.134997
0.135354
0.135705
0.135995
0.136485
0.013024
0.0157028
0.016647
0.0163231
0.0153173
0.0141532
0.0132958
0.0130867
0.0136633
0.0149561
0.0167926
0.0190065
0.0214761
0.0241245
0.0269052
0.0297829
0.0327328
0.0357315
0.0387849
0.0420574
0.0459135
0.0506428
0.056128
0.0618654
0.0673366
0.0722861
0.0766809
0.0805875
0.0840845
0.0872485
0.0901359
0.0927961
0.0952668
0.0975688
0.0997145
0.101728
0.103627
0.105429
0.107144
0.108781
0.110349
0.111851
0.113294
0.11468
0.11601
0.117288
0.118514
0.119689
0.120814
0.12189
0.122918
0.123898
0.124832
0.125719
0.126563
0.127362
0.12812
0.128837
0.129516
0.130157
0.130763
0.131335
0.131876
0.132388
0.132871
0.133329
0.133764
0.134176
0.134567
0.134941
0.135294
0.135642
0.135929
0.136414
0.0144497
0.0172295
0.0190079
0.0194854
0.019112
0.0182169
0.0171288
0.0161839
0.0156859
0.0158366
0.0166892
0.0181689
0.0201384
0.0224611
0.025034
0.0277835
0.0306589
0.0336196
0.0366474
0.0398561
0.0435733
0.0481399
0.0535568
0.0593915
0.0650983
0.0703588
0.0750712
0.079258
0.0829918
0.0863519
0.0893991
0.0921789
0.0947455
0.0971324
0.0993515
0.101422
0.103365
0.1052
0.10694
0.108596
0.110178
0.111693
0.113144
0.114537
0.115874
0.117158
0.118389
0.119569
0.1207
0.121781
0.122814
0.1238
0.124739
0.125633
0.126481
0.127287
0.128049
0.128771
0.129454
0.130099
0.130708
0.131283
0.131826
0.132338
0.132822
0.13328
0.133713
0.134124
0.134514
0.134885
0.135236
0.135581
0.135864
0.136344
0.0175281
0.0183713
0.0205316
0.021555
0.0219185
0.0216975
0.0210457
0.0201516
0.0192446
0.0185744
0.0183625
0.018751
0.0197743
0.0213713
0.0234311
0.0258374
0.0284929
0.0313205
0.034265
0.037373
0.0409007
0.0452108
0.0504364
0.0562708
0.062181
0.0677638
0.0728339
0.077363
0.0814011
0.0850215
0.0882877
0.0912488
0.0939493
0.0964455
0.0987652
0.100921
0.102934
0.104823
0.106607
0.108298
0.109908
0.111445
0.112915
0.114324
0.115674
0.116969
0.118211
0.119402
0.120542
0.121632
0.122675
0.123669
0.124617
0.125518
0.126375
0.127188
0.127958
0.128687
0.129376
0.130027
0.130641
0.13122
0.131766
0.132281
0.132767
0.133226
0.133659
0.13407
0.134459
0.134828
0.135177
0.135519
0.135801
0.136276
0.0193555
0.0207928
0.0219957
0.0227487
0.0235445
0.023939
0.0239757
0.0236524
0.0230512
0.0223185
0.0216352
0.0211995
0.0211916
0.0217316
0.0228551
0.0245195
0.0266347
0.0290946
0.0317979
0.0347091
0.037975
0.0419232
0.0468012
0.052476
0.0584859
0.0643626
0.0698197
0.074753
0.0791704
0.0831276
0.0866851
0.0898945
0.0928014
0.0954556
0.0978979
0.100169
0.102282
0.104255
0.106107
0.107854
0.109509
0.111083
0.112584
0.114019
0.115393
0.116708
0.117968
0.119175
0.12033
0.121434
0.12249
0.123497
0.124457
0.12537
0.126238
0.127062
0.127842
0.12858
0.129278
0.129936
0.130557
0.131143
0.131694
0.132214
0.132703
0.133164
0.1336
0.134011
0.1344
0.134769
0.135117
0.135458
0.135738
0.136209
0.0199858
0.0217893
0.0232602
0.0242377
0.0247938
0.0251319
0.0256112
0.0258606
0.0258543
0.0256154
0.0251803
0.0246524
0.0241827
0.0239402
0.0240811
0.0247168
0.025892
0.027583
0.0297103
0.0321875
0.0350367
0.0384791
0.0428101
0.0480869
0.0539952
0.060056
0.0658798
0.0712573
0.0761262
0.0805049
0.0844397
0.0879792
0.0911696
0.0940576
0.0966911
0.0991028
0.101344
0.103437
0.10539
0.107218
0.108942
0.110573
0.112123
0.113599
0.115008
0.116354
0.117641
0.118872
0.120049
0.121174
0.122249
0.123274
0.124251
0.12518
0.126063
0.126901
0.127695
0.128446
0.129155
0.129824
0.130455
0.131048
0.131607
0.132133
0.132628
0.133094
0.133532
0.133946
0.134337
0.134706
0.135054
0.135394
0.135674
0.136141
0.0200306
0.0216921
0.0233566
0.024836
0.0259744
0.026699
0.0270983
0.0271653
0.0273989
0.0276497
0.0277091
0.0275939
0.0273494
0.0270424
0.0267825
0.0267105
0.0269678
0.0276648
0.0288537
0.0305225
0.0326551
0.0353536
0.0388705
0.0434087
0.0488685
0.054857
0.0609171
0.0667137
0.0720761
0.0769542
0.0813593
0.0853251
0.0888923
0.0921042
0.0950099
0.0976483
0.100069
0.102296
0.104387
0.10633
0.108155
0.10987
0.111491
0.113028
0.114489
0.11588
0.117207
0.118474
0.119683
0.120837
0.121938
0.122988
0.123988
0.124938
0.125842
0.126698
0.12751
0.128277
0.129001
0.129684
0.130328
0.130933
0.131502
0.132037
0.132539
0.133011
0.133455
0.133873
0.134267
0.134639
0.134988
0.135328
0.135608
0.136074
0.0204431
0.0216348
0.0229861
0.0244382
0.0258933
0.0272121
0.0282704
0.0289557
0.0293366
0.0294869
0.0293372
0.0294171
0.0295525
0.0295934
0.0295295
0.0294196
0.0293517
0.0294373
0.0297971
0.0305302
0.0317001
0.0333883
0.035785
0.0391592
0.0436465
0.0490723
0.0550221
0.0610566
0.0668612
0.0722698
0.0772217
0.0817118
0.0857614
0.0894037
0.0926826
0.0956403
0.0983251
0.100772
0.103029
0.10511
0.107077
0.108909
0.110633
0.112258
0.113794
0.115251
0.116635
0.117952
0.119206
0.120401
0.121539
0.122622
0.123652
0.124632
0.125562
0.126443
0.127277
0.128066
0.12881
0.129511
0.130171
0.130791
0.131373
0.13192
0.132433
0.132914
0.133365
0.13379
0.134188
0.134564
0.134916
0.135258
0.135539
0.136004
0.0222417
0.0229893
0.0238646
0.0248459
0.025933
0.0271148
0.0283434
0.029524
0.0305483
0.031327
0.0317695
0.0319542
0.0319474
0.0317414
0.0316429
0.0316664
0.0317136
0.0317548
0.0318428
0.032063
0.0325052
0.0332659
0.034496
0.0364527
0.0394361
0.0435891
0.048753
0.0545344
0.0605019
0.0663294
0.071826
0.0769025
0.0815308
0.0857163
0.0894859
0.092876
0.0959316
0.0986934
0.101208
0.103506
0.105634
0.107605
0.109477
0.111222
0.112865
0.114414
0.115879
0.117268
0.118585
0.119836
0.121024
0.122153
0.123225
0.124243
0.125208
0.126121
0.126985
0.127802
0.128571
0.129296
0.129977
0.130616
0.131216
0.131778
0.132305
0.132798
0.13326
0.133693
0.134099
0.13448
0.134837
0.135183
0.135466
0.135933
0.0263745
0.0267699
0.0272574
0.027795
0.0283814
0.0290308
0.0297619
0.0305845
0.0314849
0.032418
0.0333047
0.0340567
0.0346025
0.0348771
0.0349092
0.0347591
0.0344519
0.034159
0.0340619
0.0341138
0.0342698
0.0345593
0.035057
0.0359138
0.0373947
0.0398218
0.0434009
0.0480698
0.0535138
0.0593231
0.0651434
0.0707366
0.075969
0.0807791
0.0851514
0.0890986
0.0926515
0.0958481
0.0987324
0.101344
0.103729
0.105915
0.10795
0.109832
0.111626
0.113302
0.114879
0.116367
0.117772
0.119101
0.120359
0.12155
0.122679
0.123748
0.124759
0.125715
0.126619
0.127471
0.128273
0.129028
0.129736
0.130401
0.131023
0.131606
0.13215
0.132659
0.133134
0.133579
0.133995
0.134385
0.134749
0.1351
0.135387
0.135857
0.0331925
0.0333055
0.0334895
0.033692
0.0339013
0.0341184
0.0343526
0.0346207
0.0349445
0.0353446
0.0358313
0.0363929
0.0369931
0.0375706
0.0380506
0.0383664
0.0384599
0.0383208
0.0380038
0.0375691
0.0370398
0.0367813
0.036785
0.037018
0.037543
0.0385626
0.0403736
0.0432344
0.0472108
0.0521219
0.0576234
0.0633483
0.0690033
0.0743955
0.0794168
0.0840193
0.0881956
0.0919623
0.0953519
0.0984028
0.10116
0.10366
0.10595
0.10805
0.11001
0.111821
0.113554
0.115175
0.116701
0.118137
0.119491
0.120769
0.121974
0.123112
0.124186
0.125199
0.126154
0.127054
0.127899
0.128693
0.129437
0.130134
0.130785
0.131394
0.131961
0.132491
0.132984
0.133444
0.133874
0.134275
0.134648
0.135007
0.1353
0.135777
0.0422726
0.0421729
0.0421271
0.0420852
0.0420339
0.0419687
0.0418888
0.0417966
0.0416992
0.0416098
0.0415472
0.0415338
0.0415896
0.0417261
0.0419374
0.0421968
0.0424565
0.0426524
0.0427189
0.0426049
0.0422625
0.0417438
0.0411233
0.0404455
0.0399422
0.0398237
0.0402033
0.0412684
0.0432653
0.0463579
0.0505148
0.0555039
0.0609843
0.0666186
0.0721441
0.0773892
0.0822591
0.0867141
0.0907511
0.0943894
0.097663
0.100611
0.103277
0.105696
0.107913
0.109946
0.111847
0.113603
0.115288
0.116868
0.118352
0.119747
0.121057
0.122289
0.123448
0.124537
0.125562
0.126524
0.127426
0.128271
0.129062
0.129801
0.13049
0.131132
0.13173
0.132286
0.132803
0.133283
0.13373
0.134146
0.134532
0.134902
0.135204
0.135689
0.0528441
0.052598
0.0523915
0.052182
0.0519583
0.051716
0.0514517
0.051163
0.0508482
0.0505079
0.0501454
0.0497683
0.0493897
0.0490275
0.0487027
0.0484351
0.0482381
0.048112
0.0480386
0.0479814
0.0478856
0.0476872
0.0473348
0.046785
0.0460485
0.0451951
0.0443253
0.0435756
0.0434493
0.0442056
0.0460434
0.0490569
0.0531645
0.0581093
0.0635416
0.0691212
0.0745837