/*--------------------------------*- C++ -*----------------------------------*\
| =========                 |                                                 |
| \\      /  F ield         | OpenFOAM: The Open Source CFD Toolbox           |
|  \\    /   O peration     | Version:  5.x                                   |
|   \\  /    A nd           | Web:      www.OpenFOAM.org                      |
|    \\/     M anipulation  |                                                 |
\*---------------------------------------------------------------------------*/
FoamFile
{
    version     2.0;
    format      ascii;
    class       volScalarField;
    location    "150";
    object      nuTilda;
}
// * * * * * * * * * * * * * * * * * * * * * * * * * * * * * * * * * * * * * //

dimensions      [0 2 -1 0 0 0 0];

internalField   nonuniform List<scalar> 
41860
(
3.50362e-05
4.15491e-05
5.63145e-05
5.87016e-05
5.28282e-05
4.81661e-05
4.25268e-05
3.79284e-05
3.42503e-05
3.12914e-05
2.88757e-05
2.77917e-05
2.63622e-05
2.60848e-05
2.47701e-05
2.44664e-05
2.36555e-05
2.31206e-05
2.27817e-05
2.15379e-05
2.14041e-05
3.08431e-05
2.09249e-05
3.10077e-05
2.06862e-05
2.96756e-05
2.90388e-05
2.09161e-05
2.86479e-05
2.83606e-05
3.78825e-05
1.94702e-05
1.94191e-05
3.79395e-05
1.94509e-05
3.76188e-05
1.95654e-05
1.96124e-05
2.08384e-05
2.84463e-05
2.03337e-05
2.07056e-05
2.75378e-05
2.72934e-05
2.05801e-05
3.87278e-05
2.72817e-05
2.70098e-05
2.69299e-05
3.8894e-05
3.90389e-05
3.90041e-05
3.90485e-05
2.67522e-05
2.64991e-05
2.08633e-05
2.09442e-05
3.87425e-05
2.10194e-05
3.87008e-05
2.65973e-05
3.86098e-05
1.95561e-05
3.84535e-05
1.9691e-05
2.6951e-05
2.12534e-05
2.12933e-05
2.69711e-05
3.72251e-05
2.13173e-05
2.7352e-05
2.76503e-05
2.01727e-05
2.12368e-05
2.78334e-05
2.11062e-05
2.10529e-05
2.09398e-05
3.40963e-05
2.09155e-05
1.6935e-05
0.000177152
0.000212917
0.000293818
0.000307348
0.000276117
0.000251258
0.000221084
0.000196459
0.00017676
0.000160914
0.00014795
0.000142076
0.000134378
0.000132833
0.000125759
0.000124083
0.000119521
0.000116038
0.000113687
0.0001076
0.0001062
0.000106825
0.000100688
0.000104056
9.71583e-05
0.000101683
9.99857e-05
9.40256e-05
9.87422e-05
9.84306e-05
0.000100297
9.48758e-05
9.49806e-05
0.000100058
9.52134e-05
0.000100521
9.60385e-05
9.65262e-05
9.51786e-05
0.000101353
9.93219e-05
0.000100321
9.41263e-05
9.40538e-05
8.87797e-05
9.72619e-05
9.4172e-05
9.41378e-05
9.42492e-05
9.77696e-05
9.80103e-05
9.82117e-05
9.84676e-05
9.52463e-05
9.54645e-05
9.05857e-05
9.09177e-05
9.98531e-05
9.16795e-05
0.000100563
9.76925e-05
0.000101332
9.66503e-05
0.000102081
9.73742e-05
9.96465e-05
9.48755e-05
9.53463e-05
0.000100532
0.000104123
9.63204e-05
0.000101587
0.000102174
9.97279e-05
9.71799e-05
0.000102287
9.75758e-05
9.7221e-05
9.68687e-05
0.000102667
9.74002e-05
2.04616e-05
0.00022452
0.000264997
0.000372799
0.000392166
0.000352144
0.000319635
0.000280159
0.000247872
0.000222077
0.000201532
0.00018535
0.000178603
0.000171879
0.000171071
0.000168786
0.000168587
0.000168646
0.000168794
0.00016879
0.000168567
0.000167925
0.000170848
0.000167437
0.000170246
0.000166622
0.00016916
0.000168994
0.000164121
0.000167249
0.000166215
0.000164837
0.000161586
0.000160698
0.000162137
0.000159116
0.000160605
0.000157888
0.000157477
0.000156284
0.00015911
0.000156939
0.000157059
0.00015791
0.000157707
0.000154024
0.000157065
0.000157147
0.000157021
0.000156909
0.00015665
0.000156617
0.00015664
0.000156687
0.000156935
0.000157036
0.000153844
0.000154011
0.000157421
0.000154496
0.000157914
0.000158332
0.000158517
0.000157098
0.000159109
0.000157674
0.000159738
0.000156901
0.000157222
0.000160409
0.000160826
0.000157909
0.000160978
0.000161215
0.000159355
0.000158177
0.000160842
0.000157951
0.000157314
0.000156719
0.000157636
0.000157037
2.47024e-05
0.000309957
0.000354229
0.000453901
0.000486787
0.000459388
0.000413974
0.000374739
0.000344005
0.000318858
0.000297926
0.000284207
0.000277836
0.000281091
0.000278674
0.000284002
0.00028184
0.000282976
0.000282157
0.000280468
0.000279752
0.0002769
0.000277207
0.000273297
0.000272769
0.000269245
0.000268242
0.000266673
0.000262261
0.000261974
0.000259521
0.000256832
0.000253427
0.000251226
0.00025055
0.0002474
0.000246889
0.000244154
0.000242868
0.000241653
0.000241954
0.000239956
0.000239537
0.000239856
0.000239022
0.000236818
0.000237249
0.000237247
0.000236821
0.000236382
0.000235496
0.000235182
0.000234986
0.000234806
0.000235277
0.00023522
0.000233767
0.000233818
0.000234853
0.000234092
0.000235188
0.000235939
0.0002357
0.000235231
0.000236222
0.000235749
0.000237163
0.00023606
0.000236328
0.000237706
0.000237686
0.000236769
0.000238018
0.000238131
0.000236837
0.000236397
0.000237158
0.000235555
0.000234467
0.00023348
0.00023155
0.000233506
2.98028e-05
0.000434322
0.000525781
0.000672341
0.000720255
0.00071345
0.000647248
0.000600399
0.000559249
0.000521472
0.000487272
0.000461438
0.000444381
0.00044398
0.000435552
0.00043894
0.000432116
0.000430322
0.00042597
0.000421046
0.000417663
0.000411738
0.000408751
0.000402986
0.00039907
0.000394248
0.000389933
0.000386355
0.000380959
0.000377825
0.000373579
0.000369522
0.000365337
0.000361558
0.000358859
0.000354979
0.000352658
0.000349323
0.000347021
0.000344853
0.000343473
0.000341279
0.0003402
0.000339178
0.000337361
0.000335493
0.000334701
0.00033392
0.000333066
0.000332181
0.000331185
0.000330507
0.000330011
0.000329526
0.000329529
0.000329227
0.000328519
0.000328377
0.000328551
0.000328348
0.000328626
0.000329076
0.000328957
0.000328887
0.000329333
0.000329253
0.000329953
0.000329616
0.000329805
0.000330234
0.000330247
0.000329898
0.000330169
0.000330137
0.000329202
0.000328707
0.000328348
0.000327153
0.000325494
0.000324022
0.000320267
0.000323706
3.59286e-05
0.000602775
0.000761104
0.0010385
0.00111527
0.00110475
0.00100005
0.000921962
0.000852882
0.000790125
0.000733756
0.000688868
0.000656653
0.000647443
0.000630999
0.000629213
0.000616252
0.000609762
0.000600418
0.00059118
0.000583642
0.000573793
0.000566963
0.0005581
0.00055068
0.000543306
0.000535797
0.000529651
0.000522184
0.000516406
0.000510002
0.000504072
0.00049843
0.000492784
0.00048814
0.000482956
0.000478936
0.0004745
0.000471026
0.000467604
0.000464964
0.000462109
0.000460326
0.000457526
0.000454356
0.000451994
0.000450353
0.000448744
0.000447345
0.000445898
0.000444617
0.000443479
0.000442598
0.000441722
0.000441249
0.000440621
0.000440009
0.000439604
0.000439385
0.000439159
0.000439089
0.000439238
0.000439143
0.00043917
0.000439289
0.000439297
0.000439537
0.000439369
0.000439435
0.000439385
0.000439357
0.000439021
0.000438756
0.000438523
0.000437563
0.000436734
0.00043564
0.000434298
0.000431942
0.000429855
0.000424634
0.000429102
4.32753e-05
0.000844555
0.00105438
0.00150524
0.00162072
0.00158672
0.00143355
0.00131273
0.00120807
0.00111492
0.00103215
0.000964523
0.000913934
0.000892434
0.00086601
0.000856796
0.000836281
0.000823674
0.000808086
0.000793517
0.000780657
0.000766015
0.000754691
0.000741765
0.000730424
0.000719588
0.000708626
0.00069936
0.000689081
0.000680462
0.000671481
0.000663213
0.000655534
0.000647674
0.000640994
0.000633999
0.000628223
0.000622247
0.000617399
0.000612556
0.000608701
0.000604838
0.000602303
0.000597352
0.000592407
0.000589044
0.000586536
0.000584022
0.000581943
0.000579799
0.000578041
0.000576326
0.000574958
0.000573587
0.000572628
0.000571583
0.000570758
0.000570008
0.000569473
0.000569003
0.000568668
0.00056852
0.00056832
0.000568249
0.000568125
0.000568026
0.000567947
0.000567673
0.000567555
0.000567158
0.000566971
0.000566422
0.000565731
0.000565217
0.00056396
0.000562681
0.000560918
0.000559136
0.00055595
0.000553081
0.000546502
0.000551774
5.20716e-05
0.00118778
0.00141215
0.00205822
0.00221875
0.00215108
0.00194245
0.0017722
0.00162721
0.00150003
0.00138771
0.00129423
0.0012218
0.00118451
0.00114573
0.00112695
0.00109727
0.00107709
0.00105393
0.00103291
0.00101358
0.000993164
0.000976514
0.000958609
0.000942687
0.000927586
0.000912631
0.000899634
0.000885896
0.00087399
0.000861949
0.000850848
0.000840621
0.000830134
0.000821134
0.000811876
0.000804107
0.0007962
0.000789713
0.000783228
0.000778011
0.000772857
0.000769472
0.000762026
0.00075483
0.000750038
0.000746475
0.00074291
0.000739984
0.000736985
0.00073456
0.00073213
0.000730151
0.000728161
0.000726645
0.000725073
0.000723855
0.000722659
0.000721749
0.000720907
0.000720256
0.000719766
0.000719346
0.000719046
0.000718666
0.000718332
0.000717948
0.000717418
0.000717036
0.000716273
0.000715808
0.000714918
0.000713763
0.000712868
0.000711127
0.000709291
0.000706782
0.000704362
0.000700206
0.00069635
0.00068848
0.000694348
6.2582e-05
0.00164096
0.00184959
0.00270264
0.00291374
0.00280507
0.0025342
0.0023087
0.00211917
0.00195456
0.00180968
0.00168726
0.00158921
0.00153211
0.00147802
0.00144724
0.00140644
0.00137698
0.00134475
0.00131591
0.00128885
0.00126148
0.00123847
0.00121459
0.00119321
0.00117299
0.0011533
0.00113585
0.00111795
0.00110215
0.00108646
0.00107195
0.00105865
0.00104504
0.00103328
0.00102129
0.00101115
0.00100091
0.000992439
0.000984007
0.000977171
0.000970428
0.000966031
0.0009558
0.000945814
0.000939127
0.00093422
0.000929387
0.000925404
0.000921354
0.000918061
0.000914748
0.000911999
0.000909237
0.000907045
0.000904808
0.000903041
0.000901274
0.000899872
0.00089854
0.000897466
0.000896546
0.000895787
0.000895145
0.000894439
0.000893761
0.000893013
0.000892107
0.000891358
0.000890149
0.000889276
0.000887932
0.000886212
0.000884809
0.00088243
0.000879906
0.000876516
0.000873277
0.000868002
0.000862912
0.000853881
0.000860051
7.511e-05
0.00222752
0.00239132
0.00345151
0.00371839
0.00356186
0.00322136
0.00293465
0.00269619
0.00249067
0.00231008
0.00215554
0.00202791
0.00194647
0.00187332
0.00182757
0.00177322
0.00173239
0.00168923
0.00165092
0.00161462
0.00157883
0.00154821
0.00151714
0.00148923
0.00146285
0.00143749
0.00141472
0.00139182
0.00137137
0.0013513
0.00133269
0.00131568
0.00129834
0.00128327
0.001268
0.00125499
0.00124192
0.00123104
0.00122026
0.00121146
0.00120277
0.00119713
0.00118387
0.00117051
0.00116137
0.00115472
0.00114833
0.00114302
0.00113768
0.00113328
0.00112888
0.00112516
0.00112144
0.0011184
0.00111533
0.00111284
0.00111034
0.0011083
0.00110633
0.00110469
0.00110322
0.00110198
0.00110087
0.00109973
0.00109859
0.00109738
0.00109597
0.00109473
0.00109295
0.00109153
0.0010896
0.00108718
0.00108512
0.00108195
0.00107858
0.00107414
0.00106989
0.00106335
0.00105672
0.00104679
0.00105284
8.9999e-05
0.00297987
0.0030707
0.00432275
0.00465003
0.00443828
0.00401987
0.00366546
0.00337337
0.0031232
0.00290359
0.00271367
0.00255255
0.00244182
0.00234507
0.00228061
0.00220966
0.00215478
0.00209841
0.00204849
0.00200112
0.0019551
0.00191527
0.00187553
0.00183971
0.00180593
0.00177371
0.00174455
0.0017156
0.00168954
0.0016642
0.00164064
0.00161915
0.00159735
0.00157824
0.00155902
0.0015425
0.00152603
0.00151218
0.00149855
0.0014873
0.00147624
0.00146902
0.00145255
0.00143517
0.0014229
0.00141402
0.00140568
0.00139871
0.00139176
0.00138596
0.00138021
0.00137527
0.00137036
0.00136625
0.00136213
0.00135871
0.0013553
0.00135241
0.00134963
0.00134725
0.00134505
0.00134317
0.00134144
0.00133972
0.00133798
0.00133616
0.0013341
0.00133222
0.00132974
0.00132759
0.00132493
0.00132165
0.00131875
0.00131463
0.00131024
0.00130457
0.00129908
0.00129113
0.00128261
0.00127218
0.00127758
0.00010763
0.00393872
0.00392282
0.00533865
0.00572988
0.00545441
0.00494877
0.0045195
0.00416868
0.00386991
0.00360777
0.00337916
0.00318089
0.00303588
0.00291021
0.00282241
0.002731
0.00265866
0.00258618
0.00252194
0.00246118
0.00240266
0.00235159
0.00230133
0.00225585
0.00221309
0.00217251
0.00213559
0.00209932
0.00206644
0.0020347
0.00200511
0.00197817
0.00195099
0.00192695
0.00190294
0.00188212
0.00186149
0.00184398
0.00182686
0.00181258
0.00179858
0.00178932
0.00176948
0.00174743
0.00173121
0.00171944
0.00170866
0.00169958
0.00169065
0.00168308
0.00167566
0.00166918
0.00166278
0.00165732
0.00165189
0.00164727
0.0016427
0.00163873
0.00163491
0.00163157
0.00162843
0.0016257
0.00162316
0.00162068
0.00161817
0.00161558
0.00161269
0.00160998
0.00160663
0.00160355
0.00159999
0.00159567
0.00159173
0.00158646
0.00158085
0.00157375
0.00156679
0.00155728
0.00154646
0.00153616
0.00154029
0.000128415
0.00515396
0.00498416
0.00652551
0.00698322
0.00663372
0.00603031
0.00551835
0.00510331
0.00475179
0.00444351
0.00417284
0.00393403
0.00375015
0.00358987
0.00347318
0.00335655
0.00326237
0.0031701
0.00308808
0.00301096
0.00293704
0.00287215
0.00280898
0.00275162
0.00269787
0.00264702
0.00260062
0.00255537
0.00251415
0.00247458
0.00243762
0.00240398
0.00237026
0.00234017
0.00231032
0.00228418
0.00225847
0.0022364
0.00221497
0.00219688
0.00217924
0.00216732
0.00214394
0.00211658
0.00209546
0.00207996
0.00206609
0.00205433
0.00204294
0.00203313
0.00202362
0.00201521
0.00200696
0.00199978
0.00199271
0.00198657
0.00198053
0.00197519
0.00197005
0.00196546
0.00196113
0.00195728
0.00195369
0.00195023
0.00194673
0.00194316
0.00193924
0.00193549
0.00193107
0.00192685
0.00192216
0.0019166
0.00191138
0.00190477
0.00189771
0.00188898
0.00188028
0.00186909
0.00185546
0.00184614
0.0018484
0.000152785
0.00668612
0.00630032
0.00791127
0.00843968
0.00800349
0.00729039
0.00668718
0.00620211
0.00579357
0.00543549
0.00511943
0.00483687
0.00461026
0.00440977
0.00425802
0.00411047
0.00398904
0.00387235
0.0037681
0.00367085
0.00357787
0.00349581
0.00341667
0.00334458
0.00327724
0.00321367
0.00315555
0.00309923
0.00304771
0.00299849
0.00295242
0.00291048
0.00286875
0.00283118
0.00279417
0.00276142
0.00272944
0.00270167
0.00267489
0.002652
0.00262982
0.0026144
0.00258726
0.00255396
0.00252687
0.00250659
0.00248879
0.00247363
0.00245914
0.00244651
0.00243438
0.00242353
0.00241297
0.00240362
0.0023945
0.00238643
0.00237855
0.00237147
0.00236464
0.00235848
0.00235262
0.00234732
0.00234238
0.00233766
0.00233292
0.00232812
0.00232292
0.00231788
0.00231215
0.00230652
0.00230047
0.00229344
0.00228667
0.0022785
0.00226976
0.00225918
0.00224845
0.00223548
0.00221847
0.00221119
0.00221118
0.000181162
0.00860782
0.00792957
0.00952287
0.0101298
0.00959491
0.00875889
0.0080552
0.00749406
0.00702422
0.00661276
0.00624806
0.00591871
0.00564618
0.00540055
0.00520752
0.00502268
0.00486756
0.00472074
0.00458872
0.00446653
0.00434985
0.00424633
0.0041473
0.0040568
0.00397252
0.00389306
0.00382035
0.00375025
0.0036859
0.00362468
0.00356729
0.00351497
0.00346337
0.00341648
0.00337062
0.00332962
0.00328986
0.00325491
0.00322146
0.00319248
0.00316457
0.00314452
0.00311329
0.00307347
0.00303921
0.00301289
0.00299008
0.00297059
0.00295219
0.00293597
0.00292056
0.00290663
0.00289318
0.00288109
0.0028694
0.00285889
0.0028487
0.00283941
0.00283047
0.0028223
0.0028145
0.00280736
0.00280069
0.00279436
0.00278805
0.00278172
0.00277495
0.00276832
0.00276101
0.00275368
0.00274599
0.00273722
0.00272863
0.00271863
0.00270795
0.00269533
0.00268226
0.00266742
0.00264637
0.00264241
0.00264018
0.000213919
0.0110054
0.00994443
0.0113892
0.0120611
0.0114378
0.0104691
0.00965577
0.00901256
0.0084774
0.00800927
0.00759293
0.00721388
0.00689276
0.00659792
0.00635798
0.00612936
0.00593342
0.00574981
0.00558332
0.00543022
0.00528409
0.00515368
0.00502974
0.0049161
0.00481054
0.00471114
0.00462008
0.00453272
0.00445227
0.00437601
0.00430445
0.00423905
0.00417514
0.00411659
0.00405971
0.00400835
0.00395886
0.00391487
0.00387301
0.00383628
0.00380115
0.00377497
0.00373905
0.00369214
0.00364948
0.00361558
0.00358643
0.00356139
0.00353807
0.0035173
0.00349774
0.00347992
0.00346284
0.0034473
0.00343238
0.00341877
0.00340569
0.00339361
0.00338202
0.00337131
0.00336108
0.00335159
0.00334272
0.00333433
0.00332606
0.00331782
0.00330915
0.00330058
0.00329137
0.003282
0.00327235
0.00326156
0.00325081
0.00323872
0.00322583
0.00321093
0.00319521
0.00317845
0.00315263
0.00315333
0.00314979
0.000251319
0.0139803
0.0124335
0.0135484
0.0142048
0.0135218
0.0124457
0.0115231
0.0107944
0.0101911
0.00966385
0.00919344
0.00876212
0.00839014
0.0080428
0.00775136
0.00747297
0.00722909
0.00700142
0.00679286
0.00660176
0.00641927
0.00625526
0.00610015
0.00595739
0.00582504
0.00570046
0.00558623
0.00547713
0.00537636
0.00528113
0.00519169
0.00510973
0.00503035
0.00495713
0.00488643
0.00482201
0.00476029
0.00470482
0.00465233
0.00460572
0.00456139
0.00452711
0.00448552
0.00443094
0.00437859
0.00433538
0.0042982
0.00426611
0.00423653
0.00420998
0.00418518
0.00416244
0.00414078
0.00412088
0.0041019
0.0040844
0.00406768
0.0040521
0.00403718
0.00402328
0.00400998
0.00399754
0.00398587
0.00397488
0.00396416
0.00395355
0.00394254
0.00393163
0.00392013
0.00390835
0.00389636
0.00388324
0.00386999
0.00385548
0.00384009
0.00382269
0.00380399
0.00378524
0.00375386
0.00376044
0.003758
0.000293414
0.0176508
0.0155031
0.0160527
0.0165373
0.015782
0.0146528
0.0136649
0.0128687
0.0122029
0.0116178
0.0110929
0.0106078
0.0101834
0.00978112
0.00943473
0.00910163
0.00880348
0.00852465
0.00826611
0.0080292
0.00780251
0.00759703
0.00740319
0.00722399
0.00705797
0.00690165
0.00675815
0.00662157
0.00649509
0.00637584
0.00626379
0.00616076
0.00606181
0.00597004
0.00588192
0.00580097
0.00572379
0.00565373
0.00558773
0.00552848
0.00547241
0.00542746
0.00537865
0.00531565
0.00525233
0.00519788
0.00515064
0.0051096
0.00507208
0.00503821
0.00500674
0.00497776
0.00495033
0.00492492
0.00490082
0.00487843
0.00485711
0.00483715
0.00481805
0.00480015
0.00478303
0.00476687
0.00475168
0.0047374
0.00472359
0.00471004
0.00469619
0.00468244
0.00466821
0.00465358
0.00463881
0.00462298
0.00460684
0.00458958
0.00457134
0.00455121
0.00452919
0.00450838
0.00447064
0.00448386
0.00448734
0.000339919
0.0221533
0.0192794
0.0189695
0.0190558
0.0181681
0.0170118
0.0160176
0.0152124
0.0145233
0.0139005
0.01333
0.0127948
0.0123191
0.0118613
0.0114582
0.0110673
0.0107102
0.0103743
0.0100585
0.00976814
0.00948913
0.00923367
0.00899259
0.00876846
0.00856057
0.00836458
0.00818427
0.0080131
0.00785415
0.00770453
0.00756386
0.00743403
0.00731024
0.00719494
0.00708479
0.00698289
0.00688614
0.00679752
0.0067143
0.00663886
0.00656777
0.00650885
0.00645049
0.00637797
0.00630236
0.00623461
0.00617497
0.00612266
0.00607506
0.0060319
0.00599197
0.00595509
0.00592035
0.00588801
0.00585744
0.00582888
0.00580179
0.00577631
0.00575199
0.00572908
0.0057072
0.00568638
0.00566676
0.00564833
0.00563064
0.00561345
0.00559611
0.00557892
0.00556141
0.00554342
0.00552537
0.00550639
0.00548693
0.00546649
0.00544504
0.00542189
0.00539617
0.00537317
0.00532828
0.005348
0.005366
0.000390034
0.0276443
0.0239079
0.0223776
0.0217737
0.0206537
0.0194667
0.0185022
0.0177434
0.0170933
0.0164869
0.0159081
0.0153452
0.0148309
0.0143244
0.0138679
0.01342
0.0130026
0.0126065
0.0122287
0.0118787
0.0115403
0.0112269
0.01093
0.0106519
0.0103932
0.0101485
0.00992264
0.00970846
0.00950892
0.00932117
0.0091445
0.00898079
0.00882554
0.0086805
0.00854248
0.0084141
0.00829254
0.00818036
0.00807522
0.00797907
0.00788879
0.00781171
0.00774046
0.00765674
0.00756737
0.00748415
0.00740946
0.00734314
0.00728287
0.00722798
0.00717732
0.00713044
0.00708645
0.00704536
0.00700664
0.00697032
0.00693596
0.00690357
0.0068727
0.00684355
0.00681572
0.00678913
0.00676395
0.00674031
0.00671774
0.00669599
0.00667434
0.00665297
0.00663151
0.00660954
0.0065876
0.00656493
0.00654164
0.00651755
0.00649243
0.00646588
0.00643603
0.00641057
0.00635787
0.00638249
0.00642869
0.000442247
0.034303
0.0295514
0.0263546
0.024711
0.0232234
0.0219813
0.0210639
0.0203865
0.0198236
0.0192908
0.0187613
0.0182211
0.0177061
0.0171774
0.016685
0.0161921
0.0157216
0.0152689
0.0148294
0.0144182
0.0140168
0.0136399
0.0132804
0.0129406
0.0126225
0.01232
0.0120395
0.0117731
0.0115239
0.0112892
0.0110679
0.010862
0.0106673
0.010485
0.010312
0.0101504
0.00999759
0.00985569
0.00972278
0.00960034
0.0094856
0.00938519
0.00929655
0.00919902
0.00909406
0.00899316
0.00890058
0.00881712
0.00874106
0.00867149
0.00860732
0.00854784
0.00849217
0.00844007
0.00839107
0.00834503
0.00830152
0.00826049
0.00822144
0.0081845
0.00814927
0.00811552
0.00808343
0.00805325
0.00802456
0.00799711
0.00797012
0.00794363
0.00791735
0.00789062
0.00786406
0.00783702
0.00780927
0.00778093
0.00775156
0.00772111
0.00768656
0.00765813
0.00759706
0.00762326
0.00771435
0.000497006
0.0422976
0.036376
0.030951
0.0278805
0.0258605
0.0245224
0.0236607
0.0230878
0.0226432
0.0222236
0.0217915
0.0213278
0.0208659
0.0203634
0.019875
0.0193688
0.0188695
0.0183782
0.0178894
0.0174249
0.0169649
0.0165257
0.0161021
0.0156968
0.0153138
0.0149467
0.0146037
0.0142768
0.0139692
0.0136785
0.0134037
0.0131466
0.0129037
0.0126755
0.0124594
0.0122567
0.0120651
0.0118862
0.0117186
0.0115632
0.0114176
0.0112877
0.011176
0.0110608
0.0109378
0.0108168
0.0107034
0.0105995
0.0105041
0.0104164
0.0103354
0.0102602
0.0101899
0.010124
0.0100621
0.010004
0.00994902
0.00989719
0.00984796
0.00980135
0.00975697
0.00971439
0.00967372
0.00963541
0.00959906
0.00956446
0.00953081
0.009498
0.00946582
0.00943334
0.00940122
0.00936895
0.00933593
0.00930255
0.00926816
0.00923306
0.00919303
0.00916071
0.00909083
0.00911407
0.00924706
1.29473e-05
0.0514609
0.0444371
0.0361398
0.0312616
0.0285347
0.0270483
0.0262477
0.0257993
0.025497
0.0252172
0.0249144
0.0245677
0.0242054
0.0237788
0.0233441
0.0228716
0.0223866
0.0218932
0.0213857
0.0208927
0.0203931
0.0199053
0.019427
0.0189617
0.0185159
0.0180834
0.0176751
0.0172832
0.0169113
0.0165578
0.0162219
0.0159055
0.015606
0.0153236
0.015056
0.0148039
0.0145656
0.0143418
0.0141318
0.0139359
0.0137523
0.0135858
0.0134443
0.0133066
0.0131622
0.0130184
0.0128813
0.0127534
0.012635
0.0125254
0.0124238
0.0123292
0.0122408
0.012158
0.0120802
0.0120069
0.0119378
0.0118727
0.0118108
0.0117523
0.0116967
0.0116433
0.0115921
0.0115437
0.0114979
0.0114544
0.0114124
0.0113718
0.0113323
0.0112928
0.0112539
0.0112152
0.0111759
0.0111364
0.011096
0.0110551
0.0110085
0.0109708
0.0108914
0.0109073
0.0110369
0.00443118
0.0611786
0.0533236
0.0417203
0.0347491
0.0311811
0.0294979
0.0287669
0.0284645
0.0283282
0.0282103
0.0280603
0.0278602
0.0276316
0.0273193
0.0269811
0.0265876
0.0261647
0.0257152
0.0252334
0.0247523
0.0242486
0.0237428
0.0232352
0.0227302
0.0222369
0.0217501
0.0212839
0.0208309
0.020396
0.0199788
0.0195791
0.0191993
0.0188379
0.0184952
0.0181694
0.0178611
0.0175688
0.017293
0.0170332
0.0167894
0.0165606
0.0163504
0.016172
0.0160059
0.0158358
0.0156663
0.0155026
0.0153476
0.0152027
0.0150673
0.0149413
0.0148236
0.0147134
0.01461
0.0145128
0.0144213
0.0143349
0.0142535
0.0141764
0.0141034
0.014034
0.0139676
0.0139036
0.013843
0.0137855
0.013731
0.0136787
0.0136284
0.0135799
0.0135317
0.0134845
0.013438
0.0133909
0.0133439
0.0132959
0.0132478
0.0131929
0.0131476
0.0130576
0.0130626
0.0131194
0.00870433
0.0709246
0.0623451
0.0471671
0.0380442
0.0336578
0.0317779
0.0311442
0.0310121
0.0310665
0.0311312
0.0311551
0.0311284
0.0310607
0.030892
0.0306831
0.0304053
0.030086
0.0297223
0.0293113
0.0288872
0.0284233
0.027941
0.0274431
0.0269338
0.0264238
0.0259088
0.0254064
0.0249096
0.0244251
0.023954
0.0234974
0.0230583
0.0226367
0.0222336
0.0218481
0.0214808
0.0211309
0.0207986
0.0204841
0.0201871
0.0199071
0.0196473
0.0194259
0.0192258
0.0190257
0.0188273
0.0186346
0.0184502
0.0182758
0.0181117
0.0179578
0.0178135
0.0176779
0.0175505
0.0174305
0.0173174
0.0172106
0.01711
0.0170146
0.0169244
0.0168388
0.0167568
0.0166777
0.0166026
0.016531
0.0164632
0.0163984
0.0163361
0.0162765
0.0162176
0.0161603
0.0161041
0.0160473
0.0159909
0.0159335
0.015876
0.0158106
0.0157548
0.0156516
0.0156422
0.0155917
0.0128278
0.080295
0.0706265
0.0526259
0.0410553
0.0359493
0.0339205
0.033387
0.0334097
0.0336336
0.033894
0.0341091
0.0342832
0.0344005
0.0344004
0.0343488
0.0342179
0.0340377
0.0337943
0.0334937
0.0331678
0.0327847
0.0323681
0.0319229
0.0314516
0.0309647
0.0304592
0.0299552
0.0294454
0.0289382
0.0284363
0.0279423
0.0274601
0.026991
0.0265374
0.0260994
0.0256783
0.0252741
0.0248872
0.0245184
0.0241675
0.0238347
0.023523
0.0232555
0.0230179
0.0227844
0.0225549
0.0223319
0.022117
0.021912
0.0217175
0.0215337
0.0213605
0.021197
0.0210429
0.0208973
0.0207601
0.0206301
0.0205076
0.0203913
0.0202814
0.0201772
0.0200775
0.019981
0.0198891
0.0198013
0.0197179
0.0196382
0.0195618
0.0194888
0.019417
0.0193472
0.0192791
0.0192105
0.0191424
0.0190732
0.0190037
0.0189249
0.0188548
0.0187349
0.0187071
0.018533
0.0171183
0.0888962
0.0776965
0.0590606
0.04534
0.0386968
0.0363786
0.0358627
0.0359577
0.0362703
0.0366432
0.0369825
0.037293
0.0375488
0.0377328
0.0378635
0.0379086
0.0379012
0.0378066
0.0376535
0.0374628
0.0371957
0.0368823
0.0365308
0.0361386
0.0357151
0.0352605
0.0347951
0.0343104
0.0338165
0.0333174
0.0328167
0.0323191
0.0318272
0.0313445
0.0308724
0.0304132
0.0299677
0.0295371
0.0291228
0.028725
0.0283448
0.0279851
0.0276738
0.0273996
0.0271328
0.0268725
0.0266199
0.0263758
0.0261415
0.0259176
0.0257044
0.0255024
0.0253106
0.0251291
0.024957
0.0247943
0.0246398
0.024494
0.0243553
0.0242242
0.0240998
0.0239808
0.0238654
0.0237552
0.0236494
0.0235487
0.0234523
0.0233596
0.0232713
0.0231844
0.0231001
0.0230179
0.0229351
0.0228527
0.0227691
0.0226846
0.0225892
0.0225007
0.0223597
0.0223084
0.0220238
0.0214288
0.0962668
0.0845422
0.0667282
0.0521827
0.0436607
0.0404214
0.0394481
0.0393199
0.0395074
0.039818
0.0401482
0.0404741
0.0407725
0.041031
0.0412589
0.0414096
0.0415499
0.0416198
0.0416533
0.0416315
0.041509
0.0413334
0.0411151
0.0408391
0.0405157
0.0401529
0.0397661
0.0393453
0.0389035
0.0384453
0.0379746
0.0374965
0.0370144
0.0365333
0.036055
0.0355831
0.0351193
0.0346655
0.034224
0.0337955
0.033382
0.0329866
0.0326409
0.0323371
0.0320426
0.0317561
0.0314785
0.0312099
0.0309509
0.030702
0.0304635
0.030236
0.0300188
0.0298123
0.0296155
0.0294288
0.0292509
0.0290825
0.028922
0.02877
0.0286255
0.0284872
0.0283528
0.0282241
0.0280999
0.0279813
0.0278673
0.0277575
0.0276526
0.0275492
0.0274488
0.0273508
0.0272519
0.0271533
0.027053
0.0269508
0.0268359
0.0267254
0.0265592
0.0264777
0.0261167
0.0257918
0.102061
0.0916691
0.0755651
0.0613712
0.051741
0.047134
0.0450555
0.0442218
0.0439529
0.0439534
0.0440828
0.0442541
0.0444592
0.0446553
0.0448646
0.0450262
0.0451979
0.0453293
0.0454457
0.0455305
0.045562
0.0455581
0.0455127
0.0453822
0.0451916
0.0449615
0.0446909
0.0443705
0.0440192
0.0436408
0.0432383
0.042817
0.0423814
0.0419371
0.0414863
0.0410336
0.0405815
0.0401329
0.0396903
0.0392554
0.0388307
0.0384199
0.0380569
0.0377369
0.0374262
0.0371239
0.0368306
0.0365464
0.0362712
0.0360057
0.0357496
0.0355042
0.0352683
0.0350429
0.0348268
0.0346211
0.0344241
0.034237
0.0340581
0.0338882
0.0337263
0.0335711
0.0334198
0.0332745
0.0331335
0.0329984
0.032868
0.0327418
0.0326209
0.0325013
0.0323847
0.0322707
0.0321552
0.0320394
0.0319214
0.0318002
0.0316643
0.0315297
0.0313364
0.0312182
0.0308159
0.030445
0.106632
0.0985332
0.0850005
0.0719365
0.0618517
0.0558427
0.0523748
0.0505694
0.0496396
0.0491734
0.0489624
0.0488561
0.0488577
0.0488837
0.0489694
0.0490457
0.0491419
0.0492317
0.0493233
0.0494121
0.049481
0.0495418
0.0495761
0.0495872
0.0495556
0.0495021
0.0493756
0.0491857
0.0489625
0.0487019
0.0484042
0.0480767
0.0477254
0.0473549
0.0469677
0.0465695
0.0461633
0.0457526
0.0453405
0.0449292
0.0445219
0.0441225
0.0437649
0.0434474
0.0431378
0.0428353
0.0425406
0.042254
0.0419753
0.0417053
0.0414433
0.0411909
0.0409468
0.0407125
0.0404864
0.0402702
0.0400621
0.0398637
0.0396731
0.0394916
0.0393179
0.0391512
0.0389879
0.0388306
0.0386773
0.0385297
0.0383864
0.0382472
0.0381132
0.0379801
0.0378496
0.0377215
0.0375912
0.0374599
0.0373254
0.0371862
0.0370304
0.0368722
0.0366543
0.0364951
0.0360792
0.0355681
0.11161
0.105312
0.0944294
0.0825972
0.0722761
0.0646797
0.0598601
0.0573363
0.0558792
0.0550099
0.0544574
0.0540672
0.0538502
0.0536898
0.0536149
0.0535545
0.053518
0.0534993
0.0534899
0.0535028
0.0535186
0.0535494
0.053575
0.0536051
0.053623
0.0536354
0.0536285
0.0535872
0.0535288
0.0534154
0.0532505
0.0530501
0.0528185
0.0525568
0.0522684
0.0519606
0.0516358
0.0512982
0.0509506
0.0505965
0.0502388
0.0498818
0.0495568
0.0492649
0.0489777
0.0486949
0.0484173
0.0481456
0.0478797
0.0476207
0.0473678
0.0471228
0.0468844
0.0466543
0.0464308
0.0462162
0.0460083
0.0458093
0.0456171
0.0454334
0.0452569
0.045087
0.0449199
0.0447582
0.0445998
0.0444466
0.0442972
0.0441511
0.0440099
0.0438688
0.0437299
0.0435926
0.0434523
0.04331
0.0431636
0.0430108
0.0428399
0.0426625
0.0424268
0.042228
0.0418193
0.0411764
0.116424
0.111716
0.103227
0.0929965
0.0833566
0.0754899
0.0694643
0.0651549
0.0623564
0.0608646
0.0600207
0.0594438
0.0590997
0.0588255
0.0586178
0.058423
0.0582557
0.0581141
0.0579808
0.0578841
0.0578015
0.0577436
0.0576952
0.0576619
0.0576403
0.0576294
0.0576287
0.0576238
0.0576222
0.0576069
0.0575759
0.0575263
0.0574389
0.0573082
0.0571457
0.0569589
0.0567472
0.0565145
0.0562643
0.0560001
0.0557249
0.055443
0.0551796
0.0549384
0.0546973
0.0544566
0.0542175
0.053981
0.0537472
0.0535176
0.0532915
0.0530709
0.0528546
0.0526446
0.0524393
0.0522409
0.0520476
0.0518616
0.051681
0.0515076
0.0513401
0.0511782
0.0510183
0.0508628
0.0507097
0.0505607
0.0504147
0.0502711
0.0501315
0.0499912
0.0498522
0.049714
0.0495719
0.0494266
0.0492763
0.0491182
0.048941
0.0487531
0.0485115
0.0482821
0.0478975
0.0471672
0.120519
0.117255
0.110944
0.102874
0.094696
0.0874073
0.0812742
0.076364
0.0724971
0.069522
0.0673045
0.0657215
0.0648032
0.0642257
0.0638466
0.0635122
0.0632489
0.0629962
0.0627522
0.0625576
0.0623723
0.0622006
0.0620385
0.0618944
0.0617775
0.0616822
0.0616138
0.0615602
0.061525
0.0614989
0.0614822
0.0614698
0.0614579
0.0614384
0.0614108
0.0613594
0.0612739
0.0611633
0.0610321
0.0608818
0.0607143
0.0605342
0.060358
0.0601903
0.0600172
0.05984
0.0596601
0.0594791
0.0592972
0.0591162
0.0589357
0.0587578
0.0585815
0.058409
0.0582388
0.0580732
0.0579107
0.0577533
0.0575994
0.0574509
0.0573065
0.0571664
0.0570269
0.0568906
0.0567555
0.0566232
0.0564927
0.0563634
0.056237
0.0561089
0.0559812
0.0558532
0.0557205
0.0555837
0.055441
0.0552893
0.0551185
0.0549336
0.0547015
0.0544589
0.0541133
0.0533581
0.123948
0.121741
0.117352