/*--------------------------------*- C++ -*----------------------------------*\
| =========                 |                                                 |
| \\      /  F ield         | OpenFOAM: The Open Source CFD Toolbox           |
|  \\    /   O peration     | Version:  5.x                                   |
|   \\  /    A nd           | Web:      www.OpenFOAM.org                      |
|    \\/     M anipulation  |                                                 |
\*---------------------------------------------------------------------------*/
FoamFile
{
    version     2.0;
    format      ascii;
    class       volScalarField;
    location    "150";
    object      nuTilda;
}
// * * * * * * * * * * * * * * * * * * * * * * * * * * * * * * * * * * * * * //

dimensions      [0 2 -1 0 0 0 0];

internalField   nonuniform List<scalar> 
11040
(
0.00334458
0.00392271
0.0042125
0.00425565
0.00407311
0.00380562
0.00357772
0.00337807
0.00316912
0.00292828
0.00262968
0.00234555
0.00211963
0.00193879
0.00174935
0.00153264
0.00118646
0.000821266
0.000668528
0.000581066
0.00048629
0.000411275
0.000497502
0.00056398
0.000550755
0.000471716
0.000424442
0.000411123
0.000409539
0.000416234
0.000431961
0.000457294
0.000491094
0.000529498
0.000564265
0.000575414
0.000527301
0.000460941
0.000471546
0.000552139
0.000889572
0.00772139
0.00824345
0.00749353
0.0067169
0.00598423
0.00537357
0.00531492
0.00535167
0.00531462
0.00516635
0.00498108
0.00483715
0.00473786
0.00462315
0.00444211
0.00422867
0.00397967
0.00369838
0.0034779
0.00316516
0.00266071
0.00214888
0.00192683
0.00166706
0.00146661
0.00127937
0.00113624
0.0010265
0.000950873
0.000909958
0.000906196
0.000943174
0.00102246
0.00114387
0.00130721
0.00151169
0.00174793
0.00200256
0.00231398
0.00285445
0.00442937
0.0157455
0.0165409
0.0154549
0.0141229
0.0126363
0.0111672
0.00985093
0.00872275
0.00779058
0.00695815
0.00653331
0.006369
0.00632236
0.00632718
0.00629958
0.00622098
0.00609071
0.0059185
0.00574536
0.00555294
0.00531853
0.00499953
0.00453761
0.0039298
0.00347243
0.00307629
0.00277171
0.00252632
0.00233233
0.00221699
0.00218669
0.00225334
0.00242453
0.00269993
0.0030727
0.0035325
0.00406169
0.00462812
0.00524968
0.0062895
0.00919255
0.0249224
0.0257826
0.0245974
0.0228652
0.0208551
0.018782
0.0167733
0.0148782
0.0131396
0.0115316
0.010037
0.00879969
0.00822602
0.00799679
0.00789436
0.00784066
0.00778789
0.00771151
0.00762134
0.00754893
0.00752281
0.00748047
0.00734256
0.00703932
0.00649102
0.0057808
0.00523227
0.00479544
0.00443648
0.00420871
0.00412329
0.00420352
0.00446937
0.00492572
0.00555842
0.00634226
0.00724217
0.00819977
0.00923497
0.0108478
0.0149937
0.0349279
0.0357366
0.0345499
0.0325834
0.0301925
0.0276211
0.0250306
0.0224612
0.0200149
0.0177031
0.0154218
0.0133583
0.0117606
0.0105425
0.00996349
0.00963873
0.00943681
0.00930358
0.00922168
0.0092193
0.00935534
0.00958558
0.009798
0.00989198
0.00975601
0.00936782
0.00878429
0.00810407
0.00750982
0.00711098
0.00692432
0.00698602
0.00733548
0.00799217
0.00893406
0.0101079
0.0114495
0.0128538
0.0143437
0.0164865
0.021599
0.0453796
0.0460904
0.0449659
0.0429295
0.0403373
0.037371
0.0342378
0.0310891
0.0280337
0.025091
0.0221379
0.0193752
0.0170249
0.0150688
0.0134179
0.0123221
0.0116437
0.0111644
0.0108417
0.0107095
0.0108545
0.0112591
0.0117964
0.01233
0.0126834
0.0127603
0.0125618
0.012153
0.0116432
0.0111664
0.0108711
0.0108858
0.0112901
0.0121404
0.01342
0.0150317
0.016873
0.0187467
0.0206782
0.0232081
0.0288732
0.0559652
0.056542
0.0555132
0.0535406
0.0508924
0.0477627
0.0443582
0.040831
0.037311
0.0338375
0.0302918
0.0268885
0.023882
0.0212882
0.0189185
0.0167996
0.0150414
0.0139054
0.013056
0.0124657
0.0122736
0.0125549
0.013224
0.01414
0.0150469
0.0157159
0.0160537
0.0160855
0.01591
0.015664
0.0155368
0.0157413
0.0164388
0.0176634
0.0193332
0.0213968
0.0237749
0.0260872
0.0283901
0.0310531
0.0366367
0.0663355
0.0667927
0.0658844
0.0640673
0.0615253
0.0584549
0.0550258
0.0513649
0.0475993
0.0437778
0.0397928
0.0358629
0.0322764
0.0290871
0.026122
0.0233229
0.0206712
0.0183311
0.0166338
0.0152667
0.014306
0.0139679
0.0142913
0.0152121
0.0165168
0.0178508
0.0189142
0.0195946
0.0199416
0.0200904
0.0202643
0.0207553
0.0218577
0.0237296
0.026336
0.0294423
0.032523
0.0351679
0.0377191
0.0401985
0.0448344
0.0762519
0.0765955
0.075809
0.0741975
0.0718848
0.069039
0.065789
0.0622253
0.0584552
0.0545187
0.0503173
0.0460537
0.0420292
0.0383356
0.0348437
0.0315061
0.0282715
0.0250933
0.0222467
0.019921
0.017943
0.0165779
0.0159716
0.0161556
0.0171591
0.0187745
0.0205817
0.0221629
0.0233297
0.0241295
0.0247706
0.0255884
0.027016
0.0293888
0.0328138
0.037096
0.0417381
0.0459992
0.0489618
0.0509477
0.0538482
0.0854738
0.085724
0.0850571
0.0836723
0.0816541
0.0791353
0.076207
0.072923
0.0693628
0.0655277
0.0613441
0.0569815
0.0527265
0.0487022
0.0448413
0.0410915
0.0374228
0.0337732
0.0301206
0.0268059
0.0238643
0.0214526
0.0196861
0.0185663
0.0183291
0.0191007
0.0207735
0.0229667
0.0251688
0.0270167
0.0284843
0.0298477
0.0315923
0.0342522
0.0381801
0.0433403
0.049307
0.0553848
0.0606023
0.063901
0.0649668
0.0938432
0.0940238
0.0934671
0.0923053
0.090599
0.0884496
0.0859182
0.0830156
0.0797975
0.0762778
0.0723668
0.0681823
0.0639657
0.0598407
0.0557684
0.0517568
0.0477961
0.0438614
0.0398589
0.0358213
0.0320946
0.0289181
0.0262517
0.0239175
0.0221447
0.0212122
0.021348
0.0226093
0.0247927
0.0274582
0.0301162
0.0325205
0.0348802
0.037778
0.0418424
0.0473658
0.0541245
0.0615021
0.068581
0.074322
0.0778698
0.101282
0.101409
0.100947
0.0999877
0.0985782
0.0967945
0.0946776
0.0922148
0.0894471
0.0863756
0.0829149
0.0791359
0.0752186
0.0712626
0.067243
0.0631878
0.0591105
0.0550098
0.0508523
0.0465727
0.0422624
0.0385772
0.0354145
0.0323924
0.0295784
0.0271569
0.0253929
0.0245673
0.0248841
0.0263725
0.028836
0.0319079
0.0352471
0.0388121
0.0430068
0.048416
0.0552824
0.0632875
0.0716356
0.0793004
0.085285
0.107767
0.107853
0.107469
0.106686
0.10554
0.10409
0.102364
0.10034
0.0980489
0.0954835
0.0925673
0.0893352
0.0858953
0.0823269
0.0786146
0.0747933
0.0708652
0.0668366
0.062704
0.0584386
0.0540052
0.0499223
0.0463961
0.0430886
0.039898
0.0368096
0.0339219
0.0314295
0.0295892
0.0286624
0.0288421
0.030187
0.0326038
0.0359272
0.0400972
0.0452731
0.0517336
0.0595799
0.0684186
0.0773974
0.0855064
0.113342
0.113388
0.113065
0.11243
0.111511
0.110349
0.108966
0.10734
0.105495
0.103421
0.101055
0.0983965
0.0955318
0.0925007
0.0892827
0.0858964
0.0823522
0.0786639
0.0748144
0.0707938
0.0665756
0.0625917
0.0589584
0.055385
0.0519655
0.0487233
0.0455722
0.0424986
0.0395883
0.0370069
0.0349723
0.0337118
0.0334128
0.0341883
0.0360971
0.039205
0.0436594
0.0497035
0.0574381
0.0665153
0.076069
0.118055
0.118076
0.117809
0.117299
0.116569
0.115649
0.114553
0.113266
0.111806
0.110165
0.108284
0.106175
0.103886
0.101434
0.0987958
0.0959748
0.0929738
0.0897933
0.0864291
0.0828725
0.0791143
0.0755279
0.0721875
0.0688157
0.065441
0.0621041
0.0588093
0.0556456
0.052614
0.049653
0.0467969
0.0441575
0.0418928
0.0401778
0.0391767
0.039041
0.0399139
0.0419849
0.0454941
0.0506425
0.0575296
0.122022
0.122024
0.121803
0.121395
0.120827
0.120099
0.119234
0.118223
0.11708
0.115799
0.114336
0.1127
0.110921
0.109005
0.106922
0.104676
0.102274
0.0996994
0.0969432
0.0939951
0.090842
0.0878036
0.0849509
0.0820508
0.079104
0.0761173
0.0730988
0.0700725
0.0670616
0.0640688
0.061098
0.0583103
0.0556194
0.0530408
0.0506487
0.0485608
0.0469029
0.0457944
0.0453891
0.0458624
0.0475328
0.125344
0.125333
0.125153
0.124826
0.124375
0.123801
0.123122
0.122333
0.121444
0.120453
0.119328
0.118077
0.116719
0.11525
0.113656
0.111935
0.110083
0.108092
0.105956
0.103658
0.101178
0.0987613
0.0964719
0.0941349
0.0917512
0.0893201
0.0868421
0.0843187
0.0817541
0.0791548
0.076523
0.0738849
0.0712518
0.0686278
0.0660091
0.0635784
0.061264
0.0590656
0.0570392
0.0552735
0.0538098
0.127991
0.127976
0.127828
0.127564
0.127201
0.126744
0.126203
0.125585
0.124884
0.124105
0.123229
0.122262
0.121219
0.120093
0.118877
0.11757
0.116165
0.114657
0.113036
0.111295
0.109418
0.107579
0.105827
0.104032
0.102196
0.100321
0.0984057
0.0964524
0.0944592
0.0924259
0.0903525
0.0882381
0.0860855
0.0838968
0.0816639
0.0794168
0.0771714
0.0749143
0.0726524
0.0704819
0.0683263
0.130026
0.130009
0.129885
0.129668
0.12937
0.129003
0.128563
0.12806
0.127495
0.12687
0.126178
0.125413
0.124592
0.12371
0.122763
0.12175
0.120669
0.119513
0.118277
0.116955
0.115537
0.114147
0.112822
0.111467
0.110084
0.108674
0.107234
0.105766
0.104269
0.102743
0.101188
0.0996018
0.0979824
0.0963287
0.0946341
0.0929007
0.0911356
0.0893288
0.0874781
0.085602
0.0836384
0.13162
0.131602
0.131499
0.131318
0.131069
0.130763
0.130399
0.129984
0.129524
0.129013
0.128449
0.127831
0.12717
0.126468
0.125715
0.124913
0.124061
0.123157
0.122197
0.121175
0.120088
0.119024
0.118012
0.116982
0.115936
0.114874
0.113796
0.1127
0.111587
0.110456
0.109306
0.108137
0.106948
0.105739
0.104502
0.103238
0.101948
0.100624
0.0992624
0.0978682
0.0963971
0.132898
0.132884
0.132796
0.132644
0.132434
0.132174
0.131872
0.131524
0.131139
0.130713
0.130246
0.129741
0.1292
0.128628
0.128017
0.127371
0.126688
0.125968
0.125207
0.124404
0.123554
0.122725
0.121939
0.121143
0.120339
0.119528
0.118705
0.117875
0.117039
0.116195
0.115342
0.114479
0.113605
0.112722
0.111823
0.110908
0.109978
0.109027
0.108051
0.107053
0.106012
0.133945
0.133934
0.13386
0.133729
0.13355
0.133328
0.133069
0.132777
0.132451
0.132094
0.131703
0.131281
0.13083
0.130357
0.129857
0.129328
0.128773
0.128189
0.127577
0.126935
0.126261
0.125604
0.124982
0.124356
0.123724
0.123093
0.122456
0.121816
0.121174
0.120532
0.119887
0.11924
0.118588
0.117933
0.11727
0.1166
0.115923
0.115234
0.114531
0.113816
0.113079
0.134817
0.134808
0.134745
0.134633
0.134478
0.134286
0.134063
0.133811
0.133535
0.133231
0.132901
0.132544
0.132167
0.13177
0.131353
0.130917
0.130461
0.129983
0.129483
0.128962
0.128419
0.127891
0.127392
0.126892
0.12639
0.125891
0.125389
0.124887
0.124386
0.123886
0.123389
0.122895
0.1224
0.121905
0.121407
0.120905
0.120402
0.119893
0.119377
0.118855
0.118325
0.135552
0.135546
0.135491
0.135394
0.135259
0.135093
0.134899
0.134681
0.134442
0.13418
0.133897
0.133592
0.133272
0.132938
0.132587
0.132221
0.131841
0.131447
0.131038
0.130611
0.130169
0.129739
0.129334
0.128929
0.128527
0.128127
0.127727
0.127328
0.126931
0.126537
0.126146
0.125759
0.125376
0.124996
0.124615
0.124233
0.123853
0.12347
0.123084
0.122696
0.122308
0.136179
0.136174
0.136127
0.136042
0.135925
0.135781
0.135612
0.135422
0.135213
0.134988
0.134743
0.134483
0.134208
0.133922
0.133624
0.133316
0.132996
0.132665
0.132323
0.131971
0.131609
0.131256
0.130923
0.130592
0.130265
0.129939
0.129616
0.129296
0.128979
0.128665
0.128355
0.128049
0.127747
0.127448
0.127152
0.126859
0.126568
0.126277
0.125984
0.125692
0.125402
0.136718
0.136714
0.136674
0.136601
0.136499
0.136373
0.136225
0.136059
0.135876
0.135679
0.135468
0.135242
0.135006
0.13476
0.134504
0.134241
0.13397
0.133692
0.133404
0.133109
0.132808
0.132516
0.132242
0.131969
0.131699
0.131433
0.131169
0.130909
0.130652
0.1304
0.130151
0.129906
0.129666
0.129429
0.129196
0.128966
0.128739
0.128515
0.128292
0.128069
0.127852
0.137184
0.137183
0.137149
0.137086
0.136998
0.136888
0.136758
0.136612
0.136451
0.136278
0.136093
0.135897
0.135692
0.13548
0.13526
0.135035
0.134803
0.134565
0.134323
0.134075
0.133822
0.133577
0.133347
0.133121
0.132898
0.132677
0.13246
0.132247
0.132038
0.131833
0.131631
0.131434
0.131241
0.131052
0.130866
0.130684
0.130505
0.130329
0.130155
0.129983
0.129818
0.137591
0.137592
0.137565
0.137511
0.137435
0.137338
0.137224
0.137095
0.136954
0.136801
0.136638
0.136466
0.136287
0.136103
0.135914
0.135719
0.13552
0.135317
0.13511
0.134899
0.134687
0.134481
0.134288
0.134097
0.13391
0.133727
0.133547
0.13337
0.133198
0.13303
0.132866
0.132706
0.13255
0.132398
0.132249
0.132103
0.131961
0.131821
0.131684
0.13155
0.131422
0.137948
0.137952
0.137931
0.137886
0.13782
0.137735
0.137635
0.137521
0.137395
0.13726
0.137116
0.136964
0.136807
0.136645
0.13648
0.136311
0.13614
0.135965
0.135788
0.135609
0.135428
0.135254
0.135089
0.134929
0.134771
0.134617
0.134467
0.134321
0.134178
0.134039
0.133905
0.133774
0.133647
0.133524
0.133404
0.133287
0.133173
0.133062
0.132954
0.132848
0.132748
0.138264
0.138271
0.138256
0.138218
0.138161
0.138086
0.137997
0.137896
0.137785
0.137664
0.137536
0.137402
0.137263
0.137121
0.136975
0.136828
0.136678
0.136527
0.136375
0.136222
0.136068
0.135919
0.135779
0.135643
0.135509
0.13538
0.135253
0.135131
0.135012
0.134897
0.134786
0.134678
0.134575
0.134474
0.134377
0.134283
0.134191
0.134103
0.134016
0.133933
0.133855
0.138544
0.138555
0.138545
0.138513
0.138464
0.138398
0.138319
0.138229
0.138129
0.138022
0.137909
0.13779
0.137667
0.137541
0.137413
0.137283
0.137152
0.13702
0.136888
0.136756
0.136625
0.136498
0.136377
0.136261
0.136147
0.136037
0.135931
0.135828
0.135728
0.135632
0.13554
0.135451
0.135366
0.135284
0.135204
0.135128
0.135054
0.134983
0.134915
0.134848
0.134787
0.138794
0.138808
0.138803
0.138777
0.138734
0.138675
0.138605
0.138525
0.138436
0.138341
0.13824
0.138135
0.138026
0.137915
0.137801
0.137687
0.137572
0.137457
0.137341
0.137227
0.137114
0.137004
0.1369
0.1368
0.136703
0.136609
0.136519
0.136432
0.136348
0.136268
0.136191
0.136118
0.136047
0.135979
0.135915
0.135852
0.135793
0.135736
0.135681
0.135628
0.13558
0.139018
0.139036
0.139034
0.139013
0.138975
0.138923
0.138861
0.13879
0.138712
0.138628
0.138539
0.138445
0.138349
0.13825
0.13815
0.138049
0.137948
0.137847
0.137747
0.137647
0.137548
0.137453
0.137364
0.137277
0.137194
0.137114
0.137037
0.136963
0.136892
0.136825
0.13676
0.136699
0.136641
0.136585
0.136532
0.136481
0.136433
0.136387
0.136344
0.136303
0.13627
0.13922
0.139241
0.139242
0.139224
0.13919
0.139146
0.139092
0.13903
0.138963
0.138889
0.138811
0.138729
0.138644
0.138557
0.138469
0.13838
0.13829
0.138202
0.138113
0.138026
0.137941
0.137858
0.137781
0.137706
0.137634
0.137565
0.137499
0.137436
0.137377
0.13732
0.137266
0.137214
0.137166
0.13712
0.137077
0.137037
0.137
0.136966
0.136936
0.13691
0.136893
0.139402
0.139426
0.139428
0.139413
0.139385
0.139348
0.139304
0.139252
0.139194
0.139131
0.139064
0.138992
0.138918
0.138841
0.138764
0.138685
0.138607
0.138529
0.138452
0.138376
0.138301
0.138229
0.138162
0.138097
0.138035
0.137976
0.137919
0.137866
0.137815
0.137767
0.137723
0.137681
0.137643
0.137609
0.137578
0.137552
0.13753
0.137512
0.137496
0.137484
0.137479
0.139566
0.139591
0.139594
0.139583
0.139563
0.139535
0.139501
0.13946
0.139413
0.139361
0.139304
0.139243
0.139179
0.139112
0.139045
0.138976
0.138908
0.138839
0.138772
0.138705
0.138641
0.138578
0.13852
0.138464
0.138411
0.13836
0.138313
0.13827
0.13823
0.138194
0.138163
0.138137
0.138114
0.138095
0.13808
0.138068
0.138059
0.138053
0.138048
0.138045
0.138048
0.139715
0.139739
0.139743
0.139738
0.139726
0.139709
0.139686
0.139657
0.139622
0.139582
0.139537
0.139489
0.139436
0.139382
0.139325
0.139267
0.139208
0.13915
0.139093
0.139037
0.138984
0.138934
0.138888
0.138845
0.138806
0.138771
0.13874
0.138713
0.13869
0.13867
0.138654
0.138641
0.138632
0.138625
0.13862
0.138617
0.138617
0.138619
0.138622
0.138626
0.138636
0.139846
0.139867
0.139874
0.139875
0.139873
0.139867
0.139855
0.139839
0.139818
0.139793
0.139765
0.139733
0.139698
0.139662
0.139623
0.139584
0.139545
0.139506
0.139468
0.139432
0.139399
0.139367
0.139337
0.139309
0.139284
0.139262
0.139242
0.139225
0.139211
0.139199
0.13919
0.139184
0.139179
0.139177
0.139176
0.139178
0.139181
0.139185
0.139191
0.139197
0.139208
0.139951
0.139967
0.139975
0.13998
0.139981
0.13998
0.139976
0.139969
0.13996
0.139948
0.139934
0.139919
0.139901
0.139883
0.139863
0.139842
0.139821
0.1398
0.139779
0.139758
0.139739
0.139721
0.139703
0.139687
0.139672
0.139659
0.139648
0.139638
0.139629
0.139622
0.139617
0.139614
0.139612
0.139611
0.139612
0.139614
0.139616
0.13962
0.139625
0.139631
0.139639
0.140009
0.14002
0.140027
0.140032
0.140035
0.140036
0.140036
0.140035
0.140032
0.140027
0.140022
0.140015
0.140007
0.139999
0.139989
0.13998
0.13997
0.139959
0.13995
0.13994
0.139931
0.139922
0.139914
0.139907
0.1399
0.139893
0.139888
0.139883
0.13988
0.139877
0.139875
0.139874
0.139874
0.139875
0.139876
0.139878
0.139881
0.139884
0.139888
0.139892
0.139897
0.140039
0.140048
0.140054
0.14006
0.140064
0.140068
0.14007
0.140072
0.140073
0.140073
0.140072
0.14007
0.140068
0.140065
0.140062
0.140058
0.140054
0.14005
0.140046
0.140042
0.140038
0.140035
0.140031
0.140029
0.140026
0.140024
0.140022
0.140021
0.14002
0.14002
0.14002
0.140021
0.140022
0.140023
0.140025
0.140028
0.140031
0.140034
0.140037
0.140041
0.140045
0.140054
0.140062
0.140068
0.140074
0.140079
0.140084
0.140088
0.140092
0.140096
0.140099
0.140101
0.140103
0.140105
0.140106
0.140106
0.140106
0.140106
0.140106
0.140106
0.140105
0.140105
0.140104
0.140104
0.140104
0.140104
0.140104
0.140105
0.140105
0.140106
0.140107
0.140109
0.140111
0.140113
0.140115
0.140117
0.14012
0.140123
0.140127
0.14013
0.140134
0.140138
0.14006
0.140067
0.140073
0.140079
0.140085
0.140091
0.140097
0.140102
0.140108
0.140113
0.140118
0.140122
0.140126
0.14013
0.140134
0.140137
0.140139
0.140142
0.140144
0.140146
0.140148
0.14015
0.140152
0.140154
0.140156
0.140157
0.140159
0.140161
0.140164
0.140166
0.140168
0.140171
0.140173
0.140176
0.140179
0.140182
0.140185
0.140189
0.140192
0.140196
0.1402
0.14006
0.140066
0.140071
0.140077
0.140083
0.14009
0.140097
0.140103
0.14011
0.140117
0.140124
0.14013
0.140136
0.140142
0.140148
0.140153
0.140158
0.140162
0.140167
0.140171
0.140175
0.140179
0.140182
0.140186
0.140189
0.140192
0.140195
0.140198
0.140201
0.140204
0.140208
0.140211
0.140214
0.140217
0.14022
0.140224
0.140227
0.140231
0.140234
0.140238
0.140241
0.140054
0.140059
0.140064
0.140069
0.140075
0.140082
0.140089
0.140097
0.140104
0.140112
0.14012
0.140127
0.140135
0.140143
0.14015
0.140157
0.140163
0.14017
0.140176
0.140182
0.140187
0.140192
0.140197
0.140202
0.140207
0.140211
0.140215
0.140219
0.140223
0.140227
0.140231
0.140234
0.140238
0.140242
0.140245
0.140249
0.140252
0.140256
0.140259
0.140263
0.140266
0.140043
0.140047
0.140051
0.140056
0.140062
0.140068
0.140074
0.140082
0.140089
0.140097
0.140105
0.140113
0.140122
0.14013
0.140138
0.140147
0.140155
0.140162
0.14017
0.140177
0.140184
0.140191
0.140197
0.140203
0.140208
0.140214
0.140219
0.140224
0.140228
0.140233
0.140237
0.140241
0.140245
0.140249
0.140253
0.140257
0.14026
0.140264
0.140267
0.140271
0.140274
0.140029
0.140031
0.140034
0.140038
0.140042
0.140046
0.140052
0.140057
0.140063
0.14007
0.140077
0.140084
0.140092
0.1401
0.140108
0.140116
0.140124
0.140132
0.140141
0.140149
0.140157
0.140166
0.140174
0.140181
0.140189
0.140196
0.140203
0.14021
0.140217
0.140223
0.140229
0.140234
0.14024
0.140245
0.14025
0.140255
0.140259
0.140264
0.140268
0.140272
0.140276
0.14001
0.140011
0.140012
0.140014
0.140016
0.140017
0.14002
0.140022
0.140025
0.140028
0.140032
0.140035
0.140039
0.140043
0.140047
0.140052
0.140054
0.140056
0.140058
0.140061
0.140064
0.140068
0.140072
0.140076
0.140081
0.140085
0.14009
0.140095
0.140099
0.140104
0.140108
0.140113
0.140117
0.140121
0.140125
0.140129
0.140132
0.140136
0.14014
0.140143
0.140146
0.00663406
0.0091122
0.00996955
0.0109625
0.0132251
0.016693
0.020891
0.0254904
0.0303064
0.0352444
0.0401813
0.0450302
0.0497341
0.054255
0.0585735
0.0626971
0.0666717
0.0705694
0.0744394
0.0782663
0.0819816
0.0855137
0.088828
0.0919314
0.094852
0.097611
0.10021
0.102652
0.104944
0.107096
0.109117
0.111017
0.112803
0.114484
0.116064
0.117552
0.118951
0.120269
0.121509
0.122677
0.123777
0.124814
0.125791
0.126712
0.127583
0.128405
0.129181
0.129914
0.130605
0.131258
0.131875
0.132458
0.133008
0.133529
0.134024
0.134492
0.134936
0.13536
0.135762
0.136145
0.13651
0.136858
0.13719
0.137507
0.137808
0.138095
0.138366
0.138621
0.13886
0.139081
0.139283
0.139468
0.139616
0.139823
0.0138697
0.0173101
0.0170888
0.0155101
0.0149199
0.0165339
0.0199221
0.0242266
0.0289594
0.0338902
0.0388658
0.0437631
0.0485164
0.0530831
0.0574422
0.0616028
0.0656164
0.0695641
0.0735029
0.077418
0.0812327
0.0848653
0.0882735
0.0914607
0.0944511
0.0972616
0.0998962
0.102362
0.104669
0.106831
0.10886
0.110766
0.112558
0.114244
0.115831
0.117326
0.118734
0.120061
0.12131
0.122487
0.123596
0.124642
0.125628
0.126558
0.127436
0.128265
0.129047
0.129785
0.130482
0.131139
0.13176
0.132347
0.1329
0.133424
0.133922
0.134393
0.13484
0.135265
0.135668
0.136053
0.136419
0.136768
0.137101
0.137418
0.137721
0.138009
0.138282
0.13854
0.138781
0.139006
0.139211
0.139402
0.139554
0.139771
0.0213995
0.0267168
0.0268393
0.0239656
0.0204587
0.0187033
0.0198204
0.0231146
0.0274879
0.0323117
0.0372834
0.0422247
0.0470409
0.0516708
0.056089
0.0603034
0.0643679
0.0683703
0.0723783
0.076383
0.0803047
0.0840511
0.0875695
0.0908558
0.0939287
0.0968024
0.0994835
0.101983
0.104316
0.106497
0.10854
0.110459
0.112263
0.113962
0.115562
0.11707
0.11849
0.11983
0.121092
0.122282
0.123404
0.124461
0.125459
0.126398
0.127285
0.128123
0.128913
0.129658
0.130361
0.131024
0.131651
0.132242
0.132799
0.133327
0.133826
0.134299
0.134747
0.135173
0.135578
0.135963
0.13633
0.13668
0.137013
0.137332
0.137635
0.137924
0.138199
0.138458
0.138702
0.13893
0.13914
0.139335
0.139491
0.139717
0.0285199
0.0361329
0.0375214
0.0347898
0.0299073
0.0250257
0.0224193
0.0230921
0.0262389
0.03062
0.0354569
0.040396
0.0452605
0.0499667
0.0544638
0.0587524
0.0628829
0.0669471
0.0710243
0.0751185
0.0791528
0.0830263
0.0866731
0.0900775
0.0932507
0.0962045
0.0989483
0.101496
0.103867
0.106077
0.108145
0.110085
0.111909
0.113627
0.115247
0.116773
0.118213
0.119571
0.120851
0.122057
0.123195
0.124267
0.125278
0.12623
0.127129
0.127978
0.128779
0.129533
0.130243
0.130912
0.131544
0.132139
0.1327
0.13323
0.133731
0.134206
0.134656
0.135083
0.135488
0.135874
0.136242
0.136592
0.136926
0.137245
0.137549
0.137839
0.138115
0.138376
0.138623
0.138853
0.139066
0.139266
0.139426
0.139661
0.0353733
0.0453152
0.0483194
0.046575
0.0417866
0.0354768
0.0295888
0.0262467
0.0264025
0.0292824
0.0335533
0.0383126
0.0431688
0.0479275
0.0525069
0.056891
0.0611073
0.0652438
0.0693914
0.073573
0.0777229
0.0817357
0.0855303
0.0890754
0.0923722
0.0954294
0.0982576
0.100874
0.103299
0.105553
0.107658
0.109629
0.111481
0.113226
0.114873
0.116426
0.117891
0.119273
0.120576
0.121804
0.122961
0.124054
0.125084
0.126054
0.126969
0.127829
0.12864
0.129403
0.130122
0.130797
0.131434
0.132034
0.132599
0.133132
0.133636
0.134113
0.134564
0.134992
0.135399
0.135785
0.136153
0.136504
0.136838
0.137158
0.137463
0.137753
0.13803
0.138293
0.138541
0.138774
0.138991
0.139195
0.139359
0.139602
0.0421289
0.0541135
0.0587552
0.0584342
0.0546448
0.0484817
0.0411774
0.0344906
0.0303884
0.0298523
0.0322506
0.0362442
0.0408502
0.0455607
0.0501909
0.0546581
0.0589772
0.0632004
0.0674213
0.0716866
0.0759512
0.080112
0.0840737
0.0877858
0.0912356
0.0944259
0.0973671
0.100077
0.102579
0.104897
0.107053
0.109068
0.110959
0.112741
0.114423
0.116011
0.117511
0.118924
0.120259
0.121518
0.122704
0.123822
0.124874
0.125862
0.126792
0.127667
0.128489
0.129263
0.129991
0.130675
0.131318
0.131923
0.132493
0.133031
0.133538
0.134017
0.13447
0.1349
0.135308
0.135695
0.136064
0.136415
0.13675
0.13707
0.137375
0.137666
0.137944
0.138208
0.138458
0.138694
0.138913
0.139121
0.139289
0.13954
0.048859
0.0622259
0.0683687
0.0696864
0.0674143
0.0623918
0.0553769
0.0474064
0.0400442
0.0350937
0.0336114
0.0352251
0.0387275
0.0430383
0.0475671
0.0520484
0.0564425
0.0607543
0.0650499
0.0693923
0.0737646
0.0780761
0.0822211
0.086128
0.0897654
0.0931261
0.096217
0.0990548
0.101664
0.10407
0.106299
0.108376
0.110319
0.112147
0.113873
0.115507
0.117055
0.118517
0.119896
0.121194
0.122412
0.123556
0.124631
0.125641
0.12659
0.127482
0.12832
0.129107
0.129846
0.13054
0.131192
0.131805
0.132381
0.132923
0.133435
0.133917
0.134373
0.134805
0.135214
0.135603
0.135972
0.136324
0.13666
0.13698
0.137286
0.137577
0.137856
0.138121
0.138373
0.138611
0.138833
0.139044
0.139216
0.139476
0.0552394
0.069175
0.0766383
0.0796548
0.0791795
0.0758843
0.0702422
0.0628125
0.0544661
0.0465485
0.0406728
0.0379728
0.0384367
0.0411203
0.0449478
0.0491937
0.0535395
0.0578784
0.0622228
0.0666237
0.0710858
0.0755388
0.0798749
0.0840015
0.087864
0.0914394
0.0947256
0.0977353
0.100491
0.103021
0.105353
0.107514
0.109528
0.111416
0.113196
0.114895
0.11651
0.118034
0.119468
0.120808
0.122063
0.123241
0.124345
0.125382
0.126355
0.127268
0.128125
0.128928
0.129682
0.130388
0.131051
0.131673
0.132257
0.132807
0.133324
0.133811
0.134271
0.134705
0.135117
0.135507
0.135878
0.136231
0.136567
0.136888
0.137194
0.137487
0.137766
0.138032
0.138286
0.138525
0.13875
0.138965
0.13914
0.139407
0.0612878
0.0744578
0.0829596
0.0876045
0.0890096
0.0877763
0.0841366
0.0783874
0.0709576
0.0625485
0.0542615
0.0474819
0.0433755
0.0423051
0.0437444
0.0467583
0.0505577
0.0546856
0.0589605
0.0633516
0.0678543
0.0724144
0.0769287
0.0812876
0.085409
0.0892465
0.0927824
0.0960194
0.098975
0.101675
0.104151
0.106432
0.108544
0.110512
0.112362
0.114142
0.115841
0.117446
0.118943
0.120337
0.121639
0.122858
0.124001
0.125071
0.126074
0.127014
0.127894
0.128719
0.129491
0.130213
0.13089
0.131525
0.132119
0.132677
0.133202
0.133695
0.13416
0.134599
0.135014
0.135407
0.13578
0.136134
0.136471
0.136793
0.1371
0.137394
0.137674
0.137941
0.138196
0.138437
0.138664
0.138883
0.139061
0.139336
0.0692655
0.0778645
0.0867728
0.0928085
0.095939
0.0969027
0.0955719
0.0921274
0.0867611
0.0797672
0.0716694
0.0633173
0.0558364
0.0503331
0.047464
0.0471845
0.0489084
0.0519054
0.055614
0.0597281
0.064111
0.0686719
0.0732996
0.0778664
0.0822594
0.0863992
0.0902417
0.0937712
0.0969933
0.0999279
0.102603
0.105052
0.107304
0.109387
0.111331
0.113204
0.115003
0.116708
0.118288
0.119751
0.121115
0.122388
0.123579
0.124693
0.125734
0.126707
0.127618
0.128469
0.129264
0.130008
0.130703
0.131353
0.131961
0.132531
0.133065
0.133567
0.134039
0.134483
0.134903
0.135299
0.135675
0.136032
0.136372
0.136695
0.137003
0.137298
0.137579
0.137847
0.138103
0.138347
0.138576
0.138797
0.138978
0.13926
0.0800572
0.0829898
0.0884334
0.0950491
0.0991586
0.102228
0.10315
0.102228
0.0994934
0.0949868
0.0888823
0.0815454
0.0735808
0.065831
0.0592436
0.0546059
0.0522885
0.052172
0.0538057
0.0566673
0.0603404
0.0645398
0.069053
0.0736945
0.0783003
0.0827411
0.086929
0.0908146
0.0943792
0.0976273
0.100579
0.103263
0.105714
0.107963
0.110046
0.112024
0.113935
0.11576
0.117452
0.119011
0.120456
0.121801
0.123055
0.124224
0.125314
0.126332
0.127281
0.128167
0.128992
0.129762
0.130481
0.131151
0.131777
0.132362
0.132909
0.133422
0.133903
0.134356
0.134781
0.135184
0.135564
0.135924
0.136266
0.136592
0.136902
0.137198
0.13748
0.13775
0.138007
0.138253
0.138484
0.138708
0.138892
0.139181
0.0892731
0.0923679
0.0947705
0.0961731
0.0989559
0.10368
0.105923
0.107239
0.107167
0.105505
0.102249
0.0975054
0.0914633
0.0844757
0.0771036
0.0700707
0.0641268
0.0598652
0.0575813
0.0572466
0.0585991
0.0612729
0.0648913
0.0691094
0.0736314
0.0782206
0.0827027
0.0869612
0.0909281
0.0945725
0.0978918
0.100903
0.103634
0.106122
0.108406
0.110535
0.11257
0.114526
0.116368
0.118058
0.119615
0.121055
0.122392
0.123635
0.12479
0.125865
0.126865
0.127795
0.12866
0.129464
0.130213
0.13091
0.131559
0.132164
0.132728
0.133256
0.133749
0.134212
0.134647
0.135056
0.135442
0.135807
0.136153
0.136482
0.136795
0.137093
0.137377
0.137649
0.137908
0.138155
0.138389
0.138616
0.138802
0.139098
0.0912644
0.0951947
0.0983413
0.100747
0.102785
0.104405
0.104987
0.10726
0.10897
0.10954
0.108983
0.107341
0.104435
0.100212
0.0948197
0.0885919
0.082008
0.0756486
0.0701108
0.0659038
0.0633615
0.0626008
0.0635274
0.0658766
0.0692807
0.0733496
0.0777375
0.082178
0.0864878
0.090553
0.0943133
0.0977477
0.100863
0.103686
0.106256
0.10862
0.110828
0.11293
0.114936
0.116805
0.118517
0.12009
0.121541
0.122882
0.124124
0.125275
0.126341
0.12733
0.128247
0.129097
0.129885
0.130617
0.131296
0.131927
0.132514
0.133061
0.133571
0.134048
0.134494
0.134913
0.135308
0.13568
0.136031
0.136365
0.136681
0.136982
0.137269
0.137543
0.137805
0.138054
0.13829
0.13852
0.138709
0.139011
0.0833055
0.0883713
0.0928487
0.0968432
0.100364
0.103311
0.105541
0.107297
0.108265
0.10839
0.10859
0.10929
0.109329
0.108252
0.106051
0.102769
0.0984691
0.0933363
0.0877081
0.0820406
0.0768413
0.0725978
0.0697082
0.068416
0.0687619
0.0705796
0.0735465
0.0772735
0.0813918
0.0856068
0.0897129
0.0935848
0.0971593
0.100419
0.103381
0.106081
0.108565
0.110882
0.113059
0.115129
0.117053
0.118811
0.120422
0.1219
0.123261
0.124515
0.125672
0.12674
0.127726
0.128636
0.129477
0.130255
0.130974
0.13164
0.132256
0.132829
0.133361
0.133856
0.134318
0.134751
0.135156
0.135538
0.135897
0.136237
0.136559
0.136864
0.137155
0.137432
0.137696
0.137948
0.138187
0.138419
0.138611
0.13892
0.0633651
0.068508
0.0739254
0.0795437
0.0851908
0.0906395
0.0956366
0.0999742
0.103446
0.105942
0.107569
0.108459
0.108618
0.108054
0.107797
0.107561
0.106639
0.104672
0.10167
0.0978021
0.0933088
0.0885131
0.0838211
0.0796864
0.0765435
0.0747257
0.0743935
0.0755011
0.0778206
0.081013
0.0847161
0.0886138
0.0924714
0.0961408
0.0995488
0.102678
0.105546
0.108185
0.110636
0.112914
0.115065
0.117078
0.118914
0.120588
0.122117
0.123516
0.124798
0.125975
0.127055
0.128048
0.12896
0.1298
0.130572
0.131284
0.131941
0.132547
0.133109
0.133629
0.134112
0.134563
0.134983
0.135377
0.135747
0.136096
0.136425
0.136737
0.137032
0.137314
0.137581
0.137837
0.138079
0.138315
0.13851
0.138825
0.049454
0.0515456
0.0540997
0.05716
0.0607665
0.0649463
0.0697012
0.0749882
0.0806879
0.0865754
0.092335
0.0975773
0.10189
0.104961
0.106846
0.107722
0.107678
0.10674
0.105783
0.104789
0.103274
0.100961
0.097872
0.0942259
0.0903494
0.0866375
0.0835094
0.0813405
0.0803866
0.0807299
0.0822698
0.0847629
0.0878947
0.0913547
0.0948904
0.098331
0.101585
0.104616
0.107428
0.110032
0.112463
0.114713
0.116836
0.118784
0.120556
0.122164
0.123626
0.124958
0.126172
0.127279
0.128291
0.129215
0.130061
0.130836
0.131547
0.1322
0.132801