/*--------------------------------*- C++ -*----------------------------------*\
| =========                 |                                                 |
| \\      /  F ield         | OpenFOAM: The Open Source CFD Toolbox           |
|  \\    /   O peration     | Version:  5.x                                   |
|   \\  /    A nd           | Web:      www.OpenFOAM.org                      |
|    \\/     M anipulation  |                                                 |
\*---------------------------------------------------------------------------*/
FoamFile
{
    version     2.0;
    format      ascii;
    class       volScalarField;
    location    "150";
    object      nuTilda;
}
// * * * * * * * * * * * * * * * * * * * * * * * * * * * * * * * * * * * * * //

dimensions      [0 2 -1 0 0 0 0];

internalField   nonuniform List<scalar> 
11040
(
0.00312834
0.00376135
0.00408339
0.00416587
0.00406099
0.00386228
0.0036466
0.00347
0.00331107
0.00313612
0.00290131
0.0026682
0.00249139
0.00236608
0.00224717
0.00212938
0.00201253
0.00190035
0.00179277
0.00168775
0.00158304
0.00148961
0.00140599
0.00132242
0.00123764
0.00115056
0.00106066
0.000978233
0.00100072
0.000968175
0.000814616
0.000543798
0.000425642
0.000386682
0.000349516
0.000323146
0.000405012
0.000625914
0.000749079
0.000760128
0.000763295
0.00791668
0.00848402
0.00775226
0.00699958
0.00624582
0.00558999
0.00509455
0.00502748
0.00504154
0.00499649
0.00487094
0.00469597
0.00455075
0.00440055
0.00421611
0.00402447
0.00384485
0.0036824
0.00353579
0.00340241
0.00328061
0.00317926
0.00309173
0.00300998
0.00293361
0.00286114
0.0027915
0.00273005
0.00271249
0.00267823
0.00259726
0.0024586
0.00230109
0.00213209
0.00191389
0.00171314
0.00166267
0.001825
0.0021904
0.0027896
0.00329799
0.016117
0.0169838
0.0159655
0.0146849
0.0132613
0.0118416
0.0105319
0.00937138
0.00837867
0.00752526
0.00673189
0.00614711
0.00602763
0.00598294
0.00591715
0.00583727
0.00574481
0.00564608
0.00554841
0.00545606
0.00537
0.00530069
0.00523863
0.00517631
0.00511361
0.00505054
0.00498668
0.00492371
0.00487008
0.00481325
0.00474417
0.00465858
0.00456955
0.00448165
0.00435287
0.00412289
0.00403839
0.0043475
0.00483039
0.00540593
0.00629929
0.025475
0.0264308
0.0253438
0.0236981
0.0217664
0.0197674
0.0178301
0.0159932
0.014289
0.0127101
0.0111633
0.00982184
0.00883722
0.00809789
0.00778065
0.0076405
0.00754285
0.00746883
0.00741068
0.00736344
0.00732376
0.00729679
0.00727331
0.00724749
0.00721757
0.00718289
0.00714268
0.0070969
0.00704724
0.00699159
0.00692917
0.00686278
0.00680406
0.0067661
0.00673235
0.00661269
0.00653098
0.00685699
0.0075505
0.00860073
0.00963052
0.0356357
0.0365672
0.0355111
0.0336668
0.031389
0.0289159
0.0264108
0.0239138
0.0215329
0.0192851
0.0170612
0.0150595
0.0134576
0.0121912
0.0111386
0.0102634
0.00976901
0.0095273
0.00938724
0.00930175
0.00925293
0.00923332
0.00922604
0.00922201
0.00921738
0.00920985
0.00919716
0.00917747
0.00914976
0.00911311
0.00906865
0.00902197
0.00898629
0.00898244
0.00902007
0.00902431
0.00901202
0.00934
0.0102243
0.0117568
0.0133118
0.0462125
0.0470684
0.0461012
0.0442189
0.0417749
0.0389379
0.0359143
0.0328643
0.0299011
0.0270482
0.0241852
0.0215286
0.0193052
0.017509
0.0159632
0.0146144
0.0134908
0.0125284
0.0119818
0.0116718
0.0114855
0.0113792
0.0113156
0.0112731
0.0112464
0.0112301
0.0112188
0.0112079
0.0111939
0.0111745
0.0111495
0.0111238
0.0111098
0.0111304
0.0112139
0.011327
0.0114321
0.0117697
0.0127053
0.0144587
0.0172243
0.0568843
0.0576208
0.0567685
0.0549741
0.0525026
0.0495379
0.046289
0.0429079
0.0395257
0.0361839
0.0327656
0.0295017
0.0266674
0.0242944
0.0222061
0.0203513
0.0187077
0.0172399
0.0159679
0.0150128
0.0144669
0.0141269
0.0138857
0.013707
0.0135782
0.0134812
0.0134066
0.0133476
0.0132992
0.0132577
0.0132217
0.0131938
0.0131835
0.0132104
0.0133076
0.0134842
0.013707
0.014082
0.0149502
0.0166175
0.0196358
0.0672965
0.06792
0.0671969
0.0655721
0.063228
0.060355
0.0571254
0.0536611
0.0500888
0.0464566
0.0426569
0.0389192
0.0355523
0.0326288
0.0299941
0.0276089
0.0254506
0.0234927
0.0217083
0.0201
0.0187406
0.0178644
0.0173099
0.0169059
0.0165905
0.0163317
0.0161122
0.0159222
0.0157557
0.0156098
0.0154843
0.0153826
0.0153131
0.0152915
0.015346
0.0155081
0.0157795
0.0161907
0.0169497
0.0183353
0.0209475
0.0772089
0.0777157
0.0771126
0.0756971
0.0735933
0.0709665
0.0679466
0.064622
0.061096
0.0574067
0.0534563
0.0494523
0.0457093
0.0423376
0.0392259
0.0363527
0.0337051
0.0312652
0.0290106
0.0269196
0.0249821
0.0234156
0.0223012
0.0214822
0.0208516
0.02033
0.0198728
0.0194574
0.0190731
0.0187157
0.0183864
0.0180909
0.0178406
0.0176523
0.0175503
0.0175702
0.0177431
0.0180919
0.01871
0.0197581
0.0216668
0.0863827
0.0867846
0.0862913
0.0850968
0.0832873
0.0809947
0.0783107
0.0752909
0.072009
0.0684638
0.0645861
0.0605466
0.0566377
0.0529979
0.0495807
0.0463491
0.0433054
0.0404492
0.0377699
0.0352524
0.0328781
0.0308606
0.0292382
0.0279075
0.0268378
0.0259471
0.0251674
0.0244548
0.0237835
0.0231404
0.0225216
0.0219307
0.0213791
0.0208854
0.0204745
0.0201827
0.0200541
0.020128
0.0204616
0.0211249
0.0223244
0.0946669
0.0949818
0.0945848
0.0936011
0.0920932
0.090163
0.0878737
0.0852372
0.082308
0.079101
0.0755322
0.0717192
0.0679037
0.0642194
0.060643
0.0571992
0.0539031
0.0507725
0.04778
0.0449202
0.0421869
0.039836
0.0378598
0.0360858
0.0345769
0.0332953
0.0321693
0.0311412
0.0301716
0.0292353
0.0283181
0.0274152
0.0265305
0.0256768
0.024873
0.0241535
0.0235633
0.0231485
0.0229697
0.0230803
0.0235406
0.101996
0.10224
0.101922
0.101124
0.0998942
0.0983114
0.0964194
0.0942072
0.0917194
0.0889587
0.0858479
0.0824588
0.0789701
0.0754882
0.0720014
0.0685502
0.0651666
0.0618759
0.0586898
0.0556116
0.0526436
0.0500587
0.0478402
0.0457501
0.0438153
0.0421381
0.0406799
0.0393669
0.0381418
0.0369653
0.0358118
0.0346656
0.0335204
0.0323769
0.0312406
0.0301341
0.029092
0.0281487
0.0273596
0.0267889
0.026403
0.10837
0.108556
0.108296
0.107652
0.106663
0.105388
0.10386
0.102058
0.10002
0.0977399
0.0951522
0.0922945
0.0892733
0.086174
0.0829947
0.0797814
0.0765497
0.0733256
0.0701317
0.0669847
0.0638955
0.0611681
0.0588105
0.0565694
0.0544292
0.0523953
0.0505009
0.0488293
0.0473488
0.0459822
0.0446734
0.0433866
0.0421035
0.0408091
0.0394943
0.0381671
0.0368457
0.0355426
0.0342907
0.0331522
0.0319963
0.113836
0.113965
0.113748
0.113232
0.112443
0.111429
0.110212
0.108775
0.107144
0.105315
0.103235
0.100906
0.0984176
0.0958147
0.0930891
0.0902683
0.0873754
0.0844424
0.081471
0.0784761
0.0754728
0.0727706
0.0704004
0.0681273
0.0659387
0.0638231
0.0617734
0.0597985
0.0579159
0.056203
0.0546715
0.0532496
0.0518793
0.0505244
0.0491581
0.0477723
0.0463686
0.0449399
0.0434934
0.0420754
0.0404812
0.118449
0.118541
0.118362
0.117949
0.117326
0.116525
0.115564
0.114429
0.113144
0.111703
0.110055
0.108219
0.106244
0.104154
0.101935
0.0996009
0.0971647
0.0946405
0.0920413
0.0893785
0.0866709
0.0841876
0.081962
0.0797984
0.0776947
0.0756529
0.0736583
0.0717021
0.0697786
0.0678949
0.066064
0.0643063
0.0626965
0.0612221
0.0598134
0.0584275
0.0570434
0.0556366
0.0541962
0.0527486
0.0510763
0.122331
0.122393
0.122243
0.121911
0.121427
0.120792
0.120032
0.11914
0.118134
0.11701
0.11573
0.114307
0.112774
0.111144
0.109393
0.107535
0.105587
0.103543
0.101407
0.099185
0.0968842
0.0947392
0.0927912
0.0908763
0.0889949
0.0871463
0.085328
0.083536
0.081765
0.080009
0.0782632
0.0765311
0.0748184
0.0731355
0.0714829
0.0699145
0.0684648
0.0670755
0.065698
0.0643286
0.0627733
0.125585
0.125623
0.125497
0.125229
0.124844
0.124342
0.123744
0.123047
0.122262
0.12139
0.120402
0.11931
0.118136
0.116878
0.115531
0.114098
0.112583
0.110986
0.109314
0.107561
0.105725
0.103988
0.102388
0.100802
0.0992292
0.097671
0.0961264
0.0945943
0.0930729
0.0915591
0.0900492
0.0885395
0.0870263
0.0855061
0.0839716
0.0824316
0.0809018
0.079379
0.0778621
0.0764175
0.0748918
0.12818
0.128206
0.128102
0.127886
0.127576
0.127176
0.1267
0.126153
0.125532
0.124843
0.124069
0.123219
0.122309
0.121335
0.120296
0.119193
0.118027
0.116797
0.115502
0.114141
0.112713
0.111351
0.110087
0.108825
0.107569
0.106318
0.105073
0.103838
0.102606
0.101376
0.100147
0.0989153
0.0976793
0.0964353
0.0951747
0.0938969
0.0926031
0.0912834
0.0899361
0.0885772
0.0871298
0.130177
0.130195
0.130108
0.129931
0.129677
0.129356
0.128968
0.128522
0.12802
0.127466
0.126853
0.126178
0.125457
0.124689
0.123871
0.123007
0.122096
0.121137
0.120129
0.11907
0.117959
0.116894
0.1159
0.114908
0.113918
0.112932
0.111949
0.110969
0.109991
0.109015
0.108043
0.10707
0.106093
0.105112
0.104119
0.103113
0.102097
0.101059
0.0999956
0.0989103
0.0977513
0.131744
0.131758
0.131686
0.131538
0.131326
0.131058
0.130736
0.130368
0.129958
0.129503
0.129002
0.128455
0.127872
0.127258
0.126604
0.125914
0.125189
0.124429
0.123632
0.122799
0.121927
0.121088
0.120304
0.119522
0.118742
0.117965
0.117191
0.11642
0.115651
0.114884
0.114119
0.113354
0.112589
0.111824
0.111053
0.110275
0.109491
0.108694
0.10788
0.107052
0.10618
0.133005
0.133016
0.132956
0.132832
0.132652
0.132425
0.132157
0.131847
0.131503
0.131123
0.130707
0.130259
0.12978
0.129276
0.128743
0.128182
0.127597
0.126985
0.126347
0.125682
0.12499
0.124323
0.123699
0.123077
0.122459
0.121844
0.12123
0.120619
0.120015
0.119414
0.118816
0.118219
0.117623
0.11703
0.116434
0.115835
0.115233
0.114623
0.114004
0.113376
0.112727
0.134039
0.13405
0.133999
0.133893
0.133739
0.133544
0.133314
0.133053
0.132761
0.132443
0.132092
0.131716
0.131316
0.130897
0.130459
0.129998
0.129517
0.129018
0.1285
0.127962
0.127405
0.126868
0.126366
0.125867
0.125369
0.124879
0.124389
0.123903
0.123422
0.122948
0.122479
0.122012
0.121548
0.121088
0.120627
0.120166
0.119705
0.11924
0.11877
0.118295
0.117811
0.134901
0.134912
0.134869
0.134777
0.134643
0.134475
0.134276
0.134051
0.133803
0.13353
0.133234
0.132914
0.132579
0.132226
0.131858
0.131476
0.13108
0.130668
0.130241
0.1298
0.129346
0.128909
0.1285
0.128095
0.127692
0.127296
0.126903
0.126513
0.126128
0.125748
0.125376
0.125009
0.124647
0.124288
0.123929
0.123572
0.123217
0.12286
0.122502
0.122142
0.121779
0.13563
0.13564
0.135602
0.135523
0.135406
0.13526
0.135087
0.134891
0.134676
0.134439
0.134185
0.133911
0.133625
0.133328
0.133016
0.132694
0.132362
0.13202
0.131668
0.131304
0.13093
0.130571
0.130235
0.129902
0.129575
0.129253
0.128934
0.128618
0.128307
0.128002
0.127702
0.127407
0.12712
0.126837
0.126556
0.126278
0.126002
0.125727
0.125452
0.125178
0.124906
0.136251
0.136261
0.136229
0.136159
0.136057
0.135929
0.135777
0.135606
0.135417
0.135214
0.134993
0.134758
0.134512
0.134256
0.133992
0.13372
0.133438
0.133149
0.132853
0.132551
0.132243
0.131945
0.131666
0.131391
0.131121
0.130855
0.130593
0.130336
0.130083
0.129836
0.129594
0.129356
0.129125
0.128898
0.128675
0.128457
0.128243
0.12803
0.127818
0.127607
0.1274
0.136786
0.136795
0.136768
0.136707
0.136618
0.136505
0.136371
0.13622
0.136054
0.135876
0.135684
0.13548
0.135268
0.135047
0.134819
0.134585
0.134346
0.134103
0.133853
0.133598
0.13334
0.133091
0.132859
0.132631
0.132406
0.132186
0.13197
0.131758
0.131551
0.131349
0.131151
0.130959
0.130772
0.130589
0.13041
0.130236
0.130065
0.129899
0.129735
0.129572
0.129415
0.13725
0.137259
0.137236
0.137183
0.137104
0.137004
0.136886
0.136753
0.136606
0.136448
0.136279
0.136102
0.135917
0.135726
0.13553
0.13533
0.135124
0.134915
0.134703
0.134488
0.13427
0.134061
0.133865
0.133674
0.133486
0.133302
0.133123
0.132947
0.132776
0.13261
0.132448
0.132291
0.132138
0.13199
0.131846
0.131706
0.131569
0.131436
0.131306
0.131178
0.131058
0.137655
0.137665
0.137645
0.137599
0.137529
0.13744
0.137335
0.137216
0.137086
0.136946
0.136797
0.136641
0.136479
0.136313
0.136144
0.13597
0.135793
0.135614
0.135432
0.135248
0.135064
0.134887
0.134721
0.13456
0.134401
0.134247
0.134096
0.13395
0.133808
0.13367
0.133537
0.133408
0.133283
0.133162
0.133045
0.132932
0.132822
0.132715
0.132611
0.13251
0.132415
0.138011
0.138021
0.138005
0.137964
0.137902
0.137823
0.137729
0.137623
0.137507
0.137382
0.13725
0.137112
0.136969
0.136823
0.136674
0.136523
0.13637
0.136215
0.136059
0.135903
0.135746
0.135595
0.135453
0.135315
0.135181
0.135051
0.134924
0.134801
0.134683
0.134568
0.134457
0.134351
0.134248
0.134149
0.134054
0.133962
0.133873
0.133787
0.133703
0.133623
0.133548
0.138325
0.138336
0.138323
0.138287
0.138232
0.13816
0.138076
0.137981
0.137878
0.137767
0.137649
0.137526
0.1374
0.137271
0.13714
0.137007
0.136873
0.136739
0.136605
0.13647
0.136336
0.136206
0.136085
0.135967
0.135852
0.135741
0.135634
0.135531
0.135431
0.135335
0.135243
0.135154
0.13507
0.134988
0.13491
0.134835
0.134762
0.134693
0.134626
0.134561
0.134502
0.138604
0.138616
0.138605
0.138573
0.138523
0.138459
0.138383
0.138299
0.138206
0.138107
0.138003
0.137894
0.137782
0.137668
0.137552
0.137435
0.137318
0.1372
0.137083
0.136967
0.136852
0.13674
0.136635
0.136534
0.136436
0.136341
0.13625
0.136162
0.136078
0.135997
0.13592
0.135846
0.135776
0.135708
0.135644
0.135582
0.135523
0.135467
0.135413
0.135361
0.135314
0.138852
0.138865
0.138855
0.138826
0.138781
0.138724
0.138657
0.138582
0.1385
0.138412
0.138319
0.138223
0.138123
0.138022
0.13792
0.137817
0.137714
0.137611
0.137508
0.137407
0.137307
0.13721
0.13712
0.137032
0.136948
0.136866
0.136789
0.136714
0.136642
0.136574
0.136509
0.136448
0.136389
0.136333
0.136279
0.136229
0.136181
0.136135
0.136091
0.136049
0.136012
0.139074
0.139087
0.139079
0.139052
0.139012
0.138962
0.138902
0.138836
0.138764
0.138686
0.138605
0.138519
0.138432
0.138342
0.138252
0.138161
0.13807
0.137979
0.13789
0.137801
0.137714
0.13763
0.137551
0.137476
0.137403
0.137333
0.137266
0.137202
0.137141
0.137084
0.137029
0.136977
0.136928
0.136881
0.136837
0.136795
0.136756
0.136718
0.136683
0.136649
0.13662
0.139272
0.139285
0.139278
0.139254
0.139219
0.139176
0.139125
0.139067
0.139004
0.138937
0.138865
0.13879
0.138712
0.138634
0.138554
0.138474
0.138394
0.138314
0.138235
0.138158
0.138082
0.138009
0.137941
0.137875
0.137812
0.137751
0.137694
0.137639
0.137587
0.137538
0.137492
0.137448
0.137407
0.137368
0.137331
0.137297
0.137265
0.137234
0.137206
0.137179
0.137155
0.139451
0.139463
0.139456
0.139435
0.139406
0.13937
0.139328
0.139279
0.139225
0.139167
0.139105
0.139039
0.138971
0.138902
0.138832
0.138761
0.138691
0.138621
0.138552
0.138484
0.138419
0.138355
0.138295
0.138238
0.138183
0.138131
0.138082
0.138035
0.137991
0.137949
0.13791
0.137873
0.137838
0.137806
0.137775
0.137747
0.137721
0.137696
0.137673
0.137652
0.137633
0.139611
0.139621
0.139615
0.139599
0.139577
0.139549
0.139515
0.139476
0.139431
0.139382
0.139328
0.139272
0.139213
0.139153
0.139092
0.13903
0.138968
0.138907
0.138847
0.138788
0.138731
0.138675
0.138623
0.138574
0.138526
0.138481
0.138439
0.138399
0.138361
0.138326
0.138292
0.138261
0.138233
0.138206
0.138181
0.138158
0.138138
0.138119
0.138102
0.138088
0.138078
0.139753
0.139762
0.139757
0.139748
0.139734
0.139714
0.139689
0.139659
0.139624
0.139584
0.13954
0.139493
0.139444
0.139393
0.139341
0.139288
0.139235
0.139182
0.13913
0.139079
0.13903
0.138983
0.138938
0.138895
0.138854
0.138816
0.13878
0.138746
0.138714
0.138685
0.138659
0.138634
0.138613
0.138594
0.138579
0.138566
0.138557
0.138551
0.138548
0.138547
0.138553
0.139878
0.139884
0.139883
0.13988
0.139874
0.139863
0.139847
0.139827
0.139802
0.139774
0.139742
0.139707
0.13967
0.13963
0.13959
0.139548
0.139506
0.139463
0.139422
0.139381
0.139342
0.139304
0.139269
0.139235
0.139204
0.139176
0.13915
0.139128
0.139108
0.139091
0.139078
0.139067
0.139059
0.139054
0.139052
0.139052
0.139055
0.139059
0.139065
0.139073
0.139084
0.139973
0.139978
0.139981
0.139982
0.139981
0.139976
0.139969
0.139959
0.139946
0.139931
0.139914
0.139895
0.139875
0.139852
0.139829
0.139805
0.139781
0.139756
0.139732
0.139708
0.139687
0.139665
0.139645
0.139626
0.139608
0.139592
0.139578
0.139565
0.139555
0.139546
0.13954
0.139535
0.139532
0.13953
0.13953
0.139531
0.139534
0.139538
0.139542
0.139548
0.139556
0.140023
0.140027
0.14003
0.140032
0.140033
0.140031
0.140029
0.140025
0.140019
0.140013
0.140005
0.139997
0.139987
0.139977
0.139966
0.139954
0.139942
0.139931
0.139919
0.139907
0.139897
0.139886
0.139876
0.139867
0.139858
0.13985
0.139842
0.139836
0.139831
0.139826
0.139823
0.139821
0.139819
0.139818
0.139818
0.139819
0.139821
0.139823
0.139826
0.139829
0.139834
0.140048
0.140053
0.140056
0.140058
0.14006
0.140061
0.140061
0.14006
0.140059
0.140057
0.140054
0.140051
0.140047
0.140043
0.140038
0.140033
0.140028
0.140023
0.140017
0.140012
0.140007
0.140002
0.139997
0.139993
0.139989
0.139986
0.139982
0.13998
0.139977
0.139976
0.139974
0.139973
0.139973
0.139973
0.139974
0.139975
0.139976
0.139978
0.13998
0.139983
0.139986
0.140061
0.140065
0.140068
0.140071
0.140074
0.140076
0.140078
0.140079
0.140081
0.140081
0.140082
0.140082
0.140082
0.140081
0.14008
0.140079
0.140077
0.140076
0.140074
0.140072
0.140071
0.140069
0.140068
0.140066
0.140065
0.140064
0.140063
0.140062
0.140062
0.140062
0.140062
0.140062
0.140063
0.140063
0.140065
0.140066
0.140068
0.140069
0.140072
0.140074
0.140077
0.140065
0.140069
0.140072
0.140075
0.140078
0.140081
0.140084
0.140088
0.14009
0.140093
0.140096
0.140098
0.1401
0.140101
0.140103
0.140104
0.140105
0.140106
0.140107
0.140108
0.140108
0.140109
0.140109
0.14011
0.14011
0.140111
0.140112
0.140112
0.140113
0.140114
0.140115
0.140116
0.140117
0.140119
0.14012
0.140122
0.140124
0.140126
0.140128
0.14013
0.140133
0.140063
0.140066
0.140069
0.140072
0.140076
0.14008
0.140083
0.140087
0.140091
0.140095
0.140099
0.140102
0.140106
0.140109
0.140112
0.140115
0.140118
0.140121
0.140123
0.140126
0.140128
0.14013
0.140132
0.140134
0.140136
0.140138
0.140139
0.140141
0.140143
0.140144
0.140146
0.140148
0.14015
0.140152
0.140154
0.140156
0.140158
0.14016
0.140162
0.140164
0.140166
0.140056
0.140059
0.140061
0.140064
0.140068
0.140072
0.140076
0.14008
0.140084
0.140088
0.140092
0.140097
0.140101
0.140105
0.140109
0.140113
0.140117
0.140121
0.140124
0.140128
0.140131
0.140135
0.140138
0.140141
0.140143
0.140146
0.140149
0.140151
0.140154
0.140156
0.140158
0.14016
0.140163
0.140165
0.140167
0.140169
0.140171
0.140173
0.140176
0.140178
0.14018
0.140045
0.140047
0.140049
0.140051
0.140054
0.140058
0.140061
0.140065
0.140069
0.140073
0.140077
0.140081
0.140085
0.140089
0.140093
0.140097
0.140101
0.140105
0.140109
0.140113
0.140117
0.140121
0.140125
0.140129
0.140132
0.140136
0.140139
0.140142
0.140145
0.140148
0.140151
0.140153
0.140156
0.140158
0.140161
0.140163
0.140165
0.140168
0.14017
0.140172
0.140174
0.140029
0.140031
0.140032
0.140034
0.140036
0.140039
0.140041
0.140044
0.140047
0.140049
0.140052
0.140054
0.140057
0.140059
0.140061
0.140063
0.140064
0.140065
0.140067
0.140069
0.140072
0.140075
0.140079
0.140082
0.140086
0.14009
0.140094
0.140098
0.140102
0.140105
0.140109
0.140112
0.140116
0.140119
0.140122
0.140125
0.140128
0.140131
0.140134
0.140136
0.140139
0.140011
0.140011
0.140012
0.140012
0.140013
0.140014
0.140015
0.140016
0.140017
0.140018
0.140018
0.140019
0.140019
0.140018
0.140015
0.140013
0.14
0.139983
0.139964
0.139955
0.139948
0.139943
0.13994
0.139937
0.139935
0.139934
0.139934
0.139934
0.139935
0.139936
0.139937
0.139939
0.139941
0.139943
0.139945
0.139948
0.13995
0.139953
0.139955
0.139958
0.139961
0.00370037
0.00454838
0.00525199
0.00659271
0.00854324
0.0108658
0.0134214
0.0161314
0.0189623
0.0218845
0.0248774
0.0279444
0.0310788
0.0342698
0.0375054
0.0407725
0.0440611
0.0473615
0.050666
0.0539804
0.0573744
0.0609735
0.0648666
0.069005
0.0732028
0.0772536
0.0810345
0.084516
0.0877227
0.0906931
0.0934607
0.0960508
0.098485
0.100782
0.102958
0.105027
0.106998
0.108881
0.110683
0.112415
0.114075
0.115653
0.117145
0.118557
0.119891
0.121149
0.122335
0.123451
0.1245
0.125486
0.126412
0.127282
0.128098
0.128865
0.129586
0.130265
0.130905
0.13151
0.132083
0.132625
0.133141
0.13363
0.134096
0.13454
0.134963
0.135366
0.135752
0.136121
0.136474
0.136812
0.137133
0.13745
0.137713
0.138155
0.0078573
0.00843223
0.00789304
0.00773081
0.00854145
0.0102217
0.0124498
0.0149862
0.0177148
0.0205739
0.0235274
0.0265679
0.0296848
0.0328641
0.0360983
0.039371
0.0426679
0.0459829
0.0493081
0.0526442
0.0560649
0.0597096
0.0636811
0.0679365
0.0722786
0.0764771
0.0803893
0.0839767
0.0872641
0.0902957
0.0931102
0.0957372
0.0982011
0.100523
0.102719
0.104806
0.106793
0.108689
0.110503
0.11224
0.113902
0.115481
0.116977
0.118394
0.119732
0.120996
0.122187
0.12331
0.124366
0.125358
0.126291
0.127167
0.127989
0.128762
0.129488
0.130171
0.130814
0.131422
0.131996
0.132539
0.133055
0.133544
0.134009
0.134452
0.134874
0.135276
0.135662
0.13603
0.136382
0.136719
0.13704
0.137357
0.137619
0.13806
0.0120127
0.0132959
0.0125711
0.0112995
0.0105284
0.0107809
0.0120515
0.0140466
0.0164796
0.0191716
0.0220268
0.0250058
0.0280851
0.031244
0.0344691
0.037742
0.0410431
0.0443734
0.0477189
0.0510754
0.0545166
0.0581895
0.0622122
0.0665606
0.0710409
0.0754016
0.0794727
0.0831977
0.0865964
0.089716
0.0926009
0.0952851
0.0977963
0.100158
0.102389
0.104504
0.106516
0.108434
0.110266
0.112016
0.113686
0.115271
0.116775
0.118199
0.119546
0.120818
0.122019
0.12315
0.124216
0.125218
0.12616
0.127045
0.127876
0.128656
0.129388
0.130077
0.130725
0.131337
0.131914
0.132459
0.132976
0.133465
0.13393
0.134372
0.134793
0.135195
0.135578
0.135945
0.136296
0.136632
0.136952
0.137267
0.137528
0.137969
0.0148423
0.0174769
0.0175814
0.0163401
0.0147643
0.013612
0.0133564
0.01412
0.0157384
0.0179449
0.0205184
0.0233288
0.0263057
0.0294046
0.032597
0.0358577
0.0391626
0.0425052
0.0458701
0.0492443
0.0527006
0.0563798
0.0604178
0.0648261
0.0694291
0.0739618
0.0782196
0.082119
0.0856659
0.0889073
0.0918915
0.0946581
0.0972386
0.0996591
0.10194
0.104099
0.106148
0.108098
0.109956
0.111728
0.113414
0.115014
0.116531
0.117969
0.119329
0.120615
0.121829
0.122973
0.124051
0.125065
0.126019
0.126914
0.127755
0.128544
0.129286
0.129982
0.130636
0.131252
0.131833
0.132381
0.132899
0.13339
0.133855
0.134297
0.134717
0.135117
0.135499
0.135864
0.136213
0.136548
0.136866
0.13718
0.137439
0.137879
0.0166114
0.0205476
0.0217286
0.0212486
0.0199218
0.0183374
0.0170019
0.0163287
0.0165466
0.0176535
0.0194805
0.02182
0.0245065
0.0274285
0.0305155
0.0337188
0.0370006
0.040341
0.0437199
0.0471179
0.0505857
0.054253
0.0582673
0.0626931
0.0673877
0.0720816
0.0765472
0.080661
0.0843997
0.0878046
0.0909248
0.0938056
0.0964829
0.0989864
0.101339
0.10356
0.105663
0.107658
0.109554
0.111357
0.113069
0.114693
0.116231
0.117689
0.119069
0.120373
0.121604
0.122766
0.12386
0.12489
0.125858
0.126767
0.127621
0.128422
0.129173
0.129878
0.13054
0.131163
0.131749
0.132301
0.132822
0.133314
0.13378
0.134222
0.134642
0.135042
0.135422
0.135786
0.136133
0.136466
0.136782
0.137095
0.137353
0.137791
0.0185065
0.0226182
0.0245209
0.0249332
0.0244753
0.0234079
0.0220247
0.0206766
0.0197173
0.0194281
0.0199457
0.0212456
0.0231958
0.0256317
0.0284103
0.0314252
0.0346
0.0378862
0.041248
0.0446539
0.0481251
0.0517671
0.0557331
0.0601269
0.0648652
0.0696939
0.0743734
0.0787273
0.0827041
0.0863231
0.0896246
0.0926596
0.0954691
0.0980866
0.100538
0.102846
0.105023
0.107082
0.109032
0.11088
0.112631
0.114288
0.115858
0.117344
0.11875
0.120079
0.121334
0.122518
0.123634
0.124683
0.12567
0.126596
0.127466
0.128281
0.129046
0.129762
0.130435
0.131066
0.131659
0.132216
0.132741
0.133237
0.133705
0.134148
0.134568
0.134967
0.135347
0.135709
0.136055
0.136385
0.1367
0.137011
0.137267
0.137703
0.0222155
0.0243685
0.0261081
0.0269466
0.0274843
0.027406
0.026749
0.0257026
0.0245071
0.0234395
0.0227762
0.0227338
0.0234211
0.0248255
0.0268454
0.0293425
0.0321837
0.0352654
0.0385123
0.0418649
0.0453059
0.0488985
0.0527801
0.057085
0.0618022
0.0667298
0.0716131
0.0762264
0.0804764
0.0843569
0.0878909
0.0911297
0.0941168
0.0968886
0.099475
0.1019
0.104181
0.106328
0.108354
0.110266
0.112071
0.113778
0.115391
0.116916
0.118358
0.11972
0.121006
0.122219
0.123361
0.124435
0.125445
0.126393
0.127282
0.128116
0.128897
0.129628
0.130313
0.130955
0.131557
0.132123
0.132654
0.133154
0.133626
0.134071
0.134492
0.134892
0.135271
0.135632
0.135977
0.136306
0.136619
0.136928
0.137183
0.137617
0.023953
0.0261927
0.0276444
0.0276891
0.0289234
0.0296743
0.0299272
0.029728
0.0291207
0.0282394
0.0272782
0.0264614
0.0260161
0.0261294
0.0269066
0.0283538
0.0303951
0.0329131
0.0357876
0.0389115
0.0422118
0.0456873
0.0494278
0.0535709
0.0581742
0.0631156
0.0681564
0.0730382
0.0776047
0.0818
0.0856197
0.0891208
0.0923405
0.0953148
0.0980744
0.10065
0.103069
0.105339
0.107469
0.109471
0.111354
0.113128
0.114801
0.116379
0.11787
0.119276
0.120602
0.121852
0.123028
0.124134
0.125173
0.126148
0.127062
0.127918
0.12872
0.129469
0.130171
0.130827
0.131441
0.132017
0.132556
0.133063
0.13354
0.133989
0.134413
0.134814
0.135194
0.135555
0.135899
0.136227
0.136539
0.136846
0.1371
0.13753
0.0242593
0.0266115
0.0285735
0.0297151
0.0305202
0.0308475
0.0314266
0.0319447
0.0321167
0.0319674
0.0315383
0.0309001
0.0301919
0.0296015
0.0293284
0.0295448
0.0303596
0.0317999
0.0338186
0.036319
0.0391899
0.0423556
0.0458236
0.0496879
0.0540421
0.058854
0.0639407
0.0690383
0.0739273
0.0784859
0.0826696
0.0865038
0.0900229
0.0932599
0.0962444
0.0990188
0.101608
0.104035
0.106309
0.108435
0.110427
0.112294
0.114049
0.1157
0.117255
0.11872
0.120099
0.121397
0.122618
0.123764
0.12484
0.125849
0.126794
0.127679
0.128506
0.129278
0.13
0.130674
0.131304
0.131893
0.132444
0.13296
0.133444
0.133899
0.134327
0.134731
0.135113
0.135475
0.135819
0.136147
0.136458
0.136764
0.137016
0.137445
0.0241101
0.0260217
0.0280398
0.0299049
0.0314595
0.0325244
0.0331799
0.0335062
0.0335792
0.0338861
0.0341408
0.0341517
0.0339345
0.0335549
0.0331099
0.0327434
0.0326268
0.0329215
0.033744
0.0351435
0.0370989
0.0395457
0.0424338
0.0457816
0.0496633
0.0541114
0.059028
0.0641854
0.0693238
0.0742447
0.0788381
0.0830772
0.0869752
0.0905584
0.0938525
0.0968947
0.0997036
0.102326
0.104777
0.107075
0.109216
0.111213
0.113081
0.114832
0.116475
0.118018
0.119467
0.120829
0.122106
0.123305
0.124429
0.125481
0.126465
0.127385
0.128244
0.129045
0.129793
0.13049
0.13114
0.131746
0.132312
0.132841
0.133335
0.133798
0.134233
0.134642
0.135027
0.135392
0.135737
0.136066
0.136376
0.136682
0.136933
0.137359
0.0246203
0.0258888
0.027355
0.0289816
0.0306964
0.0323662
0.0338362
0.034962
0.0356523
0.0360162
0.0361166
0.0360132
0.0361155
0.0362485
0.0362452
0.0361103
0.0359179
0.0357775
0.0358245
0.036201
0.0370246
0.0383629
0.0402385
0.0426689
0.0457059
0.0494123
0.05378
0.0586661
0.0638215
0.0689852
0.0739596
0.0786377
0.0829821
0.0869932
0.0906851
0.0940847
0.0972119
0.100105
0.102779
0.105279
0.10762
0.109796
0.11182
0.113707
0.11547
0.117119
0.118663
0.120108
0.121462
0.122729
0.123914
0.125021
0.126055
0.12702
0.12792
0.128759
0.129539
0.130265
0.130941
0.131569
0.132155
0.1327
0.133208
0.133682
0.134126
0.134543
0.134934
0.135302
0.135651
0.135981
0.136292
0.136598
0.136849
0.137273
0.026907
0.0276632
0.0285534
0.0295537
0.0306798
0.0319449
0.0333318
0.0347719
0.0361433
0.0373159
0.0381822
0.0386708
0.0388611
0.0388274
0.038523
0.0384335
0.0384807
0.0385346
0.0385654
0.0386354
0.0388476
0.0393169
0.0401513
0.0414461
0.0432994
0.0458245
0.0491155
0.0531711
0.0578468
0.0628906
0.068033
0.073063
0.0778527
0.0823413
0.0865083
0.0903576
0.0939009
0.0971642
0.100166
0.102946
0.105513
0.10792
0.110154
0.112228
0.114156
0.115951
0.117623
0.119183
0.120638
0.121995
0.123261
0.124441
0.12554
0.126564
0.127516
0.128401
0.129224
0.129987
0.130696
0.131353
0.131964
0.13253
0.133057
0.133547
0.134004
0.13443
0.13483
0.135205
0.135557
0.135891
0.136205
0.136511
0.136763
0.137186
0.0320211
0.0323826
0.0328401
0.033341
0.0338823
0.034481
0.0351662
0.0359682
0.0369018
0.0379479
0.0390463
0.0400982
0.0409934
0.0416441
0.0419556
0.041982
0.0417988
0.0414227
0.0411127
0.0410328
0.0411153
0.0413085
0.0416452
0.0422003
0.0430731
0.0443945
0.0463259
0.0490171
0.0525279
0.0567717
0.0615337
0.0665492
0.0715844
0.0764745
0.0811213
0.0854762
0.0895197
0.0932543
0.0966907
0.099855
0.102763
0.105459
0.107936
0.110261
0.112413
0.114407
0.116257
0.117973
0.119567
0.121047
0.122422
0.123699
0.124884
0.125985
0.127006
0.127952
0.128828
0.12964
0.130391
0.131086
0.131729
0.132324
0.132875
0.133385
0.133859
0.1343
0.134711
0.135095
0.135455
0.135794
0.136112
0.136421
0.136675
0.137098
0.0401545
0.0402092
0.0403375
0.0404778
0.0406153
0.040749
0.0408873
0.0410477
0.0412576
0.0415502
0.0419558
0.0424898
0.0431385
0.0438563
0.0445641
0.0451643
0.0455717
0.0457082
0.0455691
0.0452206
0.0447274
0.0441589
0.043906
0.0439627
0.0442766
0.0448527
0.0457716
0.0471769
0.0492374
0.0520762
0.0557005
0.0599825
0.0647032
0.0696251
0.0745467
0.0793249
0.0838695
0.0881317
0.0920903
0.095746
0.0991073
0.102201
0.105038
0.107665
0.110076
0.11234
0.114431
0.116363
0.118148
0.119797
0.121322
0.122731
0.124034
0.125238
0.12635
0.127377
0.128326
0.1292
0.130007
0.130751
0.131437
0.132068
0.132651
0.133189
0.133686
0.134146
0.134573
0.13497
0.135341
0.135688
0.136012
0.136326
0.136583
0.137008
0.0505444
0.0503841
0.0502781
0.0501706
0.0500464
0.0498995
0.0497277
0.0495315
0.0493164
0.049094
0.0488842
0.0487149
0.0486184
0.0486243
0.0487507
0.0489928
0.0493176
0.0496645
0.0499505
0.0500914
0.0500184
0.0496769
0.0491247
0.0484523
0.0477109
0.0472063
0.0471266
0.0474869
0.0483245
0.0497467
0.0518773
0.0547852
0.0584352
0.0626871
0.0673367
0.0721699
0.0770037
0.0817028
0.086178
0.0903788
0.094281
0.0978836
0.101192
0.104233
0.10702
0.1096
0.111966
0.114187
0.116234
0.118117
0.11985
0.121443
0.122908
0.124255
0.125493
0.126631
0.127676
0.128635
0.129517
0.130325
0.131067
0.131748
0.132374
0.132948
0.133476
0.133962
0.13441
0.134825
0.13521
0.135569
0.135902
0.136223
0.136485
0.136915
0.0621455
0.0618496
0.0615927
0.0613292
0.0610468
0.0607402
0.0604052
0.0600384
0.0596368
0.0591988
0.0587255
0.0582221
0.0576996
0.0571764
0.0566779
0.0562342
0.0558745
0.0556199
0.0554743
0.0554174
0.0554041
0.0553653
0.0552189
0.0548973
0.054341
0.0535677
0.0526656
0.0517408
0.0509164
0.0506439
0.0510516
0.0522166
0.054204
0.0570286
0.0606186
0.0648171
0.0694171
0.074206
0.079001
0.0836652
0.0881074