/*--------------------------------*- C++ -*----------------------------------*\
| =========                 |                                                 |
| \\      /  F ield         | OpenFOAM: The Open Source CFD Toolbox           |
|  \\    /   O peration     | Version:  5.x                                   |
|   \\  /    A nd           | Web:      www.OpenFOAM.org                      |
|    \\/     M anipulation  |                                                 |
\*---------------------------------------------------------------------------*/
FoamFile
{
    version     2.0;
    format      ascii;
    class       volScalarField;
    location    "150";
    object      p;
}
// * * * * * * * * * * * * * * * * * * * * * * * * * * * * * * * * * * * * * //

dimensions      [0 2 -2 0 0 0 0];

internalField   nonuniform List<scalar> 
11040
(
0.0194444
-53.723
-182.059
-216.618
-228.045
-235.004
-235.662
-229.968
-219.774
-205.685
-187.463
-159.64
-132.895
-113.778
-100.314
-85.9829
-71.4552
-57.7369
-44.7497
-32.2238
-20.1214
-9.69481
-1.00672
7.0887
14.6252
21.6033
28.0069
33.8172
38.9949
43.4785
47.2036
50.1497
52.359
53.9386
55.0629
55.7733
55.8858
55.5508
55.7288
58.0279
57.796
19.5334
-32.562
-115.166
-157.301
-179.389
-195.585
-205.095
-207.179
-203.23
-194.197
-180.227
-157.092
-132.781
-113.991
-100.235
-86.0651
-71.6966
-58.0446
-45.0952
-32.5983
-20.5121
-10.1056
-1.39575
6.721
14.2805
21.2855
27.7217
33.5696
38.7872
43.3119
47.0819
50.073
52.3166
53.9151
55.0554
55.7941
55.9314
55.5657
55.5143
57.2654
56.7155
32.5208
-18.1243
-77.5878
-127.024
-156.466
-175.924
-187.995
-192.527
-190.77
-183.812
-172.225
-153.012
-131.05
-112.705
-98.9044
-85.2595
-71.2908
-57.8444
-45.0366
-32.653
-20.6478
-10.2791
-1.58812
6.51653
14.0708
21.078
27.5242
33.3886
38.6282
43.1816
46.9874
50.0158
52.2922
53.9134
55.067
55.8282
55.9894
55.636
55.4938
56.7981
56.0502
41.5533
-3.74986
-48.2857
-93.463
-124.878
-147.154
-162.985
-171.755
-173.868
-170.344
-162.027
-146.932
-127.901
-110.589
-96.967
-83.9124
-70.4639
-57.33
-44.7445
-32.5389
-20.6643
-10.3789
-1.73556
6.33865
13.8741
20.8729
27.3212
33.1966
38.4561
43.0389
46.8826
49.9532
52.2705
53.9233
55.0899
55.8615
56.0399
55.7002
55.5056
56.4986
55.8834
48.6104
9.76689
-24.8195
-63.5057
-95.1404
-119.31
-137.638
-149.63
-155.183
-155.014
-150.001
-138.988
-123.366
-107.633
-94.4167
-81.9803
-69.18
-56.4861
-44.2134
-32.2624
-20.5865
-10.4364
-1.87396
6.14198
13.6355
20.6072
27.0436
32.9208
38.196
42.8093
46.698
49.8246
52.2014
53.9056
55.099
55.8807
56.0811
55.7663
55.5327
56.3548
56.0945
53.9507
21.5625
-6.02147
-38.1337
-67.4796
-91.706
-111.295
-125.712
-134.372
-137.546
-135.943
-128.972
-117.069
-103.474
-91.0566
-79.3514
-67.336
-55.2246
-43.3674
-31.7546
-20.3528
-10.3923
-1.95489
5.96372
13.3818
20.2979
26.6984
32.5588
37.8367
42.4743
46.4099
49.603
52.0573
53.8362
55.0774
55.8807
56.1193
55.8609
55.6204
56.3786
56.4804
57.9792
31.431
9.04465
-17.2175
-42.8964
-65.6497
-85.1913
-100.886
-111.873
-118.003
-119.679
-116.585
-108.569
-97.6949
-86.631
-75.8826
-64.8054
-53.4395
-42.128
-30.9546
-19.9131
-10.2079
-1.94923
5.82648
13.1292
19.9535
26.2863
32.103
37.363
42.0118
45.9904
49.2561
51.8045
53.6837
55.0021
55.8533
56.1594
56.0023
55.8139
56.5564
56.9835
61.0156
39.4223
21.0878
-0.251466
-21.895
-42.1599
-60.5307
-76.3302
-88.63
-96.9829
-101.475
-101.855
-97.6315
-89.8879
-80.7637
-71.3179
-61.3858
-50.9662
-40.3702
-29.766
-19.1948
-9.82964
-1.81536
5.76184
12.9
19.5875
25.8109
31.5469
36.7578
41.3941
45.402
48.7392
51.3939
53.3988
54.8324
55.7766
56.1996
56.2013
56.1346
56.9066
57.6125
63.2878
45.7462
30.6575
13.3516
-4.48695
-21.8216
-38.2389
-53.1402
-65.6973
-75.3388
-81.9116
-85.1269
-84.3051
-79.8019
-73.0862
-65.3459
-56.8198
-47.5834
-37.9157
-28.0474
-18.083
-9.16161
-1.47194
5.83599
12.7476
19.2429
25.3057
30.9133
36.0318
40.6183
44.6268
48.0191
50.7795
52.9273
54.5157
55.6124
56.2226
56.4595
56.5975
57.4768
58.3659
64.9582
50.6723
38.2152
24.179
9.65786
-4.76195
-18.8549
-32.1853
-44.1078
-54.084
-61.8407
-67.0572
-68.9768
-67.4776
-63.3841
-57.6946
-50.8506
-43.0446
-34.546
-25.6193
-16.4304
-8.07818
-0.808811
6.1434
12.7534
18.9916
24.8354
30.2607
35.2365
39.7265
43.6934
47.1064
49.9507
52.2388
54.0073
55.3123
56.1842
56.7438
57.1826
58.2594
59.2485
66.157
54.4718
44.1587
32.7598
21.0097
9.22306
-2.52536
-13.9723
-24.661
-34.1786
-42.2451
-48.5538
-52.3736
-53.324
-51.7256
-48.2374
-43.2862
-37.1289
-30.0339
-22.274
-14.06
-6.42824
0.306696
6.80101
13.0204
18.9262
24.4863
29.6723
34.4541
38.8001
42.6803
46.0712
48.9625
51.3654
53.311
54.8493
56.0259
56.9645
57.7817
59.1203
60.2287
66.9932
57.3874
48.8273
39.5511
30.0622
20.5224
10.9174
1.38069
-7.79554
-16.3353
-24.0199
-30.5966
-35.4405
-38.0869
-38.5364
-37.1153
-34.099
-29.713
-24.1992
-17.8111
-10.7755
-4.03277
2.03573
7.95476
13.6802
19.1651
24.3668
29.2501
33.784
37.9391
41.6901
45.0187
47.9185
50.4012
52.4973
54.2541
55.7227
57.0236
58.2248
59.8243
61.1345
67.5607
59.6263
52.505
44.9368
37.2708
29.5845
21.8223
14.0369
6.39861
-0.919863
-7.78439
-14.0156
-19.1294
-22.6923
-24.5516
-24.7963
-23.5247
-20.8638
-16.9879
-12.0997
-6.40667
-0.711668
4.55516
9.77543
14.8947
19.8593
24.6166
29.1241
33.3477
37.2588
40.8342
44.0587
46.9275
49.4516
51.6594
53.5925
55.2985
56.8816
58.3909
60.1656
61.724
67.9379
61.3571
55.4222
49.2312
43.0271
36.8419
30.6065
24.3301
18.1055
12.0323
6.17914
0.654569
-4.19353
-8.01902
-10.6324
-11.9957
-12.0795
-10.904
-8.55467
-5.16032
-0.87908
3.66054
8.01501
12.4281
16.8368
21.1823
25.4049
29.4559
33.2981
36.9018
40.2442
43.3108
46.0967
48.6102
50.8745
52.9217
54.7882
56.5515
58.2531
60.0882
61.8011
68.185
62.7106
57.7593
52.6825
47.6502
42.6698
37.6729
32.648
27.6426
22.7093
17.8798
13.2065
8.92477
5.28581
2.45558
0.514837
-0.44698
-0.378171
0.713737
2.77486
5.71041
9.08037
12.4712
16.0118
19.6367
23.286
26.8963
30.4151
33.803
37.0296
40.0716
42.9134
45.5479
47.9787
50.2223
52.2988
54.2314
56.0694
57.8438
59.6494
61.3653
68.3569
63.7948
59.6617
55.4882
51.3955
47.3783
43.374
39.3634
35.3689
31.4164
27.5165
23.6889
20.0858
16.8787
14.1906
12.0995
10.7039
10.0836
10.2774
11.287
13.0754
15.375
17.8366
20.5086
23.331
26.2483
29.1998
32.1334
35.0089
37.7954
40.469
43.013
45.4175
47.681
49.8117
51.8188
53.7126
55.5211
57.2628
58.9776
60.6054
68.5133
64.7088
61.2587
57.8209
54.4843
51.2361
48.0218
44.8207
41.6423
38.4979
35.3876
32.3162
29.3779
26.6863
24.325
22.3531
20.8531
19.9024
19.5553
19.8424
20.7647
22.1871
23.8409
25.7283
27.8003
30.0104
32.3061
34.6405
36.9765
39.2842
41.54
43.7257
45.8288
47.8435
49.7715
51.6135
53.3705
55.0562
56.6791
58.2526
59.7473
68.6501
65.4459
62.5349
59.6662
56.909
54.2451
51.6275
49.0372
46.4776
43.9534
41.4608
38.9997
36.629
34.4219
32.4336
30.7053
29.298
28.2744
27.6852
27.568
27.9411
28.7513
29.8032
31.0792
32.5432
34.159
35.8847
37.6817
39.518
41.3674
43.2079
45.0218
46.7954
48.5201
50.1928
51.8094
53.3654
54.8667
56.3158
57.7143
59.0494
68.7602
66.0202
63.5265
61.0924
58.7738
56.5491
54.3776
52.2425
50.1439
48.0832
46.0554
44.058
42.1308
40.3224
38.669
37.199
35.956
34.9868
34.3324
34.0273
34.0937
34.5216
35.17
36.0168
37.0368
38.203
39.4832
40.8471
42.269
43.7266
45.201
46.6759
48.1384
49.5786
50.9915
52.3701
53.7079
55.0062
56.2639
57.4776
58.6422
68.8602
66.4872
64.3242
62.2301
60.2508
58.3633
56.532
54.7424
52.993
51.2834
49.6086
47.9657
46.3822
44.8919
43.5186
42.2821
41.2134
40.3464
39.7123
39.3395
39.2481
39.4485
39.8373
40.3941
41.102
41.9411
42.887
43.9166
45.0098
46.1485
47.3168
48.501
49.6891
50.8719
52.0434
53.1961
54.3229
55.4229
56.4933
57.5291
58.528
68.9552
66.8794
64.9845
63.1631
61.4534
59.832
58.2677
56.7478
55.2701
53.8332
52.4325
51.0651
49.7507
48.5135
47.3697
46.3327
45.425
44.6711
44.0941
43.7158
43.5528
43.6231
43.849
44.2135
44.706
45.3114
46.0114
46.7884
47.627
48.5129
49.4332
50.3765
51.3326
52.2931
53.2523
54.203
55.1385
56.0571
56.9553
57.8279
58.6734
69.0479
67.2169
65.5436
63.9453
62.4542
61.0473
59.6969
58.3921
57.1301
55.9093
54.7252
53.5754
52.4743
51.4394
50.4822
49.6119
48.8448
48.1987
47.6905
47.3365
47.1494
47.1489
47.2746
47.5135
47.8587
48.2989
48.8199
49.4088
50.0533
50.7426
51.4662
52.2149
52.9803
53.7552
54.5345
55.3117
56.0812
56.8407
57.587
58.3153
59.024
69.1386
67.5125
66.0248
64.6119
63.3011
62.0701
60.8943
59.7641
58.6766
57.6299
56.62
55.6446
54.7146
53.8429
53.0378
52.3055
51.658
51.1083
50.6686
50.3511
50.1651
50.1289
50.1942
50.3515
50.5965
50.9202
51.3118
51.7613
52.2594
52.7975
53.3674
53.9616
54.5734
55.1968
55.8274
56.4598
57.0892
57.7135
58.3296
58.9337
59.5236
69.2274
67.7746
66.4442
65.1873
64.0273
62.9426
61.9114
60.9251
59.9808
59.0764
58.2085
57.3749
56.5838
55.8449
55.1642
54.546
53.999
53.5329
53.1565
52.8785
52.7058
52.6542
52.684
52.7885
52.9653
53.2069
53.5048
53.8513
54.2392
54.6618
55.1125
55.5854
56.0751
56.5767
57.0866
57.6002
58.1138
58.6254
59.1323
59.6314
60.1204
69.314
68.0091
66.8134
65.6892
64.6566
63.695
62.7849
61.9187
61.0936
60.3071
59.5563
58.8393
58.1621
57.5323
56.9541
56.4304
55.9676
55.5728
55.2523
55.0127
54.8584
54.8027
54.8123
54.8829
55.0129
55.1963
55.4261
55.6962
56.0012
56.3355
56.6942
57.0723
57.4657
57.8703
58.2833
58.7008
59.1198
59.5389
59.9555
60.3674
60.7717
69.3978
68.2203
67.1407
66.1304
65.2065
64.3495
63.542
62.7771
62.052
61.3642
60.7112
60.091
59.5084
58.9688
58.4755
58.0304
57.6381
57.3036
57.0318
56.8271
56.6925
56.6388
56.6377
56.6864
56.7842
56.9258
57.1057
57.319
57.5612
57.8281
58.1156
58.4199
58.7374
59.0652
59.4008
59.7411
60.0837
60.4274
60.7701
61.1101
61.4444
69.4786
68.4114
67.4327
66.5207
65.6902
64.9229
64.2029
63.5243
62.8839
62.2797
61.7089
61.17
60.6663
60.2022
59.7797
59.4002
59.067
58.7835
58.5534
58.3796
58.2641
58.2155
58.2092
58.2439
58.3191
58.4306
58.5736
58.744
58.9385
59.1536
59.3859
59.6325
59.8905
60.1574
60.4313
60.7098
60.9908
61.2735
61.5561
61.8372
62.1139
69.5561
68.5849
67.6942
66.8676
66.118
65.428
64.7834
64.1787
63.6109
63.0777
62.5768
62.1066
61.6695
61.2688
60.9058
60.5814
60.2977
60.0574
59.8627
59.7159
59.618
59.5756
59.5675
59.5931
59.6526
59.7419
59.8572
59.9952
60.1531
60.3281
60.5174
60.7187
60.9297
61.1484
61.3732
61.6021
61.8336
62.0671
62.3007
62.5339
62.7635
69.63
68.7428
67.9291
67.1772
66.4979
65.875
65.2957
64.7547
64.2494
63.7772
63.3361
62.9243
62.5438
62.1968
61.884
61.606
61.3643
61.1604
60.9959
60.8723
60.79
60.7542
60.7461
60.766
60.8141
60.887
60.9814
61.0945
61.224
61.3676
61.5233
61.6889
61.8626
62.0429
62.2284
62.4176
62.6093
62.8029
62.9969
63.191
63.3821
69.7002
68.8867
68.1408
67.4542
66.8364
66.272
65.7495
65.2639
64.8126
64.3931
64.0034
63.6418
63.3096
63.0083
62.7383
62.4997
62.2933
62.1203
61.9815
61.8778
61.8092
61.7796
61.7726
61.7889
61.8288
61.8893
61.9676
62.0613
62.1687
62.2877
62.4166
62.5539
62.698
62.8476
63.0016
63.1588
63.3183
63.4795
63.6414
63.8036
63.9631
69.7666
69.0178
68.3317
67.7026
67.1386
66.6255
66.1526
65.7154
65.3111
64.9374
64.5922
64.2739
63.9832
63.721
63.4875
63.2825
63.1062
62.9594
62.8425
62.7558
62.6991
62.6753
62.6698
62.6838
62.7177
62.7687
62.8345
62.913
63.0028
63.1023
63.21
63.3245
63.4448
63.5696
63.6983
63.8296
63.963
64.0979
64.2334
64.3695
64.5033
69.8291
69.1372
68.5039
67.9255
67.4089
66.9409
66.5115
66.1166
65.7535
65.4197
65.1132
64.8325
64.5776
64.3493
64.1471
63.9707
63.8202
63.6958
63.5974
63.5253
63.4788
63.4602
63.4565
63.4691
63.4984
63.5421
63.5979
63.6644
63.7402
63.824
63.9146
64.0109
64.1119
64.2167
64.3247
64.435
64.547
64.6604
64.7745
64.8891
65.0016
69.8876
69.246
68.6593
68.1256
67.6508
67.2224
66.8314
66.4737
66.1467
65.848
65.5754
65.3273
65.1036
64.9045
64.7294
64.5777
64.4492
64.3439
64.2614
64.2018
64.1641
64.15
64.1481
64.1598
64.1857
64.2235
64.2715
64.3283
64.3928
64.4639
64.5406
64.622
64.7073
64.7958
64.887
64.98
65.0745
65.1703
65.2666
65.3636
65.4586
69.9423
69.3448
68.7993
68.3052
67.8672
67.4738
67.1166
66.7918
66.4967
66.2287
65.9859
65.7664
65.57
65.3963
65.2446
65.1143
65.0048
64.9159
64.847
64.798
64.7678
64.7577
64.7576
64.7688
64.792
64.8253
64.8669
64.9159
64.9711
65.0319
65.0973
65.1665
65.2389
65.314
65.3913
65.4701
65.5503
65.6314
65.7131
65.7954
65.8758
69.993
69.4343
68.9253
68.466
68.0605
67.698
67.3708
67.0751
66.8081
66.5674
66.3508
66.1565
65.9839
65.8324
65.7012
65.5894
65.4964
65.4216
65.3644
65.3245
65.3008
65.2942
65.2956
65.3067
65.3277
65.3572
65.3937
65.4362
65.4839
65.5361
65.5921
65.6513
65.7131
65.7771
65.8429
65.91
65.9782
66.0472
66.1166
66.1867
66.255
70.0398
69.5152
69.0382
68.6096
68.2328
67.8976
67.5969
67.327
67.085
66.8684
66.675
66.503
66.3514
66.2195
66.1062
66.0106
65.9318
65.8693
65.8223
65.7902
65.7722
65.7686
65.7715
65.7825
65.8019
65.8284
65.8606
65.8978
65.9393
65.9845
66.0328
66.0836
66.1366
66.1914
66.2476
66.3049
66.363
66.4219
66.4811
66.5409
66.5991
70.0828
69.5878
69.1389
68.7374
68.3858
68.0748
67.7976
67.5505
67.3308
67.1357
66.9629
66.8106
66.6776
66.563
66.4655
66.384
66.3177
66.2658
66.2276
66.2023
66.1891
66.1881
66.1923
66.2033
66.2214
66.2454
66.2741
66.3069
66.3431
66.3824
66.4242
66.4681
66.5137
66.5607
66.609
66.6581
66.7078
66.7582
66.8088
66.8599
66.9095
70.1219
69.6526
69.2282
68.8503
68.5209
68.2312
67.9748
67.7481
67.5482
67.3722
67.2179
67.0832
66.9668
66.8674
66.7838
66.7149
66.6596
66.6171
66.5865
66.5673
66.5583
66.5597
66.5653
66.5765
66.5936
66.6156
66.6415
66.6706
66.7026
66.737
66.7734
66.8115
66.8509
66.8915
66.9329
66.9751
67.0178
67.0609
67.1042
67.148
67.1904
70.1573
69.7099
69.3067
68.9493
68.6392
68.3683
68.1303
67.9218
67.7395
67.5807
67.4429
67.324
67.2223
67.1366
67.0654
67.0076
66.962
66.9277
66.9039
66.8898
66.8844
66.8878
66.8945
66.9058
66.9221
66.9424
66.9658
66.9918
67.0201
67.0504
67.0822
67.1154
67.1496
67.1846
67.2204
67.2567
67.2934
67.3305
67.3677
67.4052
67.4414
70.1889
69.7599
69.3748
69.0351
68.7418
68.4872
68.2656
68.0732
67.9068
67.7634
67.6404
67.5356
67.4472
67.3738
67.3138
67.2659
67.2291
67.2023
67.1845
67.1752
67.1734
67.1788
67.1868
67.1987
67.2146
67.2337
67.2552
67.2789
67.3043
67.3312
67.3592
67.3882
67.4181
67.4485
67.4795
67.5108
67.5424
67.5742
67.6061
67.6383
67.6693
70.2167
69.803
69.433
69.1083
68.8294
68.5891
68.3818
68.2037
68.0514
67.9218
67.8123
67.7203
67.6439
67.5816
67.5317
67.4927
67.4636
67.4433
67.4308
67.4255
67.4264
67.4334
67.4423
67.4543
67.4697
67.4876
67.5074
67.5289
67.5517
67.5756
67.6004
67.626
67.6521
67.6787
67.7056
67.7328
67.7601
67.7876
67.815
67.8428
67.8693
70.2408
69.8391
69.4815
69.1693
68.9025
68.6745
68.4797
68.3143
68.1747
68.0576
67.9602
67.8799
67.8145
67.7623
67.7217
67.6911
67.6693
67.6554
67.6483
67.6473
67.6515
67.6607
67.6713
67.6843
67.6998
67.7174
67.7363
67.7563
67.7773
67.799
67.8213
67.844
67.867
67.8902
67.9137
67.9372
67.9608
67.9844
68.0079
68.0317
68.0543
70.2611
69.8683
69.5202
69.218
68.9612
68.7437
68.5599
68.4058
68.2776
68.1718
68.0854
68.0157
67.9604
67.9175
67.8852
67.862
67.8465
67.8377
67.8347
67.8368
67.8431
67.8534
67.8647
67.8779
67.8931
67.9098
67.9275
67.9461
67.9652
67.9849
68.0049
68.0252
68.0457
68.0662
68.0869
68.1075
68.1281
68.1487
68.1691
68.1896
68.2091
70.2776
69.8907
69.5495
69.2548
69.0059
68.7969
68.6224
68.4782
68.3602
68.2648
68.1886
68.1288
68.0829
68.0489
68.0249
68.0095
68.0012
67.9989
68.0016
68.0084
68.0186
68.0318
68.0455
68.0604
68.0767
68.0939
68.1117
68.1297
68.148
68.1664
68.1849
68.2033
68.2216
68.2399
68.258
68.2759
68.2936
68.3112
68.3286
68.3461
68.3626
70.2907
69.9073
69.5707
69.2814
69.0383
68.8359
68.669
68.5329
68.4237
68.3374
68.2704
68.2197
68.1825
68.1565
68.1395
68.13
68.1264
68.1278
68.1332
68.1421
68.1538
68.1678
68.1821
68.1973
68.2135
68.2302
68.2472
68.2643
68.2814
68.2985
68.3155
68.3323
68.349
68.3655
68.3817
68.3978
68.4136
68.4292
68.4446
68.4599
68.4744
70.3002
69.917
69.5826
69.2966
69.0578
68.8607
68.7
68.571
68.4693
68.3909
68.332
68.2897
68.2611
68.2438
68.236
68.2356
68.241
68.251
68.2641
68.2796
68.2966
68.3149
68.3328
68.3509
68.3693
68.3875
68.4055
68.423
68.4402
68.4569
68.4732
68.4889
68.5042
68.5191
68.5335
68.5475
68.5611
68.5744
68.5873
68.5999
68.612
70.3045
69.9157
69.5787
69.2926
69.0556
68.8623
68.7073
68.5853
68.4913
68.421
68.3703
68.3356
68.3137
68.3021
68.2986
68.3013
68.3089
68.3205
68.3352
68.3523
68.3708
68.3898
68.4085
68.4271
68.4457
68.464
68.4818
68.499
68.5157
68.5318
68.5474
68.5623
68.5767
68.5906
68.604
68.6168
68.6292
68.6412
68.6528
68.6639
68.6749
70.3034
69.9048
69.5613
69.2715
69.0333
68.8414
68.69
68.5734
68.4865
68.4247
68.3837
68.3602
68.3509
68.3533
68.3647
68.3828
68.4055
68.431
68.4577
68.4844
68.5102
68.5354
68.5594
68.5825
68.6045
68.6255
68.6453
68.664
68.6816
68.6982
68.7138
68.7284
68.7421
68.755
68.7672
68.7786
68.7895
68.7997
68.8093
68.8185
68.8274
63.0158
67.1587
70.6431
72.728
74.0285
74.9139
75.4417
75.7056
75.7946
75.7641
75.6527
75.4898
75.2964
75.0866
74.87
74.6536
74.4419
74.2375
74.0423
73.8575
73.6831
73.5159
73.3537
73.2013
73.0683
72.9603
72.8741
72.7998
72.7285
72.6543
72.5749
72.4919
72.4062
72.3208
72.2371
72.1568
72.0805
72.009
71.9424
71.8809
71.8241
71.7723
71.7249
71.6816
71.6425
71.6066
71.5743
71.5451
71.5185
71.4947
71.4732
71.4538
71.4365
71.4209
71.4069
71.3948
71.3835
71.374
71.3652
71.3579
71.3512
71.3459
71.3409
71.3371
71.334
71.3316
71.3302
71.3295
71.3294
71.3316
71.3321
71.3399
71.3353
71.3616
62.3646
66.8566
70.49
72.7239
74.093
74.9891
75.5089
75.76
75.8355
75.7926
75.6705
75.4988
75.2984
75.0831
74.8624
74.6429
74.429
74.2231
74.0269
73.8419
73.6683
73.5018
73.3379
73.1797
73.0388
72.9251
72.839
72.7707
72.7094
72.6467
72.5784
72.5045
72.4257
72.345
72.2639
72.1844
72.1078
72.0349
71.9662
71.902
71.8424
71.7876
71.7372
71.6909
71.649
71.6105
71.5759
71.5445
71.516
71.4905
71.4676
71.4469
71.4286
71.4122
71.3977
71.385
71.3734
71.3637
71.3549
71.3476
71.341
71.3359
71.3312
71.3277
71.3249
71.3229
71.322
71.3217
71.322
71.3247
71.3256
71.3338
71.3297
71.356
61.8806
66.1495
70.1426
72.6426
74.1274
75.0609
75.5846
75.8247
75.8845
75.8265
75.6914
75.5089
75.3
75.0781
74.8524
74.6291
74.4126
74.2048
74.0076
73.8223
73.6491
73.4832
73.318
73.1554
73.0082
72.8901
72.804
72.741
72.6885
72.6361
72.5777
72.5123
72.4401
72.364
72.2856
72.2073
72.1305
72.0566
71.9862
71.9198
71.8577
71.8002
71.7472
71.6982
71.6538
71.6129
71.5761
71.5427
71.5125
71.4854
71.4612
71.4394
71.4201
71.403
71.3879
71.3747
71.3629
71.353
71.3442
71.3369
71.3305
71.3256
71.3211
71.3179
71.3156
71.3139
71.3134
71.3136
71.3144
71.3175
71.3189
71.3275
71.324
71.3502
61.6164
65.5349
69.704
72.4583
74.1027
75.1012
75.6474
75.8893
75.9385
75.8653
75.7152
75.52
75.3009
75.0711
74.8393
74.6116
74.3918
74.182
73.9834
73.7975
73.6243
73.4588
73.2935
73.1289
72.9783
72.8572
72.7707
72.7108
72.6643
72.6195
72.5689
72.5106
72.4441
72.3722
72.2967
72.2201
72.1439
72.0697
71.9984
71.9307
71.867
71.8077
71.7527
71.7019
71.6556
71.6129
71.5745
71.5396
71.5079
71.4797
71.4544
71.4318
71.4118
71.3941
71.3785
71.365
71.353
71.343
71.3342
71.327
71.3207
71.316
71.3118
71.3089
71.3069
71.3056
71.3054
71.306
71.3072
71.3107
71.3125
71.3214
71.3185
71.3445
61.6731
65.2889
69.3328
72.1931
73.9994
75.0911
75.6758
75.9305
75.9801
75.8996
75.7378
75.5298
75.2995
75.0608
74.822
74.5892
74.3659
74.1535
73.9534
73.7668
73.5934
73.4282
73.2634
73.0986
72.9467
72.8241
72.7372
72.6793
72.6371
72.5981
72.5539
72.5016
72.4404
72.3726
72.3001
72.2254
72.1502
72.0763
72.0047
71.9362
71.8715
71.8109
71.7546
71.7024
71.6546
71.6106
71.5709
71.5348
71.5021
71.4729
71.4468
71.4235
71.4029
71.3848
71.3689
71.3552
71.343
71.333
71.3242
71.3171
71.311
71.3064
71.3025
71.2999
71.2982
71.2973
71.2975
71.2984
71.3
71.3039
71.3061
71.3153
71.313
71.3386
61.9013
65.3351
69.1382
71.9562
73.8411
75.0175
75.6576
75.9357
75.9903
75.9091
75.7437
75.5295
75.2912
75.0443
74.7985
74.5603
74.3331
74.1181
73.9165
73.729
73.5553
73.3905
73.2268
73.0634
72.9121
72.7891
72.7022
72.6454
72.6062
72.5717
72.5329
72.4859
72.4296
72.3658
72.2965
72.224
72.1503
72.0771
72.0057
71.9371
71.8718
71.8105
71.7532
71.7
71.6512
71.6062
71.5654
71.5284
71.4949
71.465
71.4382
71.4144
71.3934
71.3749
71.3587
71.3449
71.3327
71.3226
71.3139
71.3069
71.301
71.2967
71.2931
71.2908
71.2894
71.2888
71.2894
71.2907
71.2927
71.2969
71.2996
71.309
71.3073
71.3325
62.1961
65.5424
69.1235
71.8403
73.7015
74.9009
75.5852
75.8972
75.965
75.8842
75.716
75.5001
75.2609
75.0121
74.763
74.5211
74.2907
74.0735
73.8704
73.6822
73.5083
73.3442
73.1826
73.0221
72.8731
72.7511
72.6642
72.608
72.5705
72.5393
72.5048
72.4625
72.4109
72.3512
72.2854
72.2155
72.1438
72.0719
72.0013
71.933
71.8677
71.8061
71.7484
71.6946
71.6451
71.5995
71.5581
71.5204
71.4863
71.4558
71.4287
71.4044
71.3831
71.3644
71.3481
71.3342
71.3219
71.3119
71.3034
71.2965
71.2909
71.2868
71.2835
71.2815
71.2804
71.2802
71.2811
71.2829
71.2852
71.2898
71.2929
71.3026
71.3015
71.3261
62.5748
65.8103
69.1952
71.8229
73.6248
74.7918
75.4785
75.812
75.8989
75.8264
75.6565
75.4358
75.1944
74.9468
74.7007
74.4613
74.2321
74.0151
73.812
73.6237
73.4501
73.2872
73.1287
72.9727
72.8281
72.7084
72.622
72.5657
72.529
72.4999
72.4688
72.4307
72.3835
72.3281
72.266
72.1993
72.13
72.0601
71.9908
71.9235
71.8588
71.7975
71.7398
71.6859
71.6363
71.5904
71.5486
71.5106
71.4762
71.4454
71.418
71.3935
71.3721
71.3533
71.3369
71.323
71.3109
71.301
71.2925
71.2859
71.2805
71.2767
71.2737
71.272
71.2713
71.2715
71.2727
71.2748
71.2776
71.2825
71.286
71.2959
71.2955
71.3194
63.134
66.1223
69.2267
71.7971
73.5669
74.7009
75.3671
75.6983
75.7929
75.7302
75.5659
75.3445
75.0988
74.8472
74.6007
74.3654
74.1427
73.9321
73.7338
73.5487
73.3769
73.2163
73.0622
72.9126
72.7742
72.6586
72.5735
72.517
72.4803
72.4524
72.424
72.3897
72.3469
72.2958
72.2378
72.1747
72.1086
72.0412
71.974
71.9082
71.8447
71.7842
71.7272
71.6737
71.6243
71.5785
71.5368
71.4988
71.4643
71.4335
71.406
71.3815
71.3601
71.3413
71.325
71.3112
71.2992
71.2895
71.2813
71.2749
71.2698
71.2663
71.2636
71.2623
71.2619
71.2625
71.2641
71.2666
71.2697
71.275
71.2789
71.289
71.2894
71.3125
63.8883
66.4721
69.1791
71.6619
73.4202
74.5483
75.2251
75.5646
75.6617
75.6001
75.44
75.223
74.9791
74.7256
74.4751
74.2374
74.0162
73.8114
73.6217
73.4453
73.2805
73.1257
72.9783
72.8373
72.7074
72.598
72.5157
72.4597
72.4228
72.3956
72.3693
72.3384
72.2999
72.2534
72.2
72.1412
72.0788
72.0146
71.9502
71.8867
71.825
71.7661
71.7102
71.6576
71.6089
71.5637
71.5224
71.4847
71.4505
71.4199
71.3926
71.3683
71.347
71.3284
71.3123
71.2987
71.287
71.2775
71.2696
71.2635
71.2587
71.2555
71.2533
71.2523
71.2523
71.2532
71.2552
71.2581
71.2617
71.2673
71.2716
71.2819
71.283
71.3052
64.6234
66.7611
69.0061
71.337
73.0899
74.2295
74.9432
75.3346
75.4751
75.438
75.2892
75.0762
74.8331
74.58
74.3297
74.0911
73.8681
73.6625
73.4752
73.3052
73.1491
73.0038
72.8673
72.7388
72.6213
72.5213
72.4442
72.3902
72.3539
72.3274
72.3032
72.2756
72.2414
72.2
72.1516
72.0977
72.0398
71.9797
71.9187
71.8582
71.7992
71.7423
71.6883
71.6372
71.5897
71.5455
71.505
71.468
71.4344
71.4043
71.3774
71.3535
71.3326
71.3144
71.2987
71.2854
71.274
71.2648
71.2573
71.2516
71.2472
71.2443
71.2425
71.2419
71.2423
71.2436
71.246
71.2493
71.2533
71.2593
71.2641
71.2746
71.2764
71.2977
64.9776
66.7744
68.6008
70.6889
72.417
73.6096
74.3963
74.878
75.1103
75.1523
75.0639
74.8917
74.6695
74.4239
74.1741
73.9329
73.7068
73.4988
73.3104
73.1412
72.9882
72.8488
72.7213
72.6054
72.5031
72.4176
72.3512
72.303
72.2695
72.245
72.2233
72.1994
72.17
72.134
72.0913
72.0431
71.9905
71.9352
71.8786
71.822
71.7663
71.7124
71.6608
71.6119
71.5661
71.5235
71.4843
71.4484
71.4158
71.3864
71.3603
71.3371
71.3167
71.299
71.2838
71.271
71.2601
71.2514
71.2443
71.239
71.235
71.2326
71.2312
71.231
71.2319
71.2337
71.2365
71.2402
71.2446
71.2509
71.2562
71.2669
71.2696
71.2898
64.8169
66.3868
67.9137
69.6959
71.299
72.5089
73.3864
74.0036
74.389
74.5758
74.6116
74.5415
74.3995
74.2121
73.9995
73.7762
73.5545
73.3431
73.1481
72.9721
72.8153
72.6757
72.5517
72.4418
72.3483
72.2746
72.2217
72.186
72.1615
72.1431
72.1262
72.1071
72.0834
72.0537
72.0176
71.9759
71.9296
71.8801
71.8288
71.777
71.7255
71.6753
71.627
71.5809
71.5376
71.4971
71.4597
71.4254
71.3941
71.366
71.3409
71.3186
71.299
71.2821
71.2675
71.2553
71.2451
71.2369
71.2304
71.2256
71.2222
71.2202
71.2193
71.2197
71.221
71.2233
71.2265
71.2307
71.2355
71.2422
71.248
71.2589
71.2624
71.2816
64.2155
65.6089
66.9417
68.441
69.858
71.0254
71.9518
72.675
73.2075
73.5635
73.7707
73.8601
73.8577
73.7869
73.6684
73.519
73.3522
73.1774
73.0012
72.8296
72.6678
72.5195
72.3876
72.2731
72.1773
72.1033
72.0534
72.0258
72.0139
72.0093
72.0044
71.9947
71.9788
71.9565
71.9281
71.8941
71.8553
71.8128
71.768
71.7219
71.6757
71.6302
71.586
71.5435
71.5034
71.4656
71.4306
71.3984
71.369
71.3424
71.3187
71.2976
71.2792
71.2633
71.2496
71.2382
71.2288
71.2213
71.2155
71.2113
71.2085
71.2071
71.2068
71.2077
71.2095
71.2123
71.216
71.2207
71.226
71.2331
71.2394
71.2505
71.255
71.273
63.2968
64.54
65.7397
67.0291
68.2718
69.3636
70.2934
71.0729
71.7044
72.1918
72.5493
72.7961
72.9505
73.0291
73.047
73.0172
72.9513
72.8597
72.7508
72.6319
72.5081
72.3831
72.2602
72.1443
72.0405
71.9542
71.8895
71.8484
71.8303
71.8301
71.839
71.8473
71.8484
71.8396
71.8216
71.7962
71.7656
71.7311
71.694
71.6551
71.6154
71.5756
71.5365
71.4986
71.4624
71.4282
71.3963
71.3667
71.3397
71.3152
71.2933
71.2739
71.2569
71.2422
71.2297
71.2194
71.2109
71.2043
71.1993
71.1959
71.1938
71.1931
71.1934
71.1949
71.1974
71.2007
71.205
71.2102
71.216
71.2235
71.2304
71.2417
71.2472
71.264
62.2104
63.3273
64.4176
65.5514
66.6508
67.6578
68.561
69.3593
70.0484
70.626
71.0968
71.4702
71.7575
71.9704
72.1204
72.2182
72.273
72.2927
72.2837
72.2517
72.2018
72.1392
72.0682
71.9933
71.9185
71.8472
71.783
71.729
71.688
71.6627
71.6536
71.6577
71.6689
71.6794
71.6826
71.6755
71.6588
71.6349
71.6063
71.5753
71.5429
71.5101
71.4772
71.4449
71.4137
71.3838
71.3557
71.3296
71.3055
71.2837
71.2641
71.2467
71.2315
71.2185
71.2074
71.1984
71.1911
71.1856
71.1816
71.1791
71.1779
71.178
71.1791
71.1813
71.1844
71.1884
71.1933
71.1991
71.2054
71.2135
71.2209
71.2325
71.239
71.2547
61.1047
62.1073
63.0938
64.0986
65.0779
66.0008
66.859
67.6475
68.3597
68.9905
69.539
70.0077
70.4013
70.7261
70.9892
71.1983
71.3613
71.4851
71.5761
71.6395
71.6799
71.7007
71.7055
71.6976
71.6809
71.6594
71.6367
71.6147
71.5935
71.572
71.5499
71.5294
71.5143
71.507
71.5069
71.51
71.5114
71.507
71.4954
71.4777
71.4558
71.4315
71.4062
71.3807
71.3556
71.3312
71.3079
71.286
71.2656
71.247
71.2303
71.2155
71.2026
71.1915
71.1823
71.1749
71.169
71.1648
71.162
71.1607
71.1605
71.1615
71.1636
71.1666
71.1705
71.1752
71.1808
71.1872
71.1942
71.2028
71.2109
71.2228
71.2304
71.245
60.201
61.0924
61.9751
62.8638
63.7356
64.574
65.3729
66.1271
66.8301
67.4764
68.0629
68.5884
69.0534
69.46
69.8113
70.1114
70.3653
70.578
70.7547
70.9004
71.0195
71.116
71.1933
71.2541
71.3012
71.3368
71.3633
71.3829
71.3977
71.4088
71.4163
71.4191
71.4156
71.4059
71.3923
71.3792
71.3701
71.3655
71.363
71.3593
71.3518
71.3399
71.3246
71.3072
71.2891
71.2709
71.2532
71.2363
71.2203
71.2056
71.1923
71.1805
71.1703
71.1616
71.1545
71.149
71.1449
71.1422
71.1408
71.1407
71.1418
71.1439
71.1469
71.1509
71.1557
71.1612
71.1675
71.1747
71.1824
71.1915
71.2003
71.2127
71.2213
71.2351
59.6171
60.3973
61.1759
61.9562
62.7273
63.4806
64.2112
64.9142
65.5844
66.2168
66.8076
67.3542
67.8549
68.3092
68.7177
69.0817
69.4035
69.686
69.9323
70.1458
70.3301
70.4886
70.6245
70.7412
70.8412
70.9271
71.0009
71.0641
71.1179
71.1632
71.2008
71.2315
71.2555
71.2726
71.2821
71.2833
71.2771
71.2665
71.2555
71.2473
71.2422
71.2385
71.2339
71.2269
71.2173
71.2061
71.1943
71.1825
71.1712
71.1607
71.1512
71.1427
71.1354
71.1293
71.1246
71.1211
71.1189
71.118
71.1182
71.1195
71.1218
71.1251
71.1293
71.1343
71.14
71.1464
71.1536
71.1615
71.1699
71.1797
71.1892
71.202
71.2118
71.2248
59.3508
60.0219
60.6967
61.3734
62.0474
62.7142
63.3698
64.0102
64.6312
65.2286
65.7988
66.3387
66.8458
67.3183
67.755
68.1557
68.5206
68.8509
69.148
69.4138
69.6504
69.8604
70.0463
70.2105
70.3557
70.4842
70.5982
70.6997
70.7898
70.8695
70.9391
70.9987
71.0488
71.0897
71.1221
71.1464
71.1627
71.1709
71.1711
71.1653
71.1565
71.1483
71.1428
71.1398
71.1377
71.1348
71.1305
71.1249
71.1187
71.1126
71.1069
71.102
71.0979
71.0947
71.0925
71.0914
71.0912
71.0921
71.094
71.0969
71.1006
71.1052
71.1106
71.1167
71.1234
71.1308
71.1388
71.1476
71.1567
71.1672
71.1774
71.1908
71.2017
71.2144
59.3638
59.9304
60.5043
61.0823
61.6628
62.2434
62.8208
63.3919
63.9533
64.5017
65.034
65.5472
66.0386
66.5058
66.9471
67.3611
67.7469
68.1043
68.4333
68.7347
69.0094
69.2587
69.4841
69.6875
69.8707
70.0355
70.1838
70.3173
70.4376
70.546
70.6434
70.7302
70.8067
70.8729
70.9287
70.9747
71.0113
71.0394
71.0596
71.0721
71.0775
71.0765
71.0716
71.0658
71.0616
71.0601
71.0605
71.0613
71.0615
71.0608
71.0597
71.0585
71.0578
71.0577
71.0582
71.0596
71.0617
71.0646
71.0683
71.0729
71.0781
71.0841
71.0908
71.0981
71.1059
71.1143
71.1233
71.1329
71.1428
71.154
71.165
71.1791
71.1911
71.2038
59.5997
60.07
60.5497
61.0359
61.5283
62.0255
62.5249
63.0242
63.5209
64.0124
64.4962
64.9694
65.4298
65.8748
66.3025
66.711
67.0989
67.465
67.8086
68.1294
68.4274
68.703
68.9567
69.1896
69.4027
69.5972
69.7744
69.9356
70.0822
70.2152
70.3358
70.4448
70.5429
70.6306
70.7081
70.7756
70.8331
70.8809
70.9195
70.9498
70.9725
70.9883
70.9976
71.0012
71.0007
70.9983
70.9967
70.9973
71.0001
71.0042
71.0082
71.0118
71.015
71.0182
71.0217
71.0256
71.0302
71.0353
71.041
71.0474
71.0543
71.0618
71.0698
71.0784
71.0874
71.0969
71.1068
71.1173
71.1282
71.1402
71.1519
71.1668
71.1797
71.1932
60.001
60.3861
60.781
61.1844
61.5963
62.0155
62.4404
62.8693
63.3004
63.7317
64.1613
64.5869
65.0064
65.4177
65.8188
66.2078
66.583
66.9428
67.2861
67.6119
67.9195
68.2086
68.4792
68.7312
68.9652
69.1818
69.3816
69.5654
69.7342
69.8887
70.0299
70.1584
70.2751
70.3806
70.4755
70.5603
70.6355
70.7012
70.7579
70.8056
70.8448
70.8763
70.9008
70.9191
70.9317
70.9393
70.943
70.9445
70.9459
70.9491
70.9544
70.9613
70.9686
70.9758
70.9828
70.9896
70.9967
71.0041
71.012
71.0203
71.029
71.0381
71.0476
71.0575