/*--------------------------------*- C++ -*----------------------------------*\
| =========                 |                                                 |
| \\      /  F ield         | OpenFOAM: The Open Source CFD Toolbox           |
|  \\    /   O peration     | Version:  5.x                                   |
|   \\  /    A nd           | Web:      www.OpenFOAM.org                      |
|    \\/     M anipulation  |                                                 |
\*---------------------------------------------------------------------------*/
FoamFile
{
    version     2.0;
    format      ascii;
    class       volScalarField;
    location    "150";
    object      p;
}
// * * * * * * * * * * * * * * * * * * * * * * * * * * * * * * * * * * * * * //

dimensions      [0 2 -2 0 0 0 0];

internalField   nonuniform List<scalar> 
41860
(
-14.3928
20913.7
-6915.03
44209.8
52521.8
61332.1
68404.5
74195.4
79223.7
83531.3
87281.8
90565.7
93564.5
96203.3
98679.6
100864
102956
104875
106691
108394
110008
111544
113008
114418
115775
117085
118356
119589
120795
121968
123128
124255
125372
126472
127562
128637
129705
130763
131816
132860
133904
134929
135876
136711
137538
138335
139125
139903
140658
141419
142149
142894
143605
144335
145033
145749
146439
147143
147826
148516
149194
149867
150550
151271
151989
152739
153491
154279
155077
155910
156780
157676
158632
159637
160705
161846
163108
164467
166060
167683
170244
171459
281.857
20950.8
-6915.33
44165.3
52510.9
61321.5
68396.2
74188.6
79218.1
83526.7
87278
90562.3
93561.7
96200.8
98677.5
100863
102954
104874
106690
108393
110007
111543
113007
114417
115774
117085
118356
119588
120794
121968
123128
124254
125372
126472
127562
128637
129705
130763
131815
132860
133904
134929
135875
136710
137538
138335
139125
139903
140658
141419
142149
142894
143605
144335
145033
145749
146439
147143
147826
148515
149194
149867
150550
151271
151989
152739
153491
154279
155076
155910
156780
157676
158632
159637
160705
161846
163108
164467
166060
167683
170244
171455
731.683
21003.9
-6906.08
44110.3
52498.3
61309.1
68386.2
74180.6
79211.4
83521.2
87273.4
90558.4
93558.4
96198
98675.1
100861
102952
104872
106689
108392
110006
111542
113006
114416
115773
117084
118355
119588
120794
121968
123128
124254
125372
126471
127561
128637
129705
130763
131815
132859
133904
134929
135875
136710
137537
138335
139125
139902
140658
141419
142148
142894
143605
144335
145033
145749
146439
147143
147826
148515
149194
149867
150550
151271
151989
152739
153491
154279
155076
155910
156780
157676
158632
159637
160705
161846
163108
164467
166060
167683
170245
171450
1280.34
21070.9
-6888.19
44052.6
52485.8
61296.3
68376.1
74172.3
79204.6
83515.6
87268.8
90554.5
93555.1
96195.2
98672.7
100858
102951
104871
106687
108391
110005
111541
113005
114415
115773
117084
118355
119587
120793
121967
123127
124254
125371
126471
127561
128637
129705
130763
131815
132859
133903
134929
135875
136710
137537
138335
139125
139902
140658
141419
142148
142894
143605
144335
145033
145749
146439
147143
147826
148515
149194
149867
150550
151271
151989
152739
153491
154279
155077
155910
156780
157676
158632
159637
160705
161846
163108
164467
166060
167683
170245
171444
1964.14
21160.2
-6858.55
43987
52472.2
61282.1
68364.7
74163
79196.9
83509.3
87263.7
90550.2
93551.5
96192.1
98670
100856
102949
104869
106686
108389
110004
111540
113004
114415
115772
117083
118354
119587
120793
121967
123127
124253
125371
126471
127561
128636
129704
130762
131815
132859
133903
134929
135875
136710
137537
138335
139125
139902
140658
141419
142148
142894
143605
144335
145033
145749
146439
147143
147826
148515
149194
149867
150550
151271
151989
152739
153491
154279
155077
155910
156780
157676
158632
159637
160705
161846
163108
164467
166060
167683
170245
171437
2823.29
21280.5
-6812.12
43909.2
52456.9
61265.6
68351.4
74152.1
79187.8
83501.9
87257.6
90545
93547.2
96188.3
98666.8
100853
102946
104867
106684
108388
110002
111539
113003
114414
115771
117082
118353
119586
120792
121966
123126
124253
125371
126470
127560
128636
129704
130762
131815
132859
133903
134929
135875
136710
137537
138335
139125
139902
140658
141419
142148
142893
143605
144334
145033
145749
146439
147143
147826
148515
149194
149867
150550
151271
151989
152739
153491
154279
155077
155910
156780
157676
158632
159638
160705
161846
163108
164467
166060
167683
170245
171429
3882.76
21438.5
-6745.11
43816.4
52439.2
61246
68335.6
74139.1
79177
83493.1
87250.4
90538.9
93542.1
96184
98663.1
100850
102943
104865
106682
108386
110001
111538
113002
114413
115770
117081
118353
119585
120792
121966
123126
124252
125370
126470
127560
128636
129704
130762
131814
132859
133903
134928
135874
136710
137537
138335
139125
139902
140658
141419
142148
142893
143605
144334
145033
145749
146439
147142
147826
148515
149194
149867
150550
151271
151989
152739
153491
154279
155077
155910
156780
157676
158632
159638
160705
161847
163108
164467
166061
167683
170246
171419
5174.55
21642.2
-6653.83
43705.3
52418.6
61222.9
68317
74123.7
79164.3
83482.7
87241.9
90531.8
93536.2
96178.9
98658.8
100846
102940
104862
106680
108384
109999
111536
113000
114411
115769
117080
118352
119584
120791
121965
123125
124252
125370
126469
127560
128635
129703
130762
131814
132858
133903
134928
135874
136710
137537
138334
139124
139902
140658
141419
142148
142893
143605
144334
145033
145749
146439
147142
147826
148515
149194
149867
150550
151271
151989
152739
153491
154279
155077
155910
156780
157677
158632
159638
160705
161847
163108
164467
166061
167683
170246
171407
6734.99
21901.6
-6532.63
43572.2
52394.8
61195.9
68295.1
74105.7
79149.4
83470.5
87231.9
90523.4
93529.2
96173
98653.7
100842
102937
104858
106677
108381
109997
111534
112999
114410
115767
117079
118351
119583
120790
121964
123124
124251
125369
126469
127559
128635
129703
130761
131814
132858
133902
134928
135874
136709
137536
138334
139124
139902
140658
141418
142148
142893
143604
144334
145033
145749
146439
147142
147826
148515
149194
149867
150550
151271
151989
152739
153491
154279
155077
155911
156780
157677
158632
159638
160705
161847
163108
164467
166061
167683
170246
171393
8612.13
22229.8
-6373.89
43413.1
52367.1
61164.2
68269.4
74084.5
79131.8
83456.1
87220.2
90513.7
93521.1
96166.2
98647.9
100837
102932
104855
106674
108379
109994
111532
112997
114408
115766
117078
118350
119582
120789
121963
123124
124250
125368
126468
127559
128634
129703
130761
131813
132858
133902
134928
135874
136709
137536
138334
139124
139902
140657
141418
142148
142893
143604
144334
145033
145749
146439
147142
147826
148515
149194
149867
150550
151271
151989
152739
153491
154279
155077
155911
156780
157677
158632
159638
160705
161847
163108
164467
166061
167683
170246
171376
10855.8
22642.7
-6167.68
43222.9
52335.1
61127.1
68239.2
74059.7
79111.2
83439.3
87206.5
90502.2
93511.5
96158.1
98641.1
100831
102927
104850
106670
108375
109991
111530
112994
114406
115764
117076
118348
119581
120788
121962
123123
124250
125368
126468
127558
128634
129702
130760
131813
132857
133902
134927
135873
136709
137536
138334
139124
139901
140657
141418
142148
142893
143604
144334
145032
145749
146439
147142
147826
148515
149194
149867
150550
151271
151989
152739
153491
154279
155077
155911
156780
157677
158633
159638
160705
161847
163108
164467
166061
167683
170247
171356
13528.5
23161
-5901.66
42996.4
52297.9
61083.8
68203.9
74030.5
79087
83419.5
87190.4
90488.8
93500.4
96148.8
98633.1
100825
102921
104845
106666
108372
109988
111527
112992
114404
115762
117075
118347
119580
120787
121961
123122
124249
125367
126467
127558
128633
129702
130760
131813
132857
133901
134927
135873
136709
137536
138334
139124
139901
140657
141418
142148
142893
143604
144334
145032
145749
146439
147142
147826
148515
149194
149867
150550
151271
151989
152739
153492
154279
155077
155911
156781
157677
158633
159638
160706
161847
163109
164467
166061
167683
170247
171333
16694.1
23810
-5560.02
42727.5
52254.9
61033.4
68162.5
73996.4
79058.6
83396.4
87171.5
90473.1
93487.3
96137.9
98623.9
100817
102915
104840
106661
108367
109984
111524
112989
114402
115760
117073
118345
119578
120786
121960
123121
124248
125366
126466
127557
128633
129701
130759
131812
132857
133901
134927
135873
136708
137535
138333
139124
139901
140657
141418
142148
142893
143604
144334
145032
145749
146439
147142
147826
148515
149194
149867
150551
151271
151989
152739
153492
154280
155077
155911
156781
157677
158633
159639
160706
161847
163109
164468
166061
167683
170247
171305
20429.5
24622.7
-5122.87
42409.3
52205.2
60975
68114.2
73956.4
79025.3
83369.2
87149.4
90454.7
93472
96125.2
98613
100808
102907
104833
106655
108362
109980
111520
112986
114399
115758
117071
118343
119577
120784
121959
123120
124247
125365
126466
127556
128632
129701
130759
131812
132856
133901
134927
135872
136708
137535
138333
139123
139901
140657
141418
142148
142893
143604
144334
145032
145749
146439
147142
147826
148516
149195
149867
150551
151272
151989
152740
153492
154280
155078
155911
156781
157678
158633
159639
160706
161848
163109
164468
166062
167683
170247
171273
24811.3
25639.8
-4564.79
42034.7
52147.8
60907.4
68057.8
73909.6
78986.2
83337.4
87123.4
90433.2
93454.1
96110.3
98600.4
100797
102898
104825
106648
108357
109975
111516
112982
114396
115755
117068
118341
119575
120783
121957
123118
124246
125364
126465
127555
128631
129700
130758
131811
132856
133900
134926
135872
136708
137535
138333
139123
139901
140657
141417
142148
142892
143604
144334
145032
145749
146439
147142
147826
148516
149195
149867
150551
151272
151990
152740
153492
154280
155078
155912
156781
157678
158633
159639
160706
161848
163109
164468
166062
167682
170247
171237
29927.5
26914.2
-3853.29
41595.9
52081.4
60829.8
67992.1
73854.9
78940.5
83300.1
87093
90408
93433
96093
98585.7
100785
102888
104816
106641
108350
109970
111511
112978
114392
115752
117066
118339
119573
120781
121956
123117
124245
125363
126464
127555
128631
129699
130758
131811
132855
133900
134926
135872
136707
137534
138333
139123
139900
140657
141417
142148
142892
143604
144334
145032
145749
146439
147142
147826
148516
149195
149868
150551
151272
151990
152740
153493
154280
155078
155912
156782
157678
158634
159640
160707
161848
163110
164468
166062
167682
170247
171197
35860.1
28511.6
-2946.41
41085
52004.3
60741.1
67915.9
73791.1
78887
83256.4
87057.4
90378.6
93408.5
96072.8
98568.6
100771
102875
104806
106632
108343
109963
111506
112974
114388
115749
117063
118336
119571
120779
121954
123116
124243
125362
126463
127554
128630
129699
130757
131810
132855
133899
134926
135871
136707
137534
138333
139123
139900
140657
141417
142147
142892
143604
144334
145033
145749
146439
147142
147826
148516
149195
149868
150552
151273
151991
152740
153493
154281
155079
155912
156782
157679
158634
159640
160707
161849
163110
164469
166063
167682
170246
171152
42696.2
30516
-1789.62
40496
51913.8
60640.7
67827.8
73717.1
78824.6
83205.4
87015.8
90344.3
93379.8
96049.3
98548.6
100755
102861
104794
106622
108334
109956
111500
112968
114384
115745
117059
118334
119568
120777
121952
123114
124242
125361
126462
127553
128629
129698
130757
131810
132855
133899
134925
135871
136707
137534
138332
139122
139900
140657
141417
142148
142892
143604
144334
145033
145749
146439
147143
147827
148516
149195
149869
150552
151273
151991
152741
153494
154281
155080
155913
156783
157679
158635
159641
160708
161849
163111
164469
166063
167681
170246
171105
50506.4
33031.3
-312.041
39826.8
51807.1
60528
67726.7
73631.4
78752.2
83146.1
86967.2
90304.4
93346.4
96022.1
98525.5
100736
102845
104781
106611
108325
109948
111493
112963
114379
115741
117056
118331
119566
120775
121951
123113
124241
125360
126461
127552
128629
129697
130756
131809
132854
133899
134925
135871
136707
137534
138332
139122
139900
140657
141417
142148
142892
143605
144334
145033
145749
146439
147143
147827
148516
149196
149869
150553
151274
151992
152742
153494
154282
155080
155914
156784
157680
158636
159641
160709
161850
163111
164470
166064
167681
170244
171058
59350.6
36187.5
1579.22
39083.4
51680.5
60403.4
67611.4
73532.8
78668.3
83077.4
86911
90258.2
93307.6
95990.6
98498.8
100714
102827
104765
106598
108314
109939
111485
112956
114374
115736
117052
118328
119563
120773
121949
123111
124240
125359
126460
127551
128628
129697
130756
131809
132854
133898
134925
135870
136706
137533
138332
139122
139900
140657
141417
142148
142892
143605
144334
145033
145749
146440
147143
147827
148517
149196
149870
150554
151275
151993
152743
153495
154283
155081
155915
156785
157681
158637
159643
160710
161851
163112
164471
166064
167681
170243
171013
69251.6
40139.4
4005.18
38284.6
51530.3
60268.9
67481.8
73420.5
78572
82998.2
86846.1
90204.9
93262.8
95954.3
98468
100689
102806
104748
106583
108302
109928
111477
112949
114368
115731
117048
118324
119560
120771
121947
123109
124239
125358
126459
127551
128628
129697
130756
131809
132854
133898
134926
135870
136706
137533
138333
139123
139900
140657
141417
142148
142892
143606
144334
145034
145749
146440
147143
147828
148517
149197
149871
150555
151276
151994
152744
153497
154284
155083
155916
156786
157683
158638
159644
160711
161852
163113
164471
166065
167680
170240
170973
80200.1
45071.8
7123.94
37471.4
51352.7
60128.6
67338.7
73294
78462.5
82907.8
86771.8
90144
93211.6
95913
98433
100661
102782
104728
106567
108288
109917
111468
112941
114361
115726
117044
118321
119558
120768
121945
123108
124238
125357
126459
127550
128627
129697
130756
131809
132854
133899
134926
135871
136707
137534
138333
139123
139901
140658
141417
142149
142893
143606
144335
145035
145750
146441
147144
147829
148518
149198
149873
150557
151277
151996
152745
153498
154286
155084
155918
156788
157684
158639
159645
160712
161854
163114
164473
166066
167679
170238
170942
92133.5
51194
11138.9
36720.5
51146.2
59990.2
67185.9
73154.4
78339.9
82805.9
86687.9
90075.3
93153.7
95866.4
98393.5
100629
102755
104706
106549
108273
109905
111458
112933
114355
115721
117040
118318
119555
120767
121944
123107
124237
125357
126459
127550
128628
129697
130756
131810
132855
133899
134927
135871
136707
137534
138334
139124
139901
140658
141418
142150
142894
143607
144335
145036
145751
146442
147145
147830
148519
149200
149874
150559
151279
151998
152747
153500
154287
155086
155920
156790
157686
158641
159647
160714
161856
163116
164474
166067
167679
170236
170928
104921
58736.4
16308.9
36164.5
50914.3
59865.8
67031.1
73005
78205.6
82693.3
86594.7
89999.1
93089.1
95814.7
98349.6
100594
102726
104682
106529
108258
109891
111448
112924
114348
115715
117036
118315
119553
120765
121943
123107
124237
125357
126459
127551
128628
129698
130757
131811
132856
133900
134928
135872
136709
137535
138335
139125
139903
140660
141419
142151
142895
143609
144336
145037
145752
146444
147146
147832
148521
149202
149877
150562
151281
152000
152749
153503
154290
155089
155922
156792
157689
158644
159650
160717
161858
163118
164476
166067
167678
170234
170940
118300
67917.3
22948.2
36023.4
50677
59773.7
66889.8
72853.2
78063.9
82572.4
86493.8
89916.6
93018.9
95758.8
98302.2
100557
102694
104657
106508
108241
109878
111437
112916
114342
115711
117033
118313
119552
120765
121943
123107
124238
125358
126461
127553
128630
129699
130759
131812
132858
133902
134931
135874
136710
137537
138337
139126
139904
140662
141421
142153
142896
143611
144338
145040
145754
146446
147148
147834
148523
149204
149880
150565
151284
152004
152753
153507
154293
155092
155925
156795
157692
158647
159653
160720
161861
163120
164477
166068
167677
170231
170982
131849
78883.5
31413.6
36643.1
50493.1
59740.9
66789
72714
77923.2
82448.9
86389.3
89830.9
92945.3
95700.4
98252.7
100519
102662
104632
106488
108225
109865
111428
112909
114337
115707
117031
118312
119552
120765
121945
123109
124241
125361
126463
127555
128633
129702
130762
131815
132861
133905
134934
135877
136713
137539
138339
139129
139907
140664
141423
142156
142898
143614
144340
145042
145756
146449
147150
147837
148526
149207
149884
150569
151288
152008
152756
153511
154297
155097
155929
156799
157697
158651
159657
160723
161864
163122
164479
166068
167676
170225
171046
144976
91591
42056.4
38528.4
50503.1
59808.2
66772.3
72615.4
77799.9
82333.9
86289
89748.1
92873.2
95643.5
98204.3
100482
102632
104608
106469
108212
109854
111421
112904
114334
115706
117031
118313
119554
120768
121948
123112
124245
125365
126468
127560
128638
129707
130766
131820
132865
133909
134938
135881
136717
137542
138343
139132
139910
140668
141426
142160
142901
143618
144343
145046
145759
146453
147154
147840
148529
149211
149889
150575
151293
152014
152761
153516
154302
155102
155934
156804
157702
158655
159661
160727
161868
163125
164481
166068
167674
170214
171123
156958
105677
55132.4
42348.5
50990.4
60043.5
66900.3
72604.5
77722.3
82245.7
86206.7
89678.7
92810.6
95594.6
98162.4
100451
102607
104590
106455
108203
109848
111418
112903
114335
115709
117035
118318
119559
120775
121955
123119
124252
125372
126475
127567
128645
129714
130773
131826
132871
133915
134945
135887
136722
137547
138349
139137
139915
140673
141431
142165
142906
143623
144347
145051
145763
146457
147158
147845
148534
149216
149895
150582
151299
152020
152768
153523
154308
155108
155941
156810
157708
158661
159667
160732
161872
163128
164483
166066
167671
170195
171204
167046
120391
70643.3
48886.3
52461.1
60579.4
67248.6
72751.2
77736.4
82213.1
86163.5
89639.2
92770.9
95564.1
98135.6
100433
102594
104582
106452
108203
109851
111423
112910
114344
115718
117045
118329
119570
120786
121966
123130
124264
125384
126486
127578
128655
129723
130783
131835
132880
133924
134954
135895
136730
137554
138356
139144
139922
140680
141437
142172
142911
143629
144353
145058
145769
146464
147163
147851
148540
149223
149903
150590
151307
152029
152775
153531
154316
155116
155948
156818
157715
158668
159673
160738
161877
163131
164485
166062
167666
170164
171282
174665
134660
88124.5
58866
55714.3
61703.5
67920.1
73148.3
77915.2
82282
86189.9
89653.4
92773.8
95567.8
98136.9
100439
102601
104592
106464
108218
109867
111441
112928
114362
115737
117064
118349
119590
120805
121985
123148
124282
125401
126503
127593
128670
129738
130797
131848
132893
133935
134966
135906
136740
137564
138366
139154
139931
140689
141445
142181
142919
143638
144361
145066
145776
146472
147171
147860
148548
149232
149913
150601
151317
152039
152785
153541
154325
155126
155958
156827
157724
158675
159681
160745
161882
163133
164485
166055
167657
170117
171352
179641
147282
106489
72606.8
61798
64004.7
69110.7
73915.1
78365.7
82528.6
86334.9
89755.5
92846.7
95628.3
98185.1
100485
102643
104633
106504
108256
109905
111478
112964
114398
115771
117098
118381
119621
120835
122014
123176
124309
125426
126527
127616
128692
129759
130816
131867
132911
133952
134983
135921
136755
137577
138379
139167
139943
140702
141457
142193
142930
143650
144371
145077
145786
146482
147181
147870
148558
149243
149925
150615
151330
152052
152797
153554
154337
155138
155969
156838
157735
158685
159689
160751
161887
163135
164483
166043
167642
170048
171402
182291
157316
124125
89573.4
71684.1
68463.8
71259.3
75236.8
79228.2
83070.8
86681.7
90000.5
93029.8
95777
98306
100592
102737
104718
106582
108330
109974
111543
113026
114457
115827
117151
118432
119669
120881
122058
123217
124348
125464
126562
127649
128724
129788
130844
131893
132936
133975
135006
135943
136775
137596
138398
139184
139960
140719
141472
142209
142944
143665
144385
145092
145799
146496
147194
147883
148572
149257
149941
150631
151345
152069
152813
153569
154352
155152
155983
156850
157747
158696
159698
160759
161891
163133
164477
166022
167618
169950
171415
183228
164473
139348
108106
85612.6
76247.9
75208
77497.1
80702.8
84065
87357.2
90480.3
93388
96061.3
98536.7
100789
102908
104870
106719
108454
110089
111649
113125
114549
115913
117233
118508
119741
120948
122122
123276
124405
125517
126612
127696
128768
129829
130883
131930
132970
134008
135038
135972
136803
137622
138423
139209
139983
140741
141493
142230
142964
143685
144403
145110
145817
146514
147211
147901
148589
149275
149960
150652
151365
152088
152832
153588
154369
155170
155999
156866
157762
158708
159708
160765
161894
163129
164464
165991
167579
169817
171372
183055
169121
151084
125765
102429
88006.7
82092.8
81460.6
83178.1
85734.6
88528.8
91327.8
94023.2
96557.1
98934.8
101122
103191
105116
106937
108650
110267
111811
113274
114687
116041
117351
118619
119845
121045
122213
123361
124485
125592
126683
127762
128829
129887
130937
131980
133018
134052
135080
136012
136840
137657
138457
139241
140014
140771
141521
142258
142990
143711
144428
145135
145840
146537
147233
147923
148612
149298
149985
150678
151389
152113
152855
153611
154391
155191
156019
156883
157778
158721
159718
160770
161893
163118
164442
165943
167518
169640
171252
182222
171865
159215
140425
119675
102974
92634.5
88165.5
87401
88514.2
90460.4
92727.5
95076.3
97375.5
99587.9
101658
103641
105501
107273
108946
110532
112050
113491
114886
116223
117520
118775
119990
121180
122339
123479
124595
125695
126779
127852
128913
129965
131010
132049
133082
134112
135138
136066
136891
137704
138502
139285
140055
140811
141559
142295
143025
143745
144460
145167
145870
146567
147262
147952
148640
149327
150015
150709
151420
152143
152884
153639
154417
155215
156041
156903
157795
158734
159726
160772
161886
163097
164406
165873
167422
169410
171035
181016
173249
164334
151173
134800
118904
106187
98180
94274.1
93148.3
93652
95001.9
96765
98675.2
100620
102499
104338
106089
107777
109385
110920
112396
113804
115168
116481
117756
118992
120190
121365
122511
123638
124744
125834
126909
127972
129026
130070
131108
132140
133168
134192
135214
136137
136958
137767
138562
139342
140110
140864
141609
142343
143071
143789
144502
145208
145910
146606
147299
147989
148677
149364
150053
150748
151457
152180
152919
153673
154448
155244
156067
156925
157813
158746
159731
160768
161870
163062
164348
165772
167281
169117
170704
179608
173697
167273
158239
146345
133254
120705
110762
104088
100346
98810.8
98703.3
99479.7
100726
102221
103789
105396
106975
108528
110031
111484
112893
114247
115566
116840
118083
119290
120464
121617
122743
123853
124943
126019
127081
128133
129175
130209
131238
132261
133281
134297
135313
136231
137047
137850
138641
139417
140181
140933
141675
142406
143130
143847
144557
145262
145961
146656
147348
148036
148724
149411
150100
150795
151503
152224
152960
153712
154485
155277
156096
156948
157830
158755
159731
160755
161839
163007
164261
165629
167079
168751
170251
178099
173517
168757
162488
154193
144415
133821
123959
115894
110057
106383
104431
103777
103971
104720
105768
106997
108297
109638
110978
112301
113605
114875
116124
117340
118534
119699
120837
121958
123056
124141
125209
126265
127309
128344
129371
130392
131407
132419
133428
134435
135442
136353
137162
137959
138744
139515
140274
141021
141759
142487
143207
143920
144627
145329
146026
146719
147408
148096
148782
149468
150157
150852
151558
152276
153009
153758
154526
155313
156127
156972
157844
158759
159720
160727
161788
162924
164134
165435
166804
168305
169677
176555
172932
169306
164830
159063
152120
144056
135682
127818
121113
115947
112303
110053
108889
108563
108804
109425
110278
111279
112361
113483
114627
115767
116910
118038
119157
120260
121344
122419
123477
124526
125563
126591
127610
128623
129629
130631
131629
132624
133619
134612
135608
136509
137310
138098
138876
139640
140393
141135
141867
142590
143305
144014
144717
145414
146108
146798
147484
148169
148853
149538
150226
150919
151622
152337
153066
153810
154572
155353
156158
156993
157853
158753
159695
160677
161709
162802
163958
165178
166446
167775
168994
175021
172104
169266
165959
161865
156986
151172
144737
138108
131769
126180
121567
118066
115597
114058
113268
113040
113226
113705
114385
115195
116092
117037
118019
119015
120024
121034
122040
123047
124046
125044
126035
127024
128008
128989
129967
130943
131917
132891
133866
134842
135821
136709
137499
138278
139045
139801
140546
141280
142005
142722
143431
144133
144830
145522
146211
146896
147579
148260
148941
149623
150308
150999
151698
152407
153130
153867
154622
155392
156187
157008
157852
158731
159649
160600
161591
162633
163721
164848
166001
167163
168221
173535
171147
168872
166344
163342
159855
155719
151021
145916
140652
135554
130871
126832
123529
121003
119219
118053
117419
117202
117313
117664
118192
118840
119582
120382
121228
122102
122995
123903
124819
125743
126671
127603
128538
129474
130413
131353
132296
133240
134189
135140
136097
136967
137743
138507
139262
140006
140740
141464
142180
142888
143589
144284
144973
145658
146340
147019
147696
148372
149048
149725
150406
151091
151785
152487
153202
153929
154672
155431
156210
157014
157837
158689
159574
160486
161428
162407
163416
164442
165472
166476
167381
172134
170153
168290
166299
164021
161454
158469
155079
151316
147268
143103
138986
135107
131611
128601
126159
124236
122834
121883
121331
121105
121140
121379
121776
122293
122902
123579
124306
125073
125869
126689
127527
128380
129245
130120
131003
131894
132793
133698
134610
135528
136455
137301
138056
138803
139541
140269
140989
141699
142403
143099
143789
144473
145153
145828
146501
147171
147840
148508
149177
149847
150520
151198
151883
152576
153279
153993
154722
155463
156223
157004
157799
158619
159463
160326
161210
162117
163038
163958
164864
165727
166496
170862
169194
167639
166025
164235
162273
160049
157556
154788
151762
148546
145222
141902
138704
135724
133085
130784
128884
127367
126233
125441
124949
124716
124695
124851
125149
125561
126062
126637
127267
127944
128658
129403
130173
130964
131773
132598
133437
134289
135153
136027
136913
137726
138456
139178
139893
140601
141302
141995
142682
143363
144038
144709
145375
146038
146698
147357
148015
148672
149330
149990
150653
151320
151992
152672
153360
154057
154767
155486
156220
156972
157733
158513
159311
160118
160935
161765
162596
163412
164203
164945
165602
169760
168327
166999
165648
164188
162622
160889
158981
156882
154590
152124
149519
146827
144126
141474
138985
136667
134605
132810
131314
130116
129198
128545
128122
127908
127869
127983
128221
128564
128993
129494
130054
130664
131315
132001
132717
133459
134224
135009
135812
136632
137469
138241
138938
139629
140316
140998
141675
142346
143013
143675
144332
144986
145636
146284
146929
147573
148216
148860
149504
150150
150799
151451
152108
152770
153440
154116
154803
155496
156201
156919
157642
158378
159125
159873
160625
161378
162123
162847
163540
164185
164756
168823
167571
166412
165252
164023
162728
161323
159803
158152
156362
154437
152388
150234
148022
145779
143592
141465
139474
137642
136012
134605
133422
132473
131737
131209
130867
130694
130669
130771
130983
131290
131677
132133
132647
133212
133819
134464
135141
135847
136580
137335
138113
138838
139495
140151
140805
141456
142105
142750
143392
144031
144667
145300
145931
146560
147188
147814
148441
149067
149695
150324
150955
151590
152228
152870
153518
154171
154831
155495
156168
156849
157532
158223
158918
159610
160297
160980
161650
162294
162907
163475
163980
168024
166915
165890
164876
163817
162717
161544
160293
158953
157514
155975
154337
152605
150806
148948
147092
145234
143435
141714
140113
138660
137366
136254
135318
134565
133985
133572
133311
133188
133189
133300
133507
133799
134165
134595
135081
135616
136194
136811
137462
138144
138854
139523
140135
140749
141364
141980
142595
143210
143823
144435
145046
145656
146264
146872
147478
148084
148691
149297
149905
150514
151125
151738
152354
152973
153596
154222
154853
155486
156124
156768
157409
158054
158698
159335
159964
160583
161186
161763
162309
162816
163270
167338
166346
165430
164531
163604
162652
161650
160596
159480
158294
157034
155699
154289
152817
151284
149730
148147
146578
145036
143556
142165
140875
139715
138686
137803
137066
136477
136032
135720
135535
135464
135500
135630
135845
136135
136493
136911
137382
137900
138461
139060
139695
140301
140862
141428
141999
142574
143152
143731
144312
144893
145475
146057
146639
147221
147803
148386
148969
149552
150137
150723
151310
151899
152490
153083
153679
154275
154875
155474
156076
156680
157280
157879
158475
159060
159633
160196
160741
161260
161751
162207
162619
166746
165853
165028
164223
163401
162565
161695
160790
159841
158843
157791
156683
155516
154299
153027
151728
150391
149047
147703
146383
145111
143896
142769
141730
140800
139984
139288
138718
138266
137933
137711
137595
137577
137650
137805
138036
138334
138693
139108
139573
140084
140636
141173
141677
142190
142712
143242
143777
144317
144860
145407
145955
146506
147058
147611
148166
148721
149278
149835
150394
150953
151514
152076
152639
153203
153769
154334
154900
155464
156029
156593
157151
157705
158254
158791
159315
159826
160320
160789
161234
161648
162026
166234
165425
164677
163951
163215
162473
161709
160920
160101
159247
158353
157419
156439
155419
154354
153263
152135
150990
149832
148679
147548
146445
145396
144404
143487
142654
141913
141274
140734
140298
139962
139726
139584
139532
139565
139676
139859
140109
140420
140788
141206
141672
142136
142578
143034
143503
143983
144472
144968
145470
145978
146490
147006
147524
148045
148568
149094
149620
150148
150678
151208
151739
152272
152804
153337
153870
154402
154934
155462
155988
156513
157029
157541
158046
158538
159016
159481
159930
160357
160762
161140
161488
165789
165052
164371
163713
163050
162386
161707
161012
160297
159555
158786
157986
157152
156288
155386
154463
153507
152532
151540
150543
149552
148572
147624
146709
145844
145037
144299
143637
143055
142559
142149
141826
141590
141438
141367
141373
141453
141601
141814
142086
142413
142792
143181
143559
143956
144368
144795
145234
145684
146142
146607
147079
147556
148038
148524
149013
149504
149998
150494
150991
151490
151989
152489
152990
153489
153988
154485
154981
155472
155961
156446
156923
157394
157857
158306
158743
159167
159576
159965
160335
160682
161004
165401
164729
164107