/*--------------------------------*- C++ -*----------------------------------*\
| =========                 |                                                 |
| \\      /  F ield         | OpenFOAM: The Open Source CFD Toolbox           |
|  \\    /   O peration     | Version:  5.x                                   |
|   \\  /    A nd           | Web:      www.OpenFOAM.org                      |
|    \\/     M anipulation  |                                                 |
\*---------------------------------------------------------------------------*/
FoamFile
{
    version     2.0;
    format      ascii;
    class       volScalarField;
    location    "150";
    object      p;
}
// * * * * * * * * * * * * * * * * * * * * * * * * * * * * * * * * * * * * * //

dimensions      [0 2 -2 0 0 0 0];

internalField   nonuniform List<scalar> 
11040
(
0.0652666
-91.4011
-332.313
-373.469
-369.76
-361.29
-343.645
-315.43
-280.147
-239.28
-193.006
-133.634
-78.2844
-35.6441
-1.64381
32.4009
64.7255
92.6969
114.62
129.395
137.469
140.716
142.39
143.615
144.534
145.204
145.649
145.906
145.999
145.939
145.731
145.387
144.959
144.556
144.414
144.965
146.483
148.648
152.154
157.87
153.401
54.2124
-38.0101
-188.207
-252.447
-275.183
-288.419
-290.551
-279.181
-256.723
-225.378
-186.359
-133.738
-81.192
-38.4591
-3.86869
30.2688
62.8082
91.2152
113.696
128.987
137.341
140.678
142.365
143.591
144.519
145.201
145.658
145.927
146.029
145.979
145.779
145.44
145.008
144.586
144.404
144.893
146.34
148.432
151.786
157.342
150.239
90.7338
-2.69171
-108.245
-191.829
-231.897
-251.99
-258.971
-252.59
-235.025
-208.539
-174.672
-129.029
-80.3834
-38.5351
-4.17496
29.2331
61.4303
89.9297
112.788
128.562
137.272
140.727
142.399
143.602
144.525
145.209
145.674
145.951
146.062
146.021
145.83
145.498
145.067
144.633
144.413
144.823
146.164
148.148
151.292
156.85
148.137
118.188
34.1871
-43.5592
-121.504
-169.221
-197.473
-213.347
-216.11
-206.599
-187.049
-159.419
-121.083
-77.4456
-37.4662
-3.70064
28.6947
60.2312
88.6139
111.757
128.043
137.214
140.848
142.507
143.672
144.568
145.241
145.708
145.989
146.108
146.076
145.895
145.569
145.137
144.685
144.417
144.725
145.921
147.751
150.636
156.068
147.022
140.889
68.878
8.7859
-58.5856
-109.732
-144.165
-166.561
-176.747
-174.771
-162.28
-141.246
-110.375
-72.6857
-35.5601
-2.83241
28.293
58.7849
86.7683
110.119
127.058
136.925
140.948
142.687
143.814
144.665
145.312
145.767
146.046
146.169
146.146
145.977
145.661
145.226
144.751
144.421
144.601
145.606
147.229
149.824
154.857
146.543
159.064
99.2782
51.3426
-4.82059
-53.843
-90.8721
-117.672
-133.927
-138.996
-133.683
-119.603
-96.3007
-65.2408
-32.0143
-1.08036
28.3794
57.3548
84.4931
107.783
125.382
136.176
140.905
142.916
144.04
144.84
145.442
145.868
146.131
146.252
146.235
146.078
145.774
145.338
144.838
144.433
144.458
145.224
146.586
148.872
153.248
146.446
173.602
124.9
85.9108
39.8708
-3.76283
-39.9754
-68.644
-88.9774
-99.817
-101.185
-94.0681
-78.342
-54.4309
-26.1794
2.00082
29.3086
56.3054
82.0736
104.844
122.871
134.69
140.486
143.105
144.353
145.118
145.659
146.033
146.265
146.369
146.35
146.202
145.911
145.477
144.95
144.462
144.312
144.798
145.857
147.816
151.38
146.58
185.168
145.817
113.822
76.3761
39.2721
6.2099
-21.9734
-44.1784
-58.9507
-65.7646
-64.9576
-56.3814
-39.7584
-17.379
6.99125
31.5211
56.0815
79.9508
101.629
119.583
132.255
139.307
142.945
144.662
145.526
146.01
146.3
146.473
146.541
146.507
146.36
146.078
145.648
145.093
144.522
144.185
144.368
145.107
146.724
149.479
146.781
194.282
162.514
136.155
105.793
75.0815
46.3738
20.4728
-1.5798
-18.3104
-28.8912
-33.1708
-30.8198
-21.0877
-5.02485
14.5899
35.5883
57.2074
78.6926
98.7352
115.996
129.055
137.11
141.883
144.544
145.928
146.56
146.778
146.822
146.804
146.729
146.568
146.289
145.862
145.285
144.635
144.115
143.998
144.424
145.709
147.83
146.966
201.353
175.622
153.855
129.262
104.224
80.1386
57.5004
37.1015
20.1787
7.6325
-0.136628
-2.64603
1.13276
11.0405
25.3432
42.1026
60.2272
78.8544
96.7951
112.823
125.708
134.211
139.724
143.415
145.724
146.993
147.497
147.524
147.33
147.09
146.852
146.559
146.134
145.547
144.84
144.168
143.783
143.921
144.902
146.65
147.168
206.736
185.783
167.769
147.839
127.581
107.8
88.7015
70.8032
54.9894
42.0474
32.4368
26.6713
25.8566
30.3819
39.4021
51.5196
65.6769
80.9825
96.3666
110.693
122.88
131.361
137.106
141.383
144.469
146.568
147.811
148.33
148.314
147.973
147.494
146.994
146.483
145.89
145.17
144.413
143.842
143.747
144.466
146.027
147.457
210.748
193.583
178.641
162.461
146.117
130.064
114.328
99.1939
85.229
73.0126
62.9506
55.4824
51.6141
51.9812
56.3567
63.931
73.9303
85.587
97.9954
110.16
121.122
129.227
134.92
139.341
142.722
145.276
147.146
148.377
149
149.09
148.779
148.201
147.451
146.602
145.719
144.888
144.247
144.027
144.584
146.054
147.974
213.671
199.527
187.103
173.932
160.743
147.787
134.998
122.504
110.65
99.7991
90.2515
82.3295
76.8396
74.4381
75.2375
78.8889
84.9703
92.9518
102.148
111.764
120.994
128.315
133.727
138.067
141.473
144.109
146.156
147.728
148.862
149.552
149.803
149.654
149.179
148.452
147.519
146.48
145.546
145.054
145.394
146.813
148.988
215.747
204.033
193.681
182.923
172.256
161.814
151.492
141.327
131.517
122.268
113.765
106.224
100.227
96.3253
94.7569
95.4509
98.2665
102.928
108.996
115.905
123.038
129.148
133.955
137.989
141.283
143.901
145.951
147.55
148.793
149.735
150.389
150.745
150.798
150.573
150.115
149.543
148.979
148.585
148.66
149.685
151.271
217.173
207.434
198.793
189.977
181.323
172.896
164.583
156.375
148.377
140.703
133.443
126.727
120.948
116.515
113.662
112.443
112.881
114.89
118.246
122.605
127.547
132.167
136.061
139.51
142.483
144.974
147.006
148.631
149.912
150.915
151.698
152.301
152.745
153.04
153.192
153.272
153.384
153.669
154.284
155.751
157.118
218.128
210.008
202.785
195.533
188.485
181.664
174.964
168.354
161.886
155.619
149.585
143.853
138.679
134.338
131.013
128.788
127.745
127.907
129.195
131.44
134.393
137.487
140.313
142.975
145.414
147.59
149.486
151.104
152.464
153.596
154.539
155.339
156.044
156.703
157.357
158.061
158.87
159.881
161.11
163.045
164.601
218.789
212.008
205.965
199.978
194.213
188.67
183.252
177.923
172.704
167.623
162.685
157.917
153.483
149.562
146.275
143.694
141.908
140.977
140.899
141.614
143.003
144.77
146.568
148.402
150.205
151.932
153.547
155.032
156.386
157.619
158.746
159.792
160.789
161.776
162.804
163.927
165.204
166.721
168.499
170.8
173.144
219.208
213.485
208.369
203.356
198.57
193.995
189.546
185.187
180.926
176.774
172.728
168.79
165.065
161.669
158.679
156.146
154.14
152.723
151.922
151.731
152.102
152.918
153.918
155.058
156.284
157.554
158.832
160.094
161.328
162.534
163.716
164.888
166.068
167.278
168.553
169.924
171.43
173.127
175.052
177.288
179.804
219.444
214.539
210.142
205.872
201.827
197.98
194.257
190.625
187.084
183.637
180.276
176.997
173.866
170.963
168.336
166.017
164.06
162.514
161.413
160.769
160.571
160.801
161.268
161.915
162.704
163.601
164.574
165.6
166.666
167.765
168.896
170.064
171.277
172.548
173.894
175.331
176.875
178.55
180.374
182.354
184.533
219.586
215.327
211.501
207.813
204.342
201.056
197.889
194.812
191.822
188.917
186.089
183.329
180.684
178.206
175.929
173.872
172.074
170.573
169.398
168.57
168.092
167.992
168.133
168.459
168.945
169.565
170.295
171.113
172.008
172.969
173.993
175.078
176.225
177.439
178.727
180.092
181.541
183.082
184.719
186.446
188.279
219.676
215.942
212.58
209.359
206.345
203.504
200.776
198.137
195.58
193.104
190.697
188.354
186.104
183.987
182.023
180.226
178.624
177.245
176.114
175.249
174.66
174.395
174.353
174.483
174.771
175.198
175.744
176.393
177.133
177.954
178.851
179.819
180.855
181.958
183.13
184.367
185.671
187.042
188.479
189.974
191.529
219.739
216.44
213.463
210.626
207.984
205.503
203.13
200.843
198.635
196.503
194.438
192.432
190.508
188.692
187.001
185.444
184.04
182.811
181.775
180.951
180.346
180.017
179.881
179.901
180.066
180.363
180.777
181.293
181.903
182.597
183.368
184.211
185.119
186.091
187.123
188.211
189.35
190.542
191.78
193.058
194.372
219.789
216.854
214.201
211.685
209.352
207.168
205.087
203.089
201.168
199.319
197.533
195.805
194.15
192.589
191.133
189.789
188.57
187.493
186.573
185.824
185.254
184.916
184.743
184.707
184.8
185.012
185.332
185.748
186.252
186.835
187.491
188.214
188.997
189.836
190.728
191.666
192.645
193.665
194.718
195.799
196.902
219.833
217.208
214.831
212.586
210.513
208.579
206.742
204.985
203.302
201.688
200.135
198.638
197.209
195.863
194.608
193.449
192.397
191.464
190.661
190
189.488
189.171
188.994
188.933
188.987
189.146
189.4
189.74
190.159
190.65
191.206
191.821
192.489
193.206
193.967
194.766
195.598
196.461
197.35
198.258
199.18
219.876
217.516
215.376
213.363
211.511
209.789
208.159
206.606
205.124
203.707
202.35
201.048
199.81
198.646
197.563
196.566
195.661
194.858
194.166
193.593
193.147
192.865
192.699
192.634
192.668
192.793
193
193.283
193.634
194.048
194.519
195.041
195.608
196.217
196.862
197.538
198.24
198.967
199.713
200.473
201.241
219.919
217.789
215.855
214.041
212.38
210.839
209.386
208.007
206.695
205.448
204.257
203.12
202.044
201.035
200.1
199.241
198.465
197.777
197.186
196.697
196.315
196.072
195.927
195.867
195.892
195.996
196.17
196.408
196.706
197.057
197.456
197.899
198.38
198.894
199.439
200.009
200.6
201.21
201.835
202.471
203.11
219.962
218.033
216.278
214.638
213.141
211.757
210.457
209.227
208.063
206.96
205.913
204.917
203.978
203.103
202.295
201.556
200.89
200.304
199.801
199.387
199.066
198.862
198.74
198.69
198.712
198.802
198.951
199.155
199.41
199.709
200.048
200.424
200.831
201.267
201.726
202.206
202.703
203.215
203.738
204.269
204.802
220.007
218.252
216.655
215.168
213.814
212.566
211.399
210.299
209.262
208.284
207.359
206.485
205.666
204.905
204.206
203.57
203
202.501
202.076
201.728
201.461
201.293
201.193
201.154
201.178
201.258
201.389
201.565
201.784
202.04
202.33
202.65
202.995
203.364
203.752
204.156
204.574
205.004
205.442
205.887
206.331
220.054
218.452
216.993
215.639
214.411
213.283
212.231
211.244
210.318
209.449
208.631
207.862
207.145
206.484
205.878
205.331
204.844
204.42
204.062
203.772
203.551
203.416
203.336
203.309
203.334
203.408
203.523
203.678
203.867
204.088
204.336
204.609
204.902
205.215
205.543
205.884
206.236
206.598
206.965
207.339
207.71
220.101
218.634
217.298
216.061
214.943
213.92
212.97
212.082
211.253
210.478
209.754
209.077
208.449
207.873
207.349
206.878
206.462
206.103
205.802
205.561
205.381
205.273
205.211
205.194
205.222
205.29
205.393
205.529
205.694
205.885
206.098
206.331
206.582
206.847
207.126
207.414
207.711
208.016
208.325
208.639
208.951
220.149
218.801
217.573
216.44
215.419
214.489
213.627
212.827
212.083
211.392
210.749
210.152
209.601
209.099
208.645
208.241
207.886
207.582
207.331
207.132
206.985
206.901
206.855
206.846
206.876
206.94
207.033
207.153
207.297
207.462
207.646
207.846
208.061
208.287
208.523
208.768
209.019
209.277
209.538
209.802
210.064
220.196
218.954
217.821
216.78
215.846
214.997
214.214
213.491
212.822
212.204
211.633
211.105
210.622
210.185
209.792
209.444
209.142
208.886
208.676
208.513
208.395
208.331
208.298
208.296
208.327
208.387
208.471
208.578
208.704
208.848
209.007
209.179
209.363
209.556
209.758
209.966
210.179
210.397
210.618
210.842
211.063
220.243
219.094
218.046
217.087
216.228
215.451
214.739
214.084
213.481
212.928
212.419
211.953
211.529
211.148
210.808
210.51
210.253
210.038
209.863
209.73
209.637
209.589
209.566
209.57
209.602
209.658
209.735
209.83
209.941
210.066
210.204
210.352
210.51
210.676
210.848
211.025
211.206
211.392
211.579
211.769
211.956
220.289
219.222
218.249
217.362
216.571
215.858
215.207
214.612
214.069
213.573
213.12
212.708
212.336
212.003
211.71
211.455
211.237
211.056
210.912
210.804
210.731
210.696
210.682
210.691
210.723
210.776
210.845
210.93
211.028
211.138
211.257
211.386
211.522
211.664
211.811
211.962
212.117
212.274
212.434
212.595
212.753
220.333
219.338
218.433
217.609
216.878
216.221
215.626
215.085
214.593
214.148
213.744
213.38
213.053
212.764
212.511
212.293
212.108
211.958
211.839
211.753
211.696
211.672
211.666
211.678
211.71
211.759
211.822
211.898
211.984
212.081
212.185
212.296
212.413
212.535
212.661
212.791
212.923
213.057
213.193
213.331
213.465
220.376
219.444
218.598
217.83
217.151
216.545
215.999
215.505
215.06
214.66
214.3
213.978
213.691
213.44
213.222
213.036
212.881
212.756
212.659
212.591
212.548
212.533
212.532
212.548
212.579
212.625
212.683
212.75
212.827
212.911
213.002
213.099
213.2
213.305
213.413
213.524
213.637
213.752
213.868
213.985
214.099
220.416
219.54
218.745
218.027
217.395
216.833
216.33
215.879
215.476
215.115
214.794
214.509
214.259
214.041
213.854
213.696
213.566
213.463
213.385
213.331
213.3
213.293
213.296
213.314
213.345
213.387
213.44
213.5
213.568
213.642
213.721
213.805
213.893
213.983
214.076
214.172
214.268
214.367
214.465
214.565
214.663
220.454
219.626
218.876
218.202
217.611
217.088
216.623
216.21
215.843
215.519
215.232
214.981
214.762
214.573
214.414
214.28
214.172
214.088
214.026
213.986
213.964
213.963
213.97
213.989
214.019
214.059
214.107
214.161
214.222
214.287
214.356
214.429
214.505
214.583
214.663
214.745
214.828
214.912
214.996
215.082
215.164
220.489
219.702
218.991
218.355
217.799
217.312
216.881
216.501
216.167
215.875
215.619
215.397
215.206
215.044
214.908
214.797
214.708
214.64
214.592
214.562
214.549
214.552
214.562
214.582
214.612
214.649
214.692
214.741
214.795
214.852
214.913
214.976
215.042
215.11
215.179
215.249
215.32
215.392
215.464
215.537
215.607
220.521
219.769
219.091
218.488
217.963
217.506
217.105
216.755
216.451
216.187
215.959
215.764
215.598
215.459
215.344
215.252
215.18
215.127
215.091
215.07
215.064
215.072
215.085
215.106
215.135
215.17
215.21
215.254
215.302
215.353
215.406
215.462
215.519
215.577
215.637
215.697
215.758
215.819
215.88
215.943
216.002
220.55
219.827
219.177
218.601
218.103
217.672
217.298
216.974
216.696
216.458
216.255
216.083
215.94
215.822
215.726
215.651
215.594
215.553
215.527
215.515
215.514
215.525
215.54
215.562
215.589
215.622
215.659
215.699
215.742
215.787
215.834
215.882
215.931
215.982
216.033
216.085
216.137
216.19
216.242
216.295
216.346
220.576
219.875
219.248
218.695
218.22
217.811
217.46
217.16
216.905
216.69
216.509
216.359
216.236
216.137
216.059
215.999
215.956
215.927
215.91
215.906
215.911
215.926
215.943
215.966
215.994
216.025
216.06
216.097
216.135
216.176
216.217
216.26
216.303
216.347
216.391
216.435
216.48
216.524
216.569
216.614
216.656
220.597
219.914
219.304
218.77
218.313
217.924
217.593
217.313
217.079
216.884
216.724
216.594
216.489
216.407
216.344
216.298
216.266
216.247
216.238
216.24
216.249
216.266
216.285
216.308
216.335
216.365
216.397
216.43
216.465
216.501
216.538
216.575
216.613
216.651
216.689
216.727
216.765
216.804
216.841
216.88
216.916
220.615
219.943
219.346
218.826
218.384
218.01
217.696
217.434
217.219
217.043
216.901
216.789
216.701
216.635
216.588
216.555
216.536
216.528
216.529
216.537
216.553
216.574
216.596
216.621
216.649
216.679
216.71
216.742
216.774
216.807
216.84
216.873
216.906
216.939
216.972
217.005
217.037
217.069
217.101
217.133
217.163
220.629
219.964
219.376
218.866
218.434
218.072
217.772
217.525
217.325
217.166
217.041
216.945
216.873
216.821
216.785
216.764
216.753
216.752
216.759
216.773
216.791
216.814
216.837
216.863
216.89
216.919
216.948
216.978
217.007
217.037
217.067
217.096
217.126
217.155
217.183
217.212
217.24
217.267
217.294
217.321
217.347
220.639
219.975
219.391
218.887
218.463
218.111
217.822
217.588
217.401
217.256
217.145
217.064
217.008
216.972
216.952
216.946
216.95
216.962
216.98
217.002
217.028
217.056
217.085
217.114
217.144
217.174
217.204
217.233
217.262
217.291
217.318
217.345
217.371
217.396
217.421
217.445
217.468
217.491
217.513
217.534
217.555
220.642
219.969
219.381
218.877
218.457
218.112
217.832
217.61
217.437
217.306
217.21
217.142
217.097
217.071
217.059
217.06
217.07
217.087
217.109
217.135
217.163
217.193
217.223
217.253
217.283
217.312
217.342
217.37
217.397
217.424
217.45
217.474
217.498
217.521
217.543
217.565
217.585
217.605
217.623
217.642
217.659
220.639
219.949
219.35
218.839
218.416
218.073
217.8
217.587
217.427
217.31
217.231
217.182
217.159
217.156
217.168
217.192
217.224
217.261
217.299
217.338
217.377
217.416
217.453
217.489
217.524
217.557
217.588
217.617
217.645
217.671
217.696
217.719
217.74
217.76
217.779
217.796
217.813
217.828
217.842
217.855
217.868
159.133
162.871
168.351
172.755
177.672
183.174
188.699
193.992
198.911
203.36
207.286
210.693
213.596
216.031
218.042
219.68
220.995
222.036
222.845
223.465
223.929
224.272
224.523
224.709
224.85
224.955
225.023
225.051
225.034
224.974
224.871
224.739
224.578
224.405
224.221
224.038
223.857
223.683
223.517
223.362
223.217
223.083
222.961
222.847
222.744
222.649
222.563
222.485
222.413
222.349
222.291
222.238
222.192
222.15
222.113
222.081
222.051
222.027
222.005
221.988
221.973
221.964
221.955
221.95
221.949
221.95
221.955
221.963
221.974
221.994
222.008
222.053
222.052
222.177
155.2
160.652
166.529
171.52
176.834
182.583
188.305
193.758
198.801
203.34
207.329
210.777
213.702
216.146
218.157
219.788
221.091
222.116
222.908
223.508
223.954
224.277
224.51
224.681
224.812
224.916
224.992
225.036
225.039
225
224.916
224.799
224.649
224.482
224.301
224.116
223.931
223.75
223.577
223.414
223.261
223.119
222.988
222.867
222.757
222.656
222.565
222.482
222.406
222.338
222.278
222.222
222.174
222.13
222.092
222.059
222.029
222.005
221.983
221.966
221.952
221.942
221.934
221.93
221.929
221.931
221.937
221.946
221.958
221.979
221.994
222.04
222.04
222.167
151.681
157.251
163.941
169.885
175.764
181.845
187.814
193.459
198.648
203.295
207.362
210.859
213.814
216.273
218.286
219.91
221.201
222.211
222.985
223.567
223.992
224.296
224.51
224.666
224.787
224.888
224.97
225.026
225.046
225.025
224.958
224.854
224.714
224.552
224.373
224.187
223.998
223.812
223.633
223.462
223.301
223.151
223.013
222.885
222.769
222.662
222.565
222.478
222.398
222.327
222.263
222.206
222.155
222.111
222.071
222.037
222.007
221.982
221.96
221.944
221.93
221.921
221.913
221.91
221.91
221.912
221.919
221.929
221.942
221.964
221.98
222.026
222.028
222.156
148.686
153.829
160.91
167.799
174.397
180.922
187.201
193.079
198.443
203.22
207.379
210.938
213.932
216.41
218.43
220.05
221.331
222.326
223.083
223.646
224.053
224.339
224.535
224.675
224.785
224.879
224.962
225.023
225.052
225.042
224.987
224.893
224.761
224.604
224.426
224.24
224.049
223.859
223.675
223.499
223.332
223.177
223.033
222.899
222.778
222.666
222.565
222.474
222.391
222.317
222.251
222.192
222.14
222.094
222.053
222.019
221.987
221.963
221.941
221.924
221.911
221.902
221.895
221.892
221.892
221.896
221.903
221.914
221.927
221.95
221.967
222.014
222.017
222.145
146.73
151.178
157.968
165.416
172.723
179.793
186.46
192.623
198.202
203.132
207.399
211.031
214.07
216.572
218.599
220.217
221.487
222.466
223.204
223.748
224.135
224.401
224.58
224.704
224.8
224.886
224.964
225.027
225.06
225.057
225.01
224.923
224.796
224.643
224.468
224.281
224.089
223.897
223.709
223.528
223.357
223.196
223.048
222.909
222.784
222.668
222.564
222.469
222.384
222.307
222.239
222.178
222.124
222.077
222.036
222.001
221.969
221.944
221.922
221.906
221.892
221.884
221.877
221.875
221.876
221.88
221.888
221.899
221.913
221.937
221.954
222.002
222.006
222.135
145.706
149.401
155.576
163.113
170.887
178.477
185.593
192.094
197.927
203.048
207.444
211.158
214.247
216.775
218.81
220.422
221.679
222.639
223.356
223.876
224.241
224.486
224.645
224.752
224.833
224.907
224.978
225.037
225.07
225.07
225.028
224.945
224.824
224.673
224.5
224.314
224.12
223.926
223.735
223.551
223.376
223.212
223.059
222.917
222.788
222.668
222.561
222.463
222.375
222.296
222.227
222.164
222.109
222.061
222.019
221.983
221.951
221.926
221.904
221.888
221.874
221.866
221.86
221.858
221.859
221.864
221.873
221.885
221.899
221.924
221.942
221.991
221.995
222.124
145.441
148.53
154.062
161.312
169.202
177.122
184.641
191.509
197.628
202.967
207.526
211.344
214.488
217.04
219.078
220.681
221.919
222.855
223.545
224.039
224.378
224.598
224.735
224.821
224.884
224.943
225.001
225.052
225.082
225.081
225.04
224.96
224.842
224.694
224.522
224.337
224.143
223.948
223.755
223.568
223.39
223.223
223.067
222.921
222.789
222.666
222.556
222.456
222.366
222.285
222.214
222.15
222.094
222.045
222.002
221.965
221.933
221.908
221.886
221.869
221.856
221.848
221.842
221.841
221.843
221.848
221.857
221.87
221.885
221.91
221.929
221.979
221.984
222.114
145.886
148.594
153.586
160.361
168.044
176.016
183.759
190.932
197.341
202.908
207.643
211.593
214.816
217.396
219.432
221.015
222.226
223.13
223.785
224.245
224.552
224.743
224.853
224.915
224.956
224.995
225.036
225.074
225.094
225.089
225.046
224.967
224.85
224.704
224.535
224.35
224.157
223.961
223.767
223.579
223.399
223.229
223.07
222.923
222.788
222.663
222.55
222.448
222.356
222.274
222.201
222.136
222.078
222.029
221.985
221.948
221.916
221.89
221.868
221.852
221.839
221.831
221.825
221.824
221.827
221.832
221.842
221.856
221.872
221.897
221.917
221.966
221.973
222.102
146.981
149.568
154.169
160.454
167.743
175.497
183.216
190.519
197.142
202.925
207.828
211.904
215.222
217.855
219.897
221.454
222.622
223.48
224.09
224.506
224.772
224.927
225.004
225.037
225.051
225.064
225.083
225.102
225.109
225.094
225.046
224.965
224.849
224.704
224.536
224.354
224.161
223.966
223.772
223.583
223.402
223.231
223.07
222.921
222.784
222.657
222.543
222.439
222.345
222.262
222.187
222.121
222.063
222.012
221.968
221.931
221.898
221.872
221.85
221.834
221.821
221.814
221.809
221.808
221.811
221.817
221.827
221.841
221.858
221.884
221.904
221.954
221.962
222.091
148.58
151.32
155.759
161.613
168.466
175.842
183.308
190.515
197.178
203.084
208.13
212.319
215.712
218.393
220.458
222.005
223.133
223.932
224.478
224.835
225.049
225.158
225.194
225.19
225.171
225.153
225.143
225.138
225.126
225.097
225.041
224.955
224.837
224.693
224.527
224.346
224.156
223.962
223.769
223.58
223.399
223.227
223.066
222.915
222.777
222.649
222.533
222.428
222.333
222.249
222.173
222.106
222.047
221.996
221.952
221.914
221.881
221.855
221.833
221.817
221.804
221.797
221.792
221.792
221.795
221.802
221.812
221.827
221.844
221.87
221.892
221.942
221.951
222.079
150.407
153.551
158.131
163.749
170.192
177.141
184.24
191.161
197.657
203.511
208.595
212.862
216.318
219.025
221.09
222.626
223.73
224.484
224.968
225.253
225.397
225.445
225.43
225.38
225.319
225.263
225.219
225.182
225.145
225.098
225.029
224.936
224.816
224.672
224.507
224.328
224.14
223.948
223.757
223.57
223.389
223.217
223.056
222.905
222.766
222.638
222.521
222.416
222.32
222.234
222.158
222.091
222.031
221.98
221.935
221.897
221.864
221.837
221.816
221.799
221.787
221.78
221.775
221.775
221.779
221.786
221.797
221.812
221.83
221.857
221.879
221.929
221.939
222.067
152.129
155.806
160.777
166.472
172.716
179.314
186.006
192.546
198.735
204.365
209.321
213.551
217.023
219.747
221.803
223.306
224.366
225.075
225.51
225.74
225.821
225.801
225.72
225.612
225.499
225.396
225.309
225.236
225.168
225.097
225.012
224.909
224.784
224.638
224.475
224.298
224.113
223.924
223.736
223.551
223.372
223.202
223.041
222.891
222.752
222.624
222.507
222.401
222.305
222.219
222.142
222.074
222.014
221.962
221.917
221.879
221.846
221.82
221.798
221.782
221.77
221.763
221.759
221.759
221.763
221.771
221.782
221.798
221.816
221.843
221.866
221.917
221.928
222.054
153.883
157.933
163.166
169.104
175.446
181.946
188.374
194.566
200.388
205.7
210.4
214.449
217.818
220.496
222.531
224.013
225.031
225.678
226.048
226.22
226.252
226.185
226.052
225.886
225.715
225.555
225.416
225.298
225.194
225.093
224.988
224.871
224.739
224.591
224.429
224.255
224.074
223.889
223.704
223.522
223.347
223.179
223.02
222.871
222.733
222.605
222.489
222.383
222.287
222.201
222.125
222.056
221.996
221.944
221.899
221.861
221.828
221.802
221.78
221.764
221.752
221.745
221.742
221.742
221.747
221.755
221.767
221.783
221.802
221.829
221.853
221.903
221.916
222.041
156.66
160.46
165.587
171.659
178.039
184.472
190.782
196.792
202.348
207.348
211.75
215.545
218.713
221.252
223.205
224.645
225.635
226.244
226.559
226.667
226.635
226.513
226.337
226.135
225.928
225.726
225.539
225.372
225.223
225.087
224.956
224.823
224.681
224.53
224.368
224.197
224.02
223.84
223.66
223.483
223.312
223.147
222.991
222.845
222.709
222.583
222.467
222.362
222.267
222.181
222.105
222.037
221.977
221.925
221.88
221.842
221.81
221.783
221.762
221.746
221.735
221.728
221.725
221.726
221.731
221.739
221.751
221.768
221.787
221.815
221.839
221.89
221.903
222.028
163.144
166.254
170.432
175.882
181.673
187.468
193.195
198.729
203.921
208.665
212.878
216.49
219.477
221.865
223.71
225.081
226.037
226.635
226.945
227.039
226.974
226.8
226.564
226.308
226.059
225.826
225.614
225.42
225.242
225.075
224.916
224.762
224.607
224.45
224.288
224.121
223.95
223.776
223.603
223.432
223.266
223.106
222.954
222.811
222.678
222.554
222.441
222.337
222.243
222.158
222.083
222.016
221.956
221.905
221.86
221.822
221.79
221.764
221.743
221.728
221.716
221.71
221.707
221.708
221.714
221.723
221.735
221.752
221.772
221.8
221.826
221.876
221.891
222.013
169.908
172.728
176.203
180.898
186.051
191.257
196.45
201.527
206.315
210.672
214.505
217.762
220.425
222.523
224.116
225.277
226.089
226.621
226.926
227.052
227.032
226.895
226.676
226.412
226.134
225.86
225.607
225.383
225.187
225.01
224.844
224.681
224.519
224.356
224.191
224.026
223.86
223.694
223.528
223.365
223.206
223.053
222.907
222.769
222.64
222.519
222.409
222.307
222.215
222.132
222.058
221.991
221.933
221.882
221.838
221.801
221.769
221.744
221.723
221.708
221.697
221.691
221.689
221.691
221.696
221.706
221.719
221.736
221.757
221.785
221.811
221.862
221.878
221.998
176.924
179.601
182.5
186.037
189.98
194.1
198.324
202.586
206.765
210.73
214.366
217.586
220.331
222.579
224.336
225.62
226.467
226.938
227.116
227.091
226.945
226.739
226.507
226.263
226.012
225.756
225.501
225.26
225.04
224.844
224.67
224.512
224.362
224.214
224.062
223.907
223.75
223.592
223.435
223.281
223.131
222.986
222.847
222.715
222.592
222.476
222.369
222.271
222.182
222.101
222.028
221.964
221.907
221.857
221.814
221.777
221.747
221.722
221.702
221.687
221.677
221.672
221.67
221.672
221.678
221.688
221.702
221.72
221.741
221.77
221.797
221.847
221.864
221.983
182.395
184.704
187.117
189.774
192.689
195.793
199.026
202.34
205.676
208.963
212.126
215.094
217.8
220.183
222.196
223.811
225.029
225.88
226.415
226.688
226.749
226.649
226.437
226.162
225.866
225.579
225.314
225.074
224.857
224.658
224.476
224.309
224.157
224.013
223.876
223.74
223.602
223.463
223.321
223.18
223.04
222.905
222.775
222.651
222.534
222.424
222.322
222.229
222.143
222.065
221.995
221.933
221.877
221.829
221.788
221.752
221.722
221.698
221.679
221.666
221.656
221.651
221.65
221.653
221.66
221.67
221.684
221.703
221.725
221.754
221.781
221.831
221.85
221.967
186.487
188.402
190.422
192.537
194.794
197.189
199.685
202.25
204.85
207.447
209.998
212.458
214.786
216.945
218.902
220.632
222.115
223.339
224.298
224.996
225.448
225.686
225.755
225.697
225.552
225.354
225.128
224.895
224.671
224.465
224.278
224.111
223.959
223.817
223.684
223.556
223.431
223.307
223.183
223.059
222.935
222.813
222.693
222.578
222.468
222.365
222.269
222.18
222.099
222.025
221.958
221.898
221.845
221.799
221.759
221.725
221.696
221.673
221.656
221.643
221.634
221.63
221.629
221.633
221.64
221.651
221.666
221.685
221.708
221.737
221.765
221.815
221.836
221.95
189.894
191.459
193.109
194.811
196.6
198.484
200.446
202.463
204.519
206.589
208.648
210.667
212.618
214.473
216.209
217.804
219.242
220.513
221.61
222.533
223.283
223.866
224.289
224.562
224.702
224.731
224.677
224.566
224.421
224.258
224.09
223.923
223.765
223.618
223.484
223.361
223.245
223.134
223.026
222.918
222.81
222.703
222.598
222.494
222.394
222.299
222.21
222.126
222.05
221.98
221.916
221.86
221.809
221.765
221.727
221.695
221.668
221.647
221.63
221.618
221.61
221.607
221.608
221.612
221.62
221.632
221.647
221.667
221.69
221.72
221.749
221.798
221.82
221.932
192.886
194.146
195.469
196.834
198.263
199.763
201.322
202.93
204.574
206.241
207.915
209.577
211.207
212.786
214.293
215.712
217.027
218.229
219.31
220.267
221.102
221.818
222.419
222.91
223.296
223.582
223.772
223.876
223.903
223.871
223.795
223.691
223.571
223.442
223.311
223.182
223.062
222.952
222.851
222.757
222.665
222.575
222.485
222.396
222.308
222.224
222.143
222.066
221.995
221.93
221.871
221.818
221.77
221.729
221.693
221.663
221.638
221.618
221.603
221.592
221.586
221.583
221.585
221.59
221.599
221.611
221.628
221.648
221.671
221.702
221.732
221.781
221.804
221.913
195.504
196.514
197.572
198.667
199.813
201.014
202.263
203.553
204.879
206.23
207.598
208.97
210.332
211.671
212.972
214.222
215.407
216.517
217.542
218.477
219.318
220.065
220.721
221.29
221.778
222.192
222.536
222.812
223.022
223.167
223.249
223.275
223.253
223.195
223.114
223.016
222.91
222.801
222.694
222.596
222.507
222.428
222.353
222.28
222.207
222.135
222.065
221.998
221.934
221.875
221.82
221.771
221.727
221.689
221.656
221.628
221.605
221.587
221.574
221.564
221.559
221.558
221.56
221.567
221.577
221.59
221.607
221.628
221.652
221.683
221.714
221.763
221.788
221.894
197.843
198.65
199.495
200.373
201.293
202.257
203.26
204.299
205.371
206.469
207.589
208.721
209.857
210.987
212.102
213.19
214.242
215.247
216.197
217.084
217.903
218.651
219.326
219.928
220.461
220.927
221.333
221.684
221.984
222.238
222.444
222.603
222.712
222.772
222.787
222.765
222.714
222.643
222.559
222.468
222.377
222.29
222.214
222.147
222.086
222.029
221.973
221.917
221.863
221.812
221.764
221.72
221.681
221.646
221.616
221.59
221.57
221.554
221.542
221.534
221.531
221.531
221.535
221.542
221.553
221.567
221.585
221.607
221.632
221.663
221.695
221.743
221.77
221.874
199.96
200.603
201.278
201.982
202.72
203.493
204.299
205.137
206.003
206.896
207.811