/*--------------------------------*- C++ -*----------------------------------*\
| =========                 |                                                 |
| \\      /  F ield         | OpenFOAM: The Open Source CFD Toolbox           |
|  \\    /   O peration     | Version:  5.x                                   |
|   \\  /    A nd           | Web:      www.OpenFOAM.org                      |
|    \\/     M anipulation  |                                                 |
\*---------------------------------------------------------------------------*/
FoamFile
{
    version     2.0;
    format      ascii;
    class       surfaceScalarField;
    location    "150";
    object      phi;
}
// * * * * * * * * * * * * * * * * * * * * * * * * * * * * * * * * * * * * * //

dimensions      [0 3 -1 0 0 0 0];

internalField   nonuniform List<scalar> 
83317
(
0.00044576
0.000640204
-0.000504319
0.000372311
7.48974e-05
0.000305761
6.6214e-05
0.000279194
2.6811e-05
0.000268236
1.0955e-05
0.000260597
8.08217e-06
0.000254864
5.95371e-06
0.000250241
4.92095e-06
0.000246034
4.21759e-06
0.000242248
4.06509e-06
0.000240748
1.0942e-05
0.000240786
-7.62196e-06
0.000242159
6.44677e-06
0.000243176
-9.77538e-06
0.000244189
6.72725e-06
0.000244967
-8.17332e-06
0.000244978
7.1716e-06
0.000245051
-6.86681e-06
0.000244405
8.01369e-06
0.000244002
-5.988e-06
0.000243204
6.74758e-07
0.000242292
9.2986e-07
0.000241724
4.92677e-07
0.000240803
9.10978e-07
0.000240188
6.18389e-07
0.000239463
7.16575e-07
0.000238779
6.71233e-07
0.000238031
6.82906e-07
0.00023717
9.03659e-07
0.000235934
1.23394e-06
0.00023422
1.71244e-06
0.000233164
7.99687e-06
0.000232888
-4.96062e-06
0.000232464
6.54408e-06
0.000232086
-5.22009e-06
0.000231957
5.77013e-06
0.000231621
-6.56284e-06
0.000232626
5.29771e-06
0.000233729
-7.20386e-06
0.000233769
5.79947e-06
0.000234379
-6.07816e-06
0.0002313
7.14256e-06
0.000228521
-1.23392e-06
0.000228878
2.82831e-06
0.000228218
-2.07836e-06
0.000228354
1.9343e-06
0.000229323
-2.70724e-06
0.000229519
1.73876e-06
0.000228915
-1.08649e-06
0.000228338
4.06043e-06
0.00022868
-2.18067e-06
0.000229097
2.10494e-06
0.000230398
-4.31166e-06
0.000231787
1.50515e-06
0.00023236
-3.03651e-06
0.000233021
1.96225e-06
0.000232847
-2.2865e-06
0.000233549
1.26463e-06
0.000234301
-2.55131e-06
0.000234995
8.51749e-07
0.00023583
-2.26774e-06
0.000235511
1.93334e-06
0.000236256
-2.27646e-06
0.000236999
1.05041e-07
0.00023838
-2.10915e-06
0.000240146
-2.00614e-06
0.000240924
-5.80258e-07
0.000241256
-5.73604e-07
0.000241076
5.01954e-07
0.000241602
-9.97529e-07
0.000242279
-1.17955e-07
0.000242299
-1.32782e-06
0.000241496
1.95658e-06
0.000241181
-3.29691e-06
0.000241325
3.00106e-06
0.000240414
-6.19054e-06
0.000239076
8.67231e-06
0.000236997
-9.11694e-06
0.000232762
1.58856e-05
0.000232523
-3.73468e-05
0.000129109
0.000135657
-0.000410867
0.000544215
0.000680461
0.000722066
-0.000753767
0.000535977
0.00022026
0.000427822
0.000174057
0.00038992
6.4899e-05
0.000380071
2.08472e-05
0.00037607
1.23922e-05
0.000376176
6.04333e-06
0.000377912
3.45783e-06
0.000380079
2.16233e-06
0.000382715
1.6495e-06
0.000386794
1.22396e-05
0.000392422
-1.7467e-05
0.000398777
4.09426e-06
0.00040493
-2.08977e-05
0.000411285
4.41251e-06
0.000416395
-1.73404e-05
0.000421577
5.76219e-06
0.000425774
-1.46649e-05
0.000429729
7.90878e-06
0.00043324
-1.27595e-05
0.00043562
-1.8318e-06
0.000438056
-1.46274e-06
0.000439426
-1.01023e-06
0.000440684
-3.56564e-07
0.000441292
-2.58219e-08
0.000441307
6.95635e-07
0.000441712
2.16425e-07
0.000441323
1.03078e-06
0.000440608
1.6294e-06
0.000440091
1.76495e-06
0.000439645
1.99513e-06
0.000438834
1.26023e-05
0.000437617
-6.65805e-06
0.000436448
1.10341e-05
0.000435231
-6.93524e-06
0.00043397
9.89938e-06
0.000432764
-9.37291e-06
0.000431353
1.0399e-05
0.000429682
-8.87469e-06
0.000428441
1.04385e-05
0.000427342
-7.82276e-06
0.000429251
7.53638e-06
0.000432009
-6.10564e-06
0.00043305
3.54801e-06
0.000433636
-4.07837e-06
0.00043335
3.42608e-06
0.000433033
-3.30889e-06
0.00043313
2.78025e-06
0.000433661
-2.5101e-06
0.000434243
5.48499e-06
0.000434471
-3.31597e-06
0.00043475
3.1307e-06
0.000434671
-5.85549e-06
0.000434625
3.09997e-06
0.000435417
-5.01402e-06
0.000436257
2.4942e-06
0.00043679
-4.06921e-06
0.000437347
1.72997e-06
0.00043795
-4.09905e-06
0.000438255
1.37847e-06
0.000438937
-3.70669e-06
0.000440055
1.69452e-06
0.000440623
-3.68632e-06
0.000441159
5.66636e-08
0.000441316
-2.66566e-06
0.000441684
-2.5951e-06
0.000442398
-1.16993e-06
0.000442435
-7.51856e-07
0.000442672
4.75318e-07
0.000443024
-1.75461e-06
0.000442766
4.74821e-07
0.000442236
-1.5731e-06
0.000442057
2.73728e-06
0.000441563
-4.90182e-06
0.000440129
6.19622e-06
0.000438394
-8.29543e-06
0.000436195
1.4885e-05
0.000433117
-1.28913e-05
0.000427346
2.79563e-05
0.000427057
-5.79871e-05
0.000263087
0.000317231
-0.000829017
0.000687542
0.000903898
0.000799335
-0.000990942
0.000703539
0.000421239
0.000554455
0.000323062
0.000505152
0.000114304
0.000494807
3.11654e-05
0.000492987
1.43848e-05
0.000497386
1.70032e-06
0.000504058
-3.12449e-06
0.000511294
-5.11068e-06
0.000519055
-6.02183e-06
0.000527612
7.01157e-06
0.000537533
-3.00133e-05
0.000547688
-3.20449e-06
0.000557155
-3.32861e-05
0.00056685
-2.62928e-06
0.000574366
-2.72242e-05
0.000582068
4.14813e-07
0.000588243
-2.29371e-05
0.000594055
4.44329e-06
0.000599208
-1.98256e-05
0.000602986
-5.61303e-06
0.00060663
-5.1097e-06
0.000608857
-3.20249e-06
0.000610859
-2.34371e-06
0.000612043
-1.18185e-06
0.00061276
-8.44101e-09
0.000613254
-2.57674e-07
0.000613047
1.22888e-06
0.00061282
1.88006e-06
0.000612189
2.40418e-06
0.000611484
2.79728e-06
0.000610517
1.55102e-05
0.000609262
-6.74087e-06
0.000607916
1.41434e-05
0.000606448
-7.07606e-06
0.000604883
1.31825e-05
0.000603217
-9.57264e-06
0.000601238
1.40744e-05
0.000599137
-8.60469e-06
0.00059734
1.39234e-05
0.000595248
-7.46547e-06
0.000599168
4.84872e-06
0.000604246
-1.24028e-05
0.000605246
3.48728e-06
0.000605772
-5.43302e-06
0.000605953
3.81397e-06
0.000605905
-3.77801e-06
0.000606078
3.1461e-06
0.000606482
-3.42319e-06
0.000606928
6.0396e-06
0.000607221
-4.14819e-06
0.000607571
3.55404e-06
0.000607759
-6.94053e-06
0.000607981
3.7765e-06
0.000608482
-6.33144e-06
0.000609021
2.77599e-06
0.000609835
-5.66772e-06
0.000610492
1.68827e-06
0.000611203
-5.36939e-06
0.000611988
1.06435e-06
0.00061279
-4.95642e-06
0.000613808
1.16741e-06
0.000614447
-4.76587e-06
0.000615051
-2.96868e-07
0.000615409
-3.22419e-06
0.000615678
-2.88615e-06
0.000616044
-1.47366e-06
0.000616442
-1.21523e-06
0.000616823
1.85987e-07
0.000616724
-1.71509e-06
0.000616553
8.05742e-07
0.00061612
-1.52212e-06
0.000615481
3.75659e-06
0.000614422
-4.8794e-06
0.00061273
8.82594e-06
0.000610368
-8.16302e-06
0.000607057
2.05034e-05
0.000603031
-1.19598e-05
0.000595603
3.90914e-05
0.00059528
-6.93365e-05
0.000405482
0.000516866
-0.00129506
0.000876576
0.00117542
0.000898746
-0.00126986
0.00091398
0.000683422
0.000714044
0.00052269
0.000649504
0.000179
0.00063784
4.28361e-05
0.000638541
1.39581e-05
0.000647613
-7.21265e-06
0.000659533
-1.48136e-05
0.000672018
-1.75005e-05
0.000684698
-1.85362e-05
0.000697346
-2.72538e-06
0.000710506
-4.53354e-05
0.00072362
-1.44058e-05
0.000735368
-4.75603e-05
0.000747306
-1.26749e-05
0.000756637
-3.84943e-05
0.000765874
-7.06422e-06
0.000773459
-3.21626e-05
0.000780347
-6.60831e-07
0.000786556
-2.74482e-05
0.000791194
-1.03435e-05
0.000795546
-9.44914e-06
0.000798431
-6.19156e-06
0.00080091
-4.84336e-06
0.00080256
-2.87e-06
0.00080366
-1.11494e-06
0.000804423
-1.05492e-06
0.00080444
1.19358e-06
0.000804417
1.88633e-06
0.000803855
2.96943e-06
0.000803034
3.49454e-06
0.000802025
1.82882e-05
0.00080092
-6.94968e-06
0.000799623
1.69837e-05
0.000798162
-6.91943e-06
0.000796615
1.59797e-05
0.00079483
-9.74753e-06
0.00079295
1.7759e-05
0.000790942
-8.19023e-06
0.000788983
1.75708e-05
0.000786679
-6.48146e-06
0.000790772
1.9107e-06
0.000796343
-1.89205e-05
0.000797724
2.9304e-06
0.000798354
-6.69466e-06
0.000798772
3.98497e-06
0.000799035
-4.44772e-06
0.000799392
3.34663e-06
0.000799845
-4.2728e-06
0.000800342
6.54076e-06
0.000800833
-5.00487e-06
0.000801395
3.58025e-06
0.00080194
-8.25281e-06
0.000802534
3.91118e-06
0.000803233
-7.53247e-06
0.000803983
2.67447e-06
0.000804968
-7.22534e-06
0.000805895
1.2367e-06
0.000806887
-6.80501e-06
0.000807993
3.55611e-07
0.000809097
-6.41057e-06
0.000810184
5.04803e-07
0.000811066
-6.04926e-06
0.000811902
-8.85243e-07
0.000812572
-4.07835e-06
0.000813204
-3.64632e-06
0.000813702
-1.90119e-06
0.000814254
-1.83537e-06
0.000814663
-1.04386e-07
0.000814554
-1.83785e-06
0.000814468
1.05927e-06
0.000813951
-1.41255e-06
0.000812951
5.04557e-06
0.000811578
-4.57294e-06
0.000809607
1.1666e-05
0.000806596
-7.02051e-06
0.000802333
2.67959e-05
0.000797173
-1.04167e-05
0.000787545
5.18309e-05
0.0007872
-7.94695e-05
0.000582523
0.000730144
-0.00182038
0.00111419
0.00150035
0.00097835
-0.00159164
0.00117075
0.00101357
0.000911129
0.000782304
0.000825879
0.000264316
0.000811038
5.76071e-05
0.000813874
1.124e-05
0.000827119
-2.0445e-05
0.000843985
-3.16539e-05
0.000861589
-3.51825e-05
0.000879078
-3.59948e-05
0.000895956
-1.7989e-05
0.000912396
-6.304e-05
0.000928661
-2.91704e-05
0.00094308
-6.33952e-05
0.000957636
-2.58586e-05
0.000969384
-5.13976e-05
0.000980713
-1.71807e-05
0.000990281
-4.27838e-05
0.000998816
-7.97105e-06
0.00100661
-3.62349e-05
0.00101254
-1.62538e-05
0.00101804
-1.49677e-05
0.00102194
-1.00383e-05
0.00102523
-8.12867e-06
0.00102762
-5.2248e-06
0.00102926
-2.74609e-06
0.00103055
-2.32521e-06
0.00103097
7.73547e-07
0.00103124
1.62983e-06
0.00103093
3.28595e-06
0.00103027
4.27042e-06
0.00102942
2.01391e-05
0.00102845
-6.60914e-06
0.00102728
1.90689e-05
0.00102591
-6.40362e-06
0.00102445
1.83837e-05
0.00102271
-8.92688e-06
0.00102093
2.03321e-05
0.00101898
-7.21435e-06
0.001017
2.03719e-05
0.00101469
-5.14169e-06
0.00101884
-1.58839e-06
0.00102483
-2.55784e-05
0.00102678
1.47651e-06
0.0010277
-8.07801e-06
0.00102837
3.59346e-06
0.00102894
-5.2919e-06
0.00102956
2.99074e-06
0.00103023
-5.2279e-06
0.00103096
6.34805e-06
0.00103173
-6.06305e-06
0.00103259
3.14396e-06
0.00103349
-9.64364e-06
0.00103444
3.45319e-06
0.0010355
-9.07287e-06
0.00103662
2.0206e-06
0.00103789
-8.95228e-06
0.00103919
2.91808e-07
0.00104056
-8.49133e-06
0.00104203
-8.53263e-07
0.00104354
-8.16681e-06
0.00104495
-6.4285e-07
0.00104617
-7.49958e-06
0.00104732
-1.90355e-06
0.0010483
-5.1675e-06
0.00104928
-4.60106e-06
0.00105004
-2.62721e-06
0.00105075
-2.57636e-06
0.00105125
-5.70735e-07
0.00105123
-1.80083e-06
0.00105119
1.1913e-06
0.00105056
-9.75293e-07
0.00104931
6.51113e-06
0.00104764
-3.44567e-06
0.0010452
1.46028e-05
0.00104144
-4.51478e-06
0.00103611
3.3428e-05
0.00102959
-5.38222e-06
0.00101731
6.62184e-05
0.00101694
-8.56643e-05
0.000799311
0.000953105
-0.00242184
0.00140429
0.00188733
0.00106338
-0.001968
0.00147899
0.00142262
0.00114827
0.00111275
0.00103718
0.000375517
0.00101741
7.73279e-05
0.00102216
6.72933e-06
0.0010399
-3.80482e-05
0.0010624
-5.39633e-05
0.00108601
-5.87371e-05
0.00110936
-5.92023e-05
0.00113166
-3.86348e-05
0.0011526
-8.5156e-05
0.00117312
-4.86891e-05
0.00119123
-8.30008e-05
0.00120936
-4.29231e-05
0.00122435
-6.75317e-05
0.00123855
-3.0346e-05
0.00125078
-5.59761e-05
0.00126158
-1.76852e-05
0.00127153
-4.69975e-05
0.00127923
-2.40489e-05
0.00128633
-2.20811e-05
0.00129162
-1.54376e-05
0.00129606
-1.26136e-05
0.00129947
-8.68734e-06
0.0013019
-5.19156e-06
0.00130394
-4.40114e-06
0.00130493
-2.30881e-07
0.00130569
8.30272e-07
0.00130577
3.19761e-06
0.00130542
4.50011e-06
0.00130487
2.18647e-05
0.00130412
-6.69541e-06
0.00130315
2.104e-05
0.00130195
-6.00911e-06
0.00130065
2.04095e-05
0.00129906
-8.67696e-06
0.00129741
2.32081e-05
0.00129556
-6.37868e-06
0.00129368
2.33956e-05
0.00129143
-3.69555e-06
0.00129569
-5.08449e-06
0.0013022
-3.26772e-05
0.00130484
-6.2281e-07
0.00130621
-9.82104e-06
0.00130724
2.96542e-06
0.00130818
-6.47729e-06
0.00130915
2.40422e-06
0.00131017
-6.48078e-06
0.00131123
5.99165e-06
0.00131238
-7.39855e-06
0.00131363
2.25468e-06
0.00131496
-1.1474e-05
0.00131635
2.53524e-06
0.00131785
-1.08536e-05
0.00131944
8.59129e-07
0.00132113
-1.10008e-05
0.00132291
-1.17732e-06
0.00132476
-1.06289e-05
0.00132672
-2.54914e-06
0.00132874
-1.04023e-05
0.00133063
-2.25857e-06
0.00133228
-9.40669e-06
0.00133383
-3.27653e-06
0.0013352
-6.65083e-06
0.00133653
-6.03974e-06
0.00133761
-3.6505e-06
0.00133855
-3.56032e-06
0.00133923
-1.15946e-06
0.00133932
-2.07442e-06
0.00133933
1.28955e-06
0.00133859
-5.41422e-07
0.0013371
8.18755e-06
0.00133504
-2.12867e-06
0.00133201
1.81865e-05
0.00132736
-1.07842e-06
0.00132072
4.1438e-05
0.00131256
2.07669e-07
0.00129708
8.37133e-05
0.00129667
-9.2306e-05
0.00106091
0.0011943
-0.00310816
0.00175235
0.00235025
0.00111377
-0.00241194
0.00185127
0.00192197
0.0014346
0.00152948
0.00129195
0.000518222
0.00126558
0.00010362
0.00127232
5.25439e-08
0.00129545
-6.11991e-05
0.00132481
-8.33322e-05
0.00135579
-8.98023e-05
0.00138642
-8.98225e-05
0.00141556
-6.69519e-05
0.00144237
-0.000112605
0.00146843
-7.38528e-05
0.00149135
-0.000106682
0.00151415
-6.48907e-05
0.00153331
-8.73335e-05
0.00155127
-4.75669e-05
0.00156694
-7.2254e-05
0.00158071
-3.06999e-05
0.00159345
-6.03256e-05
0.00160349
-3.40692e-05
0.0016127
-3.12952e-05
0.00161981
-2.24768e-05
0.00162579
-1.85749e-05
0.00163057
-1.34239e-05
0.00163409
-8.69867e-06
0.00163715
-7.41846e-06
0.00163894
-2.0276e-06
0.00164039
-5.86885e-07
0.00164104
2.55245e-06
0.00164116
4.51378e-06
0.00164104
2.25732e-05
0.00164063
-6.5842e-06
0.00163999
2.22104e-05
0.00163906
-5.59136e-06
0.00163802
2.2031e-05
0.00163665
-7.80444e-06
0.00163522
2.50217e-05
0.00163354
-5.27767e-06
0.00163185
2.55239e-05
0.00162975
-2.20339e-06
0.00163422
-9.19635e-06
0.00164139
-4.02551e-05
0.00164488
-3.82335e-06
0.00164683
-1.20569e-05
0.00164836
1.58226e-06
0.00164978
-8.06903e-06
0.00165122
1.10493e-06
0.0016527
-8.1226e-06
0.00165423
4.78232e-06
0.00165586
-9.19597e-06
0.00165763
7.54112e-07
0.00165948
-1.36339e-05
0.00166142
9.08058e-07
0.00166348
-1.32389e-05
0.00166563
-9.93758e-07
0.0016679
-1.35611e-05
0.00167027
-3.32486e-06
0.00167274
-1.32971e-05
0.00167533
-4.97725e-06
0.00167799
-1.32208e-05
0.0016805
-4.60504e-06
0.00168269
-1.17278e-05
0.00168474
-5.25668e-06
0.00168658
-8.54299e-06
0.00168835
-7.76893e-06
0.00168981
-5.08975e-06
0.00169106
-4.82346e-06
0.00169199
-2.07333e-06
0.00169222
-2.24514e-06
0.00169228
1.28639e-06
0.00169145
1.84804e-07
0.00168966
1.01154e-05
0.00168713
8.39976e-08
0.00168338
2.22165e-05
0.00167764
3.87729e-06
0.00166938
5.0508e-05
0.00165922
9.68019e-06
0.00163985
0.000104393
0.00163937
-9.59543e-05
0.00137692
0.00145976
-0.0038979
0.00216854
0.00290588
0.00115042
-0.00293798
0.00230404
0.00252453
0.00178348
0.00204983
0.00160195
0.000699815
0.0015667
0.000138741
0.00157542
-8.42316e-06
0.00160498
-9.06453e-05
0.00164266
-0.000120851
0.00168262
-0.000129748
0.00172223
-0.000129285
0.00175991
-0.000103582
0.00179421
-0.000147607
0.00182731
-0.000106366
0.00185636
-0.000136764
0.0018851
-9.29492e-05
0.00190956
-0.000112556
0.00193231
-6.9625e-05
0.00195235
-9.29233e-05
0.00196993
-4.75242e-05
0.00198623
-7.71318e-05
0.0019993
-4.72308e-05
0.00201123
-4.3277e-05
0.0020207
-3.20701e-05
0.0020287
-2.66473e-05
0.00203527
-2.00636e-05
0.00204025
-1.37043e-05
0.00204464
-1.18391e-05
0.00204752
-4.90729e-06
0.00204992
-3.06772e-06
0.00205136
1.09166e-06
0.00205214
3.61021e-06
0.00205261
2.29556e-05
0.00205271
-7.24208e-06
0.00205254
2.31009e-05
0.00205202
-5.59347e-06
0.00205136
2.31068e-05
0.00205034
-7.79232e-06
0.00204923
2.70446e-05
0.00204784
-4.58614e-06
0.00204646
2.77587e-05
0.00204461
-8.6005e-07
0.0020494
-1.34437e-05
0.00205736
-4.85966e-05
0.00206189
-7.96474e-06
0.00206462
-1.50287e-05
0.00206681
-2.94944e-07
0.00206885
-1.02624e-05
0.0020709
-6.46312e-07
0.00207297
-1.03459e-05
0.00207511
3.20035e-06
0.00207738
-1.15368e-05
0.00207979
-1.42089e-06
0.00208231
-1.65184e-05
0.00208495
-1.38308e-06
0.00208769
-1.61407e-05
0.00209057
-3.57658e-06
0.00209356
-1.67769e-05
0.00209669
-6.25187e-06
0.00209993
-1.67238e-05
0.00210332
-8.17767e-06
0.00210678
-1.68282e-05
0.00211006
-7.68529e-06
0.00211292
-1.47707e-05
0.00211561
-7.80688e-06
0.00211804
-1.10329e-05
0.00212034
-1.01621e-05
0.00212228
-6.98209e-06
0.00212391
-6.49222e-06
0.00212517
-3.2471e-06
0.00212556
-2.78897e-06
0.00212569
1.22265e-06
0.00212474
8.80823e-07
0.00212259
1.23709e-05
0.00211948
2.65331e-06
0.00211484
2.72189e-05
0.00210778
1.00988e-05
0.00209754
6.17334e-05
0.00208492
2.03198e-05
0.00206079
0.00012989
0.00206017
-0.000100386
0.00176197
0.00176143
-0.00480017
0.00266805
0.00357429
0.00112927
-0.00356386
0.00285673
0.00324251
0.00221103
0.00269564
0.00198127
0.000929627
0.00193389
0.000186
0.00194432
-1.87996e-05
0.00198147
-0.000127828
0.00202916
-0.000168582
0.00208003
-0.000180735
0.00213064
-0.00017991
0.00217891
-0.000151423
0.00222263
-0.000191656
0.00226461
-0.000147769
0.00230142
-0.000173975
0.00233765
-0.000128664
0.00236876
-0.000144008
0.00239757
-9.79871e-05
0.00242313
-0.000118832
0.00244553
-6.94645e-05
0.00246633
-9.82965e-05
0.00248325
-6.41081e-05
0.00249866
-5.86928e-05
0.00251115
-4.44734e-05
0.00252175
-3.72314e-05
0.00253064
-2.88952e-05
0.00253754
-2.0587e-05
0.00254367
-1.79308e-05
0.00254799
-9.22635e-06
0.00255166
-6.70615e-06
0.00255419
-1.42231e-06
0.00255588
2.06649e-06
0.00255716
2.19848e-05
0.00255796
-8.14685e-06
0.00255845
2.28963e-05
0.0025585
-5.94869e-06
0.00255841
2.35699e-05
0.00255787
-7.47283e-06
0.00255725
2.77813e-05
0.0025563
-3.96889e-06
0.00255537
2.88659e-05
0.00255392
1.97899e-07
0.00255916
-1.84945e-05
0.00256805
-5.77494e-05
0.00257384
-1.35901e-05
0.00257758
-1.8945e-05
0.00258062
-3.27617e-06
0.00258345
-1.32042e-05
0.00258629
-3.42088e-06
0.00258914
-1.33052e-05
0.00259206
4.53142e-07
0.00259513
-1.46949e-05
0.00259837
-4.50137e-06
0.00260173
-2.00744e-05
0.00260523
-4.68518e-06
0.00260886
-2.00055e-05
0.00261263
-7.15964e-06
0.00261654
-2.0882e-05
0.00262062
-1.01864e-05
0.00262481
-2.10466e-05
0.0026292
-1.24617e-05
0.00263367
-2.13957e-05
0.0026379
-1.18258e-05
0.00264161
-1.85544e-05
0.00264508
-1.12475e-05
0.00264823
-1.42016e-05
0.00265119
-1.30762e-05
0.00265371
-9.48797e-06
0.00265583
-8.61901e-06
0.00265749
-4.90792e-06
0.00265808
-3.29682e-06
0.00265829
1.07262e-06
0.00265721
1.91391e-06
0.00265462
1.50444e-05
0.00265078
6.33443e-06
0.00264504
3.31018e-05
0.00263636
1.83007e-05
0.00262368
7.48878e-05
0.00260806
3.57673e-05
0.00257809
0.000160655
0.00257721
-0.00010207
0.00223485
0.00210531
-0.0058349
0.00327006
0.00437941
0.00106495
-0.00431046
0.00353247
0.00409025
0.00273676
0.00349121
0.002447
0.00121941
0.00238299
0.000249771
0.00239448
-3.0025e-05
0.00244037
-0.000173598
0.00250002
-0.000228105
0.00256408
-0.000244838
0.00262812
-0.000243809
0.00268946
-0.000212065
0.00274499
-0.000247613
0.00279809
-0.000200515
0.00284465
-0.000221289
0.00289025
-0.000173816
0.0029297
-0.000184001
0.00296612
-0.000133916
0.0029986
-0.000151729
0.00302709
-9.73939e-05
0.00305355
-0.000125078
0.00307534
-8.59938e-05
0.00309516
-7.86112e-05
0.0031115
-6.09443e-05
0.00312544
-5.1282e-05
0.0031373
-4.08455e-05
0.00314668
-2.99986e-05
0.00315509
-2.63747e-05
0.00316129
-1.54084e-05
0.00316664
-1.21942e-05
0.0031706
-5.39463e-06
0.00317352
-9.84795e-07
0.0031759
2.02477e-05
0.00317767
-1.02971e-05
0.00317906
2.20391e-05
0.00317991
-7.14595e-06
0.00318059
2.3118e-05
0.00318075
-8.42968e-06
0.00318081
2.84281e-05
0.00318049
-4.14066e-06
0.00318022
2.98015e-05
0.00317936
7.44939e-07
0.00318519
-2.39139e-05
0.00319516
-6.79812e-05
0.00320246
-2.05991e-05
0.00320749
-2.41138e-05
0.00321163
-7.1685e-06
0.00321548
-1.71563e-05
0.00321932
-7.01796e-06
0.00322317
-1.72379e-05
0.00322709
-3.01745e-06
0.00323117
-1.87732e-05
0.00323545
-8.62778e-06
0.00323987
-2.47642e-05
0.00324445
-9.0122e-06
0.00324917
-2.47979e-05
0.00325408
-1.18579e-05
0.00325913
-2.6071e-05
0.00326439
-1.53063e-05
0.00326978
-2.65652e-05
0.00327539
-1.79395e-05
0.0032811
-2.71937e-05
0.00328653
-1.71016e-05
0.00329128
-2.34316e-05
0.00329573
-1.5588e-05
0.00329975
-1.82616e-05
0.00330354
-1.6938e-05
0.00330678
-1.26886e-05
0.00330949
-1.13584e-05
0.00331164
-6.97977e-06
0.00331248
-4.27597e-06
0.00331276
8.25608e-07
0.00331151
2.9416e-06
0.00330838
1.82351e-05
0.00330363
1.06652e-05
0.00329654
4.04248e-05
0.00328585
2.83957e-05
0.00327017
9.13062e-05
0.00325087
5.34913e-05
0.00321376
0.000198675
0.00321239
-0.000104426
0.00281837
0.00250142
-0.00701104
0.00399741
0.00534974
0.000906957
-0.00520209
0.00435916
0.00508107
0.00338454
0.00446603
0.00302025
0.00158376
0.0029334
0.000336521
0.00294468
-4.12866e-05
0.00300051
-0.000229474
0.00307432
-0.000301972
0.00315423
-0.000324865
0.00323459
-0.000324206
0.00331198
-0.000289255
0.0033822
-0.000317972
0.00344918
-0.000267127
0.00350794
-0.000280231
0.00356527
-0.000230817
0.00361512
-0.000234013
0.00366106
-0.000179582
0.00370219
-0.000193046
0.00373831
-0.000133224
0.00377186
-0.000158853
0.0037998
-0.000113889
0.00382519
-0.000103991
0.0038464
-8.20376e-05
0.00386459
-6.94375e-05
0.00388025
-5.64195e-05
0.00389283
-4.25599e-05
0.00390415
-3.76405e-05
0.00391281
-2.40701e-05
0.00392036
-1.96793e-05
0.0039262
-1.12179e-05
0.00393077
-5.38831e-06
0.00393461
1.65467e-05
0.00393767
-1.33454e-05
0.00394027
1.95662e-05
0.00394221
-9.25767e-06
0.00394394
2.16176e-05
0.00394506
-9.58457e-06
0.00394606
2.73601e-05
0.00394663
-4.88587e-06
0.00394728
2.91829e-05
0.00394726
5.06783e-07
0.00395386
-3.04402e-05
0.00396508
-7.93693e-05
0.00397417
-2.96137e-05
0.00398081
-3.08587e-05
0.00398636
-1.27107e-05
0.00399152
-2.23864e-05
0.00399663
-1.21231e-05
0.00400174
-2.24098e-05
0.00400693
-8.12807e-06
0.00401228
-2.41767e-05
0.00401787
-1.41253e-05
0.00402361
-3.06266e-05
0.00402956
-1.48334e-05
0.00403565
-3.10712e-05
0.00404195
-1.80413e-05
0.00404842
-3.26708e-05
0.00405515
-2.19361e-05
0.004062
-3.351e-05
0.00406915
-2.50223e-05
0.00407639
-3.44954e-05
0.00408327
-2.3935e-05
0.00408932
-2.95183e-05
0.00409497
-2.12331e-05
0.00410009
-2.33819e-05
0.00410487
-2.1656e-05
0.00410898
-1.67899e-05
0.00411241
-1.47884e-05
0.00411515
-9.73561e-06
0.00411629
-5.3056e-06
0.00411666
5.09554e-07
0.00411519
4.40952e-06
0.00411136
2.21081e-05
0.0041055
1.6479e-05
0.0040967
4.92726e-05
0.00408356
4.12587e-05
0.00406417
0.000110952
0.00404035
7.7487e-05
0.0039945
0.000244968
0.00399227
-0.000103782
0.00354015
0.00295406
-0.00834791
0.00487701
0.00651931
0.000659506
-0.00626739
0.00537069
0.00623062
0.0041838
0.00565285
0.00372728
0.00204023
0.00360916
0.000454297
0.0036181
-4.99423e-05
0.00368489
-0.00029612
0.00377532
-0.000392315
0.00387417
-0.000423821
0.00397424
-0.000424148
0.00407123
-0.000385783
0.00415961
-0.0004066
0.00424388
-0.000351192
0.00431786
-0.000354807
0.00438978
-0.000302419
0.0044526
-0.000297238
0.00451042
-0.000237033
0.00456233
-0.000245249
0.004608
-0.000178456
0.0046504
-0.00020146
0.00468605
-0.000149619
0.00471845
-0.000136535
0.0047458
-0.000109524
0.00476939
-9.31643e-05
0.00478986
-7.7003e-05
0.00480654
-5.92675e-05
0.00482161
-5.27552e-05
0.00483343
-3.58364e-05
0.00484382
-3.02725e-05
0.00485212
-1.95279e-05
0.00485885
-1.22427e-05
0.00486461
1.12713e-05
0.00486939
-1.83842e-05
0.00487361
1.57587e-05
0.004877
-1.28728e-05
0.00488014
1.85666e-05
0.00488255
-1.26493e-05
0.00488483
2.56273e-05
0.00488661
-7.00661e-06
0.0048885
2.78451e-05
0.00488966
-8.34299e-07
0.00489727
-3.77409e-05
0.00490992
-9.21905e-05
0.00492112
-4.05822e-05
0.00492977
-3.95859e-05
0.00493709
-1.98318e-05
0.00494391
-2.92584e-05
0.00495063
-1.86475e-05
0.00495733
-2.91494e-05
0.00496412
-1.45322e-05
0.00497107
-3.10767e-05
0.00497829
-2.12547e-05
0.00498569
-3.8226e-05
0.00499332
-2.22574e-05
0.0050011
-3.88752e-05
0.00500915
-2.59398e-05
0.00501737
-4.09694e-05
0.0050259
-3.037e-05
0.00503458
-4.22801e-05
0.00504359
-3.39309e-05
0.00505272
-4.36731e-05
0.0050614
-3.25112e-05
0.00506904
-3.7242e-05
0.00507618
-2.82751e-05
0.00508261
-2.98287e-05
0.00508862
-2.77245e-05
0.00509379
-2.19281e-05
0.00509809
-1.9113e-05
0.00510154
-1.31082e-05
0.00510302
-6.91574e-06
0.00510347
7.65309e-08
0.0051017
5.96848e-06
0.00509701
2.68053e-05
0.00508974
2.34351e-05
0.00507884
6.02986e-05
0.00506265
5.70316e-05
0.00503871
0.000135462
0.00500934
0.000105561
0.00495284
0.000302017
0.00494908
-0.000102845
0.0044335
0.00347075
-0.00985238
0.0059404
0.00792909
0.000260685
-0.00754023
0.00660852
0.00755147
0.0051709
0.0070907
0.00460089
0.00261031
0.00444026
0.000614802
0.00444338
-5.30522e-05
0.00452188
-0.000374713
0.00463157
-0.000502088
0.0047529
-0.000545283
0.00487666
-0.000547969
0.00499745
-0.00050651
0.00510814
-0.000517342
0.00521379
-0.000456585
0.0053067
-0.000447743
0.00539674
-0.000392269
0.00547566
-0.000376186
0.00554826
-0.000309484
0.00561359
-0.000310671
0.00567117
-0.000235879
0.0057246
-0.000255037
0.00576989
-0.000194861
0.00581109
-0.000177699
0.00584615
-0.000144457
0.00587654
-0.000123504
0.00590311
-0.000103477
0.005925
-8.11293e-05
0.00594483
-7.25198e-05
0.00596071
-5.17191e-05
0.00597476
-4.42497e-05
0.00598624
-3.09863e-05
0.00599579
-2.16155e-05
0.00600407
3.01787e-06
0.0060111
-2.53372e-05
0.00601743
9.45497e-06
0.00602274
-1.82766e-05
0.00602774
1.3716e-05
0.00603187
-1.66835e-05
0.00603586
2.14595e-05
0.00603926
-1.0485e-05
0.00604281
2.42013e-05
0.00604557
-3.78287e-06
0.00605452
-4.66925e-05
0.0060688
-0.000106582
0.00608245
-5.42048e-05
0.00609356
-5.07604e-05
0.00610312
-2.94359e-05
0.00611203
-3.82083e-05
0.00612078
-2.74391e-05
0.00612948
-3.78863e-05
0.00613827
-2.33129e-05
0.00614721
-4.00585e-05
0.00615647
-3.04662e-05
0.00616592
-4.77444e-05
0.00617564
-3.19217e-05
0.00618552
-4.89095e-05
0.00619572
-3.6068e-05
0.00620609
-5.14348e-05
0.00621685
-4.10635e-05
0.00622775
-5.32402e-05
0.00623907
-4.52225e-05
0.0062505
-5.51442e-05
0.00626139
-4.33874e-05
0.00627098
-4.6852e-05
0.00627993
-3.72287e-05
0.00628798
-3.78936e-05
0.00629546
-3.5132e-05
0.00630192
-2.8371e-05
0.00630725
-2.44514e-05
0.00631154
-1.74243e-05
0.00631343
-8.66925e-06
0.00631393
-3.77753e-07
0.00631177
8.15869e-06
0.006306
3.26045e-05
0.00629696
3.24865e-05
0.00628344
7.38301e-05
0.00626349
7.68171e-05
0.00623396
0.000165058
0.00619777
0.000142136
0.00612836
0.000371745
0.00612202
-9.74679e-05
0.00553868
0.004054
-0.0115387
0.00722437
0.0096286
-0.000303402
-0.00906045
0.00812347
0.00905772
0.00639084
0.00882336
0.0056822
0.00331883
0.00546423
0.000832331
0.00545621
-4.47326e-05
0.00554661
-0.000464947
0.00567831
-0.000633763
0.00582609
-0.000693216
0.00597812
-0.000699892
0.00612765
-0.000655736
0.00626555
-0.000655368
0.00639749
-0.000588421
0.0065138
-0.000564541
0.00662629
-0.000504528
0.00672516
-0.000475366
0.00681609
-0.000400131
0.00689807
-0.000392851
0.00697046
-0.000307908
0.0070376
-0.000322294
0.00709491
-0.000252243
0.00714709
-0.000230052
0.00719181
-0.000189328
0.00723076
-0.000162621
0.00726501
-0.000137858
0.00729348
-0.000109642
0.00731936
-9.84524e-05
0.00734041
-7.26697e-05
0.00735914
-6.32624e-05
0.0073747
-4.65497e-05
0.00738791
-3.49391e-05
0.00739944
-8.14348e-06
0.0074094
-3.54593e-05
0.00741846
7.03415e-07
0.00742627
-2.62369e-05
0.00743371
6.28272e-06
0.0074401
-2.36271e-05
0.00744634
1.56528e-05
0.00745188
-1.6274e-05
0.00745762
1.89254e-05
0.00746253
-8.78161e-06
0.00747325
-5.71628e-05
0.00748942
-0.000122866
0.00750587
-7.0463e-05
0.00751997
-6.48956e-05
0.00753232
-4.16187e-05
0.00754385
-4.97594e-05
0.00755514
-3.85665e-05
0.00756633
-4.90799e-05
0.00757762
-3.42766e-05
0.00758904
-5.13961e-05
0.00760082
-4.22033e-05
0.0076128
-5.98754e-05
0.00762511
-4.40608e-05
0.00763757
-6.13613e-05
0.00765042
-4.87954e-05
0.00766342
-6.44873e-05
0.00767691
-5.44745e-05
0.00769053
-6.6939e-05
0.00770466
-5.92642e-05
0.00771891
-6.9418e-05
0.0077325
-5.68987e-05
0.00774447
-5.88845e-05
0.00775563
-4.83114e-05
0.00776565
-4.78972e-05
0.00777492
-4.4454e-05
0.00778291
-3.63196e-05
0.00778948
-3.10603e-05
0.00779475
-2.262e-05
0.00779709
-1.11205e-05
0.00779763
-9.27054e-07
0.00779494
1.06496e-05
0.00778779
3.9726e-05
0.00777656
4.34682e-05
0.00775977
9.06734e-05
0.00773518
0.000101105
0.0076988
0.000201917
0.00765426
0.000185555
0.00756923
0.000457038
0.00755868
-8.91173e-05
0.00690443
0.00470866
-0.0134037
0.00877165
0.0116778
-0.00111638
-0.0108749
0.00997796
0.0107577
0.00789936
0.0109023
0.0070228
0.00419549
0.00672826
0.00112679
0.00670121
-1.77078e-05
0.00680275
-0.000566593
0.00695917
-0.000790269
0.00713777
-0.000871936
0.00732332
-0.000885571
0.0075073
-0.000839743
0.00767814
-0.00082623
0.0078422
-0.000752319
0.00798729
-0.000709572
0.00812744
-0.000644582
0.00825093
-0.000598821
0.00836454
-0.000513693
0.00846712
-0.000495472
0.00855786
-0.000398609
0.00864198
-0.000406521
0.00871423
-0.000324449
0.00878007
-0.000295826
0.00883685
-0.000245964
0.00888651
-0.000212193
0.00893038
-0.000181603
0.00896717
-0.000146403
0.00900066
-0.000131864
0.00902826
-0.000100282
0.00905294
-8.78183e-05
0.0090737
-6.72892e-05
0.00909161
-5.26559e-05
0.00910733
-2.39328e-05
0.00912104
-4.90562e-05
0.00913364
-1.19512e-05
0.00914468
-3.73325e-05
0.00915526
-4.19463e-06
0.00916458
-3.27596e-05
0.00917374
6.23172e-06
0.00918208
-2.46228e-05
0.00919067
1.01533e-05
0.00919841
-1.66567e-05
0.00921147
-7.02754e-05
0.00922986
-0.000141319
0.00924951
-9.01367e-05
0.00926718
-8.25979e-05
0.00928298
-5.74869e-05
0.00929776
-6.4573e-05
0.00931222
-5.30977e-05
0.00932651
-6.33918e-05
0.0093409
-4.87134e-05
0.00935539
-6.59229e-05
0.00937029
-5.70818e-05
0.00938538
-7.50104e-05
0.00940088
-5.95382e-05
0.0094165
-7.71275e-05
0.00943259
-6.48483e-05
0.00944883
-8.07932e-05
0.00946564
-7.12451e-05
0.00948258
-8.39279e-05
0.00950013
-7.68096e-05
0.0095178
-8.71127e-05
0.00953469
-7.37854e-05
0.00954956
-7.37746e-05
0.00956342
-6.21779e-05
0.00957581
-6.02985e-05
0.00958723
-5.57905e-05
0.00959705
-4.61326e-05
0.0096051
-3.9115e-05
0.00961152
-2.90836e-05
0.00961436
-1.38069e-05
0.0096149
-1.40424e-06
0.00961149
1.41046e-05
0.00960261
4.86051e-05
0.00958864
5.7512e-05
0.0095678