/*--------------------------------*- C++ -*----------------------------------*\
| =========                 |                                                 |
| \\      /  F ield         | OpenFOAM: The Open Source CFD Toolbox           |
|  \\    /   O peration     | Version:  5.x                                   |
|   \\  /    A nd           | Web:      www.OpenFOAM.org                      |
|    \\/     M anipulation  |                                                 |
\*---------------------------------------------------------------------------*/
FoamFile
{
    version     2.0;
    format      ascii;
    class       surfaceScalarField;
    location    "150";
    object      phi;
}
// * * * * * * * * * * * * * * * * * * * * * * * * * * * * * * * * * * * * * //

dimensions      [0 3 -1 0 0 0 0];

internalField   nonuniform List<scalar> 
21876
(
0.0203826
-0.00346234
-0.0169277
0.0273264
-0.00694381
0.0279624
-0.000635943
0.0288952
-0.000932862
0.0283843
0.000510891
0.0270437
0.00134066
0.0253581
0.00168562
0.023552
0.00180603
0.0217169
0.00183512
0.019697
0.00201994
0.0172848
0.0024122
0.0154539
0.00183083
0.0144482
0.00100572
0.0138523
0.000595959
0.0131429
0.000709374
0.0124166
0.00072624
0.0116626
0.000754081
0.0108934
0.00076913
0.0101157
0.000777752
0.00932531
0.000790383
0.00851425
0.000811062
0.0078606
0.000653645
0.00719636
0.00066425
0.00651931
0.000677052
0.00582396
0.00069535
0.00510841
0.000715546
0.00437384
0.00073457
0.00362026
0.000753588
0.00284011
0.000780148
0.00203426
0.000805853
0.00123171
0.000802553
0.000483483
0.000748225
-0.000171491
0.000654978
-0.000713707
0.000542207
-0.00115442
0.00044071
-0.00161567
0.00046125
-0.00227373
0.000658054
-0.00303871
0.000764969
-0.0037332
0.000694491
-0.0027287
-0.0010045
-0.00691739
0.00418869
0.0246276
-0.00838285
-0.019707
0.0304285
-0.0127448
0.0324641
-0.00267149
0.0340129
-0.00248161
0.034762
-0.000238216
0.0348562
0.00124637
0.034368
0.00217389
0.0333541
0.00281986
0.0319237
0.00326553
0.0300728
0.00387085
0.0276418
0.0048432
0.025237
0.00423561
0.0232511
0.00299167
0.021647
0.00220008
0.0201816
0.00217474
0.0188827
0.00202511
0.0176788
0.00195804
0.0165227
0.00192521
0.0153907
0.00190974
0.0142656
0.00191546
0.013127
0.00194965
0.0122151
0.00156559
0.0113117
0.00156762
0.0104031
0.0015856
0.00947745
0.00162101
0.00852511
0.00166787
0.0075345
0.00172516
0.0064988
0.00178929
0.00542343
0.00185549
0.00432053
0.00190874
0.00320435
0.00191872
0.00210165
0.00185091
0.00106396
0.00169264
0.00015659
0.00144956
-0.000636751
0.00123403
-0.00143475
0.00125921
-0.00226972
0.001493
-0.00287406
0.00136927
-0.00301357
0.000833989
-0.00216681
-0.00185129
-0.0115012
0.002417
0.0289262
-0.0139764
-0.0233326
0.034195
-0.0180136
0.0376319
-0.00610842
0.0397286
-0.00457827
0.0408562
-0.00136589
0.0411549
0.000947661
0.0408576
0.00247126
0.0401127
0.00356476
0.0389931
0.00438506
0.0374788
0.00538523
0.0354265
0.00689549
0.0332249
0.00643716
0.0312095
0.00500713
0.0293684
0.00404119
0.0275432
0.00399989
0.0258258
0.00374258
0.0242101
0.00357369
0.022667
0.00346827
0.0211729
0.00340389
0.0197047
0.00338372
0.0182306
0.00342371
0.0170543
0.00274192
0.0158983
0.0027236
0.0147448
0.0027391
0.0135781
0.00278776
0.0123848
0.00286118
0.0111513
0.00295859
0.00986804
0.00307258
0.00853198
0.00319156
0.00714776
0.00329297
0.00572891
0.00333758
0.00430303
0.00327679
0.00292097
0.00307471
0.00164908
0.00272145
0.000513739
0.00236938
-0.000527226
0.00230018
-0.00147959
0.00244538
-0.0021392
0.00202888
-0.00233098
0.00102578
-0.00200786
-0.00217441
-0.0138922
0.000383107
0.0336954
-0.0201465
-0.0275253
0.0389473
-0.0232654
0.043136
-0.0102971
0.0458193
-0.00726155
0.0474477
-0.0029943
0.0481477
0.000247605
0.0480909
0.00252806
0.0474582
0.00419747
0.0463966
0.00544665
0.0449537
0.00682819
0.0430445
0.0088047
0.0409653
0.00851637
0.0390519
0.0069205
0.0372858
0.00580726
0.0354672
0.00581848
0.0336332
0.00557655
0.031814
0.00539294
0.0300089
0.00527339
0.028216
0.00519677
0.0264285
0.00517119
0.0246229
0.00522931
0.0231741
0.00419065
0.0217485
0.00414923
0.020327
0.00416057
0.0188924
0.00422235
0.0174294
0.00432422
0.0159223
0.0044656
0.0143587
0.00463622
0.0127302
0.00482006
0.0110347
0.00498838
0.00927951
0.0050928
0.00748611
0.00507018
0.00569934
0.00486146
0.00398622
0.00443455
0.00241711
0.00393847
0.00103713
0.00368014
-0.000144597
0.00362708
-0.00104063
0.00292488
-0.00146102
0.00144615
-0.0017347
-0.00190075
-0.0142811
-0.00134577
0.0389575
-0.0268915
-0.0322126
0.0444517
-0.0287595
0.0492675
-0.015113
0.0527616
-0.0107556
0.0551113
-0.00534402
0.0564243
-0.00106543
0.0568088
0.00214362
0.0564233
0.00458297
0.0554429
0.00642699
0.0539706
0.00830052
0.0520001
0.0107752
0.0498015
0.010715
0.0477529
0.0089691
0.0459056
0.00765448
0.0440767
0.0076474
0.0422284
0.00742492
0.040368
0.00725334
0.0384767
0.00716465
0.0365419
0.00713159
0.0345595
0.00715363
0.0325156
0.00727319
0.0308456
0.00586063
0.0291837
0.00581119
0.0275142
0.00583007
0.0258211
0.00591542
0.0240892
0.0060561
0.0223022
0.00625257
0.0204455
0.00649294
0.0185072
0.00675835
0.0164799
0.00701572
0.0143627
0.00721
0.0121669
0.00726603
0.00992454
0.00710378
0.00769221
0.00666688
0.00556702
0.00606366
0.00368828
0.00555889
0.00211257
0.0052028
0.000804933
0.00423252
-4.53934e-05
0.00229648
-0.000958337
-0.000987809
-0.0128205
-0.00241893
0.0447774
-0.034279
-0.0373898
0.0507284
-0.0347105
0.0561637
-0.0205482
0.060483
-0.0150749
0.0636367
-0.00849774
0.0656966
-0.00312534
0.066718
0.00112218
0.0668119
0.00448905
0.0661298
0.0071091
0.064795
0.00963534
0.0628477
0.0127225
0.060518
0.0130447
0.0582135
0.0112736
0.056094
0.00977392
0.0540661
0.00967536
0.052071
0.00941998
0.0501079
0.00921642
0.0481465
0.00912603
0.0461478
0.00913036
0.044085
0.00921641
0.0419331
0.009425
0.0401449
0.00764889
0.0383409
0.00761514
0.0365071
0.00766386
0.0346282
0.00779433
0.0326891
0.00799521
0.0306732
0.00826843
0.0285645
0.00860165
0.0263482
0.0089746
0.0240122
0.00935179
0.0215477
0.00967451
0.0189537
0.00985998
0.016245
0.00981242
0.0134565
0.00945545
0.0106818
0.00883835
0.0081298
0.00811083
0.0059382
0.00739438
0.0040202
0.0061505
0.00248784
0.00382883
0.000871272
0.000628747
-0.00979032
-0.00215891
0.0512372
-0.0424479
-0.0430684
0.0578566
-0.0413299
0.063978
-0.0266697
0.0691213
-0.0202181
0.0731371
-0.0125136
0.0760363
-0.00602452
0.0778313
-0.000672788
0.0785891
0.00373126
0.0784179
0.0072803
0.0774412
0.010612
0.0757209
0.0144428
0.0734252
0.0153404
0.0709412
0.0137576
0.0685188
0.0121963
0.0661843
0.0120099
0.0639028
0.0117015
0.0616848
0.0114344
0.0595211
0.0112897
0.0573747
0.0112768
0.0552071
0.011384
0.0529796
0.0116524
0.0511345
0.00949403
0.0492757
0.00947387
0.0473818
0.00955775
0.0454316
0.00974454
0.0434052
0.0100216
0.0412819
0.0103918
0.0390408
0.0108427
0.0366618
0.0113536
0.0341251
0.0118884
0.0314124
0.0123872
0.0285085
0.0127639
0.0254078
0.0129131
0.0221166
0.0127466
0.0186949
0.0122601
0.015364
0.0114417
0.0123347
0.0104236
0.00956097
0.00892427
0.00706189
0.0063279
0.00459559
0.00309504
-0.00547709
0.000282352
0.0584337
-0.051608
-0.0492736
0.0659448
-0.0488409
0.0728785
-0.0336034
0.0788754
-0.026215
0.0837856
-0.0174238
0.0875814
-0.00982032
0.0902515
-0.00334289
0.0918185
0.00216431
0.0923461
0.00675266
0.0919426
0.0110156
0.0906772
0.0157081
0.0886507
0.0173669
0.0861855
0.0162228
0.0835747
0.0148071
0.0809612
0.0146234
0.0783631
0.0142996
0.0758098
0.0139877
0.0733237
0.0137758
0.0708934
0.0137072
0.0684939
0.0137835
0.0660926
0.0140538
0.064142
0.0114446
0.062218
0.0113979
0.0602923
0.0114835
0.0583365
0.0117003
0.0563234
0.0120347
0.054225
0.0124902
0.0520121
0.0130556
0.0496541
0.0137117
0.0471185
0.014424
0.0443708
0.0151349
0.0413752
0.0157595
0.0380999
0.0161884
0.034517
0.0163296
0.0306321
0.0161449
0.0266135
0.0154603
0.0226762
0.014361
0.0188517
0.0127487
0.0151386
0.0100411
0.0115148
0.00671885
-6.50303e-05
0.0061027
0.0664844
-0.0620358
-0.0560566
0.0751391
-0.0574956
0.0830634
-0.0415277
0.0899954
-0.0331469
0.0958366
-0.023265
0.100563
-0.0145467
0.104165
-0.00694471
0.106637
-0.000308039
0.108011
0.00537913
0.10837
0.0106562
0.10778
0.0162986
0.106274
0.018873
0.104085
0.0184115
0.1015
0.0173919
0.0987477
0.0173757
0.0959145
0.0171328
0.0930569
0.0168453
0.0902268
0.0166058
0.0874447
0.0164893
0.0847099
0.0165183
0.0820101
0.0167536
0.0798465
0.0136081
0.0777603
0.0134841
0.0757264
0.0135173
0.0737186
0.0137082
0.0717102
0.014043
0.0696727
0.0145276
0.0675743
0.015154
0.0653787
0.0159073
0.0630432
0.0167595
0.0605172
0.0176609
0.057741
0.0185357
0.0546498
0.0192796
0.0511734
0.019806
0.0472519
0.0200664
0.0429529
0.0197593
0.0384011
0.0189128
0.0336352
0.0175146
0.0286721
0.0150042
0.0236039
0.0117871
0.00638529
0.0171536
0.0755356
-0.0740742
-0.0634971
0.0856291
-0.0675892
0.0947721
-0.0506707
0.102779
-0.041154
0.109622
-0.0301076
0.115314
-0.0202389
0.119871
-0.0115018
0.1233
-0.00373673
0.125606
0.00307286
0.126865
0.00939734
0.127131
0.016033
0.126376
0.0196272
0.124737
0.0200506
0.122454
0.0196753
0.119791
0.0200389
0.116896
0.0200279
0.113862
0.019879
0.110769
0.0196983
0.107671
0.0195881
0.104591
0.0195976
0.101543
0.0198016
0.099094
0.0160574
0.0967551
0.0158231
0.0945115
0.0157609
0.0923464
0.0158733
0.0902429
0.0161465
0.0881824
0.0165881
0.086143
0.0171934
0.0840971
0.0179532
0.0820082
0.0188484
0.0798266
0.0198424
0.0774857
0.0208767
0.0749011
0.0218642
0.0719684
0.0227387
0.0685684
0.0234664
0.0646569
0.0236708
0.0602131
0.0233566
0.0551678
0.0225599
0.0494863
0.0206857
0.04322
0.0180534
0.01378
0.0358252
0.0857712
-0.088138
-0.0717074
0.0976552
-0.0794732
0.1083
-0.0613159
0.117585
-0.0504386
0.125553
-0.0380753
0.132274
-0.0269606
0.137812
-0.0170397
0.142213
-0.00813703
0.14548
-0.000194826
0.147703
0.00717416
0.148935
0.014801
0.149105
0.0194577
0.148256
0.0208991
0.146563
0.0213683
0.144274
0.0223287
0.141564
0.0227374
0.138564
0.0228794
0.135379
0.0228831
0.132093
0.022874
0.12876
0.0229302
0.125418
0.0231441
0.122689
0.0187861
0.120079
0.0184336
0.117583
0.0182571
0.115194
0.0182615
0.112908
0.0184327
0.110718
0.0187783
0.108616
0.0192949
0.106593
0.0199767
0.10463
0.0208111
0.102699
0.0217734
0.100753
0.0228231
0.0987207
0.0238962
0.096502
0.0249574
0.093959
0.0260094
0.0909785
0.0266513
0.0874231
0.0269119
0.0830875
0.0268955
0.0778063
0.025967
0.071474
0.0243856
0.0214221
0.0638319
0.0974237
-0.104725
-0.0808368
0.111521
-0.0935703
0.124016
-0.0738116
0.134847
-0.0612693
0.144127
-0.0473556
0.151992
-0.0348254
0.158564
-0.0236119
0.163944
-0.013517
0.168174
-0.00442469
0.171364
0.00398417
0.173591
0.0125738
0.174767
0.0182819
0.17487
0.0207961
0.174008
0.0222306
0.172376
0.0239603
0.17014
0.0249735
0.167443
0.0255768
0.164409
0.0259167
0.161147
0.0261367
0.157737
0.0263394
0.154246
0.0266355
0.151322
0.0217104
0.1485
0.021255
0.145791
0.0209669
0.143196
0.0208558
0.14072
0.0209086
0.138366
0.021133
0.136135
0.0215252
0.134032
0.0220802
0.132054
0.0227886
0.130196
0.0236321
0.128437
0.0245821
0.12674
0.0255927
0.12504
0.0266573
0.123231
0.0278188
0.121202
0.02868
0.118791
0.0293232
0.115744
0.0299421
0.111804
0.0299072
0.106739
0.0294511
0.0279729
0.100188
0.110786
-0.124432
-0.0910788
0.127606
-0.11039
0.142378
-0.0885836
0.155097
-0.0739888
0.165949
-0.0582072
0.175135
-0.0440114
0.182846
-0.0313232
0.189248
-0.0199189
0.194439
-0.00961632
0.198568
-0.000144561
0.201757
0.00938483
0.203932
0.0161068
0.205042
0.019686
0.205151
0.022122
0.204395
0.0247161
0.202898
0.0264707
0.200788
0.0276864
0.198191
0.0285143
0.195222
0.0291055
0.191983
0.029578
0.188564
0.0300548
0.185591
0.0246834
0.182683
0.0241627
0.179866
0.0237846
0.177154
0.0235669
0.174562
0.0235015
0.172096
0.0235983
0.169767
0.0238542
0.167583
0.0242644
0.165551
0.0248211
0.163673
0.0255096
0.161948
0.0263076
0.16036
0.0271799
0.158878
0.0281397
0.157436
0.0292605
0.155969
0.0301468
0.154357
0.030936
0.152399
0.0319001
0.149858
0.0324477
0.14652
0.0327893
0.0325966
0.141896
0.126227
-0.14798
-0.102679
0.146384
-0.130547
0.163952
-0.106152
0.178987
-0.0890239
0.191747
-0.0709671
0.202505
-0.0547695
0.211525
-0.0403429
0.219043
-0.0274371
0.225225
-0.0157987
0.230278
-0.00519698
0.234373
0.00528961
0.237483
0.0129967
0.239564
0.0176047
0.240668
0.0210181
0.240891
0.0244929
0.240311
0.0270515
0.239023
0.0289745
0.237131
0.0304059
0.234743
0.0314936
0.231962
0.0323586
0.22889
0.0331269
0.226066
0.0275078
0.223247
0.0269819
0.220476
0.0265553
0.217786
0.026257
0.2152
0.0260874
0.212736
0.0260623
0.210407
0.0261823
0.208226
0.0264454
0.206202
0.026846
0.204339
0.0273725
0.202639
0.0280077
0.201095
0.0287231
0.199689
0.0295463
0.198377
0.0305726
0.197128
0.0313959
0.195868
0.0321955
0.194473
0.033295
0.192793
0.0341278
0.190708
0.0348747
0.0354861
0.187818
0.144202
-0.176238
-0.115945
0.168444
-0.154789
0.189441
-0.127149
0.207318
-0.1069
0.222412
-0.0860609
0.235074
-0.0674315
0.245645
-0.0509148
0.254442
-0.0362331
0.261703
-0.0230598
0.2677
-0.0111948
0.272665
0.000325385
0.276634
0.0090275
0.279601
0.0146375
0.281636
0.018983
0.282825
0.0233045
0.283216
0.0266602
0.282876
0.0293143
0.281881
0.0314015
0.280313
0.0330612
0.278262
0.0344093
0.275824
0.0355647
0.273372
0.0299601
0.270849
0.0295046
0.268316
0.0290886
0.26582
0.0287535
0.263397
0.0285103
0.261076
0.028383
0.25888
0.0283788
0.256824
0.0285013
0.25492
0.0287499
0.253174
0.029118
0.251589
0.0295934
0.250158
0.0301539
0.248865
0.0308392
0.247675
0.0317624
0.246571
0.0324997
0.245506
0.0332611
0.244397
0.0344036
0.24317
0.0353548
0.241776
0.0362688
0.0372609
0.240001
0.165278
-0.21026
-0.131256
0.194511
-0.184021
0.219708
-0.152346
0.241072
-0.128264
0.259029
-0.104018
0.274018
-0.0824209
0.286469
-0.0633656
0.29678
-0.046544
0.305275
-0.0315552
0.312297
-0.0182166
0.318144
-0.0055219
0.322926
0.00424601
0.326694
0.0108697
0.329558
0.0161187
0.331621
0.021241
0.332934
0.025348
0.333548
0.0286998
0.33352
0.0314299
0.332909
0.033672
0.331782
0.0355356
0.330218
0.0371294
0.328346
0.0318315
0.326328
0.031523
0.324234
0.0311827
0.322122
0.0308651
0.32004
0.0305922
0.318026
0.0303969
0.316111
0.0302943
0.314317
0.030295
0.312662
0.0304051
0.311156
0.0306242
0.309802
0.0309467
0.3086
0.0313566
0.307534
0.031905
0.306576
0.0327205
0.305716
0.0333589
0.304923
0.0340548
0.304135
0.0351917
0.303316
0.036173
0.302447
0.0371385
0.0382787
0.301429
0.190126
-0.251325
-0.149062
0.225452
-0.219347
0.255793
-0.182688
0.281435
-0.153906
0.302912
-0.125494
0.320762
-0.100271
0.335515
-0.0781184
0.347665
-0.0586939
0.357629
-0.0415198
0.365828
-0.0264159
0.372636
-0.0123296
0.378238
-0.00135584
0.382758
0.00634988
0.38636
0.0125165
0.389185
0.0184156
0.391308
0.0232255
0.392791
0.0272164
0.393689
0.0305324
0.39405
0.033311
0.393925
0.0356609
0.39337
0.0376842
0.392225
0.0329767
0.390874
0.0328734
0.389392
0.0326645
0.387842
0.0324151
0.386277
0.0321578
0.38474
0.031934
0.383267
0.031767
0.381887
0.0316745
0.380623
0.0316694
0.379489
0.0317578
0.378496
0.0319402
0.377646
0.0322066
0.376933
0.0326183
0.376336
0.0333174
0.375855
0.0338398
0.375469
0.0344403
0.375135
0.0355259
0.374837
0.0364711
0.374564
0.0374118
0.0385788
0.374264
0.199304
-0.296315
-0.154314
0.238042
-0.258084
0.271228
-0.215874
0.299212
-0.181891
0.322589
-0.148871
0.341954
-0.119637
0.357895
-0.094059
0.370959
-0.0717576
0.38162
-0.0521811
0.39034
-0.0351355
0.397529
-0.0195194
0.403434
-0.00725999
0.40823
0.00155376
0.412124
0.00862185
0.415291
0.0152491
0.417834
0.0206828
0.419837
0.0252131
0.421365
0.0290045
0.422469
0.0322073
0.423192
0.0349376
0.423578
0.0372986
0.423208
0.0333466
0.422625
0.0334563
0.421894
0.0333952
0.421072
0.0332369
0.420208
0.0330223
0.419342
0.0327999
0.418509
0.0325997
0.417738
0.0324456
0.417051
0.0323563
0.416466
0.0323433
0.415994
0.032412
0.415644
0.0325567
0.415416
0.0328464
0.4153
0.0334334
0.415303
0.033837
0.415416
0.0343271
0.415613
0.0353292
0.41589
0.0361935
0.416245
0.0370569
0.038176
0.416648
0.206102
-0.344657
-0.15776
0.247749
-0.299731
0.283363
-0.251488
0.313348
-0.211876
0.338347
-0.17387
0.359007
-0.140297
0.375959
-0.111011
0.389797
-0.0855949
0.401039
-0.0634239
0.410181
-0.0442773
0.417664
-0.0270021
0.423777
-0.0133736
0.428743
-0.00341137
0.432796
0.00456829
0.436139
0.0119065
0.438903
0.0179188
0.441195
0.0229211
0.443095
0.0271037
0.444667
0.0306357
0.445958
0.0336468
0.447008
0.036248
0.447219
0.0331363
0.447233
0.0334424
0.447106
0.0335217
0.446888
0.0334548
0.446621
0.0332893
0.446341
0.0330797
0.44608
0.0328614
0.445862
0.0326635
0.445709
0.0325094
0.445637
0.0324148
0.44566
0.032389
0.445787
0.0324297
0.446022
0.0326111
0.446363
0.0330927
0.446819
0.0333814
0.447388
0.0337577
0.448057
0.0346605
0.448829
0.0354216
0.449705
0.0361802
0.0372101
0.450671
0.21448
-0.396665
-0.162472
0.259304
-0.344556
0.297586
-0.28977
0.329783
-0.244073
0.356591
-0.200678
0.378706
-0.162412
0.39681
-0.129116
0.411542
-0.100327
0.423468
-0.07535
0.433116
-0.0539255
0.440959
-0.034845
0.447328
-0.019742
0.452482
-0.00856534
0.456684
0.000365598
0.460163
0.00842798
0.463075
0.0150064
0.46555
0.0204464
0.467687
0.0249672
0.469561
0.0287613
0.471232
0.0319759
0.472745
0.034735
0.473369
0.0325117
0.473821
0.0329907
0.47415
0.0331933
0.474398
0.0332064
0.474603
0.0330841
0.474797
0.0328859
0.475006
0.0326518
0.475255
0.0324154
0.47556
0.032204
0.475938
0.0320368
0.476401
0.0319261
0.476958
0.0318721
0.477617
0.031953
0.478376
0.0323331
0.479247
0.0325108
0.48023
0.032774
0.48132
0.0335708
0.482522
0.03422
0.483839
0.034863
0.0357848
0.485264
0.224314
-0.452669
-0.16831
0.272598
-0.39284
0.313799
-0.330971
0.348426
-0.278699
0.377229
-0.229481
0.400961
-0.186144
0.420355
-0.14851
0.4361
-0.116071
0.448809
-0.0880589
0.459047
-0.064164
0.467321
-0.0431186
0.473998
-0.0264196
0.479376
-0.0139433
0.483744
-0.00400174
0.487351
0.00482019
0.490382
0.0119757
0.492985
0.0178431
0.495279
0.0226735
0.497355
0.0266851
0.499285
0.0300463
0.501123
0.0328972
0.502043
0.0315914
0.502815
0.0322184
0.503485
0.0325231
0.504093
0.0325992
0.50467
0.0325068
0.505246
0.0323102
0.505844
0.0320539
0.506484
0.0317754
0.507182
0.0315053
0.507953
0.031266
0.508807
0.031072
0.509754
0.0309256
0.510799
0.030908
0.511945
0.0311869
0.513201
0.0312553
0.514569
0.0314058
0.516046
0.0320931
0.517639
0.0326272
0.519351
0.0331512
0.0339574
0.521179
0.235547
-0.513021
-0.175194
0.287595
-0.444889
0.33198
-0.375356
0.369264
-0.315984
0.400259
-0.260476
0.425774
-0.211659
0.4466
-0.169336
0.463477
-0.132948
0.477069
-0.101651
0.487982
-0.0750773
0.496758
-0.0518939
0.503802
-0.0334636
0.509445
-0.0195869
0.514004
-0.00856043
0.517752
0.00107254
0.520895
0.00883287
0.523602
0.0151354
0.526011
0.0202651
0.528228
0.0244681
0.530338
0.0279363
0.532407
0.0308282
0.533537
0.030461
0.534542
0.0312132
0.535467
0.0315987
0.536347
0.0317185
0.537215
0.0316389
0.538096
0.0314293
0.539011
0.0311388
0.539978
0.0308082
0.541012
0.0304717
0.542124
0.0301541
0.543324
0.0298722
0.544619
0.0296301
0.546016
0.029511
0.547518
0.0296848
0.549131
0.0296424
0.550858
0.029679
0.552699
0.0302525
0.554657
0.030669
0.556735
0.0310725
0.0317596
0.558933
0.248165
-0.578101
-0.183085
0.304304
-0.501027
0.352158
-0.423209
0.392344
-0.35617
0.425738
-0.293869
0.453211
-0.239132
0.475616
-0.19174
0.493748
-0.15108
0.508327
-0.11623
0.520001
-0.0867513
0.52935
-0.0612431
0.536819
-0.040933
0.542774
-0.0255417
0.547556
-0.0133427
0.551464
-0.00283526
0.554726
0.00557083
0.557531
0.0123298
0.560034
0.0177625
0.562357
0.0221451
0.564598
0.0256949
0.566836
0.028591
0.568115
0.0291814
0.569289
0.03004
0.5704
0.0304871
0.571487
0.0306316
0.572579
0.0305471
0.5737
0.0303081
0.574871
0.0299682
0.576107
0.0295722
0.577421
0.0291574
0.578824
0.0287511
0.580324
0.0283722
0.581927
0.0280268
0.583639
0.0277991
0.585463
0.0278605
0.587403
0.0277027
0.589461
0.0276212
0.591638
0.0280752
0.593937
0.0283705
0.596358
0.0286508
0.0292153
0.598903
0.262186
-0.648319
-0.191968
0.32277
-0.561612
0.3744
-0.474839
0.417751
-0.399521
0.453765
-0.329884
0.483384
-0.268751
0.507523
-0.21588
0.527042
-0.170599
0.542715
-0.131902
0.555239
-0.0992753
0.565236
-0.0712401
0.573191
-0.048888
0.579504
-0.0318549
0.584545
-0.0183839
0.588638
-0.00692802
0.592033
0.0021758
0.594939
0.00942319
0.597528
0.0151736
0.599938
0.0197355
0.60228
0.0233529
0.604643
0.0262273
0.606029
0.0277957
0.607323
0.0287463
0.608571
0.029239
0.609811
0.0293915
0.611073
0.0292851
0.612381
0.029
0.613754
0.0285949
0.615208
0.0281186
0.616754
0.0276115
0.618401
0.0271037
0.620157
0.0266163
0.622027
0.026157
0.624015
0.0258112
0.626125
0.0257506
0.628358
0.0254699
0.630715
0.0252641
0.633199
0.0255911
0.63581
0.0257595
0.638548
0.0259127
0.02635
0.641413
0.277651
-0.724119
-0.20185
0.343066
-0.627028
0.398805
-0.530578
0.445604
-0.44632
0.484479
-0.368759
0.516444
-0.300716
0.542486
-0.241922
0.56353
-0.191642
0.580411
-0.148784
0.59388
-0.112743
0.604602
-0.0819626
0.613105
-0.0573913
0.619827
-0.0385761
0.625165
-0.023722
0.62947
-0.011233
0.633015
-0.00136985
0.636031
0.00640743
0.638705
0.0124998
0.641191
0.0172496
0.643614
0.0209301
0.646074
0.0237665
0.647535
0.0263352
0.648913
0.0273679
0.650259
0.0278936
0.65161
0.02804
0.652999
0.0278964
0.654449
0.0275497
0.65598
0.0270638
0.657607
0.026492
0.65934
0.0258781
0.661189
0.025255
0.663159
0.0246462
0.665255
0.024061
0.667481
0.0235859
0.669839
0.0233921
0.672329
0.0229797
0.674952
0.0226416
0.67771
0.0228326
0.680603
0.0228673
0.683628
0.0228877
0.0231918
0.686786
0.294621
-0.805988
-0.212752
0.365288
-0.697695
0.425498
-0.590789
0.476053
-0.496875
0.518049
-0.410754
0.552578
-0.335245
0.580705
-0.270049
0.603423
-0.214361
0.621637
-0.166997
0.636149
-0.127256
0.647679
-0.0934924
0.656797
-0.0665091
0.663978
-0.0457569
0.669652
-0.0293965
0.674199
-0.0157793
0.677915
-0.00508599
0.681051
0.00327162
0.683812
0.00973829
0.686369
0.0146931
0.688859
0.0184401
0.691395
0.02123
0.692906
0.024824
0.694341
0.0259331
0.695752
0.0264828
0.69718
0.0266114
0.698659
0.0264175
0.700214
0.0259951
0.701864
0.0254139
0.703624
0.0247319
0.705505
0.0239968
0.707516
0.0232444
0.709661
0.0225008
0.711945
0.0217773
0.71437
0.0211608
0.71694
0.0208219
0.719652
0.0202677
0.722505
0.0197882
0.725504
0.0198335
0.728645
0.0197264
0.731926
0.0196072
0.0197712
0.735346
0.313174
-0.894452
-0.22471
0.389551
-0.774073
0.454629
-0.655866
0.509276
-0.551522
0.554676
-0.456154
0.592007
-0.372576
0.622414
-0.300456
0.64697
-0.238917
0.666648
-0.186675
0.682314
-0.142922
0.694739
-0.105917
0.704541
-0.0763114
0.712236
-0.0534524
0.718289
-0.0354494
0.723108
-0.0205977
0.727015
-0.00899356
0.730283
3.70989e-06
0.733136
0.00688513
0.73576
0.0120695
0.738306
0.0158937
0.7409
0.0186361
0.742442
0.0232822
0.743909
0.0244661
0.745358
0.025034
0.746833
0.0251361
0.74837
0.024881
0.749995
0.0243704
0.751728
0.0236807
0.753585
0.0228748
0.755577
0.0220046
0.757712
0.0211094
0.759995
0.0202176
0.76243
0.019343
0.765017
0.0185729
0.767763
0.0180767
0.77066
0.0173702
0.773709
0.0167395
0.776914
0.0166287
0.780269
0.016371
0.783772
0.0161045
0.0161208
0.787422
0.333404
-0.990089
-0.237767
0.415993
-0.856662
0.486369
-0.726241
0.545477
-0.61063
0.594591
-0.505269
0.634982
-0.412967
0.667885
-0.33336
0.694456
-0.265488
0.715743
-0.207962
0.732679
-0.159858
0.746093
-0.119332
0.756655
-0.0868734
0.764924
-0.0617208
0.771399
-0.0419249
0.776522
-0.0257204
0.780643
-0.0131143
0.784056
-0.00340912
0.787005
0.00393593
0.789692
0.00938197
0.792285
0.0133013
0.794919
0.0160017
0.796473
0.0217283
0.79795
0.0229891
0.799411
0.0235727
0.800905
0.0236423
0.802469
0.0233174
0.804131
0.0227082
0.805913
0.0218981
0.807832
0.0209559
0.809899
0.0199377
0.812122
0.0188866
0.814506
0.0178338
0.817053
0.0167956
0.819767
0.0158596
0.822649
0.0151938
0.825695
0.0143242
0.828903
0.0135321
0.832277
0.0132546
0.835811
0.012837
0.8395
0.012415
0.0122754
0.843346
0.355419
-1.09353
-0.251978
0.444769
-0.946012
0.520916
-0.802388
0.584886
-0.6746
0.638054
-0.558436
0.681789
-0.456702
0.717424
-0.368994
0.746202
-0.294266
0.769257
-0.231016
0.787591
-0.178193
0.802098
-0.133839
0.813501
-0.0982765
0.822406
-0.070625
0.829351
-0.04887
0.834812
-0.0311813
0.839168
-0.0174707
0.842738
-0.0069795
0.845787
0.000886918
0.848535
0.00663465
0.851162
0.0106743
0.853818
0.0133453
0.855365
0.0201811
0.85683
0.0215247
0.858277
0.0221248
0.859761
0.0221586
0.861321
0.0217575
0.862988
0.0210412
0.864785
0.0201007
0.86673
0.0190108
0.868835
0.0178329
0.871108
0.0166136
0.873554
0.0153876
0.876176
0.0141737
0.878976
0.01306
0.881957
0.0122126
0.885112
0.011169
0.888439
0.0102054
0.891943
0.00975029
0.895617
0.00916329
0.899455
0.00857725
0.00827318
0.903457
0.379343
-1.20547
-0.267405
0.476056
-1.04272
0.558492
-0.884825
0.627766
-0.743873
0.685359
-0.61603
0.73275
-0.504093
0.771374
-0.407618
0.802573
-0.325466
0.827569
-0.256012
0.847441
-0.198066
0.863153
-0.149551
0.875486
-0.110609
0.885094
-0.0802329
0.892559
-0.0563353
0.898394
-0.0370162
0.903009
-0.0220858
0.906749
-0.0107196
0.909901
-0.00226457
0.912702
0.00383354
0.915349
0.00802658
0.918007
0.0106879
0.919527
0.0186612
0.920954
0.0200975
0.922361
0.0207181
0.923804
0.0207156
0.925327
0.0202346
0.926963
0.0194046
0.928739
0.0183251
0.930672
0.0170779
0.932775
0.0157294
0.935058
0.0143309
0.937525
0.0129202
0.94018
0.0115191
0.943024
0.0102162
0.94606
0.00917561
0.949282
0.00794747
0.952685
0.00680221
0.956277
0.00615888
0.960047
0.0053929
0.96399
0.00463404
0.00415682
0.968107
0.405314
-1.32666
-0.284121
0.510049
-1.14746
0.599344
-0.97412
0.674405
-0.818934
0.736834
-0.678458
0.788222
-0.555481
0.83012
-0.449516
0.863974
-0.35932
0.891101
-0.283139
0.912667
-0.219631
0.929707
-0.166591
0.943065
-0.123967
0.95345
-0.0906182
0.96149
-0.0643752
0.967737
-0.0432631
0.972635
-0.0269836
0.976556
-0.0146409
0.979811
-0.00551944
0.982657
0.000987375
0.985308
0.00537542
0.987941
0.00805485
0.989411
0.0171921
0.990773
0.018735
0.992107
0.0193837
0.993476
0.0193475
0.994925
0.0187851
0.996492
0.0178371
0.998205
0.0166122
1.00008
0.0151994
1.00214
0.0136711
1.00439
0.0120831
1.00683
0.0104772
1.00947
0.00887834
1.01231
0.00737548
1.01536
0.00613048
1.0186
0.00470758
1.02203
0.00337086
1.02566
0.00252885
1.02948
0.00157448
1.03348
0.000634112
-2.49115e-05
1.03766
0.433484
-1.45794
-0.302204
0.546967
-1.26094
0.643747
-1.0709
0.72513
-0.900317
0.792843
-0.746171
0.848607
-0.611245
0.894092
-0.495001
0.930859
-0.396087
0.960328
-0.312608
0.983756
-0.243059
1.00226
-0.185094
1.01675
-0.138458
1.02799
-0.101861
1.03667
-0.0730484
1.04337
-0.0499623
1.04857
-0.0321886
1.05268
-0.0187541
1.05604
-0.00887623
1.05892
-0.00189168
1.06155
0.00274277
1.06413
0.00547702
1.06552
0.0158015
1.06679
0.0174694
1.06801
0.0181575
1.06927
0.0180934
1.0706
0.017451
1.07205
0.0163831
1.07366
0.0150082
1.07543
0.0134233
1.0774
0.0117073
1.07956
0.00992111
1.08193
0.00811063
1.0845
0.00630422
1.08728
0.00459141
1.09028
0.00313157
1.09349
0.00150429
1.09689
-3.32476e-05
1.1005
-0.00108402
1.10431
-0.0022359
1.10831
-0.00336619
-0.00421549
1.11251
0.464025
-1.60023
-0.32174
0.587054
-1.38397
0.692007
-1.17585
0.780299
-0.988608
0.853794
-0.819667
0.914349
-0.6718
0.963767
-0.54442
1.00373
-0.436052
1.03578
-0.344652
1.06125
-0.268537
1.08137
-0.205209
1.09711
-0.154196
1.1093
-0.114051
1.11867
-0.0824191
1.12586
-0.0571572
1.1314
-0.0377259
1.13572
-0.0230688
1.13917
-0.0123307
1.14207
-0.00478721
1.14465
0.000156245
1.14714
0.00299219
1.14842
0.0145224
1.14955
0.0163386
1.15062
0.0170817
1.15172
0.0169991
1.15289
0.0162812
1.15418
0.015094
1.15562
0.0135669
1.15724
0.0118055
1.15905
0.00989568
1.16106
0.00790391
1.16329
0.00588068
1.16574
0.00385812
1.16841
0.00192633
1.17129
0.000242057
1.1744
-0.00159849
1.17771
-0.00334555
1.18124
-0.00461459
1.18498
-0.0059726
1.18891
-0.00730085
-0.00834852
1.19304
0.497122
-1.75452
-0.342826
0.630579
-1.51743
0.744464
-1.28974
0.840312
-1.08446
0.920137
-0.899492
0.985944
-0.737607
1.03968
-0.598154
1.08316
-0.47953
1.11803
-0.379529
1.14577
-0.296273
1.16766
-0.227103
1.18478
-0.171312
1.19801
-0.127283
1.20815
-0.0925568
1.21589
-0.064894
1.22178
-0.0436216
1.22631
-0.0275932
1.22985
-0.0158752
1.23274
-0.00767748
1.23525
-0.00234974
1.23759
0.000646633
1.23872
0.0133945
1.23967
0.0153878
1.24055
0.0162061
1.24143
0.0161183
1.24237
0.015333
1.24344
0.0140303
1.24465
0.0123513
1.24605
0.0104112
1.24764
0.00830338
1.24944
0.0061005
1.25147
0.00385792
1.25371
0.00161194
1.25619
-0.000546635
1.25889
-0.00246391
1.26182
-0.00452567
1.26496
-0.00649009
1.26834
-0.00798614
1.27192
-0.00955827
1.27571
-0.0110919
-0.0123455
1.27971
0.532984
-1.92194
-0.365563
0.677837
-1.66228
0.801493
-1.41339
0.905613
-1.18858
0.992375
-0.986254
1.06394
-0.809175
1.12242
-0.656627
1.16976
-0.526871
1.20775
-0.417523
1.23798
-0.326498
1.26183
-0.250957
1.28047
-0.189947
1.29485
-0.141666
1.30583
-0.103538
1.31416
-0.0732224
1.32044
-0.0499022
1.32518
-0.0323336
1.3288
-0.0194982
1.33166
-0.0105346
1.33404
-0.00473261
1.33619
-0.00150347
1.33712
0.0124651
1.33784
0.0146705
1.33846
0.0155897
1.33906
0.0155148
1.33972
0.0146741
1.34049
0.0132629
1.3414
0.0114355
1.34249
0.00931718
1.34379
0.0070096
1.3453
0.0045921
1.34703
0.00212544
1.34899
-0.000349555
1.35119
-0.00274124
1.35362
-0.00489876
1.35628
-0.00718843
1.35917
-0.00937695
1.36229
-0.0111078
1.36563
-0.0129011
1.36919
-0.0146467
-0.016113
1.37296
0.571836
-2.10372
-0.390063
0.729158
-1.8196
0.863511
-1.54775
0.976695
-1.30176
1.07106
-1.08062
1.14896
-0.887067
1.21264
-0.720311
1.26423
-0.578464
1.30566
-0.458953
1.33863
-0.359466
1.36465
-0.276976
1.38496
-0.210259
1.40061
-0.157317
1.41252
-0.115446
1.4215
-0.0821961
1.42819
-0.0565953
1.43315
-0.0372942
1.43683
-0.023183
1.43962
-0.0133233
1.44183
-0.00693983
1.44372
-0.00338971
1.44439
0.0117913
1.44481
0.0142509
1.4451
0.0153028
1.44535
0.0152643
1.44564
0.0143846
1.44602
0.0128764
1.44655
0.0109074
1.44725
0.00861443
1.44816
0.00610804
1.44927
0.00347486
1.45062
0.000781564
1.45219
-0.00192606
1.45401
-0.00455543
1.45607
-0.00695882
1.45836
-0.00948164
1.46088
-0.0118996
1.46365
-0.0138719
1.46664
-0.0158922
1.46985
-0.0178552
-0.0195401
1.47327
0.613927
-2.3012
-0.416445
0.784904
-1.99058