/*--------------------------------*- C++ -*----------------------------------*\
| =========                 |                                                 |
| \\      /  F ield         | OpenFOAM: The Open Source CFD Toolbox           |
|  \\    /   O peration     | Version:  5.x                                   |
|   \\  /    A nd           | Web:      www.OpenFOAM.org                      |
|    \\/     M anipulation  |                                                 |
\*---------------------------------------------------------------------------*/
FoamFile
{
    version     2.0;
    format      ascii;
    class       surfaceScalarField;
    location    "150";
    object      phi;
}
// * * * * * * * * * * * * * * * * * * * * * * * * * * * * * * * * * * * * * //

dimensions      [0 3 -1 0 0 0 0];

internalField   nonuniform List<scalar> 
21876
(
0.0139302
0.0105713
-0.0244576
-0.000256609
0.014225
-0.00472301
0.00454408
-0.00505933
0.000402044
-0.00478449
-0.000236891
-0.00451769
-0.000246159
-0.00439337
-0.000114
-0.00434275
-4.11902e-05
-0.00432159
-9.98319e-06
-0.00433061
1.77305e-05
-0.00436157
4.05243e-05
-0.00441671
6.40126e-05
-0.00450098
9.40761e-05
-0.0046167
0.000126542
-0.00477216
0.000165013
-0.00497428
0.000210858
-0.00523323
0.000268076
-0.00555885
0.000335249
-0.00595898
0.000409255
-0.00643731
0.000489485
-0.00698674
0.000557967
-0.00753744
0.0005599
-0.00809372
0.000565349
-0.00863736
0.000551631
-0.00913531
0.0005058
-0.00955877
0.000431598
-0.00987804
0.000326219
-0.0100641
0.000194537
-0.0100964
3.79389e-05
-0.00997473
-0.000113611
-0.0097052
-0.000265478
-0.00927489
-0.000423162
-0.00868147
-0.000591405
-0.00791903
-0.00075509
-0.00700396
-0.000913832
-0.00594443
-0.0010513
-0.00474869
-0.00118962
-0.00333327
-0.00141088
-0.00176294
-0.00155937
-0.000161819
-0.00160327
-0.00249698
0.00234357
0.0287564
0.0110002
-0.0291565
0.017227
0.0257717
0.00275236
0.0190426
-0.00418339
0.0073695
-0.00546016
0.0010635
-0.005518
-0.000174571
-0.00548742
-0.000136202
-0.00551004
-1.02493e-05
-0.00556292
5.14319e-05
-0.00565078
0.000112627
-0.00576522
0.000161739
-0.00590761
0.000213047
-0.00608633
0.000279951
-0.00630587
0.000355008
-0.00657593
0.000442827
-0.00690381
0.00054688
-0.00729614
0.000668361
-0.00775654
0.000805674
-0.0082844
0.000946668
-0.00887203
0.00108992
-0.00950607
0.00120336
-0.0101111
0.00117303
-0.0106832
0.00114827
-0.0111951
0.00107018
-0.0116167
0.000936916
-0.0119284
0.000749467
-0.0121162
0.000522968
-0.0121717
0.000256334
-0.0120897
-3.56942e-05
-0.0118466
-0.000350164
-0.0114192
-0.000685876
-0.0107968
-0.00103871
-0.00997617
-0.00140655
-0.00894668
-0.00177742
-0.00771673
-0.00213995
-0.00629202
-0.00246898
-0.00469669
-0.00278149
-0.00290878
-0.00319138
-0.000866175
-0.00359701
0.00107308
-0.00353616
-0.0048193
0.00340453
0.0362939
0.00722635
-0.0325375
0.0331556
0.0289092
0.0198408
0.0323665
0.00498252
0.022241
-0.00326994
0.00933007
-0.00562223
0.00218774
-0.00614443
0.000392131
-0.00634504
0.000195514
-0.00649819
0.000210446
-0.00665567
0.00027504
-0.00682599
0.000337463
-0.00701718
0.000409072
-0.00724443
0.000512557
-0.00751514
0.0006306
-0.00784075
0.000773219
-0.00822895
0.000939329
-0.00868595
0.00112991
-0.00921479
0.00133848
-0.00981355
0.00154968
-0.0104734
0.00175349
-0.0111804
0.00191227
-0.0118533
0.00185051
-0.0124885
0.00178641
-0.0130602
0.00164621
-0.0135393
0.00141876
-0.0139021
0.00111667
-0.0141262
0.000749419
-0.0141887
0.000323451
-0.0140685
-0.000153852
-0.0137429
-0.000671555
-0.0131963
-0.00123075
-0.012416
-0.00181561
-0.0113972
-0.00242423
-0.0101267
-0.00304458
-0.00861116
-0.00365425
-0.00685457
-0.00422186
-0.00488161
-0.00475033
-0.00268799
-0.00538413
-0.00023045
-0.00605017
0.00215188
-0.00592064
-0.00726176
0.00459521
0.0421277
0.00246443
-0.0373667
0.0445483
0.026491
0.0384861
0.0384346
0.0236593
0.037075
0.00765551
0.0253407
-0.00206235
0.0119117
-0.00557634
0.0039117
-0.0066755
0.00130038
-0.00714077
0.000681483
-0.00746028
0.00059972
-0.00773137
0.000613656
-0.0079873
0.00066975
-0.00826405
0.000794243
-0.00857793
0.000949723
-0.00894723
0.00114788
-0.00938477
0.00138246
-0.00990072
0.00165185
-0.0105023
0.00194703
-0.0111905
0.00224515
-0.0119577
0.00252931
-0.0127893
0.00275193
-0.01359
0.0026582
-0.014353
0.00255667
-0.0150482
0.00234748
-0.01564
0.00201711
-0.0160957
0.00157833
-0.0163836
0.00104381
-0.0164727
0.000418841
-0.0163369
-0.000283035
-0.0159526
-0.00104934
-0.015303
-0.00187393
-0.0143728
-0.00273946
-0.0131548
-0.00363627
-0.011633
-0.00456029
-0.00981374
-0.00546822
-0.00770192
-0.00632799
-0.00532025
-0.00712718
-0.0026668
-0.00803243
0.00025081
-0.008963
0.00321054
-0.00887668
-0.0100988
0.00605378
0.0484442
-0.00265622
-0.0433488
0.053057
0.0218747
0.0537839
0.0377107
0.0457097
0.0451537
0.0294369
0.0416179
0.0118159
0.0295367
6.62708e-05
0.0156652
-0.00506651
0.00643762
-0.00694807
0.0025673
-0.00780876
0.00146458
-0.00835009
0.00115901
-0.00875866
0.00108225
-0.00913247
0.00117214
-0.00951348
0.00133443
-0.00993643
0.00157471
-0.010428
0.00187765
-0.0110087
0.00223648
-0.0116952
0.00263705
-0.0124952
0.00304909
-0.0134052
0.00344203
-0.0144098
0.00375821
-0.015392
0.00364393
-0.016337
0.00350386
-0.0172069
0.00322065
-0.0179583
0.00277059
-0.0185491
0.00217229
-0.0189392
0.00143607
-0.0190904
0.000573421
-0.018971
-0.000400242
-0.0185538
-0.00146345
-0.017818
-0.0026076
-0.0167449
-0.0038099
-0.0153246
-0.00505477
-0.0135378
-0.00634455
-0.0113908
-0.00761323
-0.00889012
-0.00882581
-0.00605692
-0.00995692
-0.00288104
-0.0112067
0.00057007
-0.0124109
0.00423045
-0.012537
-0.0135716
0.00770416
0.0560217
-0.00834184
-0.0503435
0.0612948
0.0165993
0.0655183
0.0334875
0.0649816
0.0456933
0.0556053
0.0509959
0.0380527
0.0470916
0.0184151
0.0353053
0.00383387
0.0210217
-0.00366908
0.010074
-0.00674321
0.0045429
-0.00821684
0.00263696
-0.00907168
0.00194132
-0.00968953
0.00179426
-0.0102156
0.00186483
-0.0107341
0.00209793
-0.0113033
0.00245172
-0.0119625
0.00290114
-0.012744
0.0034243
-0.0136693
0.00398044
-0.0147452
0.0045242
-0.0159612
0.00498079
-0.0171751
0.00486394
-0.0183587
0.00469332
-0.0194618
0.00432935
-0.020431
0.00374543
-0.0212141
0.00296135
-0.0217615
0.00198919
-0.0220262
0.000844398
-0.0219687
-0.000451749
-0.0215554
-0.00187056
-0.0207601
-0.00339715
-0.01956
-0.00500421
-0.0179415
-0.00666794
-0.0158822
-0.0083986
-0.0133875
-0.0101031
-0.0104656
-0.0117427
-0.00713816
-0.01328
-0.0033788
-0.0149617
0.000691126
-0.0164772
0.00516033
-0.0170034
-0.0178757
0.00946799
0.0651876
-0.014995
-0.058559
0.0710101
0.0107702
0.0762634
0.028234
0.0800686
0.0418871
0.0788186
0.0522476
0.0688411
0.0570701
0.0503383
0.0538098
0.0284997
0.0428627
0.010297
0.0282795
-0.000553338
0.0153968
-0.00562577
0.00771347
-0.00807923
0.00439902
-0.00946166
0.00318077
-0.0103888
0.00279599
-0.0111303
0.00284362
-0.0118402
0.00316608
-0.0126087
0.00367436
-0.0135025
0.00432283
-0.0145665
0.00504903
-0.0158242
0.00578579
-0.0172769
0.00643647
-0.0187617
0.00635242
-0.0202377
0.00617229
-0.0216384
0.00573343
-0.022896
0.005006
-0.0239442
0.00401306
-0.0247211
0.00276945
-0.0251688
0.0012959
-0.0252368
-0.000380185
-0.024882
-0.00222165
-0.0240712
-0.00420443
-0.0227762
-0.00629583
-0.0209794
-0.00846152
-0.0186547
-0.0107202
-0.0158057
-0.012949
-0.0124416
-0.0151035
-0.00858557
-0.0171324
-0.00419347
-0.0193509
0.00057993
-0.0212473
0.00593396
-0.0223555
-0.0231878
0.0112479
0.0760283
-0.022835
-0.0681942
0.0827975
0.00399665
0.08854
0.0224881
0.0936902
0.0367367
0.0972169
0.0487203
0.0958425
0.0584449
0.0859995
0.0636541
0.0671507
0.0617124
0.0432776
0.0521541
0.0210542
0.037622
0.0056563
0.0231138
-0.0027587
0.0128168
-0.00690154
0.00732783
-0.00917782
0.00507682
-0.0106001
0.00427084
-0.0116719
0.00424321
-0.0126487
0.0046565
-0.0136968
0.0053764
-0.0149178
0.00627552
-0.0163692
0.00724243
-0.0180746
0.00814752
-0.0198578
0.00814062
-0.0216694
0.00798872
-0.0234278
0.00749676
-0.0250479
0.00663088
-0.0264452
0.0054154
-0.0275406
0.0038694
-0.0282606
0.0020209
-0.0285401
-9.61268e-05
-0.0283225
-0.00243451
-0.0275649
-0.00495791
-0.0262322
-0.00762441
-0.0243019
-0.0103881
-0.0217445
-0.0132741
-0.0185601
-0.0161299
-0.0147575
-0.0189026
-0.0103623
-0.0215243
-0.00531599
-0.0243941
0.000218586
-0.0267791
0.00647687
-0.0286122
-0.0296087
0.0128994
0.0887805
-0.032135
-0.0794959
0.096813
-0.00403938
0.103439
0.0158589
0.109059
0.0311151
0.114026
0.0437521
0.117466
0.055005
0.116491
0.0646286
0.107555
0.0706486
0.0892278
0.0704816
0.0641064
0.062744
0.0380841
0.0491368
0.0169787
0.0339249
0.0035098
0.0208002
-0.00372332
0.0123151
-0.00756159
0.00811505
-0.00985886
0.00654647
-0.0114551
0.00625896
-0.0128359
0.0067631
-0.0142773
0.00772245
-0.0159396
0.00890983
-0.0179066
0.0101192
-0.020005
0.0102436
-0.0221825
0.0101708
-0.0243449
0.00966358
-0.0263911
0.00868164
-0.0282178
0.0072465
-0.0297255
0.00538188
-0.0308217
0.00312157
-0.0314213
0.00050828
-0.0314481
-0.00240338
-0.0308441
-0.00555745
-0.0295652
-0.0088994
-0.0275828
-0.0123667
-0.0248639
-0.0159894
-0.0214048
-0.0195857
-0.0172121
-0.0230916
-0.0123141
-0.0264191
-0.00664621
-0.0300583
-0.000361593
-0.0330611
0.00673314
-0.0357041
-0.0371084
0.0142347
0.103818
-0.0432274
-0.0927271
0.11336
-0.0135846
0.121242
0.00797579
0.127682
0.024673
0.133075
0.0383578
0.137818
0.0502605
0.141307
0.0611397
0.141129
0.0708257
0.13383
0.077781
0.117171
0.0794022
0.0921914
0.0741181
0.0631475
0.0629699
0.0361155
0.0478347
0.0158732
0.0325609
0.00340528
0.0205866
-0.00342075
0.0133778
-0.00727844
0.0101213
-0.00979294
0.00928245
-0.0118046
0.00974003
-0.0138045
0.0109151
-0.0160649
0.0123852
-0.0184879
0.0126716
-0.0210482
0.0127357
-0.0236475
0.0122676
-0.0261703
0.0112092
-0.0284953
0.00957558
-0.0305027
0.00739289
-0.0320784
0.00470143
-0.0331162
0.00154952
-0.0335148
-0.00200064
-0.0331952
-0.00587399
-0.0320989
-0.00999181
-0.0301897
-0.0142731
-0.0274305
-0.018745
-0.0238138
-0.0231996
-0.0193456
-0.0275564
-0.0140582
-0.0317035
-0.00789168
-0.0362216
-0.000987624
-0.0399626
0.00675258
-0.0434421
-0.0454642
0.0151095
0.121551
-0.0565556
-0.108225
0.13292
-0.0249529
0.142312
-0.001416
0.149974
0.0170115
0.15614
0.0321912
0.161235
0.0451657
0.165711
0.0566631
0.169286
0.0672512
0.170115
0.0769516
0.165039
0.0844781
0.151242
0.0879161
0.127992
0.0862211
0.0978174
0.0780102
0.0659381
0.0644408
0.0381241
0.0484027
0.018033
0.0334708
0.00571248
0.0224446
-0.00122566
0.0162269
-0.00539918
0.0139196
-0.0084552
0.0139783
-0.0112784
0.0152152
-0.0140988
0.0154984
-0.0170609
0.0157037
-0.0201154
0.0153284
-0.0231514
0.0142497
-0.026033
0.0124616
-0.0286202
0.00998392
-0.0307772
0.00686136
-0.0323752
0.00315153
-0.0332907
-0.00108265
-0.0334144
-0.00574633
-0.0326698
-0.0107346
-0.0310044
-0.0159347
-0.0283798
-0.021368
-0.0247841
-0.0267915
-0.0202324
-0.0321066
-0.0147667
-0.0371655
-0.0083488
-0.0426382
-0.00112033
-0.0471879
0.0069141
-0.0514768
-0.0542219
0.0156746
0.14246
-0.0726386
-0.126373
0.156069
-0.0385598
0.167269
-0.0126134
0.176401
0.00788102
0.183738
0.024855
0.189569
0.039336
0.194313
0.0519194
0.198468
0.063097
0.202063
0.0733567
0.203878
0.0826633
0.20131
0.0904849
0.19124
0.0962922
0.171612
0.0976373
0.142957
0.0930962
0.108759
0.0826013
0.0744601
0.0677702
0.0454099
0.0514983
0.0246072
0.0370327
0.0117135
0.0268191
0.0041637
0.0215342
-0.000767892
0.0201532
-0.00455509
0.0192919
-0.00810552
0.019261
-0.0116677
0.0188954
-0.0152353
0.0178235
-0.0187026
0.015933
-0.0219245
0.0132102
-0.0247498
0.00969066
-0.0270324
0.00543781
-0.0286276
0.0005165
-0.0293935
-0.00497744
-0.0292186
-0.0109056
-0.0280319
-0.0171191
-0.0257844
-0.0236118
-0.0224681
-0.0301061
-0.0181096
-0.0364613
-0.0127855
-0.0424885
-0.00649648
-0.0489236
0.000584736
-0.0542693
0.00838329
-0.0592717
-0.0627088
0.0168693
0.167118
-0.092108
-0.147644
0.183478
-0.0549176
0.196877
-0.0260091
0.207749
-0.00298884
0.21648
0.0161257
0.223411
0.0324059
0.228859
0.0464732
0.23322
0.0587364
0.237002
0.0695758
0.240471
0.0791955
0.243042
0.0879144
0.242868
0.096466
0.237007
0.103498
0.22261
0.107494
0.198386
0.106825
0.165621
0.100537
0.128171
0.088949
0.0914254
0.0737807
0.0604887
0.0577588
0.0381436
0.0438817
0.0239253
0.0343752
0.0156923
0.0275293
0.0100967
0.0248605
0.00546955
0.0235296
0.00117436
0.022123
-0.00293159
0.020046
-0.00680404
0.0170875
-0.0103218
0.0132158
-0.0133499
0.00847023
-0.0157418
0.00291578
-0.0173389
-0.00337648
-0.0179855
-0.0102526
-0.0175822
-0.0175195
-0.0160686
-0.02512
-0.0134327
-0.0327394
-0.00971129
-0.0401783
-0.0050034
-0.0471943
0.000616243
-0.0545397
0.00692206
-0.0605732
0.0137752
-0.0661215
-0.0700894
0.0211563
0.196218
-0.115716
-0.172607
0.215942
-0.0746396
0.232024
-0.0420883
0.244996
-0.0159592
0.255356
0.00576862
0.263564
0.0241988
0.270014
0.0400243
0.275039
0.0537125
0.279006
0.0656099
0.282374
0.075829
0.285565
0.0847239
0.288576
0.0934558
0.290329
0.101746
0.288534
0.10929
0.280231
0.115129
0.262922
0.117847
0.235772
0.116099
0.200335
0.10922
0.16045
0.0976437
0.121354
0.0829796
0.0880161
0.0677155
0.0648431
0.050705
0.0498318
0.0398771
0.0401192
0.0332464
0.0332245
0.0290258
0.0276805
0.0255962
0.0228504
0.0219279
0.0185362
0.0175363
0.0147486
0.0122694
0.0115511
0.00611884
0.00906181
-0.000875523
0.00743013
-0.0086174
0.00678417
-0.016863
0.00716312
-0.0254969
0.00859623
-0.0341632
0.0110185
-0.0426001
0.0143267
-0.0504936
0.0183581
-0.0585719
0.0229387
-0.0651444
0.0279128
-0.0710973
-0.0754276
0.0332605
0.230613
-0.144365
-0.201962
0.254432
-0.0984565
0.273777
-0.0614317
0.289292
-0.0314722
0.301594
-0.00653111
0.311266
0.0145279
0.31883
0.0324616
0.324717
0.047826
0.329279
0.0610495
0.332835
0.0722738
0.335787
0.0817735
0.338657
0.0905867
0.341754
0.0986508
0.344741
0.106304
0.346242
0.113629
0.343857
0.120233
0.334763
0.125195
0.316703
0.127282
0.288973
0.125374
0.253019
0.118936
0.212371
0.108366
0.17463
0.0884509
0.142937
0.0715744
0.118661
0.0575282
0.101163
0.0465313
0.0887882
0.0379803
0.0798354
0.0308896
0.0730506
0.0243315
0.0676803
0.0176488
0.0633369
0.0104731
0.0598219
0.00264785
0.0570693
-0.00585472
0.0550934
-0.0148806
0.05388
-0.0242748
0.0534088
-0.0336873
0.0536128
-0.0427964
0.0543846
-0.0512625
0.0555634
-0.059743
0.0570766
-0.0666555
0.0588449
-0.0728575
-0.0774625
0.0608815
0.271352
-0.179136
-0.236578
0.300139
-0.127242
0.323439
-0.0847297
0.342024
-0.0500563
0.356654
-0.021159
0.368045
0.00313717
0.37685
0.0236589
0.38363
0.041047
0.388853
0.0558281
0.392872
0.0682551
0.395992
0.0786556
0.398596
0.087983
0.401131
0.0961174
0.404055
0.103381
0.407563
0.110123
0.41118
0.116618
0.413489
0.122889
0.412215
0.128558
0.404764
0.132827
0.389043
0.134661
0.364304
0.133107
0.333887
0.118873
0.300943
0.104524
0.268762
0.0897158
0.239858
0.0754414
0.215564
0.0622828
0.196088
0.0503741
0.180912
0.0395175
0.16922
0.0293487
0.160207
0.0194981
0.153175
0.00968719
0.14755
-0.000219242
0.142887
-0.0102122
0.138817
-0.0201945
0.135114
-0.0299803
0.131626
-0.0393
0.128247
-0.0478813
0.124794
-0.0562809
0.121377
-0.0632379
0.118017
-0.0694888
-0.0743608
0.114915
0.319719
-0.221333
-0.277519
0.354527
-0.16205
0.38261
-0.112811
0.404898
-0.0723438
0.422316
-0.038574
0.435737
-0.0102844
0.445964
0.0134356
0.453686
0.0333242
0.459509
0.0500083
0.463905
0.063859
0.467256
0.075307
0.469905
0.085334
0.472153
0.0938723
0.474351
0.101182
0.476955
0.107522
0.480401
0.113172
0.484867
0.118426
0.489933
0.123494
0.494381
0.128382
0.496261
0.132784
0.493319
0.136054
0.484196
0.128
0.469364
0.11936
0.450117
0.108968
0.428248
0.0973155
0.40559
0.0849484
0.383649
0.0723212
0.363425
0.0597502
0.345372
0.0474076
0.329523
0.0353576
0.315598
0.0236171
0.303195
0.0121945
0.291868
0.00111843
0.281164
-0.00948183
0.270784
-0.0195978
0.260484
-0.028992
0.250103
-0.0375001
0.239321
-0.0454901
0.228394
-0.052312
0.217371
-0.0584566
-0.0636687
0.206678
0.342154
-0.267712
-0.295772
0.380292
-0.200187
0.410973
-0.143489
0.435215
-0.0965852
0.454036
-0.0573917
0.468393
-0.0246414
0.479168
0.0026635
0.487125
0.0253681
0.492932
0.0442047
0.497133
0.0596583
0.500185
0.0722582
0.502482
0.0830368
0.50432
0.0920381
0.505929
0.099574
0.507561
0.105893
0.50953
0.111204
0.512247
0.115712
0.516111
0.119631
0.52133
0.123167
0.527662
0.126455
0.53425
0.129469
0.538982
0.123271
0.541028
0.117318
0.539806
0.110195
0.535232
0.101893
0.527662
0.0925243
0.517708
0.0822788
0.506066
0.0713998
0.493337
0.0601396
0.479971
0.0487319
0.466207
0.037384
0.452127
0.0262834
0.437657
0.0155905
0.422633
0.00555039
0.407049
-0.00401376
0.390937
-0.0128723
0.374334
-0.020898
0.356955
-0.0281026
0.339198
-0.0345572
0.321121
-0.0403708
-0.0458181
0.303269
0.359918
-0.317618
-0.310009
0.400844
-0.241113
0.433677
-0.17632
0.459516
-0.122424
0.479458
-0.0773304
0.494534
-0.039717
0.50569
-0.00848975
0.513749
0.01731
0.519426
0.0385308
0.52331
0.0557743
0.525902
0.0696694
0.527638
0.0813015
0.528859
0.0908204
0.529818
0.0986163
0.530712
0.105002
0.531701
0.110216
0.532975
0.114441
0.534786
0.117822
0.537468
0.120488
0.541356
0.122569
0.546639
0.124188
0.552315
0.117598
0.557999
0.111636
0.563042
0.105155
0.566805
0.0981318
0.568789
0.090544
0.568677
0.0823912
0.566351
0.0737305
0.561819
0.0646725
0.555191
0.0553647
0.546601
0.0459736
0.536219
0.0366706
0.524189
0.0276191
0.510565
0.0191788
0.495481
0.0110683
0.479092
0.0035197
0.461567
-0.003376
0.442756
-0.00928699
0.423097
-0.0149024
0.402666
-0.0199337
-0.0250789
0.381923
0.379936
-0.371331
-0.326223
0.423882
-0.285057
0.459052
-0.211489
0.486631
-0.150001
0.5078
-0.0984972
0.523671
-0.0555867
0.535257
-0.0200739
0.543448
0.00911957
0.549011
0.0329711
0.552579
0.0522068
0.554691
0.0675613
0.555808
0.0801849
0.556304
0.0903279
0.556466
0.0984556
0.556521
0.104949
0.556625
0.110113
0.556892
0.114178
0.557406
0.117309
0.55828
0.119617
0.559672
0.121178
0.561797
0.122066
0.564216
0.115181
0.56703
0.108823
0.570087
0.1021
0.573089
0.0951309
0.57565
0.0879849
0.577353
0.0806884
0.577821
0.0732664
0.576734
0.0657589
0.573878
0.0582245
0.569113
0.0507384
0.562402
0.0433849
0.553771
0.0362499
0.543276
0.0296773
0.531059
0.0232846
0.517315
0.0172682
0.502254
0.0116839
0.485834
0.0071374
0.468412
0.00251867
0.450045
-0.00156013
-0.00600333
0.430968
0.402224
-0.429152
-0.344396
0.449443
-0.332277
0.487157
-0.249199
0.516634
-0.17948
0.539156
-0.121015
0.555911
-0.0723431
0.567995
-0.0321532
0.576357
0.000756125
0.581828
0.0275057
0.585082
0.0489507
0.586705
0.0659436
0.58718
0.0797086
0.586909
0.0906038
0.586195
0.0991692
0.585293
0.105856
0.584377
0.111028
0.583581
0.114978
0.582965
0.117925
0.582561
0.120025
0.582364
0.121375
0.582385
0.122047
0.582206
0.115361
0.581957
0.109072
0.581665
0.102394
0.581294
0.0954997
0.580751
0.0885306
0.579859
0.081578
0.578415
0.0747125
0.576183
0.0679874
0.57296
0.0614505
0.568553
0.0551407
0.562847
0.0490946
0.555754
0.0433393
0.547241
0.0381925
0.537337
0.0331855
0.52614
0.0284677
0.513777
0.0240435
0.500241
0.0206768
0.485812
0.0169445
0.470579
0.0136776
0.00990931
0.454663
0.426839
-0.491427
-0.364564
0.477616
-0.383051
0.518097
-0.289679
0.549658
-0.211039
0.573666
-0.145023
0.591415
-0.0900883
0.604067
-0.0448042
0.612654
-0.0078281
0.618058
0.0221028
0.62102
0.0459927
0.622151
0.0648142
0.62198
0.0798831
0.620921
0.091665
0.619308
0.100786
0.617398
0.107768
0.61539
0.113039
0.613422
0.116949
0.61158
0.119771
0.609893
0.121714
0.60834
0.122931
0.606851
0.123539
0.604991
0.117224
0.602789
0.111277
0.600226
0.104959
0.597292
0.0984364
0.59397
0.0918538
0.590232
0.0853191
0.586024
0.0789209
0.581284
0.0727308
0.57593
0.0668043
0.569892
0.0611826
0.563095
0.0558921
0.555495
0.0509438
0.547031
0.0466564
0.537712
0.0425097
0.527552
0.0386279
0.516618
0.0349828
0.504844
0.0324514
0.492424
0.0293714
0.479381
0.0267199
0.0235087
0.46579
0.453882
-0.558515
-0.386787
0.508521
-0.437691
0.552022
-0.333178
0.585863
-0.244879
0.611518
-0.170676
0.630375
-0.108943
0.643686
-0.0581138
0.652558
-0.0166971
0.65794
0.0167217
0.66063
0.043306
0.661284
0.0641617
0.660467
0.080704
0.658618
0.093515
0.656097
0.103311
0.653173
0.110693
0.650059
0.116158
0.646896
0.120113
0.643782
0.122888
0.640757
0.124742
0.637812
0.125879
0.634885
0.12647
0.631595
0.120517
0.627936
0.114939
0.623847
0.109051
0.619281
0.103006
0.614201
0.0969357
0.608587
0.0909362
0.602422
0.0850872
0.595704
0.0794535
0.588422
0.0740865
0.580586
0.0690235
0.572191
0.0642872
0.563256
0.0598843
0.553758
0.0561542
0.543733
0.0525396
0.533196
0.0491635
0.5222
0.0459834
0.510661
0.0439881
0.498718
0.0413194
0.486314
0.0391203
0.0364649
0.473364
0.483466
-0.630828
-0.411154
0.542309
-0.496527
0.589102
-0.379972
0.625447
-0.28122
0.652921
-0.198151
0.673023
-0.129041
0.687094
-0.0721857
0.696327
-0.0259262
0.70174
0.0113076
0.704195
0.0408554
0.704393
0.0639625
0.702942
0.0821583
0.700312
0.0961452
0.696887
0.106739
0.692956
0.114624
0.688745
0.120372
0.684406
0.124454
0.680041
0.127255
0.675697
0.129088
0.671374
0.130204
0.667022
0.130823
0.662338
0.125202
0.657322
0.119958
0.651916
0.114457
0.646074
0.108851
0.63974
0.103268
0.632882
0.0977953
0.625467
0.0925007
0.617485
0.0874365
0.608928
0.0826411
0.599812
0.0781409
0.590149
0.073948
0.579974
0.0700618
0.569285
0.066842
0.558136
0.0636937
0.546555
0.0607431
0.534602
0.0579431
0.522181
0.0564052
0.509404
0.0541041
0.496113
0.0524064
0.0505522
0.482032
0.515741
-0.708794
-0.437767
0.579146
-0.559933
0.629537
-0.43036
0.668624
-0.320306
0.698115
-0.22764
0.71961
-0.150536
0.734562
-0.0871352
0.744241
-0.0356049
0.749755
0.00579645
0.752017
0.038593
0.751798
0.0641842
0.749736
0.0842211
0.746346
0.0995376
0.742033
0.111053
0.737117
0.119543
0.731833
0.125657
0.726353
0.129936
0.720786
0.132825
0.715187
0.134689
0.709564
0.13583
0.703876
0.136513
0.697878
0.131202
0.691581
0.126257
0.684952
0.121089
0.677952
0.115852
0.670544
0.110678
0.662688
0.105653
0.65435
0.100841
0.645498
0.0962891
0.636114
0.0920274
0.626183
0.0880732
0.615704
0.0844302
0.60468
0.0810882
0.593103
0.0784261
0.580991
0.0758069
0.568386
0.0733582
0.555306
0.0710249
0.54167
0.0700533
0.527516
0.0682583
0.512668
0.0672658
0.0665127
0.496704
0.550857
-0.792899
-0.466753
0.619229
-0.628299
0.673543
-0.484672
0.715641
-0.362403
0.747359
-0.259356
0.770419
-0.173596
0.786381
-0.103096
0.796612
-0.0458357
0.8023
0.000109619
0.804434
0.0364597
0.80384
0.0647797
0.801206
0.0868555
0.797086
0.103658
0.79192
0.11622
0.78605
0.125414
0.779736
0.131972
0.773166
0.136508
0.766463
0.139529
0.759696
0.141457
0.752883
0.142645
0.745997
0.143401
0.738831
0.138371
0.731405
0.133685
0.723704
0.128792
0.715706
0.123852
0.707388
0.118999
0.698719
0.114324
0.689674
0.10989
0.68022
0.105746
0.670332
0.101921
0.659976
0.0984305
0.649137
0.0952754
0.637785
0.0924411
0.625891
0.0903261
0.613441
0.0882555
0.600451
0.0863551
0.586912
0.0845596
0.572731
0.0842411
0.55795
0.0830337
0.542465
0.0827572
0.0829258
0.526043
0.589001
-0.883649
-0.498245
0.662765
-0.702066
0.721359
-0.543261
0.766757
-0.4078
0.800937
-0.293533
0.825747
-0.198406
0.842867
-0.120214
0.853765
-0.0567346
0.859717
-0.00584165
0.861792
0.0343844
0.86088
0.0656922
0.857723
0.0900126
0.852918
0.108464
0.846941
0.122197
0.840166
0.132189
0.832878
0.139261
0.825284
0.144102
0.81753
0.147284
0.809699
0.149288
0.801829
0.150516
0.793908
0.151322
0.785757
0.146524
0.777406
0.142033
0.768861
0.137339
0.760105
0.132605
0.751137
0.127969
0.741932
0.123524
0.732487
0.119338
0.722768
0.115458
0.712773
0.111918
0.702463
0.108733
0.691835
0.105906
0.680846
0.103421
0.669475
0.101698
0.657689
0.100032
0.645497
0.0985491
0.632877
0.0971696
0.619754
0.097368
0.606197
0.0965802
0.592254
0.0967044
0.0970923
0.578078
0.630358
-0.981612
-0.532397
0.70999
-0.78169
0.773246
-0.606518
0.822261
-0.456812
0.859155
-0.330426
0.88592
-0.225171
0.904358
-0.138651
0.916054
-0.068429
0.922371
-0.0121591
0.92447
0.0322869
0.923306
0.0668559
0.919683
0.0936363
0.914245
0.113901
0.907512
0.128931
0.899889
0.139812
0.891692
0.147459
0.883154
0.15264
0.874443
0.155996
0.865666
0.158066
0.856881
0.159302
0.848103
0.160101
0.839162
0.155465
0.830116
0.151081
0.820974
0.146481
0.811749
0.141832
0.802439
0.137278
0.793054
0.132914
0.783583
0.128808
0.774036
0.12501
0.7644
0.121552
0.754686
0.118451
0.744877
0.115711
0.734986
0.113315
0.724979
0.1117
0.714876
0.110139
0.70466
0.108759
0.694363
0.107471
0.683902
0.10782
0.673401
0.107086
0.662919
0.107177
0.107183
0.652832
0.675149
-1.08738
-0.569373
0.761146
-0.867692
0.829488
-0.674854
0.882461
-0.509782
0.922346
-0.37031
0.951289
-0.254111
0.971223
-0.158585
0.983855
-0.0810599
0.990653
-0.0189571
0.992866
0.0300749
0.991527
0.0681943
0.987504
0.0976602
0.981495
0.11991
0.974064
0.136362
0.965658
0.148218
0.956624
0.156493
0.947227
0.162037
0.937659
0.165564
0.928057
0.167668
0.918504
0.168855
0.909045
0.169562
0.899512
0.164998
0.889987
0.160608
0.880495
0.155971
0.87107
0.15126
0.861721
0.146626
0.852475
0.142163
0.843335
0.137944
0.834331
0.134018
0.825464
0.130416
0.816764
0.127155
0.808235
0.124235
0.799913
0.121641
0.791791
0.119816
0.783912
0.118022
0.776278
0.116386
0.768938
0.114816
0.761855
0.114895
0.755121
0.113823
0.748774
0.113516
0.112898
0.743063
0.723595
-1.20163
-0.609354
0.816516
-0.960602
0.890391
-0.74873
0.947692
-0.567078
0.99087
-0.413485
1.02223
-0.285469
1.04385
-0.180208
1.05757
-0.0947819
1.06498
-0.0263585
1.0674
0.0276474
1.06598
0.0696245
1.06162
0.102011
1.05511
0.126424
1.04705
0.144424
1.03792
0.15734
1.02813
0.166289
1.01795
0.17221
1.00763
0.175888
0.997316
0.177981
0.987127
0.179039
0.977146
0.179545
0.967189
0.17495
0.957371
0.170427
0.947727
0.16561
0.938311
0.16068
0.92914
0.155791
0.920261
0.151047
0.911683
0.146518
0.903451
0.142256
0.895569
0.138293
0.888085
0.134645
0.881003
0.131312
0.874375
0.128276
0.868205
0.12598
0.862546
0.123687
0.857403
0.121521
0.852833
0.119391
0.84883
0.11889
0.84545
0.117207
0.842699
0.116259
0.114922
0.840679
0.775957
-1.32505
-0.652536
0.876383
-1.06104
0.956288
-0.828626
1.01832
-0.629105
1.06511
-0.460276
1.09915
-0.319504
1.12267
-0.203728
1.13765
-0.10976
1.14579
-0.0344977
1.14854
0.0248983
1.14711
0.0710573
1.1425
0.106615
1.13555
0.133375
1.12692
0.153055
1.11715
0.167113
1.10666
0.176779
1.09579
0.183082
1.08479
0.186885
1.07386
0.188906
1.06316
0.189747
1.05277
0.189927
1.04253
0.185193
1.03255
0.180407
1.0229
0.175266
1.01361
0.16996
1.00475
0.164653
0.99634
0.159454
0.988421
0.154439
0.981009
0.149662
0.974146
0.145159
0.96784
0.140944
0.962134
0.137021
0.957031
0.133371
0.952578
0.130436
0.948775
0.127482
0.945662
0.124636
0.943237
0.121808
0.941554
0.120575
0.94059
0.118163
0.94038
0.11647
0.114379
0.940915
0.83249
-1.45842
-0.699126
0.941077
-1.16961
1.02753
-0.915088
1.09473
-0.69629
1.14549
-0.511034
1.18249
-0.3565
1.20813
-0.229371
1.22455
-0.126176
1.23357
-0.0435171
1.23676
0.0217104
1.23542
0.0723995
1.23064
0.111392
1.22332
0.140695
1.21419
0.162188
1.20382
0.177475
1.19271
0.187898
1.1812
0.194588
1.1696
0.198482
1.15814
0.200366
1.14699
0.200893
1.1363
0.200622
1.12585
0.195643
1.11578
0.190468
1.10618
0.184867
1.09709
0.179045
1.08857
0.173176
1.08064
0.167376
1.07335
0.161731
1.06671
0.156298
1.06075
0.151117
1.05548
0.146209
1.05093
0.141577
1.04708
0.137209
1.04398
0.133536
1.04161
0.129844
1.03999
0.126257
1.0391
0.12269
1.039
0.120682
1.03962
0.117532
1.041
0.115091
0.112272
1.0431
0.893498
-1.60256
-0.749351
1.01093
-1.28705
1.10453
-1.00867
1.17735
-0.769111
1.23246
-0.566139
1.27272
-0.396759
1.30073
-0.257382
1.31878
-0.14422
1.32883
-0.0535726
1.33258
0.0179638
1.33143
0.0735505
1.32656
0.116262
1.31894
0.148312
1.30936
0.171766
1.29846
0.188369
1.28677
0.199595
1.27468
0.206672
1.26253
0.210627
1.25058
0.212308
1.23905
0.212426
1.22809
0.211579
1.21747
0.206258
1.20735
0.20058
1.19782
0.194401
1.18891
0.187941
1.1807
0.181389
1.1732
0.174871
1.16645
0.168481
1.16045
0.162286
1.15524
0.156332
1.1508
0.150643
1.14715
0.145229
1.14427
0.14008
1.14219
0.135619
1.14087
0.131156
1.14032
0.126812
1.14049
0.122507
1.14145
0.119731
1.1431
0.115874
1.14546
0.112726
0.109235
1.14849
0.959282
-1.75839
-0.803453
1.08633
-1.41409
1.18767
-1.11003
1.26664
-0.84807
1.32651
-0.626004
1.37037
-0.440616
1.40101
-0.288021
1.42089
-0.164104
1.43214
-0.0648249
1.43658
0.0135275
1.43572
0.0744124
1.43083
0.121142
1.42298
0.156166
1.41301
0.181733
1.40162
0.199752
1.38938
0.211829
1.37675
0.219303
1.36408
0.223288
1.35168
0.224708
1.33977
0.224328
1.32856
0.222791
1.31776
0.21704
1.30758
0.210759
1.29808
0.203898
1.28932
0.196699
1.28133
0.189363
1.27417
0.182033
1.26783
0.174812
1.26234
0.167777
1.25768
0.16098
1.25387
0.154452
1.25088
0.148209
1.24872
0.142246
1.24736
0.136972
1.24679
0.131726
1.24696
0.126628
1.24787
0.121602
1.24952
0.118077
1.25184
0.113553
1.25481
0.109743
0.105641
1.25841
1.03019
-1.92689
-0.861693
1.16766
-1.55157
1.27745
-1.21981
1.3631
-0.933731
1.42818
-0.691076
1.47599
-0.488426
1.50954
-0.321573
1.53149
-0.186049
1.54411
-0.0774498
1.54936
0.00826839
1.5489
0.0748797
1.54408
0.125956
1.53605
0.164193
1.52573
0.192044
1.51389
0.211589
1.50114
0.224575
1.48798
0.232461
1.4748
0.236457
1.46194
0.237564
1.44964
0.236608
1.43815
0.234282
1.42715
0.228025
1.41685
0.221056
1.40731
0.213426
1.3986
0.205402
1.39075
0.197203
1.38379
0.188986
1.37772
0.180868
1.37256
0.172935
1.36829
0.165246
1.3649
0.157842
1.36235
0.150742
1.36065
0.143945
1.35977
0.137848
1.35967
0.131821
1.36031
0.125979
1.36166
0.120253
1.36373
0.116001
1.36643
0.110847
1.36975
0.106418
0.101758
1.37363
1.10658
-2.10912
-0.924346
1.25537
-1.70036
1.37433
-1.33877
1.46728
-1.02668
1.53805
-0.761843
1.5902
-0.540578
1.62697
-0.358348
1.65122
-0.210293
1.6654
-0.0916344
1.67162
0.00204612
1.67165
0.0748458
1.66697
0.130625
1.65882
0.172339
1.6482
0.202662
1.63593
0.223856
1.62267
0.237825
1.60897
0.246151
1.59527
0.25015
1.58192
0.250905
1.56921
0.249311
1.55737
0.246111
1.5461
0.239286
1.53559
0.231556
1.52592
0.223087
1.51715
0.21417
1.50929
0.205045
1.50239
0.195884
1.49643
0.186818
1.49142
0.177944
1.48733
0.169331
1.48415
0.161024
1.48183
0.15305
1.48036
0.145414
1.47971
0.138492
1.47984
0.131691
1.48068
0.125122
1.48221
0.118721
1.48444
0.113767
1.48726
0.10802