/*--------------------------------*- C++ -*----------------------------------*\
| =========                 |                                                 |
| \\      /  F ield         | OpenFOAM: The Open Source CFD Toolbox           |
|  \\    /   O peration     | Version:  5.x                                   |
|   \\  /    A nd           | Web:      www.OpenFOAM.org                      |
|    \\/     M anipulation  |                                                 |
\*---------------------------------------------------------------------------*/
FoamFile
{
    version     2.0;
    format      ascii;
    class       surfaceScalarField;
    location    "150";
    object      phi;
}
// * * * * * * * * * * * * * * * * * * * * * * * * * * * * * * * * * * * * * //

dimensions      [0 3 -1 0 0 0 0];

internalField   nonuniform List<scalar> 
21876
(
0.0276843
-0.0047278
-0.0229602
0.0371535
-0.00946932
0.0380516
-0.000898074
0.0393666
-0.00131494
0.0387265
0.000640098
0.0369491
0.00177744
0.034691
0.00225812
0.0322613
0.00242974
0.0297854
0.00247586
0.0270507
0.00273477
0.023775
0.00327561
0.0212976
0.00247748
0.0199573
0.00134022
0.0191854
0.000771889
0.0182606
0.00092481
0.0173123
0.00094828
0.0163237
0.00098868
0.015313
0.00101058
0.014291
0.00102203
0.0132534
0.0010376
0.0121904
0.00106301
0.0113353
0.000855021
0.0104666
0.000868736
0.0095808
0.000885718
0.00866949
0.000911271
0.00772611
0.000943332
0.00674055
0.000985568
0.0057022
0.00103836
0.00462119
0.00108108
0.00352215
0.00109904
0.00242506
0.00109705
0.00136491
0.00106005
0.00039231
0.000972452
-0.000440751
0.000832931
-0.00113485
0.000693964
-0.00179265
0.000657627
-0.0027172
0.000924236
-0.00391254
0.00119539
-0.00506707
0.00115433
-0.00380644
-0.00126076
-0.0093706
0.00556414
0.0334646
-0.0114484
-0.0267446
0.0414041
-0.0174089
0.044203
-0.0036971
0.0463455
-0.00345759
0.0473978
-0.000412304
0.0475705
0.00160473
0.0469585
0.00287004
0.0456317
0.00375647
0.0437345
0.004373
0.0412598
0.00520946
0.0379855
0.00654982
0.0347395
0.00572342
0.0320591
0.00402055
0.0298974
0.00293357
0.0279258
0.00289644
0.0261879
0.00268616
0.0245862
0.00259042
0.0230548
0.00254193
0.0215604
0.00251643
0.0200797
0.00251834
0.0185854
0.00255743
0.017392
0.00204838
0.0162126
0.0020482
0.0150284
0.00206993
0.0138228
0.00211687
0.012582
0.00218408
0.0112928
0.00227478
0.00994885
0.00238228
0.00854009
0.00248981
0.00705933
0.00257985
0.00552343
0.00263292
0.00397122
0.00261228
0.00246331
0.00248032
0.00108139
0.00221485
-0.000123595
0.00189884
-0.00128228
0.00181623
-0.00254086
0.00218267
-0.00356468
0.00221903
-0.00392705
0.0015164
-0.00293089
-0.00225713
-0.0154377
0.00313613
0.039319
-0.0190948
-0.0316722
0.0465391
-0.0246288
0.051265
-0.00842292
0.0541707
-0.00636328
0.0557537
-0.00199527
0.0561995
0.00115889
0.0558323
0.00323728
0.0548594
0.00472936
0.0533802
0.0058522
0.0513677
0.00722201
0.0486233
0.00929423
0.0456754
0.00867132
0.0429796
0.00671633
0.0405181
0.00539503
0.0380721
0.00534255
0.0357711
0.00498708
0.0336112
0.00475035
0.0315546
0.00459851
0.0295707
0.00450037
0.0276292
0.00445985
0.0256875
0.00449909
0.0241436
0.00359231
0.0226305
0.00356129
0.021124
0.00357635
0.0196026
0.00363827
0.018048
0.00373867
0.0164424
0.00388037
0.0147719
0.00405282
0.0130228
0.0042389
0.0111864
0.00441617
0.00926951
0.0045498
0.00730137
0.00458039
0.0053383
0.00444334
0.00346169
0.00409143
0.00175355
0.00360695
0.00019267
0.00337705
-0.00127295
0.00364808
-0.00239015
0.00333628
-0.00283617
0.00196248
-0.00260516
-0.00248819
-0.0184195
0.000376722
0.0457908
-0.0275371
-0.0373484
0.0529901
-0.031828
0.0587535
-0.0141862
0.062463
-0.0100729
0.0647354
-0.00426766
0.0657401
0.000154147
0.0657105
0.00326678
0.064893
0.00554688
0.063489
0.00725615
0.0615668
0.00914414
0.0590122
0.0118488
0.0562312
0.0114523
0.0536829
0.00926455
0.0513419
0.007736
0.0489304
0.00775405
0.0464974
0.00742008
0.0440842
0.00716355
0.0416906
0.00699219
0.039316
0.00687501
0.036954
0.00682183
0.0345753
0.00687792
0.0326728
0.00549486
0.0308055
0.00542864
0.0289478
0.00543405
0.0270762
0.00550992
0.0251697
0.00564516
0.0232072
0.00584288
0.0211695
0.00609057
0.0190388
0.00636957
0.0168023
0.00665263
0.0144584
0.00689368
0.0120235
0.00701526
0.00954122
0.00692561
0.00708366
0.00654894
0.00475692
0.0059336
0.00266506
0.00546879
0.000842205
0.00547075
-0.000615475
0.00479378
-0.00141374
0.00276048
-0.00203192
-0.0018702
-0.018574
-0.00187749
0.0529091
-0.0367677
-0.043678
0.0604385
-0.0393572
0.0670665
-0.0208141
0.0718969
-0.0149032
0.0751708
-0.00754157
0.0770317
-0.00170685
0.0776225
0.00267599
0.0771572
0.00601212
0.0758734
0.00853993
0.0739131
0.0111045
0.0712701
0.0144917
0.0683167
0.0144057
0.0655744
0.0120069
0.0631172
0.0101932
0.0606938
0.0101774
0.0582514
0.00986244
0.0558005
0.00961446
0.053314
0.00947874
0.0507733
0.00941569
0.0481735
0.00942168
0.0454976
0.00955384
0.0433155
0.00767692
0.0411474
0.00759669
0.0389729
0.00760856
0.0367705
0.00771239
0.0345195
0.00789612
0.0321977
0.00816466
0.0297831
0.00850514
0.0272546
0.0088981
0.0245948
0.00931232
0.0217941
0.00969434
0.0188549
0.00995452
0.015802
0.00997844
0.0126865
0.0096644
0.00961138
0.00900871
0.00678997
0.00829015
0.00437646
0.0078841
0.00233413
0.00683611
0.000897911
0.00419678
-0.000634164
-0.000338212
-0.0161404
-0.00306788
0.0607546
-0.0468749
-0.0506473
0.0689065
-0.0475089
0.0763824
-0.02829
0.0823478
-0.0208685
0.086729
-0.0119227
0.0896241
-0.00460206
0.091103
0.00119709
0.0913155
0.00579962
0.0904631
0.00939228
0.0887132
0.0128544
0.0861198
0.017085
0.0829969
0.0175286
0.0799058
0.0150979
0.077072
0.0130271
0.0743698
0.0128796
0.0717205
0.0125118
0.0691262
0.0122088
0.0665476
0.0120574
0.0639318
0.0120315
0.0612427
0.0121108
0.0584466
0.01235
0.056129
0.00999458
0.053795
0.00993074
0.0514254
0.00997817
0.0489996
0.0101383
0.0464971
0.0103986
0.0438954
0.0107664
0.0411707
0.0112299
0.0382989
0.0117699
0.0352581
0.0123531
0.0320307
0.0129217
0.0286055
0.0133797
0.0249863
0.0135976
0.0211943
0.0134563
0.0173
0.012903
0.0135669
0.0120231
0.0102751
0.0111757
0.0073668
0.00974428
0.00493272
0.0066307
0.0023967
0.00219761
-0.0115656
-0.00217815
0.0694349
-0.0580446
-0.0582649
0.0784974
-0.0565713
0.0869092
-0.0367016
0.0940038
-0.0279631
0.099571
-0.0174899
0.103624
-0.00865486
0.106175
-0.00135465
0.107315
0.00466045
0.107184
0.00952271
0.105951
0.0140873
0.103698
0.0193378
0.100649
0.0205777
0.0973333
0.0184138
0.094098
0.0162623
0.0909834
0.0159942
0.0879428
0.0155523
0.084995
0.0151566
0.082132
0.0149204
0.0793071
0.0148564
0.0764717
0.0149462
0.0735762
0.0152455
0.0711908
0.01238
0.0687977
0.0123238
0.0663673
0.0124086
0.0638705
0.012635
0.0612803
0.0129889
0.0585679
0.0134787
0.0557037
0.0140941
0.0526566
0.014817
0.0493958
0.0156139
0.0458923
0.0164252
0.0421187
0.0171532
0.0380559
0.0176604
0.0336913
0.0178208
0.0290433
0.017551
0.0243479
0.0167184
0.0199452
0.0155782
0.0158571
0.0138324
0.0120656
0.0104221
0.00830017
0.005963
-0.00526445
0.00199889
0.079079
-0.0705619
-0.0665617
0.0893564
-0.0668486
0.0988743
-0.0462195
0.107134
-0.0362232
0.113927
-0.0242827
0.119212
-0.0139396
0.122972
-0.00511429
0.125232
0.00240043
0.126077
0.00867745
0.125653
0.0145114
0.124053
0.0209376
0.121406
0.0232244
0.118148
0.0216715
0.114684
0.0197267
0.111212
0.0194661
0.107757
0.0190069
0.104363
0.0185514
0.101063
0.0182202
0.0978464
0.0180727
0.0946846
0.018108
0.0915382
0.0183919
0.0889985
0.0149197
0.0865082
0.0148141
0.08403
0.0148867
0.0815265
0.0151385
0.0789619
0.0155534
0.0762991
0.0161416
0.0734982
0.0168949
0.0705167
0.0177985
0.0673085
0.018822
0.0638251
0.0199086
0.0600141
0.0209642
0.0558237
0.0218508
0.0512009
0.0224436
0.0461018
0.0226501
0.0406721
0.022148
0.035194
0.0210563
0.0297597
0.0192667
0.0243456
0.0158362
0.0189467
0.0113619
0.00251025
0.0111719
0.0898472
-0.0848027
-0.0756062
0.101683
-0.0786842
0.112549
-0.0570856
0.122083
-0.0457567
0.130146
-0.0323463
0.136704
-0.0204975
0.141742
-0.0101516
0.145249
-0.00110683
0.147265
0.00666199
0.147903
0.013873
0.147252
0.0215891
0.145348
0.0251277
0.142503
0.0245166
0.139109
0.0231205
0.135482
0.0230932
0.131739
0.0227498
0.127958
0.0223327
0.124212
0.0219668
0.120531
0.0217537
0.116917
0.0217211
0.11336
0.0219495
0.110519
0.0177602
0.107792
0.0175418
0.105146
0.0175328
0.102548
0.0177363
0.0999654
0.0181359
0.0973629
0.0187441
0.0947006
0.0195572
0.0919328
0.0205663
0.0890057
0.0217491
0.0858549
0.0230593
0.0824027
0.0244165
0.0785587
0.0256947
0.0742189
0.0267833
0.0692673
0.0276016
0.0637236
0.0276917
0.0577065
0.0270734
0.0512521
0.0257211
0.0443414
0.0227468
0.0370677
0.0186355
0.0116129
0.0279651
0.101941
-0.101235
-0.085509
0.115737
-0.0924805
0.128263
-0.069611
0.139259
-0.0567531
0.148686
-0.0417733
0.156561
-0.028372
0.162902
-0.0164931
0.167719
-0.00592371
0.171015
0.00336656
0.172893
0.0119943
0.173429
0.0210535
0.172577
0.0259795
0.170513
0.0265808
0.167564
0.0260691
0.164094
0.0265629
0.160304
0.02654
0.15632
0.0263169
0.152251
0.0260358
0.14817
0.0258345
0.144114
0.0257772
0.1401
0.0259632
0.136878
0.0209828
0.133804
0.0206152
0.130862
0.0204754
0.128029
0.0205687
0.125287
0.0208784
0.122613
0.0214183
0.119982
0.0221876
0.117365
0.0231834
0.114721
0.0243928
0.111996
0.0257844
0.109113
0.0272995
0.105969
0.0288387
0.102428
0.0303247
0.0983146
0.0317149
0.0935247
0.0324816
0.0879806
0.0326175
0.0815364
0.0321652
0.0740665
0.0302167
0.0655537
0.0271484
0.0217608
0.0554057
0.115613
-0.120423
-0.0964246
0.13185
-0.108717
0.146421
-0.0841822
0.159156
-0.0694883
0.170114
-0.0527307
0.179389
-0.0376467
0.187064
-0.024169
0.193204
-0.0120633
0.197812
-0.00124101
0.201009
0.00879721
0.20287
0.0191921
0.203292
0.0255574
0.202327
0.0275458
0.20021
0.0281866
0.197279
0.0294938
0.193775
0.0300439
0.189872
0.03022
0.185715
0.0301932
0.181416
0.0301328
0.177052
0.030142
0.17267
0.0303444
0.169091
0.0245618
0.165666
0.0240405
0.16239
0.0237516
0.159255
0.0237036
0.156254
0.0238791
0.153381
0.0242916
0.150628
0.0249403
0.147988
0.0258242
0.145445
0.0269358
0.142974
0.0282545
0.140533
0.0297408
0.138047
0.0313242
0.135402
0.03297
0.132424
0.0346926
0.128952
0.0359539
0.124781
0.036789
0.119598
0.0373479
0.113103
0.0367116
0.10505
0.0352014
0.0317446
0.0950661
0.131182
-0.143047
-0.108558
0.150436
-0.127971
0.167529
-0.101275
0.18237
-0.0843299
0.195115
-0.0654751
0.205944
-0.0484762
0.215026
-0.0332505
0.222495
-0.0195333
0.228411
-0.00715624
0.232921
0.00428709
0.236136
0.0159769
0.237931
0.0237622
0.238271
0.0272064
0.237299
0.0291585
0.235283
0.0315096
0.232446
0.0328806
0.228982
0.0336839
0.22506
0.0341153
0.220825
0.0343677
0.216389
0.0345778
0.211839
0.0348944
0.208022
0.0283788
0.204336
0.0277268
0.200792
0.0272955
0.197396
0.0271001
0.19415
0.027125
0.191058
0.0273833
0.188125
0.0278731
0.185357
0.0285928
0.182757
0.0295358
0.180325
0.030686
0.178051
0.0320143
0.175907
0.0334691
0.173826
0.0350501
0.171695
0.0368244
0.169382
0.0382665
0.166682
0.0394886
0.163263
0.0407676
0.158741
0.0412332
0.15275
0.0411923
0.0397949
0.1447
0.149046
-0.169922
-0.122171
0.172011
-0.150937
0.192208
-0.121472
0.209625
-0.101747
0.224511
-0.0803613
0.23714
-0.0611053
0.247771
-0.0438814
0.256629
-0.0283911
0.263848
-0.0143755
0.26963
-0.00149514
0.274146
0.0114608
0.277294
0.0206141
0.279001
0.0255
0.279351
0.0288085
0.278531
0.0323291
0.276708
0.0347039
0.274056
0.0363362
0.270742
0.0374289
0.266925
0.0381847
0.262742
0.038761
0.258312
0.0393242
0.254449
0.0322415
0.250666
0.03151
0.246995
0.0309662
0.243459
0.0306362
0.240073
0.0305113
0.236848
0.0306079
0.233796
0.030925
0.230929
0.0314601
0.228258
0.0322072
0.225792
0.033152
0.223535
0.0342707
0.221483
0.0355214
0.219607
0.0369264
0.217842
0.0385892
0.216123
0.0399852
0.214313
0.0412986
0.212174
0.0429064
0.209397
0.0440106
0.205696
0.0448935
0.0451363
0.200354
0.169699
-0.202028
-0.137593
0.197216
-0.178454
0.221228
-0.145484
0.241805
-0.122324
0.259296
-0.0978522
0.27407
-0.0758797
0.286485
-0.0562965
0.296863
-0.0387687
0.305428
-0.0229411
0.312463
-0.00852981
0.318203
0.00572082
0.322612
0.016205
0.325629
0.0224833
0.327323
0.0271144
0.327826
0.0318256
0.327243
0.0352871
0.325704
0.0378754
0.323349
0.039784
0.320322
0.0412113
0.316764
0.0423192
0.31281
0.043278
0.309156
0.035896
0.3055
0.035166
0.3019
0.0345658
0.2984
0.0341365
0.295031
0.0338803
0.291817
0.0338215
0.288778
0.0339641
0.285929
0.034309
0.283284
0.0348523
0.280853
0.0355828
0.278643
0.036481
0.276652
0.0375123
0.274862
0.0387159
0.27323
0.0402218
0.271726
0.0414891
0.270269
0.0427553
0.268717
0.0444589
0.266887
0.0458397
0.264645
0.0471355
0.048313
0.261469
0.193757
-0.24055
-0.155234
0.226844
-0.211541
0.255535
-0.174175
0.279993
-0.146782
0.300673
-0.118532
0.318049
-0.0932565
0.332586
-0.0708331
0.344709
-0.0508916
0.354746
-0.0329778
0.363066
-0.0168504
0.369984
-0.00119719
0.375553
0.0106358
0.379764
0.0182727
0.382712
0.0241669
0.384513
0.0300239
0.385236
0.0345639
0.384971
0.0381409
0.383818
0.0409365
0.381892
0.0431377
0.379311
0.0448998
0.376205
0.046384
0.373047
0.0390539
0.369785
0.0384279
0.3665
0.0378509
0.363255
0.0373812
0.360101
0.0370349
0.357075
0.036847
0.35421
0.0368295
0.351528
0.0369904
0.349049
0.0373319
0.346783
0.0378484
0.344738
0.0385267
0.34291
0.0393395
0.341285
0.0403414
0.339822
0.0416848
0.338506
0.042805
0.337281
0.04398
0.336051
0.0456888
0.334727
0.0471637
0.333258
0.048605
0.0501835
0.331387
0.221973
-0.286927
-0.175597
0.261866
-0.251434
0.296291
-0.2086
0.325512
-0.176004
0.350108
-0.143128
0.37067
-0.113819
0.38778
-0.0879429
0.401978
-0.0650897
0.413705
-0.044705
0.423426
-0.0265717
0.431549
-0.00931997
0.438221
0.00396376
0.443515
0.0129787
0.447581
0.020101
0.450559
0.0270453
0.452519
0.0326049
0.453531
0.0371282
0.453672
0.0407955
0.453023
0.0437868
0.451674
0.0462493
0.449727
0.0483302
0.447339
0.0414426
0.444742
0.0410245
0.442034
0.0405595
0.439292
0.0401228
0.436581
0.0397456
0.433954
0.0394745
0.431452
0.0393316
0.429109
0.0393335
0.42695
0.0394904
0.424994
0.0398044
0.423251
0.0402701
0.421722
0.0408679
0.420396
0.0416673
0.41924
0.0428411
0.418247
0.043798
0.417378
0.0448487
0.41656
0.0465069
0.415751
0.0479731
0.414925
0.0494307
0.0511388
0.41397
0.255245
-0.342896
-0.199276
0.303448
-0.299637
0.344894
-0.250046
0.379963
-0.211073
0.409373
-0.172538
0.433854
-0.138299
0.45412
-0.108209
0.470843
-0.0818123
0.484589
-0.058451
0.495928
-0.0379113
0.50537
-0.0187618
0.513167
-0.00383305
0.519488
0.00665794
0.524557
0.0150319
0.528566
0.0230357
0.531618
0.0295534
0.533798
0.0349477
0.53518
0.0394136
0.53583
0.0431365
0.535817
0.0462632
0.535215
0.0489321
0.53379
0.0428668
0.532078
0.0427367
0.530178
0.0424596
0.528176
0.0421253
0.526142
0.0417788
0.524139
0.041478
0.522215
0.0412556
0.520411
0.0411372
0.51876
0.0411417
0.517285
0.041279
0.516004
0.0415512
0.514926
0.0419459
0.514048
0.0425459
0.513347
0.0435414
0.51283
0.0443149
0.512474
0.0452046
0.512226
0.0467549
0.51207
0.0481296
0.511992
0.0495088
0.0512013
0.511929
0.267481
-0.404212
-0.206165
0.320334
-0.35249
0.365662
-0.295374
0.40393
-0.249341
0.435937
-0.204545
0.462491
-0.164853
0.484384
-0.130102
0.502359
-0.0997873
0.51706
-0.0731521
0.529113
-0.049964
0.539077
-0.0287262
0.547286
-0.0120416
0.553979
-3.5684e-05
0.55944
0.0095711
0.563904
0.0185718
0.567514
0.0259439
0.570384
0.0320775
0.572602
0.0371954
0.574238
0.0415009
0.57535
0.0451511
0.575996
0.0482861
0.575599
0.0432631
0.574904
0.0434317
0.573999
0.0433649
0.572961
0.0431637
0.571855
0.0428842
0.57074
0.0425936
0.569662
0.0423335
0.568662
0.0421374
0.567772
0.0420317
0.567018
0.0420331
0.566419
0.0421497
0.56599
0.0423749
0.565735
0.0428011
0.565644
0.0436319
0.565732
0.0442272
0.565991
0.044946
0.566389
0.0463569
0.566926
0.0475919
0.567601
0.0488336
0.050424
0.568379
0.27654
-0.470094
-0.210659
0.333361
-0.409311
0.382001
-0.344014
0.423001
-0.290341
0.457228
-0.238772
0.485553
-0.193178
0.508832
-0.153381
0.527868
-0.118823
0.543367
-0.0886515
0.556
-0.0625966
0.566366
-0.0390923
0.574861
-0.0205364
0.581784
-0.00695942
0.587459
0.00389672
0.592158
0.0138728
0.596061
0.0220401
0.599315
0.0288236
0.60203
0.0344812
0.604288
0.0392422
0.606157
0.0432825
0.60769
0.0467529
0.608069
0.0428845
0.608171
0.0433295
0.608073
0.0434626
0.607842
0.0433944
0.607536
0.0431901
0.607205
0.0429247
0.606892
0.0426468
0.606633
0.0423968
0.606457
0.0422073
0.60639
0.0421003
0.60645
0.042089
0.606654
0.042171
0.607009
0.0424458
0.607515
0.0431267
0.608186
0.0435562
0.609023
0.0441081
0.610011
0.045369
0.611157
0.0464462
0.612465
0.0475256
0.048972
0.613917
0.287731
-0.540969
-0.216855
0.348884
-0.470463
0.401166
-0.396297
0.445189
-0.334363
0.481888
-0.275471
0.512207
-0.223497
0.537066
-0.17824
0.55733
-0.139088
0.57377
-0.105091
0.587101
-0.0759275
0.597965
-0.0499565
0.606812
-0.0293838
0.613998
-0.0141449
0.619878
-0.00198367
0.624763
0.00898775
0.628869
0.0179349
0.632369
0.025323
0.635401
0.0314498
0.638067
0.0365762
0.640447
0.0409024
0.642603
0.0445969
0.64354
0.0419474
0.644233
0.0426365
0.64475
0.042946
0.645149
0.0429949
0.645482
0.0428571
0.645793
0.0426141
0.646118
0.0423211
0.646491
0.0420242
0.646937
0.0417609
0.647479
0.0415581
0.648136
0.0414327
0.648921
0.0413857
0.649845
0.0415219
0.65091
0.0420615
0.652132
0.0423348
0.653514
0.0427258
0.655049
0.0438343
0.656745
0.0447495
0.658611
0.0456603
0.0469471
0.660636
0.300883
-0.61729
-0.224563
0.366755
-0.536335
0.423022
-0.452564
0.470365
-0.381706
0.509795
-0.314902
0.542328
-0.25603
0.568957
-0.204869
0.590613
-0.160744
0.60813
-0.122609
0.622276
-0.0900734
0.633737
-0.0614171
0.643014
-0.0386613
0.650512
-0.0216427
0.656624
-0.00809497
0.66169
0.0039216
0.66596
0.0136646
0.669638
0.0216447
0.672885
0.0282027
0.675827
0.0336349
0.678559
0.0381702
0.681157
0.041999
0.682497
0.0406075
0.683626
0.0415067
0.684609
0.0419634
0.685498
0.0421057
0.68634
0.0420156
0.687172
0.0417814
0.688029
0.041464
0.688939
0.0411146
0.689924
0.0407756
0.691005
0.0404775
0.692197
0.0402407
0.693514
0.0400688
0.694965
0.0400706
0.696556
0.040471
0.698298
0.0405929
0.700196
0.0408269
0.702249
0.0417817
0.704464
0.0425347
0.706847
0.0432772
0.0444001
0.709394
0.315919
-0.699537
-0.233672
0.386924
-0.60734
0.447538
-0.513178
0.498514
-0.432681
0.540943
-0.35733
0.575919
-0.291006
0.604512
-0.233462
0.627724
-0.183957
0.646458
-0.141343
0.661536
-0.105151
0.673692
-0.0735732
0.68348
-0.048449
0.69135
-0.0295124
0.697731
-0.0144758
0.702995
-0.00134305
0.707425
0.00923467
0.711252
0.0178182
0.71466
0.0247944
0.717797
0.0304975
0.720779
0.0351884
0.723695
0.0390831
0.725324
0.0389782
0.726775
0.0400563
0.728107
0.040631
0.729373
0.04084
0.730614
0.0407742
0.731867
0.0405285
0.733161
0.0401698
0.734521
0.0397543
0.735968
0.0393287
0.737519
0.038927
0.739187
0.0385727
0.740984
0.0382719
0.742918
0.038136
0.744996
0.038393
0.747226
0.038363
0.749613
0.0384399
0.752157
0.0392375
0.754864
0.0398275
0.757739
0.0404022
0.0413592
0.76078
0.332817
-0.788227
-0.244127
0.409403
-0.683926
0.474754
-0.57853
0.529696
-0.487623
0.575408
-0.403042
0.613067
-0.328665
0.643827
-0.264221
0.668766
-0.208896
0.688859
-0.161436
0.704987
-0.12128
0.717938
-0.0865246
0.728318
-0.0588287
0.736623
-0.0378177
0.743319
-0.0211719
0.748812
-0.00683599
0.753414
0.00463341
0.757382
0.0138502
0.760926
0.0212503
0.764214
0.027209
0.767381
0.0320216
0.770532
0.0359319
0.77237
0.0371401
0.774055
0.0383716
0.775648
0.0390381
0.7772
0.0392882
0.778752
0.0392223
0.780338
0.0389425
0.781986
0.0385218
0.783718
0.0380219
0.785553
0.0374934
0.787506
0.0369741
0.789589
0.0364902
0.79181
0.0360503
0.794179
0.0357677
0.796699
0.0358724
0.799377
0.0356848
0.802217
0.0356003
0.80522
0.0362342
0.80839
0.0366575
0.81173
0.0370625
0.0378506
0.815239
0.351601
-0.88392
-0.255908
0.434253
-0.766578
0.504761
-0.649038
0.564029
-0.546891
0.613327
-0.45234
0.653926
-0.369265
0.687067
-0.297362
0.713911
-0.23574
0.735512
-0.183036
0.752814
-0.138582
0.766663
-0.100374
0.777719
-0.0698843
0.786526
-0.0466247
0.793587
-0.0282332
0.799344
-0.0125924
0.804137
-0.000159561
0.808252
0.00973477
0.811923
0.0175796
0.815338
0.0237939
0.81865
0.0287095
0.821981
0.0326008
0.823971
0.0351503
0.825827
0.0365159
0.827612
0.0372526
0.829379
0.0375211
0.831169
0.0374321
0.833016
0.0370955
0.834947
0.0365915
0.836982
0.0359867
0.839138
0.0353367
0.84143
0.0346825
0.843867
0.0340535
0.846456
0.0334607
0.849205
0.0330188
0.852119
0.0329585
0.8552
0.0326042
0.858449
0.0323505
0.861872
0.0328114
0.865468
0.0330614
0.869239
0.0332923
0.033906
0.873183
0.372327
-0.987224
-0.269023
0.461571
-0.855822
0.537692
-0.725158
0.601674
-0.610873
0.654888
-0.505554
0.698702
-0.413079
0.734454
-0.333114
0.763396
-0.264681
0.786661
-0.206302
0.805267
-0.157188
0.820122
-0.115228
0.83194
-0.0817028
0.841318
-0.0560022
0.848797
-0.0357127
0.854855
-0.0186508
0.859866
-0.00516998
0.864141
0.00545942
0.867938
0.0137826
0.871467
0.020265
0.874899
0.025278
0.878371
0.0291283
0.880471
0.0330505
0.88245
0.034537
0.884375
0.0353272
0.886301
0.0355949
0.888271
0.0354622
0.890319
0.035048
0.892471
0.0344395
0.894748
0.0337096
0.897166
0.0329183
0.899738
0.0321109
0.902471
0.0313196
0.905374
0.030558
0.908451
0.029942
0.911707
0.0297022
0.915142
0.0291696
0.918756
0.0287363
0.922555
0.0290128
0.926535
0.0290808
0.930697
0.0291307
0.0295628
0.93504
0.395077
-1.0988
-0.2835
0.491488
-0.952232
0.573716
-0.807387
0.642834
-0.679992
0.70032
-0.56304
0.747649
-0.460409
0.786262
-0.371727
0.817506
-0.295925
0.842605
-0.231401
0.862654
-0.177237
0.878627
-0.1312
0.891299
-0.0943755
0.901319
-0.0660222
0.909273
-0.0436658
0.915674
-0.025052
0.92093
-0.010426
0.925381
0.00100833
0.929309
0.00985472
0.932945
0.0166291
0.936478
0.0217446
0.940063
0.025543
0.942241
0.0308726
0.944305
0.0324729
0.946328
0.0333045
0.948367
0.0335561
0.950466
0.0333623
0.952663
0.0328515
0.954983
0.0321191
0.957449
0.0312444
0.960074
0.0302927
0.962872
0.0293133
0.965849
0.0283419
0.969013
0.0273948
0.972366
0.0265889
0.975914
0.0261537
0.979654
0.0254297
0.983585
0.0248051
0.987714
0.0248844
0.992035
0.0247601
0.996545
0.0246203
0.024862
1.00125
0.419955
-1.21937
-0.299384
0.524159
-1.05644
0.613036
-0.896264
0.687751
-0.754707
0.749898
-0.625186
0.801066
-0.511577
0.842809
-0.41347
0.876579
-0.329695
0.903696
-0.258519
0.925337
-0.198878
0.942549
-0.148412
0.956173
-0.108
0.966911
-0.0767609
0.975396
-0.0521508
0.982184
-0.0318392
0.987715
-0.015957
0.992359
-0.00363631
0.996425
0.00578946
1.00016
0.01289
1.00378
0.0181235
1.00746
0.0218689
1.00969
0.0286435
1.0118
0.0303559
1.01389
0.0312216
1.016
0.0314457
1.01818
0.0311763
1.02048
0.0305526
1.02292
0.0296786
1.02553
0.0286409
1.02831
0.0275103
1.03128
0.0263408
1.03445
0.0251716
1.03782
0.0240221
1.0414
0.02301
1.04519
0.0223633
1.04919
0.0214339
1.05339
0.0206052
1.0578
0.0204737
1.06242
0.0201455
1.06723
0.0198061
0.0198474
1.07224
0.447089
-1.34973
-0.316735
0.559771
-1.16912
0.655887
-0.99238
0.736702
-0.835521
0.803933
-0.692417
0.859297
-0.566941
0.904466
-0.458638
0.941005
-0.366234
0.970338
-0.287852
0.993732
-0.222272
1.01231
-0.166994
1.02699
-0.122679
1.03853
-0.0882992
1.04761
-0.0612292
1.05483
-0.0390576
1.06067
-0.0217937
1.06552
-0.00849281
1.06973
0.00158008
1.07357
0.00905149
1.07727
0.0144281
1.08101
0.018129
1.08326
0.0263879
1.0854
0.028216
1.08751
0.0291131
1.08965
0.029302
1.09188
0.0289459
1.09424
0.0281954
1.09675
0.0271644
1.09945
0.0259471
1.10234
0.0246205
1.10544
0.0232436
1.10875
0.0218595
1.11228
0.0204911
1.11603
0.0192566
1.12001
0.0183822
1.12421
0.0172332
1.12863
0.016187
1.13327
0.0158306
1.13813
0.0152864
1.1432
0.0147366
0.0145668
1.14848
0.476622
-1.49072
-0.335624
0.598534
-1.29103
0.702536
-1.09638
0.790001
-0.922986
0.862782
-0.765198
0.922729
-0.626889
0.971647
-0.507556
1.01122
-0.405809
1.04299
-0.31962
1.06831
-0.247596
1.08841
-0.187088
1.10425
-0.138527
1.11668
-0.100724
1.12642
-0.0709668
1.13411
-0.0467546
1.14029
-0.027968
1.14537
-0.0135791
1.14973
-0.00277952
1.15367
0.00511838
1.15742
0.0106735
1.1612
0.0143477
1.16346
0.0241311
1.16559
0.0260838
1.16769
0.027014
1.16983
0.027164
1.17206
0.0267132
1.17443
0.0258249
1.17697
0.0246237
1.17971
0.023212
1.18266
0.0216738
1.18583
0.0200733
1.18923
0.0184583
1.19286
0.0168549
1.19674
0.0153823
1.20086
0.0142643
1.20521
0.0128814
1.20979
0.0116043
1.21461
0.0110087
1.21966
0.010236
1.22493
0.00946452
0.00907227
1.23043
0.508723
-1.64331
-0.356136
0.640686
-1.42299
0.753283
-1.20898
0.848002
-1.01771
0.926842
-0.844039
0.991801
-0.691848
1.04482
-0.560577
1.08773
-0.448712
1.12217
-0.354061
1.14961
-0.275043
1.17137
-0.208848
1.18851
-0.155664
1.20192
-0.11413
1.21238
-0.0814336
1.22061
-0.0549802
1.22715
-0.0345126
1.23249
-0.0189129
1.237
-0.00729381
1.24102
0.00109829
1.24482
0.00687789
1.24861
0.0105535
1.25084
0.0219008
1.25293
0.0239923
1.25499
0.0249621
1.25708
0.0250733
1.25927
0.0245231
1.2616
0.0234889
1.26412
0.0221065
1.26684
0.0204878
1.26979
0.018724
1.27298
0.0168854
1.27642
0.0150242
1.2801
0.0131709
1.28404
0.0114451
1.28823
0.010068
1.29268
0.00843726
1.29737
0.00691584
1.30231
0.00606699
1.30749
0.0050531
1.31291
0.00404849
0.00342239
1.31856
0.543576
-1.80852
-0.378364
0.686493
-1.56591
0.808463
-1.33095
0.9111
-1.12034
0.996562
-0.929501
1.067
-0.762288
1.12452
-0.618092
1.17107
-0.495264
1.20844
-0.391437
1.23823
-0.304826
1.26182
-0.232446
1.28039
-0.174225
1.29488
-0.12862
1.30615
-0.0927055
1.31495
-0.0637876
1.3219
-0.0414609
1.3275
-0.0245107
1.33217
-0.0119647
1.33627
-0.00299763
1.34008
0.00306455
1.34385
0.00678052
1.34603
0.0197287
1.34804
0.0219789
1.35
0.0229995
1.352
0.0230762
1.3541
0.0224258
1.35634
0.0212404
1.35878
0.0196687
1.36144
0.0178325
1.36433
0.015831
1.36748
0.0137409
1.37088
0.0116199
1.37455
0.00950262
1.37848
0.00750943
1.38269
0.00585865
1.38716
0.00396664
1.39189
0.00218803
1.39689
0.0010721
1.40213
-0.000195399
1.40763
-0.00144461
-0.00231599
1.41337
0.581389
-1.9875
-0.402414
0.736253
-1.72077
0.868452
-1.46315
0.979737
-1.23163
1.07244
-1.0222
1.14887
-0.838726
1.21131
-0.680532
1.26187
-0.54582
1.30247
-0.432038
1.33482
-0.337179
1.36044
-0.258067
1.38058
-0.194356
1.39626
-0.144304
1.40842
-0.104864
1.41786
-0.0732332
1.42525
-0.0488478
1.43113
-0.0303883
1.43595
-0.0167909
1.44011
-0.0071535
1.44391
-0.000737101
1.44762
0.00307063
1.4497
0.0176522
1.45159
0.0200874
1.45341
0.0211752
1.45526
0.0212263
1.45721
0.0204783
1.45931
0.01914
1.46161
0.0173735
1.46413
0.0153117
1.4669
0.0130626
1.46993
0.0107098
1.47323
0.00831671
1.47681
0.00592272
1.48067
0.00364908
1.48482
0.00171087
1.48924
-0.000455061
1.49393
-0.00250317
1.4989
-0.00389945
1.50414
-0.00543257
1.50963
-0.00693747
-0.00806531
1.51538
0.622391
-2.18149
-0.428401
0.790293
-1.88868
0.933665
-1.60652
1.0544
-1.35236
1.15502
-1.12282
1.23803
-0.921734
1.30587
-0.74837
1.36082
-0.600772
1.40496
-0.476184
1.44014
-0.372359
1.468
-0.285918
1.48986
-0.216219
1.50686
-0.161305
1.51999
-0.117999
1.53014
-0.0833775
1.538
-0.0567089
1.54417
-0.0365598
1.54915
-0.0217677
1.55334
-0.0113474
1.55709
-0.00449
1.56069
-0.000524947
1.56263
0.015716
1.56434
0.0183691
1.56597
0.0195464
1.56761
0.0195859
1.56934
0.0187475
1.57123
0.0172581
1.5733
0.0152946
1.57561
0.0130019
1.57818
0.0104975
1.58102
0.00787268
1.58414
0.00519708
1.58754
0.00251531
1.59124
-5.05016e-05
1.59524
-0.00228869
1.59953
-0.00474014
1.60409
-0.00706912
1.60895
-0.00875827
1.61409
-0.0105683
1.61949
-0.0123395
-0.0137345
1.62516
0.666835
-2.39187
-0.456451
0.848978
-2.07082
1.00456
-1.7621
1.13564
-1.48344
1.24493
-1.23211
1.33513
-1.01194
1.4089
-0.822133
1.46868
-0.660553
1.51672
-0.52423
1.55502
-0.410654
1.58533
-0.316226
1.6091
-0.23999
1.62755
-0.179758
1.64176
-0.132206
1.65267
-0.0942853
1.66104
-0.065081
1.66752
-0.0430375
1.67263
-0.0268855
1.67684
-0.0155505
1.6805
-0.0081476
1.68391
-0.00394343
1.68566
0.0139739
1.68714
0.0168855
1.6885
0.0181812
1.68986
0.0182283
1.6913
0.0173115
1.69288
0.0156771
1.69466
0.0135181
1.69666
0.0109924
1.69893
0.00822781
1.70148
0.00532418
1.70432
0.00235778
1.70746
-0.00062102
1.7109
-0.00348903
1.71465
-0.0060383
1.71869
-0.00878556
1.72303
-0.0114056
1.72767
-0.0133991
1.7326
-0.0154966
1.7378
-0.0175437
-0.0192157
1.74328
0.715
-2.62017
-0.486703
0.912711
-2.26853
1.08165
-1.93104
1.22405
-1.62584
1.34284
-1.3509
1.44095
-1.11005
1.52122
-0.902403
1.58631
-0.725645
1.63865
-0.576568
1.68037
-0.452381
1.71339
-0.349246
1.73927
-0.265867
1.75932
-0.19981
1.77471
-0.147592
1.78645
-0.106026
1.79537
-0.0740019
1.80216
-0.0498311
1.80741
-0.0321295
1.81158
-0.0197254
1.81509
-0.0116523
1.81825
-0.00710847
1.81974
0.0124901
1.82091
0.0157094
1.82193
0.0171599
1.82292
0.0172405
1.82397
0.0162629
1.82515
0.0144942
1.82653
0.0121454
1.82813
0.00938829
1.83
0.006362
1.83214
0.00317557
1.83459
-8.7322e-05
1.83734
-0.00337009
1.8404
-0.00654829
1.84378
-0.00941788
1.84746
-0.0124695
1.85144
-0.0153893
1.85574
-0.0176973
1.86034
-0.0200914
1.86522
-0.022423
-0.024381
1.87038
0.76719
-2.86806
-0.519303
0.981937
-2.48328
1.1655
-2.11461
1.32031
-1.78064
1.44952
-1.48011
1.5563
-1.21683
1.64372
-0.989826
1.71466
-0.796581
1.77173
-0.633637
1.81724
-0.497893
1.85325
-0.385256
1.88145
-0.294069
1.90327
-0.221625
1.91995
-0.164273
1.9326
-0.118675
1.9421
-0.0835106
1.94922
-0.0569478
1.95457
-0.0374779
1.95867
-0.0238246
1.96195
-0.0149328
1.96477
-0.00992688
1.96592
0.0113422
1.9667
0.0149283
1.96728
0.0165783
1.96779
0.0167258
1.96834
0.0157112
1.96901
0.0138249
1.96986
0.0112968
1.97094
0.00831411
1.97227
0.00502836
1.97389
0.00155856
1.9758
-0.0020035
1.97803
-0.00559443
1.98057
-0.00908835
1.98344
-0.0122853
1.98661
-0.0156479
1.9901
-0.0188743
1.99391
-0.0215052
1.99802
-0.0242034
2.00242
-0.0268265
-0.0290779
2.00712
0.823744
-3.13739
-0.55441
1.05715
-2.71668
1.25674
-2.31421
1.42515
-1.94905
1.56581
-1.62076
1.68212
-1.33314
1.77742
-1.08512
1.85479
-0.873957
1.91708
-0.695921
1.96677
-0.547583
2.00608
-0.424571
2.03685
-0.324836
2.06061
-0.245385
2.07871
-0.182377
2.09235
-0.132314
2.10249
-0.093647
2.10993
-0.064391
2.11535
-0.0429018
2.11932
-0.0277895
2.12229
-0.0179032
2.12465
-0.0122872
2.12537
0.0106218
2.12565
0.0146452
2.12568
0.0165495
2.1256
0.0168055
2.12553