/*--------------------------------*- C++ -*----------------------------------*\
| =========                 |                                                 |
| \\      /  F ield         | OpenFOAM: The Open Source CFD Toolbox           |
|  \\    /   O peration     | Version:  5.x                                   |
|   \\  /    A nd           | Web:      www.OpenFOAM.org                      |
|    \\/     M anipulation  |                                                 |
\*---------------------------------------------------------------------------*/
FoamFile
{
    version     2.0;
    format      ascii;
    class       volVectorField;
    location    "150";
    object      U;
}
// * * * * * * * * * * * * * * * * * * * * * * * * * * * * * * * * * * * * * //

dimensions      [0 1 -1 0 0 0 0];

internalField   nonuniform List<vector> 
11040
(
(-2.56946 16.5286 0)
(-0.0725311 20.7865 -1.2554e-19)
(4.35781 23.4746 1.22782e-17)
(8.61748 23.1245 1.4395e-17)
(12.0471 21.3591 3.18559e-17)
(14.571 18.8947 -1.57133e-17)
(16.2729 16.1499 -1.56602e-17)
(17.2856 13.39 1.59926e-17)
(17.7394 10.7827 3.64011e-17)
(17.7024 8.38971 1.18737e-18)
(16.9455 6.02132 1.79676e-17)
(15.7657 4.06125 -9.70525e-19)
(14.7886 2.83427 1.55186e-17)
(14.2417 2.16875 1.46936e-17)
(13.7628 1.63905 1.17085e-17)
(13.1491 1.12598 6.90299e-18)
(12.4216 0.662948 -5.41499e-18)
(11.6465 0.268793 -4.4555e-19)
(10.8429 -0.06019 4.65014e-19)
(10.0079 -0.328075 2.4463e-18)
(9.13288 -0.53684 1.61401e-18)
(8.3312 -0.6681 9.03597e-19)
(7.60402 -0.743059 2.15171e-19)
(6.87065 -0.784511 -1.25842e-19)
(6.12792 -0.795469 -5.15063e-20)
(5.37493 -0.777203 1.75795e-19)
(4.6124 -0.729522 -1.53148e-17)
(3.84986 -0.656297 3.4316e-19)
(3.08446 -0.566542 -2.66178e-17)
(2.30425 -0.46052 3.3754e-17)
(1.51981 -0.333841 6.97254e-19)
(0.774769 -0.192433 5.1425e-19)
(0.115388 -0.0505318 -6.44102e-19)
(-0.445021 0.0765926 0)
(-0.83692 0.180256 1.69339e-16)
(-1.17421 0.295399 0)
(-1.65646 0.455114 0)
(-2.31911 0.607921 -1.89815e-19)
(-2.90127 0.601372 2.19566e-19)
(-2.98655 0.220633 -7.93672e-17)
(-1.87139 -0.35348 -1.02422e-16)
(0.103988 16.1032 0)
(2.95239 19.3206 0)
(8.28322 20.7756 -7.19244e-18)
(12.9487 20.2621 7.85282e-18)
(16.4392 18.9145 -1.96227e-17)
(19.0192 17.3506 2.06881e-17)
(20.8567 15.586 1.00162e-17)
(22.0163 13.6503 1.32298e-18)
(22.5788 11.6161 -7.69055e-19)
(22.6453 9.57978 1.13791e-17)
(22.1488 7.45545 -1.28445e-18)
(20.976 5.59435 0)
(19.5414 4.24933 0)
(18.2912 3.29449 -7.69457e-18)
(17.275 2.45329 -7.82338e-18)
(16.3106 1.72796 -5.3863e-18)
(15.3473 1.13042 0)
(14.3878 0.636259 2.492e-19)
(13.4233 0.226385 -6.73454e-19)
(12.4418 -0.106779 -3.25645e-19)
(11.4326 -0.367757 -9.92829e-19)
(10.5085 -0.542222 -4.79613e-19)
(9.68689 -0.651621 1.68888e-20)
(8.86953 -0.721284 -7.60878e-19)
(8.04853 -0.755185 1.48167e-18)
(7.21876 -0.756152 1.65545e-19)
(6.37543 -0.726852 7.0592e-18)
(5.51187 -0.670201 -1.53204e-19)
(4.62926 -0.589442 1.14133e-17)
(3.73748 -0.486905 -1.37193e-17)
(2.84711 -0.367354 -1.69758e-17)
(1.9721 -0.238022 2.10198e-17)
(1.14139 -0.106072 1.4172e-20)
(0.400254 0.0188379 -7.05708e-19)
(-0.194452 0.128013 -3.42123e-17)
(-0.728673 0.256378 0)
(-1.34049 0.435266 -2.2896e-19)
(-1.91102 0.60558 5.07029e-17)
(-2.15559 0.693817 4.67372e-17)
(-1.79483 0.386856 4.28745e-17)
(-1.37727 -0.593235 7.29213e-17)
(1.49759 15.5602 0)
(4.17659 18.0169 0)
(7.95921 19.4239 1.97006e-18)
(11.5869 19.6137 -5.59862e-18)
(14.6023 18.8829 5.97851e-18)
(17.1255 17.5846 -7.59061e-18)
(19.1936 15.9373 -6.15392e-18)
(20.7764 14.0914 0)
(21.8669 12.1512 -9.9692e-18)
(22.4968 10.1939 -5.90871e-18)
(22.6375 8.1668 0)
(22.1474 6.35943 0)
(21.2333 4.9638 -6.16833e-18)
(20.2381 3.89542 -5.59821e-18)
(19.264 2.9425 -5.94974e-19)
(18.2571 2.11649 6.14565e-19)
(17.2176 1.42821 0)
(16.1736 0.856074 0)
(15.1294 0.381857 1.62235e-19)
(14.0751 -0.00381888 -1.97262e-19)
(12.9986 -0.307157 2.01088e-19)
(12.0155 -0.518024 -3.03453e-19)
(11.1432 -0.65173 -7.49654e-20)
(10.2799 -0.739526 -4.08178e-19)
(9.41756 -0.787307 -6.56639e-20)
(8.5504 -0.798836 -1.06335e-19)
(7.67278 -0.777539 -6.66439e-20)
(6.77916 -0.726516 1.69664e-19)
(5.86729 -0.64894 0)
(4.93961 -0.54852 0)
(4.00336 -0.431279 2.02275e-17)
(3.07208 -0.304693 -2.3296e-17)
(2.16966 -0.177328 1.3353e-17)
(1.33307 -0.058503 0)
(0.609911 0.0528067 1.82188e-17)
(-0.0183853 0.185614 2.00743e-17)
(-0.63059 0.34908 0)
(-1.13603 0.449749 1.77589e-19)
(-1.36843 0.450399 -1.29364e-19)
(-1.13181 0.101234 0)
(-1.30213 -0.949012 -3.419e-17)
(2.87457 14.9159 3.60663e-20)
(5.37715 16.8411 -3.31861e-20)
(8.32974 18.0211 5.8033e-19)
(11.4761 18.3236 0)
(14.3007 17.8076 -7.02572e-18)
(16.6759 16.7614 0)
(18.6141 15.3726 1.39217e-17)
(20.1141 13.7593 -4.37188e-20)
(21.1897 12.0244 1.39941e-18)
(21.8804 10.2536 9.38956e-18)
(22.1936 8.42402 1.38481e-18)
(22.0379 6.73214 3.82289e-18)
(21.5125 5.36733 1.08901e-17)
(20.8517 4.30073 4.4263e-18)
(20.1466 3.34977 0)
(19.3475 2.49622 -8.12881e-19)
(18.4468 1.75809 1.43424e-19)
(17.4814 1.12965 -5.50364e-19)
(16.4746 0.599833 -2.18771e-19)
(15.4322 0.162355 2.22894e-19)
(14.3523 -0.186707 4.81506e-19)
(13.3575 -0.433026 2.73079e-19)
(12.4694 -0.593485 0)
(11.5881 -0.703617 7.91253e-19)
(10.7074 -0.769893 -8.96641e-19)
(9.82272 -0.796538 1.28168e-18)
(8.92879 -0.787451 -3.486e-18)
(8.02065 -0.746115 0)
(7.09498 -0.676144 0)
(6.15115 -0.582 0)
(5.19233 -0.470126 -7.27671e-18)
(4.22732 -0.3488 8.5654e-18)
(3.2735 -0.227465 -2.9489e-19)
(2.35878 -0.115374 -1.09483e-17)
(1.52523 -0.00737822 -1.15856e-17)
(0.801291 0.122084 -1.35813e-17)
(0.160901 0.268308 -2.84989e-17)
(-0.354897 0.329162 -2.74205e-17)
(-0.67893 0.287965 -1.04153e-19)
(-0.577094 -0.0624821 -2.33019e-17)
(-1.18703 -1.1087 1.39493e-17)
(4.23171 14.1818 0)
(6.4412 15.6917 -4.00749e-20)
(8.80207 16.6549 -3.52198e-19)
(11.39 17.059 2.17892e-19)
(13.8563 16.8319 5.15003e-18)
(16.0343 16.1066 -5.61015e-18)
(17.9004 14.9991 -1.33881e-18)
(19.4102 13.6085 -7.17819e-18)
(20.5339 12.0428 0)
(21.2881 10.3993 -8.66089e-18)
(21.6893 8.68915 0)
(21.6912 7.0643 -2.18013e-18)
(21.3592 5.705 -5.75115e-18)
(20.8776 4.62296 0)
(20.353 3.67539 3.04891e-18)
(19.7536 2.82019 0)
(19.0507 2.06792 0)
(18.2585 1.41569 5.69332e-19)
(17.3929 0.854324 4.6323e-19)
(16.4606 0.379996 0)
(15.4633 -0.00730203 -3.91201e-19)
(14.5239 -0.287353 0)
(13.6705 -0.475807 0)
(12.8138 -0.610529 -2.83268e-19)
(11.9512 -0.69805 0)
(11.0801 -0.742867 9.9124e-19)
(10.1967 -0.749157 2.69718e-18)
(9.29737 -0.720797 0)
(8.3788 -0.661833 0)
(7.43935 -0.577245 0)
(6.47961 -0.473992 5.91669e-18)
(5.50368 -0.361037 5.71284e-18)
(4.52178 -0.24829 -6.8758e-18)
(3.55206 -0.145355 -2.44502e-19)
(2.62609 -0.0474444 2.73162e-19)
(1.79526 0.0688349 0)
(1.08373 0.193575 2.11538e-17)
(0.513627 0.229783 -2.22888e-17)
(0.0507808 0.163404 2.3313e-17)
(-0.00231816 -0.150493 2.15054e-17)
(-0.886702 -1.13651 2.51179e-20)
(5.48126 13.3895 -9.17604e-20)
(7.37828 14.5697 5.0586e-20)
(9.29822 15.347 -5.71135e-21)
(11.4026 15.7832 2.17532e-19)
(13.5129 15.7522 -8.28164e-19)
(15.4682 15.2892 5.47752e-18)
(17.2158 14.4635 -6.76851e-18)
(18.6975 13.3392 5.8443e-18)
(19.8582 12.0004 2.87017e-18)
(20.6867 10.5351 -1.47745e-18)
(21.1883 8.97208 0)
(21.3281 7.43089 0)
(21.1414 6.07578 1.34004e-18)
(20.7712 4.95773 -1.41479e-18)
(20.3353 3.98931 -4.83683e-18)
(19.841 3.12387 1.01448e-18)
(19.2673 2.36057 -1.92794e-18)
(18.6183 1.69541 1.03301e-19)
(17.9009 1.11768 -5.70238e-19)
(17.1144 0.621858 9.8702e-19)
(16.254 0.208684 -8.44196e-19)
(15.4263 -0.0977726 1.83712e-19)
(14.6596 -0.310488 -5.53876e-20)
(13.8778 -0.46843 8.91802e-20)
(13.0804 -0.577646 -5.96339e-19)
(12.2663 -0.642354 -1.2738e-20)
(11.4336 -0.666536 -2.47267e-18)
(10.5794 -0.654097 -2.39276e-18)
(9.70136 -0.60926 0)
(8.79753 -0.537294 0)
(7.86712 -0.445465 -4.09448e-18)
(6.91095 -0.343112 -1.01084e-17)
(5.93319 -0.240548 -3.47976e-19)
(4.94289 -0.147945 6.07674e-18)
(3.95841 -0.0636685 7.15235e-18)
(3.03126 0.031108 -7.68581e-18)
(2.21796 0.128012 2.53086e-19)
(1.55113 0.145733 3.48036e-17)
(0.948866 0.0603074 -3.73919e-17)
(0.680611 -0.199342 7.6971e-20)
(-0.311461 -1.05946 1.2898e-17)
(6.60595 12.5666 0)
(8.21104 13.4848 -1.58159e-19)
(9.78745 14.1092 -4.58635e-20)
(11.4944 14.5282 1.30839e-19)
(13.2603 14.6186 1.16618e-18)
(14.965 14.363 1.98418e-18)
(16.5523 13.7883 -4.46206e-18)
(17.9624 12.9265 1.69081e-18)
(19.1288 11.8344 0)
(20.0195 10.5816 2.15137e-18)
(20.6261 9.20194 -4.29281e-18)
(20.912 7.78606 4.31714e-18)
(20.8814 6.47204 -1.77496e-19)
(20.6313 5.33527 0)
(20.2725 4.34152 1.04703e-18)
(19.8442 3.45622 1.22579e-19)
(19.3437 2.67296 8.21889e-19)
(18.7776 1.98907 6.56993e-19)
(18.1565 1.39465 -2.57332e-19)
(17.4814 0.882066 -2.78484e-19)
(16.7457 0.450151 4.05703e-19)
(16.0364 0.124577 2.10124e-19)
(15.3759 -0.106379 0)
(14.698 -0.28294 1.43621e-19)
(14.0012 -0.41094 5.23191e-19)
(13.284 -0.494304 -7.23544e-19)
(12.544 -0.53663 6.66348e-19)
(11.7785 -0.541553 2.18415e-18)
(10.9846 -0.513147 -3.44845e-19)
(10.1598 -0.456607 -3.87287e-20)
(9.30171 -0.379062 -2.55271e-18)
(8.40855 -0.289758 -9.20637e-19)
(7.47984 -0.199108 -3.70641e-18)
(6.51744 -0.117632 0)
(5.5274 -0.0479173 -5.13907e-18)
(4.54641 0.0212625 6.01263e-18)
(3.63577 0.084435 -6.3822e-18)
(2.84685 0.0827625 -2.68893e-17)
(2.1043 -0.0178788 1.45112e-17)
(1.59693 -0.230737 6.44817e-20)
(0.565704 -0.912255 -2.7586e-17)
(7.60018 11.7356 5.99687e-19)
(8.94889 12.447 -1.63125e-19)
(10.2511 12.9467 -1.54973e-19)
(11.6389 13.3218 -2.95482e-19)
(13.0947 13.4735 -8.22079e-19)
(14.5437 13.3655 -2.44662e-18)
(15.9412 12.997 2.61145e-18)
(17.2363 12.3748 3.56302e-18)
(18.3643 11.5283 -2.53881e-18)
(19.2827 10.5045 0)
(19.973 9.33294 -1.5443e-18)
(20.3948 8.07993 2.95366e-20)
(20.5264 6.85335 -6.34241e-20)
(20.4204 5.73466 1.45752e-18)
(20.1647 4.73101 1.34841e-18)
(19.8126 3.83007 -1.40001e-18)
(19.3783 3.02619 0)
(18.8735 2.31883 0)
(18.3136 1.70235 9.30091e-19)
(17.7071 1.16973 -7.81521e-19)
(17.0538 0.7187 1.02425e-19)
(16.4307 0.375787 -2.21175e-19)
(15.8564 0.129242 -2.02277e-20)
(15.2723 -0.0626661 0)
(14.6762 -0.206011 2.07844e-19)
(14.0657 -0.304957 -2.12677e-19)
(13.4378 -0.363133 -6.9864e-19)
(12.7887 -0.384099 0)
(12.1143 -0.371805 0)
(11.4102 -0.331234 3.12252e-19)
(10.6716 -0.269115 2.73522e-18)
(9.89351 -0.194206 2.64065e-18)
(9.0707 -0.116585 6.12704e-18)
(8.19892 -0.0466637 4.37889e-19)
(7.27445 0.0094234 0)
(6.31482 0.0544173 -2.65891e-19)
(5.3632 0.0828295 4.9081e-18)
(4.4727 0.0577995 -4.04766e-20)
(3.60257 -0.054784 1.1406e-17)
(2.87752 -0.24048 1.24332e-17)
(1.77835 -0.732282 1.38316e-17)
(8.46751 10.9159 -3.66948e-19)
(9.59822 11.4653 -3.81818e-21)
(10.6784 11.8632 3.07128e-19)
(11.8112 12.1842 -4.42743e-19)
(13.0015 12.3553 0)
(14.2092 12.3405 7.71277e-19)
(15.4064 12.1261 -1.44748e-18)
(16.5559 11.7035 -2.1508e-18)
(17.6037 11.0814 1.57255e-18)
(18.507 10.2845 2.04934e-18)
(19.2424 9.33241 1.26557e-19)
(19.7681 8.26917 -4.19594e-18)
(20.0462 7.17264 0)
(20.0924 6.11626 9.54674e-19)
(19.9645 5.13238 -2.23239e-18)
(19.7134 4.23238 -9.35571e-19)
(19.3631 3.41776 -8.18742e-19)
(18.9295 2.69131 8.47453e-19)
(18.4302 2.05223 -3.04831e-19)
(17.8792 1.49655 0)
(17.2833 1.02331 3.23945e-19)
(16.717 0.660896 -4.34012e-19)
(16.1996 0.397307 -2.69253e-20)
(15.6799 0.189409 -7.79604e-20)
(15.1577 0.0309396 3.3604e-19)
(14.6319 -0.0826946 -3.43332e-19)
(14.1004 -0.155435 0)
(13.5602 -0.191026 1.74129e-18)
(13.0072 -0.193489 8.06905e-19)
(12.4367 -0.167701 4.44505e-19)
(11.8422 -0.120003 -2.09422e-18)
(11.2161 -0.0585395 -5.98929e-19)
(10.549 0.00715568 5.80579e-19)
(9.83072 0.0670115 -3.4673e-19)
(9.04956 0.112672 -2.19065e-18)
(8.20592 0.140192 -3.91083e-19)
(7.3164 0.14156 0)
(6.41317 0.0941088 7.59287e-18)
(5.47654 -0.0277644 -8.36453e-18)
(4.60356 -0.207002 -9.19149e-18)
(3.41695 -0.547205 0)
(9.21596 10.1233 0)
(10.1643 10.5464 0)
(11.0633 10.8611 0)
(11.9919 11.1271 1.32241e-18)
(12.9623 11.2921 -4.13535e-19)
(13.9556 11.328 5.28928e-20)
(14.9588 11.2183 -1.6913e-19)
(15.9485 10.9481 -2.92861e-19)
(16.8852 10.5139 8.76219e-19)
(17.733 9.92336 1.30228e-18)
(18.4691 9.18484 -1.28027e-18)
(19.0546 8.32277 1.71153e-18)
(19.4442 7.38739 -1.52933e-19)
(19.6287 6.4358 1.60746e-18)
(19.6364 5.50929 -2.87793e-18)
(19.5045 4.63669 2.28926e-18)
(19.2581 3.83001 1.21462e-18)
(18.9148 3.09715 -1.25462e-18)
(18.4924 2.44266 4.74492e-19)
(18.0073 1.86675 0)
(17.4701 1.37089 4.0971e-19)
(16.9536 0.987231 -3.07976e-19)
(16.4797 0.70444 4.59293e-20)
(16.0053 0.478221 -1.0277e-19)
(15.5326 0.302322 3.83088e-19)
(15.0632 0.171899 0)
(14.5973 0.082782 0)
(14.1345 0.0310825 -5.1862e-19)
(13.6733 0.0127415 -3.21625e-18)
(13.2109 0.0230447 -1.47724e-18)
(12.7427 0.0561247 1.68717e-18)
(12.2619 0.104616 4.70616e-19)
(11.7587 0.159778 -2.47162e-18)
(11.2206 0.212094 -5.36578e-19)
(10.6313 0.25219 3.37055e-18)
(9.97943 0.272212 -5.87743e-19)
(9.25929 0.261898 -2.5258e-18)
(8.47519 0.204891 3.38691e-19)
(7.59987 0.0839474 5.52172e-18)
(6.71507 -0.0893163 0)
(5.50551 -0.344359 0)
(9.85601 9.37005 0)
(10.6525 9.69501 0)
(11.403 9.94174 -1.40499e-19)
(12.1672 10.1567 -1.20784e-18)
(12.9584 10.3026 0)
(13.7693 10.3598 -5.36623e-19)
(14.5966 10.3145 2.22951e-19)
(15.4281 10.1517 0)
(16.2378 9.8618 -1.17885e-18)
(16.9998 9.44311 1.6942e-19)
(17.6961 8.89552 -2.74907e-19)
(18.2942 8.22805 9.58268e-19)
(18.75 7.46785 -1.19432e-18)
(19.0404 6.65292 0)
(19.1713 5.821 -1.78098e-18)
(19.1615 5.00798 2.08578e-18)
(19.0297 4.23478 0)
(18.7917 3.51533 0)
(18.4636 2.85961 2.56008e-19)
(18.0613 2.27283 -1.04176e-18)
(17.5971 1.75968 4.33264e-19)
(17.1392 1.35687 0)
(16.7121 1.05495 8.49624e-20)
(16.2814 0.809395 1.73119e-19)
(15.851 0.614225 -2.70362e-19)
(15.4245 0.46458 2.71463e-19)
(15.0043 0.356207 0)
(14.5923 0.285167 0)
(14.1896 0.247456 -5.28281e-19)
(13.7966 0.238637 2.37693e-18)
(13.412 0.253471 -1.31392e-18)
(13.0329 0.285627 1.37649e-18)
(12.6532 0.327618 7.5232e-19)
(12.2636 0.371102 0)
(11.8497 0.407095 1.28575e-18)
(11.3972 0.426627 -1.13111e-20)
(10.8901 0.419131 4.31043e-18)
(10.3155 0.371549 0)
(9.6311 0.270575 -4.27232e-18)
(8.89659 0.124821 4.70325e-18)
(7.82912 -0.0829614 0)
(10.3987 8.66504 0)
(11.0688 8.91379 -8.79963e-19)
(11.6969 9.10537 7.72689e-19)
(12.3282 9.27529 0)
(12.9746 9.39708 8.09126e-19)
(13.6345 9.45786 -6.46201e-19)
(14.3098 9.44773 -1.44581e-18)
(14.9959 9.35425 4.29874e-19)
(15.6773 9.16705 2.7671e-19)
(16.3375 8.88045 1.25345e-18)
(16.9645 8.48985 -1.34278e-18)
(17.5345 7.9944 -4.20668e-19)
(18.0099 7.40447 1.09902e-18)
(18.3637 6.74077 -5.27278e-19)
(18.588 6.03099 2.08641e-18)
(18.6859 5.30839 -1.32662e-18)
(18.6657 4.59739 -5.26823e-19)
(18.5374 3.91624 -2.36814e-19)
(18.3135 3.27943 -6.66304e-19)
(18.0074 2.69703 1.29998e-18)
(17.6307 2.17742 -5.64979e-19)
(17.2442 1.76213 -3.35313e-21)
(16.874 1.44478 5.84816e-21)
(16.4947 1.18185 0)
(16.1117 0.968069 -5.22984e-19)
(15.7292 0.798818 1.59791e-19)
(15.3512 0.669928 9.21036e-19)
(14.9808 0.57752 -6.43107e-19)
(14.6205 0.517698 1.7053e-18)
(14.2724 0.486291 -8.85289e-19)
(13.9379 0.478623 0)
(13.617 0.489345 -1.69165e-18)
(13.3079 0.512351 -5.93106e-19)
(13.0064 0.540915 6.63275e-19)
(12.7041 0.567653 -4.10017e-18)
(12.3911 0.584835 -7.1906e-19)
(12.0526 0.583702 -1.49697e-18)
(11.6744 0.555009 1.55402e-18)
(11.2132 0.48748 1.63424e-18)
(10.7059 0.389854 -3.34408e-18)
(9.92432 0.233406 -1.1511e-19)
(10.855 8.01415 0)
(11.4196 8.20375 4.99634e-20)
(11.9466 8.35086 6.99758e-19)
(12.4697 8.48252 2.26954e-18)
(12.9993 8.57978 -1.53938e-18)
(13.5362 8.63459 2.56982e-19)
(14.0847 8.64057 6.55897e-21)
(14.6442 8.58863 -1.78492e-18)
(15.2065 8.46982 -4.39409e-20)
(15.762 8.27761 -1.38817e-19)
(16.3045 8.00635 6.80831e-19)
(16.8182 7.65059 -6.26351e-19)
(17.2743 7.21048 -3.5874e-19)
(17.6486 6.69401 4.52432e-19)
(17.9277 6.11777 0)
(18.1048 5.50683 0)
(18.1783 4.88323 1.7884e-18)
(18.1514 4.26591 -2.257e-21)
(18.0305 3.6715 -1.19636e-18)
(17.8253 3.11339 6.14995e-20)
(17.5447 2.6031 -1.24768e-19)
(17.2391 2.18636 5.07395e-20)
(16.9347 1.86086 6.79074e-20)
(16.6155 1.58576 0)
(16.2876 1.35692 -7.2594e-20)
(15.956 1.17039 8.35494e-19)
(15.6251 1.02238 -1.08495e-18)
(15.2984 0.90922 1.2146e-18)
(14.9792 0.827189 -9.03564e-19)
(14.67 0.772417 0)
(14.3729 0.740718 8.19949e-19)
(14.0894 0.727507 1.83923e-18)
(13.8197 0.727777 -9.37506e-19)
(13.5627 0.736217 1.05071e-18)
(13.3146 0.747195 5.83854e-19)
(13.0708 0.755094 -1.11685e-18)
(12.8228 0.753886 1.75549e-18)
(12.5617 0.738396 -1.2274e-18)
(12.2578 0.700584 -9.5066e-19)
(11.9311 0.649375 -1.60441e-19)
(11.436 0.553812 2.64012e-18)
(11.2355 7.42055 -8.37971e-19)
(11.7119 7.56428 -2.91695e-18)
(12.1547 7.67579 2.84256e-18)
(12.5895 7.77574 0)
(13.0246 7.85049 -1.28002e-19)
(13.4622 7.89518 0)
(13.9069 7.90602 -4.39538e-18)
(14.3602 7.87682 3.22349e-18)
(14.8183 7.80075 1.53564e-18)
(15.2761 7.67202 -1.69026e-18)
(15.7313 7.48586 2.50769e-19)
(16.1745 7.23555 -1.56615e-19)
(16.5856 6.91642 3.11805e-19)
(16.9458 6.52892 4.66699e-19)
(17.2418 6.08095 1.00302e-19)
(17.463 5.58834 -5.74239e-19)
(17.602 5.06726 5.0284e-19)
(17.6559 4.5338 -6.0026e-19)
(17.6253 4.00368 0)
(17.515 3.49115 -1.65656e-19)
(17.33 3.00919 2.68048e-19)
(17.1081 2.60562 -7.98033e-20)
(16.8741 2.28262 4.5272e-21)
(16.6203 2.00368 0)
(16.353 1.76616 5.91949e-20)
(16.0775 1.56725 8.45244e-20)
(15.7986 1.40396 0)
(15.5203 1.27311 0)
(15.2457 1.17138 1.59409e-21)
(14.9775 1.09532 0)
(14.7179 1.04123 -9.91717e-19)
(14.4684 1.00522 0)
(14.2298 0.983209 1.55123e-18)
(14.002 0.970969 -1.60455e-18)
(13.7833 0.964193 0)
(13.5717 0.958954 9.05757e-19)
(13.3634 0.951418 -9.42731e-19)
(13.1537 0.939009 4.76136e-19)
(12.9275 0.917448 1.50784e-18)
(12.6946 0.893829 -1.33747e-19)
(12.383 0.847731 -3.14028e-18)
(11.5503 6.88517 2.22981e-18)
(11.9525 6.99333 8.28576e-20)
(12.3251 7.07653 -1.25614e-18)
(12.6873 7.15074 -2.29379e-18)
(13.0459 7.20604 -4.98929e-18)
(13.4033 7.23961 5.78185e-18)
(13.764 7.24939 -2.78658e-19)
(14.1303 7.23136 -2.62172e-18)
(14.5006 7.18065 4.87091e-18)
(14.8727 7.09288 -4.3573e-19)
(15.2464 6.96426 -2.08069e-18)
(15.6167 6.7889 5.30579e-19)
(15.9704 6.56082 -6.20787e-19)
(16.2942 6.27701 1.07324e-18)
(16.5778 5.93996 -1.67045e-19)
(16.8108 5.55815 0)
(16.984 5.14155 1.12042e-19)
(17.0911 4.70153 -3.67154e-20)
(17.1288 4.25059 1.5542e-19)
(17.0972 3.80138 -4.6725e-19)
(16.9974 3.36623 3.87626e-19)
(16.8544 2.99174 -4.42835e-20)
(16.6895 2.68397 -3.73983e-21)
(16.5013 2.41204 -8.72147e-19)
(16.2959 2.17489 1.93523e-18)
(16.0784 1.97102 -1.14126e-18)
(15.8536 1.79852 1.36247e-18)
(15.6257 1.65511 -1.66931e-18)
(15.3978 1.53819 -2.05515e-18)
(15.1728 1.4449 1.85787e-18)
(14.9526 1.37221 5.32557e-19)
(14.7387 1.31697 8.94836e-19)
(14.5321 1.2759 -2.76075e-18)
(14.3329 1.24574 2.6045e-18)
(14.1402 1.22319 -1.33786e-18)
(13.953 1.20547 -7.13654e-19)
(13.7696 1.19012 0)
(13.5872 1.17552 -7.79656e-19)
(13.3993 1.15979 -8.08109e-19)
(13.2105 1.14702 -8.3098e-19)
(12.9895 1.12712 8.62074e-19)
(11.8084 6.40705 3.18191e-21)
(12.1481 6.48759 3.03356e-19)
(12.4618 6.54844 1.10491e-18)
(12.7642 6.60213 -1.97465e-18)
(13.0604 6.64132 7.79953e-18)
(13.3532 6.66445 -6.623e-18)
(13.6463 6.67055 8.32572e-18)
(13.9422 6.65708 4.06751e-18)
(14.2406 6.62072 -2.06054e-18)
(14.5406 6.55833 -6.04849e-19)
(14.843 6.46723 -4.61313e-18)
(15.1455 6.34294 1.86583e-19)
(15.4397 6.17992 0)
(15.717 5.97425 -3.95686e-19)
(15.9702 5.72574 4.97739e-19)
(16.1911 5.43818 -6.28828e-19)
(16.3714 5.11674 0)
(16.5041 4.76827 7.75338e-19)
(16.5841 4.40131 -1.74735e-18)
(16.6087 4.02546 6.2529e-19)
(16.5761 3.65073 -1.11371e-18)
(16.4997 3.31911 1.25707e-18)
(16.3964 3.03904 5.10315e-20)
(16.2687 2.78571 -2.30499e-20)
(16.1217 2.55944 2.01634e-18)
(15.96 2.35996 -2.03782e-18)
(15.788 2.18644 7.24752e-20)
(15.6096 2.03757 1.63443e-19)
(15.4279 1.91166 -1.54042e-18)
(15.2457 1.80671 1.75904e-18)
(15.0649 1.72052 -2.16489e-19)
(14.8872 1.65072 2.32754e-19)
(14.7135 1.59489 -1.01494e-18)
(14.5443 1.55058 4.76878e-19)
(14.3792 1.51537 2.19553e-18)
(14.2177 1.48733 -5.48798e-19)
(14.0593 1.46478 6.07394e-19)
(13.9023 1.44643 -1.22621e-18)
(13.7437 1.43128 6.38e-19)
(13.5859 1.42108 6.66579e-19)
(13.4149 1.41038 0)
(12.0178 5.98304 -3.41947e-18)
(12.3045 6.04203 6.12964e-18)
(12.5686 6.0855 5.75185e-18)
(12.8211 6.12327 -1.5123e-17)
(13.0664 6.14972 5.60169e-18)
(13.3067 6.16407 -1.15075e-17)
(13.5455 6.16598 9.30315e-18)
(13.785 6.15388 -1.34655e-17)
(14.0252 6.1255 1.22611e-17)
(14.2662 6.07871 -4.15842e-19)
(14.509 6.0117 -4.97813e-18)
(14.7526 5.92116 -4.65017e-19)
(14.992 5.80281 -3.73752e-18)
(15.2216 5.65308 3.69961e-18)
(15.4369 5.47085 -2.90472e-18)
(15.6321 5.25745 3.16431e-18)
(15.8009 5.01509 0)
(15.9372 4.74737 -2.1927e-18)
(16.0359 4.45936 2.71256e-18)
(16.0933 4.15749 -2.55994e-18)
(16.1061 3.84887 -1.63581e-19)
(16.0794 3.56853 4.33419e-18)
(16.0252 3.32553 7.52443e-20)
(15.9479 3.10073 -1.6985e-18)
(15.8514 2.89533 -3.26434e-24)
(15.7393 2.70992 0)
(15.6153 2.54457 -2.29351e-18)
(15.4827 2.39882 2.27e-18)
(15.3444 2.27181 0)
(15.2027 2.16237 -1.67871e-19)
(15.0596 2.0691 0)
(14.9167 1.99047 1.58033e-18)
(14.7751 1.92486 -1.79e-18)
(14.6357 1.87063 -1.73834e-18)
(14.4984 1.82604 3.55669e-18)
(14.3634 1.78978 -2.05032e-18)
(14.2308 1.76074 -2.40062e-19)
(14.0996 1.73781 4.98678e-19)
(13.9687 1.72025 -5.14963e-19)
(13.8393 1.70859 0)
(13.7052 1.69915 -5.3188e-19)
(12.1789 5.62604 0)
(12.4226 5.66908 -8.35266e-18)
(12.6465 5.69995 3.88325e-19)
(12.8592 5.72618 1.1115e-17)
(13.0641 5.74333 6.77403e-18)
(13.2636 5.75111 -6.95631e-18)
(13.4604 5.74957 6.30075e-18)
(13.6564 5.73768 6.00782e-18)
(13.852 5.7139 1.12348e-17)
(14.0474 5.67675 -1.42041e-17)
(14.2437 5.62501 1.38198e-18)
(14.4405 5.55629 1.32354e-18)
(14.6346 5.4673 -4.51852e-18)
(14.8225 5.35523 3.28978e-18)
(15.0014 5.21889 4.58323e-18)
(15.1673 5.05856 -3.49048e-18)
(15.3158 4.87504 -4.03925e-18)
(15.4423 4.67005 4.13734e-18)
(15.5425 4.44644 0)
(15.6129 4.20818 4.72398e-19)
(15.65 3.95996 4.73576e-19)
(15.654 3.72959 3.60993e-18)
(15.6331 3.52546 -7.32563e-18)
(15.592 3.33301 3.80132e-18)
(15.5334 3.15375 2.06025e-18)
(15.46 2.98869 3.3647e-20)
(15.3746 2.83841 -2.18058e-18)
(15.2798 2.70301 3.52314e-20)
(15.1779 2.58224 2.50153e-21)
(15.0711 2.47554 2.64141e-18)
(14.9609 2.38215 -2.67098e-18)
(14.849 2.30117 -1.45408e-18)
(14.7364 2.23161 1.5521e-18)
(14.624 2.17241 -1.5712e-18)
(14.5123 2.12241 1.37241e-18)
(14.4017 2.08077 1.25453e-18)
(14.2927 2.04677 -6.27877e-19)
(14.1849 2.01949 2.19881e-19)
(14.0781 1.99833 0)
(13.9729 1.98329 0)
(13.8673 1.97185 4.44031e-21)
(12.2986 5.33856 -3.86264e-18)
(12.5085 5.37022 4.30554e-18)
(12.7009 5.39212 -1.80349e-18)
(12.8828 5.41003 -3.45272e-18)
(13.0569 5.42036 0)
(13.2253 5.4232 6.53022e-18)
(13.3905 5.41876 -1.55228e-17)
(13.5539 5.40637 9.55843e-18)
(13.7161 5.38496 -3.0531e-18)
(13.8773 5.35348 2.74673e-18)
(14.0387 5.31112 -1.31977e-18)
(14.1999 5.25621 -1.1786e-17)
(14.3589 5.18627 2.06909e-17)
(14.5135 5.09916 -8.87565e-18)
(14.6618 4.99382 -1.05979e-18)
(14.8011 4.87015 -4.342e-18)
(14.9284 4.72832 1.3166e-17)
(15.0402 4.56909 -5.74323e-18)
(15.1333 4.39403 -8.62506e-18)
(15.2048 4.20555 3.56454e-18)
(15.2516 4.00667 -9.8233e-19)
(15.2717 3.81904 0)
(15.2704 3.6499 0)
(15.2522 3.48806 -4.22954e-18)
(15.2189 3.33501 4.23446e-18)
(15.1724 3.19186 6.5456e-20)
(15.1148 3.05938 0)
(15.0481 2.93797 2.4198e-18)
(14.974 2.82772 -2.42583e-18)
(14.8944 2.72848 1.93866e-20)
(14.8105 2.63989 -2.11084e-20)
(14.7237 2.56149 0)
(14.6351 2.4927 1.35523e-18)
(14.5454 2.43288 -1.43182e-18)
(14.4553 2.38122 1.85285e-19)
(14.3654 2.33721 -1.90807e-19)
(14.2763 2.30037 0)
(14.188 2.26999 -2.01081e-19)
(14.1006 2.24557 -4.16024e-19)
(14.0146 2.22699 2.03442e-19)
(13.9298 2.21257 6.30315e-19)
(12.3894 5.10436 0)
(12.5722 5.1277 0)
(12.7396 5.14304 -6.74409e-18)
(12.8971 5.15488 -1.30569e-17)
(13.047 5.16027 1.98376e-17)
(13.1913 5.15949 -1.57017e-17)
(13.3319 5.15288 -5.93916e-18)
(13.4703 5.13998 1.24181e-17)
(13.6069 5.12001 -1.19047e-17)
(13.7421 5.09223 1.18804e-17)
(13.8766 5.05608 0)
(14.0105 5.01034 0)
(14.1424 4.95321 1.06978e-17)
(14.2706 4.88305 -2.10472e-17)
(14.394 4.79905 2.00978e-17)
(14.5108 4.70102 -9.78855e-18)
(14.6188 4.58888 -1.22275e-18)
(14.7155 4.46295 1.07348e-17)
(14.7985 4.3241 -7.2936e-18)
(14.8656 4.17378 0)
(14.9141 4.01391 5.07037e-19)
(14.9413 3.8613 0)
(14.9508 3.72191 -4.68142e-18)
(14.9464 3.58705 9.13739e-18)
(14.9293 3.45802 -4.45503e-18)
(14.9009 3.33585 0)
(14.8627 3.22133 0)
(14.8161 3.11499 2.27295e-18)
(14.7627 3.01706 -2.42674e-18)
(14.7036 2.92763 -2.54966e-18)
(14.6401 2.84659 2.56816e-18)
(14.5731 2.77373 2.67558e-18)
(14.5038 2.70875 -2.68391e-18)
(14.4327 2.65126 0)
(14.3605 2.60072 -2.23378e-20)
(14.2879 2.55682 0)
(14.2153 2.51925 -5.78962e-21)
(14.1431 2.48743 -2.35368e-20)
(14.0715 2.46099 8.16711e-19)
(14.0009 2.43975 -1.15735e-18)
(13.9316 2.42265 3.8165e-19)
(12.4596 4.91008 0)
(12.6203 4.9272 -8.18275e-19)
(12.7672 4.93768 0)
(12.9049 4.94503 6.27451e-18)
(13.0354 4.94679 -6.17772e-18)
(13.1603 4.94339 0)
(13.2815 4.9352 5.98817e-18)
(13.4001 4.92191 5.75757e-18)
(13.5166 4.90294 -1.51038e-17)
(13.6314 4.87775 0)
(13.745 4.84597 1.13422e-17)
(13.8576 4.8067 -2.26111e-17)
(13.9681 4.7586 1.12396e-17)
(14.0754 4.70047 0)
(14.1787 4.63168 -1.03952e-17)
(14.2768 4.55207 1.15732e-17)
(14.3681 4.46149 1.09456e-17)
(14.4508 4.36009 -1.20971e-17)
(14.5232 4.24834 -1.12038e-18)
(14.5835 4.12717 0)
(14.6297 3.99779 0)
(14.659 3.87332 -5.95336e-19)
(14.6739 3.75854 2.71332e-19)
(14.6774 3.6466 4.63315e-18)
(14.6705 3.53857 3.5549e-19)
(14.654 3.43536 -4.64525e-18)
(14.6292 3.33766 4.77947e-18)
(14.597 3.246 -4.62521e-18)
(14.5587 3.16068 -2.77968e-18)
(14.5151 3.08187 2.4623e-18)
(14.4672 3.00961 -2.55147e-18)
(14.4159 2.94383 2.54639e-18)
(14.3619 2.8844 0)
(14.3059 2.83108 -2.84958e-18)
(14.2485 2.78352 2.6953e-18)
(14.1902 2.74152 0)
(14.1315 2.7049 5.38719e-21)
(14.0727 2.6732 7.31723e-19)
(14.0141 2.64613 -7.51943e-19)
(13.9562 2.62352 3.40759e-19)
(13.8993 2.60475 -3.54067e-19)
(12.5149 4.74652 0)
(12.6571 4.75892 7.56265e-19)
(12.7869 4.76574 -6.05155e-18)
(12.9083 4.76974 1.17977e-17)
(13.0227 4.76884 -2.37589e-17)
(13.1318 4.76355 1.19503e-17)
(13.2372 4.75426 0)
(13.3399 4.74075 5.7476e-18)
(13.4403 4.7226 3.44625e-17)
(13.5387 4.69942 -2.32077e-17)
(13.6357 4.67092 0)
(13.7313 4.63646 -2.86686e-18)
(13.8248 4.59506 8.16848e-18)
(13.9153 4.54579 -2.11986e-19)
(14.0024 4.48822 -1.08526e-17)
(14.0851 4.42222 1.1749e-17)
(14.1623 4.34767 -1.02229e-17)
(14.2327 4.26463 9.79333e-18)
(14.2951 4.17339 -9.81847e-18)
(14.3481 4.07458 -9.63424e-18)
(14.3902 3.96897 8.30294e-18)
(14.4188 3.86687 -4.15385e-18)
(14.4357 3.77211 5.26514e-18)
(14.4435 3.6792 -4.97285e-18)
(14.4426 3.589 -9.23848e-19)
(14.4339 3.50225 4.69616e-18)
(14.4181 3.41955 0)
(14.3962 3.34135 0)
(14.3687 3.26797 -4.58222e-18)
(14.3367 3.19959 4.86271e-18)
(14.3007 3.13631 0)
(14.2615 3.07813 3.17936e-19)
(14.2198 3.02502 3.2106e-19)
(14.1759 2.97684 2.73731e-18)
(14.1305 2.93333 -2.73399e-18)
(14.084 2.89439 -1.31731e-18)
(14.0369 2.85992 1.31248e-18)
(13.9894 2.82954 -5.03364e-19)
(13.9418 2.80304 1.34574e-18)
(13.8945 2.78029 -6.53057e-19)
(13.8478 2.76094 -8.37017e-20)
(12.5589 4.60714 5.60407e-18)
(12.6855 4.61592 6.84417e-18)
(12.8009 4.61996 -1.26914e-19)
(12.9085 4.62144 0)
(13.0095 4.61859 0)
(13.1055 4.61196 0)
(13.1979 4.60194 0)
(13.2875 4.58838 -2.23115e-17)
(13.3747 4.57096 3.94055e-17)
(13.4598 4.5494 -2.25948e-17)
(13.5432 4.52351 2.21157e-17)
(13.6251 4.4928 -1.40187e-17)
(13.7048 4.45654 2.44842e-17)
(13.7818 4.41405 -2.99759e-17)
(13.8557 4.36502 1.08612e-17)
(13.9257 4.30936 7.88528e-18)
(13.9912 4.24701 -1.03162e-17)
(14.0511 4.17799 1.21889e-18)
(14.1045 4.10252 -1.26604e-18)
(14.1505 4.02101 1.22725e-17)
(14.1879 3.934 1.07788e-17)
(14.2144 3.84968 -1.78443e-17)
(14.2314 3.77108 -5.70962e-19)
(14.2411 3.69378 0)
(14.2437 3.61843 5.71107e-19)
(14.2399 3.54564 -6.01518e-19)
(14.2301 3.47589 -4.14558e-18)
(14.2152 3.40958 4.72943e-18)
(14.1957 3.34696 -4.80137e-18)
(14.1721 3.28822 4.78248e-18)
(14.1451 3.23347 4.86654e-18)
(14.1152 3.18274 -5.1464e-18)
(14.083 3.13604 -3.02126e-19)
(14.0488 3.09329 2.48655e-18)
(14.013 3.05431 -2.00738e-18)
(13.9761 3.01905 0)
(13.9385 2.98743 0)
(13.9003 2.95917 -1.57423e-19)
(13.8619 2.93411 3.21285e-19)
(13.8235 2.91215 3.22645e-19)
(13.7853 2.89313 7.81136e-20)
(12.5945 4.48714 0)
(12.7076 4.49311 -1.30183e-18)
(12.8107 4.49504 1.0437e-17)
(12.9065 4.49462 -1.06469e-17)
(12.9962 4.49035 -2.10703e-17)
(13.0812 4.48278 2.15831e-17)
(13.1626 4.47231 1.0514e-17)
(13.2412 4.45883 -2.17796e-17)
(13.3175 4.44212 -2.14975e-17)
(13.3916 4.42196 2.18443e-17)
(13.4639 4.39822 0)
(13.5346 4.37054 -1.07924e-17)
(13.603 4.33837 2.13665e-17)
(13.6689 4.30123 -2.41344e-17)
(13.7319 4.25888 0)
(13.7915 4.21129 -2.65866e-18)
(13.8472 4.15843 2.60044e-18)
(13.8982 4.10033 0)
(13.9438 4.03715 1.20595e-18)
(13.9834 3.96921 -2.38431e-18)
(14.0161 3.89688 1.0859e-17)
(14.04 3.82673 -1.0672e-17)
(14.0562 3.76117 1.19661e-18)
(14.0663 3.69659 8.77513e-18)
(14.0708 3.63351 -8.72511e-18)
(14.0699 3.57239 5.69925e-19)
(14.0641 3.51363 -5.25336e-18)
(14.054 3.45754 4.65996e-18)
(14.0401 3.40433 5.94868e-19)
(14.0227 3.35418 0)
(14.0024 3.30717 0)
(13.9796 3.26335 0)
(13.9547 3.22274 -2.38763e-18)
(13.928 3.1853 2.37631e-18)
(13.8999 3.15088 -2.96085e-19)
(13.8706 3.11947 -2.41642e-18)
(13.8406 3.09102 2.70847e-18)
(13.81 3.0653 0)
(13.7791 3.0422 4.17447e-21)
(13.748 3.02164 -6.08652e-19)
(13.7169 3.0036 2.9547e-19)
(12.6234 4.3829 4.81682e-18)
(12.7249 4.3867 0)
(12.8173 4.38702 -2.42848e-17)
(12.9029 4.38517 1.99251e-17)
(12.9829 4.37986 0)
(13.0585 4.37167 2.01059e-17)
(13.1306 4.36096 -1.59706e-19)
(13.2001 4.34768 2.04947e-17)
(13.2671 4.33166 -3.13729e-17)
(13.332 4.31274 -2.07339e-17)
(13.3951 4.29083 2.10661e-17)
(13.4563 4.26568 5.16771e-18)
(13.5155 4.23687 0)
(13.5722 4.20405 0)
(13.6262 4.16706 -5.25067e-18)
(13.6772 4.12591 2.30475e-17)
(13.7247 4.08059 -4.54194e-17)
(13.7682 4.03114 1.99013e-17)
(13.8071 3.9777 2.48188e-18)
(13.8411 3.92053 2.45651e-18)
(13.8694 3.85989 -1.16714e-18)
(13.8905 3.80111 1.7596e-17)