/*--------------------------------*- C++ -*----------------------------------*\
| =========                 |                                                 |
| \\      /  F ield         | OpenFOAM: The Open Source CFD Toolbox           |
|  \\    /   O peration     | Version:  5.x                                   |
|   \\  /    A nd           | Web:      www.OpenFOAM.org                      |
|    \\/     M anipulation  |                                                 |
\*---------------------------------------------------------------------------*/
FoamFile
{
    version     2.0;
    format      ascii;
    class       volVectorField;
    location    "150";
    object      U;
}
// * * * * * * * * * * * * * * * * * * * * * * * * * * * * * * * * * * * * * //

dimensions      [0 1 -1 0 0 0 0];

internalField   nonuniform List<vector> 
41860
(
(142.365 217.778 0)
(225.019 173.726 1.84816e-16)
(263.424 107.18 -3.27005e-17)
(239.439 80.4749 -1.84108e-16)
(230.445 64.6676 -5.13062e-22)
(220.72 53.4677 -1.51826e-16)
(210.126 44.8285 -1.91414e-16)
(200.131 38.1612 2.31525e-16)
(190.692 32.8435 0)
(181.897 28.4874 -3.10386e-16)
(174.155 24.9615 3.52464e-16)
(169.624 22.3069 3.69797e-16)
(165.309 20.0326 -3.14592e-21)
(163.07 18.2241 4.0764e-16)
(159.425 16.464 -4.58813e-16)
(157.457 15.0418 -4.53195e-16)
(154.423 13.6328 4.79903e-16)
(151.977 12.3995 -4.94615e-16)
(149.569 11.26 -4.96913e-16)
(146.838 10.1825 5.28359e-16)
(145.02 9.24843 -5.16476e-16)
(142.352 8.31625 -1.94637e-21)
(140.639 7.50895 -3.76246e-21)
(138.734 6.73311 2.04737e-21)
(136.88 6.00984 1.09548e-15)
(135.525 5.34626 -5.32857e-16)
(133.806 4.70124 0)
(132.595 4.11252 -2.64272e-16)
(131.014 3.53977 2.67461e-16)
(129.764 3.00247 0)
(127.904 2.48157 2.00723e-21)
(126.229 1.99048 -1.99432e-21)
(125.175 1.53285 -1.67769e-21)
(124.408 1.09601 3.84412e-21)
(123.213 0.676484 1.24422e-16)
(122.563 0.275852 0)
(121.625 -0.108287 -1.49327e-17)
(120.796 -0.477511 1.17967e-16)
(121.27 -0.838473 -1.11487e-16)
(120.491 -1.18407 2.19795e-16)
(119.87 -1.51368 0)
(119.668 -1.83895 -8.30888e-16)
(115.632 -2.05311 0)
(115.301 -2.29369 2.36371e-21)
(114.826 -2.51113 5.5072e-16)
(113.488 -2.70067 -1.07868e-21)
(113.83 -2.91795 1.06147e-21)
(113.321 -3.10487 5.62461e-16)
(112.905 -3.28932 -1.12927e-15)
(111.618 -3.4314 -5.75619e-16)
(111.241 -3.59997 -1.10575e-21)
(110.862 -3.75206 5.80498e-16)
(110.555 -3.90941 -5.82544e-16)
(111.032 -4.08005 1.10285e-21)
(110.793 -4.23199 5.37797e-24)
(110.49 -4.36478 5.32656e-24)
(110.326 -4.5064 -1.10082e-21)
(109.237 -4.59887 0)
(109.9 -4.76558 -1.16103e-15)
(108.847 -4.85298 -1.13883e-21)
(109.456 -5.01471 1.16934e-15)
(108.525 -5.11538 -1.19597e-15)
(108.068 -5.24689 1.20618e-15)
(108.124 -5.39439 -2.39976e-15)
(107.649 -5.52151 1.21228e-15)
(108.286 -5.6985 -1.18957e-15)
(108.139 -5.84128 0)
(107.877 -5.9703 5.66628e-22)
(107.326 -6.08901 3.01765e-24)
(106.596 -6.19515 -1.20342e-15)
(106.689 -6.34553 -3.23474e-24)
(106.078 -6.46142 5.81723e-22)
(105.59 -6.58191 2.42674e-15)
(104.272 -6.65124 -2.98183e-22)
(104.208 -6.79798 2.48621e-15)
(103.286 -6.89655 0)
(102.323 -6.98696 -5.01265e-15)
(101.049 -7.06181 -1.51133e-22)
(99.4807 -7.10827 2.59896e-15)
(96.3511 -7.0542 -2.64452e-15)
(98.3089 -7.3374 2.6741e-15)
(8.48464 -0.930426 -5.51892e-15)
(186.321 275.746 0)
(278.018 214.26 -7.99884e-17)
(305.563 124.452 1.33624e-17)
(275.275 92.916 7.46288e-17)
(268.789 75.5522 0)
(261.252 63.4103 2.53043e-22)
(254.307 54.3665 1.61106e-16)
(247.85 47.365 3.64714e-22)
(241.63 41.7157 1.19283e-16)
(235.733 37.0117 1.39631e-16)
(230.767 33.1635 -1.62031e-16)
(227.314 29.9718 -3.43569e-16)
(225.358 27.3838 4.37401e-23)
(223.134 25.0014 -1.44094e-21)
(222.201 23.0098 0)
(220.496 21.1195 0)
(219.232 19.4076 -2.25305e-16)
(218.155 17.8476 0)
(216.469 16.3424 2.32424e-16)
(215.832 15.0099 0)
(214.045 13.6898 4.80624e-16)
(212.939 12.4779 -2.53802e-16)
(211.5 11.3276 -2.4918e-16)
(209.81 10.2156 0)
(208.62 9.19062 -1.46364e-21)
(206.554 8.17563 -2.50653e-16)
(205.202 7.23793 0)
(203.622 6.34066 0)
(201.833 5.47526 -4.78111e-22)
(200.072 4.65243 0)
(198.668 3.87656 0)
(197.077 3.12769 0)
(195.453 2.41166 1.21265e-16)
(193.607 1.72296 0)
(192.083 1.07053 -5.88387e-17)
(190.273 0.443317 8.88384e-22)
(188.732 -0.154285 -8.62418e-22)
(187.027 -0.725887 -2.80688e-17)
(185.3 -1.27023 5.32075e-17)
(183.41 -1.79129 -1.43158e-22)
(182.045 -2.28806 -7.84989e-22)
(180.268 -2.76237 3.96939e-16)
(181.355 -3.21218 0)
(180.832 -3.58641 2.66844e-16)
(180.395 -3.93506 -2.63606e-16)
(179.512 -4.26434 1.03144e-21)
(178.368 -4.56539 2.71822e-16)
(177.485 -4.8551 -2.74111e-16)
(176.695 -5.13924 1.94103e-22)
(176.181 -5.4076 2.77164e-16)
(175.436 -5.67055 0)
(174.645 -5.90408 -2.79508e-16)
(173.945 -6.14608 1.07268e-21)
(172.874 -6.34783 5.30556e-24)
(172.206 -6.57109 -1.07192e-21)
(171.807 -6.78053 5.31421e-22)
(171.168 -6.98698 -1.05793e-21)
(170.533 -7.17441 5.42163e-22)
(169.904 -7.36329 5.56041e-16)
(169.313 -7.54558 5.46941e-22)
(168.441 -7.71305 -5.68112e-16)
(168.153 -7.92081 5.73631e-16)
(167.607 -8.13335 -5.47801e-22)
(166.903 -8.3229 5.74709e-16)
(166.32 -8.52779 -5.77924e-16)
(165.334 -8.69675 -5.47549e-22)
(164.905 -8.90313 0)
(164.174 -9.08376 5.64504e-16)
(163.247 -9.25821 -1.45723e-24)
(162.648 -9.4481 7.27872e-23)
(161.823 -9.62228 5.73905e-16)
(160.766 -9.78993 0)
(159.744 -9.95307 -1.16818e-15)
(158.961 -10.1349 -1.84452e-24)
(157.706 -10.2849 -1.18222e-15)
(156.252 -10.4293 -1.20904e-15)
(154.801 -10.5651 1.19263e-15)
(153.042 -10.6913 -1.21358e-15)
(150.993 -10.7837 -1.24005e-15)
(147.327 -10.7815 0)
(149.239 -11.1175 -1.27315e-15)
(31.4105 -2.63379 8.68328e-15)
(205.788 302.95 -3.80354e-18)
(305.883 235.858 0)
(328.757 134.005 -1.0132e-17)
(295.105 99.7047 5.62928e-17)
(289.508 81.4161 0)
(282.916 68.7017 0)
(277.743 59.4037 -5.92017e-17)
(273.083 52.2103 0)
(268.553 46.3843 -8.56371e-17)
(264.207 41.5002 -7.73252e-22)
(260.68 37.4793 1.13306e-16)
(257.709 33.992 6.0561e-21)
(256.688 31.2034 1.30679e-16)
(254.319 28.505 1.28826e-16)
(254.01 26.3135 0)
(252.169 24.1609 1.37946e-16)
(251.033 22.2306 0)
(249.968 20.4565 1.44226e-16)
(248.195 18.744 1.43303e-16)
(247.596 17.2239 -1.48129e-16)
(245.664 15.7171 -1.44543e-16)
(244.67 14.342 1.50093e-16)
(242.958 13.0166 1.46711e-16)
(241.345 11.755 1.48307e-16)
(239.845 10.5698 -8.85054e-22)
(237.881 9.41893 1.46335e-16)
(236.441 8.34296 0)
(234.445 7.3035 -7.1822e-17)
(232.823 6.31882 -2.85624e-22)
(230.934 5.37283 0)
(229.234 4.47576 1.10001e-21)
(227.415 3.61177 7.08668e-17)
(225.648 2.78589 6.99918e-17)
(223.732 1.99329 3.50122e-17)
(221.959 1.23877 0)
(220.048 0.514702 1.04949e-21)
(218.222 -0.176644 -4.17433e-18)
(216.307 -0.837875 -1.65982e-17)
(214.243 -1.46739 -3.22413e-17)
(212.291 -2.07148 -6.45611e-17)
(210.422 -2.64329 -1.90799e-21)
(208.267 -3.1907 1.72048e-21)
(210.426 -3.72693 7.39537e-24)
(209.855 -4.16107 -1.57156e-16)
(208.996 -4.55801 1.55717e-16)
(208.124 -4.94293 -1.59044e-16)
(207.044 -5.29864 -1.60702e-16)
(206.042 -5.63536 0)
(205.128 -5.96535 1.63207e-16)
(204.298 -6.26951 1.63421e-16)
(203.422 -6.57434 6.2881e-22)
(202.498 -6.84483 -5.43399e-22)
(201.666 -7.125 1.66179e-16)
(200.643 -7.36687 -6.42664e-22)
(199.839 -7.62504 -3.37282e-16)
(199.005 -7.85344 -6.38981e-22)
(198.222 -8.09073 3.34364e-16)
(197.575 -8.31141 0)
(196.679 -8.52332 0)
(196.078 -8.7377 3.43281e-16)
(195.217 -8.93868 0)
(194.639 -9.16755 6.60331e-22)
(193.905 -9.40857 -9.81956e-22)
(193.097 -9.62851 3.30438e-22)
(192.326 -9.86032 0)
(191.37 -10.0661 3.50917e-16)
(190.537 -10.2867 -3.47013e-16)
(189.64 -10.4924 -6.93448e-16)
(188.834 -10.7087 -3.58216e-16)
(187.906 -10.9147 -3.56149e-22)
(186.832 -11.109 -3.53616e-16)
(185.846 -11.3166 0)
(184.612 -11.5016 -1.72013e-22)
(183.528 -11.7002 7.25268e-16)
(182.037 -11.8711 -7.30543e-16)
(180.581 -12.0526 7.45525e-16)
(178.711 -12.1958 7.38015e-16)
(176.729 -12.3454 7.51186e-16)
(174.462 -12.4579 -4.11899e-23)
(170.488 -12.4768 0)
(172.462 -12.8197 0)
(58.6357 -4.6963 -9.26355e-15)
(220.736 325.068 8.76523e-18)
(331.248 255.676 0)
(351.633 143.491 3.17191e-20)
(314.476 106.315 -5.18521e-17)
(308.942 86.92 0)
(303.183 73.6506 3.33415e-22)
(299.25 64.024 -3.704e-22)
(295.738 56.5583 0)
(292.214 50.4847 -1.10727e-21)
(288.717 45.3615 1.19315e-21)
(285.698 41.0867 8.97915e-17)
(282.718 37.2974 9.37683e-17)
(281.351 34.2085 -9.9961e-17)
(278.769 31.2499 -1.97666e-16)
(277.846 28.7876 -1.58331e-21)
(275.776 26.4266 -1.03515e-16)
(274.167 24.2831 0)
(272.722 22.3217 -1.06888e-16)
(270.693 20.4463 -1.06155e-16)
(269.612 18.7578 1.09184e-16)
(267.559 17.1205 -1.06837e-16)
(266.206 15.6066 -2.20089e-16)
(264.328 14.1639 -8.4158e-22)
(262.566 12.7907 -2.17723e-16)
(260.846 11.4974 -1.08994e-16)
(258.867 10.2519 0)
(257.24 9.07871 0)
(255.206 7.95225 1.06752e-16)
(253.482 6.88131 -5.41972e-17)
(251.559 5.85441 5.34579e-17)
(249.738 4.87776 0)
(247.791 3.93706 -5.26744e-17)
(245.992 3.03828 -5.21303e-17)
(244.111 2.17647 -2.61687e-17)
(242.255 1.35325 0)
(240.376 0.563767 1.57744e-21)
(238.481 -0.191857 -1.52364e-21)
(236.533 -0.914805 1.25423e-17)
(234.568 -1.60548 -2.46569e-17)
(232.587 -2.26804 0)
(230.624 -2.89589 0)
(228.448 -3.49985 -1.89991e-16)
(230.063 -4.07534 0)
(229.468 -4.54945 1.18015e-16)
(228.534 -4.98362 0)
(227.54 -5.40322 -8.2721e-22)
(226.503 -5.79603 9.21299e-22)
(225.446 -6.16538 -1.22374e-16)
(224.478 -6.52751 1.2325e-16)
(223.493 -6.85782 -1.24003e-16)
(222.56 -7.19227 0)
(221.582 -7.48924 1.25766e-16)
(220.695 -7.79678 -1.26588e-16)
(219.716 -8.06654 0)
(218.858 -8.35034 3.97931e-23)
(217.943 -8.60046 9.83858e-22)
(217.109 -8.86131 -5.15769e-16)
(216.328 -9.09969 4.99304e-22)
(215.452 -9.33665 -4.95208e-22)
(214.717 -9.56765 -2.63932e-16)
(213.888 -9.79318 5.04249e-22)
(213.163 -10.0395 -5.06812e-22)
(212.316 -10.3011 0)
(211.494 -10.5453 2.68496e-16)
(210.607 -10.7967 -2.46621e-24)
(209.706 -11.0301 -2.70972e-16)
(208.79 -11.2718 2.71084e-16)
(207.818 -11.4978 2.7126e-16)
(206.937 -11.7346 2.7751e-16)
(205.869 -11.9575 5.47228e-16)
(204.755 -12.1742 2.77419e-16)
(203.682 -12.4019 -2.67843e-22)
(202.349 -12.6059 5.60203e-16)
(201.063 -12.8172 -5.66142e-16)
(199.541 -13.0118 1.14942e-15)
(197.965 -13.2119 -2.76458e-22)
(195.947 -13.3709 -5.81343e-16)
(193.796 -13.5368 -5.91856e-16)
(191.365 -13.6627 6.03953e-16)
(187.046 -13.689 6.13276e-16)
(189.205 -14.0291 6.21016e-16)
(86.2883 -6.91868 9.35205e-15)
(231.993 341.948 -4.68987e-18)
(352.366 272.31 -4.44426e-17)
(372.453 152.202 7.89938e-18)
(332.013 112.33 4.33018e-17)
(325.415 91.6036 2.70144e-17)
(320.211 77.8207 3.3363e-17)
(316.74 67.7904 4.06286e-17)
(313.648 60.0027 -6.99586e-22)
(310.516 53.6626 5.48365e-17)
(307.371 48.3057 9.20953e-22)
(304.441 43.7942 -6.91534e-17)
(301.421 39.774 2.25509e-21)
(299.498 36.4235 -2.32705e-21)
(296.857 33.2845 7.72009e-17)
(295.353 30.6081 2.53773e-21)
(293.211 28.1031 -4.97675e-21)
(291.313 25.8072 5.12064e-21)
(289.667 23.7134 -2.57433e-21)
(287.542 21.7235 0)
(286.2 19.9159 0)
(284.136 18.1851 1.72877e-16)
(282.575 16.5698 8.91912e-17)
(280.67 15.0432 -8.83354e-17)
(278.823 13.5859 8.88149e-17)
(277.037 12.2142 -8.95521e-17)
(275.045 10.8955 1.35405e-21)
(273.327 9.64921 -1.37033e-21)
(271.329 8.4574 -2.19422e-22)
(269.535 7.31961 -1.3723e-21)
(267.614 6.23048 -8.84232e-17)
(265.761 5.19303 0)
(263.805 4.19374 4.38887e-17)
(262.003 3.23798 1.17702e-23)
(260.117 2.32127 2.17863e-17)
(258.271 1.44452 2.14302e-17)
(256.388 0.603276 5.37059e-18)
(254.51 -0.203045 2.63543e-18)
(252.563 -0.974957 0)
(250.651 -1.71393 2.07069e-17)
(248.656 -2.42293 -1.26268e-21)
(246.707 -3.09622 1.23127e-21)
(244.545 -3.74595 1.60277e-16)
(245.618 -4.35102 0)
(245.009 -4.8567 0)
(244.067 -5.32142 -9.99176e-17)
(243.004 -5.76933 1.01354e-16)
(241.962 -6.19062 0)
(240.874 -6.58625 1.03214e-16)
(239.873 -6.9742 7.4318e-22)
(238.83 -7.32734 -1.60102e-21)
(237.862 -7.6858 -4.18597e-24)
(236.853 -8.00438 -1.06573e-16)
(235.932 -8.33417 -8.16964e-22)
(234.947 -8.62478 0)
(234.055 -8.92936 2.17465e-16)
(233.121 -9.19863 -2.19086e-16)
(232.253 -9.47873 4.39467e-16)
(231.394 -9.73252 2.222e-16)
(230.526 -9.98926 -2.22031e-16)
(229.71 -10.2349 8.59638e-22)
(228.872 -10.4785 3.89022e-24)
(228.084 -10.7413 -2.27158e-16)
(227.197 -11.0221 -8.6081e-22)
(226.331 -11.2842 -2.29306e-16)
(225.398 -11.554 4.37561e-22)
(224.47 -11.8058 2.31265e-16)
(223.521 -12.0664 0)
(222.498 -12.3092 0)
(221.536 -12.5614 0)
(220.402 -12.8006 -2.3452e-16)
(219.251 -13.0353 -2.38386e-16)
(218.09 -13.278 0)
(216.689 -13.4979 -4.80167e-16)
(215.304 -13.7236 0)
(213.721 -13.9352 -4.94799e-16)
(212.03 -14.149 1.76538e-24)
(209.925 -14.3229 -4.77838e-22)
(207.633 -14.5016 5.10212e-16)
(205.074 -14.6385 5.20668e-16)
(200.462 -14.6704 -5.27424e-16)
(202.789 -14.999 6.69168e-22)
(110.862 -8.92688 0)
(240.452 354.589 8.44297e-18)
(369.29 285.791 7.49677e-17)
(389.38 159.389 0)
(346.319 117.288 -6.95594e-17)
(338.341 95.3056 -4.31811e-17)
(333.41 81.0711 -5.33606e-17)
(330.141 70.69 -6.50074e-17)
(327.304 62.6402 2.32852e-21)
(324.467 56.0946 -8.81995e-17)
(321.628 50.5642 5.00233e-17)
(318.873 45.8863 1.74651e-21)
(315.97 41.7072 -1.78597e-21)
(313.785 38.1731 0)
(311.191 34.9019 0)
(309.38 32.0711 2.13941e-21)
(307.249 29.4569 -6.91184e-17)
(305.221 27.0469 2.16097e-21)
(303.486 24.8514 -7.29316e-17)
(301.346 22.7726 7.30472e-17)
(299.863 20.8722 -2.33659e-21)
(297.829 19.0669 -7.48985e-17)
(296.161 17.3713 2.37987e-21)
(294.267 15.7767 -2.33504e-21)
(292.39 14.2513 7.75281e-17)
(290.584 12.8157 1.56915e-16)
(288.607 11.4366 7.7349e-17)
(286.847 10.1302 -7.92978e-17)
(284.889 8.88364 -3.88688e-17)
(283.068 7.69043 2.39371e-21)
(281.165 6.54914 3.89824e-17)
(279.308 5.46076 0)
(277.372 4.41231 -3.88372e-17)
(275.58 3.40842 2.34035e-21)
(273.693 2.44507 -1.92806e-17)
(271.875 1.52303 -1.90131e-17)
(269.993 0.637728 -4.75777e-18)
(268.148 -0.211662 0)
(266.213 -1.02535 0)
(264.333 -1.80535 1.84137e-17)
(262.347 -2.55413 -1.11375e-21)
(260.427 -3.26632 0)
(258.289 -3.9555 -9.38699e-23)
(258.916 -4.58627 -1.33375e-21)
(258.294 -5.11887 1.34741e-21)
(257.347 -5.60966 8.93541e-17)
(256.252 -6.0824 9.06071e-17)
(255.198 -6.52794 2.7864e-21)
(254.091 -6.94629 7.71753e-24)
(253.068 -7.3565 -9.31558e-17)
(251.994 -7.72983 -7.55935e-24)
(251.001 -8.10906 2.89389e-21)
(249.972 -8.44642 9.55753e-17)
(249.025 -8.79547 9.63187e-17)
(248.028 -9.10378 0)
(247.111 -9.42635 -1.95292e-16)
(246.158 -9.71202 1.97019e-16)
(245.266 -10.0088 -3.95387e-16)
(244.364 -10.2769 -2.89755e-23)
(243.488 -10.5499 1.99945e-16)
(242.626 -10.8092 0)
(241.773 -11.0681 0)
(240.944 -11.3458 2.04668e-16)
(240.037 -11.6438 1.55755e-21)
(239.127 -11.9209 -7.8693e-22)
(238.168 -12.2073 0)
(237.2 -12.4742 6.15119e-23)
(236.218 -12.7508 0)
(235.155 -13.0083 2.10387e-16)
(234.133 -13.2744 2.1436e-16)
(232.953 -13.5282 2.12045e-16)
(231.758 -13.7776 2.15776e-16)
(230.53 -14.0338 0)
(229.075 -14.2678 -4.15796e-22)
(227.616 -14.5066 4.41656e-16)
(225.965 -14.7316 0)
(224.18 -14.9577 0)
(221.998 -15.1442 0)
(219.582 -15.3336 0)
(216.917 -15.48 -4.7266e-16)
(212.056 -15.5178 4.78336e-16)
(214.52 -15.8273 -9.72469e-16)
(130.896 -10.5958 1.57439e-14)
(246.66 363.908 -7.29238e-18)
(383.206 297.057 -6.5771e-17)
(403.383 165.463 -1.09114e-22)
(358.196 121.459 2.90299e-17)
(348.921 98.3662 6.5873e-21)
(344.09 83.7209 2.25174e-17)
(340.985 73.0509 5.51668e-17)
(338.383 64.7916 -3.26195e-17)
(335.827 58.0842 3.77353e-17)
(333.284 52.4186 -3.62988e-21)
(330.751 47.615 4.84572e-17)
(328.026 43.3152 3.2104e-21)
(325.751 39.6438 -3.38223e-21)
(323.245 36.2668 3.50622e-21)
(321.285 33.3167 -7.49743e-21)
(319.2 30.613 9.58889e-21)
(317.13 28.1115 7.57849e-23)
(315.363 25.8325 6.53879e-17)
(313.25 23.6799 -6.56737e-17)
(311.691 21.7025 4.1526e-21)
(309.706 19.8339 -6.77057e-17)
(307.99 18.0712 4.25554e-21)
(306.124 16.4182 6.99387e-17)
(304.25 14.8347 -6.89158e-22)
(302.447 13.344 -9.3859e-21)
(300.501 11.9127 -1.41061e-16)
(298.728 10.5542 7.24218e-17)
(296.81 9.25969 2.17992e-21)
(294.989 8.01832 -2.19074e-21)
(293.111 6.83124 0)
(291.265 5.6982 -2.19171e-21)
(289.355 4.60641 3.56432e-17)
(287.578 3.56006 -3.53755e-17)
(285.703 2.55552 1.77072e-17)
(283.911 1.59344 0)
(282.039 0.6691 0)
(280.224 -0.21842 0)
(278.309 -1.0692 -2.11076e-21)
(276.455 -1.88552 -1.69599e-17)
(274.489 -2.66973 2.05223e-21)
(272.598 -3.41643 -2.03832e-21)
(270.487 -4.14089 -1.10648e-22)
(270.75 -4.79522 4.91137e-21)
(270.111 -5.35165 8.19009e-17)
(269.162 -5.86556 8.27036e-17)
(268.053 -6.36078 -8.38818e-17)
(266.988 -6.82786 -2.57378e-21)
(265.869 -7.2666 -8.56058e-17)
(264.828 -7.69673 2.62846e-21)
(263.736 -8.08836 0)
(262.724 -8.4862 0)
(261.679 -8.84045 0)
(260.712 -9.20676 -1.78852e-16)
(259.703 -9.53084 1.80339e-16)
(258.765 -9.86951 3.62948e-16)
(257.795 -10.1698 0)
(256.882 -10.4815 -1.38554e-21)
(255.953 -10.7628 -1.85885e-16)
(255.062 -11.0501 1.86103e-16)
(254.171 -11.3221 -1.88402e-16)
(253.301 -11.5945 -1.88224e-16)
(252.443 -11.8858 1.90656e-16)
(251.517 -12.1992 0)
(250.572 -12.49 0)
(249.588 -12.7912 0)
(248.585 -13.0715 -1.94691e-16)
(247.569 -13.362 -7.45959e-22)
(246.471 -13.6328 -1.96443e-16)
(245.401 -13.9116 -2.0018e-16)
(244.184 -14.1786 -1.98095e-16)
(242.943 -14.4408 -2.01685e-16)
(241.659 -14.7095 0)
(240.157 -14.956 0)
(238.633 -15.2066 -4.13324e-16)
(236.916 -15.4433 -8.00907e-22)
(235.052 -15.6805 4.02618e-22)
(232.797 -15.8778 0)
(230.269 -16.0766 4.33873e-16)
(227.511 -16.2312 -4.22448e-22)
(222.429 -16.2753 -4.48038e-16)
(225.009 -16.558 4.55612e-16)
(146.972 -11.9789 -1.33754e-14)
(251.069 370.607 1.12238e-17)
(394.957 306.776 2.96576e-17)
(415.667 170.934 2.86723e-23)
(368.692 125.206 -2.54357e-17)
(358.161 101.072 1.61647e-17)
(353.275 86.0211 -2.00151e-17)
(350.281 75.0902 -7.2507e-21)
(347.877 66.647 2.91894e-17)
(345.566 59.7996 3.37996e-17)
(343.291 54.0187 -7.69957e-17)
(340.986 49.1115 -4.35434e-17)
(338.46 44.7132 0)
(336.19 40.9322 3.1653e-21)
(333.792 37.4657 -3.1098e-21)
(331.773 34.4183 5.63527e-17)
(329.752 31.6376 5.64825e-17)
(327.687 29.0587 5.89261e-17)
(325.922 26.7077 6.04471e-17)
(323.857 24.4912 0)
(322.263 22.4471 6.3683e-17)
(320.337 20.5227 1.14506e-21)
(318.608 18.7016 0)
(316.778 16.9965 -6.52505e-17)
(314.927 15.3618 -6.58596e-17)
(313.139 13.8219 -6.68754e-17)
(311.234 12.344 6.6042e-17)
(309.465 10.939 4.16451e-21)
(307.588 9.60111 -4.04773e-21)
(305.779 8.3165 0)
(303.931 7.08806 3.35423e-17)
(302.105 5.9147 4.12024e-21)
(300.223 4.78361 -3.35262e-17)
(298.464 3.69878 6.65792e-17)
(296.608 2.65686 -3.334e-17)
(294.84 1.65839 -1.64608e-17)
(292.986 0.698555 -4.01014e-21)
(291.197 -0.223602 0)
(289.305 -1.10817 0)
(287.474 -1.95751 1.60003e-17)
(285.532 -2.77405 0)
(283.667 -3.5521 -3.14118e-17)
(281.587 -4.30891 -9.83844e-23)
(281.547 -4.98536 0)
(280.887 -5.56342 -7.75106e-17)
(279.937 -6.09835 -1.56657e-16)
(278.823 -6.61425 -2.43243e-21)
(277.748 -7.10097 -8.01704e-17)
(276.621 -7.55844 1.62351e-16)
(275.565 -8.0068 -8.19278e-17)
(274.463 -8.41533 8.27313e-17)
(273.434 -8.8302 -2.54179e-21)
(272.377 -9.19999 -2.57677e-21)
(271.392 -9.5821 8.49442e-17)
(270.371 -9.92057 -1.71362e-16)
(269.415 -10.274 -1.7249e-16)
(268.43 -10.5876 0)
(267.498 -10.913 1.74885e-16)
(266.55 -11.2067 -2.70472e-21)
(265.642 -11.5069 -1.77119e-16)
(264.728 -11.7908 1.79354e-16)
(263.842 -12.0754 1.79255e-16)
(262.96 -12.3793 -3.63234e-16)
(262.016 -12.7067 -2.76788e-21)
(261.04 -13.01 1.39839e-21)
(260.032 -13.3246 -1.40654e-21)
(258.998 -13.6172 1.85692e-16)
(257.949 -13.9204 -1.8703e-16)
(256.82 -14.2033 0)
(255.707 -14.4938 0)
(254.457 -14.773 0)
(253.171 -15.0466 -1.92673e-16)
(251.838 -15.3266 -7.45994e-22)
(250.293 -15.5847 7.38865e-22)
(248.708 -15.8459 -3.95262e-16)
(246.929 -16.093 0)
(244.992 -16.3402 3.88095e-22)
(242.67 -16.5474 4.07505e-16)
(240.036 -16.7544 5.89402e-22)
(237.197 -16.9161 0)
(231.909 -16.9669 -2.06043e-22)
(234.589 -17.2138 2.06412e-22)
(160.381 -13.1793 -5.56782e-15)
(254.132 375.341 -9.81902e-18)
(405.024 315.337 2.78535e-17)
(426.941 176.111 4.04078e-18)
(378.458 128.758 4.65688e-17)
(366.635 103.59 -9.85886e-22)
(361.542 88.1147 1.84781e-17)
(358.584 76.9285 -2.2758e-17)
(356.323 68.3107 -1.7027e-21)
(354.211 61.3329 -3.12494e-17)
(352.165 55.4465 3.55711e-17)
(350.075 50.4484 4.02379e-17)
(347.754 45.9655 0)
(345.548 42.0932 -5.89772e-21)
(343.267 38.5483 -4.82706e-17)
(341.246 35.418 -5.28855e-17)
(339.296 32.5686 6.40931e-21)
(337.269 29.9221 -5.55331e-17)
(335.525 27.5072 -5.70853e-17)
(333.522 25.2334 -1.404e-20)
(331.918 23.1299 5.83786e-21)
(330.054 21.1549 1.2466e-21)
(328.334 19.2814 6.21524e-17)
(326.546 17.5291 0)
(324.729 15.8478 6.26951e-17)
(322.966 14.263 0)
(321.106 12.7425 7.72906e-21)
(319.352 11.2951 -7.86708e-21)
(317.517 9.91728 0)
(315.73 8.593 0)
(313.913 7.32643 -6.41418e-17)
(312.112 6.11596 -3.90534e-21)
(310.259 4.94855 0)
(308.518 3.82817 -3.18721e-17)
(306.687 2.7517 1.59607e-17)
(304.94 1.71958 3.89426e-21)
(303.109 0.72687 0)
(301.343 -0.227318 -3.82051e-21)
(299.475 -1.1432 7.79541e-18)
(297.667 -2.02308 -1.53582e-17)
(295.751 -2.86962 3.71814e-21)
(293.91 -3.67668 3.01633e-17)
(291.861 -4.46362 -5.97377e-17)
(291.563 -5.16114 3.65471e-17)
(290.876 -5.75916 4.56461e-21)
(289.926 -6.31351 1.50798e-16)
(288.813 -6.84867 0)
(287.728 -7.35362 7.72448e-17)
(286.596 -7.82852 -4.87428e-21)
(285.527 -8.29383 7.89874e-17)
(284.418 -8.71816 -7.97794e-17)
(283.375 -9.14885 0)
(282.308 -9.53313 0)
(281.307 -9.92991 2.5084e-21)
(280.275 -10.2818 -2.51815e-21)
(279.302 -10.6488 2.54826e-21)
(278.303 -10.9749 1.23694e-23)
(277.354 -11.313 -1.69007e-16)
(276.39 -11.6184 -1.70947e-16)
(275.464 -11.9303 -1.71261e-16)
(274.532 -12.2254 -1.73475e-16)
(273.629 -12.5214 0)
(272.726 -12.8371 1.75764e-16)
(271.763 -13.1773 0)
(270.761 -13.4923 0)
(269.729 -13.8193 0)
(268.666 -14.1233 -1.79908e-16)
(267.586 -14.4381 1.81259e-16)
(266.427 -14.7322 -2.77343e-21)
(265.274 -15.0336 1.85311e-16)
(263.993 -15.324 -1.83518e-16)
(262.665 -15.6081 1.86949e-16)
(261.284 -15.8986 8.44495e-24)
(259.699 -16.1672 -1.43473e-21)
(258.055 -16.438 3.83863e-16)
(256.219 -16.6947 0)
(254.213 -16.951 -3.93899e-16)
(251.828 -17.1671 -3.96081e-16)
(249.094 -17.3813 2.2077e-22)
(246.18 -17.5491 0)
(240.7 -17.6072 0)
(243.458 -17.8075 1.01395e-22)
(172.204 -14.2823 4.65584e-15)
(256.216 378.633 0)
(413.671 322.962 4.30059e-19)
(437.589 181.173 -3.80604e-18)
(387.878 132.256 -2.19284e-17)
(374.685 106.024 -7.92425e-22)
(369.232 90.0885 -1.74874e-17)
(366.22 78.6383 -2.49381e-21)
(364.038 69.8453 0)
(362.073 62.7394 0)
(360.213 56.7517 -3.3547e-17)
(358.32 51.6696 -3.79467e-17)
(356.198 47.1111 4.88986e-21)
(354.093 43.1603 -4.51842e-17)
(351.936 39.545 9.17623e-17)
(349.95 36.3419 0)
(348.078 33.4301 6.25518e-21)
(346.107 30.7228 1.26189e-22)
(344.398 28.2497 -1.33542e-20)
(342.464 25.9236 6.68192e-21)
(340.867 23.7661 -5.80051e-17)
(339.068 21.7443 5.74753e-17)
(337.371 19.823 -5.98712e-17)
(335.629 18.0268 0)
(333.852 16.3025 -6.04876e-17)
(332.121 14.6763 -7.46713e-21)
(330.309 13.1161 -7.4682e-21)
(328.578 11.6293 7.60687e-21)
(326.785 10.2143 3.07913e-17)
(325.024 8.85305 -3.13299e-17)
(323.241 7.55085 1.55314e-22)
(321.467 6.30572 7.56753e-21)
(319.645 5.10429 7.62595e-21)
(317.923 3.95066 -7.51138e-21)
(316.119 2.8418 0)
(314.392 1.77816 1.53103e-17)
(312.586 0.754621 3.84485e-18)
(310.84 -0.229554 6.08244e-23)
(308.997 -1.17484 -7.57549e-18)
(307.21 -2.08332 0)
(305.321 -2.95803 0)
(303.502 -3.79223 0)
(301.485 -4.60757 0)
(300.965 -5.3254 -4.42924e-21)
(300.245 -5.94205 7.25765e-17)
(299.293 -6.51453 -1.24882e-22)
(298.183 -7.06779 -4.56582e-21)
(297.091 -7.58983 4.58293e-21)
(295.955 -8.08115 -9.19606e-23)
(294.875 -8.56239 -7.70425e-17)
(293.76 -9.00161 -7.78479e-17)
(292.704 -9.44715 4.78611e-21)
(291.628 -9.84509 0)
(290.612 -10.2556 -4.899e-21)
(289.57 -10.6201 -1.61599e-16)
(288.582 -11 2.42481e-23)
(287.57 -11.3377 -5.00594e-21)
(286.604 -11.6877 3.30431e-16)
(285.625 -12.004 -5.08349e-21)
(284.682 -12.3271 1.67524e-16)
(283.733 -12.6327 1.69732e-16)
(282.813 -12.9392 2.59586e-21)
(281.891 -13.2659 1.18349e-23)
(280.909 -13.6181 -2.61786e-21)
(279.883 -13.9442 0)
(278.827 -14.2826 1.74529e-16)
(277.736 -14.5973 1.7631e-16)
(276.626 -14.923 0)
(275.438 -15.2275 2.72649e-21)
(274.248 -15.539 -1.81744e-16)
(272.936 -15.8399 3.60103e-16)
(271.566 -16.1336 -1.83462e-16)
(270.14 -16.4338 -8.28957e-24)
(268.516 -16.7122 2.82639e-21)
(266.816 -16.9919 9.33321e-24)
(264.925 -17.2574 3.83229e-16)
(262.851 -17.5218 7.741e-16)
(260.407 -17.746 0)
(257.577 -17.9667 -3.96878e-16)
(254.593 -18.1393 0)
(248.932 -18.2058 -3.93383e-22)
(251.745 -18.347 5.93348e-22)
(183.144 -15.3449 3.97171e-15)
(257.582 380.853 -3.59036e-22)
(421.043 329.788 -2.45791e-17)
(447.81 186.229 -3.4195e-18)
(397.194 135.798 0)
(382.537 108.446 -1.8052e-21)
(376.569 92.0025 1.68812e-17)
(373.403 80.2689 2.07647e-17)
(371.231 71.2931 0)
(369.359 64.0566 -7.1068e-21)
(367.64 57.9676 3.21424e-17)
(365.915 52.8046 0)
(363.982 48.176 -3.90398e-17)
(362.002 44.1556 4.33609e-17)
(359.974 40.4759 -4.41211e-17)
(358.049 37.2077 0)
(356.257 34.2379 0)
(354.356 31.4751 -5.14332e-17)
(352.689 28.9481 5.30127e-17)
(350.83 26.5734 5.3557e-17)
(349.252 24.3659 5.63186e-17)
(347.519 22.3003 0)
(345.855 20.3345 5.82244e-17)
(344.161 18.4973 -1.81757e-22)
(342.43 16.7328 -5.89035e-17)
(340.735 15.0677 5.99716e-17)
(338.971 13.4702 5.9367e-17)
(337.268 11.9464 6.11318e-17)
(335.518 10.4963 -3.00882e-17)
(333.787 9.10027 3.06221e-17)
(332.038 7.76444 -1.46433e-20)
(330.294 6.48661 3.04677e-17)
(328.503 5.25304 -7.45929e-21)
(326.801 4.06796 -6.54967e-23)
(325.024 2.92846 -1.51541e-17)
(323.316 1.83501 0)
(321.535 0.782279 -3.75142e-18)
(319.809 -0.230247 -1.86809e-18)
(317.992 -1.20337 7.41806e-18)
(316.225 -2.1389 7.11324e-21)
(314.362 -3.04028 0)
(312.563 -3.90013 2.87645e-17)
(310.579 -4.74242 6.93216e-21)
(309.866 -5.47997 -3.48736e-17)
(309.105 -6.11419 -7.12517e-17)
(308.151 -6.70372 -7.2142e-17)
(307.044 -7.27408 0)
(305.946 -7.81231 -9.06317e-21)
(304.807 -8.3192 -1.50066e-16)
(303.717 -8.81551 -9.20914e-21)
(302.597 -9.26886 7.66153e-17)
(301.529 -9.72847 0)
(300.445 -10.1393 0)
(299.415 -10.5629 7.88508e-17)
(298.363 -10.9393 1.59206e-16)
(297.359 -11.3313 -1.60396e-16)
(296.335 -11.6801 4.93408e-21)
(295.353 -12.0413 -3.2578e-16)
(294.359 -12.368 5.04912e-21)
(293.4 -12.7015 -1.65253e-16)
(292.434 -13.017 -5.12234e-21)
(291.496 -13.3335 1.67531e-16)
(290.557 -13.6707 5.17238e-21)
(289.556 -14.0341 5.19465e-21)
(288.507 -14.3706 1.72116e-16)
(287.428 -14.7198 -1.7244e-16)
(286.309 -15.0445 1.25258e-22)
(285.169 -15.3803 -1.75633e-16)
(283.953 -15.6946 0)
(282.726 -16.0156 0)
(281.384 -16.3261 -1.78129e-16)
(279.974 -16.6289 1.8154e-16)
(278.503 -16.938 -2.7973e-21)
(276.84 -17.2254 0)
(275.086 -17.5133 0)
(273.141 -17.7868 -3.79561e-16)
(271.002 -18.0587 -3.83424e-16)
(268.5 -18.2901 1.46578e-21)
(265.579 -18.5166 7.53708e-22)
(262.528 -18.6929 4.01967e-16)
(256.697 -18.7692 0)
(259.531 -18.8367 4.12229e-16)
(193.619 -16.4023 -3.47276e-15)
(258.422 382.262 1.82285e-17)
(427.241 335.913 -2.41583e-17)
(457.697 191.351 3.32804e-18)
(406.564 139.456 -5.34703e-22)
(390.359 110.916 0)
(383.718 93.9036 1.64921e-17)
(380.291 81.8584 -2.0281e-17)
(378.053 72.6863 0)
(376.215 65.3123 0)
(374.591 59.1189 0)
(373.003 53.8752 -3.50591e-17)
(371.24 49.1789 3.77117e-17)
(369.395 45.095 -4.19547e-17)
(367.499 41.3555 -1.05786e-20)
(365.654 38.0277 1.13941e-20)
(363.945 35.0036 0)
(362.121 32.189 5.01499e-17)
(360.505 29.6116 -5.17456e-17)
(358.722 27.1911 -1.04626e-16)
(357.173 24.9368 -1.826e-21)
(355.504 22.8297 -2.66817e-20)
(353.881 20.8221 -5.70258e-17)
(352.237 18.9461 5.70826e-17)
(350.554 17.1436 5.77976e-17)
(348.899 15.4417 -5.8866e-17)
(347.184 13.8087 -5.82634e-17)
(345.513 12.2499 -6.00845e-17)
(343.805 10.7664 -2.95434e-17)
(342.106 9.33736 1.4398e-22)
(340.391 7.96951 2.98338e-17)
(338.677 6.66058 -2.9956e-17)
(336.92 5.3964 0)
(335.237 4.18139 -2.97832e-17)
(333.488 3.01267 8.45111e-23)
(331.799 1.89084 -1.47752e-17)
(330.043 0.810266 -3.72058e-18)
(328.335 -0.229237 1.42303e-20)
(326.544 -1.22892 -1.43781e-20)
(324.795 -2.19018 1.40415e-20)
(322.958 -3.117 -2.8768e-17)
(321.178 -4.00124 -2.84449e-17)
(319.226 -4.86927 1.36975e-20)
(318.346 -5.62608 -3.44309e-17)
(317.537 -6.27701 -7.03616e-17)
(316.577 -6.88265 -7.13173e-17)
(315.474 -7.46927 -8.82568e-21)
(314.37 -8.02289 -7.32485e-17)
(313.23 -8.54461 7.42607e-17)
(312.129 -9.05528 7.50318e-17)
(311.005 -9.52211 0)
(309.925 -9.99509 0)
(308.834 -10.4183 0)
(307.789 -10.8542 -7.81368e-17)
(306.728 -11.242 0)
(305.708 -11.6455 1.59021e-16)
(304.673 -12.0049 0)
(303.675 -12.3767 1.61578e-16)
(302.666 -12.7133 2.87034e-23)
(301.69 -13.0566 -1.702e-23)
(300.708 -13.3816 -1.6626e-16)
(299.753 -13.7075 -1.66356e-16)
(298.795 -14.0545 5.1375e-21)
(297.775 -14.4285 -1.6872e-16)
(296.704 -14.7748 -3.42074e-16)
(295.601 -15.1342 -5.24364e-21)
(294.456 -15.4683 -3.46456e-16)
(293.286 -15.8137 1.74659e-16)
(292.042 -16.1371 -1.75283e-16)
(290.778 -16.467 -1.78818e-16)
(289.405 -16.7865 0)
(287.956 -17.0978 0)
(286.441 -17.4152 0)
(284.74 -17.7109 0)
(282.933 -18.0062 2.84649e-21)
(280.935 -18.2872 -5.77031e-21)
(278.732 -18.5657 2.90431e-21)
(276.174 -18.8036 0)
(273.164 -19.0352 -3.91877e-16)
(270.05 -19.2138 -4.00656e-16)
(264.061 -19.3019 -4.03517e-16)
(266.874 -19.2795 -4.10238e-16)
(203.849 -17.4739 3.10096e-15)
(258.881 383.053 -1.67701e-17)
(432.348 341.432 2.27919e-17)
(467.269 196.585 0)
(416.094 143.289 1.99258e-17)
(398.281 113.485 -1.32204e-17)
(390.814 95.8334 -1.62874e-17)
(387.01 83.4396 1.99552e-17)
(384.626 74.0522 -2.35012e-17)
(382.761 66.5301 0)
(381.182 60.2262 -3.03796e-17)
(379.694 54.8992 2.4949e-20)
(378.076 50.1353 -1.75646e-20)
(376.367 45.9912 4.08436e-17)
(374.6 42.1949 4.1709e-17)
(372.849 38.8117 4.61144e-17)
(371.223 35.7358 -4.90933e-22)
(369.483 32.8724 2.37304e-20)
(367.921 30.2472 2.49742e-20)
(366.216 27.7832 5.13243e-17)
(364.702 25.4845 -1.08169e-16)
(363.097 23.3376 -5.37316e-17)
(361.519 21.2905 -5.61114e-17)
(359.926 19.3773 -5.61673e-17)
(358.293 17.5386 -2.76259e-20)
(356.679 15.8015 0)
(355.013 14.1347 0)