/*--------------------------------*- C++ -*----------------------------------*\
| =========                 |                                                 |
| \\      /  F ield         | OpenFOAM: The Open Source CFD Toolbox           |
|  \\    /   O peration     | Version:  5.x                                   |
|   \\  /    A nd           | Web:      www.OpenFOAM.org                      |
|    \\/     M anipulation  |                                                 |
\*---------------------------------------------------------------------------*/
FoamFile
{
    version     2.0;
    format      ascii;
    class       volVectorField;
    location    "150";
    object      U;
}
// * * * * * * * * * * * * * * * * * * * * * * * * * * * * * * * * * * * * * //

dimensions      [0 1 -1 0 0 0 0];

internalField   nonuniform List<vector> 
11040
(
(1.70575 2.05013 0)
(1.84786 7.74409 -1.04932e-19)
(4.29822 12.6867 1.09318e-17)
(7.61723 15.5107 1.427e-17)
(11.1292 16.7447 3.81432e-17)
(14.3721 16.7985 -2.11181e-17)
(17.15 16.0383 -2.2091e-17)
(19.4249 14.7671 2.34722e-17)
(21.1287 13.1221 5.6242e-17)
(22.1769 11.1685 1.83369e-18)
(22.3091 8.78741 3.12925e-17)
(21.8108 6.53101 -1.97483e-18)
(21.3408 4.92303 3.26095e-17)
(21.2086 3.91191 3.44498e-17)
(21.1004 3.05519 3.04158e-17)
(20.8333 2.24057 2.01935e-17)
(20.4239 1.49599 -1.81358e-17)
(19.9384 0.832446 -1.96781e-18)
(19.4078 0.241865 1.99486e-18)
(18.8442 -0.282365 1.54889e-17)
(18.2474 -0.742448 1.5182e-17)
(17.7114 -1.10941 1.58453e-17)
(17.2256 -1.38522 3.05286e-17)
(16.7449 -1.61715 1.96873e-18)
(16.2688 -1.81348 -2.54134e-20)
(15.7982 -1.97872 -9.82001e-19)
(15.3319 -2.11697 6.10739e-17)
(14.8676 -2.23157 -9.33499e-19)
(14.4023 -2.32512 6.09817e-17)
(13.9324 -2.39962 -5.86008e-17)
(13.4534 -2.45651 -9.3551e-19)
(12.9592 -2.49657 -4.50488e-19)
(12.4419 -2.51969 4.61299e-19)
(11.8919 -2.52468 0)
(11.2921 -2.50909 -1.14946e-16)
(10.6254 -2.46858 0)
(9.86075 -2.39375 0)
(8.9726 -2.27567 2.21668e-19)
(7.8193 -2.07512 -6.52974e-21)
(6.5391 -1.78571 1.26778e-16)
(3.82661 -1.4158 2.96613e-16)
(2.84232 2.82231 0)
(3.32688 7.24522 0)
(6.12551 11.0149 -6.57724e-18)
(9.56804 13.2133 8.77778e-18)
(13.0952 14.1625 -2.31226e-17)
(16.3258 14.1635 2.81621e-17)
(19.0825 13.4884 1.47355e-17)
(21.3128 12.3531 2.11601e-18)
(23.0733 10.955 -1.00503e-18)
(24.4528 9.46053 2.22521e-17)
(25.3734 7.75419 -2.49365e-18)
(25.4736 6.16506 0)
(25.0254 4.97134 0)
(24.5215 4.06427 -2.08781e-17)
(24.1332 3.14197 -2.35828e-17)
(23.6975 2.26335 -1.8404e-17)
(23.1963 1.48194 0)
(22.653 0.787116 1.27521e-18)
(22.0718 0.164702 -3.81064e-18)
(21.4512 -0.388934 -2.49574e-18)
(20.7911 -0.875576 -1.09452e-17)
(20.1781 -1.26126 -1.02802e-17)
(19.6347 -1.55381 -1.25809e-18)
(19.1023 -1.80292 2.15033e-17)
(18.5789 -2.01584 -1.87702e-17)
(18.0634 -2.19602 -1.26917e-18)
(17.5555 -2.34797 -3.91629e-17)
(17.0534 -2.47509 5.9704e-19)
(16.5545 -2.58009 -3.88587e-17)
(16.0561 -2.66514 3.77568e-17)
(15.5543 -2.73185 3.78164e-17)
(15.0443 -2.78116 -3.78659e-17)
(14.5197 -2.81306 1.78308e-20)
(13.9726 -2.82642 8.3913e-19)
(13.3902 -2.81937 3.46744e-17)
(12.7589 -2.78736 0)
(12.053 -2.72087 2.57825e-19)
(11.2602 -2.61228 -6.62296e-17)
(10.2448 -2.41948 -6.47151e-17)
(9.19409 -2.15698 -6.33056e-17)
(6.75262 -1.59862 -2.06932e-16)
(4.47177 3.2729 0)
(5.172 6.80462 0)
(7.24204 9.94903 1.97033e-18)
(9.88659 12.0633 -5.80209e-18)
(12.739 13.2669 6.77208e-18)
(15.5338 13.6595 -1.00034e-17)
(18.0856 13.3778 -9.56166e-18)
(20.2903 12.5765 0)
(22.0938 11.3982 -1.81122e-17)
(23.5131 9.95467 -1.15496e-17)
(24.5348 8.25033 0)
(24.9792 6.66514 0)
(24.9793 5.42922 -1.56623e-17)
(24.8507 4.44629 -1.58402e-17)
(24.7073 3.47234 -1.98777e-18)
(24.4565 2.55586 2.02812e-18)
(24.0934 1.7327 0)
(23.6581 0.992052 0)
(23.1676 0.322983 9.9077e-19)
(22.6241 -0.27689 -1.91368e-18)
(22.0285 -0.808462 1.92489e-18)
(21.4618 -1.231 -6.03119e-18)
(20.948 -1.55619 -5.02354e-20)
(20.4367 -1.83537 1.27621e-17)
(19.9282 -2.07513 1.00943e-18)
(19.4224 -2.27938 9.27628e-19)
(18.9196 -2.45281 8.40506e-21)
(18.4188 -2.59907 -9.47199e-19)
(17.9182 -2.72102 0)
(17.4156 -2.82097 0)
(16.9075 -2.90059 -5.70568e-17)
(16.3895 -2.96087 5.56421e-17)
(15.856 -3.00186 -2.70909e-17)
(15.2998 -3.02242 0)
(14.7091 -3.02042 -2.63865e-17)
(14.0726 -2.99112 -2.58034e-17)
(13.3683 -2.92528 0)
(12.59 -2.8123 -2.56969e-19)
(11.6201 -2.61799 1.89328e-19)
(10.6703 -2.32317 0)
(8.64122 -1.81961 9.16931e-17)
(6.12717 3.57817 -1.04144e-19)
(6.85443 6.41646 1.24022e-19)
(8.4316 8.99255 1.5105e-18)
(10.5419 10.8713 0)
(12.9337 12.0726 -1.04132e-17)
(15.3903 12.597 0)
(17.7326 12.5062 2.17483e-17)
(19.8301 11.9105 -2.4643e-19)
(21.597 10.9294 2.49363e-18)
(23.0007 9.68503 1.90876e-17)
(24.0073 8.20012 2.80949e-18)
(24.5229 6.7215 8.73353e-18)
(24.6516 5.49306 2.74937e-17)
(24.6459 4.50976 1.24779e-17)
(24.6183 3.57827 0)
(24.4976 2.68848 -3.1087e-18)
(24.26 1.87072 5.96824e-20)
(23.9372 1.12568 -3.06465e-18)
(23.5502 0.446374 -1.52918e-18)
(23.1047 -0.168782 1.54867e-18)
(22.6026 -0.719162 5.99912e-18)
(22.1142 -1.16215 6.39344e-18)
(21.6623 -1.50676 0)
(21.2044 -1.80472 -2.66738e-17)
(20.7417 -2.06248 1.40154e-17)
(20.2755 -2.28414 -1.22994e-17)
(19.8068 -2.47405 2.42768e-17)
(19.3357 -2.63574 0)
(18.861 -2.77201 0)
(18.381 -2.88508 0)
(17.8928 -2.97658 2.27184e-17)
(17.3928 -3.04748 -2.29743e-17)
(16.8761 -3.09777 6.9855e-19)
(16.3366 -3.12622 2.20202e-17)
(15.7633 -3.13052 2.01675e-17)
(15.1467 -3.10559 2.06136e-17)
(14.4674 -3.04254 3.95079e-17)
(13.7219 -2.92783 3.76083e-17)
(12.8074 -2.7364 1.47104e-19)
(11.9222 -2.41512 3.45739e-17)
(10.2094 -1.96132 -3.41257e-17)
(7.68286 3.75598 0)
(8.39259 6.0338 -5.40229e-19)
(9.62695 8.11064 -1.20709e-18)
(11.2779 9.74101 2.0872e-19)
(13.2217 10.904 7.36632e-18)
(15.3042 11.5408 -9.70689e-18)
(17.3805 11.6512 -8.23608e-19)
(19.3196 11.2888 -1.34746e-17)
(21.0148 10.5386 0)
(22.4128 9.4984 -1.79052e-17)
(23.473 8.20049 0)
(24.1008 6.83266 -4.7995e-18)
(24.3448 5.62805 -1.45534e-17)
(24.4091 4.63465 0)
(24.425 3.71346 9.78427e-18)
(24.3629 2.83062 0)
(24.1946 2.01239 0)
(23.9407 1.2648 2.53125e-18)
(23.6218 0.580881 2.49344e-18)
(23.2451 -0.0420742 0)
(22.8128 -0.60294 -4.83156e-18)
(22.3872 -1.05787 0)
(21.9901 -1.41441 0)
(21.5851 -1.72475 1.01764e-17)
(21.1735 -1.99517 0)
(20.7561 -2.22977 -9.99427e-18)
(20.3336 -2.43255 -1.97746e-17)
(19.9057 -2.60687 0)
(19.4714 -2.75536 0)
(19.0292 -2.88006 0)
(18.5772 -2.98244 -1.97318e-17)
(18.1124 -3.0633 -1.65077e-17)
(17.6305 -3.12254 1.72842e-17)
(17.1263 -3.15881 5.35222e-19)
(16.5903 -3.1696 -5.39618e-19)
(16.0148 -3.1495 0)
(15.3833 -3.08995 -3.19824e-17)
(14.6951 -2.97496 3.08118e-17)
(13.863 -2.78693 -2.95951e-17)
(13.0637 -2.45245 -2.74887e-17)
(11.6329 -2.02684 -5.40368e-20)
(9.12033 3.82542 2.01718e-19)
(9.78242 5.64782 2.82119e-19)
(10.7664 7.30877 -1.74172e-18)
(12.0512 8.68937 1.14778e-18)
(13.6034 9.76222 -1.73901e-18)
(15.3272 10.4473 9.71205e-18)
(17.1183 10.7074 -1.19636e-17)
(18.8632 10.5508 1.07582e-17)
(20.4508 10.0247 6.05552e-18)
(21.8116 9.20324 -3.2699e-18)
(22.9023 8.12438 0)
(23.6357 6.91543 0)
(24.0076 5.77051 3.83738e-18)
(24.1583 4.77604 -3.94853e-18)
(24.2186 3.85987 -1.58936e-17)
(24.1979 2.98543 3.98887e-18)
(24.0763 2.16914 -8.04634e-18)
(23.8677 1.41978 5.92216e-20)
(23.5922 0.732244 -3.95472e-18)
(23.259 0.1034 7.92608e-18)
(22.8713 -0.465179 -9.78878e-18)
(22.4862 -0.928643 4.15367e-18)
(22.1247 -1.29359 -2.09574e-18)
(21.7554 -1.61244 -2.03972e-18)
(21.3799 -1.89139 1.02783e-17)
(20.999 -2.13476 2.74931e-20)
(20.6135 -2.34641 1.81998e-17)
(20.2231 -2.5296 1.39606e-17)
(19.8268 -2.68684 0)
(19.4232 -2.82005 0)
(19.0101 -2.93061 1.44065e-17)
(18.5849 -3.0192 3.10651e-17)
(18.1438 -3.08562 9.07453e-19)
(17.6823 -3.12835 -1.44353e-17)
(17.1928 -3.14466 -1.49106e-17)
(16.6694 -3.12895 1.40395e-17)
(16.0988 -3.07314 -4.19943e-19)
(15.4834 -2.9598 -5.05494e-17)
(14.7528 -2.77738 4.83815e-17)
(14.0607 -2.44404 -8.64473e-20)
(12.9095 -2.0462 -2.18926e-17)
(10.4279 3.80574 0)
(11.0275 5.26017 8.7281e-19)
(11.8243 6.58304 3.03651e-18)
(12.8274 7.72789 1.20608e-18)
(14.0516 8.67785 5.16657e-18)
(15.447 9.35661 6.0424e-18)
(16.9485 9.71286 -1.08513e-17)
(18.4707 9.72556 3.90491e-18)
(19.9139 9.40784 0)
(21.204 8.80478 5.45899e-18)
(22.2948 7.94919 -1.12311e-17)
(23.1073 6.92419 1.17038e-17)
(23.6013 5.87786 -5.53025e-20)
(23.8547 4.91215 0)
(23.9779 4.0122 3.30573e-18)
(24.0061 3.15339 1.9709e-20)
(23.9326 2.34369 3.29764e-18)
(23.7671 1.59409 3.31132e-18)
(23.5292 0.903723 -1.62757e-18)
(23.2307 0.270065 -2.81098e-18)
(22.8766 -0.304985 3.3074e-18)
(22.5205 -0.775689 3.43672e-18)
(22.1835 -1.14789 0)
(21.8378 -1.47392 -3.33949e-18)
(21.4856 -1.7598 -6.65938e-18)
(21.1282 -2.00991 8.42318e-18)
(20.7665 -2.22796 -4.93428e-18)
(20.4007 -2.41714 -1.31389e-17)
(20.0304 -2.58003 1.60054e-18)
(19.6543 -2.71857 -4.27322e-20)
(19.2708 -2.83415 9.45338e-18)
(18.8775 -2.92736 3.08656e-18)
(18.4713 -2.99789 1.06288e-17)
(18.0485 -3.04417 0)
(17.6028 -3.06346 1.16015e-17)
(17.1301 -3.05013 -1.19596e-17)
(16.6205 -2.99677 1.1292e-17)
(16.079 -2.8857 4.18814e-17)
(15.4535 -2.70993 -1.96232e-17)
(14.8703 -2.39032 -7.18626e-20)
(13.9878 -2.02182 3.60287e-17)
(11.6004 3.71691 -1.13446e-18)
(12.1331 4.87552 3.48991e-19)
(12.7869 5.92652 1.23214e-19)
(13.5775 6.86012 -3.91429e-18)
(14.5382 7.67259 -2.32402e-18)
(15.6489 8.30355 -7.77842e-18)
(16.8757 8.70333 6.02601e-18)
(18.1633 8.83773 1.02015e-17)
(19.4335 8.6961 -7.08506e-18)
(20.6182 8.29653 0)
(21.6723 7.66027 -4.65168e-18)
(22.5255 6.83538 -1.84803e-19)
(23.1182 5.92431 -1.92199e-19)
(23.4766 5.02358 5.04432e-18)
(23.6783 4.15846 5.2258e-18)
(23.7675 3.32576 -5.30331e-18)
(23.7502 2.53125 0)
(23.6352 1.78697 0)
(23.4399 1.09682 6.69293e-18)
(23.1785 0.460243 -5.74946e-18)
(22.8577 -0.120213 2.60181e-18)
(22.5288 -0.597523 -2.86507e-18)
(22.2132 -0.976554 -2.77262e-18)
(21.887 -1.30926 0)
(21.553 -1.60141 -2.72985e-18)
(21.2131 -1.85742 2.77545e-18)
(20.8685 -2.08097 5.45237e-18)
(20.5197 -2.27517 0)
(20.1668 -2.44252 0)
(19.809 -2.58493 -1.29686e-18)
(19.4451 -2.70363 -1.03372e-17)
(19.0735 -2.79918 -8.91035e-18)
(18.692 -2.87129 -1.87927e-17)
(18.2977 -2.91853 -1.245e-18)
(17.8859 -2.93827 0)
(17.4542 -2.92504 5.72223e-19)
(16.9963 -2.87224 -9.5965e-18)
(16.5181 -2.76344 1.0973e-19)
(15.9858 -2.5944 -1.69833e-17)
(15.4947 -2.29829 -1.54488e-17)
(14.839 -1.95714 -1.49765e-17)
(12.638 3.57679 6.45976e-19)
(13.1059 4.49866 1.07541e-20)
(13.6482 5.33225 -1.52952e-18)
(14.2791 6.08396 3.45733e-18)
(15.0339 6.75976 0)
(15.9089 7.31728 4.42737e-18)
(16.8911 7.71661 -9.27243e-18)
(17.9499 7.92301 -5.93301e-18)
(19.0315 7.91386 5.65468e-18)
(20.082 7.6876 6.78163e-18)
(21.0619 7.25242 4.36848e-19)
(21.9125 6.62954 -1.48752e-17)
(22.5676 5.88027 0)
(23.0175 5.08126 4.10698e-18)
(23.3035 4.27755 -8.4343e-18)
(23.4634 3.48759 -4.24988e-18)
(23.5111 2.72141 -4.36084e-18)
(23.4555 1.99226 4.42502e-18)
(23.312 1.3086 -2.18924e-18)
(23.095 0.673204 0)
(22.8133 0.08996 5.44475e-18)
(22.5152 -0.392438 -9.21773e-18)
(22.2233 -0.77758 6.81965e-18)
(21.9178 -1.11658 -6.96161e-20)
(21.6024 -1.4148 -4.48349e-18)
(21.2794 -1.67654 4.55437e-18)
(20.9506 -1.90535 0)
(20.6169 -2.1042 -1.1002e-17)
(20.2788 -2.27552 -4.35045e-18)
(19.9359 -2.42113 -2.18422e-18)
(19.5875 -2.54225 8.48969e-18)
(19.2326 -2.63942 2.06263e-18)
(18.8696 -2.71234 -2.074e-18)
(18.4967 -2.75961 9.91419e-19)
(18.1107 -2.77871 5.90409e-18)
(17.7106 -2.76467 9.74728e-19)
(17.2936 -2.71185 0)
(16.8654 -2.60639 -1.47752e-17)
(16.4079 -2.44491 1.42088e-17)
(15.9866 -2.17901 1.30619e-17)
(15.4943 -1.86563 0)
(13.5458 3.40102 0)
(13.954 4.13411 0)
(14.4074 4.79418 0)
(14.9172 5.39352 -9.2592e-18)
(15.5138 5.94346 6.60349e-18)
(16.2005 6.4168 -3.44601e-18)
(16.9761 6.78522 -4.00974e-18)
(17.827 7.02019 -3.48457e-19)
(18.7205 7.09682 4.58459e-18)
(19.6194 7.0031 5.40891e-18)
(20.4942 6.737 -5.56724e-18)
(21.2991 6.30081 6.398e-18)
(21.9727 5.72326 -2.60755e-19)
(22.4852 5.05516 6.63412e-18)
(22.8472 4.34275 -1.36835e-17)
(23.0804 3.61789 1.05793e-17)
(23.1983 2.89785 7.13263e-18)
(23.2098 2.1982 -7.22345e-18)
(23.127 1.53145 3.62795e-18)
(22.9638 0.904532 0)
(22.7295 0.323545 8.04822e-18)
(22.4691 -0.160759 -5.68294e-18)
(22.206 -0.550187 -1.84647e-18)
(21.9256 -0.894354 3.70641e-18)
(21.6324 -1.19799 -7.44108e-18)
(21.3292 -1.46507 0)
(21.0184 -1.69891 0)
(20.7014 -1.90229 3.68534e-18)
(20.3792 -2.07749 1.79354e-17)
(20.0518 -2.22624 7.0486e-18)
(19.7192 -2.3497 -6.97555e-18)
(19.3806 -2.44838 -1.69036e-18)
(19.0353 -2.522 8.44157e-18)
(18.6824 -2.56936 1.62608e-18)
(18.3195 -2.58823 -9.67048e-18)
(17.9471 -2.57434 1.59875e-18)
(17.5649 -2.52293 6.14645e-18)
(17.1779 -2.42339 -7.29293e-19)
(16.7793 -2.27241 -1.08081e-17)
(16.412 -2.04028 0)
(16.0247 -1.7599 0)
(14.3317 3.20304 0)
(14.6861 3.7858 0)
(15.0676 4.30749 -1.84954e-20)
(15.4841 4.7816 5.37226e-18)
(15.9597 5.22157 0)
(16.4997 5.61117 6.21864e-18)
(17.1078 5.93202 3.35773e-18)
(17.7805 6.16365 0)
(18.5006 6.28452 -8.05644e-18)
(19.2454 6.27974 3.63267e-18)
(19.996 6.14194 -5.21092e-19)
(20.7204 5.86233 4.82506e-18)
(21.3686 5.44743 -5.42883e-18)
(21.9048 4.92388 0)
(22.3194 4.32723 -1.10327e-17)
(22.6166 3.69128 1.13615e-17)
(22.8027 3.03833 0)
(22.8835 2.38655 0)
(22.8677 1.75162 2.94581e-18)
(22.7664 1.14455 -1.19142e-17)
(22.5883 0.574273 5.87748e-18)
(22.3733 0.0937849 0)
(22.1456 -0.296254 -6.07486e-18)
(21.8965 -0.642999 1.10219e-19)
(21.6308 -0.950289 6.15416e-18)
(21.3523 -1.22152 -2.99213e-18)
(21.0638 -1.45962 0)
(20.7674 -1.66705 0)
(20.4644 -1.8459 2.84762e-18)
(20.1557 -1.99775 -1.1557e-17)
(19.8414 -2.12368 5.68805e-18)
(19.5217 -2.22418 -5.65958e-18)
(19.1963 -2.29906 -2.78664e-18)
(18.865 -2.34734 0)
(18.5268 -2.36721 -3.98251e-18)
(18.1826 -2.3553 -3.77341e-20)
(17.8339 -2.30787 -1.1338e-17)
(17.4852 -2.21774 0)
(17.1356 -2.08179 9.40956e-18)
(16.8138 -1.88452 -9.23512e-18)
(16.4937 -1.64373 0)
(15.0053 2.99404 0)
(15.3119 3.45706 2.57911e-18)
(15.6342 3.86836 -2.28817e-18)
(15.9777 4.24089 0)
(16.3603 4.58822 -5.29441e-18)
(16.7872 4.90129 -2.24229e-19)
(17.2636 5.16895 2.30163e-17)
(17.7908 5.37783 -3.03047e-17)
(18.3609 5.51174 1.90294e-17)
(18.9619 5.55738 1.75136e-17)
(19.5839 5.50627 -1.45256e-17)
(20.207 5.34534 -4.03853e-18)
(20.7947 5.06825 8.27134e-18)
(21.3147 4.68391 -4.32239e-18)
(21.7488 4.21378 1.39437e-17)
(22.0881 3.68478 -9.23839e-18)
(22.3297 3.1188 -4.65419e-18)
(22.4741 2.5347 -2.36355e-18)
(22.5248 1.94964 -8.46748e-18)
(22.4892 1.3776 1.83275e-17)
(22.3737 0.83019 -9.70051e-18)
(22.2109 0.362282 -3.0869e-19)
(22.0252 -0.0222927 -1.25466e-18)
(21.8136 -0.366996 0)
(21.5816 -0.674492 7.37286e-18)
(21.3334 -0.947342 -2.47697e-18)
(21.0725 -1.18785 -7.22742e-18)
(20.8017 -1.39807 4.86209e-18)
(20.5227 -1.57973 -9.49071e-18)
(20.2369 -1.73426 4.7519e-18)
(19.9451 -1.8626 0)
(19.6481 -1.96524 6.87164e-18)
(19.3463 -2.0421 2.27068e-18)
(19.0401 -2.09249 -2.17447e-18)
(18.7294 -2.11513 1.29397e-17)
(18.4157 -2.1076 2.09003e-18)
(18.1017 -2.06728 4.10821e-18)
(17.7909 -1.98991 -4.03462e-18)
(17.4854 -1.8733 -3.93277e-18)
(17.2046 -1.71064 7.28482e-18)
(16.9326 -1.51309 2.32552e-19)
(15.5768 2.78299 0)
(15.8413 3.15048 -1.33391e-19)
(16.1144 3.47373 -2.17607e-18)
(16.3996 3.76458 -9.11521e-18)
(16.71 4.03577 4.29934e-18)
(17.0501 4.28259 -5.0917e-18)
(17.4247 4.49865 -5.34871e-18)
(17.8367 4.67581 2.05004e-17)
(18.2835 4.80296 -5.5214e-18)
(18.7594 4.86996 -1.15523e-17)
(19.2608 4.8697 1.84961e-17)
(19.7767 4.78926 -1.26654e-17)
(20.2831 4.61723 -6.67424e-18)
(20.7554 4.35189 3.67435e-18)
(21.1749 4.00272 0)
(21.5271 3.58665 0)
(21.8021 3.12044 1.95792e-17)
(21.9946 2.62054 2.14867e-18)
(22.1031 2.10321 -1.58512e-17)
(22.1299 1.58328 1.01917e-18)
(22.078 1.07389 -8.91431e-18)
(21.9708 0.630255 1.64898e-17)
(21.8316 0.259777 -8.11203e-18)
(21.6627 -0.0759479 0)
(21.4699 -0.37816 9.91507e-19)
(21.2575 -0.64834 -7.89265e-18)
(21.0297 -0.887968 9.95337e-18)
(20.7896 -1.09848 -7.7483e-18)
(20.5396 -1.28121 5.88749e-18)
(20.2817 -1.43727 0)
(20.0171 -1.56747 -3.75461e-18)
(19.7473 -1.67225 -7.39426e-18)
(19.4732 -1.75168 3.69306e-18)
(19.1958 -1.80538 -3.54711e-18)
(18.9158 -1.83263 -1.69392e-18)
(18.6352 -1.83193 3.46228e-18)
(18.357 -1.80177 -5.09353e-18)
(18.0842 -1.74007 3.2771e-18)
(17.8194 -1.64588 2.39775e-18)
(17.5763 -1.51685 4.05341e-19)
(17.3435 -1.36198 -5.76649e-18)
(16.0569 2.57677 2.06859e-18)
(16.2845 2.86789 8.39408e-18)
(16.5162 3.12086 -7.95289e-18)
(16.7541 3.34646 0)
(17.0079 3.5561 7.07594e-20)
(17.2809 3.74761 0)
(17.5772 3.9175 2.61043e-17)
(17.8998 4.06109 -2.19709e-17)
(18.2486 4.17118 -1.88289e-17)
(18.6213 4.24081 2.38752e-17)
(19.0175 4.26487 -1.01637e-17)
(19.4324 4.2328 5.22974e-18)
(19.8511 4.13283 5.68902e-18)
(20.2572 3.95876 1.17046e-17)
(20.6358 3.71236 3.16289e-19)
(20.9723 3.40165 -1.22623e-17)
(21.2544 3.03681 9.67599e-18)
(21.473 2.62956 -1.27646e-17)
(21.6222 2.19297 0)
(21.7002 1.7404 -1.30829e-17)
(21.7058 1.28461 8.7494e-19)
(21.6527 0.878555 1.28284e-17)
(21.561 0.532799 -1.00826e-19)
(21.4372 0.215078 0)
(21.2869 -0.0743296 -8.21745e-19)
(21.1145 -0.335668 -7.98448e-19)
(20.9241 -0.569435 0)
(20.7193 -0.776328 0)
(20.503 -0.957133 2.17692e-20)
(20.2775 -1.11259 0)
(20.0446 -1.24329 4.59649e-18)
(19.8061 -1.34961 0)
(19.5636 -1.43172 -5.9013e-18)
(19.3186 -1.48954 5.86655e-18)
(19.0721 -1.52286 0)
(18.8263 -1.53096 -2.80836e-18)
(18.5844 -1.51325 2.74948e-18)
(18.3489 -1.46914 -1.37552e-18)
(18.1221 -1.39873 -3.99616e-18)
(17.9134 -1.30171 3.20907e-19)
(17.7149 -1.18604 7.20372e-18)
(16.4563 2.38042 -5.60008e-18)
(16.6516 2.61031 -2.23954e-19)
(16.8483 2.8072 3.66608e-18)
(17.0474 2.98088 7.2594e-18)
(17.256 3.14133 1.84016e-17)
(17.4767 3.28779 -2.19457e-17)
(17.7126 3.41843 2.49915e-20)
(17.9665 3.53069 1.55699e-17)
(18.2388 3.62011 -3.16502e-17)
(18.5292 3.68216 -4.50159e-19)
(18.8387 3.71359 2.10189e-17)
(19.1655 3.70657 -8.82759e-18)
(19.5011 3.65127 1.84722e-17)
(19.8356 3.54074 -2.78521e-17)
(20.1586 3.37309 4.78899e-18)
(20.4586 3.15049 0)
(20.7241 2.87746 2.34968e-17)
(20.9452 2.56083 -2.08998e-17)
(21.114 2.20941 -2.13459e-17)
(21.2256 1.83338 4.01697e-17)
(21.2758 1.4434 -2.13119e-17)
(21.269 1.08703 1.00028e-18)
(21.2212 0.776764 8.44076e-20)
(21.1412 0.486905 1.06152e-17)
(21.0336 0.219065 -2.10469e-17)
(20.9025 -0.0258374 1.11775e-17)
(20.7519 -0.247316 -9.66779e-18)
(20.5854 -0.445277 1.16246e-17)
(20.4061 -0.619893 1.13818e-17)
(20.2164 -0.771461 -1.01355e-17)
(20.0186 -0.900292 -2.48279e-18)
(19.8148 -1.00665 -3.63695e-18)
(19.6069 -1.09072 1.08694e-17)
(19.3966 -1.15264 -9.51153e-18)
(19.1854 -1.1926 4.7145e-18)
(18.9754 -1.21044 2.29726e-18)
(18.7696 -1.20618 0)
(18.5698 -1.18017 2.20256e-18)
(18.3782 -1.13311 2.15783e-18)
(18.2009 -1.06555 2.14384e-18)
(18.033 -0.984251 -2.05449e-18)
(16.7849 2.19727 -9.2107e-20)
(16.9519 2.37798 -8.29811e-19)
(17.1187 2.53015 -3.21167e-18)
(17.2857 2.66276 6.5975e-18)
(17.458 2.78428 -2.55703e-17)
(17.6375 2.89469 2.6076e-17)
(17.8267 2.99309 -3.24707e-17)
(18.0275 3.07816 -2.02312e-17)
(18.241 3.14721 6.20584e-18)
(18.4672 3.19741 -5.99391e-19)
(18.7075 3.22678 2.82812e-17)
(18.9617 3.22996 8.57309e-20)
(19.2251 3.19957 0)
(19.4919 3.12966 7.91437e-18)
(19.7558 3.01732 -8.00914e-18)
(20.0086 2.86186 8.06069e-18)
(20.2416 2.66423 0)
(20.4459 2.42738 -1.72707e-17)
(20.614 2.15631 3.6925e-17)
(20.7397 1.8577 -1.3084e-17)
(20.8172 1.53915 1.74847e-17)
(20.8442 1.2404 -1.90591e-17)
(20.8321 0.974116 -5.30504e-19)
(20.79 0.720825 1.9611e-19)
(20.7214 0.482992 -1.7018e-17)
(20.6297 0.262376 1.70359e-17)
(20.5183 0.0602378 -5.33066e-19)
(20.3905 -0.122641 -1.05486e-18)
(20.2492 -0.285861 8.20488e-18)
(20.0969 -0.42927 -9.22812e-18)
(19.936 -0.552866 1.01541e-18)
(19.7687 -0.656737 -1.00068e-18)
(19.5969 -0.741018 3.90466e-18)
(19.4225 -0.805936 -1.99715e-18)
(19.2471 -0.851891 -7.6184e-18)
(19.0728 -0.879031 1.90441e-18)
(18.9019 -0.887727 -1.83105e-18)
(18.736 -0.878757 3.64389e-18)
(18.5769 -0.853054 -1.78867e-18)
(18.4284 -0.811431 -1.74103e-18)
(18.2879 -0.759271 0)
(17.0515 2.02893 9.10549e-18)
(17.1938 2.17008 -1.69303e-17)
(17.335 2.28673 -1.75946e-17)
(17.4751 2.38714 4.53676e-17)
(17.6179 2.47826 -1.68209e-17)
(17.7646 2.56037 3.9778e-17)
(17.917 2.63312 -3.415e-17)
(18.077 2.69586 5.17228e-17)
(18.2451 2.74699 -5.24768e-17)
(18.4217 2.78476 -3.98468e-19)
(18.6083 2.80803 2.39808e-17)
(18.8049 2.81322 3.12078e-18)
(19.009 2.79517 2.54116e-17)
(19.2174 2.74942 -2.54604e-17)
(19.4263 2.67325 2.65819e-17)
(19.6306 2.56512 -3.01358e-17)
(19.8241 2.42435 0)
(20.0003 2.2516 2.46034e-17)
(20.1527 2.04911 -2.99758e-17)
(20.2757 1.82069 2.69153e-17)
(20.3635 1.57115 1.29168e-19)
(20.41 1.33149 -4.16794e-17)
(20.4223 1.11304 4.60099e-19)
(20.4088 0.90155 1.41816e-17)
(20.3719 0.699732 2.69329e-23)
(20.314 0.509705 0)
(20.2377 0.333137 1.36128e-17)
(20.1458 0.171232 -1.33876e-17)
(20.0407 0.0247898 0)
(19.9248 -0.105692 8.37383e-19)
(19.8002 -0.219938 0)
(19.669 -0.317847 -6.43651e-18)
(19.533 -0.399449 7.23092e-18)
(19.3941 -0.464942 6.26633e-18)
(19.2537 -0.514768 -1.2431e-17)
(19.1136 -0.549178 6.92769e-18)
(18.9759 -0.568618 7.53914e-19)
(18.8418 -0.573979 -1.48234e-18)
(18.7125 -0.566157 1.4577e-18)
(18.5906 -0.545938 0)
(18.475 -0.517284 1.40584e-18)
(17.2568 1.88312 0)
(17.3785 1.99383 2.30987e-17)
(17.4987 2.0835 1.99404e-19)
(17.6171 2.15985 -3.14271e-17)
(17.7363 2.22841 -2.10974e-17)
(17.8576 2.28954 2.09392e-17)
(17.9821 2.34316 -2.11337e-17)
(18.1113 2.38901 -2.13226e-17)
(18.2457 2.42609 -4.34498e-17)
(18.3858 2.45334 5.43873e-17)
(18.5324 2.47005 -5.54052e-18)
(18.686 2.47386 -5.62582e-18)
(18.8451 2.46119 2.3144e-17)
(19.0077 2.42886 -1.73851e-17)
(19.1717 2.37478 -2.67824e-17)
(19.3338 2.29739 2.09234e-17)
(19.49 2.19558 2.77253e-17)
(19.6356 2.06905 -2.77551e-17)
(19.7658 1.91855 0)
(19.8761 1.746 -3.15052e-18)
(19.9614 1.55416 -3.1505e-18)
(20.0146 1.36633 -2.54545e-17)
(20.0399 1.19189 5.02961e-17)
(20.0442 1.02048 -2.54212e-17)
(20.029 0.854601 -1.24042e-17)
(19.9959 0.696303 4.29111e-19)
(19.9469 0.547296 1.22567e-17)
(19.8839 0.4089 -1.91768e-19)
(19.809 0.282079 -1.16065e-20)
(19.7241 0.167502 -1.17345e-17)
(19.631 0.0656046 1.1791e-17)
(19.5314 -0.0233761 5.77639e-18)
(19.4271 -0.0993651 -6.11443e-18)
(19.3196 -0.16248 5.63293e-18)
(19.2102 -0.2131 -4.91709e-18)
(19.1004 -0.25145 -4.11914e-18)
(18.9918 -0.277909 2.05097e-18)
(18.8854 -0.293285 -6.69287e-19)
(18.7821 -0.298312 0)
(18.6837 -0.293629 0)
(18.59 -0.281973 7.02618e-21)
(17.4089 1.76319 1.02168e-17)
(17.5143 1.85122 -1.11306e-17)
(17.6178 1.92108 4.9086e-18)
(17.7191 1.97993 9.74014e-18)
(17.8203 2.03214 0)
(17.9222 2.07806 -1.96798e-17)
(18.0259 2.11778 4.97914e-17)
(18.1325 2.15123 -2.98326e-17)
(18.2422 2.17778 1.01192e-17)
(18.3556 2.19673 -1.02935e-17)
(18.4734 2.20766 5.23194e-18)
(18.5959 2.20896 4.78316e-17)
(18.722 2.19814 -8.56587e-17)
(18.8507 2.17298 3.76512e-17)
(18.9805 2.13192 5.55485e-18)
(19.1094 2.07374 2.24102e-17)
(19.2346 1.99739 -7.07168e-17)
(19.353 1.90229 3.1164e-17)
(19.4611 1.78855 4.90668e-17)
(19.5554 1.65709 -2.02817e-17)
(19.6321 1.50943 5.83876e-18)
(19.6843 1.36285 0)
(19.7144 1.22477 0)
(19.7279 1.08756 2.29311e-17)
(19.7256 0.953294 -2.28135e-17)
(19.7087 0.823766 -3.58699e-19)
(19.6785 0.700507 0)
(19.6366 0.584751 -1.11054e-17)
(19.5843 0.477444 1.1062e-17)
(19.5233 0.379285 -8.60765e-20)
(19.4549 0.29076 8.37295e-20)
(19.3806 0.212169 0)
(19.3018 0.143657 -4.96552e-18)
(19.2197 0.0851845 5.23234e-18)
(19.1355 0.0364658 -6.46245e-19)
(19.0504 -0.00265267 6.37405e-19)
(18.9656 -0.0324433 0)
(18.8818 -0.0535669 6.19657e-19)
(18.8 -0.0665803 1.21751e-18)
(18.7211 -0.0719605 -6.09132e-19)
(18.6456 -0.0715225 -1.75389e-18)
(17.5235 1.6638 0)
(17.6158 1.73455 0)
(17.7059 1.78956 1.82952e-17)
(17.7935 1.83539 3.65557e-17)
(17.8805 1.8755 -5.45914e-17)
(17.9674 1.91024 4.61058e-17)
(18.0551 1.93975 1.88789e-17)
(18.1444 1.96408 -3.73677e-17)
(18.2357 1.98282 3.8141e-17)
(18.3292 1.9955 -3.8315e-17)
(18.4255 2.00186 0)
(18.5249 2.00078 0)
(18.6267 1.9905 -4.01672e-17)
(18.7299 1.96943 8.07994e-17)
(18.8339 1.93651 -8.17406e-17)
(18.9371 1.89078 4.11433e-17)
(19.0377 1.83143 5.18287e-18)
(19.1335 1.7579 -5.0211e-17)
(19.2221 1.67006 3.44127e-17)
(19.3008 1.56837 0)
(19.3667 1.45363 -2.70519e-18)
(19.4141 1.33878 0)
(19.4443 1.2295 2.24495e-17)
(19.4615 1.12005 -4.34011e-17)
(19.4663 1.01206 2.09543e-17)
(19.4594 0.907008 0)
(19.4417 0.806174 0)
(19.4143 0.710617 -9.60098e-18)
(19.3783 0.621174 1.01809e-17)
(19.3349 0.538486 1.00455e-17)
(19.2852 0.463014 -1.00714e-17)
(19.2303 0.395066 -9.84229e-18)
(19.1713 0.334812 9.82364e-18)
(19.1093 0.282267 0)
(19.045 0.23723 7.41889e-20)
(18.9795 0.199613 0)
(18.9138 0.169242 1.81282e-20)
(18.8484 0.145605 7.16551e-20)
(18.7839 0.128295 -2.40473e-18)
(18.7212 0.116971 3.36444e-18)
(18.6607 0.110485 -1.08853e-18)
(17.6118 1.58018 0)
(17.6931 1.63749 2.10001e-18)
(17.7721 1.68118 0)
(17.8486 1.71715 -1.6756e-17)
(17.9241 1.74813 1.69154e-17)
(17.9989 1.77448 0)
(18.074 1.79638 -1.73267e-17)
(18.1498 1.81391 -1.76856e-17)
(18.2267 1.82682 4.43064e-17)
(18.3049 1.83479 0)
(18.3849 1.83764 -3.66728e-17)
(18.4667 1.83458 7.39685e-17)
(18.5499 1.82436 -3.72206e-17)
(18.6339 1.80586 0)
(18.7181 1.7783 3.82042e-17)
(18.8015 1.74104 -4.30506e-17)
(18.8827 1.69345 -4.37421e-17)
(18.9603 1.63509 4.86681e-17)
(19.0324 1.56581 4.95693e-18)
(19.0973 1.48583 0)
(19.1527 1.39562 0)
(19.194 1.30491 2.43785e-18)
(19.2219 1.21808 -1.22933e-18)
(19.2398 1.13067 -1.93643e-17)
(19.2479 1.04397 -1.19452e-18)
(19.2468 0.959114 1.9171e-17)
(19.237 0.877134 -1.90176e-17)
(19.2195 0.798887 1.83133e-17)
(19.195 0.725065 1.05185e-17)
(19.1643 0.656212 -9.30208e-18)
(19.1284 0.592731 9.18747e-18)
(19.0881 0.534901 -9.1359e-18)
(19.0442 0.482893 0)
(18.9975 0.436749 9.46991e-18)
(18.9488 0.396334 -8.93068e-18)
(18.8987 0.361608 0)
(18.848 0.332469 -1.69541e-20)
(18.7972 0.308532 -2.20122e-18)
(18.7467 0.289505 2.25101e-18)
(18.6972 0.275154 -9.76636e-19)
(18.649 0.264798 1.01266e-18)
(17.6807 1.50898 0)
(17.7528 1.55565 -1.91521e-18)
(17.8226 1.59057 1.54629e-17)
(17.8898 1.61892 -3.11381e-17)
(17.9558 1.64291 6.28367e-17)
(18.0208 1.66287 -3.1752e-17)
(18.0856 1.67901 0)
(18.1506 1.69143 -1.63914e-17)
(18.2161 1.69998 -9.99602e-17)
(18.2823 1.70442 6.72104e-17)
(18.3494 1.70464 0)
(18.4176 1.70008 8.62656e-18)
(18.4865 1.68985 -2.63196e-17)
(18.5556 1.67312 -2.1647e-19)
(18.6244 1.64938 3.53851e-17)
(18.6924 1.61816 -4.02716e-17)
(18.7584 1.57903 3.58987e-17)
(18.8214 1.53168 -3.63559e-17)
(18.8802 1.47598 3.62987e-17)
(18.9333 1.41207 3.6597e-17)
(18.9793 1.34022 -3.17755e-17)
(19.0143 1.2679 1.58911e-17)
(19.039 1.19843 -2.02023e-17)
(19.0559 1.12833 1.9035e-17)
(19.0652 1.05857 3.3364e-18)
(19.0672 0.990031 -1.76906e-17)
(19.0624 0.923505 0)
(19.0514 0.859668 0)
(19.0347 0.79907 1.61807e-17)
(19.0131 0.742147 -1.71577e-17)
(18.9872 0.68923 0)
(18.9577 0.640554 -1.04668e-18)
(18.9251 0.596269 -1.03719e-18)
(18.8901 0.556426 -8.76235e-18)
(18.8532 0.520933 8.70487e-18)
(18.8151 0.489778 4.0437e-18)
(18.7761 0.462912 -4.01891e-18)
(18.7368 0.440046 1.48767e-18)
(18.6974 0.420979 -3.93192e-18)
(18.6585 0.405549 1.8876e-18)
(18.6203 0.393395 2.34939e-19)
(17.7354 1.44771 -1.41353e-17)
(17.7996 1.48587 -1.77343e-17)
(17.8615 1.5139 -7.63278e-20)
(17.9209 1.53631 0)
(17.9789 1.55488 0)
(18.0358 1.56992 0)
(18.0921 1.58166 0)
(18.1483 1.59021 6.12665e-17)
(18.2046 1.59546 -1.08634e-16)
(18.2611 1.59727 6.28264e-17)
(18.3179 1.59556 -6.40559e-17)
(18.3753 1.58993 4.0248e-17)
(18.4329 1.57972 -7.3597e-17)
(18.4902 1.56436 9.03158e-17)
(18.5471 1.54348 -3.30277e-17)
(18.6028 1.51678 -2.50321e-17)
(18.6569 1.48397 3.34234e-17)
(18.7083 1.44483 -4.23027e-18)
(18.7562 1.39929 4.20154e-18)
(18.7998 1.34745 -4.23223e-17)
(18.8376 1.28951 -3.80369e-17)
(18.867 1.23125 6.30444e-17)
(18.8883 1.17522 2.0972e-18)
(18.9035 1.11866 0)
(18.9127 1.06228 -2.07419e-18)
(18.9162 1.00678 2.0345e-18)
(18.9143 0.952738 1.42186e-17)
(18.9075 0.900686 -1.61249e-17)
(18.8963 0.851045 1.59727e-17)
(18.881 0.804154 -1.58597e-17)
(18.8623 0.760272 -1.56896e-17)
(18.8406 0.719589 1.65564e-17)
(18.8164 0.682226 9.68422e-19)
(18.7902 0.648234 -7.6272e-18)
(18.7623 0.617547 6.1599e-18)
(18.7332 0.590168 0)
(18.7033 0.566076 0)
(18.6729 0.545056 4.61171e-19)
(18.6423 0.526966 -9.09031e-19)
(18.6118 0.511696 -9.00697e-19)
(18.5817 0.499091 -2.18775e-19)
(17.7791 1.39453 0)
(17.8366 1.42582 3.21931e-18)
(17.8916 1.44838 -2.62018e-17)
(17.9444 1.4661 2.63624e-17)
(17.9956 1.48042 5.39586e-17)
(18.0457 1.49165 -5.47273e-17)
(18.095 1.5 -2.80849e-17)
(18.1439 1.50559 5.67671e-17)
(18.1925 1.50836 5.802e-17)
(18.2411 1.50822 -5.8658e-17)
(18.2897 1.50512 0)
(18.3383 1.49876 3.01946e-17)
(18.3868 1.48867 -6.10666e-17)
(18.4348 1.47445 6.89257e-17)
(18.4821 1.45585 0)
(18.5282 1.43266 7.74267e-18)
(18.5727 1.40471 -7.77394e-18)
(18.6149 1.37187 0)
(18.6542 1.3341 -3.9411e-18)
(18.6898 1.2915 7.89458e-18)
(18.7209 1.24422 -3.51328e-17)
(18.7453 1.19681 3.51148e-17)
(18.7634 1.15124 -3.84575e-18)
(18.7767 1.10527 -2.88322e-17)
(18.7852 1.05945 2.86346e-17)
(18.7893 1.0143 -1.90708e-18)
(18.7891 0.970275 1.69399e-17)
(18.785 0.927759 -1.49354e-17)
(18.7774 0.887075 -1.84278e-18)
(18.7666 0.848482 0)
(18.753 0.812177 0)
(18.737 0.778305 0)
(18.7189 0.746962 7.13281e-18)
(18.6992 0.718188 -7.08065e-18)
(18.678 0.691935 8.79645e-19)
(18.6558 0.668213 6.93603e-18)
(18.6328 0.647015 -7.74281e-18)
(18.6093 0.628179 0)
(18.5855 0.611606 4.12558e-21)
(18.5616 0.59722 1.67397e-18)
(18.5379 0.584992 -8.09569e-19)
(17.8144 1.34801 -1.17685e-17)
(17.866 1.37371 0)
(17.9152 1.39189 6.00861e-17)
(17.9622 1.40589 -4.86248e-17)
(18.0077 1.41686 0)
(18.0519 1.4251 -5.09363e-17)
(18.0952 1.43083 -1.03241e-19)
(18.138 1.43416 -5.30279e-17)
(18.1803 1.43507 8.07458e-17)
(18.2223 1.43349 5.49165e-17)
(18.2641 1.4294 -5.55421e-17)
(18.3056 1.42259 -1.41107e-17)
(18.3467 1.41272 0)
(18.3872 1.3995 0)
(18.4268 1.38278 1.43746e-17)
(18.4652 1.36242 -6.52642e-17)
(18.5021 1.33832 1.30757e-16)
(18.5369 1.31042 -5.81637e-17)
(18.5691 1.27871 -7.26746e-18)