/*--------------------------------*- C++ -*----------------------------------*\
| =========                 |                                                 |
| \\      /  F ield         | OpenFOAM: The Open Source CFD Toolbox           |
|  \\    /   O peration     | Version:  5.x                                   |
|   \\  /    A nd           | Web:      www.OpenFOAM.org                      |
|    \\/     M anipulation  |                                                 |
\*---------------------------------------------------------------------------*/
FoamFile
{
    version     2.0;
    format      ascii;
    class       volVectorField;
    location    "150";
    object      wallShearStress;
}
// * * * * * * * * * * * * * * * * * * * * * * * * * * * * * * * * * * * * * //

dimensions      [0 2 -2 0 0 0 0];

internalField   uniform (0 0 0);

boundaryField
{
    inlet
    {
        type            calculated;
        value           uniform (0 0 0);
    }
    outlet
    {
        type            calculated;
        value           uniform (0 0 0);
    }
    walls
    {
        type            calculated;
        value           nonuniform List<vector> 
82
(
(0.117996 -0.825275 -3.76158e-37)
(-0.0272117 -1.21501 7.12305e-21)
(-0.217275 -1.54169 -8.37784e-19)
(-0.498297 -1.58243 -9.44352e-19)
(-0.731075 -1.48483 -2.19954e-18)
(-0.900814 -1.30721 1.10086e-18)
(-1.00529 -1.09687 1.06041e-18)
(-1.05373 -0.885037 -9.94184e-19)
(-1.05814 -0.690127 -2.25067e-18)
(-1.02447 -0.51841 -7.29235e-20)
(-0.930947 -0.35328 -1.00016e-18)
(-0.812455 -0.219137 5.03263e-20)
(-0.723795 -0.140173 -7.63939e-19)
(-0.67641 -0.102047 -7.00295e-19)
(-0.636295 -0.0758669 -5.43677e-19)
(-0.587016 -0.0506932 -3.09371e-19)
(-0.531405 -0.0287242 2.3229e-19)
(-0.475098 -0.0111698 1.80957e-20)
(-0.419769 0.00228563 -1.80655e-20)
(-0.365516 0.0120823 -8.95548e-20)
(-0.312209 0.0185796 -5.53038e-20)
(-0.266579 0.0216086 -2.90073e-20)
(-0.227905 0.022456 -6.6402e-21)
(-0.191586 0.0220218 3.5097e-21)
(-0.157629 0.0205686 1.33812e-21)
(-0.12618 0.018307 -4.12552e-21)
(-0.0974737 0.0154132 3.23636e-19)
(-0.0720265 0.0122007 -6.43143e-21)
(-0.0498986 0.00904809 4.3046e-19)
(-0.031081 0.00609074 -4.55029e-19)
(-0.0161501 0.00343334 -7.40463e-21)
(-0.00601916 0.00139443 -3.98218e-21)
(-0.000670077 0.000205126 3.63248e-21)
(0.00283 -0.000569809 0)
(0.00650419 -0.0015035 -1.32268e-18)
(0.0106054 -0.00289624 0)
(0.0179328 -0.00538951 -1.20488e-37)
(0.0305876 -0.00845756 2.50803e-21)
(0.0439789 -0.00851573 -2.58846e-21)
(0.0461384 -0.000285467 1.19993e-18)
(0.0211171 0.0098465 1.17644e-18)
(0.145188 -0.537959 -2.30401e-19)
(0.0897365 -0.243505 -3.26184e-20)
(0.0339242 -0.0868077 -1.56221e-18)
(0.000299828 -0.0164293 -6.64628e-19)
(-0.0158813 0.00121328 -7.90118e-19)
(-0.0490086 0.019693 -1.03538e-18)
(-0.0882102 0.0364083 -2.14075e-18)
(-0.127055 0.0485854 -9.99473e-19)
(-0.163746 0.0576616 8.86128e-19)
(-0.203745 0.0687504 5.98552e-20)
(-0.250101 0.0782311 -1.76664e-18)
(-0.291222 0.0771259 7.89276e-19)
(-0.322797 0.0693602 2.10793e-21)
(-0.349303 0.0608354 4.75869e-19)
(-0.372829 0.052216 7.2491e-19)
(-0.392711 0.0429082 -4.39576e-20)
(-0.408673 0.0330567 4.70198e-38)
(-0.421022 0.0230113 -2.76494e-19)
(-0.430084 0.0130566 -1.93149e-20)
(-0.436232 0.00341331 -1.43992e-19)
(-0.439483 -0.00567978 3.54332e-22)
(-0.440949 -0.0138056 -3.76158e-37)
(-0.440629 -0.0202408 -2.89593e-19)
(-0.439548 -0.0258783 -2.4913e-19)
(-0.437951 -0.030878 5.17803e-19)
(-0.435979 -0.0353273 5.0514e-19)
(-0.433772 -0.0392852 9.86704e-19)
(-0.431445 -0.0428133 4.82114e-19)
(-0.429068 -0.0459744 1.4623e-20)
(-0.426707 -0.0488305 -4.74778e-19)
(-0.424427 -0.0514418 -4.57115e-19)
(-0.422304 -0.0538709 8.86359e-19)
(-0.42038 -0.0561759 8.65468e-19)
(-0.418675 -0.0584071 -8.44553e-19)
(-0.417199 -0.060609 6.35242e-21)
(-0.415983 -0.0628237 -6.26416e-21)
(-0.414943 -0.0650907 0)
(-0.414585 -0.0675008 -1.46937e-39)
(-0.413257 -0.0700452 1.42745e-21)
(-0.419302 -0.0732356 -7.24256e-19)
(-0.402297 -0.0764367 6.61092e-22)
)
;
    }
    frontAndBack
    {
        type            empty;
    }
}


// ************************************************************************* //
