/*--------------------------------*- C++ -*----------------------------------*\
| =========                 |                                                 |
| \\      /  F ield         | OpenFOAM: The Open Source CFD Toolbox           |
|  \\    /   O peration     | Version:  5.x                                   |
|   \\  /    A nd           | Web:      www.OpenFOAM.org                      |
|    \\/     M anipulation  |                                                 |
\*---------------------------------------------------------------------------*/
FoamFile
{
    version     2.0;
    format      ascii;
    class       volVectorField;
    location    "150";
    object      wallShearStress;
}
// * * * * * * * * * * * * * * * * * * * * * * * * * * * * * * * * * * * * * //

dimensions      [0 2 -2 0 0 0 0];

internalField   uniform (0 0 0);

boundaryField
{
    inlet
    {
        type            calculated;
        value           uniform (0 0 0);
    }
    outlet
    {
        type            calculated;
        value           uniform (0 0 0);
    }
    walls
    {
        type            calculated;
        value           nonuniform List<vector> 
82
(
(0.315847 -1.74058 0)
(0.0111733 -2.42294 1.10568e-20)
(-0.344026 -2.95565 -1.42692e-18)
(-0.846394 -2.93931 -1.52603e-18)
(-1.21689 -2.61655 -3.28169e-18)
(-1.4516 -2.17566 1.56334e-18)
(-1.56508 -1.7211 1.42956e-18)
(-1.58077 -1.30838 -1.26289e-18)
(-1.52182 -0.959845 -2.68181e-18)
(-1.3994 -0.674086 -8.34572e-20)
(-1.18376 -0.419678 -9.63151e-19)
(-0.938694 -0.227724 3.35638e-20)
(-0.749265 -0.123249 -4.29363e-19)
(-0.623434 -0.0765485 -2.14063e-19)
(-0.506024 -0.0472079 -1.96876e-20)
(-0.375084 -0.0221717 9.81564e-20)
(-0.243638 -0.00558133 -1.72487e-19)
(-0.129513 0.00198302 -2.89442e-20)
(-0.0438392 0.00331483 2.54487e-20)
(-0.00301968 0.000938485 1.55507e-19)
(0.0141453 -0.000384538 2.68231e-19)
(0.0304115 -0.00207919 4.06536e-19)
(0.0409816 -0.00340135 8.74858e-19)
(0.0471777 -0.00445373 6.157e-20)
(0.049453 -0.00529782 1.73801e-22)
(0.050005 -0.00610549 -3.2951e-20)
(0.0500182 -0.00695475 2.14192e-18)
(0.0503031 -0.00781996 -3.39182e-20)
(0.0512512 -0.00875001 2.21255e-18)
(0.0532113 -0.00985402 -2.12665e-18)
(0.0565257 -0.0112205 -3.30872e-20)
(0.0614344 -0.0128883 -1.59984e-20)
(0.0678082 -0.0147693 1.54617e-20)
(0.0747301 -0.0165362 3.00927e-36)
(0.0799062 -0.017542 -3.67606e-18)
(0.0794483 -0.0169543 3.00927e-36)
(0.070511 -0.0143727 -9.9917e-38)
(0.053864 -0.0100212 5.97755e-21)
(0.0291231 -0.00374821 -3.81999e-21)
(0.00658877 0.0026517 1.78017e-18)
(0.0148338 0.0195567 2.16803e-18)
(0.389322 -1.2171 -4.59183e-19)
(0.277995 -0.613374 -6.74614e-20)
(0.148132 -0.265167 -3.47659e-18)
(0.0440766 -0.0811059 -1.71399e-18)
(-0.000774875 -0.0123747 -1.17073e-18)
(-0.0266651 0.0046134 -1.94409e-18)
(-0.0756523 0.0277977 -4.60714e-18)
(-0.132918 0.049618 -2.21851e-18)
(-0.191159 0.0667095 1.99604e-18)
(-0.255272 0.0855009 1.38566e-19)
(-0.329726 0.102467 -4.26299e-18)
(-0.399737 0.1056 1.95691e-18)
(-0.458124 0.0988013 3.89855e-21)
(-0.509582 0.0896076 1.22272e-18)
(-0.55662 0.0791325 1.88871e-18)
(-0.598256 0.0667497 -1.15469e-19)
(-0.63398 0.0527978 9.40395e-37)
(-0.664084 0.0378828 -7.43184e-19)
(-0.688949 0.0225291 -5.21073e-20)
(-0.709121 0.00716037 -3.92629e-19)
(-0.724594 -0.00775732 6.92863e-22)
(-0.736054 -0.021552 1.88079e-37)
(-0.743319 -0.0327516 -7.965e-19)
(-0.748922 -0.0427567 -6.86531e-19)
(-0.75336 -0.0518158 1.42815e-18)
(-0.757002 -0.0600796 1.39193e-18)
(-0.760205 -0.0676412 2.71344e-18)
(-0.763214 -0.074592 1.32229e-18)
(-0.76622 -0.0810221 3.99382e-20)
(-0.769391 -0.08703 -1.29341e-18)
(-0.772893 -0.0927149 -1.24019e-18)
(-0.77689 -0.0981854 2.39448e-18)
(-0.781555 -0.103554 2.32641e-18)
(-0.787084 -0.108936 -2.25685e-18)
(-0.79367 -0.11445 1.67961e-20)
(-0.801608 -0.120225 -1.65393e-20)
(-0.811131 -0.126408 -1.17549e-38)
(-0.823539 -0.133281 -5.87747e-39)
(-0.836831 -0.140951 3.58188e-21)
(-0.866923 -0.151174 -1.79115e-18)
(-0.865523 -0.160988 1.623e-21)
)
;
    }
    frontAndBack
    {
        type            empty;
    }
}


// ************************************************************************* //
