/*--------------------------------*- C++ -*----------------------------------*\
| =========                 |                                                 |
| \\      /  F ield         | OpenFOAM: The Open Source CFD Toolbox           |
|  \\    /   O peration     | Version:  5.x                                   |
|   \\  /    A nd           | Web:      www.OpenFOAM.org                      |
|    \\/     M anipulation  |                                                 |
\*---------------------------------------------------------------------------*/
FoamFile
{
    version     2.0;
    format      ascii;
    class       volVectorField;
    location    "150";
    object      wallShearStress;
}
// * * * * * * * * * * * * * * * * * * * * * * * * * * * * * * * * * * * * * //

dimensions      [0 2 -2 0 0 0 0];

internalField   uniform (0 0 0);

boundaryField
{
    inlet
    {
        type            calculated;
        value           uniform (0 0 0);
    }
    outlet
    {
        type            calculated;
        value           uniform (0 0 0);
    }
    walls
    {
        type            calculated;
        value           nonuniform List<vector> 
82
(
(0.202445 -1.41115 -7.52316e-37)
(-0.0453789 -2.08784 1.23393e-20)
(-0.370412 -2.65835 -1.44783e-18)
(-0.854371 -2.73499 -1.63285e-18)
(-1.25758 -2.57391 -3.80814e-18)
(-1.55327 -2.27227 1.90586e-18)
(-1.73762 -1.91111 1.83429e-18)
(-1.82589 -1.54511 -1.71899e-18)
(-1.83792 -1.20697 -3.89509e-18)
(-1.78337 -0.908155 -1.26394e-19)
(-1.62357 -0.6198 -1.73342e-18)
(-1.42016 -0.385195 8.7271e-20)
(-1.2693 -0.246966 -1.32403e-18)
(-1.19106 -0.180304 -1.21476e-18)
(-1.12559 -0.134646 -9.44668e-19)
(-1.04373 -0.0906499 -5.38673e-19)
(-0.950087 -0.0519886 4.05661e-19)
(-0.854562 -0.0207931 3.18226e-20)
(-0.760253 0.00340988 -3.17648e-20)
(-0.667413 0.0213272 -1.5961e-19)
(-0.575793 0.0335367 -1.0061e-19)
(-0.497085 0.0396254 -5.55085e-20)
(-0.430012 0.0417568 -2.2238e-20)
(-0.366654 0.0415722 5.33391e-21)
(-0.306962 0.0395242 2.33049e-21)
(-0.251124 0.0359821 -6.79085e-21)
(-0.19931 0.0313373 5.41351e-19)
(-0.15169 0.0260492 -1.1111e-20)
(-0.108332 0.0202407 7.75475e-19)
(-0.0713178 0.0142166 -8.34448e-19)
(-0.0415997 0.00876457 -1.33464e-20)
(-0.0197358 0.00440793 -7.0764e-21)
(-0.00608113 0.00147793 6.1864e-21)
(0.000347483 7.56282e-06 0)
(0.00539805 -0.00122732 -1.96123e-18)
(0.0112523 -0.00318232 0)
(0.0220609 -0.00710189 -2.43915e-37)
(0.0438966 -0.0127438 4.64982e-21)
(0.0709281 -0.0140039 -4.77809e-21)
(0.0796272 -0.000573786 2.27787e-18)
(0.0357376 0.0159636 2.06564e-18)
(0.246415 -0.914591 -3.94648e-19)
(0.150341 -0.409652 -5.5546e-20)
(0.0554219 -0.143343 -2.63986e-18)
(1.46525e-05 -0.0254268 -1.07495e-18)
(-0.0258479 0.00236292 -1.30962e-18)
(-0.0820681 0.0337826 -1.752e-18)
(-0.149279 0.0630428 -3.59902e-18)
(-0.215617 0.0834822 -1.63909e-18)
(-0.277865 0.0978758 1.45552e-18)
(-0.346327 0.116391 9.98533e-20)
(-0.42576 0.132883 -2.97701e-18)
(-0.496266 0.131556 1.33796e-18)
(-0.55055 0.118751 3.55334e-21)
(-0.596196 0.104442 8.10929e-19)
(-0.636793 0.0898483 1.2371e-18)
(-0.671178 0.0740019 -7.50597e-20)
(-0.69887 0.0571687 2.82119e-37)
(-0.720363 0.0399626 -4.73218e-19)
(-0.736221 0.0228836 -3.30551e-20)
(-0.747086 0.00631668 -2.46959e-19)
(-0.752975 -0.00931885 5.95787e-22)
(-0.755766 -0.0233134 -1.88079e-37)
(-0.755468 -0.0344164 -4.96883e-19)
(-0.753849 -0.0441545 -4.27671e-19)
(-0.751296 -0.0527905 8.8961e-19)
(-0.748032 -0.0604686 8.68699e-19)
(-0.744306 -0.0672918 1.69858e-18)
(-0.740323 -0.0733671 8.30808e-19)
(-0.736211 -0.078802 2.52396e-20)
(-0.732089 -0.0837068 -8.19891e-19)
(-0.728084 -0.0881862 -7.90188e-19)
(-0.724306 -0.0923462 1.53386e-18)
(-0.720813 -0.096284 1.49966e-18)
(-0.717628 -0.100079 -1.46562e-18)
(-0.71474 -0.103805 1.10508e-20)
(-0.712189 -0.107528 -1.09001e-20)
(-0.7098 -0.111312 0)
(-0.708386 -0.115299 -2.93874e-39)
(-0.705058 -0.119466 2.50882e-21)
(-0.713725 -0.124547 -1.27588e-18)
(-0.682617 -0.129773 1.1685e-21)
)
;
    }
    frontAndBack
    {
        type            empty;
    }
}


// ************************************************************************* //
