/*--------------------------------*- C++ -*----------------------------------*\
| =========                 |                                                 |
| \\      /  F ield         | OpenFOAM: The Open Source CFD Toolbox           |
|  \\    /   O peration     | Version:  5.x                                   |
|   \\  /    A nd           | Web:      www.OpenFOAM.org                      |
|    \\/     M anipulation  |                                                 |
\*---------------------------------------------------------------------------*/
FoamFile
{
    version     2.0;
    format      ascii;
    class       volVectorField;
    location    "150";
    object      wallShearStress;
}
// * * * * * * * * * * * * * * * * * * * * * * * * * * * * * * * * * * * * * //

dimensions      [0 2 -2 0 0 0 0];

internalField   uniform (0 0 0);

boundaryField
{
    inlet
    {
        type            calculated;
        value           uniform (0 0 0);
    }
    outlet
    {
        type            calculated;
        value           uniform (0 0 0);
    }
    walls
    {
        type            calculated;
        value           nonuniform List<vector> 
164
(
(-525.909 -815.923 4.81482e-35)
(-1006.97 -778.112 -8.27271e-16)
(-1497.68 -609.449 1.85999e-16)
(-1353.31 -454.258 1.04058e-15)
(-1294.96 -363.266 2.88894e-21)
(-1210.17 -293.016 8.32421e-16)
(-1115.31 -237.819 1.01598e-15)
(-1025.23 -195.383 -1.18604e-15)
(-942.438 -162.219 -2.15463e-33)
(-868.369 -135.908 1.48176e-15)
(-804.567 -115.24 -1.62831e-15)
(-761.055 -100.003 -1.65917e-15)
(-721.737 -87.3966 1.37349e-20)
(-694.984 -77.603 -1.7373e-15)
(-664.002 -68.5206 1.91094e-15)
(-642.556 -61.3304 1.8494e-15)
(-618.197 -54.5349 -1.92118e-15)
(-597.871 -48.736 1.94579e-15)
(-579.069 -43.5612 1.92384e-15)
(-560.039 -38.8001 -2.01515e-15)
(-545.779 -34.7766 1.94374e-15)
(-528.921 -30.8721 5.12195e-21)
(-516.631 -27.5584 1.19631e-20)
(-504.215 -24.4476 -7.4408e-21)
(-492.536 -21.6037 -3.94187e-15)
(-483.267 -19.0454 1.90011e-15)
(-472.986 -16.5992 -1.73033e-35)
(-464.981 -14.4047 9.26743e-16)
(-455.869 -12.3022 -9.30642e-16)
(-448.254 -10.3565 -8.27548e-36)
(-438.587 -8.49522 -6.88295e-21)
(-429.821 -6.76679 6.79076e-21)
(-423.493 -5.17328 6.02087e-21)
(-418.34 -3.67601 -1.29264e-20)
(-411.723 -2.24932 -4.15763e-16)
(-407.162 -0.908334 -5.14867e-36)
(-401.62 0.367724 4.93096e-17)
(-396.528 1.57463 -3.87242e-16)
(-396.057 2.74651 3.64107e-16)
(-391.18 3.85004 -7.13575e-16)
(-386.861 4.8931 1.95602e-35)
(-384.009 5.90407 2.66629e-15)
(-368.146 6.54096 3.68635e-35)
(-365.312 7.27309 -7.19376e-21)
(-362.015 7.9229 -1.73627e-15)
(-355.847 8.47212 3.38227e-21)
(-355.385 9.11415 -3.31397e-21)
(-352.079 9.65065 -1.74752e-15)
(-349.114 10.1758 3.49183e-15)
(-343.282 10.5576 1.77032e-15)
(-340.507 11.0236 3.3847e-21)
(-337.738 11.4339 -1.76847e-15)
(-335.229 11.8576 1.76641e-15)
(-335.281 12.3224 -3.33027e-21)
(-333.009 12.7241 -1.61856e-23)
(-330.536 13.0601 -1.59547e-23)
(-328.527 13.4216 3.278e-21)
(-323.563 13.6243 9.0278e-36)
(-324.214 14.0611 3.42514e-15)
(-319.407 14.2423 3.34186e-21)
(-319.88 14.6576 -3.41735e-15)
(-315.503 14.8738 3.47691e-15)
(-312.643 15.1823 -3.4895e-15)
(-311.391 15.5374 6.91117e-15)
(-308.495 15.8253 -3.47409e-15)
(-309.045 16.2652 3.39499e-15)
(-307.17 16.5938 -1.80556e-35)
(-304.945 16.8772 -1.60174e-21)
(-301.849 17.1264 -8.49609e-24)
(-298.227 17.3346 3.36685e-15)
(-297.112 17.6716 9.01714e-24)
(-293.88 17.9019 -1.61161e-21)
(-291.034 18.1432 -6.68875e-15)
(-285.738 18.2292 8.17113e-22)
(-284.191 18.539 -6.78027e-15)
(-280.123 18.7063 1.38306e-31)
(-275.966 18.8441 1.35192e-14)
(-270.938 18.9368 4.05225e-22)
(-265.105 18.9414 -6.92594e-15)
(-254.869 18.6674 6.99534e-15)
(-259.198 19.308 -7.05035e-15)
(-21.2014 2.63027 1.37973e-14)
(393.556 -745.256 -3.85186e-34)
(-415.895 270.26 -9.4882e-15)
(-853.277 370.209 4.81482e-34)
(-1046.52 350.366 -6.70916e-32)
(-1075.81 298.057 -2.8263e-32)
(-1029.48 245.3 3.62019e-15)
(-963.07 201.343 1.45647e-20)
(-914.533 170.268 -1.83671e-39)
(-876.118 146.815 -2.78046e-20)
(-838.649 127.376 -3.57533e-15)
(-802.155 111.117 -1.37085e-20)
(-772.186 97.8434 -3.43783e-15)
(-740.572 86.1444 1.35285e-20)
(-718.135 76.7812 -1.26186e-20)
(-691.039 67.9963 -3.46615e-15)
(-671.302 60.8749 3.25582e-15)
(-649.475 54.19 -1.25091e-20)
(-629.892 48.3727 3.22513e-15)
(-613.179 43.2249 -1.17819e-20)
(-593.987 38.3832 5.70262e-21)
(-580.628 34.3026 3.00068e-15)
(-564.868 30.3869 1.20371e-34)
(-552.959 26.9973 -2.92251e-15)
(-541.22 23.8214 -2.84678e-15)
(-528.621 20.8535 -1.32742e-20)
(-519.692 18.2198 -2.67741e-15)
(-511.626 15.7762 -2.74806e-32)
(-503.775 13.5026 1.25954e-15)
(-494.827 11.325 -2.49651e-15)
(-487.583 9.30555 -8.50174e-21)
(-477.13 7.37092 -1.18868e-15)
(-470.064 5.59987 -5.7674e-16)
(-468.062 3.98293 -8.2875e-21)
(-459.523 2.36816 2.66681e-16)
(-454.505 0.898106 1.27521e-16)
(-448.186 -0.52261 -1.53654e-20)
(-447.704 -1.86366 7.14423e-21)
(-443.228 -3.15566 4.54639e-16)
(-436.937 -4.34033 -8.837e-16)
(-435.556 -5.53835 -6.41488e-21)
(-432.286 -6.63605 1.60926e-15)
(-428.975 -7.70458 -1.54558e-15)
(-413.86 -8.355 8.31761e-33)
(-411.85 -9.14542 -1.975e-15)
(-409.157 -9.84317 -1.95775e-15)
(-403.313 -10.4341 -1.97959e-15)
(-400.528 -11.0416 3.92511e-15)
(-397.802 -11.6141 -1.95529e-15)
(-395.247 -12.1697 -1.94102e-15)
(-392.79 -12.6737 1.92929e-15)
(-390.457 -13.179 -1.64569e-37)
(-388.243 -13.6256 1.9037e-15)
(-388.875 -14.1835 3.55907e-21)
(-386.831 -14.6003 3.70842e-15)
(-384.886 -15.0221 3.67709e-15)
(-382.944 -15.399 -2.40741e-35)
(-381.2 -15.7868 1.09377e-31)
(-379.358 -16.1351 -3.44519e-21)
(-377.769 -16.4961 7.12813e-15)
(-375.973 -16.8158 3.56476e-21)
(-375.014 -17.1825 -6.97414e-15)
(-373.278 -17.4242 -3.48873e-15)
(-371.356 -17.6366 -6.01853e-36)
(-370.366 -17.8831 -1.63834e-21)
(-368.563 -18.0844 -3.41022e-15)
(-365.47 -18.2155 -3.42695e-15)
(-363.661 -18.4059 -3.43355e-15)
(-365.331 -18.7656 3.30766e-15)
(-363.176 -18.9376 3.34978e-15)
(-360.699 -19.0932 1.57566e-21)
(-359.235 -19.2927 -3.6547e-32)
(-358.06 -19.5168 -8.62713e-22)
(-358.389 -19.828 -3.19698e-15)
(-355.931 -19.9915 1.53927e-21)
(-355.917 -20.2963 3.18104e-15)
(-353.844 -20.4923 -1.51166e-21)
(-351.88 -20.703 7.46486e-22)
(-349.777 -20.911 3.73499e-22)
(-348.249 -21.1684 -6.25197e-15)
(-343.943 -21.2615 6.13935e-15)
(-353.549 -22.1255 2.7462e-22)
(-45.8246 -3.4186 -1.35305e-14)
)
;
    }
    frontAndBack
    {
        type            empty;
    }
}


// ************************************************************************* //
