/*--------------------------------*- C++ -*----------------------------------*\
| =========                 |                                                 |
| \\      /  F ield         | OpenFOAM: The Open Source CFD Toolbox           |
|  \\    /   O peration     | Version:  5.x                                   |
|   \\  /    A nd           | Web:      www.OpenFOAM.org                      |
|    \\/     M anipulation  |                                                 |
\*---------------------------------------------------------------------------*/
FoamFile
{
    version     2.0;
    format      ascii;
    class       volVectorField;
    location    "150";
    object      wallShearStress;
}
// * * * * * * * * * * * * * * * * * * * * * * * * * * * * * * * * * * * * * //

dimensions      [0 2 -2 0 0 0 0];

internalField   uniform (0 0 0);

boundaryField
{
    inlet
    {
        type            calculated;
        value           uniform (0 0 0);
    }
    outlet
    {
        type            calculated;
        value           uniform (0 0 0);
    }
    walls
    {
        type            calculated;
        value           nonuniform List<vector> 
82
(
(-0.0421733 -0.0308554 1.17549e-38)
(-0.0928463 -0.22268 3.12084e-21)
(-0.201122 -0.52863 -4.61447e-19)
(-0.391143 -0.792881 -7.36054e-19)
(-0.625993 -0.979953 -2.23854e-18)
(-0.872333 -1.0763 1.35677e-18)
(-1.10172 -1.09319 1.49407e-18)
(-1.29996 -1.05192 -1.59632e-18)
(-1.45031 -0.962765 -3.9721e-18)
(-1.5352 -0.832405 -1.34273e-19)
(-1.51985 -0.65128 -2.15848e-18)
(-1.44258 -0.466643 1.32834e-19)
(-1.37937 -0.336645 -2.11968e-18)
(-1.35924 -0.261567 -2.22269e-18)
(-1.3436 -0.204518 -1.94766e-18)
(-1.31133 -0.149733 -1.27922e-18)
(-1.26487 -0.100029 1.12587e-18)
(-1.21165 -0.0567987 1.19778e-19)
(-1.15509 -0.0195822 -1.19244e-19)
(-1.09653 0.0121653 -9.02668e-19)
(-1.03604 0.0387089 -8.63413e-19)
(-0.982941 0.0588566 -8.80664e-19)
(-0.935828 0.0729917 -1.6597e-18)
(-0.890133 0.0840428 -1.0393e-19)
(-0.845809 0.0926318 1.39245e-21)
(-0.802907 0.099145 4.93744e-20)
(-0.761318 0.103885 -3.03409e-18)
(-0.720834 0.107108 4.52602e-20)
(-0.681218 0.109009 -2.88637e-18)
(-0.642211 0.109735 2.70294e-18)
(-0.603512 0.109393 4.19972e-20)
(-0.564739 0.108039 1.96294e-20)
(-0.525436 0.10568 -1.94925e-20)
(-0.485107 0.102268 -3.00927e-36)
(-0.442874 0.097667 4.50981e-18)
(-0.39806 0.0916956 -9.0278e-36)
(-0.349409 0.0839669 5.1134e-37)
(-0.296587 0.0741959 -7.32244e-21)
(-0.233905 0.0609401 -1.30286e-21)
(-0.171975 0.0449028 -3.33249e-18)
(-0.0708766 0.0278398 -5.46273e-18)
(-0.071544 0.048574 4.10534e-21)
(-0.16979 0.199181 1.05063e-20)
(-0.319308 0.354693 8.43897e-19)
(-0.484757 0.439528 6.94991e-19)
(-0.625756 0.44887 8.16585e-19)
(-0.727132 0.41599 9.81872e-19)
(-0.793744 0.371478 2.11921e-18)
(-0.839147 0.333479 1.0302e-18)
(-0.875427 0.307317 -9.87514e-19)
(-0.934034 0.308948 -7.10627e-20)
(-1.01708 0.314584 2.58816e-18)
(-1.06372 0.280285 -1.29733e-18)
(-1.0705 0.227578 -1.14552e-23)
(-1.06581 0.18154 -8.89818e-19)
(-1.05881 0.143012 -1.43542e-18)
(-1.04713 0.108266 9.06784e-20)
(-1.02964 0.0765013 -5.64237e-37)
(-1.00777 0.0478511 6.23017e-19)
(-0.982764 0.0223617 4.4312e-20)
(-0.955256 -2.77463e-05 3.42316e-19)
(-0.924955 -0.0193499 2.9105e-22)
(-0.897421 -0.0348265 7.52316e-37)
(-0.871912 -0.0461471 7.16888e-19)
(-0.846787 -0.0553855 6.2167e-19)
(-0.822251 -0.0629775 -1.30266e-18)
(-0.79835 -0.0691972 -1.27736e-18)
(-0.775081 -0.0742477 -2.50327e-18)
(-0.752343 -0.0783033 -1.22577e-18)
(-0.730028 -0.0815104 -3.72417e-20)
(-0.707988 -0.0839935 1.21029e-18)
(-0.686088 -0.0858548 1.16443e-18)
(-0.664127 -0.0871714 -2.25629e-18)
(-0.641806 -0.0879914 -2.19978e-18)
(-0.618731 -0.0883253 2.14211e-18)
(-0.594326 -0.0881361 -1.59861e-20)
(-0.567941 -0.0873368 1.58386e-20)
(-0.538003 -0.0856846 2.35099e-38)
(-0.503506 -0.0829053 2.93874e-39)
(-0.458523 -0.0779572 -3.39276e-21)
(-0.404172 -0.0689102 1.67859e-18)
(-0.291575 -0.0576876 -1.52303e-21)
)
;
    }
    frontAndBack
    {
        type            empty;
    }
}


// ************************************************************************* //
