# y+ ()      
# Time       	patch        	min          	max          	average      
0            	walls	3.170786e+01	4.060140e+01	3.552885e+01
50           	walls	1.012379e+01	1.086025e+03	4.277799e+01
