# y+ ()      
# Time       	patch        	min          	max          	average      
0            	walls	3.411534e+01	4.309287e+01	3.824339e+01
50           	walls	7.522428e+00	3.787455e+01	2.281516e+01
