/*--------------------------------*- C++ -*----------------------------------*\
| =========                 |                                                 |
| \\      /  F ield         | OpenFOAM: The Open Source CFD Toolbox           |
|  \\    /   O peration     | Version:  5.x                                   |
|   \\  /    A nd           | Web:      www.OpenFOAM.org                      |
|    \\/     M anipulation  |                                                 |
\*---------------------------------------------------------------------------*/
FoamFile
{
    version     2.0;
    format      ascii;
    class       volVectorField;
    location    "0";
    object      wallShearStress;
}
// * * * * * * * * * * * * * * * * * * * * * * * * * * * * * * * * * * * * * //

dimensions      [0 2 -2 0 0 0 0];

internalField   uniform (0 0 0);

boundaryField
{
    inlet
    {
        type            calculated;
        value           uniform (0 0 0);
    }
    outlet
    {
        type            calculated;
        value           uniform (0 0 0);
    }
    walls
    {
        type            calculated;
        value           nonuniform List<vector> 
82
(
(-0.122967 -0.0280064 0)
(-0.120882 -0.0248674 -4.82778e-22)
(-0.112004 -0.0152977 2.56637e-20)
(-0.107943 -0.0130563 7.99572e-21)
(-0.104814 -0.0126705 3.32442e-20)
(-0.102832 -0.0136474 -1.85939e-20)
(-0.101729 -0.0154099 -1.31962e-20)
(-0.101338 -0.017673 2.08632e-21)
(-0.101554 -0.0202886 9.22913e-21)
(-0.102349 -0.0232085 2.4414e-22)
(-0.103911 -0.0266272 3.43186e-22)
(-0.105072 -0.0292308 5.40347e-23)
(-0.105486 -0.0308507 -6.57276e-22)
(-0.105654 -0.0320943 -2.89485e-21)
(-0.10621 -0.033648 -3.29359e-21)
(-0.106663 -0.0350284 -3.95466e-21)
(-0.107012 -0.0362576 1.04777e-21)
(-0.10724 -0.0373399 3.07376e-22)
(-0.107335 -0.0382801 -3.21598e-22)
(-0.10728 -0.0390754 -1.75926e-21)
(-0.107061 -0.039725 -2.6692e-21)
(-0.106705 -0.0401781 -3.37761e-21)
(-0.106279 -0.0404787 -2.10351e-21)
(-0.105773 -0.0406907 4.33403e-21)
(-0.1052 -0.0408291 -0)
(-0.104564 -0.0409 -4.72754e-21)
(-0.103877 -0.040915 -5.00765e-21)
(-0.103145 -0.0408816 2.37314e-22)
(-0.102375 -0.0408072 -1.55274e-20)
(-0.101575 -0.0406985 1.51167e-20)
(-0.100751 -0.0405616 2.40615e-22)
(-0.0999114 -0.0404026 1.205e-22)
(-0.0990607 -0.0402262 -1.20619e-22)
(-0.0982043 -0.0400364 -0)
(-0.0973523 -0.0398409 2.04679e-20)
(-0.0965075 -0.0396416 -0)
(-0.0956712 -0.0394392 -0)
(-0.0948567 -0.0392427 -5.97956e-23)
(-0.0940636 -0.0390511 -2.03876e-20)
(-0.0932981 -0.0388679 -3.06886e-20)
(-0.0925676 -0.0386969 -6.14805e-20)
(-0.127208 -0.040056 -2.7434e-20)
(-0.125967 -0.0465706 -2.42616e-21)
(-0.125174 -0.0508561 -9.33561e-20)
(-0.124292 -0.052665 -1.30194e-20)
(-0.122868 -0.0526785 -9.10441e-21)
(-0.120832 -0.0516984 -2.97728e-20)
(-0.118369 -0.0503111 -3.44786e-20)
(-0.115737 -0.0488692 -2.14962e-20)
(-0.113154 -0.0475591 4.21142e-21)
(-0.11057 -0.0464499 1.19519e-21)
(-0.110244 -0.0456117 -2.18948e-20)
(-0.11032 -0.0446888 1.32005e-20)
(-0.110003 -0.0437532 0)
(-0.109548 -0.0428401 3.14227e-21)
(-0.109116 -0.0419284 6.29071e-21)
(-0.108659 -0.0410179 -5.15422e-22)
(-0.108153 -0.0401071 0)
(-0.107577 -0.0391949 -1.69066e-21)
(-0.106913 -0.0382814 -2.82584e-22)
(-0.106145 -0.037367 -1.17372e-21)
(-0.105264 -0.0364527 1.35386e-21)
(-0.104359 -0.0356325 0)
(-0.103498 -0.034925 -2.21702e-21)
(-0.102606 -0.0342499 -1.81902e-21)
(-0.101687 -0.0336046 1.20278e-21)
(-0.100745 -0.0329864 1.12303e-21)
(-0.0997827 -0.0323928 4.20747e-21)
(-0.0988051 -0.031821 2.957e-21)
(-0.0978149 -0.0312687 8.66558e-23)
(-0.0968158 -0.0307333 -9.47497e-22)
(-0.0958105 -0.0302125 -2.48146e-21)
(-0.0948023 -0.0297037 4.62271e-21)
(-0.093794 -0.0292046 4.33631e-21)
(-0.0927877 -0.028713 -1.37393e-21)
(-0.091786 -0.0282267 2.94871e-23)
(-0.0907903 -0.027744 -2.75897e-23)
(-0.0898037 -0.0272623 0)
(-0.0888283 -0.0267784 0)
(-0.087865 -0.0262925 5.37791e-24)
(-0.0869166 -0.025801 -8.3842e-22)
(-0.0859848 -0.0253023 2.19272e-24)
)
;
    }
    frontAndBack
    {
        type            empty;
    }
}


// ************************************************************************* //
