/*--------------------------------*- C++ -*----------------------------------*\
| =========                 |                                                 |
| \\      /  F ield         | OpenFOAM: The Open Source CFD Toolbox           |
|  \\    /   O peration     | Version:  5.x                                   |
|   \\  /    A nd           | Web:      www.OpenFOAM.org                      |
|    \\/     M anipulation  |                                                 |
\*---------------------------------------------------------------------------*/
FoamFile
{
    version     2.0;
    format      ascii;
    class       volVectorField;
    location    "0";
    object      wallShearStress;
}
// * * * * * * * * * * * * * * * * * * * * * * * * * * * * * * * * * * * * * //

dimensions      [0 2 -2 0 0 0 0];

internalField   uniform (0 0 0);

boundaryField
{
    inlet
    {
        type            calculated;
        value           uniform (0 0 0);
    }
    outlet
    {
        type            calculated;
        value           uniform (0 0 0);
    }
    walls
    {
        type            calculated;
        value           nonuniform List<vector> 
164
(
(-1719.48 118.704 0)
(-1935.03 144.816 -1.461e-16)
(-2404.12 77.7255 -1.03918e-16)
(-2398.42 40.6571 7.90987e-17)
(-2377.97 6.08604 1.24545e-22)
(-2315.46 -18.7083 8.30515e-18)
(-2239.33 -37.0187 1.98947e-17)
(-2160.01 -50.513 -5.30973e-18)
(-2083.45 -60.6257 0)
(-2012.77 -68.4788 1.02411e-17)
(-1948.11 -74.5539 -2.78061e-18)
(-1890.24 -79.5266 -6.54998e-18)
(-1838.17 -83.533 4.12937e-23)
(-1791.85 -86.9421 -1.36484e-18)
(-1750.46 -89.8413 1.12094e-18)
(-1713.35 -92.3036 8.24674e-19)
(-1680.45 -94.5849 -1.83706e-18)
(-1650.82 -96.5728 4.22169e-19)
(-1624.41 -98.455 7.57955e-19)
(-1600.57 -100.162 -1.16553e-19)
(-1579.1 -101.765 -2.31454e-20)
(-1559.72 -103.305 2.33698e-19)
(-1542.06 -104.728 4.15137e-19)
(-1526.02 -106.119 3.3127e-24)
(-1511.31 -107.435 1.45458e-18)
(-1497.8 -108.712 -4.18937e-19)
(-1485.31 -109.943 0)
(-1473.67 -111.113 -2.61076e-19)
(-1462.8 -112.252 8.58571e-19)
(-1452.57 -113.343 0)
(-1442.86 -114.385 7.27653e-24)
(-1433.61 -115.398 -7.58965e-24)
(-1424.71 -116.346 -6.82681e-19)
(-1416.13 -117.274 1.6169e-23)
(-1407.73 -118.125 5.37071e-19)
(-1399.54 -118.953 0)
(-1391.43 -119.705 -2.30715e-20)
(-1383.42 -120.431 3.75805e-19)
(-1375.41 -121.077 -1.87735e-19)
(-1367.42 -121.696 1.13708e-18)
(-1359.34 -122.227 -0)
(-1351.23 -122.733 -3.02442e-18)
(-1343.76 -123.106 -0)
(-1337.12 -123.433 -1.89024e-18)
(-1330.53 -123.688 9.55906e-19)
(-1324.06 -123.932 -5.56087e-24)
(-1317.65 -124.126 5.61168e-24)
(-1311.29 -124.284 2.97922e-18)
(-1305.01 -124.426 -4.00701e-18)
(-1298.75 -124.514 -3.03078e-18)
(-1292.55 -124.605 -5.82826e-24)
(-1286.36 -124.633 1.02492e-18)
(-1280.22 -124.672 -1.03159e-18)
(-1274.08 -124.654 5.93599e-24)
(-1267.98 -124.647 -0)
(-1261.88 -124.588 -0)
(-1255.81 -124.536 -6.00082e-24)
(-1249.73 -124.443 -0)
(-1243.67 -124.35 -6.32292e-18)
(-1237.62 -124.238 -6.08118e-24)
(-1231.58 -124.118 6.34707e-18)
(-1225.59 -124.036 -6.411e-18)
(-1219.62 -123.989 2.12934e-18)
(-1213.65 -123.91 -8.59771e-18)
(-1207.69 -123.848 6.43492e-18)
(-1201.73 -123.753 -2.15692e-18)
(-1195.78 -123.676 -0)
(-1189.82 -123.571 3.08874e-24)
(-1183.88 -123.478 -0)
(-1177.94 -123.379 -6.47094e-18)
(-1172.01 -123.275 -0)
(-1166.09 -123.184 3.14183e-24)
(-1160.17 -123.084 1.30453e-17)
(-1154.27 -122.989 -1.56965e-24)
(-1148.38 -122.902 1.32697e-17)
(-1142.5 -122.823 -0)
(-1136.63 -122.746 -1.76038e-17)
(-1130.78 -122.68 -7.91665e-25)
(-1124.95 -122.619 4.46082e-18)
(-1119.13 -122.574 -4.42197e-18)
(-1113.33 -122.547 1.35062e-17)
(-1107.54 -122.518 -1.34913e-17)
(-1691.13 -280.892 0)
(-2116.61 -442.299 -1.64796e-16)
(-2367.07 -454.633 0)
(-2443.5 -431.405 0)
(-2421.72 -399.403 0)
(-2356.21 -367.544 1.41526e-17)
(-2276.72 -338.555 1.40276e-22)
(-2193.96 -313.061 0)
(-2114.26 -290.94 -1.83675e-17)
(-2040.65 -271.79 -2.40017e-17)
(-1973.41 -255.234 -8.19738e-23)
(-1913.22 -240.813 -6.20225e-18)
(-1859.14 -228.244 6.56999e-23)
(-1810.99 -217.191 -5.63758e-23)
(-1768.01 -207.431 -4.66767e-18)
(-1729.47 -198.797 1.22525e-17)
(-1695.25 -191.043 -4.29589e-23)
(-1664.46 -184.111 1.02628e-17)
(-1636.98 -177.82 -3.5066e-23)
(-1612.19 -172.122 5.77111e-18)
(-1589.8 -166.928 7.70023e-18)
(-1569.58 -162.151 0)
(-1551.15 -157.768 -2.18777e-18)
(-1534.39 -153.689 -2.00936e-18)
(-1519.02 -149.902 -3.73337e-18)
(-1504.87 -146.362 -3.37087e-18)
(-1491.79 -143.038 0)
(-1479.59 -139.916 7.185e-19)
(-1468.18 -136.958 -2.68759e-18)
(-1457.44 -134.15 1.22697e-18)
(-1447.25 -131.483 -1.70025e-18)
(-1437.55 -128.92 -7.83665e-19)
(-1428.2 -126.482 -1.09592e-23)
(-1419.2 -124.119 3.32548e-19)
(-1410.4 -121.864 1.51703e-19)
(-1401.82 -119.665 -1.7159e-23)
(-1393.34 -117.557 7.81108e-24)
(-1384.98 -115.494 4.73197e-19)
(-1376.62 -113.51 -2.87116e-19)
(-1368.3 -111.559 -6.04678e-24)
(-1359.91 -109.683 1.44373e-18)
(-1351.5 -107.826 -1.3207e-18)
(-1343.77 -106.211 0)
(-1336.89 -104.776 -4.73179e-19)
(-1330.08 -103.427 -4.47113e-19)
(-1323.41 -102.109 -4.24541e-19)
(-1316.8 -100.85 1.604e-18)
(-1310.27 -99.6379 -3.80568e-19)
(-1303.81 -98.4538 -3.59696e-19)
(-1297.39 -97.3298 3.4088e-19)
(-1291.04 -96.2131 0)
(-1284.7 -95.1603 9.15509e-19)
(-1278.43 -94.1058 1.64874e-24)
(-1272.16 -93.11 5.45671e-19)
(-1265.94 -92.1108 5.13987e-19)
(-1259.72 -91.1615 0)
(-1253.54 -90.2114 0)
(-1247.36 -89.3011 -1.23756e-24)
(-1241.21 -88.3904 1.61684e-18)
(-1235.06 -87.5199 7.65281e-19)
(-1228.93 -86.6419 -1.42314e-18)
(-1222.78 -85.8491 -1.01498e-18)
(-1216.62 -85.0858 0)
(-1210.48 -84.3403 -4.31948e-25)
(-1204.36 -83.5949 -8.48733e-19)
(-1198.24 -82.867 -8.01817e-19)
(-1192.15 -82.1317 -2.5053e-19)
(-1186.07 -81.415 2.33662e-19)
(-1180 -80.6923 6.60592e-19)
(-1173.95 -79.9721 2.87108e-25)
(-1167.91 -79.2563 0)
(-1161.88 -78.5339 -3.4379e-19)
(-1155.88 -77.8153 -4.63131e-19)
(-1149.88 -77.0915 1.99941e-25)
(-1143.91 -76.3612 1.24512e-19)
(-1137.95 -75.625 -1.54506e-25)
(-1132.01 -74.885 6.51606e-26)
(-1126.08 -74.1344 2.67599e-26)
(-1120.18 -73.3764 -1.16556e-19)
(-1114.29 -72.608 8.10225e-20)
(-1108.42 -71.8225 6.19341e-27)
(-1102.57 -71.0317 -2.94653e-20)
)
;
    }
    frontAndBack
    {
        type            empty;
    }
}


// ************************************************************************* //
