/*--------------------------------*- C++ -*----------------------------------*\
| =========                 |                                                 |
| \\      /  F ield         | OpenFOAM: The Open Source CFD Toolbox           |
|  \\    /   O peration     | Version:  5.x                                   |
|   \\  /    A nd           | Web:      www.OpenFOAM.org                      |
|    \\/     M anipulation  |                                                 |
\*---------------------------------------------------------------------------*/
FoamFile
{
    version     2.0;
    format      ascii;
    class       volVectorField;
    location    "0";
    object      wallShearStress;
}
// * * * * * * * * * * * * * * * * * * * * * * * * * * * * * * * * * * * * * //

dimensions      [0 2 -2 0 0 0 0];

internalField   uniform (0 0 0);

boundaryField
{
    inlet
    {
        type            calculated;
        value           uniform (0 0 0);
    }
    outlet
    {
        type            calculated;
        value           uniform (0 0 0);
    }
    walls
    {
        type            calculated;
        value           nonuniform List<vector> 
82
(
(-0.0901898 -0.0209812 0)
(-0.0886485 -0.0186715 -3.54077e-22)
(-0.0820904 -0.0116587 1.87716e-20)
(-0.0790961 -0.0100362 5.83792e-21)
(-0.0767919 -0.00978286 2.42159e-20)
(-0.0753348 -0.0105287 -1.35057e-20)
(-0.0745269 -0.0118491 -9.54902e-21)
(-0.0742441 -0.0135351 1.50128e-21)
(-0.0744082 -0.0154782 6.57691e-21)
(-0.0749992 -0.0176438 1.70093e-22)
(-0.0761543 -0.0201766 2.05246e-22)
(-0.0770134 -0.0221021 4.81569e-23)
(-0.077323 -0.0232969 -5.25778e-22)
(-0.0774514 -0.0242125 -2.25536e-21)
(-0.0778648 -0.0253574 -2.52591e-21)
(-0.0782028 -0.0263735 -3.00718e-21)
(-0.0784638 -0.0272771 7.92452e-22)
(-0.0786359 -0.0280715 2.31606e-22)
(-0.0787104 -0.0287602 -2.41654e-22)
(-0.0786744 -0.0293413 -1.31913e-21)
(-0.0785184 -0.0298141 -1.99807e-21)
(-0.0782601 -0.030142 -2.52526e-21)
(-0.0779506 -0.0303577 -1.57125e-21)
(-0.0775821 -0.030508 3.23491e-21)
(-0.0771643 -0.0306039 -0)
(-0.0766999 -0.03065 -3.52435e-21)
(-0.0761975 -0.0306549 -3.73133e-21)
(-0.075662 -0.030624 1.76751e-22)
(-0.0750989 -0.0305628 -1.15602e-20)
(-0.0745135 -0.0304764 1.12505e-20)
(-0.0739108 -0.0303692 1.79017e-22)
(-0.073296 -0.0302457 8.96252e-23)
(-0.0726732 -0.0301094 -8.9688e-23)
(-0.0720461 -0.0299632 -0)
(-0.0714222 -0.0298129 1.5211e-20)
(-0.0708036 -0.0296598 -0)
(-0.0701912 -0.0295045 -0)
(-0.0695948 -0.0293535 -4.44042e-23)
(-0.0690142 -0.0292062 -1.51361e-20)
(-0.0684537 -0.0290651 -2.27778e-20)
(-0.067919 -0.028933 -4.56204e-20)
(-0.0933444 -0.0298698 -2.01727e-20)
(-0.0924525 -0.0346958 -1.78663e-21)
(-0.0918762 -0.0378947 -6.88505e-20)
(-0.0912256 -0.0392676 -9.6155e-21)
(-0.0901742 -0.0393067 -6.73273e-21)
(-0.0886724 -0.038601 -2.20412e-20)
(-0.0868597 -0.037585 -2.55472e-20)
(-0.0849241 -0.0365215 -1.59378e-20)
(-0.0830261 -0.0355504 3.12367e-21)
(-0.0811301 -0.0347221 8.86525e-22)
(-0.0808845 -0.0341175 -1.6259e-20)
(-0.0809327 -0.0334524 9.81703e-21)
(-0.080694 -0.0327714 0)
(-0.0803556 -0.0321042 2.34257e-21)
(-0.0800335 -0.031437 4.69578e-21)
(-0.0796942 -0.0307698 -3.85274e-22)
(-0.079319 -0.0301013 0)
(-0.0788927 -0.0294308 -1.26766e-21)
(-0.0784017 -0.0287582 -2.12249e-22)
(-0.0778355 -0.0280838 -8.83229e-22)
(-0.0771861 -0.0274084 1.02083e-21)
(-0.0765202 -0.0268015 0)
(-0.0758866 -0.0262773 -1.67782e-21)
(-0.0752307 -0.0257766 -1.37907e-21)
(-0.0745553 -0.0252975 9.13512e-22)
(-0.0738631 -0.0248379 8.54477e-22)
(-0.0731566 -0.0243963 3.20713e-21)
(-0.0724386 -0.0239705 2.25808e-21)
(-0.0717116 -0.023559 6.6296e-23)
(-0.0709781 -0.0231597 -7.26244e-22)
(-0.0702402 -0.0227711 -1.90567e-21)
(-0.0695002 -0.0223913 3.55718e-21)
(-0.0687602 -0.0220186 3.34383e-21)
(-0.0680217 -0.0216514 -1.06187e-21)
(-0.0672866 -0.021288 2.28459e-23)
(-0.0665559 -0.0209274 -2.14345e-23)
(-0.0658319 -0.0205675 0)
(-0.065116 -0.0202061 0)
(-0.0644091 -0.0198432 4.22518e-24)
(-0.0637129 -0.0194762 -6.62295e-22)
(-0.063029 -0.019104 1.74415e-24)
)
;
    }
    frontAndBack
    {
        type            empty;
    }
}


// ************************************************************************* //
