/*--------------------------------*- C++ -*----------------------------------*\
| =========                 |                                                 |
| \\      /  F ield         | OpenFOAM: The Open Source CFD Toolbox           |
|  \\    /   O peration     | Version:  5.x                                   |
|   \\  /    A nd           | Web:      www.OpenFOAM.org                      |
|    \\/     M anipulation  |                                                 |
\*---------------------------------------------------------------------------*/
FoamFile
{
    version     2.0;
    format      ascii;
    class       volVectorField;
    location    "0";
    object      wallShearStress;
}
// * * * * * * * * * * * * * * * * * * * * * * * * * * * * * * * * * * * * * //

dimensions      [0 2 -2 0 0 0 0];

internalField   uniform (0 0 0);

boundaryField
{
    inlet
    {
        type            calculated;
        value           uniform (0 0 0);
    }
    outlet
    {
        type            calculated;
        value           uniform (0 0 0);
    }
    walls
    {
        type            calculated;
        value           nonuniform List<vector> 
82
(
(-5.31944 0.318266 0)
(-5.21557 0.342945 8.43265e-20)
(-5.05798 0.600031 1.15268e-19)
(-4.92694 0.754919 -9.98618e-20)
(-4.82201 0.840061 9.31781e-19)
(-4.7421 0.880483 -8.04574e-19)
(-4.68623 0.886081 4.03254e-19)
(-4.65017 0.868347 -3.44817e-19)
(-4.6295 0.835697 -4.66656e-20)
(-4.62037 0.793735 1.09212e-18)
(-4.61967 0.746028 -3.83133e-19)
(-4.62483 0.694853 1.73191e-19)
(-4.6337 0.641712 -2.26218e-20)
(-4.64445 0.587604 2.14693e-19)
(-4.65554 0.533256 1.46369e-20)
(-4.66562 0.479198 1.82226e-19)
(-4.67337 0.425997 -1.91242e-19)
(-4.67779 0.373995 -6.13364e-21)
(-4.67784 0.323624 1.47969e-20)
(-4.67281 0.275118 2.6398e-21)
(-4.66178 0.228927 -6.14062e-21)
(-4.64608 0.189548 -4.55937e-22)
(-4.62789 0.157157 -2.35047e-20)
(-4.60652 0.127531 1.27994e-21)
(-4.58232 0.100375 -5.6904e-20)
(-4.55555 0.0754846 -2.12182e-21)
(-4.5266 0.0525681 1.61166e-19)
(-4.49511 0.0318786 -1.78644e-19)
(-4.465 0.0106657 -0)
(-4.43578 -0.0106575 -0)
(-4.4059 -0.0309827 -2.38601e-19)
(-4.37537 -0.0502685 -0)
(-4.34448 -0.0686831 -9.10183e-20)
(-4.31364 -0.0864536 -0)
(-4.28318 -0.103736 2.02083e-19)
(-4.25328 -0.120602 -6.38094e-19)
(-4.22407 -0.137055 6.66822e-19)
(-4.19639 -0.153519 -9.26359e-19)
(-4.17005 -0.169793 -7.05537e-22)
(-4.14568 -0.186128 7.35626e-22)
(-4.12363 -0.202574 -7.85108e-19)
(-5.30263 0.000472232 0)
(-5.14251 -0.186852 -1.94996e-19)
(-4.99089 -0.341011 -1.07135e-19)
(-4.8626 -0.435879 1.47039e-18)
(-4.7662 -0.473063 -1.64816e-18)
(-4.70202 -0.464886 1.03414e-18)
(-4.6649 -0.426504 -8.51802e-19)
(-4.64831 -0.370298 0)
(-4.64645 -0.304716 7.07159e-19)
(-4.6548 -0.235001 4.96938e-19)
(-4.66981 -0.164326 -2.14179e-20)
(-4.68872 -0.0945553 8.55648e-20)
(-4.70934 -0.0267976 6.19208e-20)
(-4.72961 0.0380944 0)
(-4.748 0.0996923 5.04419e-20)
(-4.76311 0.157656 -2.05758e-21)
(-4.77336 0.211457 -1.73755e-21)
(-4.77781 0.260968 0)
(-4.77551 0.306 3.35948e-21)
(-4.76541 0.346231 0)
(-4.74695 0.3816 -7.96395e-20)
(-4.72221 0.409117 -7.4198e-21)
(-4.69452 0.429721 3.93677e-20)
(-4.66312 0.446878 4.39223e-21)
(-4.62851 0.461032 4.94545e-20)
(-4.59118 0.472589 4.8518e-21)
(-4.55156 0.481887 0)
(-4.51092 0.489882 0)
(-4.46553 0.493894 0)
(-4.41688 0.494935 1.11763e-19)
(-4.36745 0.494774 -2.62223e-21)
(-4.31781 0.493855 -3.37369e-19)
(-4.26819 0.492373 3.3308e-19)
(-4.21885 0.490552 -3.30085e-19)
(-4.16996 0.488552 4.37166e-19)
(-4.12167 0.486521 -3.26624e-19)
(-4.07415 0.484608 0)
(-4.02752 0.482972 0)
(-3.98191 0.481721 2.12762e-19)
(-3.93739 0.480961 9.35587e-22)
(-3.89407 0.480796 -3.13141e-22)
)
;
    }
    frontAndBack
    {
        type            empty;
    }
}


// ************************************************************************* //
