/*--------------------------------*- C++ -*----------------------------------*\
| =========                 |                                                 |
| \\      /  F ield         | OpenFOAM: The Open Source CFD Toolbox           |
|  \\    /   O peration     | Version:  5.x                                   |
|   \\  /    A nd           | Web:      www.OpenFOAM.org                      |
|    \\/     M anipulation  |                                                 |
\*---------------------------------------------------------------------------*/
FoamFile
{
    version     2.0;
    format      ascii;
    class       volVectorField;
    location    "0";
    object      wallShearStress;
}
// * * * * * * * * * * * * * * * * * * * * * * * * * * * * * * * * * * * * * //

dimensions      [0 2 -2 0 0 0 0];

internalField   uniform (0 0 0);

boundaryField
{
    inlet
    {
        type            calculated;
        value           uniform (0 0 0);
    }
    outlet
    {
        type            calculated;
        value           uniform (0 0 0);
    }
    walls
    {
        type            calculated;
        value           nonuniform List<vector> 
82
(
(-0.119936 -0.0358578 0)
(-0.117656 -0.0326517 -4.70561e-22)
(-0.108099 -0.0234355 2.40324e-20)
(-0.103829 -0.0216667 7.28345e-21)
(-0.100595 -0.0218661 2.91812e-20)
(-0.0986044 -0.0233884 -1.55739e-20)
(-0.0975508 -0.0256452 -1.0352e-20)
(-0.0972444 -0.0283596 1.47305e-21)
(-0.0975682 -0.0313915 5.27001e-21)
(-0.0984884 -0.0347046 6.39283e-23)
(-0.100193 -0.0385318 -5.67431e-22)
(-0.101481 -0.0413787 2.18231e-22)
(-0.101999 -0.0430893 -1.48956e-21)
(-0.10226 -0.0443701 -5.38907e-21)
(-0.102917 -0.0459897 -5.35272e-21)
(-0.103467 -0.0474059 -5.92766e-21)
(-0.103909 -0.0486444 1.48722e-21)
(-0.104229 -0.049711 4.19423e-22)
(-0.104413 -0.0506115 -4.25851e-22)
(-0.104445 -0.0513435 -2.27518e-21)
(-0.104311 -0.0519069 -3.38681e-21)
(-0.104029 -0.0522621 -4.22533e-21)
(-0.103668 -0.0524638 -2.60373e-21)
(-0.103222 -0.0525696 5.31681e-21)
(-0.102707 -0.0525961 -0)
(-0.102126 -0.0525502 -5.71641e-21)
(-0.101491 -0.0524447 -6.01938e-21)
(-0.100808 -0.0522879 2.8376e-22)
(-0.100087 -0.0520877 -1.84783e-20)
(-0.0993333 -0.0518514 1.79119e-20)
(-0.0985549 -0.0515859 2.83973e-22)
(-0.0977588 -0.0512974 1.41687e-22)
(-0.0969508 -0.0509911 -1.4133e-22)
(-0.0961362 -0.0506713 -0)
(-0.0953252 -0.0503461 2.38245e-20)
(-0.0945209 -0.0500174 -0)
(-0.0937244 -0.0496861 -0)
(-0.0929494 -0.0493615 -6.89461e-23)
(-0.0921955 -0.0490427 -2.34333e-20)
(-0.0914688 -0.0487331 -3.51602e-20)
(-0.090777 -0.0484368 -7.02079e-20)
(-0.124915 -0.048597 -2.77533e-20)
(-0.124063 -0.0558807 -2.50555e-21)
(-0.123399 -0.0611413 -9.84039e-20)
(-0.122468 -0.0638014 -1.39887e-20)
(-0.120933 -0.0643816 -9.95001e-21)
(-0.118792 -0.0636832 -3.30063e-20)
(-0.11626 -0.0623594 -3.86554e-20)
(-0.113596 -0.0608372 -2.42954e-20)
(-0.111015 -0.059362 4.78338e-21)
(-0.108475 -0.0579933 1.35821e-21)
(-0.108028 -0.0573711 -2.52438e-20)
(-0.107955 -0.0567019 1.54989e-20)
(-0.107532 -0.0558912 0)
(-0.106992 -0.055047 3.80024e-21)
(-0.106479 -0.0541887 7.72504e-21)
(-0.105947 -0.0533123 -6.43252e-22)
(-0.105373 -0.0524153 0)
(-0.104736 -0.0514962 -2.1858e-21)
(-0.104018 -0.0505546 -3.7246e-22)
(-0.103206 -0.0495906 -1.57897e-21)
(-0.102289 -0.0486054 1.86106e-21)
(-0.10136 -0.0477022 0)
(-0.100484 -0.0469099 -3.16722e-21)
(-0.0995825 -0.046143 -2.64619e-21)
(-0.0986591 -0.0454 1.78146e-21)
(-0.0977168 -0.0446791 1.6932e-21)
(-0.0967585 -0.0439788 6.45632e-21)
(-0.0957876 -0.0432972 4.61744e-21)
(-0.0948068 -0.0426326 1.37688e-22)
(-0.0938193 -0.041983 -1.53193e-21)
(-0.0928274 -0.0413466 -4.08319e-21)
(-0.091834 -0.0407214 7.74453e-21)
(-0.0908414 -0.0401053 7.40145e-21)
(-0.0898515 -0.0394966 -2.39161e-21)
(-0.0888664 -0.0388933 5.24212e-23)
(-0.0878875 -0.038294 -5.01872e-23)
(-0.0869173 -0.0376963 0)
(-0.0859575 -0.0370972 0)
(-0.0850092 -0.036497 1.06965e-23)
(-0.0840745 -0.0358923 -1.73725e-21)
(-0.0831551 -0.0352815 4.77726e-24)
)
;
    }
    frontAndBack
    {
        type            empty;
    }
}


// ************************************************************************* //
