/*--------------------------------*- C++ -*----------------------------------*\
| =========                 |                                                 |
| \\      /  F ield         | OpenFOAM: The Open Source CFD Toolbox           |
|  \\    /   O peration     | Version:  5.x                                   |
|   \\  /    A nd           | Web:      www.OpenFOAM.org                      |
|    \\/     M anipulation  |                                                 |
\*---------------------------------------------------------------------------*/
FoamFile
{
    version     2.0;
    format      ascii;
    class       volVectorField;
    location    "0";
    object      wallShearStress;
}
// * * * * * * * * * * * * * * * * * * * * * * * * * * * * * * * * * * * * * //

dimensions      [0 2 -2 0 0 0 0];

internalField   uniform (0 0 0);

boundaryField
{
    inlet
    {
        type            calculated;
        value           uniform (0 0 0);
    }
    outlet
    {
        type            calculated;
        value           uniform (0 0 0);
    }
    walls
    {
        type            calculated;
        value           nonuniform List<vector> 
82
(
(-0.126394 -0.00841058 0)
(-0.124841 -0.0055286 -4.96991e-22)
(-0.117854 0.00458813 2.87613e-20)
(-0.114419 0.00788802 9.44754e-21)
(-0.111637 0.00965763 4.19081e-20)
(-0.109736 0.0100121 -2.5223e-20)
(-0.108549 0.00948308 -1.9573e-20)
(-0.107968 0.00836687 3.48477e-21)
(-0.10792 0.00682517 1.83882e-20)
(-0.108394 0.00493372 6.66489e-22)
(-0.109568 0.00259501 2.50486e-21)
(-0.110388 0.000652146 -3.3933e-22)
(-0.110541 -0.000700845 1.34848e-21)
(-0.110483 -0.00181748 3.14472e-21)
(-0.110781 -0.00316577 1.72039e-21)
(-0.110988 -0.00441824 8.74288e-22)
(-0.111102 -0.00558712 -3.29477e-23)
(-0.111105 -0.00667345 3.05783e-23)
(-0.110985 -0.00767918 -6.29534e-23)
(-0.110724 -0.0086008 -4.74092e-22)
(-0.11031 -0.00943617 -8.74769e-22)
(-0.109786 -0.0101087 -1.25089e-21)
(-0.10922 -0.010636 -8.45172e-22)
(-0.108586 -0.0110948 1.85555e-21)
(-0.107894 -0.0114958 -0)
(-0.107147 -0.0118431 -2.22235e-21)
(-0.106356 -0.0121451 -2.43926e-21)
(-0.105527 -0.0124074 1.19176e-22)
(-0.104666 -0.0126353 -8.0075e-21)
(-0.10378 -0.0128341 7.98094e-21)
(-0.102875 -0.0130085 1.2974e-22)
(-0.101956 -0.0131632 6.62336e-23)
(-0.10103 -0.0133021 -6.74841e-23)
(-0.1001 -0.0134283 -0)
(-0.0991768 -0.0135483 1.18276e-20)
(-0.0982617 -0.0136638 -0)
(-0.0973563 -0.0137751 -0)
(-0.0964727 -0.0138902 -3.61172e-23)
(-0.0956108 -0.0140082 -1.24915e-20)
(-0.0947762 -0.0141321 -1.90723e-20)
(-0.093976 -0.0142652 -3.87594e-20)
(-0.128744 -0.0184423 -2.58237e-20)
(-0.126614 -0.0229207 -2.16172e-21)
(-0.125536 -0.0247474 -7.8427e-20)
(-0.124797 -0.0244701 -1.03043e-20)
(-0.123685 -0.0231312 -6.8056e-21)
(-0.121961 -0.0215094 -2.11381e-20)
(-0.119741 -0.0200134 -2.34484e-20)
(-0.117264 -0.0188076 -1.41538e-20)
(-0.114757 -0.017932 2.71673e-21)
(-0.112148 -0.0174762 7.69331e-22)
(-0.112121 -0.0161488 -1.32284e-20)
(-0.112552 -0.0146493 7.30927e-21)
(-0.112496 -0.0134445 0)
(-0.112257 -0.0123953 1.47547e-21)
(-0.112031 -0.0113841 2.67451e-21)
(-0.111768 -0.0104207 -1.94538e-22)
(-0.111441 -0.00950504 0)
(-0.111029 -0.00863754 -4.57194e-22)
(-0.110511 -0.00781936 -5.94412e-23)
(-0.109874 -0.00705148 -1.7069e-22)
(-0.109105 -0.00633484 1.02036e-22)
(-0.108286 -0.00573788 0)
(-0.107486 -0.00525447 1.18288e-22)
(-0.106644 -0.00481942 2.1047e-22)
(-0.105764 -0.00442728 -2.14862e-22)
(-0.104851 -0.00407297 -2.71863e-22)
(-0.103911 -0.00375211 -1.28732e-21)
(-0.102947 -0.00345994 -1.09548e-21)
(-0.101965 -0.0031927 -3.77622e-23)
(-0.100969 -0.00294627 4.75974e-22)
(-0.0999632 -0.00271733 1.41625e-21)
(-0.098951 -0.0025021 -2.96743e-21)
(-0.0979364 -0.00229736 -3.10977e-21)
(-0.0969222 -0.00210037 1.09624e-21)
(-0.0959117 -0.00190811 -2.61349e-23)
(-0.094907 -0.00171862 2.71706e-23)
(-0.0939118 -0.00152862 0)
(-0.0929291 -0.00133445 0)
(-0.0919601 -0.00113619 -7.47611e-24)
(-0.0910081 -0.00093002 1.33168e-21)
(-0.0900757 -0.000714062 -4.04056e-24)
)
;
    }
    frontAndBack
    {
        type            empty;
    }
}


// ************************************************************************* //
