/*--------------------------------*- C++ -*----------------------------------*\
| =========                 |                                                 |
| \\      /  F ield         | OpenFOAM: The Open Source CFD Toolbox           |
|  \\    /   O peration     | Version:  5.x                                   |
|   \\  /    A nd           | Web:      www.OpenFOAM.org                      |
|    \\/     M anipulation  |                                                 |
\*---------------------------------------------------------------------------*/
FoamFile
{
    version     2.0;
    format      ascii;
    class       volScalarField;
    location    "0";
    object      yPlus;
}
// * * * * * * * * * * * * * * * * * * * * * * * * * * * * * * * * * * * * * //

dimensions      [0 0 0 0 0 0 0];

internalField   uniform 0;

boundaryField
{
    inlet
    {
        type            calculated;
        value           uniform 0;
    }
    outlet
    {
        type            calculated;
        value           uniform 0;
    }
    walls
    {
        type            calculated;
        value           nonuniform List<scalar> 
82
(
13.2912
11.908
11.1555
10.9689
11.0018
11.1193
11.2623
11.405
11.5368
11.6543
11.7578
11.8491
11.9305
12.0042
12.0731
12.1397
12.2062
12.2747
12.3471
12.4249
12.5094
12.5918
12.6686
12.747
12.8271
12.9091
12.993
13.0788
13.1666
13.2564
13.3482
13.4418
13.5374
13.6339
13.7295
13.8268
13.9261
14.0271
14.13
14.2345
14.3406
13.3162
11.8225
11.0827
10.8867
10.9175
11.0363
11.1825
11.3294
11.4658
11.5881
11.6965
11.7927
11.8787
11.957
12.0303
12.1011
12.1717
12.2441
12.3202
12.4016
12.4896
12.5751
12.6546
12.7355
12.8179
12.902
12.9878
13.0754
13.1648
13.2561
13.3492
13.4441
13.5408
13.6399
13.7434
13.8485
13.9548
14.0622
14.1707
14.2804
14.3913
)
;
    }
    frontAndBack
    {
        type            empty;
    }
}


// ************************************************************************* //
