# y+ ()      
# Time       	patch        	min          	max          	average      
0            	walls	8.546673e+01	9.517116e+01	9.211695e+01
50           	walls	3.307088e+01	1.046576e+02	9.222825e+01
100          	walls	2.248672e+01	1.391448e+02	8.620363e+01
150          	walls	2.748869e+01	1.407168e+02	8.093747e+01
