/*--------------------------------*- C++ -*----------------------------------*\
| =========                 |                                                 |
| \\      /  F ield         | OpenFOAM: The Open Source CFD Toolbox           |
|  \\    /   O peration     | Version:  5.x                                   |
|   \\  /    A nd           | Web:      www.OpenFOAM.org                      |
|    \\/     M anipulation  |                                                 |
\*---------------------------------------------------------------------------*/
FoamFile
{
    version     2.0;
    format      ascii;
    class       volScalarField;
    location    "3500";
    object      p;
}
// * * * * * * * * * * * * * * * * * * * * * * * * * * * * * * * * * * * * * //

dimensions      [0 2 -2 0 0 0 0];

internalField   nonuniform List<scalar> 
107912
(
2.17578e-05
4.81624e-05
1.99757e-05
9.73726e-06
-2.33046e-05
-5.01994e-05
-4.0664e-05
-6.36478e-05
-6.4439e-05
-7.41985e-05
-7.71637e-05
-8.13991e-05
-8.37331e-05
-8.54856e-05
-8.65782e-05
-8.72223e-05
-8.72156e-05
-8.71542e-05
-8.64996e-05
-8.57687e-05
-8.48082e-05
-8.35709e-05
-8.22905e-05
-8.08448e-05
-7.92534e-05
-7.76482e-05
-7.59234e-05
-7.41495e-05
-7.2369e-05
-7.05215e-05
-6.87125e-05
-6.68899e-05
-6.5071e-05
-6.33071e-05
-6.1571e-05
-5.98856e-05
-5.82684e-05
-5.67158e-05
-5.52493e-05
-5.38614e-05
-5.25537e-05
-5.13498e-05
-5.02254e-05
-4.91961e-05
-4.82529e-05
-4.73947e-05
-4.66246e-05
-4.59245e-05
-4.5305e-05
-4.47417e-05
-4.425e-05
-4.38009e-05
-4.3455e-05
-4.31736e-05
-4.29275e-05
-4.27022e-05
-4.25038e-05
-4.23256e-05
-4.21659e-05
-4.20217e-05
-4.18927e-05
-4.17687e-05
-4.16631e-05
-4.15617e-05
-4.14739e-05
-4.13866e-05
-4.13127e-05
-4.12409e-05
-4.11789e-05
-4.11167e-05
-4.10662e-05
-4.10142e-05
-4.09742e-05
-4.0931e-05
-4.0896e-05
-4.08554e-05
-4.08265e-05
-4.07945e-05
-4.07678e-05
-4.07402e-05
-4.07147e-05
-4.06863e-05
-4.06613e-05
-4.06322e-05
-4.06048e-05
-4.05709e-05
-4.05403e-05
-4.05042e-05
-4.04673e-05
-4.04269e-05
-4.03826e-05
-4.03406e-05
-4.02858e-05
-4.0248e-05
-4.01758e-05
-4.01683e-05
-4.00639e-05
-4.0139e-05
-3.99525e-05
-4.02653e-05
-3.9829e-05
-4.21135e-05
3.06236e-05
4.81177e-05
1.98614e-05
9.63474e-06
-2.32325e-05
-5.00802e-05
-4.06261e-05
-6.3573e-05
-6.43872e-05
-7.41432e-05
-7.71227e-05
-8.13625e-05
-8.37049e-05
-8.5463e-05
-8.65603e-05
-8.72089e-05
-8.72055e-05
-8.71468e-05
-8.64949e-05
-8.57655e-05
-8.48068e-05
-8.35708e-05
-8.22913e-05
-8.08466e-05
-7.92557e-05
-7.7651e-05
-7.59267e-05
-7.41531e-05
-7.23727e-05
-7.05254e-05
-6.87163e-05
-6.68938e-05
-6.50748e-05
-6.33109e-05
-6.15747e-05
-5.98891e-05
-5.82717e-05
-5.6719e-05
-5.52523e-05
-5.38642e-05
-5.25563e-05
-5.13522e-05
-5.02276e-05
-4.91981e-05
-4.82547e-05
-4.73963e-05
-4.66261e-05
-4.59258e-05
-4.53062e-05
-4.47428e-05
-4.42509e-05
-4.38017e-05
-4.34557e-05
-4.31743e-05
-4.2928e-05
-4.27027e-05
-4.25043e-05
-4.2326e-05
-4.21663e-05
-4.20221e-05
-4.18929e-05
-4.1769e-05
-4.16633e-05
-4.1562e-05
-4.14741e-05
-4.13868e-05
-4.13128e-05
-4.1241e-05
-4.1179e-05
-4.11168e-05
-4.10663e-05
-4.10144e-05
-4.09742e-05
-4.0931e-05
-4.0896e-05
-4.08555e-05
-4.08265e-05
-4.07945e-05
-4.07678e-05
-4.07402e-05
-4.07147e-05
-4.06863e-05
-4.06612e-05
-4.06322e-05
-4.06048e-05
-4.05709e-05
-4.05403e-05
-4.05042e-05
-4.04673e-05
-4.0427e-05
-4.03826e-05
-4.03407e-05
-4.02858e-05
-4.02481e-05
-4.01759e-05
-4.01686e-05
-4.00641e-05
-4.01394e-05
-3.99528e-05
-4.02667e-05
-3.98292e-05
-4.20329e-05
3.17899e-05
4.80642e-05
1.97301e-05
9.51716e-06
-2.31551e-05
-4.99436e-05
-4.05831e-05
-6.34923e-05
-6.43283e-05
-7.40818e-05
-7.70761e-05
-8.13211e-05
-8.36724e-05
-8.54369e-05
-8.65393e-05
-8.71928e-05
-8.71931e-05
-8.71374e-05
-8.64886e-05
-8.57608e-05
-8.48041e-05
-8.35697e-05
-8.2291e-05
-8.08474e-05
-7.92574e-05
-7.76531e-05
-7.59294e-05
-7.41561e-05
-7.2376e-05
-7.05289e-05
-6.87199e-05
-6.68974e-05
-6.50784e-05
-6.33144e-05
-6.15782e-05
-5.98924e-05
-5.8275e-05
-5.6722e-05
-5.52552e-05
-5.38669e-05
-5.25589e-05
-5.13546e-05
-5.02298e-05
-4.92002e-05
-4.82566e-05
-4.7398e-05
-4.66277e-05
-4.59272e-05
-4.53074e-05
-4.47439e-05
-4.42519e-05
-4.38026e-05
-4.34565e-05
-4.3175e-05
-4.29287e-05
-4.27033e-05
-4.25047e-05
-4.23265e-05
-4.21667e-05
-4.20224e-05
-4.18932e-05
-4.17693e-05
-4.16636e-05
-4.15622e-05
-4.14743e-05
-4.1387e-05
-4.1313e-05
-4.12412e-05
-4.11791e-05
-4.1117e-05
-4.10664e-05
-4.10145e-05
-4.09742e-05
-4.09311e-05
-4.0896e-05
-4.08555e-05
-4.08265e-05
-4.07945e-05
-4.07678e-05
-4.07402e-05
-4.07146e-05
-4.06863e-05
-4.06612e-05
-4.06322e-05
-4.06047e-05
-4.05709e-05
-4.05402e-05
-4.05042e-05
-4.04672e-05
-4.0427e-05
-4.03826e-05
-4.03407e-05
-4.02859e-05
-4.02482e-05
-4.0176e-05
-4.01688e-05
-4.00643e-05
-4.01399e-05
-3.99531e-05
-4.02683e-05
-3.983e-05
-4.20183e-05
3.12783e-05
4.80079e-05
1.95977e-05
9.39656e-06
-2.30773e-05
-4.98032e-05
-4.05389e-05
-6.34091e-05
-6.42681e-05
-7.40187e-05
-7.70281e-05
-8.12784e-05
-8.36388e-05
-8.54097e-05
-8.65174e-05
-8.7176e-05
-8.71802e-05
-8.71275e-05
-8.64818e-05
-8.57559e-05
-8.48011e-05
-8.35683e-05
-8.22906e-05
-8.08481e-05
-7.92589e-05
-7.76551e-05
-7.5932e-05
-7.4159e-05
-7.23792e-05
-7.05324e-05
-6.87234e-05
-6.6901e-05
-6.50821e-05
-6.3318e-05
-6.15817e-05
-5.98958e-05
-5.82783e-05
-5.67251e-05
-5.52581e-05
-5.38697e-05
-5.25614e-05
-5.1357e-05
-5.02321e-05
-4.92022e-05
-4.82585e-05
-4.73997e-05
-4.66292e-05
-4.59286e-05
-4.53086e-05
-4.4745e-05
-4.42529e-05
-4.38035e-05
-4.34572e-05
-4.31757e-05
-4.29293e-05
-4.27038e-05
-4.25052e-05
-4.23269e-05
-4.2167e-05
-4.20228e-05
-4.18934e-05
-4.17695e-05
-4.16638e-05
-4.15624e-05
-4.14745e-05
-4.13872e-05
-4.13131e-05
-4.12413e-05
-4.11792e-05
-4.11171e-05
-4.10665e-05
-4.10146e-05
-4.09742e-05
-4.09311e-05
-4.0896e-05
-4.08556e-05
-4.08264e-05
-4.07945e-05
-4.07677e-05
-4.07402e-05
-4.07146e-05
-4.06862e-05
-4.06611e-05
-4.06321e-05
-4.06046e-05
-4.05709e-05
-4.05401e-05
-4.05041e-05
-4.04671e-05
-4.04269e-05
-4.03826e-05
-4.03407e-05
-4.02858e-05
-4.02483e-05
-4.01761e-05
-4.0169e-05
-4.00645e-05
-4.01403e-05
-3.99535e-05
-4.02699e-05
-3.98308e-05
-4.2013e-05
3.11231e-05
4.79473e-05
1.94611e-05
9.27023e-06
-2.29962e-05
-4.96551e-05
-4.0492e-05
-6.33202e-05
-6.42047e-05
-7.39514e-05
-7.69773e-05
-8.12329e-05
-8.36032e-05
-8.53809e-05
-8.64943e-05
-8.71582e-05
-8.71665e-05
-8.7117e-05
-8.64747e-05
-8.57506e-05
-8.47979e-05
-8.35669e-05
-8.22902e-05
-8.0849e-05
-7.92605e-05
-7.76572e-05
-7.59348e-05
-7.41622e-05
-7.23826e-05
-7.05361e-05
-6.87272e-05
-6.69048e-05
-6.50859e-05
-6.33218e-05
-6.15854e-05
-5.98994e-05
-5.82818e-05
-5.67284e-05
-5.52612e-05
-5.38726e-05
-5.25642e-05
-5.13596e-05
-5.02344e-05
-4.92044e-05
-4.82604e-05
-4.74015e-05
-4.66309e-05
-4.59301e-05
-4.53099e-05
-4.47462e-05
-4.42539e-05
-4.38045e-05
-4.3458e-05
-4.31764e-05
-4.29299e-05
-4.27044e-05
-4.25057e-05
-4.23273e-05
-4.21674e-05
-4.20231e-05
-4.18937e-05
-4.17698e-05
-4.1664e-05
-4.15626e-05
-4.14746e-05
-4.13874e-05
-4.13132e-05
-4.12415e-05
-4.11793e-05
-4.11172e-05
-4.10665e-05
-4.10147e-05
-4.09741e-05
-4.09311e-05
-4.08959e-05
-4.08557e-05
-4.08263e-05
-4.07945e-05
-4.07676e-05
-4.07401e-05
-4.07145e-05
-4.06861e-05
-4.06609e-05
-4.0632e-05
-4.06044e-05
-4.05708e-05
-4.054e-05
-4.05041e-05
-4.0467e-05
-4.04269e-05
-4.03825e-05
-4.03407e-05
-4.02858e-05
-4.02484e-05
-4.01762e-05
-4.01693e-05
-4.00647e-05
-4.01407e-05
-3.99539e-05
-4.02717e-05
-3.98316e-05
-4.20036e-05
3.11755e-05
4.78809e-05
1.93187e-05
9.13683e-06
-2.29101e-05
-4.94965e-05
-4.04415e-05
-6.32241e-05
-6.41369e-05
-7.3879e-05
-7.69227e-05
-8.1184e-05
-8.35648e-05
-8.53498e-05
-8.64694e-05
-8.71391e-05
-8.71517e-05
-8.71058e-05
-8.6467e-05
-8.57449e-05
-8.47945e-05
-8.35653e-05
-8.22898e-05
-8.08498e-05
-7.92622e-05
-7.76596e-05
-7.59378e-05
-7.41657e-05
-7.23863e-05
-7.05401e-05
-6.87312e-05
-6.69089e-05
-6.50901e-05
-6.33258e-05
-6.15894e-05
-5.99032e-05
-5.82855e-05
-5.67319e-05
-5.52646e-05
-5.38758e-05
-5.25672e-05
-5.13623e-05
-5.0237e-05
-4.92068e-05
-4.82625e-05
-4.74035e-05
-4.66326e-05
-4.59316e-05
-4.53113e-05
-4.47474e-05
-4.4255e-05
-4.38055e-05
-4.34589e-05
-4.31771e-05
-4.29305e-05
-4.2705e-05
-4.25061e-05
-4.23277e-05
-4.21677e-05
-4.20234e-05
-4.18939e-05
-4.17701e-05
-4.16642e-05
-4.15628e-05
-4.14747e-05
-4.13875e-05
-4.13133e-05
-4.12416e-05
-4.11793e-05
-4.11173e-05
-4.10665e-05
-4.10148e-05
-4.09739e-05
-4.09311e-05
-4.08958e-05
-4.08557e-05
-4.08262e-05
-4.07944e-05
-4.07675e-05
-4.074e-05
-4.07143e-05
-4.06861e-05
-4.06608e-05
-4.06319e-05
-4.06042e-05
-4.05707e-05
-4.05398e-05
-4.0504e-05
-4.04669e-05
-4.04268e-05
-4.03824e-05
-4.03407e-05
-4.02857e-05
-4.02484e-05
-4.01763e-05
-4.01695e-05
-4.00649e-05
-4.01412e-05
-3.99542e-05
-4.02735e-05
-3.98325e-05
-4.1992e-05
3.12383e-05
4.7808e-05
1.91708e-05
8.99656e-06
-2.28182e-05
-4.93263e-05
-4.03872e-05
-6.31204e-05
-6.40644e-05
-7.38011e-05
-7.68642e-05
-8.11314e-05
-8.35237e-05
-8.53163e-05
-8.64426e-05
-8.71184e-05
-8.71358e-05
-8.70936e-05
-8.64587e-05
-8.57388e-05
-8.47909e-05
-8.35637e-05
-8.22894e-05
-8.08508e-05
-7.92641e-05
-7.7662e-05
-7.59411e-05
-7.41694e-05
-7.23903e-05
-7.05444e-05
-6.87355e-05
-6.69133e-05
-6.50945e-05
-6.33302e-05
-6.15937e-05
-5.99074e-05
-5.82896e-05
-5.67357e-05
-5.52682e-05
-5.38791e-05
-5.25703e-05
-5.13653e-05
-5.02397e-05
-4.92093e-05
-4.82648e-05
-4.74056e-05
-4.66345e-05
-4.59333e-05
-4.53127e-05
-4.47487e-05
-4.42561e-05
-4.38066e-05
-4.34598e-05
-4.31779e-05
-4.29312e-05
-4.27056e-05
-4.25066e-05
-4.23282e-05
-4.21681e-05
-4.20238e-05
-4.18941e-05
-4.17704e-05
-4.16644e-05
-4.15631e-05
-4.14749e-05
-4.13877e-05
-4.13134e-05
-4.12417e-05
-4.11794e-05
-4.11174e-05
-4.10665e-05
-4.10149e-05
-4.09738e-05
-4.09311e-05
-4.08957e-05
-4.08558e-05
-4.0826e-05
-4.07944e-05
-4.07674e-05
-4.07399e-05
-4.07142e-05
-4.0686e-05
-4.06606e-05
-4.06318e-05
-4.06041e-05
-4.05706e-05
-4.05396e-05
-4.05038e-05
-4.04667e-05
-4.04267e-05
-4.03823e-05
-4.03406e-05
-4.02857e-05
-4.02485e-05
-4.01764e-05
-4.01697e-05
-4.00651e-05
-4.01416e-05
-3.99546e-05
-4.02754e-05
-3.98335e-05
-4.19797e-05
3.12908e-05
4.7728e-05
1.90182e-05
8.84995e-06
-2.27194e-05
-4.9143e-05
-4.03289e-05
-6.3008e-05
-6.3987e-05
-7.37171e-05
-7.68014e-05
-8.10747e-05
-8.34794e-05
-8.52803e-05
-8.64138e-05
-8.70962e-05
-8.71187e-05
-8.70805e-05
-8.64498e-05
-8.57322e-05
-8.47869e-05
-8.35618e-05
-8.22889e-05
-8.08517e-05
-7.9266e-05
-7.76647e-05
-7.59445e-05
-7.41733e-05
-7.23946e-05
-7.0549e-05
-6.87402e-05
-6.69181e-05
-6.50993e-05
-6.33349e-05
-6.15983e-05
-5.99118e-05
-5.82939e-05
-5.67398e-05
-5.5272e-05
-5.38827e-05
-5.25737e-05
-5.13684e-05
-5.02426e-05
-4.9212e-05
-4.82672e-05
-4.74078e-05
-4.66365e-05
-4.59351e-05
-4.53143e-05
-4.47501e-05
-4.42574e-05
-4.38077e-05
-4.34607e-05
-4.31787e-05
-4.29319e-05
-4.27062e-05
-4.25071e-05
-4.23287e-05
-4.21685e-05
-4.20241e-05
-4.18943e-05
-4.17707e-05
-4.16646e-05
-4.15633e-05
-4.1475e-05
-4.13879e-05
-4.13135e-05
-4.12419e-05
-4.11794e-05
-4.11176e-05
-4.10664e-05
-4.1015e-05
-4.09736e-05
-4.0931e-05
-4.08955e-05
-4.08558e-05
-4.08258e-05
-4.07943e-05
-4.07672e-05
-4.07397e-05
-4.0714e-05
-4.06858e-05
-4.06604e-05
-4.06316e-05
-4.06038e-05
-4.05705e-05
-4.05394e-05
-4.05037e-05
-4.04665e-05
-4.04266e-05
-4.03821e-05
-4.03406e-05
-4.02856e-05
-4.02486e-05
-4.01765e-05
-4.017e-05
-4.00653e-05
-4.01421e-05
-3.9955e-05
-4.02774e-05
-3.98346e-05
-4.19667e-05
3.13483e-05
4.764e-05
1.88614e-05
8.69765e-06
-2.26122e-05
-4.89451e-05
-4.02663e-05
-6.28862e-05
-6.39041e-05
-7.36266e-05
-7.67339e-05
-8.10138e-05
-8.34318e-05
-8.52415e-05
-8.63828e-05
-8.70723e-05
-8.71002e-05
-8.70665e-05
-8.64401e-05
-8.57251e-05
-8.47827e-05
-8.35599e-05
-8.22883e-05
-8.08528e-05
-7.92682e-05
-7.76676e-05
-7.59483e-05
-7.41775e-05
-7.23992e-05
-7.05539e-05
-6.87452e-05
-6.69231e-05
-6.51044e-05
-6.33399e-05
-6.16032e-05
-5.99166e-05
-5.82986e-05
-5.67441e-05
-5.52761e-05
-5.38866e-05
-5.25774e-05
-5.13718e-05
-5.02458e-05
-4.92149e-05
-4.82699e-05
-4.74102e-05
-4.66386e-05
-4.5937e-05
-4.5316e-05
-4.47517e-05
-4.42587e-05
-4.3809e-05
-4.34617e-05
-4.31796e-05
-4.29327e-05
-4.27069e-05
-4.25077e-05
-4.23293e-05
-4.21689e-05
-4.20245e-05
-4.18946e-05
-4.1771e-05
-4.16648e-05
-4.15636e-05
-4.14751e-05
-4.13881e-05
-4.13136e-05
-4.1242e-05
-4.11794e-05
-4.11177e-05
-4.10664e-05
-4.10151e-05
-4.09735e-05
-4.0931e-05
-4.08954e-05
-4.08558e-05
-4.08257e-05
-4.07942e-05
-4.0767e-05
-4.07396e-05
-4.07138e-05
-4.06857e-05
-4.06602e-05
-4.06314e-05
-4.06036e-05
-4.05704e-05
-4.05392e-05
-4.05035e-05
-4.04663e-05
-4.04265e-05
-4.0382e-05
-4.03405e-05
-4.02855e-05
-4.02487e-05
-4.01766e-05
-4.01702e-05
-4.00655e-05
-4.01427e-05
-3.99555e-05
-4.02796e-05
-3.98358e-05
-4.19528e-05
3.14158e-05
4.75433e-05
1.87013e-05
8.54055e-06
-2.24947e-05
-4.87302e-05
-4.0199e-05
-6.27536e-05
-6.38151e-05
-7.35288e-05
-7.66614e-05
-8.0948e-05
-8.33805e-05
-8.51997e-05
-8.63493e-05
-8.70464e-05
-8.70803e-05
-8.70513e-05
-8.64297e-05
-8.57174e-05
-8.4778e-05
-8.35577e-05
-8.22877e-05
-8.08539e-05
-7.92704e-05
-7.76706e-05
-7.59522e-05
-7.4182e-05
-7.24041e-05
-7.05592e-05
-6.87505e-05
-6.69286e-05
-6.51099e-05
-6.33453e-05
-6.16085e-05
-5.99216e-05
-5.83036e-05
-5.67488e-05
-5.52805e-05
-5.38908e-05
-5.25813e-05
-5.13754e-05
-5.02491e-05
-4.92179e-05
-4.82727e-05
-4.74127e-05
-4.66409e-05
-4.59391e-05
-4.53177e-05
-4.47533e-05
-4.42601e-05
-4.38103e-05
-4.34628e-05
-4.31806e-05
-4.29335e-05
-4.27077e-05
-4.25083e-05
-4.23298e-05
-4.21694e-05
-4.20249e-05
-4.18948e-05
-4.17714e-05
-4.1665e-05
-4.15638e-05
-4.14752e-05
-4.13884e-05
-4.13137e-05
-4.12422e-05
-4.11795e-05
-4.11178e-05
-4.10664e-05
-4.10152e-05
-4.09733e-05
-4.09309e-05
-4.08953e-05
-4.08558e-05
-4.08255e-05
-4.07941e-05
-4.07669e-05
-4.07395e-05
-4.07136e-05
-4.06856e-05
-4.06599e-05
-4.06312e-05
-4.06033e-05
-4.05702e-05
-4.0539e-05
-4.05034e-05
-4.04661e-05
-4.04264e-05
-4.03818e-05
-4.03404e-05
-4.02854e-05
-4.02487e-05
-4.01767e-05
-4.01705e-05
-4.00657e-05
-4.01432e-05
-3.9956e-05
-4.02818e-05
-3.9837e-05
-4.19381e-05
3.14953e-05
4.7437e-05
1.85391e-05
8.37976e-06
-2.23648e-05
-4.84959e-05
-4.01264e-05
-6.26091e-05
-6.37195e-05
-7.3423e-05
-7.65832e-05
-8.0877e-05
-8.33252e-05
-8.51545e-05
-8.63133e-05
-8.70186e-05
-8.70588e-05
-8.70349e-05
-8.64185e-05
-8.57091e-05
-8.4773e-05
-8.35554e-05
-8.2287e-05
-8.0855e-05
-7.92728e-05
-7.76739e-05
-7.59565e-05
-7.41869e-05
-7.24093e-05
-7.05649e-05
-6.87562e-05
-6.69344e-05
-6.51158e-05
-6.33511e-05
-6.16141e-05
-5.99271e-05
-5.83089e-05
-5.67538e-05
-5.52853e-05
-5.38952e-05
-5.25855e-05
-5.13793e-05
-5.02527e-05
-4.92213e-05
-4.82757e-05
-4.74155e-05
-4.66434e-05
-4.59413e-05
-4.53197e-05
-4.47551e-05
-4.42616e-05
-4.38117e-05
-4.3464e-05
-4.31816e-05
-4.29344e-05
-4.27085e-05
-4.2509e-05
-4.23305e-05
-4.21699e-05
-4.20254e-05
-4.18951e-05
-4.17718e-05
-4.16653e-05
-4.15641e-05
-4.14754e-05
-4.13886e-05
-4.13138e-05
-4.12423e-05
-4.11795e-05
-4.11179e-05
-4.10664e-05
-4.10153e-05
-4.09732e-05
-4.09309e-05
-4.08951e-05
-4.08558e-05
-4.08253e-05
-4.0794e-05
-4.07667e-05
-4.07393e-05
-4.07135e-05
-4.06854e-05
-4.06597e-05
-4.0631e-05
-4.06031e-05
-4.05701e-05
-4.05387e-05
-4.05032e-05
-4.04659e-05
-4.04263e-05
-4.03817e-05
-4.03404e-05
-4.02853e-05
-4.02488e-05
-4.01768e-05
-4.01708e-05
-4.00659e-05
-4.01439e-05
-3.99565e-05
-4.02842e-05
-3.98384e-05
-4.19224e-05
3.15882e-05
4.732e-05
1.83761e-05
8.21683e-06
-2.22196e-05
-4.82391e-05
-4.00481e-05
-6.24508e-05
-6.36163e-05
-7.33081e-05
-7.64987e-05
-8.08001e-05
-8.32655e-05
-8.51056e-05
-8.62743e-05
-8.69884e-05
-8.70356e-05
-8.70171e-05
-8.64062e-05
-8.57001e-05
-8.47676e-05
-8.35527e-05
-8.22863e-05
-8.08562e-05
-7.92754e-05
-7.76774e-05
-7.59611e-05
-7.41921e-05
-7.24149e-05
-7.05709e-05
-6.87624e-05
-6.69407e-05
-6.51221e-05
-6.33573e-05
-6.16202e-05
-5.9933e-05
-5.83146e-05
-5.67592e-05
-5.52903e-05
-5.39e-05
-5.259e-05
-5.13835e-05
-5.02566e-05
-4.92248e-05
-4.82789e-05
-4.74184e-05
-4.6646e-05
-4.59437e-05
-4.53217e-05
-4.47569e-05
-4.42633e-05
-4.38132e-05
-4.34653e-05
-4.31828e-05
-4.29354e-05
-4.27094e-05
-4.25097e-05
-4.23311e-05
-4.21704e-05
-4.20258e-05
-4.18954e-05
-4.17722e-05
-4.16656e-05
-4.15644e-05
-4.14756e-05
-4.13889e-05
-4.13139e-05
-4.12425e-05
-4.11796e-05
-4.1118e-05
-4.10663e-05
-4.10154e-05
-4.0973e-05
-4.09308e-05
-4.0895e-05
-4.08558e-05
-4.08251e-05
-4.07939e-05
-4.07665e-05
-4.07391e-05
-4.07132e-05
-4.06853e-05
-4.06594e-05
-4.06308e-05
-4.06028e-05
-4.05699e-05
-4.05385e-05
-4.0503e-05
-4.04657e-05
-4.04262e-05
-4.03815e-05
-4.03403e-05
-4.02853e-05
-4.02489e-05
-4.01769e-05
-4.01711e-05
-4.00661e-05
-4.01446e-05
-3.9957e-05
-4.02868e-05
-3.984e-05
-4.19057e-05
3.16974e-05
4.71913e-05
1.82142e-05
8.05355e-06
-2.20558e-05
-4.7956e-05
-3.99632e-05
-6.2277e-05
-6.35048e-05
-7.31831e-05
-7.64073e-05
-8.07168e-05
-8.32008e-05
-8.50527e-05
-8.62322e-05
-8.69558e-05
-8.70105e-05
-8.6998e-05
-8.6393e-05
-8.56904e-05
-8.47617e-05
-8.35499e-05
-8.22854e-05
-8.08575e-05
-7.92781e-05
-7.76811e-05
-7.5966e-05
-7.41977e-05
-7.2421e-05
-7.05775e-05
-6.8769e-05
-6.69474e-05
-6.51289e-05
-6.33639e-05
-6.16267e-05
-5.99393e-05
-5.83207e-05
-5.6765e-05
-5.52958e-05
-5.39051e-05
-5.25948e-05
-5.13879e-05
-5.02608e-05
-4.92286e-05
-4.82824e-05
-4.74216e-05
-4.66488e-05
-4.59462e-05
-4.5324e-05
-4.4759e-05
-4.4265e-05
-4.38148e-05
-4.34667e-05
-4.3184e-05
-4.29365e-05
-4.27103e-05
-4.25105e-05
-4.23319e-05
-4.2171e-05
-4.20264e-05
-4.18958e-05
-4.17726e-05
-4.16659e-05
-4.15647e-05
-4.14758e-05
-4.13892e-05
-4.13141e-05
-4.12427e-05
-4.11797e-05
-4.11182e-05
-4.10664e-05
-4.10155e-05
-4.09729e-05
-4.09307e-05
-4.08948e-05
-4.08559e-05
-4.0825e-05
-4.07938e-05
-4.07663e-05
-4.0739e-05
-4.0713e-05
-4.06851e-05
-4.06592e-05
-4.06306e-05
-4.06025e-05
-4.05697e-05
-4.05382e-05
-4.05028e-05
-4.04655e-05
-4.04261e-05
-4.03814e-05
-4.03402e-05
-4.02852e-05
-4.0249e-05
-4.0177e-05
-4.01714e-05
-4.00664e-05
-4.01453e-05
-3.99576e-05
-4.02894e-05
-3.98417e-05
-4.1888e-05
3.18255e-05
4.70499e-05
1.80555e-05
7.89225e-06
-2.18693e-05
-4.76424e-05
-3.98708e-05
-6.20852e-05
-6.33835e-05
-7.30467e-05
-7.6308e-05
-8.06262e-05
-8.31307e-05
-8.49952e-05
-8.61865e-05
-8.69203e-05
-8.69831e-05
-8.69771e-05
-8.63786e-05
-8.56798e-05
-8.47552e-05
-8.35467e-05
-8.22844e-05
-8.08588e-05
-7.9281e-05
-7.76851e-05
-7.59712e-05
-7.42036e-05
-7.24274e-05
-7.05844e-05
-6.8776e-05
-6.69546e-05
-6.51361e-05
-6.33711e-05
-6.16337e-05
-5.99461e-05
-5.83273e-05
-5.67712e-05
-5.53016e-05
-5.39106e-05
-5.25999e-05
-5.13927e-05
-5.02652e-05
-4.92327e-05
-4.82861e-05
-4.7425e-05
-4.66519e-05
-4.5949e-05
-4.53263e-05
-4.47611e-05
-4.42669e-05
-4.38166e-05
-4.34682e-05
-4.31853e-05
-4.29376e-05
-4.27113e-05
-4.25113e-05
-4.23326e-05
-4.21716e-05
-4.20269e-05
-4.18962e-05
-4.17731e-05
-4.16662e-05
-4.15651e-05
-4.1476e-05
-4.13895e-05
-4.13143e-05
-4.12429e-05
-4.11798e-05
-4.11184e-05
-4.10664e-05
-4.10155e-05
-4.09727e-05
-4.09307e-05
-4.08947e-05
-4.08559e-05
-4.08248e-05
-4.07937e-05
-4.07661e-05
-4.07388e-05
-4.07128e-05
-4.06849e-05
-4.06589e-05
-4.06304e-05
-4.06022e-05
-4.05696e-05
-4.0538e-05
-4.05026e-05
-4.04652e-05
-4.04259e-05
-4.03812e-05
-4.03402e-05
-4.02851e-05
-4.02491e-05
-4.01772e-05
-4.01718e-05
-4.00667e-05
-4.01462e-05
-3.99582e-05
-4.02922e-05
-3.98435e-05
-4.18692e-05
3.19764e-05
4.68945e-05
1.79025e-05
7.73557e-06
-2.16556e-05
-4.72931e-05
-3.97698e-05
-6.18729e-05
-6.32513e-05
-7.28973e-05
-7.61999e-05
-8.05275e-05
-8.30544e-05
-8.49326e-05
-8.61368e-05
-8.68817e-05
-8.69535e-05
-8.69544e-05
-8.63629e-05
-8.56682e-05
-8.47482e-05
-8.35433e-05
-8.22833e-05
-8.08601e-05
-7.92841e-05
-7.76893e-05
-7.59768e-05
-7.421e-05
-7.24344e-05
-7.05919e-05
-6.87836e-05
-6.69623e-05
-6.51439e-05
-6.33787e-05
-6.16412e-05
-5.99533e-05
-5.83343e-05
-5.67779e-05
-5.53079e-05
-5.39165e-05
-5.26055e-05
-5.13979e-05
-5.027e-05
-4.92371e-05
-4.82901e-05
-4.74287e-05
-4.66552e-05
-4.59519e-05
-4.53289e-05
-4.47635e-05
-4.4269e-05
-4.38185e-05
-4.34698e-05
-4.31867e-05
-4.29388e-05
-4.27124e-05
-4.25123e-05
-4.23335e-05
-4.21723e-05
-4.20275e-05
-4.18967e-05
-4.17737e-05
-4.16666e-05
-4.15655e-05
-4.14763e-05
-4.13898e-05
-4.13145e-05
-4.12432e-05
-4.11799e-05
-4.11185e-05
-4.10664e-05
-4.10157e-05
-4.09726e-05
-4.09306e-05
-4.08946e-05
-4.08559e-05
-4.08247e-05
-4.07936e-05
-4.07659e-05
-4.07386e-05
-4.07126e-05
-4.06848e-05
-4.06587e-05
-4.06301e-05
-4.06019e-05
-4.05694e-05
-4.05377e-05
-4.05024e-05
-4.0465e-05
-4.04258e-05
-4.03811e-05
-4.03401e-05
-4.02851e-05
-4.02493e-05
-4.01773e-05
-4.01722e-05
-4.0067e-05
-4.01471e-05
-3.99588e-05
-4.02952e-05
-3.98455e-05
-4.18493e-05
3.21533e-05
4.67243e-05
1.77583e-05
7.58672e-06
-2.14091e-05
-4.69019e-05
-3.96583e-05
-6.16365e-05
-6.31062e-05
-7.27329e-05
-7.60816e-05
-8.04194e-05
-8.29711e-05
-8.48642e-05
-8.60826e-05
-8.68396e-05
-8.69211e-05
-8.69297e-05
-8.63456e-05
-8.56555e-05
-8.47404e-05
-8.35393e-05
-8.22819e-05
-8.08615e-05
-7.92873e-05
-7.76938e-05
-7.59827e-05
-7.42168e-05
-7.24418e-05
-7.05999e-05
-6.87917e-05
-6.69706e-05
-6.51522e-05
-6.33869e-05
-6.16492e-05
-5.99611e-05
-5.83419e-05
-5.6785e-05
-5.53146e-05
-5.39228e-05
-5.26114e-05
-5.14034e-05
-5.0275e-05
-4.92417e-05
-4.82944e-05
-4.74326e-05
-4.66587e-05
-4.59551e-05
-4.53317e-05
-4.47659e-05
-4.42711e-05
-4.38205e-05
-4.34716e-05
-4.31882e-05
-4.29401e-05
-4.27136e-05
-4.25133e-05
-4.23344e-05
-4.21731e-05
-4.20282e-05
-4.18972e-05
-4.17742e-05
-4.1667e-05
-4.15659e-05
-4.14766e-05
-4.13902e-05
-4.13147e-05
-4.12434e-05
-4.118e-05
-4.11187e-05
-4.10665e-05
-4.10158e-05
-4.09725e-05
-4.09306e-05
-4.08945e-05
-4.08559e-05
-4.08245e-05
-4.07935e-05
-4.07657e-05
-4.07384e-05
-4.07123e-05
-4.06846e-05
-4.06584e-05
-4.06299e-05
-4.06016e-05
-4.05692e-05
-4.05375e-05
-4.05022e-05
-4.04648e-05
-4.04257e-05
-4.03809e-05
-4.03401e-05
-4.0285e-05
-4.02494e-05
-4.01775e-05
-4.01726e-05
-4.00673e-05
-4.01481e-05
-3.99596e-05
-4.02982e-05
-3.98478e-05
-4.18283e-05
3.23609e-05
4.6538e-05
1.76265e-05
7.44933e-06
-2.11237e-05
-4.64621e-05
-3.95344e-05
-6.13724e-05
-6.29463e-05
-7.25514e-05
-7.59517e-05
-8.03008e-05
-8.28798e-05
-8.47893e-05
-8.60233e-05
-8.67935e-05
-8.68856e-05
-8.69026e-05
-8.63267e-05
-8.56417e-05
-8.47318e-05
-8.35349e-05
-8.22803e-05
-8.08628e-05
-7.92907e-05
-7.76986e-05
-7.59891e-05
-7.4224e-05
-7.24497e-05
-7.06085e-05
-6.88004e-05
-6.69795e-05
-6.51612e-05
-6.33957e-05
-6.16578e-05
-5.99695e-05
-5.83499e-05
-5.67927e-05
-5.53218e-05
-5.39296e-05
-5.26178e-05
-5.14093e-05
-5.02805e-05
-4.92468e-05
-4.8299e-05
-4.74367e-05
-4.66624e-05
-4.59585e-05
-4.53347e-05
-4.47687e-05
-4.42735e-05
-4.38227e-05
-4.34735e-05
-4.31899e-05
-4.29416e-05
-4.27149e-05
-4.25144e-05
-4.23354e-05
-4.21739e-05
-4.20289e-05
-4.18978e-05
-4.17749e-05
-4.16675e-05
-4.15664e-05
-4.14769e-05
-4.13906e-05
-4.1315e-05
-4.12437e-05
-4.11802e-05
-4.1119e-05
-4.10666e-05
-4.10159e-05
-4.09725e-05
-4.09306e-05
-4.08944e-05
-4.08559e-05
-4.08244e-05
-4.07934e-05
-4.07656e-05
-4.07383e-05
-4.07121e-05
-4.06844e-05
-4.06582e-05
-4.06296e-05
-4.06014e-05
-4.0569e-05
-4.05372e-05
-4.0502e-05
-4.04646e-05
-4.04256e-05
-4.03808e-05
-4.03401e-05
-4.0285e-05
-4.02496e-05
-4.01777e-05
-4.01731e-05
-4.00677e-05
-4.01491e-05
-3.99603e-05
-4.03014e-05
-3.98502e-05
-4.18061e-05
3.26032e-05
4.63348e-05
1.75114e-05
7.32758e-06
-2.07925e-05
-4.59655e-05
-3.93955e-05
-6.10758e-05
-6.2769e-05
-7.235e-05
-7.58082e-05
-8.01699e-05
-8.27793e-05
-8.47068e-05
-8.59582e-05
-8.67428e-05
-8.68467e-05
-8.68729e-05
-8.63059e-05
-8.56263e-05
-8.47223e-05
-8.35299e-05
-8.22784e-05
-8.08641e-05
-7.92942e-05
-7.77037e-05
-7.59958e-05
-7.42317e-05
-7.24582e-05
-7.06177e-05
-6.88097e-05
-6.6989e-05
-6.51708e-05
-6.34051e-05
-6.16671e-05
-5.99784e-05
-5.83586e-05
-5.68009e-05
-5.53295e-05
-5.39369e-05
-5.26247e-05
-5.14156e-05
-5.02864e-05
-4.92521e-05
-4.83039e-05
-4.74412e-05
-4.66664e-05
-4.59621e-05
-4.53379e-05
-4.47715e-05
-4.4276e-05
-4.3825e-05
-4.34756e-05
-4.31916e-05
-4.29431e-05
-4.27163e-05
-4.25155e-05
-4.23365e-05
-4.21748e-05
-4.20297e-05
-4.18984e-05
-4.17756e-05
-4.1668e-05
-4.15669e-05
-4.14773e-05
-4.1391e-05
-4.13153e-05
-4.12441e-05
-4.11804e-05
-4.11192e-05
-4.10667e-05
-4.1016e-05
-4.09724e-05
-4.09306e-05
-4.08943e-05
-4.0856e-05
-4.08243e-05
-4.07933e-05
-4.07654e-05
-4.07381e-05
-4.07119e-05
-4.06842e-05
-4.06579e-05
-4.06294e-05
-4.06011e-05
-4.05688e-05
-4.05369e-05
-4.05018e-05
-4.04644e-05
-4.04255e-05
-4.03807e-05
-4.03401e-05
-4.0285e-05
-4.02498e-05
-4.0178e-05
-4.01736e-05
-4.00681e-05
-4.01503e-05
-3.99612e-05
-4.03048e-05
-3.98528e-05
-4.17827e-05
3.28852e-05
4.61138e-05
1.74176e-05
7.22605e-06
-2.0408e-05
-4.54033e-05
-3.92383e-05
-6.07412e-05
-6.25712e-05
-7.21255e-05
-7.5649e-05
-8.00249e-05
-8.26683e-05
-8.46157e-05
-8.58864e-05
-8.66868e-05
-8.68037e-05
-8.684e-05
-8.62828e-05
-8.56093e-05
-8.47117e-05
-8.35242e-05
-8.22762e-05
-8.08652e-05
-7.92979e-05
-7.7709e-05
-7.60029e-05
-7.424e-05
-7.24672e-05
-7.06275e-05
-6.88197e-05
-6.69992e-05
-6.5181e-05
-6.34152e-05
-6.1677e-05
-5.9988e-05
-5.83678e-05
-5.68097e-05
-5.53378e-05
-5.39447e-05
-5.2632e-05
-5.14224e-05
-5.02927e-05
-4.92579e-05
-4.83092e-05
-4.7446e-05
-4.66708e-05
-4.5966e-05
-4.53414e-05
-4.47747e-05
-4.42788e-05
-4.38275e-05
-4.34778e-05
-4.31936e-05
-4.29449e-05
-4.27178e-05
-4.25169e-05
-4.23377e-05
-4.21758e-05
-4.20306e-05
-4.18991e-05
-4.17763e-05
-4.16687e-05
-4.15675e-05
-4.14778e-05
-4.13915e-05
-4.13157e-05
-4.12444e-05
-4.11807e-05
-4.11195e-05
-4.10668e-05
-4.10162e-05
-4.09724e-05
-4.09306e-05
-4.08942e-05
-4.0856e-05
-4.08242e-05
-4.07933e-05
-4.07653e-05
-4.0738e-05
-4.07117e-05
-4.0684e-05
-4.06577e-05
-4.06292e-05
-4.06008e-05
-4.05686e-05
-4.05367e-05
-4.05016e-05
-4.04642e-05
-4.04254e-05
-4.03806e-05
-4.03401e-05
-4.0285e-05
-4.02501e-05
-4.01782e-05
-4.01742e-05
-4.00686e-05
-4.01515e-05
-3.9962e-05
-4.03083e-05
-3.98558e-05
-4.1758e-05
3.32117e-05
4.58747e-05
1.73507e-05
7.14991e-06
-1.99618e-05
-4.47654e-05
-3.90584e-05
-6.03622e-05
-6.23491e-05
-7.18738e-05
-7.54712e-05
-7.98633e-05
-8.25448e-05
-8.45144e-05
-8.58067e-05
-8.66246e-05
-8.6756e-05
-8.68035e-05
-8.6257e-05
-8.55903e-05
-8.46997e-05
-8.35176e-05
-8.22734e-05
-8.08662e-05
-7.93015e-05
-7.77145e-05
-7.60105e-05
-7.42487e-05
-7.24768e-05
-7.06379e-05
-6.88303e-05
-6.70101e-05
-6.5192e-05
-6.34259e-05
-6.16875e-05
-5.99982e-05
-5.83777e-05
-5.68191e-05
-5.53466e-05
-5.3953e-05
-5.26398e-05
-5.14296e-05
-5.02994e-05
-4.92641e-05
-4.83148e-05
-4.74511e-05
-4.66754e-05
-4.59701e-05
-4.5345e-05
-4.4778e-05
-4.42817e-05
-4.38302e-05
-4.34802e-05
-4.31956e-05
-4.29467e-05
-4.27195e-05
-4.25183e-05
-4.23389e-05
-4.21769e-05
-4.20315e-05
-4.18999e-05
-4.17772e-05
-4.16693e-05
-4.15681e-05
-4.14782e-05
-4.13921e-05
-4.1316e-05
-4.12448e-05
-4.1181e-05
-4.11198e-05
-4.1067e-05
-4.10164e-05
-4.09724e-05
-4.09306e-05
-4.08942e-05
-4.08561e-05
-4.08242e-05
-4.07932e-05
-4.07651e-05
-4.07378e-05
-4.07115e-05
-4.06839e-05
-4.06574e-05
-4.06289e-05
-4.06005e-05
-4.05684e-05
-4.05365e-05
-4.05015e-05
-4.0464e-05
-4.04253e-05
-4.03805e-05
-4.03401e-05
-4.02851e-05
-4.02503e-05
-4.01785e-05
-4.01748e-05
-4.00691e-05
-4.01529e-05
-3.9963e-05
-4.03118e-05
-3.98589e-05
-4.1732e-05
3.35876e-05
4.56171e-05
1.73167e-05
7.10458e-06
-1.94455e-05
-4.4041e-05
-3.88507e-05
-5.99312e-05
-6.20983e-05
-7.15906e-05
-7.52717e-05
-7.96825e-05
-8.24069e-05
-8.44013e-05
-8.5718e-05
-8.65554e-05
-8.67029e-05
-8.67629e-05
-8.62282e-05
-8.55691e-05
-8.46861e-05
-8.351e-05
-8.227e-05
-8.08669e-05
-7.93052e-05
-7.77203e-05
-7.60184e-05
-7.4258e-05
-7.24871e-05
-7.0649e-05
-6.88416e-05
-6.70217e-05
-6.52037e-05
-6.34374e-05
-6.16989e-05
-6.00092e-05
-5.83883e-05
-5.68292e-05
-5.53561e-05
-5.39619e-05
-5.26482e-05
-5.14374e-05
-5.03065e-05
-4.92707e-05
-4.83209e-05
-4.74567e-05
-4.66804e-05
-4.59746e-05
-4.5349e-05
-4.47816e-05
-4.42849e-05
-4.38331e-05
-4.34828e-05
-4.31979e-05
-4.29487e-05
-4.27213e-05
-4.25198e-05
-4.23403e-05
-4.21781e-05
-4.20326e-05
-4.19007e-05
-4.17781e-05
-4.167e-05
-4.15689e-05
-4.14788e-05
-4.13927e-05
-4.13165e-05
-4.12453e-05
-4.11813e-05
-4.11202e-05
-4.10672e-05
-4.10166e-05
-4.09725e-05
-4.09307e-05
-4.08942e-05
-4.08562e-05
-4.08241e-05
-4.07932e-05
-4.0765e-05
-4.07377e-05
-4.07113e-05
-4.06837e-05
-4.06572e-05
-4.06287e-05
-4.06002e-05
-4.05682e-05
-4.05362e-05
-4.05013e-05
-4.04638e-05
-4.04252e-05
-4.03804e-05
-4.03402e-05
-4.02852e-05
-4.02507e-05
-4.01789e-05
-4.01755e-05
-4.00697e-05
-4.01543e-05
-3.99641e-05
-4.03156e-05
-3.98624e-05
-4.17048e-05
3.40173e-05
4.53413e-05
1.73221e-05
7.09599e-06
-1.88501e-05
-4.32184e-05
-3.86087e-05
-5.94394e-05
-6.18132e-05
-7.127e-05
-7.50462e-05
-7.94789e-05
-8.22517e-05
-8.42743e-05
-8.56185e-05
-8.64776e-05
-8.66433e-05
-8.67173e-05
-8.61956e-05
-8.5545e-05
-8.46706e-05
-8.35011e-05
-8.22657e-05
-8.08672e-05
-7.93089e-05
-7.77262e-05
-7.60267e-05
-7.42677e-05
-7.24979e-05
-7.06609e-05
-6.88537e-05
-6.70341e-05
-6.52162e-05
-6.34497e-05
-6.1711e-05
-6.00209e-05
-5.83995e-05
-5.68399e-05
-5.53663e-05
-5.39714e-05
-5.26572e-05
-5.14457e-05
-5.03142e-05
-4.92777e-05
-4.83273e-05
-4.74625e-05
-4.66857e-05
-4.59794e-05
-4.53533e-05
-4.47854e-05
-4.42883e-05
-4.38362e-05
-4.34856e-05
-4.32003e-05
-4.29508e-05
-4.27232e-05
-4.25215e-05
-4.23418e-05
-4.21794e-05
-4.20337e-05
-4.19017e-05
-4.1779e-05
-4.16708e-05
-4.15696e-05
-4.14794e-05
-4.13933e-05
-4.1317e-05
-4.12458e-05
-4.11817e-05
-4.11206e-05
-4.10675e-05
-4.10169e-05
-4.09726e-05
-4.09308e-05
-4.08942e-05
-4.08563e-05
-4.08241e-05
-4.07932e-05
-4.07649e-05
-4.07376e-05
-4.07111e-05
-4.06835e-05
-4.06569e-05
-4.06285e-05
-4.05999e-05
-4.05681e-05
-4.0536e-05
-4.05011e-05
-4.04636e-05
-4.04252e-05
-4.03804e-05
-4.03403e-05
-4.02853e-05
-4.0251e-05
-4.01793e-05
-4.01762e-05
-4.00703e-05
-4.01559e-05
-3.99652e-05
-4.03194e-05
-3.98662e-05
-4.16761e-05
3.45051e-05
4.50478e-05
1.73739e-05
7.13018e-06
-1.81673e-05
-4.22856e-05
-3.83249e-05
-5.88768e-05
-6.14874e-05
-7.09058e-05
-7.479e-05
-7.92485e-05
-8.20763e-05
-8.41309e-05
-8.55062e-05
-8.63898e-05
-8.65761e-05
-8.66657e-05
-8.61586e-05
-8.55178e-05
-8.46527e-05
-8.34905e-05
-8.22605e-05