/*--------------------------------*- C++ -*----------------------------------*\
| =========                 |                                                 |
| \\      /  F ield         | OpenFOAM: The Open Source CFD Toolbox           |
|  \\    /   O peration     | Version:  5.x                                   |
|   \\  /    A nd           | Web:      www.OpenFOAM.org                      |
|    \\/     M anipulation  |                                                 |
\*---------------------------------------------------------------------------*/
FoamFile
{
    version     2.0;
    format      ascii;
    class       volScalarField;
    location    "3500";
    object      p;
}
// * * * * * * * * * * * * * * * * * * * * * * * * * * * * * * * * * * * * * //

dimensions      [0 2 -2 0 0 0 0];

internalField   nonuniform List<scalar> 
107912
(
2.23097e-10
2.55815e-07
9.82745e-08
1.69115e-07
3.5017e-08
-9.10724e-08
-1.11374e-08
-1.06417e-07
-8.16813e-08
-1.24661e-07
-1.20205e-07
-1.38192e-07
-1.40036e-07
-1.47259e-07
-1.48955e-07
-1.52441e-07
-1.52347e-07
-1.53927e-07
-1.53073e-07
-1.52593e-07
-1.51699e-07
-1.50033e-07
-1.48404e-07
-1.46616e-07
-1.44201e-07
-1.42058e-07
-1.39595e-07
-1.36853e-07
-1.34328e-07
-1.31441e-07
-1.28565e-07
-1.25744e-07
-1.22675e-07
-1.19689e-07
-1.16679e-07
-1.13522e-07
-1.1048e-07
-1.07358e-07
-1.04216e-07
-1.01144e-07
-9.79836e-08
-9.49067e-08
-9.18148e-08
-8.87269e-08
-8.56967e-08
-8.26473e-08
-7.9676e-08
-7.67017e-08
-7.37941e-08
-7.09041e-08
-6.80808e-08
-6.52816e-08
-6.28513e-08
-6.06487e-08
-5.85553e-08
-5.65462e-08
-5.45716e-08
-5.26798e-08
-5.0859e-08
-4.9084e-08
-4.73844e-08
-4.57294e-08
-4.41345e-08
-4.25878e-08
-4.1088e-08
-3.96352e-08
-3.82201e-08
-3.6847e-08
-3.55066e-08
-3.41981e-08
-3.29217e-08
-3.16632e-08
-3.04356e-08
-2.9219e-08
-2.80209e-08
-2.68373e-08
-2.56522e-08
-2.44887e-08
-2.3311e-08
-2.21541e-08
-2.09792e-08
-1.98199e-08
-1.86461e-08
-1.74897e-08
-1.63163e-08
-1.51944e-08
-1.40229e-08
-1.30045e-08
-1.18284e-08
-1.10657e-08
-9.82941e-09
-9.66976e-09
-8.14799e-09
-9.45724e-09
-6.88774e-09
-1.17884e-08
-5.87359e-09
-2.02575e-08
-4.46435e-09
-4.68315e-08
1.56757e-09
-2.63551e-07
9.70161e-10
2.55942e-07
9.76504e-08
1.68394e-07
3.52908e-08
-9.02715e-08
-1.09343e-08
-1.06067e-07
-8.14224e-08
-1.24371e-07
-1.1999e-07
-1.37983e-07
-1.39871e-07
-1.47113e-07
-1.48832e-07
-1.52336e-07
-1.52258e-07
-1.53849e-07
-1.53008e-07
-1.52536e-07
-1.51651e-07
-1.49992e-07
-1.48367e-07
-1.46585e-07
-1.44175e-07
-1.42035e-07
-1.39575e-07
-1.36836e-07
-1.34313e-07
-1.31428e-07
-1.28553e-07
-1.25734e-07
-1.22667e-07
-1.19682e-07
-1.16673e-07
-1.13517e-07
-1.10476e-07
-1.07355e-07
-1.04213e-07
-1.01142e-07
-9.79823e-08
-9.49058e-08
-9.18144e-08
-8.87268e-08
-8.56969e-08
-8.26479e-08
-7.96768e-08
-7.67027e-08
-7.37953e-08
-7.09054e-08
-6.80823e-08
-6.52833e-08
-6.2853e-08
-6.06506e-08
-5.85572e-08
-5.65482e-08
-5.45736e-08
-5.26817e-08
-5.0861e-08
-4.90859e-08
-4.73863e-08
-4.57314e-08
-4.41364e-08
-4.25897e-08
-4.10899e-08
-3.9637e-08
-3.82219e-08
-3.68488e-08
-3.55084e-08
-3.41998e-08
-3.29235e-08
-3.16649e-08
-3.04374e-08
-2.92209e-08
-2.80228e-08
-2.68393e-08
-2.56543e-08
-2.44909e-08
-2.33133e-08
-2.21566e-08
-2.0982e-08
-1.98229e-08
-1.86494e-08
-1.74933e-08
-1.63203e-08
-1.5199e-08
-1.40279e-08
-1.30103e-08
-1.18348e-08
-1.10734e-08
-9.83755e-09
-9.68016e-09
-8.15834e-09
-9.47222e-09
-6.9009e-09
-1.18124e-08
-5.8906e-09
-2.03047e-08
-4.48826e-09
-4.69845e-08
1.56224e-09
-2.55741e-07
1.72147e-09
2.56089e-07
9.69122e-08
1.6755e-07
3.55893e-08
-8.93206e-08
-1.06804e-08
-1.05666e-07
-8.11079e-08
-1.24033e-07
-1.1973e-07
-1.37736e-07
-1.39671e-07
-1.46937e-07
-1.48683e-07
-1.52209e-07
-1.52149e-07
-1.53754e-07
-1.52929e-07
-1.52466e-07
-1.5159e-07
-1.4994e-07
-1.48321e-07
-1.46545e-07
-1.44141e-07
-1.42004e-07
-1.39549e-07
-1.36813e-07
-1.34293e-07
-1.31411e-07
-1.28538e-07
-1.25721e-07
-1.22656e-07
-1.19672e-07
-1.16665e-07
-1.1351e-07
-1.10469e-07
-1.07349e-07
-1.04208e-07
-1.01138e-07
-9.79792e-08
-9.49033e-08
-9.18125e-08
-8.87254e-08
-8.56959e-08
-8.26473e-08
-7.96766e-08
-7.67028e-08
-7.37957e-08
-7.09061e-08
-6.80832e-08
-6.52843e-08
-6.28542e-08
-6.0652e-08
-5.85586e-08
-5.65497e-08
-5.45752e-08
-5.26834e-08
-5.08627e-08
-4.90877e-08
-4.7388e-08
-4.57331e-08
-4.41381e-08
-4.25914e-08
-4.10916e-08
-3.96387e-08
-3.82235e-08
-3.68505e-08
-3.551e-08
-3.42015e-08
-3.29252e-08
-3.16667e-08
-3.04391e-08
-2.92227e-08
-2.80246e-08
-2.68412e-08
-2.56563e-08
-2.44931e-08
-2.33157e-08
-2.21592e-08
-2.09848e-08
-1.98261e-08
-1.86529e-08
-1.74973e-08
-1.63248e-08
-1.52041e-08
-1.40336e-08
-1.3017e-08
-1.18421e-08
-1.10822e-08
-9.84706e-09
-9.69232e-09
-8.17067e-09
-9.48991e-09
-6.91695e-09
-1.18409e-08
-5.91218e-09
-2.03608e-08
-4.52082e-09
-4.71657e-08
1.5087e-09
-2.54312e-07
2.49263e-09
2.56213e-07
9.61638e-08
1.66677e-07
3.58899e-08
-8.83357e-08
-1.04188e-08
-1.0525e-07
-8.07826e-08
-1.23682e-07
-1.19461e-07
-1.37479e-07
-1.39464e-07
-1.46754e-07
-1.48527e-07
-1.52075e-07
-1.52036e-07
-1.53655e-07
-1.52845e-07
-1.52392e-07
-1.51526e-07
-1.49886e-07
-1.48273e-07
-1.46503e-07
-1.44105e-07
-1.41972e-07
-1.39521e-07
-1.36789e-07
-1.34271e-07
-1.31393e-07
-1.28522e-07
-1.25707e-07
-1.22644e-07
-1.19661e-07
-1.16655e-07
-1.13502e-07
-1.10462e-07
-1.07343e-07
-1.04204e-07
-1.01134e-07
-9.79759e-08
-9.49006e-08
-9.18103e-08
-8.87237e-08
-8.56947e-08
-8.26466e-08
-7.96762e-08
-7.67028e-08
-7.3796e-08
-7.09066e-08
-6.8084e-08
-6.52852e-08
-6.28553e-08
-6.06533e-08
-5.856e-08
-5.65512e-08
-5.45769e-08
-5.26851e-08
-5.08643e-08
-4.90894e-08
-4.73897e-08
-4.57348e-08
-4.41398e-08
-4.25931e-08
-4.10933e-08
-3.96403e-08
-3.82252e-08
-3.68522e-08
-3.55117e-08
-3.42032e-08
-3.29269e-08
-3.16684e-08
-3.04409e-08
-2.92245e-08
-2.80265e-08
-2.68432e-08
-2.56585e-08
-2.44954e-08
-2.33182e-08
-2.21619e-08
-2.09878e-08
-1.98294e-08
-1.86566e-08
-1.75015e-08
-1.63294e-08
-1.52094e-08
-1.40396e-08
-1.30239e-08
-1.18498e-08
-1.10914e-08
-9.85692e-09
-9.70493e-09
-8.18348e-09
-9.50827e-09
-6.93369e-09
-1.18704e-08
-5.93476e-09
-2.0419e-08
-4.55503e-09
-4.73523e-08
1.44908e-09
-2.53785e-07
3.32242e-09
2.56317e-07
9.53894e-08
1.65756e-07
3.62023e-08
-8.72968e-08
-1.01447e-08
-1.04806e-07
-8.04398e-08
-1.23309e-07
-1.19175e-07
-1.37206e-07
-1.39244e-07
-1.4656e-07
-1.48363e-07
-1.51934e-07
-1.51915e-07
-1.53549e-07
-1.52757e-07
-1.52313e-07
-1.51459e-07
-1.49828e-07
-1.48222e-07
-1.46459e-07
-1.44067e-07
-1.41938e-07
-1.39492e-07
-1.36763e-07
-1.34249e-07
-1.31373e-07
-1.28505e-07
-1.25691e-07
-1.22631e-07
-1.1965e-07
-1.16646e-07
-1.13494e-07
-1.10455e-07
-1.07337e-07
-1.04198e-07
-1.0113e-07
-9.79724e-08
-9.48977e-08
-9.18081e-08
-8.8722e-08
-8.56936e-08
-8.26459e-08
-7.96759e-08
-7.67029e-08
-7.37963e-08
-7.09073e-08
-6.80849e-08
-6.52863e-08
-6.28565e-08
-6.06548e-08
-5.85616e-08
-5.65528e-08
-5.45786e-08
-5.26869e-08
-5.08662e-08
-4.90912e-08
-4.73915e-08
-4.57366e-08
-4.41416e-08
-4.25949e-08
-4.10951e-08
-3.96422e-08
-3.8227e-08
-3.6854e-08
-3.55135e-08
-3.4205e-08
-3.29287e-08
-3.16702e-08
-3.04428e-08
-2.92265e-08
-2.80286e-08
-2.68454e-08
-2.56607e-08
-2.44978e-08
-2.33208e-08
-2.21647e-08
-2.0991e-08
-1.98329e-08
-1.86605e-08
-1.75059e-08
-1.63343e-08
-1.5215e-08
-1.40458e-08
-1.30312e-08
-1.18579e-08
-1.11011e-08
-9.8674e-09
-9.71832e-09
-8.19707e-09
-9.52775e-09
-6.95144e-09
-1.19018e-08
-5.95865e-09
-2.04805e-08
-4.59095e-09
-4.75482e-08
1.3877e-09
-2.5286e-07
4.22159e-09
2.56399e-07
9.45778e-08
1.64773e-07
3.65301e-08
-8.61875e-08
-9.85289e-09
-1.04326e-07
-8.00738e-08
-1.22907e-07
-1.18869e-07
-1.36913e-07
-1.39008e-07
-1.46351e-07
-1.48186e-07
-1.51782e-07
-1.51785e-07
-1.53436e-07
-1.52661e-07
-1.52229e-07
-1.51386e-07
-1.49766e-07
-1.48166e-07
-1.46411e-07
-1.44025e-07
-1.41901e-07
-1.3946e-07
-1.36735e-07
-1.34224e-07
-1.31353e-07
-1.28486e-07
-1.25675e-07
-1.22617e-07
-1.19637e-07
-1.16635e-07
-1.13485e-07
-1.10447e-07
-1.07331e-07
-1.04193e-07
-1.01125e-07
-9.79686e-08
-9.48946e-08
-9.18057e-08
-8.87202e-08
-8.56923e-08
-8.26451e-08
-7.96755e-08
-7.67029e-08
-7.37967e-08
-7.0908e-08
-6.80858e-08
-6.52875e-08
-6.28578e-08
-6.06564e-08
-5.85633e-08
-5.65546e-08
-5.45805e-08
-5.26888e-08
-5.08681e-08
-4.90932e-08
-4.73935e-08
-4.57386e-08
-4.41436e-08
-4.25969e-08
-4.10971e-08
-3.96441e-08
-3.8229e-08
-3.68559e-08
-3.55155e-08
-3.4207e-08
-3.29307e-08
-3.16723e-08
-3.04448e-08
-2.92286e-08
-2.80308e-08
-2.68477e-08
-2.56632e-08
-2.45004e-08
-2.33237e-08
-2.21678e-08
-2.09944e-08
-1.98367e-08
-1.86647e-08
-1.75106e-08
-1.63396e-08
-1.52211e-08
-1.40526e-08
-1.30391e-08
-1.18666e-08
-1.11116e-08
-9.87867e-09
-9.73272e-09
-8.21169e-09
-9.54868e-09
-6.9705e-09
-1.19354e-08
-5.98427e-09
-2.05465e-08
-4.62929e-09
-4.77565e-08
1.32166e-09
-2.51716e-07
5.19356e-09
2.56455e-07
9.37284e-08
1.63724e-07
3.68734e-08
-8.50033e-08
-9.54225e-09
-1.03809e-07
-7.96827e-08
-1.22476e-07
-1.18541e-07
-1.36597e-07
-1.38754e-07
-1.46126e-07
-1.47995e-07
-1.51618e-07
-1.51645e-07
-1.53314e-07
-1.52559e-07
-1.52138e-07
-1.51308e-07
-1.49699e-07
-1.48107e-07
-1.4636e-07
-1.43981e-07
-1.41862e-07
-1.39426e-07
-1.36706e-07
-1.34198e-07
-1.3133e-07
-1.28466e-07
-1.25658e-07
-1.22602e-07
-1.19624e-07
-1.16624e-07
-1.13475e-07
-1.10439e-07
-1.07324e-07
-1.04187e-07
-1.0112e-07
-9.79646e-08
-9.48912e-08
-9.18032e-08
-8.87183e-08
-8.56909e-08
-8.26443e-08
-7.96751e-08
-7.67029e-08
-7.37971e-08
-7.09087e-08
-6.80868e-08
-6.52887e-08
-6.28592e-08
-6.06581e-08
-5.8565e-08
-5.65564e-08
-5.45825e-08
-5.26909e-08
-5.08702e-08
-4.90953e-08
-4.73957e-08
-4.57408e-08
-4.41457e-08
-4.2599e-08
-4.10992e-08
-3.96462e-08
-3.82311e-08
-3.6858e-08
-3.55176e-08
-3.42091e-08
-3.29328e-08
-3.16744e-08
-3.0447e-08
-2.92309e-08
-2.80331e-08
-2.68502e-08
-2.56658e-08
-2.45032e-08
-2.33267e-08
-2.21712e-08
-2.0998e-08
-1.98407e-08
-1.86692e-08
-1.75157e-08
-1.63453e-08
-1.52276e-08
-1.40599e-08
-1.30476e-08
-1.1876e-08
-1.11229e-08
-9.8908e-09
-9.7482e-09
-8.22742e-09
-9.57116e-09
-6.99101e-09
-1.19715e-08
-6.01181e-09
-2.06172e-08
-4.67029e-09
-4.79779e-08
1.24964e-09
-2.50494e-07
6.2431e-09
2.56478e-07
9.28428e-08
1.62607e-07
3.72314e-08
-8.37412e-08
-9.21222e-09
-1.03251e-07
-7.92656e-08
-1.22013e-07
-1.18189e-07
-1.36257e-07
-1.38482e-07
-1.45884e-07
-1.4779e-07
-1.51441e-07
-1.51495e-07
-1.53182e-07
-1.52448e-07
-1.5204e-07
-1.51223e-07
-1.49627e-07
-1.48043e-07
-1.46305e-07
-1.43934e-07
-1.41819e-07
-1.3939e-07
-1.36674e-07
-1.3417e-07
-1.31306e-07
-1.28445e-07
-1.25639e-07
-1.22586e-07
-1.1961e-07
-1.16611e-07
-1.13465e-07
-1.1043e-07
-1.07316e-07
-1.0418e-07
-1.01115e-07
-9.79602e-08
-9.48876e-08
-9.18004e-08
-8.87162e-08
-8.56894e-08
-8.26433e-08
-7.96747e-08
-7.6703e-08
-7.37975e-08
-7.09094e-08
-6.80879e-08
-6.529e-08
-6.28607e-08
-6.06599e-08
-5.8567e-08
-5.65585e-08
-5.45847e-08
-5.26931e-08
-5.08725e-08
-4.90976e-08
-4.7398e-08
-4.57431e-08
-4.4148e-08
-4.26013e-08
-4.11015e-08
-3.96485e-08
-3.82333e-08
-3.68602e-08
-3.55198e-08
-3.42113e-08
-3.29351e-08
-3.16767e-08
-3.04494e-08
-2.92333e-08
-2.80357e-08
-2.68528e-08
-2.56687e-08
-2.45063e-08
-2.333e-08
-2.21748e-08
-2.1002e-08
-1.98451e-08
-1.86741e-08
-1.75212e-08
-1.63514e-08
-1.52346e-08
-1.40677e-08
-1.30567e-08
-1.1886e-08
-1.1135e-08
-9.90383e-09
-9.76483e-09
-8.24431e-09
-9.5953e-09
-7.01303e-09
-1.20102e-08
-6.04135e-09
-2.06929e-08
-4.71408e-09
-4.82127e-08
1.17122e-09
-2.49198e-07
7.3762e-09
2.56461e-07
9.19221e-08
1.61419e-07
3.7604e-08
-8.23975e-08
-8.86207e-09
-1.0265e-07
-7.88212e-08
-1.21516e-07
-1.17812e-07
-1.35892e-07
-1.38189e-07
-1.45623e-07
-1.4757e-07
-1.51251e-07
-1.51333e-07
-1.5304e-07
-1.52329e-07
-1.51934e-07
-1.51133e-07
-1.49549e-07
-1.47974e-07
-1.46245e-07
-1.43882e-07
-1.41773e-07
-1.3935e-07
-1.36639e-07
-1.34139e-07
-1.3128e-07
-1.28422e-07
-1.25619e-07
-1.22569e-07
-1.19595e-07
-1.16598e-07
-1.13453e-07
-1.1042e-07
-1.07308e-07
-1.04173e-07
-1.01109e-07
-9.79555e-08
-9.48837e-08
-9.17973e-08
-8.87139e-08
-8.56878e-08
-8.26423e-08
-7.96742e-08
-7.6703e-08
-7.3798e-08
-7.09103e-08
-6.80891e-08
-6.52914e-08
-6.28623e-08
-6.06618e-08
-5.8569e-08
-5.65606e-08
-5.45871e-08
-5.26955e-08
-5.08749e-08
-4.91001e-08
-4.74004e-08
-4.57456e-08
-4.41505e-08
-4.26037e-08
-4.11039e-08
-3.96509e-08
-3.82358e-08
-3.68627e-08
-3.55223e-08
-3.42138e-08
-3.29375e-08
-3.16792e-08
-3.04519e-08
-2.9236e-08
-2.80384e-08
-2.68557e-08
-2.56717e-08
-2.45095e-08
-2.33335e-08
-2.21786e-08
-2.10062e-08
-1.98498e-08
-1.86793e-08
-1.75271e-08
-1.6358e-08
-1.52421e-08
-1.40761e-08
-1.30665e-08
-1.18969e-08
-1.1148e-08
-9.91784e-09
-9.78268e-09
-8.26246e-09
-9.62119e-09
-7.03668e-09
-1.20517e-08
-6.07305e-09
-2.07739e-08
-4.76082e-09
-4.84613e-08
1.0859e-09
-2.47809e-07
8.5993e-09
2.56396e-07
9.09679e-08
1.60156e-07
3.79909e-08
-8.09686e-08
-8.491e-09
-1.02003e-07
-7.83478e-08
-1.20982e-07
-1.17408e-07
-1.35499e-07
-1.37875e-07
-1.45342e-07
-1.47333e-07
-1.51046e-07
-1.51159e-07
-1.52888e-07
-1.522e-07
-1.5182e-07
-1.51035e-07
-1.49465e-07
-1.479e-07
-1.46181e-07
-1.43827e-07
-1.41724e-07
-1.39308e-07
-1.36602e-07
-1.34106e-07
-1.31252e-07
-1.28397e-07
-1.25597e-07
-1.2255e-07
-1.19578e-07
-1.16584e-07
-1.13441e-07
-1.10409e-07
-1.07299e-07
-1.04166e-07
-1.01102e-07
-9.79504e-08
-9.48795e-08
-9.17941e-08
-8.87114e-08
-8.5686e-08
-8.26412e-08
-7.96737e-08
-7.6703e-08
-7.37984e-08
-7.09111e-08
-6.80904e-08
-6.52929e-08
-6.28641e-08
-6.06639e-08
-5.85712e-08
-5.6563e-08
-5.45896e-08
-5.2698e-08
-5.08775e-08
-4.91027e-08
-4.7403e-08
-4.57482e-08
-4.41531e-08
-4.26064e-08
-4.11065e-08
-3.96535e-08
-3.82384e-08
-3.68652e-08
-3.55249e-08
-3.42164e-08
-3.29402e-08
-3.16819e-08
-3.04547e-08
-2.92388e-08
-2.80413e-08
-2.68588e-08
-2.5675e-08
-2.4513e-08
-2.33373e-08
-2.21828e-08
-2.10108e-08
-1.98549e-08
-1.86849e-08
-1.75334e-08
-1.63651e-08
-1.52502e-08
-1.40852e-08
-1.3077e-08
-1.19085e-08
-1.11619e-08
-9.93288e-09
-9.80184e-09
-8.28196e-09
-9.64896e-09
-7.06207e-09
-1.20961e-08
-6.10704e-09
-2.08604e-08
-4.81067e-09
-4.87242e-08
9.92999e-10
-2.46321e-07
9.91914e-09
2.56273e-07
8.99824e-08
1.58816e-07
3.83913e-08
-7.94505e-08
-8.09829e-09
-1.01305e-07
-7.78442e-08
-1.20408e-07
-1.16976e-07
-1.35077e-07
-1.37537e-07
-1.4504e-07
-1.47079e-07
-1.50826e-07
-1.50971e-07
-1.52724e-07
-1.52062e-07
-1.51698e-07
-1.50929e-07
-1.49375e-07
-1.4782e-07
-1.46111e-07
-1.43767e-07
-1.4167e-07
-1.39262e-07
-1.36562e-07
-1.3407e-07
-1.31221e-07
-1.2837e-07
-1.25573e-07
-1.2253e-07
-1.1956e-07
-1.16569e-07
-1.13428e-07
-1.10398e-07
-1.07289e-07
-1.04158e-07
-1.01096e-07
-9.79448e-08
-9.48749e-08
-9.17905e-08
-8.87087e-08
-8.56841e-08
-8.264e-08
-7.96731e-08
-7.6703e-08
-7.37989e-08
-7.09121e-08
-6.80917e-08
-6.52945e-08
-6.28659e-08
-6.06661e-08
-5.85736e-08
-5.65654e-08
-5.45923e-08
-5.27008e-08
-5.08803e-08
-4.91055e-08
-4.74059e-08
-4.57511e-08
-4.41559e-08
-4.26092e-08
-4.11093e-08
-3.96563e-08
-3.82412e-08
-3.6868e-08
-3.55277e-08
-3.42192e-08
-3.2943e-08
-3.16848e-08
-3.04576e-08
-2.92418e-08
-2.80445e-08
-2.68621e-08
-2.56785e-08
-2.45168e-08
-2.33414e-08
-2.21872e-08
-2.10157e-08
-1.98603e-08
-1.8691e-08
-1.75402e-08
-1.63727e-08
-1.52589e-08
-1.40949e-08
-1.30883e-08
-1.1921e-08
-1.11769e-08
-9.94904e-09
-9.82241e-09
-8.30289e-09
-9.67874e-09
-7.08932e-09
-1.21437e-08
-6.14348e-09
-2.09529e-08
-4.86381e-09
-4.90018e-08
8.91803e-10
-2.44726e-07
1.13428e-08
2.56083e-07
8.89682e-08
1.57394e-07
3.88047e-08
-7.78398e-08
-7.68327e-09
-1.00553e-07
-7.73088e-08
-1.19793e-07
-1.16514e-07
-1.34624e-07
-1.37176e-07
-1.44715e-07
-1.46805e-07
-1.50588e-07
-1.50769e-07
-1.52547e-07
-1.51913e-07
-1.51566e-07
-1.50816e-07
-1.49278e-07
-1.47733e-07
-1.46037e-07
-1.43703e-07
-1.41613e-07
-1.39213e-07
-1.36519e-07
-1.34032e-07
-1.31189e-07
-1.28341e-07
-1.25548e-07
-1.22508e-07
-1.19541e-07
-1.16552e-07
-1.13414e-07
-1.10386e-07
-1.07279e-07
-1.04149e-07
-1.01088e-07
-9.79388e-08
-9.487e-08
-9.17867e-08
-8.87058e-08
-8.5682e-08
-8.26387e-08
-7.96724e-08
-7.67029e-08
-7.37994e-08
-7.0913e-08
-6.80931e-08
-6.52962e-08
-6.28679e-08
-6.06685e-08
-5.85761e-08
-5.65681e-08
-5.45952e-08
-5.27037e-08
-5.08833e-08
-4.91086e-08
-4.74089e-08
-4.57541e-08
-4.4159e-08
-4.26122e-08
-4.11124e-08
-3.96593e-08
-3.82442e-08
-3.6871e-08
-3.55307e-08
-3.42222e-08
-3.2946e-08
-3.16879e-08
-3.04608e-08
-2.92451e-08
-2.80479e-08
-2.68657e-08
-2.56823e-08
-2.45209e-08
-2.33458e-08
-2.2192e-08
-2.10209e-08
-1.98661e-08
-1.86975e-08
-1.75476e-08
-1.63809e-08
-1.52683e-08
-1.41053e-08
-1.31005e-08
-1.19344e-08
-1.1193e-08
-9.9664e-09
-9.84447e-09
-8.32536e-09
-9.71066e-09
-7.11856e-09
-1.21947e-08
-6.18253e-09
-2.10516e-08
-4.92042e-09
-4.92944e-08
7.81511e-10
-2.43019e-07
1.28778e-08
2.55813e-07
8.79291e-08
1.55889e-07
3.923e-08
-7.6133e-08
-7.24538e-09
-9.97424e-08
-7.67401e-08
-1.19133e-07
-1.1602e-07
-1.34137e-07
-1.36787e-07
-1.44366e-07
-1.46512e-07
-1.50333e-07
-1.50552e-07
-1.52357e-07
-1.51753e-07
-1.51424e-07
-1.50693e-07
-1.49173e-07
-1.4764e-07
-1.45956e-07
-1.43634e-07
-1.41551e-07
-1.39159e-07
-1.36472e-07
-1.33991e-07
-1.31153e-07
-1.2831e-07
-1.2552e-07
-1.22485e-07
-1.1952e-07
-1.16534e-07
-1.13399e-07
-1.10372e-07
-1.07268e-07
-1.04139e-07
-1.0108e-07
-9.79324e-08
-9.48646e-08
-9.17825e-08
-8.87026e-08
-8.56798e-08
-8.26373e-08
-7.96717e-08
-7.67029e-08
-7.37999e-08
-7.09141e-08
-6.80946e-08
-6.52981e-08
-6.287e-08
-6.0671e-08
-5.85788e-08
-5.6571e-08
-5.45982e-08
-5.27069e-08
-5.08865e-08
-4.91118e-08
-4.74122e-08
-4.57574e-08
-4.41622e-08
-4.26155e-08
-4.11156e-08
-3.96626e-08
-3.82474e-08
-3.68742e-08
-3.55339e-08
-3.42254e-08
-3.29493e-08
-3.16912e-08
-3.04642e-08
-2.92486e-08
-2.80516e-08
-2.68695e-08
-2.56864e-08
-2.45252e-08
-2.33505e-08
-2.21971e-08
-2.10266e-08
-1.98724e-08
-1.87045e-08
-1.75554e-08
-1.63897e-08
-1.52784e-08
-1.41166e-08
-1.31135e-08
-1.19489e-08
-1.12103e-08
-9.98503e-09
-9.86814e-09
-8.34947e-09
-9.74487e-09
-7.14994e-09
-1.22492e-08
-6.22437e-09
-2.11569e-08
-4.9807e-09
-4.96023e-08
6.61251e-10
-2.41194e-07
1.45318e-08
2.5545e-07
8.68693e-08
1.54298e-07
3.96662e-08
-7.4327e-08
-6.78415e-09
-9.88697e-08
-7.61366e-08
-1.18425e-07
-1.15491e-07
-1.33614e-07
-1.36371e-07
-1.4399e-07
-1.46196e-07
-1.50058e-07
-1.50319e-07
-1.52152e-07
-1.5158e-07
-1.51272e-07
-1.50562e-07
-1.4906e-07
-1.4754e-07
-1.45869e-07
-1.43559e-07
-1.41485e-07
-1.39102e-07
-1.36422e-07
-1.33946e-07
-1.31115e-07
-1.28276e-07
-1.2549e-07
-1.22459e-07
-1.19498e-07
-1.16515e-07
-1.13383e-07
-1.10358e-07
-1.07256e-07
-1.04129e-07
-1.01072e-07
-9.79253e-08
-9.48588e-08
-9.1778e-08
-8.86992e-08
-8.56773e-08
-8.26357e-08
-7.96709e-08
-7.67028e-08
-7.38004e-08
-7.09151e-08
-6.80962e-08
-6.53e-08
-6.28722e-08
-6.06737e-08
-5.85817e-08
-5.6574e-08
-5.46016e-08
-5.27103e-08
-5.089e-08
-4.91153e-08
-4.74157e-08
-4.57609e-08
-4.41657e-08
-4.2619e-08
-4.11191e-08
-3.9666e-08
-3.82509e-08
-3.68777e-08
-3.55374e-08
-3.42289e-08
-3.29528e-08
-3.16948e-08
-3.04678e-08
-2.92524e-08
-2.80555e-08
-2.68737e-08
-2.56908e-08
-2.45299e-08
-2.33556e-08
-2.22027e-08
-2.10327e-08
-1.98792e-08
-1.8712e-08
-1.75639e-08
-1.63992e-08
-1.52892e-08
-1.41286e-08
-1.31276e-08
-1.19644e-08
-1.12289e-08
-1.0005e-08
-9.89352e-09
-8.37535e-09
-9.78151e-09
-7.18359e-09
-1.23074e-08
-6.26919e-09
-2.12692e-08
-5.04484e-09
-4.99255e-08
5.30035e-10
-2.39243e-07
1.63129e-08
2.54981e-07
8.57943e-08
1.52617e-07
4.0112e-08
-7.2419e-08
-6.29925e-09
-9.79299e-08
-7.54968e-08
-1.17665e-07
-1.14927e-07
-1.33052e-07
-1.35925e-07
-1.43585e-07
-1.45857e-07
-1.49761e-07
-1.50068e-07
-1.51931e-07
-1.51393e-07
-1.51107e-07
-1.5042e-07
-1.48938e-07
-1.47433e-07
-1.45776e-07
-1.43478e-07
-1.41413e-07
-1.3904e-07
-1.36368e-07
-1.33898e-07
-1.31074e-07
-1.2824e-07
-1.25458e-07
-1.22432e-07
-1.19473e-07
-1.16494e-07
-1.13365e-07
-1.10342e-07
-1.07243e-07
-1.04118e-07
-1.01062e-07
-9.79177e-08
-9.48525e-08
-9.17731e-08
-8.86954e-08
-8.56746e-08
-8.2634e-08
-7.967e-08
-7.67026e-08
-7.3801e-08
-7.09163e-08
-6.80978e-08
-6.53021e-08
-6.28746e-08
-6.06766e-08
-5.85848e-08
-5.65773e-08
-5.46051e-08
-5.27139e-08
-5.08937e-08
-4.91191e-08
-4.74194e-08
-4.57647e-08
-4.41695e-08
-4.26228e-08
-4.11228e-08
-3.96698e-08
-3.82546e-08
-3.68814e-08
-3.55411e-08
-3.42327e-08
-3.29566e-08
-3.16987e-08
-3.04718e-08
-2.92565e-08
-2.80597e-08
-2.68781e-08
-2.56955e-08
-2.4535e-08
-2.33611e-08
-2.22086e-08
-2.10392e-08
-1.98864e-08
-1.872e-08
-1.7573e-08
-1.64093e-08
-1.53007e-08
-1.41416e-08
-1.31426e-08
-1.1981e-08
-1.12488e-08
-1.00265e-08
-9.92073e-09
-8.40312e-09
-9.82073e-09
-7.21968e-09
-1.23697e-08
-6.31717e-09
-2.13888e-08
-5.11307e-09
-5.02641e-08
3.86827e-10
-2.3716e-07
1.82293e-08
2.5439e-07
8.47102e-08
1.50846e-07
4.05658e-08
-7.04067e-08
-5.79053e-09
-9.69182e-08
-7.48194e-08
-1.16851e-07
-1.14324e-07
-1.32449e-07
-1.35447e-07
-1.4315e-07
-1.45493e-07
-1.49443e-07
-1.49797e-07
-1.51694e-07
-1.51193e-07
-1.5093e-07
-1.50267e-07
-1.48806e-07
-1.47317e-07
-1.45675e-07
-1.43391e-07
-1.41335e-07
-1.38973e-07
-1.36309e-07
-1.33847e-07
-1.3103e-07
-1.282e-07
-1.25424e-07
-1.22402e-07
-1.19447e-07
-1.16472e-07
-1.13346e-07
-1.10325e-07
-1.07229e-07
-1.04106e-07
-1.01052e-07
-9.79095e-08
-9.48457e-08
-9.17678e-08
-8.86913e-08
-8.56716e-08
-8.26321e-08
-7.9669e-08
-7.67025e-08
-7.38015e-08
-7.09175e-08
-6.80996e-08
-6.53043e-08
-6.28772e-08
-6.06797e-08
-5.8588e-08
-5.65808e-08
-5.46089e-08
-5.27178e-08
-5.08976e-08
-4.91231e-08
-4.74234e-08
-4.57687e-08
-4.41735e-08
-4.26268e-08
-4.11268e-08
-3.96737e-08
-3.82586e-08
-3.68854e-08
-3.55451e-08
-3.42367e-08
-3.29606e-08
-3.17028e-08
-3.0476e-08
-2.92608e-08
-2.80642e-08
-2.68829e-08
-2.57005e-08
-2.45404e-08
-2.33669e-08
-2.2215e-08
-2.10463e-08
-1.98942e-08
-1.87287e-08
-1.75827e-08
-1.64202e-08
-1.53132e-08
-1.41555e-08
-1.31588e-08
-1.19989e-08
-1.12701e-08
-1.00495e-08
-9.94989e-09
-8.4329e-09
-9.86272e-09
-7.25836e-09
-1.24362e-08
-6.36852e-09
-2.1516e-08
-5.1856e-09
-5.0618e-08
2.3045e-10
-2.34939e-07
2.02896e-08
2.53659e-07
8.36244e-08
1.48983e-07
4.10259e-08
-6.82882e-08
-5.258e-09
-9.58296e-08
-7.41029e-08
-1.15979e-07
-1.13681e-07
-1.31802e-07
-1.34934e-07
-1.42683e-07
-1.45103e-07
-1.491e-07
-1.49507e-07
-1.51439e-07
-1.50977e-07
-1.50739e-07
-1.50102e-07
-1.48665e-07
-1.47192e-07
-1.45566e-07
-1.43298e-07
-1.41252e-07
-1.38901e-07
-1.36246e-07
-1.33791e-07
-1.30982e-07
-1.28158e-07
-1.25387e-07
-1.22371e-07
-1.19419e-07
-1.16447e-07
-1.13325e-07
-1.10307e-07
-1.07213e-07
-1.04093e-07
-1.01041e-07
-9.79006e-08
-9.48383e-08
-9.1762e-08
-8.86869e-08
-8.56684e-08
-8.263e-08
-7.96679e-08
-7.67022e-08
-7.38021e-08
-7.09187e-08
-6.81015e-08
-6.53066e-08
-6.28799e-08
-6.0683e-08
-5.85916e-08
-5.65845e-08
-5.46129e-08
-5.27219e-08
-5.09019e-08
-4.91274e-08
-4.74277e-08
-4.5773e-08
-4.41778e-08
-4.26311e-08
-4.11312e-08
-3.9678e-08
-3.82628e-08
-3.68896e-08
-3.55494e-08
-3.4241e-08
-3.2965e-08
-3.17072e-08
-3.04805e-08
-2.92655e-08
-2.80691e-08
-2.6888e-08
-2.5706e-08
-2.45462e-08
-2.33732e-08
-2.22219e-08
-2.10538e-08
-1.99026e-08
-1.8738e-08
-1.75932e-08
-1.64319e-08
-1.53266e-08
-1.41704e-08
-1.31761e-08
-1.2018e-08
-1.1293e-08
-1.00743e-08
-9.98113e-09
-8.46483e-09
-9.90763e-09
-7.29982e-09
-1.25072e-08
-6.42346e-09
-2.16512e-08
-5.26266e-09
-5.09867e-08
5.96331e-11
-2.32573e-07
2.25023e-08
2.52771e-07
8.25454e-08
1.47026e-07
4.14904e-08
-6.60623e-08
-4.70193e-09
-9.46588e-08
-7.3346e-08
-1.15044e-07
-1.12995e-07
-1.31107e-07
-1.34385e-07
-1.42179e-07
-1.44683e-07
-1.4873e-07
-1.49194e-07
-1.51164e-07
-1.50744e-07
-1.50534e-07
-1.49925e-07
-1.48512e-07
-1.47057e-07
-1.45449e-07
-1.43197e-07
-1.41162e-07
-1.38823e-07
-1.36179e-07
-1.33731e-07
-1.3093e-07
-1.28112e-07
-1.25347e-07
-1.22336e-07
-1.19389e-07
-1.16421e-07
-1.13303e-07
-1.10288e-07
-1.07197e-07
-1.04079e-07
-1.01029e-07
-9.78909e-08
-9.48303e-08
-9.17558e-08
-8.86821e-08
-8.56649e-08
-8.26277e-08
-7.96666e-08
-7.67019e-08
-7.38026e-08
-7.092e-08
-6.81035e-08
-6.53091e-08
-6.28828e-08
-6.06865e-08
-5.85953e-08
-5.65885e-08
-5.46172e-08
-5.27263e-08
-5.09064e-08
-4.91319e-08
-4.74323e-08
-4.57777e-08
-4.41825e-08
-4.26357e-08
-4.11358e-08
-3.96826e-08
-3.82674e-08
-3.68942e-08
-3.5554e-08
-3.42456e-08
-3.29697e-08
-3.1712e-08
-3.04854e-08
-2.92706e-08
-2.80743e-08
-2.68935e-08
-2.57118e-08
-2.45524e-08
-2.338e-08
-2.22293e-08
-2.10619e-08
-1.99116e-08
-1.8748e-08
-1.76045e-08
-1.64445e-08
-1.53409e-08
-1.41864e-08
-1.31947e-08
-1.20386e-08
-1.13176e-08
-1.01008e-08
-1.00146e-08
-8.49907e-09
-9.95564e-09
-7.34423e-09
-1.2583e-08
-6.48221e-09
-2.17948e-08
-5.3445e-09
-5.13699e-08
-1.27019e-10
-2.30055e-07
2.48757e-08
2.51704e-07
8.14828e-08
1.44975e-07
4.19574e-08
-6.37286e-08
-4.12282e-09
-9.34002e-08
-7.25474e-08
-1.14043e-07
-1.12264e-07
-1.30362e-07
-1.33797e-07
-1.41638e-07
-1.44233e-07
-1.48333e-07
-1.48857e-07
-1.50868e-07
-1.50493e-07
-1.50313e-07
-1.49733e-07
-1.48347e-07
-1.46911e-07
-1.45322e-07
-1.43088e-07
-1.41065e-07
-1.38739e-07
-1.36105e-07
-1.33666e-07
-1.30874e-07
-1.28063e-07
-1.25303e-07
-1.22299e-07
-1.19356e-07
-1.16393e-07
-1.13278e-07
-1.10266e-07
-1.07179e-07
-1.04064e-07
-1.01016e-07
-9.78805e-08
-9.48216e-08
-9.17489e-08
-8.86768e-08
-8.56611e-08
-8.26252e-08
-7.96652e-08
-7.67016e-08
-7.38032e-08
-7.09214e-08
-6.81056e-08
-6.53118e-08
-6.28859e-08
-6.06902e-08
-5.85993e-08
-5.65928e-08
-5.46219e-08
-5.27311e-08
-5.09112e-08
-4.91369e-08
-4.74373e-08
-4.57827e-08
-4.41874e-08
-4.26407e-08
-4.11407e-08
-3.96875e-08
-3.82724e-08
-3.68991e-08
-3.55589e-08
-3.42506e-08
-3.29747e-08
-3.17171e-08
-3.04906e-08
-2.9276e-08
-2.80799e-08
-2.68994e-08
-2.57181e-08
-2.45592e-08
-2.33873e-08
-2.22372e-08
-2.10707e-08
-1.99213e-08
-1.87588e-08
-1.76166e-08
-1.6458e-08
-1.53563e-08
-1.42036e-08
-1.32146e-08
-1.20607e-08
-1.13439e-08
-1.01292e-08
-1.00504e-08
-8.53576e-09
-1.0007e-08
-7.3918e-09
-1.26637e-08
-6.54502e-09
-2.1947e-08
-5.43139e-09
-5.17666e-08
-3.31011e-10
-2.27379e-07
2.74184e-08
2.5044e-07
8.04474e-08
1.4283e-07
4.24248e-08
-6.12872e-08
-3.52146e-09
-9.20481e-08
-7.17059e-08
-1.12972e-07
-1.11486e-07
-1.29563e-07
-1.33168e-07
-1.41057e-07
-1.4375e-07
-1.47905e-07
-1.48495e-07
-1.50549e-07
-1.50222e-07
-1.50075e-07
-1.49527e-07
-1.4817e-07
-1.46755e-07
-1.45186e-07
-1.4297e-07
-1.4096e-07
-1.38649e-07
-1.36026e-07
-1.33595e-07
-1.30814e-07
-1.2801e-07
-1.25256e-07
-1.22259e-07
-1.1932e-07
-1.16362e-07
-1.13252e-07
-1.10244e-07
-1.0716e-07
-1.04047e-07
-1.01002e-07
-9.78691e-08
-9.48122e-08
-9.17415e-08
-8.8671e-08
-8.56569e-08
-8.26224e-08
-7.96636e-08
-7.67011e-08
-7.38037e-08
-7.09228e-08
-6.81078e-08
-6.53146e-08
-6.28892e-08
-6.06942e-08
-5.86036e-08
-5.65973e-08
-5.46268e-08
-5.27361e-08
-5.09164e-08
-4.91421e-08
-4.74425e-08
-4.5788e-08
-4.41927e-08
-4.2646e-08
-4.1146e-08
-3.96928e-08
-3.82776e-08
-3.69044e-08
-3.55642e-08
-3.42559e-08
-3.29801e-08
-3.17226e-08
-3.04962e-08
-2.92818e-08
-2.8086e-08
-2.69058e-08
-2.57248e-08
-2.45664e-08
-2.33951e-08
-2.22457e-08
-2.108e-08
-1.99317e-08
-1.87703e-08
-1.76296e-08
-1.64725e-08
-1.53729e-08
-1.42221e-08
-1.3236e-08
-1.20843e-08
-1.13721e-08
-1.01597e-08
-1.00887e-08
-8.57506e-09
-1.00617e-08
-7.44273e-09
-1.27496e-08
-6.61214e-09
-2.21081e-08
-5.5236e-09
-5.21759e-08
-5.54007e-10
-2.24539e-07
3.01382e-08
2.48955e-07
7.94512e-08
1.40593e-07
4.28902e-08
-5.87393e-08
-2.89896e-09
-9.05967e-08
-7.08204e-08
-1.11825e-07
-1.10657e-07
-1.28706e-07
-1.32494e-07
-1.40432e-07
-1.43231e-07
-1.47444e-07
-1.48106e-07
-1.50206e-07
-1.49931e-07
-1.49818e-07
-1.49305e-07
-1.47978e-07
-1.46586e-07
-1.45039e-07
-1.42843e-07
-1.40847e-07
-1.38551e-07
-1.35941e-07
-1.3352e-07
-1.30749e-07
-1.27952e-07
-1.25206e-07
-1.22215e-07
-1.19282e-07
-1.16329e-07
-1.13224e-07
-1.10219e-07
-1.07139e-07
-1.04029e-07
-1.00987e-07
-9.78567e-08
-9.48019e-08
-9.17334e-08
-8.86647e-08
-8.56522e-08
-8.26193e-08
-7.96618e-08
-7.67005e-08
-7.38042e-08
-7.09242e-08
-6.81101e-08
-6.53175e-08
-6.28927e-08
-6.06984e-08
-5.86081e-08
-5.66021e-08
-5.4632e-08
-5.27415e-08
-5.09219e-08
-4.91477e-08
-4.74482e-08
-4.57937e-08
-4.41984e-08
-4.26517e-08
-4.11517e-08
-3.96985e-08
-3.82833e-08
-3.691e-08
-3.55699e-08
-3.42616e-08
-3.29858e-08
-3.17285e-08
-3.05022e-08
-2.9288e-08
-2.80925e-08
-2.69126e-08
-2.57321e-08
-2.45741e-08
-2.34035e-08
-2.22549e-08
-2.10901e-08
-1.99428e-08
-1.87827e-08
-1.76435e-08
-1.64881e-08
-1.53906e-08
-1.42419e-08
-1.32589e-08
-1.21097e-08
-1.14023e-08
-1.01923e-08
-1.01297e-08
-8.61716e-09
-1.01202e-08
-7.49724e-09
-1.2841e-08
-6.68383e-09
-2.22784e-08
-5.62146e-09
-5.25964e-08
-7.97777e-10
-2.21529e-07
3.30425e-08
2.47227e-07
7.85072e-08
1.38264e-07
4.33517e-08
-5.60872e-08
-2.25677e-09
-8.904e-08
-6.98899e-08
-1.106e-07
-1.09776e-07
-1.27787e-07
-1.31774e-07
-1.3976e-07
-1.42675e-07
-1.46948e-07
-1.47687e-07
-1.49837e-07
-1.49616e-07
-1.49542e-07
-1.49065e-07
-1.47772e-07
-1.46404e-07
-1.4488e-07
-1.42706e-07
-1.40725e-07
-1.38445e-07
-1.35848e-07
-1.33438e-07
-1.30678e-07
-1.2789e-07
-1.25151e-07
-1.22168e-07
-1.1924e-07
-1.16293e-07
-1.13193e-07
-1.10192e-07
-1.07116e-07
-1.0401e-07
-1.00971e-07
-9.78433e-08
-9.47908e-08
-9.17246e-08
-8.86579e-08
-8.56472e-08
-8.26159e-08
-7.96598e-08
-7.66998e-08
-7.38046e-08
-7.09257e-08
-6.81125e-08
-6.53206e-08
-6.28963e-08
-6.07029e-08
-5.86129e-08
-5.66073e-08
-5.46376e-08
-5.27473e-08
-5.09278e-08
-4.91537e-08
-4.74542e-08
-4.57997e-08
-4.42045e-08
-4.26578e-08
-4.11577e-08
-3.97045e-08
-3.82894e-08
-3.69161e-08
-3.5576e-08
-3.42677e-08
-3.2992e-08
-3.17348e-08
-3.05086e-08
-2.92947e-08
-2.80994e-08
-2.69199e-08
-2.57399e-08
-2.45825e-08
-2.34125e-08
-2.22647e-08
-2.11009e-08
-1.99548e-08
-1.8796e-08
-1.76585e-08
-1.65048e-08
-1.54096e-08
-1.42631e-08
-1.32835e-08
-1.21369e-08
-1.14346e-08
-1.02273e-08
-1.01735e-08
-8.66223e-09
-1.01826e-08
-7.55556e-09
-1.29382e-08
-6.76038e-09
-2.24581e-08
-5.7253e-09
-5.30262e-08
-1.06426e-09
-2.18343e-07
3.6138e-08
2.45234e-07
7.76296e-08
1.35847e-07
4.38071e-08
-5.3334e-08
-1.5967e-09
-8.73722e-08
-6.89136e-08
-1.0929e-07
-1.0884e-07
-1.26804e-07
-1.31004e-07
-1.39038e-07
-1.42078e-07
-1.46415e-07
-1.47236e-07
-1.4944e-07
-1.49278e-07
-1.49244e-07
-1.48807e-07
-1.47548e-07
-1.46208e-07
-1.44709e-07
-1.42558e-07
-1.40594e-07
-1.38331e-07
-1.35749e-07
-1.3335e-07