/*--------------------------------*- C++ -*----------------------------------*\
| =========                 |                                                 |
| \\      /  F ield         | OpenFOAM: The Open Source CFD Toolbox           |
|  \\    /   O peration     | Version:  5.x                                   |
|   \\  /    A nd           | Web:      www.OpenFOAM.org                      |
|    \\/     M anipulation  |                                                 |
\*---------------------------------------------------------------------------*/
FoamFile
{
    version     2.0;
    format      ascii;
    class       volScalarField;
    location    "3500";
    object      p;
}
// * * * * * * * * * * * * * * * * * * * * * * * * * * * * * * * * * * * * * //

dimensions      [0 2 -2 0 0 0 0];

internalField   nonuniform List<scalar> 
107912
(
-8.62098e-06
2.01262e-05
-9.50866e-06
-1.14202e-05
-3.77371e-05
-5.20378e-05
-3.87553e-05
-5.13253e-05
-4.55202e-05
-4.81927e-05
-4.51579e-05
-4.42171e-05
-4.17793e-05
-3.96852e-05
-3.73644e-05
-3.5083e-05
-3.27663e-05
-3.06005e-05
-2.84333e-05
-2.64758e-05
-2.45581e-05
-2.27775e-05
-2.11521e-05
-1.96042e-05
-1.81902e-05
-1.69023e-05
-1.57007e-05
-1.4652e-05
-1.36657e-05
-1.27892e-05
-1.19934e-05
-1.12764e-05
-1.06303e-05
-1.00743e-05
-9.55801e-06
-9.09276e-06
-8.70942e-06
-8.32306e-06
-8.003e-06
-7.69858e-06
-7.45612e-06
-7.2123e-06
-7.00689e-06
-6.82956e-06
-6.65078e-06
-6.50917e-06
-6.35455e-06
-6.23876e-06
-6.10664e-06
-6.01127e-06
-5.90275e-06
-5.83862e-06
-5.74959e-06
-5.68377e-06
-5.61967e-06
-5.57882e-06
-5.52664e-06
-5.49906e-06
-5.4515e-06
-5.4238e-06
-5.38527e-06
-5.38004e-06
-5.34436e-06
-5.33201e-06
-5.30197e-06
-5.29833e-06
-5.27103e-06
-5.2636e-06
-5.24011e-06
-5.23568e-06
-5.21382e-06
-5.21009e-06
-5.19021e-06
-5.18359e-06
-5.17135e-06
-5.17598e-06
-5.16239e-06
-5.16283e-06
-5.1538e-06
-5.14578e-06
-5.14054e-06
-5.13745e-06
-5.13354e-06
-5.13123e-06
-5.13204e-06
-5.13827e-06
-5.14107e-06
-5.14943e-06
-5.15817e-06
-5.16626e-06
-5.17708e-06
-5.19797e-06
-5.21054e-06
-5.25268e-06
-5.26452e-06
-5.34005e-06
-5.3069e-06
-5.48508e-06
-5.37509e-06
-5.81804e-06
-5.31788e-06
-8.06895e-06
-1.19778e-05
2.01241e-05
-9.58781e-06
-1.14748e-05
-3.76509e-05
-5.19414e-05
-3.87327e-05
-5.12805e-05
-4.54995e-05
-4.8171e-05
-4.51486e-05
-4.42105e-05
-4.17782e-05
-3.96866e-05
-3.73676e-05
-3.50879e-05
-3.2772e-05
-3.06065e-05
-2.84396e-05
-2.64819e-05
-2.45642e-05
-2.27833e-05
-2.11575e-05
-1.96092e-05
-1.81951e-05
-1.69065e-05
-1.57048e-05
-1.46556e-05
-1.3669e-05
-1.27922e-05
-1.19961e-05
-1.12788e-05
-1.06324e-05
-1.00762e-05
-9.5596e-06
-9.09444e-06
-8.7106e-06
-8.32442e-06
-8.00412e-06
-7.69958e-06
-7.45699e-06
-7.21308e-06
-7.00757e-06
-6.83007e-06
-6.65144e-06
-6.50958e-06
-6.35513e-06
-6.23912e-06
-6.10719e-06
-6.01168e-06
-5.90315e-06
-5.83886e-06
-5.75005e-06
-5.68408e-06
-5.62011e-06
-5.5791e-06
-5.52705e-06
-5.4993e-06
-5.45189e-06
-5.42406e-06
-5.38566e-06
-5.38022e-06
-5.34468e-06
-5.33221e-06
-5.30227e-06
-5.29848e-06
-5.27131e-06
-5.26377e-06
-5.24035e-06
-5.23581e-06
-5.21409e-06
-5.2102e-06
-5.19056e-06
-5.18382e-06
-5.17157e-06
-5.17607e-06
-5.16267e-06
-5.16302e-06
-5.154e-06
-5.14597e-06
-5.14067e-06
-5.1376e-06
-5.1337e-06
-5.13141e-06
-5.13218e-06
-5.13839e-06
-5.14123e-06
-5.1496e-06
-5.1583e-06
-5.16641e-06
-5.17722e-06
-5.19817e-06
-5.21068e-06
-5.25282e-06
-5.26462e-06
-5.34024e-06
-5.3071e-06
-5.48548e-06
-5.37517e-06
-5.81944e-06
-5.31778e-06
-7.97072e-06
-1.22588e-05
2.01235e-05
-9.6784e-06
-1.15369e-05
-3.75544e-05
-5.18264e-05
-3.87035e-05
-5.12294e-05
-4.54725e-05
-4.81446e-05
-4.51351e-05
-4.42006e-05
-4.17744e-05
-3.9686e-05
-3.73691e-05
-3.50916e-05
-3.27766e-05
-3.06118e-05
-2.84453e-05
-2.64876e-05
-2.45699e-05
-2.27888e-05
-2.11626e-05
-1.96141e-05
-1.81999e-05
-1.69107e-05
-1.5709e-05
-1.46592e-05
-1.36722e-05
-1.27951e-05
-1.19988e-05
-1.12813e-05
-1.06347e-05
-1.00781e-05
-9.56121e-06
-9.09627e-06
-8.71177e-06
-8.3259e-06
-8.00532e-06
-7.70064e-06
-7.4579e-06
-7.21391e-06
-7.00829e-06
-6.83055e-06
-6.65217e-06
-6.50995e-06
-6.35576e-06
-6.23947e-06
-6.10781e-06
-6.01212e-06
-5.90361e-06
-5.83911e-06
-5.75059e-06
-5.68442e-06
-5.62066e-06
-5.57943e-06
-5.52759e-06
-5.4996e-06
-5.45239e-06
-5.42439e-06
-5.38618e-06
-5.38045e-06
-5.34513e-06
-5.33247e-06
-5.30268e-06
-5.29869e-06
-5.27169e-06
-5.26401e-06
-5.24071e-06
-5.236e-06
-5.21447e-06
-5.21037e-06
-5.19107e-06
-5.18416e-06
-5.17192e-06
-5.1762e-06
-5.16307e-06
-5.16331e-06
-5.15431e-06
-5.14626e-06
-5.14089e-06
-5.13783e-06
-5.13397e-06
-5.13167e-06
-5.13242e-06
-5.13858e-06
-5.14149e-06
-5.14985e-06
-5.15851e-06
-5.16663e-06
-5.17745e-06
-5.19845e-06
-5.21092e-06
-5.25303e-06
-5.26479e-06
-5.34051e-06
-5.3074e-06
-5.48602e-06
-5.37534e-06
-5.82112e-06
-5.31821e-06
-7.9525e-06
-1.1866e-05
2.01202e-05
-9.76881e-06
-1.16009e-05
-3.74568e-05
-5.17078e-05
-3.86729e-05
-5.11763e-05
-4.54447e-05
-4.8117e-05
-4.5121e-05
-4.41901e-05
-4.17702e-05
-3.96851e-05
-3.73704e-05
-3.50952e-05
-3.27812e-05
-3.0617e-05
-2.84511e-05
-2.64934e-05
-2.45757e-05
-2.27945e-05
-2.11679e-05
-1.9619e-05
-1.8205e-05
-1.69149e-05
-1.57135e-05
-1.46629e-05
-1.36756e-05
-1.27983e-05
-1.20017e-05
-1.12839e-05
-1.0637e-05
-1.00802e-05
-9.56285e-06
-9.09829e-06
-8.71294e-06
-8.32753e-06
-8.00661e-06
-7.7018e-06
-7.4589e-06
-7.2148e-06
-7.00908e-06
-6.83103e-06
-6.65302e-06
-6.51031e-06
-6.35651e-06
-6.23985e-06
-6.1086e-06
-6.01265e-06
-5.90417e-06
-5.83938e-06
-5.75129e-06
-5.68485e-06
-5.62139e-06
-5.57986e-06
-5.52831e-06
-5.49998e-06
-5.45309e-06
-5.42485e-06
-5.38691e-06
-5.38076e-06
-5.34574e-06
-5.33283e-06
-5.30326e-06
-5.29898e-06
-5.27223e-06
-5.26434e-06
-5.24121e-06
-5.23627e-06
-5.21501e-06
-5.2106e-06
-5.19179e-06
-5.18465e-06
-5.17242e-06
-5.17641e-06
-5.16364e-06
-5.16374e-06
-5.15475e-06
-5.14668e-06
-5.1412e-06
-5.13817e-06
-5.13434e-06
-5.13206e-06
-5.13275e-06
-5.13887e-06
-5.14184e-06
-5.15022e-06
-5.1588e-06
-5.16697e-06
-5.17777e-06
-5.19887e-06
-5.21125e-06
-5.25332e-06
-5.26503e-06
-5.34086e-06
-5.30785e-06
-5.48664e-06
-5.37557e-06
-5.8229e-06
-5.31875e-06
-7.94569e-06
-1.16167e-05
2.01144e-05
-9.86109e-06
-1.16686e-05
-3.73551e-05
-5.15834e-05
-3.86404e-05
-5.11197e-05
-4.54155e-05
-4.80876e-05
-4.51062e-05
-4.4179e-05
-4.17658e-05
-3.96842e-05
-3.73719e-05
-3.5099e-05
-3.27861e-05
-3.06227e-05
-2.84573e-05
-2.64995e-05
-2.45819e-05
-2.28004e-05
-2.11735e-05
-1.96242e-05
-1.82104e-05
-1.69193e-05
-1.57183e-05
-1.46668e-05
-1.36792e-05
-1.28016e-05
-1.20047e-05
-1.12867e-05
-1.06396e-05
-1.00824e-05
-9.56456e-06
-9.10046e-06
-8.71413e-06
-8.32927e-06
-8.00799e-06
-7.70304e-06
-7.45996e-06
-7.21574e-06
-7.00991e-06
-6.83149e-06
-6.65391e-06
-6.51066e-06
-6.35731e-06
-6.24021e-06
-6.10944e-06
-6.01322e-06
-5.90479e-06
-5.83965e-06
-5.75205e-06
-5.68531e-06
-5.62221e-06
-5.58034e-06
-5.52913e-06
-5.50041e-06
-5.45388e-06
-5.42537e-06
-5.38776e-06
-5.38112e-06
-5.34645e-06
-5.33325e-06
-5.30395e-06
-5.29932e-06
-5.27286e-06
-5.26473e-06
-5.24181e-06
-5.2366e-06
-5.21565e-06
-5.21088e-06
-5.19265e-06
-5.18524e-06
-5.17305e-06
-5.17668e-06
-5.16432e-06
-5.16425e-06
-5.1553e-06
-5.1472e-06
-5.1416e-06
-5.13859e-06
-5.13481e-06
-5.13254e-06
-5.13318e-06
-5.13922e-06
-5.14229e-06
-5.15067e-06
-5.15917e-06
-5.16737e-06
-5.17817e-06
-5.19937e-06
-5.21166e-06
-5.25367e-06
-5.26533e-06
-5.34126e-06
-5.30837e-06
-5.48736e-06
-5.37583e-06
-5.82479e-06
-5.31935e-06
-7.93406e-06
-1.14474e-05
2.01057e-05
-9.9562e-06
-1.17404e-05
-3.72476e-05
-5.14511e-05
-3.86052e-05
-5.10587e-05
-4.53846e-05
-4.8056e-05
-4.50904e-05
-4.41672e-05
-4.17613e-05
-3.96833e-05
-3.73734e-05
-3.51032e-05
-3.27915e-05
-3.06288e-05
-2.84639e-05
-2.65062e-05
-2.45886e-05
-2.2807e-05
-2.11796e-05
-1.96298e-05
-1.82162e-05
-1.69242e-05
-1.57235e-05
-1.4671e-05
-1.36831e-05
-1.28051e-05
-1.2008e-05
-1.12897e-05
-1.06424e-05
-1.00848e-05
-9.56646e-06
-9.10287e-06
-8.71543e-06
-8.33121e-06
-8.00954e-06
-7.70443e-06
-7.46114e-06
-7.21681e-06
-7.01085e-06
-6.83204e-06
-6.65493e-06
-6.51106e-06
-6.35825e-06
-6.24065e-06
-6.11045e-06
-6.01388e-06
-5.90553e-06
-5.83998e-06
-5.75295e-06
-5.68587e-06
-5.6232e-06
-5.58093e-06
-5.53012e-06
-5.50094e-06
-5.45484e-06
-5.42602e-06
-5.38878e-06
-5.38156e-06
-5.34731e-06
-5.33376e-06
-5.30479e-06
-5.29974e-06
-5.27362e-06
-5.26521e-06
-5.24253e-06
-5.23701e-06
-5.21642e-06
-5.21125e-06
-5.19366e-06
-5.18596e-06
-5.17378e-06
-5.17703e-06
-5.16514e-06
-5.16487e-06
-5.15594e-06
-5.14781e-06
-5.14206e-06
-5.13909e-06
-5.13535e-06
-5.13312e-06
-5.13367e-06
-5.13964e-06
-5.1428e-06
-5.1512e-06
-5.1596e-06
-5.16786e-06
-5.17864e-06
-5.19999e-06
-5.21214e-06
-5.25409e-06
-5.26569e-06
-5.34175e-06
-5.30901e-06
-5.48816e-06
-5.37614e-06
-5.82683e-06
-5.32004e-06
-7.91983e-06
-1.1277e-05
2.00936e-05
-1.00538e-05
-1.18162e-05
-3.71335e-05
-5.13098e-05
-3.85671e-05
-5.09928e-05
-4.53516e-05
-4.80219e-05
-4.50734e-05
-4.41542e-05
-4.17562e-05
-3.96822e-05
-3.7375e-05
-3.51075e-05
-3.27971e-05
-3.06353e-05
-2.8471e-05
-2.65132e-05
-2.45957e-05
-2.28139e-05
-2.1186e-05
-1.96358e-05
-1.82225e-05
-1.69294e-05
-1.57291e-05
-1.46756e-05
-1.36872e-05
-1.2809e-05
-1.20116e-05
-1.1293e-05
-1.06453e-05
-1.00874e-05
-9.5685e-06
-9.1054e-06
-8.71682e-06
-8.33325e-06
-8.01117e-06
-7.70591e-06
-7.46239e-06
-7.21792e-06
-7.01184e-06
-6.83262e-06
-6.65597e-06
-6.51148e-06
-6.3592e-06
-6.2411e-06
-6.11148e-06
-6.01457e-06
-5.90631e-06
-5.84033e-06
-5.75388e-06
-5.68648e-06
-5.62424e-06
-5.58157e-06
-5.53116e-06
-5.50152e-06
-5.45585e-06
-5.42672e-06
-5.38988e-06
-5.38205e-06
-5.34823e-06
-5.33432e-06
-5.30568e-06
-5.30021e-06
-5.27444e-06
-5.26574e-06
-5.24332e-06
-5.23748e-06
-5.21725e-06
-5.21167e-06
-5.19474e-06
-5.18675e-06
-5.17461e-06
-5.17744e-06
-5.16601e-06
-5.16555e-06
-5.15666e-06
-5.14849e-06
-5.1426e-06
-5.13966e-06
-5.13596e-06
-5.13375e-06
-5.13424e-06
-5.14012e-06
-5.14338e-06
-5.15179e-06
-5.16009e-06
-5.1684e-06
-5.17916e-06
-5.20064e-06
-5.21268e-06
-5.25456e-06
-5.26609e-06
-5.34228e-06
-5.3097e-06
-5.48904e-06
-5.37649e-06
-5.82902e-06
-5.32082e-06
-7.90477e-06
-1.10897e-05
2.00774e-05
-1.0153e-05
-1.18958e-05
-3.70123e-05
-5.1159e-05
-3.8526e-05
-5.09217e-05
-4.53166e-05
-4.7985e-05
-4.50552e-05
-4.41402e-05
-4.17509e-05
-3.9681e-05
-3.73767e-05
-3.51122e-05
-3.28032e-05
-3.06423e-05
-2.84787e-05
-2.65209e-05
-2.46034e-05
-2.28214e-05
-2.1193e-05
-1.96423e-05
-1.82292e-05
-1.6935e-05
-1.57351e-05
-1.46805e-05
-1.36917e-05
-1.28131e-05
-1.20154e-05
-1.12965e-05
-1.06486e-05
-1.00902e-05
-9.57076e-06
-9.10817e-06
-8.71836e-06
-8.33548e-06
-8.01298e-06
-7.70756e-06
-7.46379e-06
-7.21917e-06
-7.01297e-06
-6.83331e-06
-6.65714e-06
-6.512e-06
-6.36029e-06
-6.24165e-06
-6.11267e-06
-6.01538e-06
-5.90722e-06
-5.84076e-06
-5.75493e-06
-5.68719e-06
-5.62541e-06
-5.58233e-06
-5.53234e-06
-5.50219e-06
-5.45701e-06
-5.42755e-06
-5.39112e-06
-5.38263e-06
-5.34927e-06
-5.33497e-06
-5.3067e-06
-5.30075e-06
-5.27537e-06
-5.26635e-06
-5.2442e-06
-5.23802e-06
-5.21819e-06
-5.21217e-06
-5.19594e-06
-5.18765e-06
-5.17552e-06
-5.17793e-06
-5.16698e-06
-5.16632e-06
-5.15745e-06
-5.14925e-06
-5.14319e-06
-5.14029e-06
-5.13662e-06
-5.13447e-06
-5.13486e-06
-5.14066e-06
-5.14401e-06
-5.15245e-06
-5.16062e-06
-5.16902e-06
-5.17974e-06
-5.20139e-06
-5.21328e-06
-5.2551e-06
-5.26654e-06
-5.34289e-06
-5.3105e-06
-5.49e-06
-5.37688e-06
-5.83134e-06
-5.32171e-06
-7.88895e-06
-1.08899e-05
2.00564e-05
-1.02531e-05
-1.19787e-05
-3.68828e-05
-5.09975e-05
-3.84815e-05
-5.08447e-05
-4.52792e-05
-4.79451e-05
-4.50356e-05
-4.4125e-05
-4.1745e-05
-3.96795e-05
-3.73784e-05
-3.51171e-05
-3.28096e-05
-3.06497e-05
-2.84868e-05
-2.6529e-05
-2.46115e-05
-2.28293e-05
-2.12004e-05
-1.96492e-05
-1.82364e-05
-1.6941e-05
-1.57415e-05
-1.46857e-05
-1.36965e-05
-1.28175e-05
-1.20195e-05
-1.13003e-05
-1.0652e-05
-1.00932e-05
-9.57318e-06
-9.11103e-06
-8.72003e-06
-8.33778e-06
-8.01489e-06
-7.7093e-06
-7.46525e-06
-7.22048e-06
-7.01413e-06
-6.83404e-06
-6.6583e-06
-6.51253e-06
-6.36138e-06
-6.24223e-06
-6.11385e-06
-6.01621e-06
-5.90816e-06
-5.84123e-06
-5.75597e-06
-5.68794e-06
-5.62661e-06
-5.58313e-06
-5.53354e-06
-5.5029e-06
-5.45819e-06
-5.42842e-06
-5.3924e-06
-5.38324e-06
-5.35035e-06
-5.33566e-06
-5.30775e-06
-5.30134e-06
-5.27634e-06
-5.26701e-06
-5.24513e-06
-5.23861e-06
-5.21916e-06
-5.21273e-06
-5.19717e-06
-5.18861e-06
-5.17649e-06
-5.17846e-06
-5.16798e-06
-5.16714e-06
-5.15829e-06
-5.15004e-06
-5.14385e-06
-5.14097e-06
-5.13734e-06
-5.13522e-06
-5.13555e-06
-5.14124e-06
-5.14468e-06
-5.15314e-06
-5.16121e-06
-5.16967e-06
-5.18036e-06
-5.20216e-06
-5.21392e-06
-5.25567e-06
-5.26703e-06
-5.34354e-06
-5.31132e-06
-5.49102e-06
-5.3773e-06
-5.83381e-06
-5.32271e-06
-7.87216e-06
-1.06743e-05
2.00294e-05
-1.03531e-05
-1.20644e-05
-3.67438e-05
-5.08241e-05
-3.84334e-05
-5.07614e-05
-4.52395e-05
-4.79021e-05
-4.50147e-05
-4.41085e-05
-4.17387e-05
-3.96779e-05
-3.73802e-05
-3.51223e-05
-3.28164e-05
-3.06576e-05
-2.84954e-05
-2.65378e-05
-2.46203e-05
-2.28379e-05
-2.12084e-05
-1.96567e-05
-1.82441e-05
-1.69475e-05
-1.57484e-05
-1.46914e-05
-1.37016e-05
-1.28223e-05
-1.20239e-05
-1.13043e-05
-1.06558e-05
-1.00964e-05
-9.57587e-06
-9.11414e-06
-8.72188e-06
-8.3403e-06
-8.017e-06
-7.71123e-06
-7.46687e-06
-7.22194e-06
-7.01545e-06
-6.83492e-06
-6.65961e-06
-6.51319e-06
-6.36262e-06
-6.24292e-06
-6.11519e-06
-6.01716e-06
-5.90924e-06
-5.84178e-06
-5.75714e-06
-5.68882e-06
-5.62793e-06
-5.58405e-06
-5.53488e-06
-5.50372e-06
-5.4595e-06
-5.42941e-06
-5.39381e-06
-5.38394e-06
-5.35153e-06
-5.33644e-06
-5.30891e-06
-5.302e-06
-5.2774e-06
-5.26773e-06
-5.24615e-06
-5.23928e-06
-5.22022e-06
-5.21338e-06
-5.19849e-06
-5.18965e-06
-5.17753e-06
-5.17908e-06
-5.16907e-06
-5.16803e-06
-5.15919e-06
-5.15089e-06
-5.14456e-06
-5.14171e-06
-5.13811e-06
-5.13603e-06
-5.13628e-06
-5.14187e-06
-5.1454e-06
-5.15389e-06
-5.16182e-06
-5.1704e-06
-5.18103e-06
-5.203e-06
-5.21461e-06
-5.25631e-06
-5.26757e-06
-5.34426e-06
-5.31223e-06
-5.49211e-06
-5.37775e-06
-5.83642e-06
-5.32382e-06
-7.85434e-06
-1.04417e-05
1.99956e-05
-1.04516e-05
-1.21519e-05
-3.65935e-05
-5.06373e-05
-3.83814e-05
-5.06708e-05
-4.51969e-05
-4.78553e-05
-4.49921e-05
-4.40905e-05
-4.17317e-05
-3.96758e-05
-3.7382e-05
-3.51276e-05
-3.28236e-05
-3.0666e-05
-2.85046e-05
-2.6547e-05
-2.46296e-05
-2.2847e-05
-2.12168e-05
-1.96648e-05
-1.82522e-05
-1.69544e-05
-1.57556e-05
-1.46974e-05
-1.37071e-05
-1.28274e-05
-1.20286e-05
-1.13087e-05
-1.06597e-05
-1.00999e-05
-9.57874e-06
-9.11736e-06
-8.72388e-06
-8.34289e-06
-8.01921e-06
-7.71324e-06
-7.46856e-06
-7.22346e-06
-7.01681e-06
-6.83585e-06
-6.66091e-06
-6.51389e-06
-6.36385e-06
-6.24364e-06
-6.11652e-06
-6.01813e-06
-5.91033e-06
-5.84238e-06
-5.75829e-06
-5.68973e-06
-5.62926e-06
-5.585e-06
-5.53623e-06
-5.50458e-06
-5.46082e-06
-5.43045e-06
-5.39523e-06
-5.38468e-06
-5.35274e-06
-5.33726e-06
-5.3101e-06
-5.30269e-06
-5.27848e-06
-5.26849e-06
-5.24719e-06
-5.23999e-06
-5.2213e-06
-5.21408e-06
-5.19982e-06
-5.19074e-06
-5.17863e-06
-5.17973e-06
-5.17016e-06
-5.16895e-06
-5.16015e-06
-5.15177e-06
-5.14533e-06
-5.14247e-06
-5.13893e-06
-5.13687e-06
-5.13706e-06
-5.14254e-06
-5.14616e-06
-5.15465e-06
-5.16249e-06
-5.17114e-06
-5.18174e-06
-5.20385e-06
-5.21534e-06
-5.25698e-06
-5.26814e-06
-5.34502e-06
-5.31316e-06
-5.49326e-06
-5.37823e-06
-5.83918e-06
-5.32506e-06
-7.83542e-06
-1.01867e-05
1.99537e-05
-1.05472e-05
-1.22404e-05
-3.64301e-05
-5.04353e-05
-3.83251e-05
-5.05722e-05
-4.51516e-05
-4.78046e-05
-4.49679e-05
-4.40709e-05
-4.17242e-05
-3.96734e-05
-3.73839e-05
-3.51333e-05
-3.28312e-05
-3.0675e-05
-2.85144e-05
-2.6557e-05
-2.46396e-05
-2.28568e-05
-2.12259e-05
-1.96734e-05
-1.82609e-05
-1.69619e-05
-1.57634e-05
-1.47039e-05
-1.37131e-05
-1.28329e-05
-1.20337e-05
-1.13134e-05
-1.0664e-05
-1.01037e-05
-9.58191e-06
-9.12083e-06
-8.7261e-06
-8.34571e-06
-8.02163e-06
-7.71547e-06
-7.47042e-06
-7.22516e-06
-7.01834e-06
-6.83694e-06
-6.66235e-06
-6.51473e-06
-6.36523e-06
-6.2445e-06
-6.118e-06
-6.01923e-06
-5.91157e-06
-5.84308e-06
-5.75956e-06
-5.69077e-06
-5.63072e-06
-5.58607e-06
-5.53771e-06
-5.50554e-06
-5.46226e-06
-5.4316e-06
-5.39678e-06
-5.38549e-06
-5.35405e-06
-5.33815e-06
-5.31137e-06
-5.30345e-06
-5.27965e-06
-5.26932e-06
-5.24831e-06
-5.24077e-06
-5.22247e-06
-5.21486e-06
-5.20122e-06
-5.1919e-06
-5.17978e-06
-5.18046e-06
-5.17132e-06
-5.16993e-06
-5.16114e-06
-5.1527e-06
-5.14614e-06
-5.14329e-06
-5.13978e-06
-5.13776e-06
-5.13789e-06
-5.14325e-06
-5.14695e-06
-5.15546e-06
-5.16318e-06
-5.17194e-06
-5.18248e-06
-5.20477e-06
-5.21611e-06
-5.25771e-06
-5.26875e-06
-5.34584e-06
-5.31417e-06
-5.49449e-06
-5.37874e-06
-5.84207e-06
-5.32645e-06
-7.81537e-06
-9.9068e-06
1.99026e-05
-1.06377e-05
-1.23284e-05
-3.6251e-05
-5.02159e-05
-3.82641e-05
-5.04645e-05
-4.51028e-05
-4.77493e-05
-4.49416e-05
-4.40493e-05
-4.17159e-05
-3.96705e-05
-3.73857e-05
-3.51391e-05
-3.28392e-05
-3.06845e-05
-2.85248e-05
-2.65675e-05
-2.46501e-05
-2.28671e-05
-2.12356e-05
-1.96826e-05
-1.827e-05
-1.69699e-05
-1.57715e-05
-1.47108e-05
-1.37194e-05
-1.28387e-05
-1.20391e-05
-1.13183e-05
-1.06686e-05
-1.01076e-05
-9.58528e-06
-9.12442e-06
-8.72849e-06
-8.34861e-06
-8.02417e-06
-7.7178e-06
-7.47237e-06
-7.22691e-06
-7.01991e-06
-6.83808e-06
-6.66379e-06
-6.51561e-06
-6.36661e-06
-6.24539e-06
-6.11947e-06
-6.02035e-06
-5.91283e-06
-5.84382e-06
-5.7608e-06
-5.69183e-06
-5.63216e-06
-5.58717e-06
-5.53918e-06
-5.50654e-06
-5.46371e-06
-5.43278e-06
-5.39833e-06
-5.38635e-06
-5.35537e-06
-5.33909e-06
-5.31267e-06
-5.30425e-06
-5.28084e-06
-5.27019e-06
-5.24946e-06
-5.24158e-06
-5.22364e-06
-5.2157e-06
-5.20263e-06
-5.19311e-06
-5.18097e-06
-5.18121e-06
-5.17249e-06
-5.17094e-06
-5.16218e-06
-5.15365e-06
-5.14701e-06
-5.14414e-06
-5.14068e-06
-5.13867e-06
-5.13876e-06
-5.14399e-06
-5.14778e-06
-5.15628e-06
-5.16391e-06
-5.17275e-06
-5.18326e-06
-5.20568e-06
-5.21691e-06
-5.25846e-06
-5.26939e-06
-5.34669e-06
-5.31517e-06
-5.49577e-06
-5.37928e-06
-5.84511e-06
-5.32797e-06
-7.79412e-06
-9.59548e-06
1.98407e-05
-1.07208e-05
-1.24143e-05
-3.60535e-05
-4.99765e-05
-3.81978e-05
-5.03466e-05
-4.50505e-05
-4.76892e-05
-4.49132e-05
-4.40258e-05
-4.17068e-05
-3.96672e-05
-3.73876e-05
-3.51452e-05
-3.28477e-05
-3.06946e-05
-2.85359e-05
-2.65788e-05
-2.46614e-05
-2.28783e-05
-2.12459e-05
-1.96926e-05
-1.82798e-05
-1.69785e-05
-1.57803e-05
-1.47183e-05
-1.37262e-05
-1.2845e-05
-1.2045e-05
-1.13237e-05
-1.06735e-05
-1.01119e-05
-9.58899e-06
-9.12829e-06
-8.73114e-06
-8.35176e-06
-8.02695e-06
-7.72036e-06
-7.4745e-06
-7.22886e-06
-7.02167e-06
-6.83942e-06
-6.6654e-06
-6.51665e-06
-6.36814e-06
-6.24643e-06
-6.12109e-06
-6.02161e-06
-5.91423e-06
-5.84467e-06
-5.76215e-06
-5.69304e-06
-5.63374e-06
-5.5884e-06
-5.54077e-06
-5.50764e-06
-5.46527e-06
-5.43408e-06
-5.4e-06
-5.38728e-06
-5.35678e-06
-5.3401e-06
-5.31404e-06
-5.30511e-06
-5.2821e-06
-5.27111e-06
-5.25067e-06
-5.24247e-06
-5.22489e-06
-5.21661e-06
-5.2041e-06
-5.19437e-06
-5.18221e-06
-5.18204e-06
-5.17371e-06
-5.17198e-06
-5.16326e-06
-5.15463e-06
-5.14792e-06
-5.14503e-06
-5.14161e-06
-5.13962e-06
-5.13968e-06
-5.14477e-06
-5.14864e-06
-5.15713e-06
-5.16467e-06
-5.17363e-06
-5.18408e-06
-5.20665e-06
-5.21775e-06
-5.25927e-06
-5.27007e-06
-5.34761e-06
-5.31626e-06
-5.49712e-06
-5.37984e-06
-5.84828e-06
-5.32966e-06
-7.77165e-06
-9.24865e-06
1.97668e-05
-1.07936e-05
-1.24962e-05
-3.58338e-05
-4.97138e-05
-3.81254e-05
-5.0217e-05
-4.49939e-05
-4.76233e-05
-4.48823e-05
-4.39999e-05
-4.16967e-05
-3.96631e-05
-3.73894e-05
-3.51514e-05
-3.28566e-05
-3.07052e-05
-2.85475e-05
-2.65907e-05
-2.46734e-05
-2.289e-05
-2.12569e-05
-1.97031e-05
-1.82902e-05
-1.69877e-05
-1.57895e-05
-1.47262e-05
-1.37334e-05
-1.28516e-05
-1.20512e-05
-1.13293e-05
-1.06787e-05
-1.01165e-05
-9.59292e-06
-9.1323e-06
-8.73397e-06
-8.35501e-06
-8.02985e-06
-7.72303e-06
-7.47672e-06
-7.23088e-06
-7.02348e-06
-6.84081e-06
-6.66701e-06
-6.51774e-06
-6.36968e-06
-6.24751e-06
-6.1227e-06
-6.02288e-06
-5.91564e-06
-5.84556e-06
-5.76348e-06
-5.69428e-06
-5.63529e-06
-5.58965e-06
-5.54236e-06
-5.50878e-06
-5.46683e-06
-5.43541e-06
-5.40166e-06
-5.38825e-06
-5.3582e-06
-5.34114e-06
-5.31543e-06
-5.30601e-06
-5.28337e-06
-5.27207e-06
-5.2519e-06
-5.24337e-06
-5.22615e-06
-5.21756e-06
-5.20556e-06
-5.19567e-06
-5.18349e-06
-5.18289e-06
-5.17492e-06
-5.17304e-06
-5.16437e-06
-5.15564e-06
-5.14887e-06
-5.14594e-06
-5.14257e-06
-5.14059e-06
-5.14062e-06
-5.14558e-06
-5.14952e-06
-5.15799e-06
-5.16546e-06
-5.17451e-06
-5.18492e-06
-5.20761e-06
-5.2186e-06
-5.2601e-06
-5.27077e-06
-5.34856e-06
-5.31733e-06
-5.49852e-06
-5.38043e-06
-5.85159e-06
-5.33152e-06
-7.74787e-06
-8.85865e-06
1.96792e-05
-1.08525e-05
-1.25717e-05
-3.55879e-05
-4.94244e-05
-3.80462e-05
-5.0074e-05
-4.49327e-05
-4.75511e-05
-4.48487e-05
-4.39713e-05
-4.16855e-05
-3.96584e-05
-3.73911e-05
-3.51579e-05
-3.28659e-05
-3.07165e-05
-2.85599e-05
-2.66034e-05
-2.46862e-05
-2.29027e-05
-2.12686e-05
-1.97145e-05
-1.83013e-05
-1.69976e-05
-1.57994e-05
-1.47347e-05
-1.37412e-05
-1.28587e-05
-1.20579e-05
-1.13354e-05
-1.06843e-05
-1.01214e-05
-9.59723e-06
-9.13662e-06
-8.7371e-06
-8.35853e-06
-8.03301e-06
-7.72596e-06
-7.47914e-06
-7.23313e-06
-7.02551e-06
-6.84241e-06
-6.6688e-06
-6.51901e-06
-6.37139e-06
-6.24875e-06
-6.12447e-06
-6.02431e-06
-5.91722e-06
-5.84658e-06
-5.76492e-06
-5.69566e-06
-5.63698e-06
-5.59103e-06
-5.54407e-06
-5.51002e-06
-5.46849e-06
-5.43685e-06
-5.40343e-06
-5.3893e-06
-5.35971e-06
-5.34226e-06
-5.3169e-06
-5.30697e-06
-5.28472e-06
-5.27309e-06
-5.25319e-06
-5.24435e-06
-5.22747e-06
-5.21859e-06
-5.20707e-06
-5.19701e-06
-5.18481e-06
-5.18381e-06
-5.17618e-06
-5.17411e-06
-5.16551e-06
-5.15667e-06
-5.14986e-06
-5.14689e-06
-5.14356e-06
-5.1416e-06
-5.14161e-06
-5.14642e-06
-5.15043e-06
-5.15888e-06
-5.16627e-06
-5.17544e-06
-5.1858e-06
-5.20862e-06
-5.2195e-06
-5.26098e-06
-5.27151e-06
-5.34957e-06
-5.31847e-06
-5.5e-06
-5.38105e-06
-5.85502e-06
-5.33357e-06
-7.72276e-06
-8.41951e-06
1.95768e-05
-1.08933e-05
-1.26377e-05
-3.5311e-05
-4.91035e-05
-3.79588e-05
-4.99155e-05
-4.48658e-05
-4.74714e-05
-4.48118e-05
-4.39396e-05
-4.16728e-05
-3.96527e-05
-3.73924e-05
-3.51644e-05
-3.28755e-05
-3.07283e-05
-2.85729e-05
-2.66168e-05
-2.46997e-05
-2.2916e-05
-2.12811e-05
-1.97265e-05
-1.83129e-05
-1.70081e-05
-1.58098e-05
-1.47437e-05
-1.37495e-05
-1.28663e-05
-1.20649e-05
-1.13418e-05
-1.06902e-05
-1.01266e-05
-9.60177e-06
-9.14111e-06
-8.74043e-06
-8.36218e-06
-8.03631e-06
-7.72902e-06
-7.48167e-06
-7.23545e-06
-7.02759e-06
-6.84408e-06
-6.67061e-06
-6.52034e-06
-6.37311e-06
-6.25004e-06
-6.12624e-06
-6.02576e-06
-5.9188e-06
-5.84763e-06
-5.76634e-06
-5.69707e-06
-5.63865e-06
-5.59242e-06
-5.54577e-06
-5.5113e-06
-5.47016e-06
-5.43832e-06
-5.40519e-06
-5.39038e-06
-5.36122e-06
-5.34342e-06
-5.31838e-06
-5.30796e-06
-5.28606e-06
-5.27413e-06
-5.2545e-06
-5.24535e-06
-5.22879e-06
-5.21965e-06
-5.20857e-06
-5.19838e-06
-5.18616e-06
-5.18474e-06
-5.17742e-06
-5.1752e-06
-5.16667e-06
-5.15773e-06
-5.15088e-06
-5.14786e-06
-5.14458e-06
-5.14262e-06
-5.14262e-06
-5.14728e-06
-5.15137e-06
-5.15978e-06
-5.1671e-06
-5.17638e-06
-5.18669e-06
-5.20962e-06
-5.2204e-06
-5.26188e-06
-5.27227e-06
-5.3506e-06
-5.31959e-06
-5.50152e-06
-5.38168e-06
-5.85857e-06
-5.33581e-06
-7.69626e-06
-7.92227e-06
1.94581e-05
-1.09111e-05
-1.26911e-05
-3.49974e-05
-4.87461e-05
-3.7862e-05
-4.97392e-05
-4.47926e-05
-4.73834e-05
-4.47712e-05
-4.39045e-05
-4.16586e-05
-3.96459e-05
-3.73936e-05
-3.5171e-05
-3.28856e-05
-3.07407e-05
-2.85868e-05
-2.66311e-05
-2.4714e-05
-2.29302e-05
-2.12943e-05
-1.97394e-05
-1.83254e-05
-1.70194e-05
-1.58209e-05
-1.47533e-05
-1.37584e-05
-1.28744e-05
-1.20725e-05
-1.13487e-05
-1.06966e-05
-1.01321e-05
-9.60674e-06
-9.14595e-06
-8.74409e-06
-8.36613e-06
-8.03989e-06
-7.73236e-06
-7.48442e-06
-7.23802e-06
-7.0299e-06
-6.84598e-06
-6.67261e-06
-6.52187e-06
-6.37501e-06
-6.25151e-06
-6.12818e-06
-6.02737e-06
-5.92054e-06
-5.84881e-06
-5.76786e-06
-5.69863e-06
-5.64044e-06
-5.59395e-06
-5.54759e-06
-5.51269e-06
-5.47194e-06
-5.4399e-06
-5.40706e-06
-5.39155e-06
-5.36281e-06
-5.34464e-06
-5.31993e-06
-5.30902e-06
-5.28748e-06
-5.27523e-06
-5.25586e-06
-5.24642e-06
-5.23018e-06
-5.22078e-06
-5.21011e-06
-5.19978e-06
-5.18754e-06
-5.18572e-06
-5.1787e-06
-5.17629e-06
-5.16785e-06
-5.15881e-06
-5.15194e-06
-5.14887e-06
-5.14563e-06
-5.14367e-06
-5.14366e-06
-5.14818e-06
-5.15233e-06
-5.16069e-06
-5.16795e-06
-5.17736e-06
-5.18762e-06
-5.21065e-06
-5.22134e-06
-5.26284e-06
-5.27306e-06
-5.35169e-06
-5.32078e-06
-5.50312e-06
-5.38234e-06
-5.86223e-06
-5.33828e-06
-7.66835e-06
-7.35921e-06
1.93222e-05
-1.08998e-05
-1.27278e-05
-3.46405e-05
-4.83459e-05
-3.77535e-05
-4.95418e-05
-4.47117e-05
-4.72855e-05
-4.4726e-05
-4.38652e-05
-4.16423e-05
-3.96377e-05
-3.73942e-05
-3.51775e-05
-3.2896e-05
-3.07537e-05
-2.86012e-05
-2.66461e-05
-2.47291e-05
-2.29452e-05
-2.13084e-05
-1.97531e-05
-1.83385e-05
-1.70314e-05
-1.58325e-05
-1.47635e-05
-1.37678e-05
-1.2883e-05
-1.20805e-05
-1.1356e-05
-1.07033e-05
-1.0138e-05
-9.61197e-06
-9.15098e-06
-8.74798e-06
-8.37023e-06
-8.04362e-06
-7.73585e-06
-7.48729e-06
-7.24069e-06
-7.03229e-06
-6.84795e-06
-6.67465e-06
-6.52346e-06
-6.37694e-06
-6.25302e-06
-6.13012e-06
-6.029e-06
-5.9223e-06
-5.85004e-06
-5.76937e-06
-5.70023e-06
-5.64222e-06
-5.59549e-06
-5.5494e-06
-5.51412e-06
-5.47371e-06
-5.4415e-06
-5.40892e-06
-5.39275e-06
-5.36441e-06
-5.3459e-06
-5.32149e-06
-5.3101e-06
-5.2889e-06
-5.27636e-06
-5.25723e-06
-5.2475e-06
-5.23156e-06
-5.22194e-06
-5.21163e-06
-5.2012e-06
-5.18895e-06
-5.18671e-06
-5.17996e-06
-5.17738e-06
-5.16905e-06
-5.1599e-06
-5.15303e-06
-5.14989e-06
-5.14669e-06
-5.14473e-06
-5.14473e-06
-5.14909e-06
-5.1533e-06
-5.16161e-06
-5.16882e-06
-5.17835e-06
-5.18856e-06
-5.21168e-06
-5.22228e-06
-5.2638e-06
-5.27387e-06
-5.3528e-06
-5.32194e-06
-5.50476e-06
-5.38301e-06
-5.86599e-06
-5.34097e-06
-7.63895e-06
-6.72024e-06
1.91683e-05
-1.08528e-05
-1.27434e-05
-3.42334e-05
-4.78961e-05
-3.76311e-05
-4.932e-05
-4.46216e-05
-4.71764e-05
-4.46758e-05
-4.38212e-05
-4.16239e-05
-3.9628e-05
-3.73944e-05
-3.5184e-05
-3.29067e-05
-3.07673e-05
-2.86164e-05
-2.66621e-05
-2.47452e-05
-2.29611e-05
-2.13233e-05
-1.97677e-05
-1.83524e-05
-1.70442e-05
-1.5845e-05
-1.47744e-05
-1.37779e-05
-1.28922e-05
-1.20892e-05
-1.13638e-05
-1.07105e-05
-1.01443e-05
-9.61766e-06
-9.15639e-06
-8.75224e-06
-8.37467e-06
-8.04767e-06
-7.73965e-06
-7.4904e-06
-7.24363e-06
-7.03493e-06
-6.85018e-06
-6.67691e-06
-6.52527e-06
-6.37907e-06
-6.25473e-06
-6.13224e-06
-6.0308e-06
-5.92423e-06
-5.85139e-06
-5.77098e-06
-5.70198e-06
-5.64413e-06
-5.59717e-06
-5.55134e-06
-5.51565e-06
-5.47559e-06
-5.44321e-06
-5.41088e-06
-5.39403e-06
-5.36609e-06
-5.34723e-06
-5.32313e-06
-5.31126e-06
-5.29039e-06
-5.27754e-06
-5.25866e-06
-5.24865e-06
-5.233e-06
-5.22317e-06
-5.21317e-06
-5.20263e-06
-5.19039e-06
-5.18776e-06
-5.18125e-06
-5.17847e-06
-5.17024e-06
-5.16101e-06
-5.15414e-06
-5.15094e-06
-5.14779e-06
-5.14582e-06
-5.14583e-06
-5.15004e-06
-5.1543e-06
-5.16254e-06
-5.16971e-06
-5.17938e-06
-5.18954e-06
-5.21274e-06
-5.22325e-06
-5.26481e-06
-5.2747e-06
-5.35396e-06
-5.32315e-06
-5.50647e-06
-5.38371e-06
-5.86983e-06
-5.34393e-06
-7.60806e-06
-5.99624e-06
1.89963e-05
-1.0762e-05
-1.27325e-05
-3.37676e-05
-4.73884e-05
-3.74913e-05
-4.90693e-05
-4.45205e-05
-4.70537e-05
-4.46191e-05
-4.37714e-05
-4.16025e-05
-3.96162e-05
-3.73936e-05
-3.519e-05
-3.29175e-05
-3.07813e-05
-2.86322e-05
-2.66787e-05
-2.4762e-05
-2.29778e-05
-2.1339e-05
-1.9783e-05
-1.83671e-05
-1.70578e-05
-1.5858e-05
-1.47859e-05
-1.37885e-05
-1.29019e-05
-1.20983e-05
-1.1372e-05
-1.07181e-05
-1.0151e-05
-9.62365e-06
-9.16203e-06
-8.75675e-06
-8.37928e-06
-8.05189e-06
-7.74362e-06
-7.49365e-06
-7.24669e-06
-7.03766e-06
-6.85249e-06
-6.67921e-06
-6.52716e-06
-6.38123e-06
-6.25649e-06
-6.13438e-06
-6.03264e-06
-5.92618e-06
-5.85279e-06
-5.77259e-06
-5.70376e-06
-5.64603e-06
-5.59887e-06
-5.55326e-06
-5.51722e-06
-5.47747e-06
-5.44494e-06
-5.41284e-06
-5.39535e-06
-5.36777e-06
-5.34859e-06
-5.32476e-06
-5.31243e-06
-5.29188e-06
-5.27875e-06
-5.2601e-06
-5.24981e-06
-5.23444e-06
-5.22441e-06
-5.2147e-06
-5.20408e-06
-5.19184e-06
-5.18881e-06
-5.18251e-06
-5.17956e-06
-5.17145e-06
-5.16214e-06
-5.15529e-06
-5.152e-06
-5.1489e-06
-5.14692e-06
-5.14694e-06
-5.151e-06
-5.15531e-06
-5.16348e-06
-5.17061e-06
-5.1804e-06
-5.19052e-06
-5.21379e-06
-5.22422e-06
-5.26583e-06
-5.27555e-06
-5.35515e-06
-5.32434e-06
-5.50823e-06
-5.38442e-06
-5.87373e-06
-5.34715e-06
-7.57561e-06
-5.17653e-06
1.88069e-05
-1.06188e-05
-1.26894e-05
-3.32346e-05
-4.68138e-05
-3.73304e-05
-4.87846e-05
-4.44059e-05
-4.69154e-05
-4.45549e-05
-4.37151e-05
-4.15778e-05
-3.9602e-05
-3.73919e-05
-3.51958e-05
-3.29285e-05
-3.07959e-05
-2.86488e-05
-2.66963e-05
-2.47799e-05
-2.29956e-05
-2.13558e-05
-1.97995e-05
-1.83827e-05
-1.70723e-05
-1.5872e-05
-1.47982e-05
-1.38e-05
-1.29123e-05
-1.21081e-05
-1.13807e-05
-1.07262e-05
-1.01581e-05
-9.63014e-06
-9.1681e-06
-8.76166e-06
-8.38426e-06
-8.05644e-06
-7.74794e-06
-7.49717e-06
-7.25004e-06
-7.04067e-06
-6.85508e-06
-6.68176e-06
-6.52929e-06
-6.38361e-06
-6.25847e-06
-6.13671e-06
-6.03464e-06
-5.92831e-06
-5.85433e-06
-5.77431e-06
-5.70571e-06
-5.64807e-06
-5.6007e-06
-5.55532e-06
-5.51891e-06
-5.47947e-06
-5.44679e-06
-5.41489e-06
-5.39675e-06
-5.36954e-06
-5.35002e-06
-5.32647e-06
-5.31368e-06
-5.29344e-06
-5.28001e-06
-5.26159e-06
-5.25104e-06
-5.23593e-06
-5.22571e-06
-5.21625e-06
-5.20553e-06
-5.1933e-06
-5.1899e-06
-5.1838e-06
-5.18063e-06
-5.17264e-06
-5.16329e-06
-5.15645e-06
-5.15308e-06
-5.15003e-06
-5.14804e-06
-5.14808e-06
-5.15198e-06
-5.15633e-06
-5.16443e-06
-5.17153e-06
-5.18146e-06
-5.19154e-06
-5.21486e-06
-5.22522e-06
-5.26689e-06
-5.27642e-06
-5.35638e-06
-5.32558e-06
-5.51005e-06
-5.38515e-06
-5.87766e-06
-5.35066e-06
-7.5416e-06
-4.25158e-06
1.86015e-05
-1.04129e-05
-1.26074e-05
-3.26247e-05
-4.6162e-05
-3.71429e-05
-4.84595e-05
-4.42747e-05
-4.67582e-05
-4.44813e-05
-4.36506e-05
-4.15487e-05
-3.95847e-05
-3.73886e-05
-3.52007e-05
-3.29393e-05
-3.08107e-05