/*--------------------------------*- C++ -*----------------------------------*\
| =========                 |                                                 |
| \\      /  F ield         | OpenFOAM: The Open Source CFD Toolbox           |
|  \\    /   O peration     | Version:  5.x                                   |
|   \\  /    A nd           | Web:      www.OpenFOAM.org                      |
|    \\/     M anipulation  |                                                 |
\*---------------------------------------------------------------------------*/
FoamFile
{
    version     2.0;
    format      ascii;
    class       surfaceScalarField;
    location    "3500";
    object      phi;
}
// * * * * * * * * * * * * * * * * * * * * * * * * * * * * * * * * * * * * * //

dimensions      [0 3 -1 0 0 0 0];

internalField   nonuniform List<scalar> 
215247
(
1.59171e-09
2.32226e-08
-1.86886e-09
1.58748e-09
3.93754e-12
1.90656e-09
-3.18045e-10
2.09803e-09
-1.92359e-10
1.79962e-09
2.99223e-10
1.30884e-09
4.89788e-10
1.16309e-09
1.45613e-10
9.97999e-10
1.6491e-10
8.24997e-10
1.72822e-10
6.90464e-10
1.34282e-10
5.65956e-10
1.24802e-10
4.68142e-10
9.70245e-11
3.78571e-10
8.95307e-11
3.09765e-10
6.8252e-11
2.47322e-10
6.24892e-11
1.96434e-10
5.01822e-11
1.53562e-10
4.25789e-11
1.15687e-10
3.75591e-11
8.59684e-11
2.94448e-11
6.00036e-11
2.56233e-11
3.80098e-11
2.16259e-11
2.06245e-11
1.7028e-11
5.66303e-12
1.46255e-11
-6.28864e-12
1.10658e-11
-1.57103e-11
9.61544e-12
-2.34024e-11
7.03912e-12
-2.90973e-11
5.9915e-12
-3.33898e-11
3.92884e-12
-3.64923e-11
2.67074e-12
-3.84483e-11
1.68964e-12
-3.95943e-11
8.86039e-13
-4.00199e-11
2.65099e-13
-3.98634e-11
-2.59676e-13
-3.92811e-11
-6.51952e-13
-3.83233e-11
-2.36394e-12
-3.71195e-11
1.77105e-13
-3.57194e-11
-2.16641e-12
-3.41897e-11
-1.53163e-12
-3.25864e-11
-1.55351e-12
-3.0904e-11
-1.63167e-12
-2.92589e-11
-1.68338e-12
-2.75925e-11
-1.88484e-12
-2.59772e-11
-1.71e-12
-2.44244e-11
-3.05401e-12
-2.29182e-11
-7.12109e-13
-2.15204e-11
-2.92187e-12
-2.01666e-11
-6.19298e-13
-1.89079e-11
-2.13502e-12
-1.76928e-11
-9.44056e-14
-1.65486e-11
-9.58936e-13
-1.54506e-11
-4.67196e-13
-1.44241e-11
-1.54748e-12
-1.3604e-11
8.49856e-14
-1.28556e-11
-9.63709e-13
-1.21797e-11
9.91046e-13
-1.15501e-11
-3.5488e-13
-1.0976e-11
1.35617e-12
-1.04912e-11
-3.13319e-14
-1.00379e-11
1.44262e-12
-9.64305e-12
3.69807e-13
-9.282e-12
2.00261e-12
-8.97991e-12
3.21784e-13
-8.70702e-12
1.58125e-12
-8.48056e-12
6.25815e-13
-8.28372e-12
1.84198e-12
-8.12935e-12
6.6298e-13
-7.99643e-12
1.6494e-12
-7.90129e-12
8.82728e-13
-7.8246e-12
1.85217e-12
-7.77621e-12
8.54249e-13
-7.74175e-12
1.9049e-12
-7.73297e-12
7.72879e-13
-7.73169e-12
2.58925e-12
-7.74441e-12
1.71521e-12
-7.76999e-12
2.51712e-12
-7.7962e-12
1.11458e-12
-7.82117e-12
2.1798e-12
-7.84976e-12
1.79683e-12
-7.8723e-12
2.0566e-12
-7.87539e-12
2.02389e-12
-7.86852e-12
1.22963e-12
-7.83284e-12
1.58832e-12
-7.77471e-12
1.53043e-12
-7.67064e-12
1.76773e-12
-7.5295e-12
1.22597e-12
-7.32549e-12
1.3159e-12
-7.06361e-12
1.1605e-12
-6.7107e-12
1.50457e-12
-6.27889e-12
6.88891e-13
-5.70879e-12
1.25915e-12
-5.02077e-12
4.39018e-13
-4.11404e-12
1.42294e-12
-3.06516e-12
1.76955e-13
-1.59486e-12
-3.17337e-13
2.29748e-14
-6.30766e-13
2.50858e-12
-1.49513e-12
5.26522e-12
-1.06634e-13
1.04514e-11
-4.4331e-12
1.60716e-11
-4.92982e-12
3.52527e-11
-1.85113e-11
5.82551e-11
-2.24442e-11
-2.24461e-08
2.25056e-08
5.26604e-09
2.40479e-08
-6.0933e-09
5.21603e-09
5.25112e-11
6.27396e-09
-1.37464e-09
6.87742e-09
-7.97e-10
5.92307e-09
1.2541e-09
4.34571e-09
2.06565e-09
3.83979e-09
6.51021e-10
3.30863e-09
6.95461e-10
2.73309e-09
7.47807e-10
2.292e-09
5.7467e-10
1.8793e-09
5.37469e-10
1.55621e-09
4.18651e-10
1.25944e-09
3.85768e-10
1.03137e-09
2.95118e-10
8.24294e-10
2.69198e-10
6.55423e-10
2.17549e-10
5.12984e-10
1.8419e-10
3.87201e-10
1.62461e-10
2.88358e-10
1.27554e-10
2.02003e-10
1.11041e-10
1.28821e-10
9.38908e-11
7.08897e-11
7.40496e-11
2.10659e-11
6.36818e-11
-1.87929e-11
4.95475e-11
-5.02572e-11
4.03835e-11
-7.5942e-11
3.15728e-11
-9.50252e-11
2.44959e-11
-1.09405e-10
1.73617e-11
-1.19845e-10
1.20857e-11
-1.26448e-10
7.53383e-12
-1.30375e-10
3.94356e-12
-1.31884e-10
1.08271e-12
-1.3147e-10
-1.28089e-12
-1.29608e-10
-2.86735e-12
-1.26505e-10
-7.25282e-12
-1.22587e-10
-2.96829e-12
-1.17981e-10
-7.86453e-12
-1.12971e-10
-7.5636e-12
-1.07689e-10
-7.22062e-12
-1.0216e-10
-7.58804e-12
-9.67266e-11
-7.69949e-12
-9.12368e-11
-8.2733e-12
-8.59075e-11
-7.82031e-12
-8.07759e-11
-1.04165e-11
-7.58084e-11
-6.04204e-12
-7.11809e-11
-9.62439e-12
-6.67178e-11
-5.64891e-12
-6.2546e-11
-7.46842e-12
-5.85412e-11
-4.27194e-12
-5.47496e-11
-5.02089e-12
-5.11313e-11
-3.92166e-12
-4.77218e-11
-5.33538e-12
-4.50181e-11
-2.80832e-12
-4.25369e-11
-3.67797e-12
-4.03093e-11
-3.55762e-15
-3.82202e-11
-1.98881e-12
-3.63315e-11
1.16898e-12
-3.47158e-11
-5.94308e-13
-3.32239e-11
1.88374e-12
-3.19117e-11
3.9158e-13
-3.0728e-11
3.47061e-12
-2.97171e-11
5.85888e-13
-2.8823e-11
2.8878e-12
-2.80656e-11
1.55815e-12
-2.74209e-11
3.94435e-12
-2.69036e-11
1.66446e-12
-2.64702e-11
3.63104e-12
-2.61496e-11
2.3891e-12
-2.58976e-11
4.50879e-12
-2.57358e-11
2.2381e-12
-2.56286e-11
4.43495e-12
-2.55924e-11
2.68469e-12
-2.55947e-11
6.01284e-12
-2.56333e-11
4.76968e-12
-2.57135e-11
6.962e-12
-2.5805e-11
2.94076e-12
-2.5893e-11
5.2831e-12
-2.59823e-11
4.77864e-12
-2.60498e-11
6.07372e-12
-2.60687e-11
4.97499e-12
-2.60415e-11
4.39486e-12
-2.59294e-11
4.02628e-12
-2.57309e-11
4.80313e-12
-2.53948e-11
4.11441e-12
-2.49237e-11
4.05562e-12
-2.42549e-11
3.03309e-12
-2.33838e-11
3.59692e-12
-2.22237e-11
2.98589e-12
-2.07848e-11
2.36716e-12
-1.89117e-11
1.74577e-12
-1.66305e-11
1.02672e-12
-1.36389e-11
1.18551e-12
-1.01704e-11
-3.17177e-13
-5.31013e-12
-3.15076e-12
2.98635e-14
-3.85306e-12
8.27595e-12
-8.01752e-12
1.73191e-11
-6.25821e-12
3.45355e-11
-1.93574e-11
5.2913e-11
-2.16629e-11
1.16253e-10
-8.01635e-11
1.68121e-10
-7.33009e-11
-4.63276e-08
2.40512e-08
9.76582e-09
2.54872e-08
-1.12034e-08
9.64447e-09
1.73893e-10
1.15913e-08
-3.32044e-09
1.26818e-08
-1.88841e-09
1.09582e-08
2.97865e-09
8.0887e-09
4.93421e-09
7.1261e-09
1.6136e-09
6.1523e-09
1.6692e-09
5.0843e-09
1.81573e-09
4.26801e-09
1.39081e-09
3.50173e-09
1.3041e-09
2.90167e-09
1.01802e-09
2.35005e-09
9.3744e-10
1.92565e-09
7.19036e-10
1.54029e-09
6.54634e-10
1.2258e-09
5.31422e-10
9.60364e-10
4.49446e-10
7.25971e-10
3.96671e-10
5.4161e-10
3.11733e-10
3.80525e-10
2.71921e-10
2.43962e-10
2.30174e-10
1.35754e-10
1.82014e-10
4.27053e-11
1.56402e-10
-3.18057e-11
1.23139e-10
-9.06806e-11
9.96554e-11
-1.38755e-10
7.89987e-11
-1.7455e-10
6.0865e-11
-2.01537e-10
4.40602e-11
-2.21193e-10
3.13759e-11
-2.33664e-10
1.98088e-11
-2.41157e-10
1.13117e-11
-2.44119e-10
4.01414e-12
-2.43499e-10
-1.84029e-12
-2.40149e-10
-6.21213e-12
-2.34489e-10
-1.43323e-11
-2.27305e-10
-8.47763e-12
-2.18805e-10
-1.72354e-11
-2.09568e-10
-1.65679e-11
-1.998e-10
-1.67514e-11
-1.8958e-10
-1.7531e-11
-1.79514e-10
-1.76303e-11
-1.6935e-10
-1.84806e-11
-1.59474e-10
-1.75601e-11
-1.49958e-10
-2.13954e-11
-1.40751e-10
-1.41818e-11
-1.32161e-10
-1.98521e-11
-1.23889e-10
-1.27629e-11
-1.16139e-10
-1.61438e-11
-1.08717e-10
-9.97317e-12
-1.01673e-10
-1.1614e-11
-9.49671e-11
-9.53383e-12
-8.86256e-11
-1.22611e-11
-8.36131e-11
-6.44591e-12
-7.9003e-11
-8.36728e-12
-7.48736e-11
-1.95054e-12
-7.09901e-11
-5.36967e-12
-6.74911e-11
1.57165e-13
-6.44812e-11
-3.03841e-12
-6.17169e-11
1.54132e-12
-5.9276e-11
-1.01257e-12
-5.70863e-11
4.22742e-12
-5.51996e-11
-5.58349e-13
-5.35456e-11
3.55063e-12
-5.2133e-11
1.14447e-12
-5.0941e-11
5.21647e-12
-4.99747e-11
1.66493e-12
-4.91744e-11
4.98999e-12
-4.85748e-11
2.93709e-12
-4.81083e-11
6.29559e-12
-4.7806e-11
3.07154e-12
-4.76118e-11
6.5602e-12
-4.75385e-11
3.56207e-12
-4.7548e-11
9.06347e-12
-4.76182e-11
6.88691e-12
-4.77645e-11
9.78702e-12
-4.79367e-11
4.57098e-12
-4.81035e-11
7.94836e-12
-4.8266e-11
7.02994e-12
-4.83865e-11
8.34657e-12
-4.84282e-11
7.36297e-12
-4.83742e-11
5.55613e-12
-4.81706e-11
5.74171e-12
-4.77974e-11
6.031e-12
-4.71801e-11
5.72119e-12
-4.63022e-11
4.52767e-12
-4.50652e-11
3.59397e-12
-4.34448e-11
3.35547e-12
-4.1297e-11
3.02588e-12
-3.86178e-11
6.79239e-13
-3.51507e-11
5.49726e-13
-3.09121e-11
-2.14069e-12
-2.53657e-11
-1.48011e-12
-1.89283e-11
-5.52372e-12
-9.91074e-12
-1.08457e-11
-7.60884e-15
-1.27827e-11
1.53117e-11
-2.21584e-11
3.20356e-11
-1.9585e-11
6.4016e-11
-5.06612e-11
9.79281e-11
-5.49529e-11
2.15138e-10
-1.9683e-10
3.0376e-10
-1.61274e-10
-7.17134e-08
2.56911e-08
1.52136e-08
2.76122e-08
-1.73423e-08
1.50176e-08
3.68086e-10
1.80108e-08
-6.31243e-09
1.96818e-08
-3.56052e-09
1.70627e-08
5.59805e-09
1.26629e-08
9.33242e-09
1.11361e-08
3.13981e-09
9.62429e-09
3.18019e-09
7.9621e-09
3.47723e-09
6.68808e-09
2.66395e-09
5.49214e-09
2.49978e-09
4.55359e-09
1.95497e-09
3.69095e-09
1.79933e-09
3.02621e-09
1.3824e-09
2.42268e-09
1.25752e-09
1.92972e-09
1.02266e-09
1.51344e-09
8.64679e-10
1.14578e-09
7.63227e-10
8.56376e-10
6.00214e-10
6.03457e-10
5.23664e-10
3.88958e-10
4.43526e-10
2.18851e-10
3.50985e-10
7.25638e-11
3.01718e-10
-4.46784e-11
2.38871e-10
-1.37401e-10
1.91298e-10
-2.13155e-10
1.53428e-10
-2.69655e-10
1.16437e-10
-3.12305e-10
8.55037e-11
-3.43451e-10
6.12462e-11
-3.63292e-10
3.86729e-11
-3.75318e-10
2.22177e-11
-3.80213e-10
7.99645e-12
-3.79477e-10
-3.37916e-12
-3.74427e-10
-1.17418e-11
-3.65743e-10
-2.47476e-11
-3.54658e-10
-1.92087e-11
-3.41477e-10
-3.16623e-11
-3.27141e-10
-3.23025e-11
-3.11949e-10
-3.25016e-11
-2.96048e-10
-3.4031e-11
-2.80363e-10
-3.41427e-11
-2.64523e-10
-3.55028e-11
-2.49125e-10
-3.40254e-11
-2.34277e-10
-3.8567e-11
-2.19915e-10
-2.95431e-11
-2.065e-10
-3.54698e-11
-1.93593e-10
-2.67858e-11
-1.81486e-10
-2.94987e-11
-1.69902e-10
-2.22153e-11
-1.58897e-10
-2.30577e-11
-1.48429e-10
-1.9978e-11
-1.38514e-10
-2.24858e-11
-1.30688e-10
-1.48534e-11
-1.23484e-10
-1.56807e-11
-1.17036e-10
-7.37256e-12
-1.10966e-10
-1.07869e-11
-1.05503e-10
-3.72068e-12
-1.00793e-10
-6.38918e-12
-9.64771e-11
-8.07793e-13
-9.26597e-11
-3.13053e-12
-8.92437e-11
3.5696e-12
-8.62884e-11
-1.91562e-12
-8.37073e-11
3.33414e-12
-8.14958e-11
1.04175e-12
-7.96363e-11
6.40442e-12
-7.8122e-11
2.02175e-12
-7.68736e-11
6.42642e-12
-7.59339e-11
4.25867e-12
-7.52057e-11
8.86979e-12
-7.47312e-11
4.5113e-12
-7.443e-11
9.17006e-12
-7.4311e-11
6.02182e-12
-7.43286e-11
1.27951e-11
-7.44384e-11
1.06967e-11
-7.46662e-11
1.50604e-11
-7.49354e-11
6.99709e-12
-7.51969e-11
1.15359e-11
-7.54493e-11
1.07553e-11
-7.56347e-11
1.32031e-11
-7.57042e-11
1.07986e-11
-7.56169e-11
9.4536e-12
-7.53019e-11
8.46517e-12
-7.47156e-11
9.63264e-12
-7.37558e-11
7.86768e-12
-7.23819e-11
7.20836e-12
-7.04527e-11
4.51337e-12
-6.79188e-11
4.83723e-12
-6.45681e-11
2.71217e-12
-6.03774e-11
3.60795e-13
-5.49688e-11
-2.16829e-12
-4.83448e-11
-5.22377e-12
-3.96877e-11
-7.13721e-12
-2.96338e-11
-1.1926e-11
-1.55561e-11
-2.24362e-11
-9.50445e-14
-2.55839e-11
2.38284e-11
-4.39267e-11
4.99021e-11
-4.25674e-11
9.9818e-11
-9.76749e-11
1.52589e-10
-1.05631e-10
3.34799e-10
-3.76892e-10
4.68017e-10
-2.93225e-10
-9.8672e-08
2.74283e-08
2.17655e-08
3.05251e-08
-2.46758e-08
2.14951e-08
6.39142e-10
2.57104e-08
-1.05271e-08
2.80684e-08
-5.91909e-09
2.44163e-08
9.25101e-09
1.82184e-08
1.55298e-08
1.59993e-08
5.35897e-09
1.38377e-08
5.34177e-09
1.14633e-08
5.85164e-09
9.63435e-09
4.49285e-09
7.91959e-09
4.21488e-09
6.56991e-09
3.30437e-09
5.33001e-09
3.03944e-09
4.37282e-09
2.33943e-09
3.50391e-09
2.12654e-09
2.79351e-09
1.73282e-09
2.19333e-09
1.46477e-09
1.66309e-09
1.29339e-09
1.24542e-09
1.01778e-09
8.80303e-10
8.88693e-10
5.7052e-10
7.53108e-10
3.24644e-10
5.96719e-10
1.1316e-10
5.13013e-10
-5.6477e-11
4.07939e-10
-1.90758e-10
3.26103e-10
-3.0054e-10
2.62832e-10
-3.82551e-10
1.99246e-10
-4.44548e-10
1.47268e-10
-4.89945e-10
1.06355e-10
-5.18989e-10
6.75678e-11
-5.36743e-10
3.99556e-11
-5.44188e-10
1.54968e-11
-5.43479e-10
-3.90698e-12
-5.36516e-10
-1.85722e-11
-5.24291e-10
-3.78174e-11
-5.08579e-10
-3.34168e-11
-4.8981e-10
-5.11107e-11
-4.69363e-10
-5.22722e-11
-4.47656e-10
-5.38569e-11
-4.24919e-10
-5.63271e-11
-4.02462e-10
-5.63795e-11
-3.79777e-10
-5.81015e-11
-3.57711e-10
-5.5818e-11
-3.36421e-10
-6.06485e-11
-3.15827e-10
-4.9061e-11
-2.96578e-10
-5.58548e-11
-2.78063e-10
-4.39168e-11
-2.60684e-10
-4.74179e-11
-2.44061e-10
-3.67961e-11
-2.28262e-10
-3.82394e-11
-2.13238e-10
-3.36277e-11
-1.98995e-10
-3.70106e-11
-1.87761e-10
-2.45469e-11
-1.77414e-10
-2.5751e-11
-1.68158e-10
-1.44176e-11
-1.59438e-10
-1.8666e-11
-1.51597e-10
-9.03177e-12
-1.44825e-10
-1.24635e-11
-1.38628e-10
-4.57822e-12
-1.33142e-10
-7.35777e-12
-1.2824e-10
1.55883e-12
-1.23989e-10
-5.38188e-12
-1.20284e-10
1.90155e-12
-1.17104e-10
-1.15482e-12
-1.14435e-10
6.0591e-12
-1.12255e-10
7.99014e-13
-1.10463e-10
6.67791e-12
-1.0911e-10
3.99466e-12
-1.08065e-10
9.86331e-12
-1.07381e-10
5.04648e-12
-1.06949e-10
1.0906e-11
-1.06774e-10
6.90261e-12
-1.068e-10
1.54995e-11
-1.06958e-10
1.27477e-11
-1.07285e-10
1.75705e-11
-1.0767e-10
8.98168e-12
-1.08045e-10
1.41749e-11
-1.08406e-10
1.30205e-11
-1.0867e-10
1.5157e-11
-1.08773e-10
1.29094e-11
-1.08644e-10
1.02365e-11
-1.08194e-10
9.73312e-12
-1.07348e-10
9.94986e-12
-1.05973e-10
8.47301e-12
-1.03998e-10
6.2384e-12
-1.0123e-10
3.3514e-12
-9.75883e-11
2.12795e-12
-9.27806e-11
-2.05442e-13
-8.67587e-11
-5.11313e-12
-7.89988e-11
-7.7492e-12
-6.94856e-11
-1.39924e-11
-5.70634e-11
-1.6846e-11
-4.26303e-11
-2.53957e-11
-2.24307e-11
-4.11909e-11
-2.40852e-13
-4.67997e-11
3.40845e-11
-7.70888e-11
7.14704e-11
-7.6556e-11
1.43038e-10
-1.68728e-10
2.18562e-10
-1.80563e-10
4.7869e-10
-6.36561e-10
6.65667e-10
-4.79591e-10
-1.27271e-07
2.92662e-08
2.96013e-08
3.4307e-08
-3.33877e-08
2.92603e-08
9.77778e-10
3.48923e-08
-1.61581e-08
3.80587e-08
-9.08649e-09
3.32257e-08
1.4084e-08
2.49299e-08
2.3824e-08
2.18669e-08
8.42118e-09
1.89247e-08
8.28301e-09
1.57015e-08
9.07398e-09
1.32034e-08
6.98985e-09
1.08655e-08
6.55226e-09
9.01902e-09
5.14914e-09
7.32388e-09
4.73358e-09
6.01261e-09
3.64915e-09
4.82251e-09
3.31568e-09
3.84849e-09
2.70488e-09
3.02522e-09
2.28674e-09
2.29764e-09
2.01959e-09
1.72409e-09
1.59019e-09
1.22255e-09
1.38876e-09
7.96838e-10
1.1774e-09
4.58654e-10
9.33496e-10
1.67707e-10
8.02741e-10
-6.58721e-11
6.39864e-10
-2.50944e-10
5.09681e-10
-4.02363e-10
4.12733e-10
-5.15661e-10
3.11234e-10
-6.0145e-10
2.3154e-10
-6.64441e-10
1.6778e-10
-7.04926e-10
1.06816e-10
-7.29889e-10
6.35096e-11
-7.40666e-10
2.51017e-11
-7.40207e-10
-5.39198e-12
-7.3112e-10
-2.83013e-11
-7.14784e-10
-5.58023e-11
-6.93623e-10
-5.47061e-11
-6.68224e-10
-7.79543e-11
-6.40498e-10
-8.17936e-11
-6.1101e-10
-8.41046e-11
-5.80092e-10
-8.80378e-11
-5.49521e-10
-8.80763e-11
-5.18622e-10
-9.05124e-11
-4.88549e-10
-8.7303e-11
-4.59518e-10
-9.20862e-11
-4.31431e-10
-7.88684e-11
-4.05163e-10
-8.4468e-11
-3.799e-10
-7.08728e-11
-3.56173e-10
-7.25069e-11
-3.33484e-10
-6.06338e-11
-3.1191e-10
-6.04417e-11
-2.914e-10
-5.42712e-11
-2.7194e-10
-5.67127e-11
-2.56603e-10
-4.08433e-11
-2.42468e-10
-3.98223e-11
-2.29826e-10
-2.6228e-11
-2.17913e-10
-2.96727e-11
-2.07204e-10
-1.82544e-11
-1.97945e-10
-2.00032e-11
-1.89481e-10
-1.09919e-11
-1.81983e-10
-1.27019e-11
-1.75288e-10
-2.21767e-12
-1.69474e-10
-9.20862e-12
-1.64412e-10
-5.69995e-13
-1.60063e-10
-2.88495e-12
-1.56418e-10
5.83726e-12
-1.53436e-10
1.20067e-13
-1.50988e-10
7.25333e-12
-1.49136e-10
4.94083e-12
-1.47707e-10
1.2209e-11
-1.46769e-10
6.48308e-12
-1.4618e-10
1.35701e-11
-1.45935e-10
9.98642e-12
-1.45971e-10
1.9628e-11
-1.46186e-10
1.7492e-11
-1.4663e-10
2.38351e-11
-1.47154e-10
1.21954e-11
-1.47665e-10
1.84005e-11
-1.48157e-10
1.77019e-11
-1.48514e-10
2.0999e-11
-1.48655e-10
1.69739e-11
-1.48475e-10
1.49339e-11
-1.4786e-10
1.27745e-11
-1.46701e-10
1.37866e-11
-1.44824e-10
1.02494e-11
-1.42122e-10
8.43131e-12
-1.38342e-10
3.00485e-12
-1.33365e-10
1.95715e-12
-1.26801e-10
-3.22952e-12
-1.18571e-10
-8.64616e-12
-1.07978e-10
-1.52077e-11
-9.49829e-11
-2.26962e-11
-7.80268e-11
-3.04688e-11
-5.83176e-11
-4.07209e-11
-3.075e-11
-6.56947e-11
-4.56126e-13
-7.37636e-11
4.63783e-11
-1.21216e-10
9.73784e-11
-1.24179e-10
1.94945e-10
-2.62729e-10
2.97771e-10
-2.80749e-10
6.50761e-10
-9.86843e-10
9.02326e-10
-7.29564e-10
-1.57575e-07
3.12085e-08
3.89261e-08
3.90661e-08
-4.36825e-08
3.85234e-08
1.38152e-09
4.57865e-08
-2.34208e-08
4.98987e-08
-1.31989e-08
4.37277e-08
2.02556e-08
3.30012e-08
3.45504e-08
2.89151e-08
1.25076e-08
2.50393e-08
1.2159e-08
2.08097e-08
1.33038e-08
1.75085e-08
1.02912e-08
1.44257e-08
9.63542e-09
1.19816e-08
7.59321e-09
9.73956e-09
6.97595e-09
8.00147e-09
5.38729e-09
6.42428e-09
4.89293e-09
5.13202e-09
3.99712e-09
4.03921e-09
3.37969e-09
3.07307e-09
2.98594e-09
2.31085e-09
2.35249e-09
1.64412e-09
2.0557e-09
1.07792e-09
1.7436e-09
6.27725e-10
1.38382e-09
2.40306e-10
1.19002e-09
-7.1005e-11
9.50852e-10
-3.1791e-10
7.57153e-10
-5.20086e-10
6.14716e-10
-6.71613e-10
4.63673e-10
-7.86552e-10
3.4642e-10
-8.71187e-10
2.52304e-10
-9.25842e-10
1.61464e-10
-9.59838e-10
9.77026e-11
-9.74948e-10
4.04547e-11
-9.75062e-10
-4.88973e-12
-9.63665e-10
-3.95122e-11
-9.42589e-10
-7.72557e-11
-9.15053e-10
-8.09372e-11
-8.81836e-10
-1.11764e-10
-8.45487e-10
-1.1753e-10
-8.06753e-10
-1.22259e-10
-7.66093e-10
-1.27993e-10
-7.25844e-10
-1.27917e-10
-6.85138e-10
-1.309e-10
-6.45495e-10
-1.2637e-10
-6.07205e-10
-1.30672e-10
-5.70151e-10
-1.14942e-10
-5.35478e-10
-1.19926e-10
-5.02131e-10
-1.02708e-10
-4.70797e-10
-1.04111e-10
-4.40836e-10
-8.83211e-11
-4.12338e-10
-8.80051e-11
-3.85247e-10
-7.95678e-11
-3.59532e-10
-8.24546e-11
-3.39272e-10
-5.94518e-11
-3.20593e-10
-5.78403e-11
-3.0389e-10
-4.06444e-11
-2.88144e-10
-4.42144e-11
-2.73995e-10
-2.97741e-11
-2.6175e-10
-3.13397e-11
-2.50563e-10
-1.96442e-11
-2.40648e-10
-2.10243e-11
-2.31802e-10
-8.08305e-12
-2.24111e-10
-1.59482e-11
-2.1742e-10
-4.89248e-12
-2.11667e-10
-7.49707e-12
-2.06848e-10
3.39214e-12
-2.02901e-10
-2.72381e-12
-1.99663e-10
6.11511e-12
-1.97212e-10
3.71314e-12
-1.95322e-10
1.23596e-11
-1.94077e-10
6.69147e-12
-1.93297e-10
1.49891e-11
-1.92967e-10
1.10061e-11
-1.93013e-10
2.22446e-11
-1.93295e-10
1.97894e-11
-1.93879e-10
2.64442e-11
-1.94568e-10
1.47855e-11
-1.9524e-10
2.13161e-11
-1.95886e-10
2.03242e-11
-1.96353e-10
2.30073e-11
-1.96539e-10
1.91151e-11
-1.96296e-10
1.55787e-11
-1.95481e-10
1.37386e-11
-1.93944e-10
1.32719e-11
-1.91463e-10
9.76489e-12
-1.87888e-10
5.79151e-12
-1.82891e-10
-3.29827e-13
-1.76309e-10
-3.8534e-12
-1.67637e-10
-1.00638e-11
-1.56757e-10
-1.91579e-11
-1.42765e-10
-2.69006e-11
-1.25591e-10
-3.92025e-11
-1.032e-10
-5.0119e-11
-7.71621e-11
-6.58559e-11
-4.07659e-11
-1.00678e-10
-7.55472e-13
-1.12993e-10
6.1053e-11
-1.81693e-10
1.28364e-10
-1.87939e-10
2.57002e-10
-3.90839e-10
3.92435e-10
-4.1582e-10
8.55531e-10
-1.44977e-09
1.18436e-09
-1.05771e-09
-1.89647e-07
3.32585e-08
4.99733e-08
4.48779e-08
-5.57899e-08
4.95248e-08
1.82714e-09
5.86528e-08
-3.2548e-08
6.3866e-08
-1.84131e-08
5.61931e-08
2.79281e-08
4.26687e-08
4.80731e-08
3.73488e-08
1.78265e-08
3.23612e-08
1.71454e-08
2.69438e-08
1.87201e-08
2.26828e-08
1.45509e-08
1.87131e-08
1.36044e-08
1.5553e-08
1.07515e-08
1.26564e-08
9.87129e-09
1.04057e-08
7.63623e-09
8.36365e-09
6.93358e-09
6.68858e-09
5.66994e-09
5.27128e-09
4.79541e-09
4.01774e-09
4.23783e-09
3.02798e-09
3.34088e-09
2.16189e-09
2.92004e-09
1.426e-09
2.47777e-09
8.40338e-10
1.96779e-09
3.36181e-10
1.69263e-09
-6.93205e-11
1.35447e-09
-3.91266e-10
1.07718e-09
-6.55122e-10
8.76797e-10
-8.53217e-10
6.60038e-10
-1.00376e-09
4.95121e-10
-1.11494e-09
3.61626e-10
-1.1871e-09
2.32114e-10
-1.23238e-09
1.41289e-10
-1.2531e-09
5.97331e-11
-1.25425e-09
-4.98658e-12
-1.24039e-09
-5.42301e-11
-1.2139e-09
-1.05395e-10
-1.17895e-09
-1.16482e-10
-1.13656e-09
-1.55892e-10
-1.09005e-09
-1.66271e-10
-1.04038e-09
-1.72889e-10
-9.88167e-10
-1.81168e-10
-9.36426e-10
-1.81102e-10
-8.84058e-10
-1.85113e-10
-8.33025e-10
-1.79172e-10
-7.83707e-10
-1.82601e-10
-7.35964e-10
-1.6516e-10
-6.91266e-10
-1.67236e-10
-6.48274e-10
-1.47966e-10
-6.07859e-10
-1.46111e-10
-5.69216e-10
-1.28575e-10
-5.3245e-10
-1.25574e-10
-4.975e-10
-1.14781e-10
-4.6431e-10
-1.15894e-10
-4.38171e-10
-8.68646e-11
-4.14062e-10
-8.17047e-11
-3.925e-10
-6.14606e-11
-3.72176e-10
-6.33598e-11
-3.53913e-10
-4.65473e-11
-3.38095e-10
-4.50409e-11
-3.23653e-10
-3.18146e-11
-3.10847e-10
-3.11349e-11
-2.99427e-10
-1.62654e-11
-2.89489e-10
-2.34303e-11
-2.8085e-10
-1.05652e-11
-2.73417e-10
-1.16811e-11
-2.67193e-10
1.14448e-12
-2.6209e-10
-4.9813e-12
-2.57908e-10
5.45544e-12
-2.54737e-10
4.02084e-12
-2.52293e-10
1.43405e-11
-2.5068e-10
8.02758e-12
-2.49669e-10
1.77402e-11
-2.49235e-10
1.47706e-11
-2.49291e-10
2.70115e-11
-2.49653e-10
2.57467e-11
-2.50401e-10
3.39974e-11
-2.51284e-10
1.90475e-11
-2.52147e-10
2.64589e-11
-2.52976e-10
2.62771e-11
-2.53572e-10
3.01084e-11
-2.53808e-10
2.40756e-11
-2.53486e-10
2.11852e-11
-2.52431e-10
1.71768e-11
-2.50438e-10
1.72664e-11
-2.47233e-10
1.09892e-11
-2.4261e-10
7.05394e-12
-2.36158e-10
-2.55456e-12
-2.27654e-10
-6.59356e-12
-2.16461e-10
-1.69982e-11
-2.0241e-10
-2.75539e-11
-1.84357e-10
-4.11735e-11
-1.62188e-10
-5.61945e-11
-1.33305e-10
-7.51372e-11
-9.97061e-11
-9.42432e-11
-5.27735e-11
-1.43883e-10
-1.15808e-12
-1.60534e-10
7.85035e-11
-2.57956e-10
1.65278e-10
-2.70855e-10
3.30895e-10
-5.52171e-10
5.05111e-10
-5.86792e-10
1.09816e-09
-2.0395e-09
1.519e-09
-1.47656e-09
-2.23546e-07
3.54194e-08
6.30077e-08
5.18401e-08
-6.9967e-08
6.25385e-08
2.29803e-09
7.37846e-08
-4.3794e-08
8.02735e-08
-2.4902e-08
7.09303e-08
3.7272e-08
5.42066e-08
6.4797e-08
4.74063e-08
2.46272e-08
4.10996e-08
2.34525e-08
3.42862e-08
2.55338e-08
2.88825e-08
1.99549e-08
2.38606e-08
1.86267e-08
1.98455e-08
1.4767e-08
1.61681e-08
1.35492e-08
1.33038e-08
1.0501e-08
1.07054e-08
9.53214e-09
8.57123e-09
7.80441e-09
6.76448e-09
6.60244e-09
5.16573e-09
5.83699e-09
3.90231e-09
4.6045e-09
2.79631e-09
4.02646e-09
1.85606e-09
3.41812e-09
1.10701e-09
2.71715e-09
4.61975e-10
2.33769e-09
-5.73566e-11
1.87391e-09
-4.70131e-10
1.49072e-09
-8.08749e-10
1.21559e-09
-1.06343e-09
9.15911e-10
-1.25737e-09
6.89094e-10
-1.40103e-09
5.05314e-10
-1.49476e-09
3.25911e-10
-1.55411e-09
2.01006e-10
-1.58205e-09
8.80309e-11
-1.58487e-09
-1.59866e-12
-1.56846e-09
-7.03262e-11
-1.53584e-09
-1.37885e-10
-1.49232e-09
-1.58768e-10
-1.43923e-09
-2.09356e-10
-1.38078e-09
-2.23846e-10
-1.31824e-09
-2.34686e-10
-1.25239e-09
-2.46068e-10
-1.18706e-09
-2.45923e-10
-1.12088e-09
-2.50799e-10
-1.05633e-09
-2.42926e-10
-9.93929e-10
-2.44646e-10
-9.3349e-10
-2.24495e-10
-8.76878e-10
-2.24103e-10
-8.22418e-10
-2.0058e-10
-7.71203e-10
-1.97151e-10
-7.22229e-10
-1.74862e-10
-6.75622e-10
-1.7098e-10
-6.31315e-10
-1.56907e-10
-5.89227e-10
-1.57642e-10
-5.56087e-10
-1.18166e-10
-5.25511e-10
-1.113e-10
-4.98162e-10
-8.63803e-11
-4.72385e-10
-8.75742e-11
-4.4922e-10
-6.69036e-11
-4.29143e-10
-6.40338e-11
-4.10819e-10
-4.74897e-11
-3.94568e-10
-4.55283e-11
-3.80079e-10
-2.76764e-11
-3.67464e-10
-3.50338e-11
-3.56499e-10
-1.90923e-11
-3.47062e-10
-1.99753e-11
-3.39163e-10
-4.40064e-12
-3.32681e-10
-1.03659e-11
-3.27369e-10
2.23586e-12
-3.23338e-10
1.14936e-12
-3.20233e-10
1.31788e-11
-3.18178e-10
7.52169e-12
-3.16891e-10
1.86271e-11
-3.16331e-10
1.56843e-11
-3.16395e-10
2.94023e-11
-3.16849e-10
2.80693e-11
-3.17788e-10
3.65567e-11
-3.189e-10
2.22728e-11
-3.19987e-10
2.96467e-11
-3.21031e-10
2.90747e-11
-3.21777e-10
3.20434e-11
-3.22069e-10
2.59616e-11
-3.21649e-10
2.14519e-11
-3.20304e-10
1.73829e-11
-3.17764e-10
1.54148e-11
-3.13693e-10
8.65188e-12
-3.07818e-10
1.88834e-12
-2.99629e-10
-9.28093e-12
-2.88833e-10
-1.69631e-11
-2.74635e-10
-2.9742e-11
-2.56805e-10
-4.54112e-11
-2.33913e-10
-6.1834e-11
-2.05794e-10
-8.3867e-11
-1.69185e-10
-1.09227e-10
-1.26582e-10
-1.36158e-10
-6.71174e-11
-2.01773e-10
-1.68942e-12
-2.25174e-10
9.91822e-11
-3.57521e-10
2.09101e-10
-3.77149e-10
4.18566e-10
-7.61243e-10
6.38738e-10
-8.06658e-10
1.3845e-09
-2.78523e-09
1.91451e-09
-2.0059e-09
-2.59323e-07
3.76939e-08
7.83286e-08
6.00072e-08
-8.65e-08
7.78759e-08
2.74722e-09
9.15119e-08
-5.74294e-08
9.94719e-08
-3.28628e-08
8.82903e-08
4.84529e-08
6.79323e-08
8.51532e-08
5.93644e-08
3.31939e-08
5.14978e-08
3.13177e-08
4.30503e-08
3.398e-08
3.62906e-08
2.6713e-08
3.00248e-08
2.48913e-08
2.49919e-08
1.9798e-08
2.0386e-08
1.81536e-08
1.6789e-08
1.4096e-08
1.35265e-08
1.27929e-08
1.08433e-08
1.0485e-08
8.5703e-09
8.87355e-09
6.55796e-09
7.84733e-09
4.96624e-09
6.19455e-09
3.57222e-09
5.41838e-09
2.38643e-09
4.60183e-09
1.44078e-09
3.66078e-09
6.26121e-10
3.15044e-09
-3.04721e-11
2.52836e-09
-5.52951e-10
2.01086e-09
-9.82e-10
1.64259e-09
-1.3053e-09
1.23706e-09
-1.55201e-09
9.33582e-10
-1.73536e-09
6.86486e-10
-1.85562e-09
4.44348e-10
-1.93247e-09
2.7586e-10
-1.96967e-09
1.23486e-10
-1.97505e-09
2.31904e-12
-1.95609e-09
-9.03863e-11
-1.91661e-09
-1.79074e-10
-1.86325e-09
-2.13152e-10
-1.79772e-09
-2.76975e-10
-1.72533e-09
-2.9889e-10
-1.64768e-09
-3.13527e-10
-1.56579e-09
-3.29088e-10
-1.48444e-09
-3.29094e-10
-1.40195e-09
-3.35484e-10
-1.32145e-09
-3.25614e-10
-1.24356e-09
-3.25423e-10
-1.16809e-09
-3.03165e-10
-1.09736e-09
-2.97779e-10
-1.02931e-09
-2.71417e-10
-9.65289e-10
-2.63038e-10
-9.04062e-10
-2.38094e-10
-8.45782e-10
-2.3026e-10
-7.90369e-10
-2.12703e-10
-7.37716e-10
-2.10587e-10
-6.96268e-10
-1.61145e-10
-6.58013e-10
-1.49086e-10
-6.23789e-10
-1.19831e-10
-5.91535e-10
-1.18348e-10
-5.62547e-10
-9.42894e-11
-5.37407e-10
-8.66219e-11
-5.14471e-10
-6.78089e-11
-4.94124e-10
-6.25632e-11
-4.75988e-10
-4.21107e-11
-4.60188e-10
-4.78433e-11
-4.46459e-10
-2.93521e-11
-4.34639e-10
-2.78229e-11
-4.24745e-10
-9.62781e-12
-4.16621e-10
-1.50141e-11
-4.09966e-10
-2.70921e-13
-4.04911e-10
3.61395e-13
-4.01016e-10
1.44914e-11
-3.98433e-10
8.5558e-12
-3.96814e-10
2.14107e-11
-3.961e-10
2.01239e-11
-3.96172e-10
3.49869e-11
-3.96731e-10
3.54429e-11
-3.97894e-10
4.56548e-11
-3.99272e-10
2.78441e-11
-4.00622e-10
3.59659e-11
-4.01917e-10
3.65476e-11
-4.02837e-10
4.06176e-11
-4.03192e-10
3.2016e-11
-4.02649e-10
2.79843e-11
-4.00955e-10
2.1172e-11
-3.97761e-10
1.93132e-11
-3.92657e-10
8.91549e-12
-3.85289e-10
1.48737e-12
-3.75033e-10
-1.43696e-11
-3.6151e-10
-2.36678e-11
-3.4374e-10
-4.23907e-11
-3.21417e-10
-6.1058e-11
-2.9278e-10
-8.589e-11
-2.57592e-10
-1.12913e-10
-2.11815e-10
-1.50462e-10
-1.58523e-10
-1.83367e-10
-8.42006e-11
-2.71528e-10
-2.38269e-12
-3.02014e-10
1.23607e-10
-4.79332e-10
2.60962e-10
-5.10016e-10
5.22248e-10
-1.0175e-09
7.96692e-10
-1.07711e-09
1.72122e-09
-3.70573e-09
2.38029e-09
-2.6625e-09
-2.97025e-07
4.00847e-08
9.62731e-08
6.94435e-08
-1.05707e-07
9.589e-08
3.13251e-09
1.12205e-07
-7.3744e-08
1.21854e-07
-4.25117e-08
1.0867e-07
6.16368e-08
8.4212e-08
1.09612e-07
7.35442e-08
4.38625e-08
6.38388e-08
4.10238e-08
5.34853e-08
4.43342e-08
4.51219e-08
3.5077e-08
3.739e-08
3.26237e-08
3.11488e-08
2.60401e-08
2.54415e-08
2.38616e-08
2.09722e-08
1.8566e-08
1.69188e-08
1.68465e-08
1.35804e-08
1.3824e-08
1.07504e-08
1.17041e-08
8.24365e-09
1.0355e-08
6.25889e-09
8.17981e-09
4.51982e-09
7.15835e-09
3.03959e-09
6.08245e-09
1.85781e-09
4.84333e-09
8.39305e-10
4.16902e-09
1.7499e-11
3.35058e-09
-6.37249e-10
2.66651e-09
-1.1755e-09
2.18129e-09
-1.58188e-09
1.64482e-09
-1.89267e-09
1.24468e-09
-2.12442e-09
9.18564e-10
-2.27727e-09
5.97481e-10
-2.37587e-09
3.75182e-10
-2.42491e-09
1.7313e-10
-2.43405e-09
1.23437e-11
-2.41269e-09
-1.11373e-10
-2.36559e-09
-2.25666e-10
-2.301e-09
-2.76562e-10
-2.22111e-09
-3.57135e-10
-2.1325e-09
-3.86448e-10
-2.03719e-09
-4.07786e-10
-1.9365e-09
-4.28419e-10
-1.83633e-09
-4.28548e-10
-1.73465e-09
-4.3633e-10
-1.63534e-09
-4.23747e-10
-1.53919e-09
-4.2076e-10
-1.44598e-09
-3.95187e-10
-1.35858e-09
-3.85079e-10
-1.27446e-09
-3.53388e-10
-1.1953e-09
-3.4172e-10
-1.11958e-09
-3.10736e-10
-1.04748e-09
-3.00761e-10
-9.78925e-10
-2.78527e-10
-9.13767e-10
-2.75129e-10
-8.62483e-10
-2.10391e-10
-8.15135e-10
-1.95065e-10
-7.72766e-10
-1.59487e-10
-7.32841e-10
-1.56322e-10
-6.96953e-10
-1.27061e-10
-6.65812e-10
-1.16428e-10
-6.3741e-10
-9.32763e-11
-6.12206e-10
-8.55216e-11
-5.89746e-10
-6.11834e-11
-5.7017e-10
-6.62005e-11
-5.53162e-10
-4.36507e-11
-5.38514e-10
-4.11322e-11
-5.26254e-10
-1.9309e-11
-5.16181e-10
-2.38058e-11
-5.0793e-10
-6.21014e-12
-5.01657e-10
-4.59393e-12
-4.96823e-10
1.17622e-11
-4.9361e-10
7.16822e-12
-4.91593e-10
2.17782e-11
-4.90692e-10
2.09976e-11
-4.90767e-10
3.74506e-11
-4.91448e-10
3.81509e-11
-4.92871e-10
4.86434e-11
-4.94559e-10
3.20561e-11
-4.96214e-10
3.98355e-11
-4.97803e-10
3.99519e-11
-4.98923e-10
4.28831e-11
-4.99345e-10
3.40252e-11
-4.98652e-10
2.80482e-11
-4.96538e-10
2.06939e-11
-4.92562e-10
1.59934e-11
-4.86228e-10
4.37368e-12
-4.77086e-10
-6.90851e-12
-4.64375e-10
-2.55211e-11
-4.47616e-10
-4.00651e-11
-4.25612e-10
-6.30154e-11
-3.97963e-10
-8.88823e-11
-3.62521e-10
-1.189e-10
-3.18958e-10
-1.56015e-10
-2.62333e-10
-2.04521e-10
-1.96385e-10
-2.48654e-10
-1.04494e-10
-3.61802e-10
-3.2818e-12
-4.02652e-10
1.52369e-10
-6.33517e-10
3.22155e-10
-6.75892e-10
6.44498e-10
-1.33944e-09
9.82844e-10
-1.41536e-09
2.11588e-09
-4.8391e-09
2.92702e-09
-3.4729e-09
-3.3669e-07
4.25938e-08
1.17219e-07
8.01583e-08
-1.27938e-07
1.16979e-07
3.36903e-09
1.36275e-07
-9.30403e-08
1.47855e-07
-5.40924e-08
1.32519e-07
7.69714e-08
1.03467e-07
1.38662e-07
9.03177e-08
5.70108e-08
7.84515e-08
5.28883e-08
6.58826e-08
5.69017e-08
5.56283e-08
4.53294e-08
4.6173e-08
4.20775e-08
3.85011e-08
3.37098e-08
3.14906e-08
3.08702e-08
2.59848e-08
2.40695e-08
2.09914e-08
2.18376e-08
1.68727e-08
1.79396e-08
1.33788e-08
1.51957e-08
1.0282e-08
1.34495e-08
7.82756e-09
1.06323e-08
5.67581e-09
9.30765e-09
3.8431e-09
7.91269e-09
2.37817e-09
6.30587e-09
1.11506e-09
5.42977e-09
9.46916e-11
4.36844e-09
-7.19311e-10
3.47772e-09
-1.38925e-09
2.84885e-09
-1.89608e-09
2.14902e-09
-2.28462e-09
1.63059e-09
-2.57533e-09
1.2068e-09
-2.76816e-09
7.88168e-10
-2.89375e-09
4.98485e-10
-2.9579e-09
2.35226e-10
-2.9724e-09
2.51714e-11
-2.94899e-09
-1.36171e-10
-2.89356e-09
-2.82922e-10
-2.81624e-09
-3.5533e-10
-2.71983e-09
-4.56093e-10
-2.61242e-09
-4.96989e-10
-2.49655e-09
-5.25073e-10
-2.37389e-09
-5.5233e-10
-2.25168e-09
-5.5298e-10
-2.1275e-09
-5.63047e-10