/*--------------------------------*- C++ -*----------------------------------*\
| =========                 |                                                 |
| \\      /  F ield         | OpenFOAM: The Open Source CFD Toolbox           |
|  \\    /   O peration     | Version:  5.x                                   |
|   \\  /    A nd           | Web:      www.OpenFOAM.org                      |
|    \\/     M anipulation  |                                                 |
\*---------------------------------------------------------------------------*/
FoamFile
{
    version     2.0;
    format      ascii;
    class       surfaceScalarField;
    location    "3500";
    object      phi;
}
// * * * * * * * * * * * * * * * * * * * * * * * * * * * * * * * * * * * * * //

dimensions      [0 3 -1 0 0 0 0];

internalField   nonuniform List<scalar> 
215247
(
1.67245e-11
8.84451e-13
-1.82439e-11
1.61813e-11
5.43135e-13
1.92865e-11
-3.10523e-12
2.23996e-11
-3.11306e-12
2.17376e-11
6.62025e-13
1.7973e-11
3.76456e-12
1.68701e-11
1.10288e-12
1.56247e-11
1.24547e-12
1.41943e-11
1.43037e-12
1.29443e-11
1.25003e-12
1.17454e-11
1.19884e-12
1.07369e-11
1.00852e-12
9.76242e-12
9.74479e-13
8.97538e-12
7.87041e-13
8.21492e-12
7.60452e-13
7.56101e-12
6.53917e-13
6.97198e-12
5.8903e-13
6.4146e-12
5.57375e-13
5.9438e-12
4.70803e-13
5.49784e-12
4.45957e-13
5.08254e-12
4.15305e-13
4.7196e-12
3.62934e-13
4.37142e-12
3.48182e-13
4.0528e-12
3.18617e-13
3.76469e-12
2.88117e-13
3.48717e-12
2.77512e-13
3.23642e-12
2.50755e-13
3.00322e-12
2.33196e-13
2.77827e-12
2.2495e-13
2.57783e-12
2.00437e-13
2.38666e-12
1.91176e-13
2.20444e-12
1.82216e-13
2.03926e-12
1.65177e-13
1.88078e-12
1.58486e-13
1.73246e-12
1.48314e-13
1.59538e-12
1.3708e-13
1.46357e-12
1.31809e-13
1.34218e-12
1.21394e-13
1.22748e-12
1.14698e-13
1.11829e-12
1.09195e-13
1.01774e-12
1.00549e-13
9.21619e-13
9.61181e-14
8.31919e-13
8.96997e-14
7.47679e-13
8.42396e-14
6.67755e-13
7.99235e-14
5.93779e-13
7.39751e-14
5.23458e-13
7.03217e-14
4.58017e-13
6.54395e-14
3.9642e-13
6.15975e-14
3.38647e-13
5.77724e-14
2.84711e-13
5.39358e-14
2.33799e-13
5.09113e-14
1.9477e-13
3.90295e-14
1.59132e-13
3.56374e-14
1.26685e-13
3.24462e-14
9.63176e-14
3.03673e-14
6.85915e-14
2.77257e-14
4.31627e-14
2.54283e-14
1.93655e-14
2.37969e-14
-2.76758e-15
2.21325e-14
-2.3463e-14
2.0695e-14
-4.28689e-14
1.94054e-14
-6.10732e-14
1.8204e-14
-7.82317e-14
1.71579e-14
-9.4379e-14
1.6147e-14
-1.0967e-13
1.52906e-14
-1.24107e-13
1.4437e-14
-1.37766e-13
1.36579e-14
-1.5069e-13
1.29245e-14
-1.62848e-13
1.21569e-14
-1.7433e-13
1.14817e-14
-1.85008e-13
1.06778e-14
-1.94882e-13
9.87341e-15
-2.03858e-13
8.97508e-15
-2.11776e-13
7.91835e-15
-2.18553e-13
6.77542e-15
-2.23882e-13
5.32978e-15
-2.27572e-13
3.68785e-15
-2.29233e-13
1.66152e-15
-2.28517e-13
-7.17499e-16
-2.24843e-13
-3.67323e-15
-2.17758e-13
-7.08616e-15
-2.06349e-13
-1.14078e-14
-1.89996e-13
-1.6355e-14
-1.67456e-13
-2.25392e-14
-1.37697e-13
-2.9761e-14
-9.91372e-14
-3.85585e-14
-5.00004e-14
-4.91384e-14
1.17361e-14
-6.17357e-14
8.91906e-14
-7.74567e-14
1.85051e-13
-9.58593e-14
3.07608e-13
-1.22563e-13
4.53015e-13
-1.45401e-13
6.51167e-13
-1.98152e-13
8.76814e-13
-2.25647e-13
1.2109e-12
-3.34087e-13
1.59445e-12
-3.83377e-13
2.26805e-12
-6.7377e-13
3.0447e-12
-7.7664e-13
5.2173e-12
-2.17263e-12
7.91654e-12
-2.69926e-12
-1.6848e-09
1.69272e-09
5.54242e-11
5.18242e-12
-5.97222e-11
5.34363e-11
2.53107e-12
6.37565e-11
-1.34255e-11
7.37376e-11
-1.30942e-11
7.16301e-11
2.76954e-12
5.9522e-11
1.58727e-11
5.5731e-11
4.89389e-12
5.17037e-11
5.27277e-12
4.69449e-11
6.1891e-12
4.285e-11
5.34491e-12
3.88766e-11
5.17224e-12
3.55519e-11
4.33322e-12
3.23266e-11
4.19979e-12
2.9725e-11
3.38871e-12
2.72076e-11
3.27777e-12
2.50446e-11
2.81699e-12
2.30934e-11
2.54021e-12
2.1249e-11
2.40177e-12
1.96895e-11
2.03033e-12
1.82127e-11
1.92274e-12
1.68376e-11
1.79043e-12
1.56353e-11
1.56524e-12
1.44821e-11
1.50138e-12
1.34269e-11
1.37373e-12
1.24723e-11
1.24271e-12
1.15532e-11
1.19662e-12
1.07227e-11
1.08129e-12
9.95008e-12
1.00582e-12
9.20508e-12
9.69948e-13
8.54107e-12
8.6445e-13
7.90775e-12
8.24494e-13
7.30427e-12
7.85695e-13
6.75704e-12
7.12409e-13
6.23205e-12
6.83473e-13
5.74077e-12
6.39591e-13
5.28664e-12
5.91212e-13
4.85003e-12
5.68411e-13
4.44791e-12
5.23515e-13
4.06793e-12
4.94686e-13
3.70623e-12
4.70889e-13
3.37312e-12
4.33663e-13
3.05472e-12
4.14512e-13
2.75758e-12
3.86841e-13
2.4785e-12
3.6332e-13
2.21374e-12
3.44678e-13
1.96867e-12
3.19052e-13
1.73571e-12
3.03275e-13
1.51891e-12
2.82241e-13
1.31485e-12
2.65659e-13
1.12345e-12
2.49172e-13
9.44763e-13
2.3262e-13
7.76087e-13
2.19586e-13
6.46801e-13
1.68314e-13
5.2871e-13
1.53727e-13
4.21198e-13
1.39958e-13
3.20587e-13
1.30977e-13
2.2871e-13
1.19602e-13
1.44446e-13
1.09692e-13
6.55962e-14
1.02646e-13
-7.74698e-15
9.54746e-14
-7.63189e-14
8.92663e-14
-1.40622e-13
8.37074e-14
-2.00941e-13
7.85222e-14
-2.57793e-13
7.40094e-14
-3.11296e-13
6.96491e-14
-3.61958e-13
6.5952e-14
-4.09792e-13
6.22705e-14
-4.55044e-13
5.89092e-14
-4.97864e-13
5.5744e-14
-5.38142e-13
5.24342e-14
-5.76179e-13
4.95185e-14
-6.11558e-13
4.6055e-14
-6.44264e-13
4.25796e-14
-6.74003e-13
3.87114e-14
-7.00236e-13
3.41521e-14
-7.22687e-13
2.92248e-14
-7.40354e-13
2.29962e-14
-7.52584e-13
1.59159e-14
-7.58107e-13
7.18531e-15
-7.55758e-13
-3.06882e-15
-7.43628e-13
-1.58019e-14
-7.20207e-13
-3.05094e-14
-6.82486e-13
-4.91275e-14
-6.28398e-13
-7.04452e-14
-5.53859e-13
-9.7077e-14
-4.55414e-13
-1.28208e-13
-3.27908e-13
-1.66064e-13
-1.65338e-13
-2.1171e-13
3.87669e-14
-2.65839e-13
2.95078e-13
-3.3377e-13
6.11869e-13
-4.12649e-13
1.01756e-12
-5.28261e-13
1.49772e-12
-6.25553e-13
2.154e-12
-8.54436e-13
2.89815e-12
-9.6979e-13
4.00556e-12
-1.44149e-12
5.26775e-12
-1.64534e-12
7.50155e-12
-2.9078e-12
1.00478e-11
-3.32287e-12
1.72234e-11
-9.34825e-12
2.42924e-11
-9.76834e-12
-3.48427e-09
1.82376e-09
1.02907e-10
1.24845e-11
-1.1021e-10
9.91862e-11
6.25227e-12
1.18279e-10
-3.25178e-11
1.3645e-10
-3.12653e-11
1.32657e-10
6.56246e-12
1.10598e-10
3.79312e-11
1.03428e-10
1.20639e-11
9.60221e-11
1.2679e-11
8.71852e-11
1.5026e-11
7.96153e-11
1.29148e-11
7.22382e-11
1.25494e-11
6.60728e-11
1.04986e-11
6.00839e-11
1.01887e-11
5.52524e-11
8.22015e-12
5.0576e-11
7.95425e-12
4.65576e-11
6.83538e-12
4.29308e-11
6.167e-12
3.95038e-11
5.82872e-12
3.66047e-11
4.92949e-12
3.38597e-11
4.6677e-12
3.13039e-11
4.34626e-12
2.90686e-11
3.80056e-12
2.69249e-11
3.64505e-12
2.49637e-11
3.33495e-12
2.31888e-11
3.01759e-12
2.14803e-11
2.90512e-12
1.99364e-11
2.62519e-12
1.84999e-11
2.4423e-12
1.71151e-11
2.35477e-12
1.58806e-11
2.09892e-12
1.47032e-11
2.0019e-12
1.35814e-11
1.90751e-12
1.2564e-11
1.72976e-12
1.15881e-11
1.65945e-12
1.06749e-11
1.5528e-12
9.83055e-12
1.43552e-12
9.01892e-12
1.38004e-12
8.27138e-12
1.27106e-12
7.56495e-12
1.20111e-12
6.89259e-12
1.14325e-12
6.27332e-12
1.05294e-12
5.6814e-12
1.00643e-12
5.12901e-12
9.3923e-13
4.61018e-12
8.8215e-13
4.118e-12
8.36862e-13
3.66238e-12
7.74666e-13
3.2293e-12
7.36355e-13
2.82624e-12
6.85297e-13
2.44687e-12
6.4503e-13
2.09103e-12
6.05012e-13
1.75883e-12
5.64822e-13
1.44524e-12
5.3318e-13
1.2049e-12
4.08652e-13
9.85323e-13
3.73302e-13
7.85413e-13
3.39867e-13
5.98359e-13
3.18031e-13
4.27516e-13
2.90446e-13
2.70829e-13
2.66378e-13
1.24221e-13
2.49253e-13
-1.21555e-14
2.3185e-13
-1.39653e-13
2.16763e-13
-2.59215e-13
2.0327e-13
-3.71367e-13
1.90673e-13
-4.77072e-13
1.79714e-13
-5.76549e-13
1.69126e-13
-6.70742e-13
1.60144e-13
-7.59675e-13
1.51203e-13
-8.43805e-13
1.43038e-13
-9.23414e-13
1.35353e-13
-9.98296e-13
1.27316e-13
-1.06901e-12
1.20232e-13
-1.13478e-12
1.11822e-13
-1.19558e-12
1.03383e-13
-1.25087e-12
9.39971e-14
-1.29964e-12
8.29246e-14
-1.34138e-12
7.09662e-14
-1.37424e-12
5.58555e-14
-1.397e-12
3.86689e-14
-1.4073e-12
1.74884e-14
-1.40298e-12
-7.39432e-15
-1.38049e-12
-3.82822e-14
-1.33704e-12
-7.39642e-14
-1.26704e-12
-1.19127e-13
-1.16665e-12
-1.70843e-13
-1.02829e-12
-2.35431e-13
-8.45537e-13
-3.10964e-13
-6.08862e-13
-4.02738e-13
-3.07044e-13
-5.1353e-13
7.17801e-14
-6.44663e-13
5.47657e-13
-8.0965e-13
1.13552e-12
-1.00051e-12
1.8888e-12
-1.28154e-12
2.77951e-12
-1.51626e-12
3.99822e-12
-2.07314e-12
5.3778e-12
-2.34937e-12
7.43456e-12
-3.49825e-12
9.77204e-12
-3.98265e-12
1.392e-11
-7.05596e-12
1.86243e-11
-8.0271e-12
3.19055e-11
-2.26295e-11
4.43963e-11
-2.22592e-11
-5.40476e-09
1.96489e-09
1.60626e-10
2.32238e-11
-1.71366e-10
1.55021e-10
1.18575e-11
1.8459e-10
-6.20868e-11
2.1252e-10
-5.91952e-11
2.06777e-10
1.23052e-11
1.72891e-10
7.18177e-11
1.61576e-10
2.33787e-11
1.5005e-10
2.42048e-11
1.36281e-10
2.87949e-11
1.24481e-10
2.47145e-11
1.12969e-10
2.40621e-11
1.0334e-10
2.01275e-11
9.3985e-11
1.95436e-11
8.6432e-11
1.57731e-11
7.91221e-11
1.52641e-11
7.28385e-11
1.3119e-11
6.7166e-11
1.18395e-11
6.18066e-11
1.11881e-11
5.72712e-11
9.46492e-12
5.29772e-11
8.96169e-12
4.89793e-11
8.34415e-12
4.54819e-11
7.29802e-12
4.21283e-11
6.99861e-12
3.90602e-11
6.40303e-12
3.62831e-11
5.79472e-12
3.36103e-11
5.57792e-12
3.11949e-11
5.04058e-12
2.89473e-11
4.68986e-12
2.67809e-11
4.52118e-12
2.48495e-11
4.03035e-12
2.30073e-11
3.84402e-12
2.12524e-11
3.66241e-12
1.96607e-11
3.32151e-12
1.81338e-11
3.18636e-12
1.67051e-11
2.98149e-12
1.53841e-11
2.75648e-12
1.41144e-11
2.64979e-12
1.29449e-11
2.44056e-12
1.18396e-11
2.30635e-12
1.07877e-11
2.19514e-12
9.81886e-12
2.02181e-12
8.8928e-12
1.93248e-12
8.02861e-12
1.80343e-12
7.21688e-12
1.69388e-12
6.44685e-12
1.60689e-12
5.73401e-12
1.48751e-12
5.05645e-12
1.41392e-12
4.42583e-12
1.31591e-12
3.83229e-12
1.23858e-12
3.27553e-12
1.16176e-12
2.75578e-12
1.08458e-12
2.26512e-12
1.02383e-12
1.88912e-12
7.84658e-13
1.54553e-12
7.16887e-13
1.2327e-12
6.52692e-13
9.40026e-13
6.10708e-13
6.72675e-13
5.57796e-13
4.27479e-13
5.11574e-13
1.98069e-13
4.78662e-13
-1.53373e-14
4.45256e-13
-2.14842e-13
4.16267e-13
-4.01932e-13
3.90359e-13
-5.77423e-13
3.66164e-13
-7.42823e-13
3.45114e-13
-8.98476e-13
3.24778e-13
-1.04586e-12
3.07525e-13
-1.18501e-12
2.90352e-13
-1.31664e-12
2.7467e-13
-1.44119e-12
2.59905e-13
-1.55835e-12
2.44475e-13
-1.66898e-12
2.30861e-13
-1.77188e-12
2.14721e-13
-1.86701e-12
1.98509e-13
-1.95351e-12
1.80496e-13
-2.02982e-12
1.59236e-13
-2.09514e-12
1.36284e-13
-2.14658e-12
1.07289e-13
-2.18221e-12
7.42999e-14
-2.19839e-12
3.36656e-14
-2.1917e-12
-1.40842e-14
-2.15664e-12
-7.3338e-14
-2.08881e-12
-1.41797e-13
-1.9795e-12
-2.28435e-13
-1.8227e-12
-3.27646e-13
-1.6066e-12
-4.51534e-13
-1.32113e-12
-5.96438e-13
-9.51432e-13
-7.72431e-13
-4.79962e-13
-9.85002e-13
1.11759e-13
-1.23638e-12
8.55119e-13
-1.55301e-12
1.77327e-12
-1.91867e-12
2.94988e-12
-2.45816e-12
4.3408e-12
-2.90717e-12
6.24425e-12
-3.9766e-12
8.39788e-12
-4.503e-12
1.16097e-11
-6.7101e-12
1.52563e-11
-7.62902e-12
2.17303e-11
-1.35302e-11
2.90549e-11
-1.53516e-11
4.97102e-11
-4.32849e-11
6.87393e-11
-4.12884e-11
-7.4528e-09
2.11678e-09
2.30353e-10
3.78528e-11
-2.44982e-10
2.22745e-10
1.94652e-11
2.64741e-10
-1.04082e-10
3.04218e-10
-9.86727e-11
2.96241e-10
2.02828e-11
2.48395e-10
1.19663e-10
2.32031e-10
3.97426e-11
2.15514e-10
4.07221e-11
1.95818e-10
4.84905e-11
1.78902e-10
4.16309e-11
1.62396e-10
4.05681e-11
1.4857e-10
3.39535e-11
1.3514e-10
3.29728e-11
1.24286e-10
2.66275e-11
1.13784e-10
2.57664e-11
1.04751e-10
2.21514e-11
9.65964e-11
1.99946e-11
8.88916e-11
1.88929e-11
8.23696e-11
1.59869e-11
7.6195e-11
1.51363e-11
7.04464e-11
1.40927e-11
6.54161e-11
1.23283e-11
6.05935e-11
1.18212e-11
5.61814e-11
1.08151e-11
5.21871e-11
9.78909e-12
4.83434e-11
9.42161e-12
4.48697e-11
8.51422e-12
4.16371e-11
7.92252e-12
3.85217e-11
7.63659e-12
3.57439e-11
6.80814e-12
3.30945e-11
6.49341e-12
3.05708e-11
6.18606e-12
2.82815e-11
5.61082e-12
2.60857e-11
5.38222e-12
2.40311e-11
5.03608e-12
2.21312e-11
4.65637e-12
2.03052e-11
4.47582e-12
1.86232e-11
4.12249e-12
1.70337e-11
3.89589e-12
1.5521e-11
3.70783e-12
1.41276e-11
3.41526e-12
1.27958e-11
3.26426e-12
1.15529e-11
3.04629e-12
1.03855e-11
2.86129e-12
9.27808e-12
2.71431e-12
8.25286e-12
2.51273e-12
7.2784e-12
2.38838e-12
6.37145e-12
2.22286e-12
5.51779e-12
2.09224e-12
4.71705e-12
1.9625e-12
3.96949e-12
1.83214e-12
3.26383e-12
1.72949e-12
2.72306e-12
1.32543e-12
2.22884e-12
1.21111e-12
1.77885e-12
1.10268e-12
1.35788e-12
1.03168e-12
9.73294e-13
9.42385e-13
6.20574e-13
8.64293e-13
2.90584e-13
8.08653e-13
-1.63962e-14
7.52235e-13
-3.03368e-13
7.03238e-13
-5.72484e-13
6.59474e-13
-8.24912e-13
6.18592e-13
-1.06282e-12
5.83022e-13
-1.28671e-12
5.48664e-13
-1.49869e-12
5.19507e-13
-1.69883e-12
4.90494e-13
-1.88815e-12
4.63988e-13
-2.06729e-12
4.39047e-13
-2.23579e-12
4.12971e-13
-2.3949e-12
3.89971e-13
-2.54289e-12
3.6271e-13
-2.67969e-12
3.35314e-13
-2.8041e-12
3.04906e-13
-2.91386e-12
2.68994e-13
-3.00782e-12
2.30244e-13
-3.08183e-12
1.81297e-13
-3.13313e-12
1.25602e-13
-3.15649e-12
5.70208e-14
-3.14699e-12
-2.35808e-14
-3.09676e-12
-1.23575e-13
-2.99944e-12
-2.39111e-13
-2.84256e-12
-3.85316e-13
-2.61748e-12
-5.52727e-13
-2.30724e-12
-7.61777e-13
-1.8974e-12
-1.00628e-12
-1.36662e-12
-1.30321e-12
-6.89728e-13
-1.6619e-12
1.59811e-13
-2.08592e-12
1.22702e-12
-2.62022e-12
2.54514e-12
-3.23679e-12
4.23417e-12
-4.1472e-12
6.23075e-12
-4.90374e-12
8.96272e-12
-6.70857e-12
1.20534e-11
-7.59371e-12
1.6662e-11
-1.13186e-11
2.18924e-11
-1.28593e-11
3.11751e-11
-2.2813e-11
4.16614e-11
-2.58379e-11
7.11646e-11
-7.27881e-11
9.80279e-11
-6.81518e-11
-9.63501e-09
2.28024e-09
3.14138e-10
5.68344e-11
-3.3312e-10
3.0446e-10
2.91437e-11
3.61104e-10
-1.60727e-10
4.14162e-10
-1.5173e-10
4.03646e-10
3.0798e-11
3.39433e-10
1.83877e-10
3.16956e-10
6.22201e-11
2.94423e-10
6.32551e-11
2.67644e-10
7.52689e-11
2.44572e-10
6.47031e-11
2.22069e-10
6.30711e-11
2.03184e-10
5.28389e-11
1.84849e-10
5.13078e-11
1.7001e-10
4.1466e-11
1.55658e-10
4.01185e-11
1.43307e-10
3.45027e-11
1.32154e-10
3.11468e-11
1.21618e-10
2.94298e-11
1.12696e-10
2.49085e-11
1.0425e-10
2.35827e-11
9.63866e-11
2.19558e-11
8.95042e-11
1.92107e-11
8.29069e-11
1.84185e-11
7.68713e-11
1.68508e-11
7.1406e-11
1.52544e-11
6.61478e-11
1.46798e-11
6.13956e-11
1.32664e-11
5.69727e-11
1.23454e-11
5.27108e-11
1.18985e-11
4.89104e-11
1.06086e-11
4.52857e-11
1.01181e-11
4.18333e-11
9.63847e-12
3.87012e-11
8.74286e-12
3.5697e-11
8.38641e-12
3.28863e-11
7.84678e-12
3.0287e-11
7.2557e-12
2.77889e-11
6.97394e-12
2.54879e-11
6.42348e-12
2.33132e-11
6.07055e-12
2.12437e-11
5.77731e-12
1.93374e-11
5.32162e-12
1.75154e-11
5.08624e-12
1.5815e-11
4.74663e-12
1.42179e-11
4.45846e-12
1.27028e-11
4.22936e-12
1.13002e-11
3.91536e-12
9.96699e-12
3.72156e-12
8.72615e-12
3.4637e-12
7.5582e-12
3.26019e-12
6.46265e-12
3.05805e-12
5.43985e-12
2.85493e-12
4.47438e-12
2.69497e-12
3.73455e-12
2.06525e-12
3.05828e-12
1.88738e-12
2.4425e-12
1.71845e-12
1.8665e-12
1.60768e-12
1.34021e-12
1.46868e-12
8.57521e-13
1.34698e-12
4.05967e-13
1.26021e-12
-1.4108e-14
1.17231e-12
-4.06793e-13
1.09592e-12
-7.75042e-13
1.02772e-12
-1.12045e-12
9.64001e-13
-1.44599e-12
9.08556e-13
-1.75234e-12
8.55011e-13
-2.04238e-12
8.09551e-13
-2.31622e-12
7.64336e-13
-2.57525e-12
7.23015e-13
-2.82035e-12
6.84146e-13
-3.05088e-12
6.43501e-13
-3.26856e-12
6.07646e-13
-3.47103e-12
5.65178e-13
-3.65819e-12
5.22477e-13
-3.82841e-12
4.75119e-13
-3.97858e-12
4.19171e-13
-4.10716e-12
3.58821e-13
-4.20847e-12
2.82605e-13
-4.27875e-12
1.95873e-13
-4.31083e-12
8.91081e-14
-4.29803e-12
-3.63852e-14
-4.22957e-12
-1.92036e-13
-4.09679e-12
-3.71887e-13
-3.88265e-12
-5.99462e-13
-3.57535e-12
-8.60028e-13
-3.15173e-12
-1.1854e-12
-2.59209e-12
-1.56592e-12
-1.86727e-12
-2.02803e-12
-9.42943e-13
-2.58622e-12
2.17179e-13
-3.24604e-12
1.67442e-12
-4.07746e-12
3.47434e-12
-5.03671e-12
5.78036e-12
-6.45322e-12
8.50645e-12
-7.62982e-12
1.22356e-11
-1.04377e-11
1.64548e-11
-1.18129e-11
2.27432e-11
-1.7607e-11
2.98798e-11
-1.99958e-11
4.25355e-11
-3.54689e-11
5.68163e-11
-4.01186e-11
9.68746e-11
-1.12847e-10
1.33085e-10
-1.04362e-10
-1.19581e-08
2.45613e-09
4.14354e-10
8.06295e-11
-4.38149e-10
4.0261e-10
4.08884e-11
4.76427e-10
-2.34545e-10
5.45364e-10
-2.20667e-10
5.31994e-10
4.41674e-11
4.48705e-10
2.67166e-10
4.18864e-10
9.20609e-11
3.89115e-10
9.30043e-11
3.53913e-10
1.1047e-10
3.23469e-10
9.51472e-11
2.93798e-10
9.27426e-11
2.68841e-10
7.77952e-11
2.44626e-10
7.55236e-11
2.25e-10
6.10915e-11
2.06026e-10
5.90929e-11
1.89685e-10
5.0843e-11
1.74931e-10
4.59016e-11
1.60989e-10
4.33715e-11
1.49181e-10
3.67159e-11
1.38003e-10
3.47611e-11
1.27597e-10
3.23618e-11
1.18486e-10
2.83214e-11
1.09754e-10
2.71502e-11
1.01766e-10
2.48394e-11
9.45309e-11
2.24893e-11
8.75712e-11
2.16395e-11
8.1281e-11
1.95566e-11
7.54261e-11
1.82003e-11
6.97852e-11
1.75394e-11
6.47544e-11
1.56393e-11
5.99564e-11
1.49161e-11
5.53869e-11
1.4208e-11
5.12409e-11
1.28888e-11
4.72645e-11
1.23628e-11
4.35441e-11
1.15671e-11
4.01033e-11
1.06965e-11
3.67968e-11
1.02805e-11
3.37511e-11
9.46914e-12
3.08725e-11
8.94914e-12
2.81333e-11
8.51647e-12
2.56099e-11
7.84508e-12
2.31982e-11
7.49795e-12
2.09475e-11
6.99729e-12
1.88333e-11
6.57265e-12
1.68279e-11
6.23478e-12
1.49712e-11
5.77204e-12
1.32065e-11
5.48633e-12
1.15639e-11
5.10622e-12
1.00179e-11
4.80626e-12
8.56763e-12
4.50829e-12
7.21366e-12
4.2089e-12
5.93562e-12
3.973e-12
4.95631e-12
3.04456e-12
4.06097e-12
2.78273e-12
3.24569e-12
2.53373e-12
2.48314e-12
2.37023e-12
1.7863e-12
2.16552e-12
1.1472e-12
1.98607e-12
5.49361e-13
1.85805e-12
-6.81847e-15
1.72849e-12
-5.26716e-13
1.61582e-12
-1.01426e-12
1.51527e-12
-1.47156e-12
1.4213e-12
-1.90254e-12
1.33954e-12
-2.30811e-12
1.26058e-12
-2.69209e-12
1.19353e-12
-3.05461e-12
1.12685e-12
-3.3975e-12
1.06591e-12
-3.72196e-12
1.0086e-12
-4.02712e-12
9.48663e-13
-4.31526e-12
8.95782e-13
-4.58327e-12
8.33186e-13
-4.83101e-12
7.70222e-13
-5.05634e-12
7.00443e-13
-5.25515e-12
6.17982e-13
-5.42539e-12
5.29064e-13
-5.55958e-12
4.16791e-13
-5.65272e-12
2.89016e-13
-5.69539e-12
1.31776e-13
-5.67872e-12
-5.30626e-14
-5.58848e-12
-2.82267e-13
-5.41325e-12
-5.47123e-13
-5.13048e-12
-8.82228e-13
-4.72464e-12
-1.26588e-12
-4.16507e-12
-1.74496e-12
-3.42583e-12
-2.30517e-12
-2.46832e-12
-2.98554e-12
-1.24732e-12
-3.80722e-12
2.85261e-13
-4.77862e-12
2.21011e-12
-6.00231e-12
4.58779e-12
-7.41439e-12
7.63332e-12
-9.49876e-12
1.12341e-11
-1.12306e-11
1.61579e-11
-1.53615e-11
2.173e-11
-1.7385e-11
3.00294e-11
-2.59064e-11
3.94496e-11
-2.94159e-11
5.61372e-11
-5.21566e-11
7.49501e-11
-5.89316e-11
1.27536e-10
-1.65433e-10
1.74848e-10
-1.51674e-10
-1.44286e-08
2.6454e-09
5.33739e-10
1.0968e-10
-5.6279e-10
5.20035e-10
5.45926e-11
6.13883e-10
-3.28393e-10
7.01291e-10
-3.08074e-10
6.84742e-10
6.07159e-11
5.79345e-10
3.72564e-10
5.40678e-10
1.30727e-10
5.02308e-10
1.31374e-10
4.57133e-10
1.55646e-10
4.17897e-10
1.34383e-10
3.79692e-10
1.30948e-10
3.47479e-10
1.10008e-10
3.16242e-10
1.06761e-10
2.90887e-10
8.64463e-11
2.66384e-10
8.35958e-11
2.45267e-10
7.19601e-11
2.26198e-10
6.49705e-11
2.08179e-10
6.13913e-11
1.92914e-10
5.1981e-11
1.78462e-10
4.92132e-11
1.65009e-10
4.58144e-11
1.53227e-10
4.01029e-11
1.41938e-10
3.84399e-11
1.31609e-10
3.51683e-11
1.22253e-10
3.18455e-11
1.13254e-10
3.06382e-11
1.0512e-10
2.769e-11
9.75491e-11
2.57717e-11
9.02555e-11
2.4833e-11
8.37501e-11
2.21447e-11
7.75457e-11
2.11205e-11
7.16376e-11
2.01161e-11
6.62763e-11
1.82501e-11
6.11346e-11
1.75045e-11
5.63242e-11
1.63775e-11
5.18749e-11
1.51458e-11
4.75995e-11
1.45559e-11
4.36613e-11
1.34073e-11
3.9939e-11
1.26714e-11
3.63972e-11
1.20583e-11
3.31342e-11
1.11081e-11
3.00157e-11
1.06164e-11
2.71055e-11
9.90751e-12
2.43717e-11
9.30647e-12
2.17785e-11
8.82796e-12
1.93776e-11
8.17291e-12
1.70956e-11
7.76836e-12
1.49716e-11
7.23022e-12
1.29723e-11
6.80554e-12
1.10969e-11
6.38367e-12
9.34599e-12
5.95982e-12
7.6933e-12
5.62569e-12
6.42696e-12
4.3109e-12
5.26896e-12
3.94072e-12
4.21446e-12
3.58823e-12
3.22828e-12
3.3564e-12
2.32695e-12
3.06685e-12
1.50029e-12
2.81273e-12
7.27054e-13
2.63129e-12
7.68424e-15
2.44786e-12
-6.64735e-13
2.28824e-12
-1.29531e-12
2.14584e-12
-1.88676e-12
2.01275e-12
-2.44415e-12
1.89692e-12
-2.96868e-12
1.7851e-12
-3.46526e-12
1.69011e-12
-3.93408e-12
1.59567e-12
-4.37751e-12
1.50934e-12
-4.79708e-12
1.42817e-12
-5.19169e-12
1.34327e-12
-5.56428e-12
1.26837e-12
-5.91085e-12
1.17975e-12
-6.2312e-12
1.09058e-12
-6.52259e-12
9.91829e-13
-6.7797e-12
8.75092e-13
-6.99991e-12
7.49271e-13
-7.17354e-12
5.90421e-13
-7.29416e-12
4.09633e-13
-7.34961e-12
1.87226e-13
-7.32843e-12
-7.42471e-14
-7.2123e-12
-3.98399e-13
-6.98644e-12
-7.72983e-13
-6.62178e-12
-1.24689e-12
-6.09827e-12
-1.78938e-12
-5.37636e-12
-2.46687e-12
-4.42262e-12
-3.25892e-12
-3.18717e-12
-4.22098e-12
-1.61185e-12
-5.38255e-12
3.65628e-13
-6.7561e-12
2.84888e-12
-8.48556e-12
5.91667e-12
-1.04822e-11
9.84506e-12
-1.34272e-11
1.44906e-11
-1.58761e-11
2.08399e-11
-2.17109e-11
2.80274e-11
-2.45725e-11
3.87246e-11
-3.66035e-11
5.08695e-11
-4.15607e-11
7.23564e-11
-7.36436e-11
9.65603e-11
-8.31354e-11
1.63947e-10
-2.3282e-10
2.24389e-10
-2.12116e-10
-1.70533e-08
2.84904e-09
6.75453e-10
1.44386e-10
-7.10159e-10
6.60034e-10
7.00122e-11
7.77133e-10
-4.45492e-10
8.85922e-10
-4.16864e-10
8.6587e-10
8.07685e-11
7.34988e-10
5.03446e-10
6.85791e-10
1.79924e-10
6.3716e-10
1.80006e-10
5.80221e-10
2.12585e-10
5.30538e-10
1.84065e-10
4.8221e-10
1.79276e-10
4.41355e-10
1.50863e-10
4.01764e-10
1.46352e-10
3.69575e-10
1.18635e-10
3.38482e-10
1.14689e-10
3.11664e-10
9.87782e-11
2.87446e-10
8.91884e-11
2.64558e-10
8.42795e-11
2.45163e-10
7.13754e-11
2.26802e-10
6.75748e-11
2.09711e-10
6.29054e-11
1.94738e-10
5.50753e-11
1.80394e-10
5.27848e-11
1.67269e-10
4.82926e-11
1.55378e-10
4.37363e-11
1.43944e-10
4.20726e-11
1.33609e-10
3.80254e-11
1.23987e-10
3.53939e-11
1.14719e-10
3.41007e-11
1.06452e-10
3.04118e-11
9.85673e-11
2.90049e-11
9.106e-11
2.76235e-11
8.42468e-11
2.50633e-11
7.7713e-11
2.40383e-11
7.16004e-11
2.24901e-11
6.59461e-11
2.08001e-11
6.05133e-11
1.99887e-11
5.55089e-11
1.84117e-11
5.07788e-11
1.74016e-11
4.62781e-11
1.65589e-11
4.21316e-11
1.52546e-11
3.81687e-11
1.45793e-11
3.44706e-11
1.36057e-11
3.09965e-11
1.27805e-11
2.77011e-11
1.21233e-11
2.46501e-11
1.1224e-11
2.17501e-11
1.06684e-11
1.90508e-11
9.92943e-12
1.65101e-11
9.34633e-12
1.41267e-11
8.76703e-12
1.19015e-11
8.18504e-12
9.80117e-12
7.72599e-12
8.19189e-12
5.92018e-12
6.72002e-12
5.41259e-12
5.37961e-12
4.92864e-12
4.1262e-12
4.60981e-12
2.98044e-12
4.21261e-12
1.92961e-12
3.86356e-12
9.46744e-13
3.61415e-12
3.23311e-14
3.36227e-12
-8.22372e-13
3.14294e-12
-1.62388e-12
2.94735e-12
-2.37565e-12
2.76452e-12
-3.08411e-12
2.60538e-12
-3.75079e-12
2.45178e-12
-4.38193e-12
2.32126e-12
-4.97777e-12
2.19151e-12
-5.54132e-12
2.07289e-12
-6.07455e-12
1.9614e-12
-6.57604e-12
1.84476e-12
-7.04952e-12
1.74185e-12
-7.48993e-12
1.62017e-12
-7.89704e-12
1.49768e-12
-8.26736e-12
1.36215e-12
-8.59414e-12
1.20187e-12
-8.87407e-12
1.0292e-12
-9.09488e-12
8.11232e-13
-9.24841e-12
5.63159e-13
-9.31925e-12
2.5807e-13
-9.29287e-12
-1.00634e-13
-9.14604e-12
-5.45226e-13
-8.86003e-12
-1.05899e-12
-8.39797e-12
-1.70895e-12
-7.73449e-12
-2.45287e-12
-6.81938e-12
-3.38198e-12
-5.61036e-12
-4.46794e-12
-4.04407e-12
-5.78727e-12
-2.04704e-12
-7.37959e-12
4.6004e-13
-9.26317e-12
3.60782e-12
-1.16333e-11
7.49706e-12
-1.43714e-11
1.24758e-11
-1.84059e-11
1.83647e-11
-2.1765e-11
2.64092e-11
-2.97554e-11
3.55188e-11
-3.36822e-11
4.90648e-11
-5.01495e-11
6.44494e-11
-5.69452e-11
9.1628e-11
-1.00822e-10
1.2222e-10
-1.13728e-10
2.07021e-10
-3.17621e-10
2.82929e-10
-2.88024e-10
-1.98385e-08
3.06815e-09
8.43136e-10
1.85077e-10
-8.83827e-10
8.26428e-10
8.67207e-11
9.70398e-10
-5.89463e-10
1.10382e-09
-5.50289e-10
1.07995e-09
1.0464e-10
9.19846e-10
6.63552e-10
8.58136e-10
2.41635e-10
7.97333e-10
2.40809e-10
7.26567e-10
2.8335e-10
6.64513e-10
2.46119e-10
6.04217e-10
2.39572e-10
5.53101e-10
2.01979e-10
5.03599e-10
1.95853e-10
4.63284e-10
1.5895e-10
4.24359e-10
1.53614e-10
3.90756e-10
1.32381e-10
3.60411e-10
1.19534e-10
3.31727e-10
1.12963e-10
3.07415e-10
9.56871e-11
2.84398e-10
9.05925e-11
2.62974e-10
8.4329e-11
2.442e-10
7.38493e-11
2.26216e-10
7.07688e-11
2.09762e-10
6.47466e-11
1.94852e-10
5.86469e-11
1.80516e-10
5.64082e-11
1.67558e-10
5.09839e-11
1.55492e-10
4.74594e-11
1.43873e-10
4.57199e-11
1.33507e-10
4.07778e-11
1.23621e-10
3.88912e-11
1.14209e-10
3.70354e-11
1.05666e-10
3.36062e-11
9.74736e-11
3.22304e-11
8.98098e-11
3.01539e-11
8.27199e-11
2.789e-11
7.59084e-11
2.68003e-11
6.96338e-11
2.46863e-11
6.37029e-11
2.33324e-11
5.80602e-11
2.22017e-11
5.2861e-11
2.04538e-11
4.78923e-11
1.95479e-11
4.32554e-11
1.82426e-11
3.88994e-11
1.71366e-11
3.47675e-11
1.62551e-11
3.09419e-11
1.50496e-11
2.73056e-11
1.43046e-11
2.39211e-11
1.3314e-11
2.07351e-11
1.25323e-11
1.77465e-11
1.17556e-11
1.49562e-11
1.09754e-11
1.23225e-11
1.03596e-11
1.03047e-11
7.938e-12
8.45875e-12
7.25853e-12
6.77758e-12
6.60981e-12
5.20571e-12
6.18168e-12
3.76861e-12
5.64971e-12
2.45056e-12
5.18161e-12
1.21786e-12
4.84686e-12
7.09778e-14
4.50914e-12
-1.00097e-12
4.21489e-12
-2.00621e-12
3.95258e-12
-2.94904e-12
3.70736e-12
-3.83754e-12
3.49387e-12
-4.67361e-12
3.28785e-12
-5.46509e-12
3.11274e-12
-6.21229e-12
2.93871e-12
-6.91897e-12
2.77957e-12
-7.58761e-12
2.63004e-12
-8.21643e-12
2.47357e-12
-8.81012e-12
2.33554e-12
-9.36236e-12
2.1724e-12
-9.87281e-12
2.00813e-12
-1.03372e-11
1.82652e-12
-1.0747e-11
1.61167e-12
-1.10981e-11
1.38032e-12
-1.13752e-11
1.08832e-12
-1.1568e-11
7.55995e-13
-1.16574e-11
3.47416e-13
-1.1625e-11
-1.32998e-13
-1.14419e-11
-7.28303e-13
-1.10847e-11
-1.41624e-12
-1.05072e-11
-2.28647e-12
-9.67766e-12
-3.28237e-12
-8.53333e-12
-4.52631e-12
-7.02143e-12
-5.97984e-12
-5.06254e-12
-7.74616e-12
-2.56512e-12
-9.877e-12
5.70461e-13
-1.23988e-11
4.50663e-12
-1.55695e-11
9.37068e-12
-1.92355e-11
1.55951e-11
-2.46303e-11
2.29593e-11
-2.91292e-11
3.30132e-11
-3.98092e-11
4.44031e-11
-4.50721e-11
6.13227e-11
-6.70691e-11
8.05471e-11
-7.61695e-11
1.14453e-10
-1.34729e-10
1.52591e-10
-1.51865e-10
2.57802e-10
-4.22832e-10
3.51865e-10
-3.82088e-10
-2.27905e-08
3.3039e-09
1.04098e-09
2.31974e-10
-1.08787e-09
1.02364e-09
1.04056e-10
1.19854e-09
-7.64356e-10
1.36022e-09
-7.11976e-10
1.33224e-09
1.32621e-10
1.13879e-09
8.57001e-10
1.06227e-09
3.18154e-10
9.87076e-10
3.16006e-10
9.00113e-10
3.70313e-10
8.23452e-10
3.22781e-10
7.49049e-10
3.13976e-10
6.85782e-10
2.65245e-10
6.24559e-10
2.57077e-10
5.74603e-10
2.08906e-10
5.26394e-10
2.01823e-10
4.84739e-10
1.74035e-10
4.4712e-10
1.57154e-10
4.11555e-10
1.48527e-10
3.81402e-10
1.2584e-10
3.52854e-10
1.19141e-10
3.26283e-10
1.10899e-10
3.02992e-10
9.71412e-11
2.80684e-10
9.30764e-11
2.60274e-10
8.51569e-11
2.41774e-10
7.71467e-11
2.23991e-10
7.41912e-11
2.07915e-10
6.70594e-11
1.92946e-10
6.2429e-11
1.78532e-10
6.01332e-11
1.65672e-10
5.36382e-11
1.53407e-10
5.11561e-11
1.41732e-10
4.87109e-11
1.31133e-10
4.42047e-11
1.2097e-10
4.23933e-11
1.11463e-10
3.96609e-11
1.02667e-10
3.6686e-11
9.42172e-11
3.52502e-11
8.64333e-11
3.24702e-11
7.90755e-11
3.06903e-11
7.20754e-11
2.92017e-11
6.56253e-11
2.69039e-11
5.94612e-11
2.5712e-11
5.37089e-11
2.39949e-11
4.83047e-11
2.25408e-11
4.31787e-11
2.13811e-11
3.84325e-11
1.97959e-11
3.39212e-11
1.88159e-11
2.97221e-11
1.7513e-11
2.57693e-11
1.64851e-11
2.20614e-11
1.54635e-11
1.85993e-11
1.44375e-11
1.53319e-11
1.36271e-11
1.28284e-11
1.04414e-11
1.05378e-11
9.5492e-12
8.45144e-12
8.69615e-12
6.501e-12
8.13212e-12
4.71748e-12
7.43323e-12
3.08169e-12
6.81739e-12
1.55194e-12
6.37661e-12
1.28665e-13
5.93242e-12
-1.20158e-12
5.54513e-12
-2.44902e-12
5.20002e-12
-3.61901e-12
4.87735e-12
-4.72153e-12
4.59639e-12
-5.75899e-12
4.32531e-12
-6.74109e-12
4.09483e-12
-7.6682e-12
3.86582e-12
-8.545e-12
3.65637e-12
-9.3746e-12
3.45964e-12
-1.01548e-11
3.25372e-12
-1.08913e-11
3.07209e-12
-1.15764e-11
2.85752e-12
-1.22097e-11
2.64141e-12
-1.27859e-11
2.40268e-12
-1.32944e-11
2.12016e-12
-1.37301e-11
1.81611e-12
-1.40742e-11
1.43238e-12
-1.43139e-11
9.95681e-13
-1.44254e-11
4.58957e-13
-1.43863e-11
-1.7218e-13
-1.41605e-11
-9.54063e-13
-1.37191e-11
-1.8576e-12
-1.30051e-11
-3.00051e-12
-1.19792e-11
-4.30824e-12
-1.05637e-11
-5.94184e-12
-8.69341e-12
-7.85012e-12
-6.26988e-12
-1.01697e-11
-3.18037e-12
-1.29665e-11
6.99072e-13
-1.62782e-11
5.56802e-12
-2.04385e-11
1.15857e-11
-2.52532e-11
1.92835e-11
-3.23281e-11
2.83935e-11
-3.82391e-11
4.08225e-11
-5.22383e-11
5.49098e-11
-5.91594e-11
7.58136e-11
-8.79729e-11
9.95762e-11
-9.99321e-11
1.41411e-10
-1.76563e-10
1.88433e-10
-1.98887e-10
3.17479e-10
-5.51878e-10
4.32784e-10
-4.97393e-10
-2.59153e-08
3.55756e-09
1.27379e-09
2.85143e-10
-1.32696e-09
1.2568e-09
1.21052e-10
1.46713e-09
-9.74692e-10
1.6611e-09
-9.05944e-10
1.62876e-09
1.6496e-10
1.39746e-09
1.0883e-09
1.30348e-09
4.1213e-10
1.21131e-09
4.08176e-10
1.10543e-09
4.76192e-10
1.01157e-09
4.1664e-10
9.20586e-10
4.04963e-10
8.42971e-10
3.4286e-10
7.67915e-10
3.32133e-10
7.06554e-10
2.70268e-10
6.47365e-10
2.61012e-10
5.96174e-10
2.25226e-10
5.49939e-10
2.03389e-10
5.06223e-10
1.92244e-10
4.69147e-10
1.62916e-10
4.34042e-10
1.54246e-10
4.01372e-10
1.43569e-10
3.72723e-10
1.25791e-10
3.45289e-10
1.2051e-10
3.20188e-10
1.10258e-10
2.97432e-10
9.99032e-11
2.75561e-10
9.60616e-11
2.5579e-10
8.68309e-11
2.37376e-10
8.08427e-11
2.1965e-10
7.78592e-11
2.03831e-10
6.9457e-11
1.88745e-10
6.62421e-11
1.74386e-10
6.30698e-11
1.6135e-10
5.72413e-11
1.4885e-10
5.48929e-11
1.37158e-10
5.13535e-11
1.26338e-10
4.75054e-11
1.15946e-10
4.56428e-11
1.06372e-10
4.2044e-11
9.73217e-11
3.97404e-11
8.87123e-11
3.78112e-11
8.07788e-11
3.48375e-11
7.31973e-11
3.32935e-11
6.61221e-11
3.10701e-11
5.9475e-11
2.91879e-11
5.31701e-11
2.7686e-11
4.73321e-11
2.56338e-11
4.17831e-11
2.4365e-11
3.66181e-11
2.26781e-11
3.17559e-11
2.13472e-11
2.71948e-11
2.00246e-11
2.2936e-11
1.86963e-11
1.89168e-11
1.76464e-11
1.58375e-11
1.35207e-11
1.30193e-11
1.23674e-11
1.04522e-11
1.12632e-11
8.05272e-12
1.05316e-11
5.85815e-12
9.62779e-12
3.84534e-12
8.8302e-12
1.96317e-12
8.25878e-12
2.11949e-13
7.68364e-12
-1.42473e-12
7.18181e-12
-2.95953e-12
6.73482e-12
-4.39901e-12
6.31683e-12
-5.75543e-12
5.95281e-12
-7.03179e-12
5.60167e-12
-8.23998e-12
5.30302e-12
-9.38051e-12
5.00635e-12
-1.04591e-11
4.73495e-12
-1.14796e-11
4.48013e-12
-1.24392e-11
4.21336e-12
-1.33452e-11