/*--------------------------------*- C++ -*----------------------------------*\
| =========                 |                                                 |
| \\      /  F ield         | OpenFOAM: The Open Source CFD Toolbox           |
|  \\    /   O peration     | Version:  5.x                                   |
|   \\  /    A nd           | Web:      www.OpenFOAM.org                      |
|    \\/     M anipulation  |                                                 |
\*---------------------------------------------------------------------------*/
FoamFile
{
    version     2.0;
    format      ascii;
    class       surfaceScalarField;
    location    "3500";
    object      phi;
}
// * * * * * * * * * * * * * * * * * * * * * * * * * * * * * * * * * * * * * //

dimensions      [0 3 -1 0 0 0 0];

internalField   nonuniform List<scalar> 
215247
(
1.4488e-09
-5.88273e-08
-1.45747e-09
1.62569e-09
-1.76895e-10
2.08729e-09
-4.61715e-10
2.45768e-09
-3.70286e-10
2.30841e-09
1.4908e-10
1.87397e-09
4.34564e-10
1.79267e-09
8.12929e-11
1.67078e-09
1.2188e-10
1.5058e-09
1.64963e-10
1.36859e-09
1.3719e-10
1.23096e-09
1.37617e-10
1.11499e-09
1.1592e-10
1.00235e-09
1.12638e-10
9.10363e-10
9.18591e-11
8.21883e-10
8.8558e-11
7.44498e-10
7.73031e-11
6.75381e-10
6.90984e-11
6.08939e-10
6.64063e-11
5.52905e-10
5.59944e-11
4.99589e-10
5.32629e-11
4.4936e-10
5.02011e-11
4.05547e-10
4.37728e-11
3.63215e-10
4.23366e-11
3.24207e-10
3.90733e-11
2.89031e-10
3.49738e-11
2.54969e-10
3.4065e-11
2.24221e-10
3.05013e-11
1.95794e-10
2.83913e-11
1.68458e-10
2.73346e-11
1.4438e-10
2.4016e-11
1.21736e-10
2.25674e-11
1.0053e-10
2.11162e-11
8.18214e-11
1.86107e-11
6.44138e-11
1.73103e-11
4.87392e-11
1.58263e-11
3.49397e-11
1.33013e-11
2.24002e-11
1.27928e-11
1.16182e-11
1.04773e-11
2.22237e-12
9.24058e-12
-5.91646e-12
8.00863e-12
-1.26027e-11
6.52456e-12
-1.82181e-11
5.5593e-12
-2.26923e-11
4.42034e-12
-2.61713e-11
3.95345e-12
-2.87953e-11
2.09727e-12
-3.0595e-11
2.13338e-12
-3.17481e-11
8.79183e-13
-3.23051e-11
6.94939e-13
-3.23766e-11
-4.48588e-13
-3.20248e-11
-5.05609e-13
-3.13156e-11
-1.02866e-12
-3.03365e-11
-6.70306e-13
-2.9433e-11
-1.47578e-12
-2.84775e-11
-9.45081e-13
-2.75269e-11
-1.52051e-12
-2.65392e-11
-1.07406e-12
-2.55618e-11
-1.8636e-12
-2.46414e-11
-1.1184e-12
-2.37393e-11
-1.75188e-12
-2.28644e-11
-1.10737e-12
-2.20278e-11
-1.9324e-12
-2.1216e-11
-9.87804e-13
-2.04442e-11
-1.64186e-12
-1.96859e-11
-1.01999e-12
-1.89553e-11
-1.71906e-12
-1.82298e-11
-9.53107e-13
-1.75157e-11
-1.58891e-12
-1.6809e-11
-1.01016e-12
-1.61076e-11
-1.72576e-12
-1.54223e-11
-9.11966e-13
-1.4762e-11
-1.67073e-12
-1.41296e-11
-8.37136e-13
-1.3552e-11
-1.89806e-12
-1.30208e-11
-1.05023e-12
-1.25665e-11
-1.91323e-12
-1.21815e-11
-4.65458e-13
-1.18865e-11
-1.53793e-12
-1.1681e-11
-6.27439e-13
-1.15682e-11
-1.42993e-12
-1.15528e-11
-6.70179e-13
-1.16295e-11
-1.57701e-12
-1.17961e-11
-3.55355e-13
-1.2052e-11
-1.33583e-12
-1.2382e-11
-2.92982e-13
-1.27857e-11
-1.46328e-12
-1.32332e-11
-8.93813e-14
-1.37251e-11
-1.24774e-12
-1.42133e-11
-1.28427e-13
-1.46936e-11
-1.41381e-12
-1.50873e-11
-1.63854e-13
-1.53884e-11
-1.4047e-12
-1.54633e-11
-3.99049e-13
-1.53188e-11
-1.8561e-12
-1.46736e-11
-1.6409e-12
-1.36583e-11
-1.99506e-12
-1.15695e-11
-2.87317e-12
-8.78911e-12
-3.00858e-12
-3.37693e-12
-7.6099e-12
3.48995e-12
-8.01676e-12
2.24972e-11
-2.01186e-11
4.68891e-11
-2.51709e-11
-1.85859e-08
1.86313e-08
4.79638e-09
-5.89017e-08
-4.71924e-09
5.33947e-09
-7.19884e-10
6.85372e-09
-1.97609e-09
8.04346e-09
-1.55985e-09
7.57703e-09
6.15358e-10
6.19708e-09
1.81485e-09
5.90046e-09
3.7798e-10
5.5167e-09
5.05736e-10
4.97031e-09
7.1141e-10
4.52331e-09
5.84261e-10
4.06972e-09
5.91216e-10
3.68846e-09
4.97305e-10
3.31728e-09
4.83874e-10
3.01383e-09
3.95342e-10
2.72181e-09
3.80681e-10
2.46636e-09
3.32871e-10
2.23779e-09
2.9771e-10
2.01834e-09
2.85888e-10
1.83293e-09
2.41415e-10
1.65658e-09
2.29634e-10
1.49045e-09
2.16379e-10
1.34537e-09
1.8887e-10
1.20526e-09
1.82485e-10
1.07613e-09
1.68252e-10
9.59589e-10
1.51499e-10
8.46792e-10
1.46901e-10
7.44932e-10
1.32336e-10
6.50704e-10
1.22672e-10
5.60133e-10
1.17973e-10
4.80295e-10
1.03871e-10
4.05216e-10
9.76706e-11
3.34902e-10
9.1442e-11
2.7283e-10
8.06735e-11
2.15071e-10
7.50434e-11
1.63053e-10
6.79967e-11
1.17233e-10
5.89469e-11
7.55899e-11
5.46345e-11
3.977e-11
4.62885e-11
8.53671e-12
4.0402e-11
-1.85221e-11
3.49784e-11
-4.07753e-11
2.87199e-11
-5.94696e-11
2.42848e-11
-7.43805e-11
1.93832e-11
-8.59904e-11
1.58815e-11
-9.47591e-11
1.07857e-11
-1.00796e-10
8.40971e-12
-1.04677e-10
4.8442e-12
-1.06585e-10
2.69323e-12
-1.0687e-10
-2.07172e-13
-1.05756e-10
-1.64652e-12
-1.03444e-10
-3.48716e-12
-1.00243e-10
-3.72876e-12
-9.72744e-11
-4.59976e-12
-9.41348e-11
-4.08084e-12
-9.10024e-11
-4.902e-12
-8.77502e-11
-4.40553e-12
-8.45255e-11
-5.52374e-12
-8.14918e-11
-4.41198e-12
-7.85131e-11
-5.21781e-12
-7.56263e-11
-4.24374e-12
-7.28596e-11
-5.4009e-12
-7.0183e-11
-3.95011e-12
-6.76298e-11
-4.77388e-12
-6.51275e-11
-3.9182e-12
-6.27094e-11
-4.89741e-12
-6.03151e-11
-3.72584e-12
-5.79516e-11
-4.61048e-12
-5.56184e-11
-3.82152e-12
-5.32971e-11
-4.91263e-12
-5.10342e-11
-3.58991e-12
-4.88475e-11
-4.66504e-12
-4.676e-11
-3.38512e-12
-4.4846e-11
-4.93913e-12
-4.30916e-11
-3.573e-12
-4.15869e-11
-4.93472e-12
-4.03152e-11
-2.05458e-12
-3.93366e-11
-3.64119e-12
-3.86587e-11
-2.00507e-12
-3.82848e-11
-3.30904e-12
-3.82331e-11
-1.6589e-12
-3.84851e-11
-2.89853e-12
-3.90361e-11
-6.44056e-13
-3.98812e-11
-2.16055e-12
-4.09716e-11
-1.408e-13
-4.23047e-11
-2.01698e-12
-4.37849e-11
4.94154e-13
-4.541e-11
-1.54158e-12
-4.70235e-11
4.82655e-13
-4.86116e-11
-1.94019e-12
-4.99111e-11
2.20264e-13
-5.09074e-11
-2.37725e-12
-5.11511e-11
-1.09001e-12
-5.0678e-11
-4.38051e-12
-4.8536e-11
-5.13636e-12
-4.51987e-11
-6.7216e-12
-3.827e-11
-1.09073e-11
-2.91313e-11
-1.27919e-11
-1.11835e-11
-2.81609e-11
1.13294e-11
-3.21527e-11
7.40708e-11
-8.44546e-11
1.34642e-10
-8.68183e-11
-3.83826e-08
1.993e-08
8.8659e-09
-5.91247e-08
-8.64444e-09
9.86093e-09
-1.71497e-09
1.26413e-08
-4.75654e-09
1.48088e-08
-3.72726e-09
1.39864e-08
1.43751e-09
1.14958e-08
4.30545e-09
1.09198e-08
9.53967e-10
1.02247e-08
1.20073e-09
9.21594e-09
1.72017e-09
8.39305e-09
1.40708e-09
7.5548e-09
1.42945e-09
6.84974e-09
1.20225e-09
6.16278e-09
1.17078e-09
5.60043e-09
9.57492e-10
5.05917e-09
9.22019e-10
4.58545e-09
8.0643e-10
4.16121e-09
7.21901e-10
3.75406e-09
6.92964e-10
3.40972e-09
5.85683e-10
3.08223e-09
5.57024e-10
2.77373e-09
5.24814e-10
2.50413e-09
4.58393e-10
2.24381e-09
4.42801e-10
2.00387e-09
4.0826e-10
1.7872e-09
3.67872e-10
1.57755e-09
3.56528e-10
1.38817e-09
3.21332e-10
1.21292e-09
2.97839e-10
1.04451e-09
2.86358e-10
8.95979e-10
2.52285e-10
7.56296e-10
2.37209e-10
6.25472e-10
2.22105e-10
5.09938e-10
1.96034e-10
4.02419e-10
1.82397e-10
3.05572e-10
1.64969e-10
2.2023e-10
1.43601e-10
1.42656e-10
1.32508e-10
7.59082e-11
1.12594e-10
1.76822e-11
9.83805e-11
-3.27732e-11
8.52298e-11
-7.42978e-11
6.99874e-11
-1.09194e-10
5.90696e-11
-1.37051e-10
4.71217e-11
-1.58764e-10
3.81418e-11
-1.75184e-10
2.64995e-11
-1.86519e-10
2.01655e-11
-1.93832e-10
1.17259e-11
-1.97472e-10
6.49059e-12
-1.98081e-10
-3.95356e-13
-1.96086e-10
-3.90813e-12
-1.9185e-10
-8.24553e-12
-1.85961e-10
-9.25004e-12
-1.80482e-10
-1.08624e-11
-1.74683e-10
-9.91575e-12
-1.68887e-10
-1.15007e-11
-1.6287e-10
-1.06237e-11
-1.56897e-10
-1.27303e-11
-1.51279e-10
-1.03335e-11
-1.45757e-10
-1.19273e-11
-1.40408e-10
-9.99326e-12
-1.35274e-10
-1.20318e-11
-1.30314e-10
-9.1613e-12
-1.25576e-10
-1.07122e-11
-1.20936e-10
-8.92626e-12
-1.16447e-10
-1.07239e-11
-1.12008e-10
-8.46476e-12
-1.0762e-10
-1.01871e-11
-1.03292e-10
-8.55845e-12
-9.89823e-11
-1.05876e-11
-9.47849e-11
-8.088e-12
-9.0724e-11
-1.00679e-11
-8.68518e-11
-7.59038e-12
-8.32963e-11
-1.01788e-11
-8.00411e-11
-7.55757e-12
-7.72456e-11
-9.54031e-12
-7.48861e-11
-4.59078e-12
-7.30671e-11
-6.99811e-12
-7.18094e-11
-3.83547e-12
-7.11141e-11
-5.60405e-12
-7.10165e-11
-2.65486e-12
-7.14824e-11
-4.55087e-12
-7.25046e-11
-3.34804e-13
-7.40714e-11
-2.58368e-12
-7.60938e-11
1.00254e-12
-7.85656e-11
-1.87575e-12
-8.13123e-11
2.5053e-12
-8.43262e-11
-6.56013e-13
-8.73184e-11
2.62534e-12
-9.02639e-11
-1.30384e-12
-9.26726e-11
1.89152e-12
-9.45205e-11
-2.60382e-12
-9.49681e-11
-1.26071e-12
-9.40915e-11
-7.30264e-12
-9.01095e-11
-1.03892e-11
-8.39301e-11
-1.41289e-11
-7.10597e-11
-2.48056e-11
-5.4146e-11
-3.01423e-11
-2.08213e-11
-6.40079e-11
2.07663e-11
-7.51838e-11
1.36872e-10
-2.01949e-10
2.42837e-10
-1.93807e-10
-5.94524e-08
2.13106e-08
1.37772e-08
-5.95196e-08
-1.33799e-08
1.53285e-08
-3.26612e-09
1.96106e-08
-9.03868e-09
2.29429e-08
-7.05941e-09
2.17276e-08
2.65276e-09
1.79352e-08
8.09818e-09
1.70128e-08
1.87651e-09
1.59426e-08
2.27098e-09
1.4382e-08
3.28096e-09
1.31044e-08
2.68473e-09
1.18025e-08
2.73143e-09
1.07048e-08
2.30012e-09
9.63517e-09
2.24043e-09
8.75816e-09
1.83459e-09
7.914e-09
1.7663e-09
7.17468e-09
1.54593e-09
6.51212e-09
1.38454e-09
5.87633e-09
1.3288e-09
5.33822e-09
1.12383e-09
4.82642e-09
1.06886e-09
4.34429e-09
1.00702e-09
3.92267e-09
8.80042e-10
3.51565e-09
8.49876e-10
3.14043e-09
7.83523e-10
2.80143e-09
7.06909e-10
2.47348e-09
6.84529e-10
2.17717e-09
6.17688e-10
1.90288e-09
5.72214e-10
1.63931e-09
5.50017e-10
1.40678e-09
4.84862e-10
1.18807e-09
4.55974e-10
9.83216e-10
4.27e-10
8.02236e-10
3.7703e-10
6.33791e-10
3.50831e-10
4.82037e-10
3.16849e-10
3.48261e-10
2.77329e-10
2.26641e-10
2.543e-10
1.21957e-10
2.1738e-10
3.0602e-11
1.89685e-10
-4.85849e-11
1.6433e-10
-1.13797e-10
1.35175e-10
-1.68626e-10
1.1396e-10
-2.12431e-10
9.10158e-11
-2.46611e-10
7.25563e-11
-2.72493e-10
5.24885e-11
-2.90406e-10
3.82853e-11
-3.02009e-10
2.35353e-11
-3.07852e-10
1.24099e-11
-3.08935e-10
7.96799e-13
-3.05934e-10
-6.89736e-12
-2.99412e-10
-1.48708e-11
-2.90295e-10
-1.83027e-11
-2.81788e-10
-1.93641e-11
-2.72775e-10
-1.89495e-11
-2.63753e-10
-2.06556e-11
-2.54387e-10
-2.01021e-11
-2.45079e-10
-2.23135e-11
-2.36322e-10
-1.93946e-11
-2.27711e-10
-2.09123e-11
-2.19368e-10
-1.86422e-11
-2.11356e-10
-2.06126e-11
-2.03618e-10
-1.72439e-11
-1.96221e-10
-1.86035e-11
-1.88981e-10
-1.6644e-11
-1.8197e-10
-1.84356e-11
-1.75041e-10
-1.58478e-11
-1.68187e-10
-1.76415e-11
-1.61431e-10
-1.58935e-11
-1.54699e-10
-1.8152e-11
-1.48145e-10
-1.51575e-11
-1.41801e-10
-1.71616e-11
-1.35756e-10
-1.42655e-11
-1.302e-10
-1.6783e-11
-1.25116e-10
-1.35873e-11
-1.20747e-10
-1.5442e-11
-1.17062e-10
-8.75426e-12
-1.14219e-10
-1.08989e-11
-1.12253e-10
-6.68781e-12
-1.11165e-10
-8.25205e-12
-1.11011e-10
-3.92794e-12
-1.11736e-10
-5.38952e-12
-1.13331e-10
2.17219e-13
-1.15775e-10
-1.84344e-12
-1.18931e-10
3.00069e-12
-1.22788e-10
9.32474e-14
-1.27075e-10
5.66304e-12
-1.31778e-10
2.07543e-12
-1.36446e-10
6.03403e-12
-1.41041e-10
1.11268e-12
-1.44797e-10
4.5045e-12
-1.47677e-10
-1.77556e-12
-1.48369e-10
-1.77611e-12
-1.46995e-10
-1.08338e-11
-1.40771e-10
-1.81835e-11
-1.31126e-10
-2.53995e-11
-1.11028e-10
-4.62524e-11
-8.46507e-11
-5.74956e-11
-3.26447e-11
-1.18672e-10
3.20958e-11
-1.41817e-10
2.12651e-10
-3.84371e-10
3.73619e-10
-3.56077e-10
-8.18563e-08
2.27761e-08
1.96685e-08
-6.01539e-08
-1.90359e-08
2.18966e-08
-5.4943e-09
2.79467e-08
-1.50889e-08
3.26572e-08
-1.17698e-08
3.1016e-08
4.29377e-09
2.57109e-08
1.34032e-08
2.43624e-08
3.22489e-09
2.28433e-08
3.78997e-09
2.06288e-08
5.49545e-09
1.88049e-08
4.50844e-09
1.69478e-08
4.58858e-09
1.53771e-08
3.87063e-09
1.38468e-08
3.77057e-09
1.25898e-08
3.09133e-09
1.13798e-08
2.97632e-09
1.03193e-08
2.60624e-09
9.3683e-09
2.33547e-09
8.45573e-09
2.24126e-09
7.6828e-09
1.89668e-09
6.94761e-09
1.80391e-09
6.255e-09
1.69955e-09
5.64896e-09
1.48598e-09
5.06395e-09
1.43487e-09
4.52457e-09
1.32294e-09
4.03706e-09
1.1941e-09
3.56548e-09
1.15603e-09
3.13929e-09
1.04342e-09
2.74465e-09
9.66739e-10
2.36547e-09
9.29142e-10
2.03081e-09
8.19378e-10
1.716e-09
7.70593e-10
1.42112e-09
7.21672e-10
1.1605e-09
6.37424e-10
9.17908e-10
5.93195e-10
6.993e-10
5.35434e-10
5.06516e-10
4.69399e-10
3.31219e-10
4.29822e-10
1.80277e-10
3.67856e-10
4.84995e-11
3.21162e-10
-6.57653e-11
2.78337e-10
-1.59925e-10
2.29031e-10
-2.39134e-10
1.93019e-10
-3.0247e-10
1.54191e-10
-3.51945e-10
1.22396e-10
-3.89465e-10
8.93608e-11
-4.15498e-10
6.46774e-11
-4.32433e-10
3.99646e-11
-4.41063e-10
2.11168e-11
-4.42819e-10
1.61717e-12
-4.38687e-10
-1.13638e-11
-4.29468e-10
-2.47328e-11
-4.16502e-10
-3.10236e-11
-4.04369e-10
-3.22834e-11
-3.91496e-10
-3.19702e-11
-3.78596e-10
-3.44246e-11
-3.65195e-10
-3.3917e-11
-3.51867e-10
-3.69827e-11
-3.39321e-10
-3.23976e-11
-3.26981e-10
-3.45699e-11
-3.15021e-10
-3.12423e-11
-3.03531e-10
-3.37371e-11
-2.92436e-10
-2.86993e-11
-2.81823e-10
-3.05316e-11
-2.71437e-10
-2.75279e-11
-2.61375e-10
-2.99537e-11
-2.51432e-10
-2.61711e-11
-2.41596e-10
-2.87608e-11
-2.31899e-10
-2.61069e-11
-2.22235e-10
-2.92767e-11
-2.1283e-10
-2.49504e-11
-2.03722e-10
-2.76809e-11
-1.95045e-10
-2.34854e-11
-1.87068e-10
-2.64297e-11
-1.79769e-10
-2.17769e-11
-1.73494e-10
-2.35039e-11
-1.68205e-10
-1.44036e-11
-1.6412e-10
-1.64568e-11
-1.61297e-10
-1.01992e-11
-1.59732e-10
-1.13277e-11
-1.59508e-10
-5.27179e-12
-1.60545e-10
-6.47335e-12
-1.62832e-10
1.61932e-12
-1.66337e-10
-2.99573e-13
-1.70862e-10
6.40006e-12
-1.76392e-10
3.35766e-12
-1.82541e-10
1.09009e-11
-1.89284e-10
6.78289e-12
-1.95976e-10
1.16745e-11
-2.02561e-10
5.49024e-12
-2.07941e-10
9.03087e-12
-2.12063e-10
3.61804e-13
-2.13044e-10
-1.53529e-12
-2.1106e-10
-1.47353e-11
-2.02116e-10
-2.85497e-11
-1.88269e-10
-4.06169e-11
-1.59431e-10
-7.62934e-11
-1.21604e-10
-9.60295e-11
-4.7043e-11
-1.95442e-10
4.56239e-11
-2.36082e-10
3.03509e-10
-6.43796e-10
5.30679e-10
-5.84454e-10
-1.05658e-07
2.43298e-08
2.66934e-08
-6.10993e-08
-2.57457e-08
2.97412e-08
-8.54186e-09
3.78587e-08
-2.32065e-08
4.41893e-08
-1.81003e-08
4.20966e-08
6.38647e-09
3.50483e-08
2.04519e-08
3.31797e-08
5.09359e-09
3.11264e-08
5.84352e-09
2.81422e-08
8.47977e-09
2.56659e-08
6.98481e-09
2.31478e-08
7.10676e-09
2.10106e-08
6.00811e-09
1.89288e-08
5.85244e-09
1.72154e-08
4.80486e-09
1.5566e-08
4.62586e-09
1.41191e-08
4.05338e-09
1.28208e-08
3.63386e-09
1.15749e-08
3.4872e-09
1.05189e-08
2.95273e-09
9.51437e-09
2.80852e-09
8.56794e-09
2.64608e-09
7.73927e-09
2.3147e-09
6.93947e-09
2.23473e-09
6.20191e-09
2.06053e-09
5.53496e-09
1.86116e-09
4.8899e-09
1.80114e-09
4.30676e-09
1.62667e-09
3.76664e-09
1.50698e-09
3.24769e-09
1.44821e-09
2.7895e-09
1.27764e-09
2.35842e-09
1.20175e-09
1.9546e-09
1.12557e-09
1.59756e-09
9.94506e-10
1.26515e-09
9.25605e-10
9.65553e-10
8.35126e-10
7.01236e-10
7.33802e-10
4.60846e-10
6.70359e-10
2.53774e-10
5.75141e-10
7.29156e-11
5.01991e-10
-8.39665e-11
4.35128e-10
-2.13329e-10
3.58408e-10
-3.22217e-10
3.01998e-10
-4.0936e-10
2.41466e-10
-4.77512e-10
1.90693e-10
-5.29274e-10
1.41428e-10
-5.65288e-10
1.00866e-10
-5.88819e-10
6.38212e-11
-6.00954e-10
3.33181e-11
-6.03652e-10
4.57565e-12
-5.98265e-10
-1.66979e-11
-5.8589e-10
-3.71618e-11
-5.68363e-10
-4.85666e-11
-5.51913e-10
-4.85698e-11
-5.34434e-10
-4.95023e-11
-5.16892e-10
-5.19888e-11
-4.98659e-10
-5.23005e-11
-4.80512e-10
-5.52452e-11
-4.6342e-10
-4.98419e-11
-4.46601e-10
-5.16566e-11
-4.30295e-10
-4.79234e-11
-4.14625e-10
-4.98519e-11
-3.99492e-10
-4.42454e-11
-3.8501e-10
-4.5432e-11
-3.70838e-10
-4.22759e-11
-3.57105e-10
-4.43441e-11
-3.43535e-10
-4.02836e-11
-3.30107e-10
-4.2746e-11
-3.1687e-10
-4.00451e-11
-3.03677e-10
-4.32887e-11
-2.90837e-10
-3.84279e-11
-2.78401e-10
-4.08249e-11
-2.66556e-10
-3.61585e-11
-2.55662e-10
-3.8316e-11
-2.45695e-10
-3.29081e-11
-2.37125e-10
-3.36496e-11
-2.29902e-10
-2.22966e-11
-2.24322e-10
-2.30452e-11
-2.20465e-10
-1.51763e-11
-2.18325e-10
-1.51118e-11
-2.18014e-10
-6.92339e-12
-2.19426e-10
-6.63877e-12
-2.22543e-10
3.44369e-12
-2.27322e-10
2.71036e-12
-2.33494e-10
1.11459e-11
-2.41035e-10
8.98717e-12
-2.4942e-10
1.78736e-11
-2.58612e-10
1.3923e-11
-2.67735e-10
1.92201e-11
-2.76707e-10
1.21894e-11
-2.84034e-10
1.49335e-11
-2.8964e-10
3.79981e-12
-2.90957e-10
-1.76264e-12
-2.88225e-10
-1.97717e-11
-2.76e-10
-4.26135e-11
-2.57082e-10
-6.14577e-11
-2.17727e-10
-1.17321e-10
-1.6612e-10
-1.4902e-10
-6.44708e-11
-2.99835e-10
6.16981e-11
-3.64475e-10
4.11837e-10
-9.96137e-10
7.18355e-10
-8.92569e-10
-1.30916e-07
2.59755e-08
3.50262e-08
-6.24633e-08
-3.3664e-08
3.90623e-08
-1.25781e-08
4.95817e-08
-3.3726e-08
5.78062e-08
-2.63248e-08
5.52474e-08
8.94505e-09
4.62069e-08
2.94922e-08
4.37076e-08
7.59273e-09
4.10217e-08
8.52925e-09
3.71372e-08
1.23642e-08
3.38859e-08
1.02359e-08
3.05852e-08
1.04074e-08
2.77727e-08
8.82045e-09
2.50338e-08
8.59113e-09
2.27748e-08
7.06351e-09
2.06001e-08
6.80059e-09
1.86906e-08
5.96265e-09
1.69761e-08
5.34824e-09
1.53307e-08
5.13249e-09
1.39349e-08
4.34833e-09
1.26071e-08
4.13621e-09
1.13559e-08
3.89712e-09
1.02597e-08
3.41077e-09
9.20181e-09
3.29261e-09
8.22604e-09
3.0363e-09
7.34326e-09
2.7436e-09
6.48957e-09
2.6547e-09
5.71759e-09
2.39811e-09
5.00233e-09
2.22209e-09
4.31514e-09
2.13531e-09
3.70817e-09
1.88443e-09
3.13702e-09
1.77265e-09
2.60193e-09
1.66039e-09
2.12863e-09
1.46752e-09
1.68792e-09
1.36603e-09
1.2906e-09
1.23229e-09
9.39929e-10
1.08374e-09
6.20931e-10
9.8952e-10
3.46034e-10
8.49557e-10
1.05824e-10
7.41823e-10
-1.02625e-10
6.43255e-10
-2.74628e-10
5.3006e-10
-4.19497e-10
4.46678e-10
-5.35544e-10
3.57289e-10
-6.26414e-10
2.81772e-10
-6.95543e-10
2.09976e-10
-7.43777e-10
1.49408e-10
-7.75438e-10
9.49177e-11
-7.91966e-10
4.98597e-11
-7.95955e-10
7.51589e-12
-7.89202e-10
-2.3892e-11
-7.73158e-10
-5.40118e-11
-7.50258e-10
-7.13294e-11
-7.28695e-10
-7.09111e-11
-7.05744e-10
-7.2718e-11
-6.82681e-10
-7.59877e-11
-6.58689e-10
-7.68949e-11
-6.3479e-10
-8.05802e-11
-6.12267e-10
-7.29683e-11
-5.90096e-10
-7.52688e-11
-5.68594e-10
-7.02934e-11
-5.47921e-10
-7.23009e-11
-5.27955e-10
-6.46876e-11
-5.0884e-10
-6.59805e-11
-4.90135e-10
-6.16248e-11
-4.72002e-10
-6.40709e-11
-4.54086e-10
-5.8681e-11
-4.36355e-10
-6.18705e-11
-4.18874e-10
-5.81783e-11
-4.0145e-10
-6.23012e-11
-3.84495e-10
-5.58836e-11
-3.68068e-10
-5.87582e-11
-3.52425e-10
-5.25701e-11
-3.38034e-10
-5.44167e-11
-3.24869e-10
-4.717e-11
-3.13547e-10
-4.68221e-11
-3.04005e-10
-3.23954e-11
-2.96631e-10
-3.18834e-11
-2.91533e-10
-2.11397e-11
-2.88702e-10
-1.94637e-11
-2.88285e-10
-8.7212e-12
-2.90143e-10
-6.97459e-12
-2.94253e-10
6.44415e-12
-3.00556e-10
6.99143e-12
-3.08696e-10
1.78698e-11
-3.18642e-10
1.66411e-11
-3.29701e-10
2.77908e-11
-3.41823e-10
2.39951e-11
-3.53848e-10
2.99259e-11
-3.6567e-10
2.17857e-11
-3.75317e-10
2.35403e-11
-3.82685e-10
9.15951e-12
-3.84392e-10
-1.00136e-12
-3.80744e-10
-2.53429e-11
-3.64573e-10
-6.03395e-11
-3.3956e-10
-8.79428e-11
-2.87609e-10
-1.70739e-10
-2.19487e-10
-2.18174e-10
-8.54581e-11
-4.35935e-10
8.07113e-11
-5.32374e-10
5.40351e-10
-1.45744e-09
9.41543e-10
-1.29522e-09
-1.57694e-07
2.77166e-08
4.4864e-08
-6.43612e-08
-4.29639e-08
5.0086e-08
-1.77998e-08
6.33794e-08
-4.70194e-08
7.38057e-08
-3.67509e-08
7.07824e-08
1.19684e-08
5.94839e-08
4.07911e-08
5.62249e-08
1.0852e-08
5.27937e-08
1.19606e-08
4.78619e-08
1.72961e-08
4.36946e-08
1.44034e-08
3.94717e-08
1.46304e-08
3.5858e-08
1.24345e-08
3.23397e-08
1.21095e-08
2.94314e-08
9.97199e-09
2.66312e-08
9.60092e-09
2.417e-08
8.42412e-09
2.19588e-08
7.55967e-09
1.98362e-08
7.2551e-09
1.80344e-08
6.15019e-09
1.63199e-08
5.85078e-09
1.47044e-08
5.51283e-09
1.32878e-08
4.82736e-09
1.1921e-08
4.65953e-09
1.066e-08
4.29733e-09
9.51856e-09
3.88518e-09
8.41489e-09
3.75844e-09
7.41656e-09
3.39662e-09
6.49126e-09
3.14755e-09
5.60229e-09
3.0244e-09
4.81677e-09
2.67003e-09
4.07749e-09
2.51205e-09
3.38482e-09
2.35317e-09
2.77184e-09
2.08055e-09
2.20099e-09
1.93691e-09
1.6862e-09
1.74715e-09
1.23165e-09
1.5385e-09
8.18053e-10
1.40326e-09
4.61479e-10
1.20644e-09
1.49748e-10
1.05354e-09
-1.20884e-10
9.13779e-10
-3.44359e-10
7.53587e-10
-5.32707e-10
6.35142e-10
-6.83731e-10
5.08483e-10
-8.02144e-10
4.00285e-10
-8.92383e-10
3.00683e-10
-9.55532e-10
2.12724e-10
-9.97186e-10
1.37e-10
-1.0192e-09
7.19589e-11
-1.02494e-09
1.3647e-11
-1.01673e-09
-3.20133e-11
-9.96456e-10
-7.4305e-11
-9.6726e-10
-1.00589e-10
-9.39671e-10
-9.82124e-11
-9.10253e-10
-1.02215e-10
-8.80643e-10
-1.05542e-10
-8.4982e-10
-1.07884e-10
-8.19088e-10
-1.11297e-10
-7.90104e-10
-1.02339e-10
-7.61562e-10
-1.04003e-10
-7.33871e-10
-9.84182e-11
-7.07236e-10
-9.92967e-11
-6.81508e-10
-9.08923e-11
-6.5687e-10
-9.09983e-11
-6.32755e-10
-8.64201e-11
-6.09373e-10
-8.81114e-11
-5.86269e-10
-8.24217e-11
-5.634e-10
-8.52962e-11
-5.40855e-10
-8.15636e-11
-5.18379e-10
-8.5634e-11
-4.96509e-10
-7.85264e-11
-4.75319e-10
-8.06666e-11
-4.5514e-10
-7.3777e-11
-4.36574e-10
-7.39999e-11
-4.1959e-10
-6.55805e-11
-4.04981e-10
-6.31321e-11
-3.92669e-10
-4.55745e-11
-3.83153e-10
-4.2434e-11
-3.7657e-10
-2.91168e-11
-3.72912e-10
-2.49466e-11
-3.72366e-10
-1.08543e-11
-3.74754e-10
-6.26925e-12
-3.80046e-10
1.01561e-11
-3.88164e-10
1.31787e-11
-3.98649e-10
2.6631e-11
-4.11458e-10
2.74111e-11
-4.25701e-10
4.03e-11
-4.41308e-10
3.7362e-11
-4.56786e-10
4.34619e-11
-4.71993e-10
3.45114e-11
-4.84393e-10
3.41815e-11
-4.93843e-10
1.62204e-11
-4.95993e-10
-7.93379e-13
-4.91226e-10
-3.26761e-11
-4.70329e-10
-8.33914e-11
-4.38014e-10
-1.22527e-10
-3.71033e-10
-2.39789e-10
-2.83199e-10
-3.07852e-10
-1.10623e-10
-6.1148e-10
1.03107e-10
-7.48709e-10
6.92128e-10
-2.04905e-09
1.20578e-09
-1.81082e-09
-1.86046e-07
2.95563e-08
5.64287e-08
-6.69546e-08
-5.38372e-08
6.30675e-08
-2.44389e-08
7.9546e-08
-6.34979e-08
9.25193e-08
-4.97242e-08
8.90551e-08
1.54323e-08
7.52194e-08
5.46266e-08
7.1051e-08
1.50202e-08
6.67457e-08
1.62657e-08
6.06026e-08
2.34391e-08
5.53574e-08
1.96484e-08
5.00528e-08
1.99349e-08
4.54924e-08
1.69947e-08
4.10534e-08
1.65482e-08
3.73751e-08
1.36499e-08
3.38331e-08
1.31429e-08
3.07165e-08
1.15404e-08
2.79143e-08
1.03618e-08
2.52241e-08
9.94511e-09
2.29386e-08
8.43561e-09
2.07633e-08
8.02579e-09
1.87134e-08
7.56263e-09
1.69147e-08
6.62589e-09
1.51792e-08
6.39498e-09
1.35778e-08
5.89872e-09
1.21275e-08
5.33517e-09
1.07252e-08
5.16046e-09
9.45646e-09
4.66478e-09
8.28005e-09
4.32376e-09
7.14987e-09
4.15445e-09
6.15078e-09
3.6689e-09
5.2103e-09
3.45221e-09
4.32903e-09
3.23411e-09
3.54878e-09
2.86045e-09
2.82201e-09
2.66332e-09
2.16644e-09
2.40243e-09
1.58729e-09
2.11686e-09
1.06021e-09
1.93044e-09
6.05572e-10
1.66056e-09
2.07907e-10
1.45076e-09
-1.37494e-10
1.25878e-09
-4.22925e-10
1.03863e-09
-6.63666e-10
8.75651e-10
-8.569e-10
7.01436e-10
-1.00862e-09
5.52026e-10
-1.12445e-09
4.1598e-10
-1.20576e-09
2.94262e-10
-1.25966e-09
1.90243e-10
-1.28852e-09
1.00731e-10
-1.29661e-09
2.05244e-11
-1.28689e-09
-4.2271e-11
-1.26176e-09
-1.00392e-10
-1.22523e-09
-1.3711e-10
-1.19057e-09
-1.3366e-10
-1.15354e-09
-1.39607e-10
-1.11621e-09
-1.43905e-10
-1.07731e-09
-1.47622e-10
-1.03849e-09
-1.51715e-10
-1.00185e-09
-1.3978e-10
-9.65751e-10
-1.41727e-10
-9.30717e-10
-1.34634e-10
-8.97004e-10
-1.35016e-10
-8.64432e-10
-1.24079e-10
-8.33226e-10
-1.23813e-10
-8.02682e-10
-1.17801e-10
-7.73057e-10
-1.19537e-10
-7.43785e-10
-1.12279e-10
-7.14804e-10
-1.15823e-10
-6.86232e-10
-1.10953e-10
-6.57748e-10
-1.15889e-10
-6.30031e-10
-1.0685e-10
-6.03172e-10
-1.0916e-10
-5.77598e-10
-1.00369e-10
-5.54063e-10
-9.93206e-11
-5.32533e-10
-8.84021e-11
-5.14012e-10
-8.35695e-11
-4.98404e-10
-6.19469e-11
-4.86336e-10
-5.5982e-11
-4.77986e-10
-3.84225e-11
-4.73341e-10
-3.11302e-11
-4.72639e-10
-1.32004e-11
-4.75653e-10
-5.55466e-12
-4.82347e-10
1.55309e-11
-4.92617e-10
2.13376e-11
-5.05884e-10
3.8207e-11
-5.2209e-10
4.12706e-11
-5.4011e-10
5.69883e-11
-5.59848e-10
5.50211e-11
-5.79417e-10
6.14696e-11
-5.9863e-10
5.14524e-11
-6.14281e-10
4.86817e-11
-6.2618e-10
2.60752e-11
-6.28829e-10
7.63617e-13
-6.22699e-10
-4.07524e-11
-5.96154e-10
-1.11693e-10
-5.55123e-10
-1.65216e-10
-4.70269e-10
-3.26346e-10
-3.58984e-10
-4.2043e-10
-1.40686e-10
-8.31699e-10
1.29382e-10
-1.02072e-09
8.7064e-10
-2.79217e-09
1.51737e-09
-2.45924e-09
-2.1603e-07
3.14978e-08
6.99683e-08
-7.0425e-08
-6.6496e-08
7.8293e-08
-3.27633e-08
9.84082e-08
-8.3613e-08
1.14313e-07
-6.56292e-08
1.10462e-07
1.92843e-08
9.38005e-08
7.1288e-08
8.85514e-08
2.02695e-08
8.32252e-08
2.15922e-08
7.56883e-08
3.09762e-08
6.91807e-08
2.61562e-08
6.26127e-08
2.65031e-08
5.6938e-08
2.26696e-08
5.14154e-08
2.20709e-08
4.68274e-08
1.82381e-08
4.24084e-08
1.7562e-08
3.85157e-08
1.54335e-08
3.50128e-08
1.38648e-08
3.16493e-08
1.33087e-08
2.87892e-08
1.12958e-08
2.60666e-08
1.07485e-08
2.35005e-08
1.01289e-08
2.12471e-08
8.87938e-09
1.90732e-08
8.569e-09
1.70666e-08
7.90529e-09
1.52483e-08
7.15368e-09
1.34906e-08
6.91828e-09
1.18995e-08
6.25606e-09
1.04238e-08
5.79971e-09
9.00602e-09
5.57232e-09
7.75214e-09
4.92289e-09
6.57156e-09
4.63292e-09
5.46519e-09
4.34063e-09
4.48514e-09
3.84055e-09
3.57209e-09
3.57642e-09
2.74824e-09
3.22635e-09
2.02004e-09
2.84534e-09
1.35714e-09
2.5935e-09
7.8506e-10
2.23301e-09
2.84397e-10
1.95142e-09
-1.50684e-10
1.69372e-09
-5.10516e-10
1.39856e-09
-8.14242e-10
1.1795e-09
-1.0583e-09
9.457e-10
-1.2502e-09
7.44013e-10
-1.397e-09
5.63374e-10
-1.50037e-09
3.97813e-10
-1.56928e-09
2.59652e-10
-1.60664e-09
1.38207e-10
-1.61785e-09
3.22248e-11
-1.60662e-09
-5.33734e-11
-1.57598e-09
-1.31023e-10
-1.53093e-09
-1.82246e-10
-1.48802e-09
-1.76189e-10
-1.44206e-09
-1.85675e-10
-1.39565e-09
-1.9022e-10
-1.34724e-09
-1.96207e-10
-1.29889e-09
-1.9997e-10
-1.2532e-09
-1.85884e-10
-1.20817e-09
-1.86911e-10
-1.16446e-09
-1.78854e-10
-1.12237e-09
-1.77436e-10
-1.08169e-09
-1.65301e-10
-1.0427e-09
-1.63181e-10
-1.00454e-09
-1.56763e-10
-9.67516e-10
-1.57273e-10
-9.30928e-10
-1.49611e-10
-8.94702e-10
-1.52651e-10
-8.58983e-10
-1.47672e-10
-8.23371e-10
-1.52452e-10
-7.88718e-10
-1.42426e-10
-7.55136e-10
-1.43524e-10
-7.23162e-10
-1.33584e-10
-6.93732e-10
-1.29869e-10
-6.66811e-10
-1.17048e-10
-6.43649e-10
-1.08633e-10
-6.24129e-10
-8.25459e-11
-6.09032e-10
-7.21989e-11
-5.98583e-10
-5.05763e-11
-5.92764e-10
-3.9033e-11
-5.91872e-10
-1.59586e-11
-5.95625e-10
-3.67266e-12
-6.03974e-10
2.19755e-11
-6.16791e-10
3.19782e-11
-6.33347e-10
5.2709e-11
-6.5357e-10
5.92365e-11
-6.76054e-10
7.73802e-11
-7.00674e-10
7.71255e-11
-7.25072e-10
8.35153e-11
-7.49008e-10
7.26037e-11
-7.68485e-10
6.60216e-11
-7.8325e-10
3.81418e-11
-7.86456e-10
1.58241e-12
-7.78664e-10
-5.14696e-11
-7.4539e-10
-1.47507e-10
-6.9398e-10
-2.1933e-10
-5.87936e-10
-4.34915e-10
-4.48842e-10
-5.61871e-10
-1.7649e-10
-1.10736e-09
1.60091e-10
-1.36035e-09
1.07979e-09
-3.71493e-09
1.88344e-09
-3.26524e-09
-2.47692e-07
3.3544e-08
8.57594e-08
-7.5012e-08
-8.11743e-08
9.60824e-08
-4.30865e-08
1.20327e-07
-1.07858e-07
1.39591e-07
-8.48935e-08
1.35443e-07
2.34319e-08
1.15667e-07
9.10638e-08
1.09143e-07
2.67936e-08
1.02629e-07
2.81055e-08
9.34974e-08
4.01077e-08
8.55177e-08
3.41355e-08
7.74798e-08
3.45409e-08
7.04986e-08
2.96505e-08
6.3705e-08
2.88642e-08
5.80455e-08
2.38971e-08
5.25932e-08
2.30143e-08
4.77841e-08
2.02423e-08
4.34529e-08
1.81958e-08
3.9293e-08
1.74684e-08
3.57525e-08
1.48362e-08
3.23812e-08
1.41195e-08
2.92034e-08
1.33066e-08
2.64104e-08
1.16721e-08
2.37162e-08
1.12632e-08
2.12288e-08
1.03926e-08
1.89733e-08
9.40874e-09
1.67932e-08
9.09811e-09
1.48192e-08
8.22939e-09
1.29874e-08
7.63126e-09
1.12277e-08
7.33189e-09
9.67056e-09
6.47975e-09
8.20415e-09
6.09895e-09
6.82972e-09
5.71468e-09
5.61157e-09
5.05827e-09
4.47645e-09
4.71113e-09
3.45188e-09
4.25051e-09
2.54579e-09
3.75057e-09
1.7207e-09
3.41864e-09
1.00828e-09
2.94487e-09
3.84427e-10
2.57474e-09
-1.57999e-10
2.23566e-09
-6.06995e-10
1.84717e-09
-9.86293e-10
1.55856e-09
-1.29143e-09
1.25047e-09
-1.53174e-09
9.842e-10
-1.71592e-09
7.47042e-10
-1.84608e-09
5.2814e-10
-1.9333e-09
3.4611e-10
-1.98124e-09
1.85977e-10
-1.99656e-09
4.61797e-11
-1.98391e-09
-6.66748e-11
-1.94705e-09
-1.69048e-10
-1.89218e-09
-2.37187e-10
-1.83966e-09
-2.29526e-10
-1.78329e-09
-2.42528e-10
-1.72624e-09
-2.48431e-10
-1.66667e-09
-2.56824e-10
-1.6071e-09
-2.61324e-10
-1.55077e-09
-2.43197e-10
-1.49522e-09
-2.44294e-10
-1.44126e-09
-2.34292e-10
-1.38928e-09
-2.31685e-10
-1.33904e-09
-2.16302e-10
-1.29087e-09
-2.13173e-10
-1.2437e-09
-2.04971e-10
-1.19792e-09
-2.05098e-10
-1.15269e-09
-1.95556e-10
-1.10789e-09
-1.99191e-10
-1.06372e-09
-1.92856e-10
-1.01968e-09
-1.98502e-10
-9.76823e-10
-1.86022e-10
-9.35288e-10
-1.86877e-10
-8.95742e-10
-1.74401e-10
-8.59339e-10
-1.68214e-10
-8.2604e-10
-1.51896e-10
-7.97386e-10
-1.39379e-10
-7.73237e-10
-1.07676e-10
-7.54556e-10
-9.24605e-11
-7.41619e-10
-6.4638e-11
-7.34408e-10
-4.79282e-11
-7.33287e-10
-1.90261e-11
-7.37907e-10
-1.56983e-12
-7.48207e-10
3.06951e-11
-7.64025e-10
4.54742e-11
-7.8446e-10
7.11377e-11
-8.09418e-10
8.16621e-11
-8.37163e-10
1.03545e-10
-8.67531e-10
1.05246e-10
-8.97613e-10
1.11729e-10
-9.27099e-10
9.96218e-11
-9.51063e-10
8.86423e-11
-9.69171e-10
5.4029e-11
-9.72989e-10
4.07417e-12
-9.63175e-10
-6.34077e-11
-9.21901e-10
-1.90723e-10
-8.58162e-10
-2.84882e-10
-7.27067e-10
-5.68036e-10
-5.55082e-10
-7.35482e-10
-2.19017e-10
-1.44539e-09
1.95848e-10
-1.77734e-09
1.32396e-09
-4.84509e-09
2.31204e-09
-4.25529e-09
-2.81081e-07
3.56975e-08
1.04108e-07
-8.09903e-08
-9.8128e-08
1.16791e-07
-5.57693e-08
1.45699e-07
-1.36765e-07
1.68794e-07
-1.07988e-07
1.6449e-07
2.77356e-08
1.41316e-07
1.14238e-07
1.33299e-07
3.48111e-08
1.2541e-07
3.59948e-08
1.14463e-07
5.10551e-08
1.04774e-07
4.38245e-08
9.50335e-08
4.42819e-08
8.65257e-08
3.81586e-08
7.82463e-08
3.71438e-08
7.13288e-08
3.08148e-08
6.46623e-08
2.96811e-08
5.87742e-08
2.61307e-08
5.34664e-08
2.35038e-08
4.8367e-08
2.25679e-08
4.40225e-08
1.91807e-08
3.98846e-08
1.82575e-08
3.59835e-08
1.72079e-08
3.25517e-08
1.5104e-08
2.92416e-08
1.45734e-08
2.61847e-08
1.34496e-08
2.3411e-08
1.21826e-08
2.07304e-08
1.17788e-08
1.83021e-08
1.0658e-08
1.60478e-08
9.88575e-09
1.38822e-08
9.4976e-09
1.1965e-08
8.39712e-09
1.01589e-08
7.90511e-09
8.46596e-09
7.40782e-09
6.96462e-09
6.55966e-09
5.5653e-09
6.11053e-09
4.30181e-09
5.51406e-09
3.18378e-09
4.86895e-09
2.16538e-09
4.43722e-09
1.28555e-09
3.82513e-09
5.1461e-10
3.34569e-09
-1.56086e-10
2.90616e-09
-7.11762e-10
2.40298e-09
-1.18159e-09
2.02852e-09
-1.56003e-09
1.62913e-09
-1.85854e-09
1.28281e-09
-2.08783e-09
9.77041e-10
-2.25044e-09
6.90942e-10
-2.36003e-09