/*--------------------------------*- C++ -*----------------------------------*\
| =========                 |                                                 |
| \\      /  F ield         | OpenFOAM: The Open Source CFD Toolbox           |
|  \\    /   O peration     | Version:  5.x                                   |
|   \\  /    A nd           | Web:      www.OpenFOAM.org                      |
|    \\/     M anipulation  |                                                 |
\*---------------------------------------------------------------------------*/
FoamFile
{
    version     2.0;
    format      ascii;
    class       volVectorField;
    location    "3500";
    object      U;
}
// * * * * * * * * * * * * * * * * * * * * * * * * * * * * * * * * * * * * * //

dimensions      [0 1 -1 0 0 0 0];

internalField   nonuniform List<vector> 
107912
(
(2.62908e-05 7.54985e-05 -2.84614e-28)
(1.27934e-06 6.389e-05 2.71771e-28)
(3.6115e-06 8.97441e-05 6.66345e-25)
(1.16732e-05 0.000106827 7.30265e-25)
(3.66453e-05 0.000120567 -1.13695e-23)
(4.49252e-05 8.45601e-05 2.69513e-23)
(4.19944e-05 7.36992e-05 2.04886e-23)
(4.88159e-05 7.2227e-05 6.90858e-28)
(4.66011e-05 5.96736e-05 -3.66042e-27)
(4.73127e-05 5.36791e-05 -4.04346e-27)
(4.47091e-05 4.55003e-05 -4.35031e-27)
(4.30826e-05 3.9898e-05 3.3977e-23)
(4.03889e-05 3.42477e-05 6.58124e-23)
(3.80174e-05 2.9782e-05 1.27596e-26)
(3.55348e-05 2.58671e-05 -6.45168e-23)
(3.30286e-05 2.24005e-05 6.44965e-23)
(3.0702e-05 1.95209e-05 7.658e-27)
(2.8386e-05 1.69246e-05 0)
(2.61546e-05 1.46709e-05 -1.19839e-22)
(2.41493e-05 1.27885e-05 -5.59722e-23)
(2.20854e-05 1.10231e-05 0)
(2.01876e-05 9.52769e-06 0)
(1.84184e-05 8.22271e-06 -4.90106e-23)
(1.6643e-05 7.01736e-06 4.73656e-23)
(1.50228e-05 5.99902e-06 4.55862e-23)
(1.34791e-05 5.08812e-06 8.46775e-23)
(1.19677e-05 4.26508e-06 -4.13371e-23)
(1.05985e-05 3.57259e-06 3.90069e-23)
(9.26671e-06 2.94367e-06 -3.61985e-23)
(8.0112e-06 2.39688e-06 -3.56228e-23)
(6.87667e-06 1.93801e-06 3.31114e-23)
(5.77266e-06 1.52453e-06 0)
(4.76301e-06 1.17814e-06 -3.01312e-23)
(3.84647e-06 8.88788e-07 3.36964e-27)
(2.98125e-06 6.39935e-07 -3.29904e-27)
(2.21436e-06 4.40661e-07 -7.16204e-28)
(1.52019e-06 2.78485e-07 2.36598e-23)
(8.94282e-07 1.49256e-07 6.15126e-28)
(3.5665e-07 5.29736e-08 -2.59263e-27)
(-1.21093e-07 -1.91855e-08 -2.02658e-23)
(-5.24314e-07 -6.80753e-08 2.41925e-27)
(-8.60426e-07 -9.79929e-08 0)
(-1.1408e-06 -1.12881e-07 0)
(-1.35883e-06 -1.15051e-07 -8.41634e-24)
(-1.53025e-06 -1.07945e-07 0)
(-1.65232e-06 -9.34145e-08 -1.54893e-23)
(-1.73514e-06 -7.41584e-08 -3.67356e-24)
(-1.78268e-06 -5.1537e-08 -3.55761e-24)
(-1.79965e-06 -2.74325e-08 0)
(-1.79126e-06 -2.80137e-09 0)
(-1.76066e-06 2.12811e-08 -1.5875e-24)
(-1.71047e-06 4.39537e-08 -1.49373e-27)
(-1.65641e-06 6.42836e-08 -3.68989e-24)
(-1.60157e-06 7.86717e-08 -3.65144e-24)
(-1.54551e-06 8.92016e-08 -7.2621e-24)
(-1.49022e-06 1.0014e-07 7.22127e-24)
(-1.43005e-06 1.07389e-07 -1.43386e-23)
(-1.3747e-06 1.12551e-07 -8.70814e-28)
(-1.32107e-06 1.17769e-07 7.10054e-24)
(-1.268e-06 1.2188e-07 -7.06638e-24)
(-1.21792e-06 1.25542e-07 0)
(-1.16882e-06 1.2849e-07 -1.40396e-23)
(-1.12246e-06 1.30763e-07 8.55797e-28)
(-1.07742e-06 1.32783e-07 1.39595e-23)
(-1.03347e-06 1.33928e-07 8.51839e-28)
(-9.91163e-07 1.34757e-07 -1.38841e-23)
(-9.48842e-07 1.35047e-07 -4.23787e-28)
(-9.076e-07 1.34696e-07 0)
(-8.66948e-07 1.34069e-07 -1.38045e-23)
(-8.26567e-07 1.32862e-07 0)
(-7.88133e-07 1.31308e-07 -1.37631e-23)
(-7.50726e-07 1.29665e-07 -2.75535e-23)
(-7.16051e-07 1.27744e-07 0)
(-6.84218e-07 1.26184e-07 4.18268e-28)
(-6.55551e-07 1.24574e-07 -4.2152e-28)
(-6.31304e-07 1.23729e-07 -4.17461e-28)
(-6.10659e-07 1.23195e-07 2.75036e-23)
(-5.95319e-07 1.23471e-07 -5.49512e-23)
(-5.84376e-07 1.24545e-07 0)
(-5.78398e-07 1.2659e-07 0)
(-5.7718e-07 1.29539e-07 2.72719e-23)
(-5.80327e-07 1.33697e-07 -2.7661e-23)
(-5.88105e-07 1.38714e-07 2.72214e-23)
(-5.99562e-07 1.45049e-07 4.21297e-28)
(-6.14665e-07 1.52004e-07 -2.08089e-28)
(-6.32513e-07 1.60345e-07 2.75858e-23)
(-6.51987e-07 1.68863e-07 4.27672e-28)
(-6.73074e-07 1.78527e-07 -1.88611e-31)
(-6.92235e-07 1.87449e-07 -2.07562e-28)
(-7.11502e-07 1.97145e-07 -2.77467e-23)
(-7.2241e-07 2.04403e-07 0)
(-7.32183e-07 2.11763e-07 -2.09849e-28)
(-7.2138e-07 2.13041e-07 3.12906e-28)
(-7.11136e-07 2.14423e-07 -1.03818e-28)
(-6.53136e-07 2.01105e-07 -6.3681e-29)
(-6.1053e-07 1.91983e-07 -2.74038e-23)
(-4.51144e-07 1.44875e-07 2.70714e-23)
(-3.54479e-07 1.15723e-07 -5.45379e-23)
(5.10725e-08 -1.74271e-08 -1.04159e-28)
(2.58734e-07 -8.93476e-08 2.75864e-23)
(1.78876e-06 -6.24703e-07 -9.06944e-29)
(2.37843e-06 -3.06678e-06 5.835e-23)
(5.82469e-05 0.000230198 0)
(4.06777e-06 0.000196541 0)
(1.1568e-05 0.000273692 -5.76959e-27)
(3.59857e-05 0.000325199 -2.31574e-24)
(0.000111325 0.000366713 9.08647e-24)
(0.00013712 0.000259314 0)
(0.00012864 0.00022606 -5.07149e-27)
(0.000149333 0.000221071 -4.68118e-23)
(0.00014282 0.000183229 -4.80158e-23)
(0.000145021 0.000164732 -1.28801e-26)
(0.000137192 0.000139848 1.26582e-26)
(0.000132242 0.00012264 -5.41536e-23)
(0.000124056 0.000105359 -1.0483e-22)
(0.000116813 9.16481e-05 5.4534e-23)
(0.000109226 7.96359e-05 -1.24676e-26)
(0.000101558 6.8992e-05 0)
(9.44298e-05 6.01411e-05 9.99895e-23)
(8.73315e-05 5.21614e-05 -9.36165e-23)
(8.04884e-05 4.52321e-05 9.55142e-23)
(7.4332e-05 3.94387e-05 8.92202e-23)
(6.79985e-05 3.40097e-05 -8.50145e-23)
(6.21694e-05 2.94056e-05 -1.01762e-26)
(5.67329e-05 2.53872e-05 1.88012e-26)
(5.12791e-05 2.16768e-05 -9.29919e-27)
(4.62981e-05 1.85388e-05 -7.26832e-23)
(4.15515e-05 1.57321e-05 -1.34976e-22)
(3.69048e-05 1.31962e-05 -8.13499e-27)
(3.26924e-05 1.10603e-05 0)
(2.85953e-05 9.12099e-06 6.95447e-27)
(2.47322e-05 7.43412e-06 5.67936e-23)
(2.12395e-05 6.01729e-06 2.84838e-27)
(1.78413e-05 4.74092e-06 4.95832e-23)
(1.47323e-05 3.67054e-06 9.60828e-23)
(1.19089e-05 2.7758e-06 0)
(9.24377e-06 2.00604e-06 0)
(6.88024e-06 1.38878e-06 4.05127e-23)
(4.74032e-06 8.8596e-07 -1.26417e-28)
(2.81044e-06 4.84739e-07 -3.64435e-23)
(1.15178e-06 1.85067e-07 4.13402e-27)
(-3.22401e-07 -4.00186e-08 -3.99619e-27)
(-1.56738e-06 -1.93308e-07 0)
(-2.60582e-06 -2.87936e-07 -1.46513e-23)
(-3.47248e-06 -3.3602e-07 7.35364e-29)
(-4.14728e-06 -3.44758e-07 3.31111e-27)
(-4.67833e-06 -3.24632e-07 0)
(-5.05735e-06 -2.81493e-07 1.2346e-23)
(-5.31532e-06 -2.23522e-07 5.86186e-24)
(-5.46446e-06 -1.55041e-07 -1.3956e-27)
(-5.51926e-06 -8.17727e-08 -2.71843e-24)
(-5.49577e-06 -6.75027e-09 0)
(-5.40368e-06 6.6727e-08 -5.54761e-29)
(-5.25111e-06 1.35999e-07 4.87606e-24)
(-5.08624e-06 1.98183e-07 1.17689e-23)
(-4.91872e-06 2.42212e-07 5.82378e-24)
(-4.74721e-06 2.74476e-07 1.15811e-23)
(-4.57792e-06 3.07963e-07 -2.30308e-23)
(-4.39363e-06 3.30188e-07 1.14304e-23)
(-4.22392e-06 3.45999e-07 0)
(-4.05947e-06 3.62006e-07 1.13196e-23)
(-3.89669e-06 3.74595e-07 -1.12665e-23)
(-3.74299e-06 3.85846e-07 1.3706e-27)
(-3.5923e-06 3.94894e-07 2.23832e-23)
(-3.45001e-06 4.01876e-07 1.36463e-27)
(-3.31173e-06 4.08065e-07 0)
(-3.17673e-06 4.11588e-07 2.22313e-23)
(-3.04681e-06 4.14128e-07 2.214e-23)
(-2.91685e-06 4.15011e-07 0)
(-2.79017e-06 4.13923e-07 -2.20977e-23)
(-2.66527e-06 4.11996e-07 -2.20124e-23)
(-2.54123e-06 4.08289e-07 0)
(-2.42317e-06 4.03515e-07 -2.19471e-23)
(-2.30825e-06 3.9849e-07 6.00487e-28)
(-2.20171e-06 3.92558e-07 -2.19972e-23)
(-2.10387e-06 3.87807e-07 6.67606e-28)
(-2.01572e-06 3.82888e-07 0)
(-1.94119e-06 3.80343e-07 4.36423e-23)
(-1.87779e-06 3.7871e-07 -4.38563e-23)
(-1.83061e-06 3.79606e-07 8.76244e-23)
(-1.79695e-06 3.82934e-07 0)
(-1.77854e-06 3.89255e-07 -4.40167e-23)
(-1.77475e-06 3.98389e-07 6.41612e-28)
(-1.78439e-06 4.11187e-07 4.42368e-30)
(-1.80825e-06 4.26642e-07 -4.34077e-23)
(-1.84342e-06 4.46132e-07 4.40267e-23)
(-1.88976e-06 4.67554e-07 -4.34774e-23)
(-1.94456e-06 4.93198e-07 3.35482e-28)
(-2.00436e-06 5.19384e-07 8.69439e-23)
(-2.06909e-06 5.49071e-07 4.40393e-23)
(-2.12791e-06 5.76491e-07 0)
(-2.18702e-06 6.06236e-07 3.37381e-28)
(-2.22053e-06 6.28503e-07 -6.58112e-28)
(-2.25045e-06 6.50992e-07 -4.38898e-23)
(-2.21732e-06 6.5485e-07 -3.32388e-28)
(-2.18566e-06 6.58875e-07 3.311e-28)
(-2.00781e-06 6.17836e-07 -4.38572e-23)
(-1.87659e-06 5.8931e-07 4.36991e-23)
(-1.388e-06 4.44465e-07 5.46121e-29)
(-1.09045e-06 3.53715e-07 4.34836e-23)
(1.52207e-07 -5.53534e-08 8.2982e-29)
(7.89549e-07 -2.80965e-07 -4.39898e-23)
(5.45238e-06 -1.91484e-06 -5.47312e-28)
(5.71266e-06 -9.54924e-06 -1.3963e-22)
(6.04069e-05 0.000394865 -3.63952e-24)
(7.30416e-06 0.000338567 -2.65244e-24)
(2.08431e-05 0.000469017 -1.13174e-24)
(6.24556e-05 0.000556588 1.2375e-24)
(0.00019004 0.000627273 9.70658e-24)
(0.000235034 0.000446756 9.31681e-27)
(0.000221238 0.000389403 -4.78691e-27)
(0.00025645 0.000380191 1.00658e-22)
(0.000245734 0.000315945 1.03244e-22)
(0.000249528 0.000283935 1.26589e-26)
(0.000236312 0.000241348 0)
(0.00022785 0.000211669 1.44148e-26)
(0.000213879 0.000181961 2.25513e-22)
(0.000201457 0.000158318 0)
(0.00018844 0.000137614 -1.35501e-26)
(0.00017527 0.000119257 1.34493e-26)
(0.000163007 0.00010398 -1.07571e-22)
(0.000150793 9.02079e-05 1.00717e-22)
(0.000139013 7.82437e-05 0)
(0.000128403 6.82345e-05 -9.60128e-23)
(0.000117492 5.88598e-05 9.14884e-23)
(0.000107442 5.09022e-05 9.03744e-23)
(9.8065e-05 4.3957e-05 1.68116e-22)
(8.86609e-05 3.75456e-05 1.9827e-26)
(8.00655e-05 3.21186e-05 -1.90946e-26)
(7.18735e-05 2.72654e-05 7.26411e-23)
(6.38553e-05 2.28804e-05 0)
(5.65814e-05 1.91844e-05 8.0736e-27)
(4.95072e-05 1.58293e-05 -7.67689e-27)
(4.28362e-05 1.29097e-05 -7.36811e-27)
(3.68016e-05 1.04563e-05 9.94177e-27)
(3.09313e-05 8.24635e-06 -1.06719e-22)
(2.55587e-05 6.39166e-06 -5.16941e-23)
(2.06782e-05 4.84074e-06 -5.94533e-27)
(1.60711e-05 3.50607e-06 5.50604e-27)
(1.19837e-05 2.43477e-06 -5.39722e-27)
(8.28211e-06 1.5616e-06 0)
(4.94332e-06 8.64195e-07 4.7263e-27)
(2.07226e-06 3.42451e-07 -9.01478e-27)
(-4.79881e-07 -5.00113e-08 3.47835e-23)
(-2.63636e-06 -3.18207e-07 4.0544e-27)
(-4.43608e-06 -4.84664e-07 1.576e-23)
(-5.93876e-06 -5.70387e-07 0)
(-7.11005e-06 -5.87835e-07 0)
(-8.03262e-06 -5.55032e-07 -1.37102e-23)
(-8.69236e-06 -4.82256e-07 3.27435e-27)
(-9.14259e-06 -3.83521e-07 3.0553e-27)
(-9.40449e-06 -2.6641e-07 -3.00405e-27)
(-9.50306e-06 -1.40788e-07 2.92848e-24)
(-9.46604e-06 -1.1962e-08 -2.7696e-27)
(-9.31017e-06 1.14357e-07 2.7257e-24)
(-9.04956e-06 2.33581e-07 -5.25034e-24)
(-8.7671e-06 3.407e-07 -6.3307e-24)
(-8.47965e-06 4.16607e-07 6.26485e-24)
(-8.18496e-06 4.723e-07 1.24658e-23)
(-7.8939e-06 5.30051e-07 1.23941e-23)
(-7.57693e-06 5.68469e-07 0)
(-7.28483e-06 5.95815e-07 1.22656e-23)
(-7.00168e-06 6.23489e-07 -1.2184e-23)
(-6.72138e-06 6.45262e-07 1.21284e-23)
(-6.45658e-06 6.64761e-07 -1.21035e-23)
(-6.19695e-06 6.8042e-07 -2.40942e-23)
(-5.95176e-06 6.9253e-07 2.93373e-27)
(-5.71345e-06 7.03244e-07 2.39583e-23)
(-5.48072e-06 7.09384e-07 -4.78542e-23)
(-5.25674e-06 7.13795e-07 -2.38281e-23)
(-5.03272e-06 7.1536e-07 0)
(-4.8143e-06 7.13509e-07 2.37826e-23)
(-4.59891e-06 7.10222e-07 4.73818e-23)
(-4.38504e-06 7.03862e-07 0)
(-4.18144e-06 6.95682e-07 2.36207e-23)
(-3.98329e-06 6.87049e-07 2.36446e-23)
(-3.79955e-06 6.76895e-07 -1.42746e-27)
(-3.63079e-06 6.68743e-07 7.17827e-28)
(-3.47868e-06 6.60342e-07 -1.44616e-27)
(-3.35013e-06 6.56006e-07 -4.69697e-23)
(-3.24081e-06 6.53299e-07 4.72022e-23)
(-3.15938e-06 6.54899e-07 -4.71544e-23)
(-3.10126e-06 6.60722e-07 -4.70053e-23)
(-3.06946e-06 6.71679e-07 4.73735e-23)
(-3.06286e-06 6.87538e-07 -4.68029e-23)
(-3.07945e-06 7.09652e-07 4.747e-23)
(-3.12053e-06 7.3639e-07 7.13084e-28)
(-3.18111e-06 7.70031e-07 -4.73845e-23)
(-3.26093e-06 8.07054e-07 4.67926e-23)
(-3.35537e-06 8.51274e-07 7.22707e-28)
(-3.45842e-06 8.9647e-07 -4.67883e-23)
(-3.56993e-06 9.47616e-07 -4.73971e-23)
(-3.67125e-06 9.94897e-07 -3.56224e-28)
(-3.77304e-06 1.04607e-06 0)
(-3.83077e-06 1.0844e-06 -4.64191e-23)
(-3.88216e-06 1.12293e-06 3.39906e-28)
(-3.82504e-06 1.12946e-06 0)
(-3.77016e-06 1.13591e-06 0)
(-3.46387e-06 1.06498e-06 0)
(-3.23711e-06 1.01481e-06 -4.7032e-23)
(-2.39605e-06 7.65041e-07 -4.64612e-23)
(-1.88221e-06 6.06318e-07 0)
(2.55935e-07 -9.85247e-08 0)
(1.35332e-06 -4.96416e-07 4.73489e-23)
(9.34874e-06 -3.29463e-06 4.64112e-23)
(9.39021e-06 -1.61539e-05 -1.50067e-22)
(6.27089e-05 0.000568923 3.91679e-24)
(1.10754e-05 0.000490495 2.84868e-24)
(3.16287e-05 0.000676177 -3.73074e-27)
(9.12791e-05 0.00080145 1.92972e-27)
(0.000272902 0.000902711 0)
(0.000338914 0.000647706 4.92102e-23)
(0.000320135 0.000564454 -3.76381e-23)
(0.000370534 0.000550193 -5.40912e-23)
(0.000355754 0.000458462 -5.55105e-23)
(0.000361259 0.000411849 0)
(0.00034251 0.000350528 0)
(0.000330345 0.000307453 0)
(0.00031029 0.000264479 -1.21293e-22)
(0.00029237 0.000230169 0)
(0.00027358 0.000200139 -1.45752e-26)
(0.000254547 0.000173496 1.4467e-26)
(0.0002368 0.000151304 1.1569e-22)
(0.000219116 0.0001313 1.32303e-26)
(0.000202051 0.000113915 -1.10553e-22)
(0.000186664 9.93605e-05 0)
(0.000170849 8.57365e-05 -9.84459e-23)
(0.000156267 7.41613e-05 -9.72189e-23)
(0.000142657 6.40586e-05 -9.04535e-23)
(0.000129011 5.47345e-05 -8.74237e-23)
(0.000116529 4.68352e-05 1.01709e-26)
(0.000104631 3.97726e-05 -2.06958e-28)
(9.29876e-05 3.33909e-05 7.6301e-23)
(8.24175e-05 2.80079e-05 0)
(7.21383e-05 2.31227e-05 -6.68319e-23)
(6.24435e-05 1.88696e-05 -8.13428e-27)
(5.36691e-05 1.52938e-05 -1.22303e-22)
(4.5135e-05 1.20734e-05 1.14862e-22)
(3.73214e-05 9.36853e-06 -6.88677e-27)
(3.02212e-05 7.10579e-06 5.16888e-23)
(2.35191e-05 5.15801e-06 -1.20181e-26)
(1.75699e-05 3.59298e-06 5.80851e-27)
(1.21813e-05 2.31671e-06 0)
(7.31989e-06 1.29631e-06 5.08652e-27)
(3.1373e-06 5.31684e-07 -4.91363e-27)
(-5.81332e-07 -4.43518e-08 -2.53813e-27)
(-3.72515e-06 -4.39356e-07 4.46819e-27)
(-6.35034e-06 -6.85843e-07 0)
(-8.5433e-06 -8.14463e-07 0)
(-1.02545e-05 -8.43369e-07 3.75923e-27)
(-1.16036e-05 -7.98624e-07 1.47478e-23)
(-1.25702e-05 -6.95434e-07 0)
(-1.32317e-05 -5.54001e-07 0)
(-1.36189e-05 -3.85513e-07 -3.18709e-27)
(-1.3768e-05 -2.04311e-07 4.02237e-29)
(-1.37196e-05 -1.81573e-08 2.98079e-27)
(-1.34979e-05 1.64578e-07 -2.9336e-24)
(-1.31235e-05 3.37255e-07 5.64806e-24)
(-1.27163e-05 4.92546e-07 -6.81349e-24)
(-1.23014e-05 6.02685e-07 -6.74732e-24)
(-1.18754e-05 6.836e-07 -2.6829e-23)
(-1.14543e-05 7.67424e-07 1.33424e-23)
(-1.09956e-05 8.23322e-07 -3.24037e-27)
(-1.05726e-05 8.63151e-07 -1.32007e-23)
(-1.01624e-05 9.03423e-07 -1.59797e-27)
(-9.7562e-06 9.35129e-07 5.1889e-30)
(-9.37234e-06 9.63569e-07 1.30262e-23)
(-8.99595e-06 9.86402e-07 0)
(-8.6404e-06 1.00408e-06 -2.58648e-23)
(-8.29478e-06 1.01971e-06 1.33419e-28)
(-7.9572e-06 1.02871e-06 -8.85846e-29)
(-7.63226e-06 1.03518e-06 0)
(-7.30729e-06 1.0375e-06 1.56274e-27)
(-6.99038e-06 1.03487e-06 -3.12471e-27)
(-6.67783e-06 1.03015e-06 1.6038e-27)
(-6.36752e-06 1.02099e-06 0)
(-6.0721e-06 1.00919e-06 0)
(-5.78457e-06 9.96733e-07 2.54477e-23)
(-5.51793e-06 9.82089e-07 5.09548e-23)
(-5.27299e-06 9.70347e-07 0)
(-5.05216e-06 9.58293e-07 -2.55029e-23)
(-4.86556e-06 9.52095e-07 3.08563e-27)
(-4.70694e-06 9.48319e-07 -5.08015e-23)
(-4.58869e-06 9.50744e-07 5.07487e-23)
(-4.50426e-06 9.59338e-07 5.05899e-23)
(-4.45803e-06 9.75327e-07 -5.09852e-23)
(-4.44836e-06 9.98514e-07 -5.03719e-23)
(-4.47236e-06 1.03067e-06 -7.79866e-28)
(-4.53186e-06 1.06961e-06 0)
(-4.61968e-06 1.11847e-06 0)
(-4.73536e-06 1.17232e-06 0)
(-4.87227e-06 1.23648e-06 0)
(-5.02165e-06 1.30212e-06 -7.68025e-28)
(-5.18326e-06 1.37624e-06 7.78739e-28)
(-5.33007e-06 1.44485e-06 -5.02286e-23)
(-5.4775e-06 1.51888e-06 0)
(-5.5611e-06 1.57439e-06 4.99591e-23)
(-5.63527e-06 1.62986e-06 5.08409e-23)
(-5.55234e-06 1.63913e-06 -3.85468e-28)
(-5.47216e-06 1.6477e-06 -3.83009e-28)
(-5.02817e-06 1.54449e-06 3.87941e-28)
(-4.69833e-06 1.4701e-06 -1.92849e-28)
(-3.47996e-06 1.10762e-06 5.00058e-23)
(-2.73324e-06 8.73804e-07 -3.83675e-28)
(3.62392e-07 -1.48133e-07 2.88533e-28)
(1.95195e-06 -7.39274e-07 -5.09605e-23)
(1.34884e-05 -4.77214e-06 4.89556e-29)
(1.33162e-05 -2.32061e-05 2.15335e-22)
(6.79624e-05 0.000752561 1.28042e-27)
(1.54578e-05 0.000652931 1.528e-24)
(4.4101e-05 0.000895604 1.28341e-24)
(0.000122643 0.0010602 -1.37695e-24)
(0.000360008 0.00119344 -8.82047e-27)
(0.000449022 0.000862997 -5.28999e-23)
(0.000425688 0.000751971 4.04436e-23)
(0.000491949 0.000731709 1.15457e-26)
(0.000473313 0.000611451 -1.56374e-26)
(0.000480659 0.000549069 3.06205e-26)
(0.000456256 0.000467951 -1.57243e-26)
(0.000440191 0.000410494 6.72846e-23)
(0.000413754 0.000353367 -3.21822e-26)
(0.000390001 0.000307606 -6.77735e-23)
(0.00036508 0.000267572 0)
(0.000339807 0.000232028 -3.1242e-26)
(0.000316202 0.000202397 -1.24455e-22)
(0.000292672 0.00017569 2.83504e-26)
(0.000269956 0.000152468 1.18946e-22)
(0.000249444 0.000133014 1.11093e-22)
(0.000228375 0.000114814 1.05899e-22)
(0.000208931 9.93359e-05 0)
(0.000190772 8.58266e-05 0)
(0.000172574 7.33612e-05 1.88161e-22)
(0.000155913 6.27914e-05 -9.05752e-23)
(0.000140029 5.33427e-05 0)
(0.000124487 4.48046e-05 -1.6423e-22)
(0.000110368 3.7597e-05 -7.74838e-23)
(9.66384e-05 3.10576e-05 1.43835e-22)
(8.36875e-05 2.53617e-05 7.07929e-23)
(7.19594e-05 2.05703e-05 6.58183e-23)
(6.05547e-05 1.62557e-05 -6.18108e-23)
(5.01087e-05 1.26288e-05 0)
(4.0613e-05 9.59352e-06 -9.93886e-27)
(3.16501e-05 6.97991e-06 5.29633e-23)
(2.369e-05 4.87769e-06 6.42012e-27)
(1.64784e-05 3.1623e-06 -4.70216e-23)
(9.97119e-06 1.78941e-06 -4.54248e-23)
(4.36939e-06 7.58864e-07 -5.15323e-27)
(-6.11949e-07 -1.87457e-08 -4.02714e-23)
(-4.82568e-06 -5.53892e-07 -4.80879e-27)
(-8.34637e-06 -8.8969e-07 1.82598e-23)
(-1.12889e-05 -1.06728e-06 1.7547e-23)
(-1.35876e-05 -1.11097e-06 0)
(-1.54015e-05 -1.05536e-06 1.58728e-23)
(-1.67039e-05 -9.21193e-07 -1.53913e-23)
(-1.75978e-05 -7.35195e-07 3.53894e-27)
(-1.81243e-05 -5.12554e-07 -6.90968e-27)
(-1.8332e-05 -2.72444e-07 -3.38554e-24)
(-1.82749e-05 -2.52855e-08 0)
(-1.79855e-05 2.17615e-07 6.31448e-24)
(-1.74915e-05 4.47432e-07 -1.21573e-23)
(-1.69524e-05 6.54348e-07 7.33635e-24)
(-1.6402e-05 8.01216e-07 -3.53392e-27)
(-1.58362e-05 9.09272e-07 1.44406e-23)
(-1.52764e-05 1.02109e-06 -1.43559e-23)
(-1.46665e-05 1.09586e-06 0)
(-1.41033e-05 1.14918e-06 0)
(-1.35572e-05 1.20306e-06 0)
(-1.30163e-05 1.2455e-06 3.42407e-27)
(-1.25049e-05 1.28364e-06 -6.84476e-27)
(-1.20034e-05 1.31424e-06 3.41163e-27)
(-1.15295e-05 1.33799e-06 2.78383e-23)
(-1.10688e-05 1.35893e-06 -5.55033e-23)
(-1.06187e-05 1.37107e-06 -8.6407e-29)
(-1.01855e-05 1.37978e-06 0)
(-9.75217e-06 1.38297e-06 0)
(-9.32956e-06 1.37953e-06 0)
(-8.91272e-06 1.37332e-06 -2.74414e-23)
(-8.4989e-06 1.36118e-06 0)
(-8.1049e-06 1.34554e-06 0)
(-7.72143e-06 1.32903e-06 -5.47744e-23)
(-7.36577e-06 1.30964e-06 -2.74192e-23)
(-7.03904e-06 1.29409e-06 0)
(-6.74442e-06 1.27823e-06 5.48917e-23)
(-6.49548e-06 1.27008e-06 1.65975e-27)
(-6.2839e-06 1.26529e-06 1.67773e-28)
(-6.12609e-06 1.26865e-06 -1.0924e-22)
(-6.01336e-06 1.28035e-06 -5.44466e-23)
(-5.95161e-06 1.30178e-06 5.48749e-23)
(-5.93857e-06 1.33298e-06 5.42124e-23)
(-5.97049e-06 1.37595e-06 5.49885e-23)
(-6.04967e-06 1.42808e-06 -8.2599e-28)
(-6.16665e-06 1.49329e-06 0)
(-6.32071e-06 1.56532e-06 0)
(-6.50309e-06 1.65084e-06 0)
(-6.70204e-06 1.73848e-06 0)
(-6.91727e-06 1.83717e-06 0)
(-7.1127e-06 1.92868e-06 5.40593e-23)
(-7.30885e-06 2.02706e-06 0)
(-7.42001e-06 2.10092e-06 -8.20025e-28)
(-7.5183e-06 2.17424e-06 4.18177e-28)
(-7.40747e-06 2.18628e-06 4.14867e-28)
(-7.29968e-06 2.19654e-06 0)
(-6.70802e-06 2.05842e-06 5.46781e-23)
(-6.26686e-06 1.95693e-06 -8.3081e-28)
(-4.64467e-06 1.47333e-06 -5.3819e-23)
(-3.64717e-06 1.15656e-06 2.06328e-28)
(4.71712e-07 -2.05291e-07 -5.41158e-23)
(2.58755e-06 -1.01305e-06 0)
(1.78824e-05 -6.35358e-06 0)
(1.75036e-05 -3.07292e-05 -1.15847e-22)
(7.41382e-05 0.000946075 0)
(2.05465e-05 0.000826463 -1.64183e-24)
(5.84748e-05 0.0011277 -1.03197e-26)
(0.000156764 0.0013332 1.47798e-24)
(0.000451425 0.00149981 -1.19053e-23)
(0.000565597 0.00109349 0)
(0.000538257 0.00095275 1.35035e-26)
(0.000621055 0.000925396 -1.24005e-26)
(0.000598852 0.000775624 -1.6802e-26)
(0.000608182 0.000696228 5.01008e-26)
(0.000578035 0.000594218 -3.38002e-26)
(0.000557875 0.000521332 -1.44713e-22)
(0.000524756 0.000449116 1.40189e-22)
(0.000494827 0.000391066 7.29084e-23)
(0.000463403 0.000340305 -1.37541e-22)
(0.000431492 0.000295205 0)
(0.000401637 0.00025757 0)
(0.000371863 0.000223653 1.25383e-22)
(0.000343104 0.000194147 0)
(0.000317101 0.000169411 -1.19557e-22)
(0.000290405 0.000146283 -2.7613e-26)
(0.000265743 0.000126594 2.76842e-26)
(0.000242699 0.000109408 0)
(0.000219614 9.35549e-05 -2.02411e-22)
(0.000198461 8.00995e-05 9.74104e-23)
(0.00017829 6.80737e-05 2.18489e-26)
(0.000158557 5.72061e-05 1.767e-22)
(0.000140616 4.80244e-05 8.33954e-23)
(0.000123172 3.96963e-05 -7.74172e-23)
(0.000106715 3.24387e-05 -7.61583e-23)
(9.18022e-05 2.63302e-05 1.70626e-26)
(7.73036e-05 2.08303e-05 6.64889e-23)
(6.40184e-05 1.62029e-05 0)
(5.19372e-05 1.23287e-05 -5.98673e-23)
(4.05342e-05 8.99166e-06 -5.698e-23)
(3.04016e-05 6.30453e-06 0)
(2.12195e-05 4.11049e-06 1.01231e-22)
(1.29328e-05 2.35257e-06 4.88712e-23)
(5.79468e-06 1.03063e-06 0)
(-5.54033e-07 3.14437e-08 -1.04558e-26)
(-5.92766e-06 -6.58765e-07 1.03506e-26)
(-1.04203e-05 -1.09436e-06 -1.96506e-23)
(-1.41771e-05 -1.32789e-06 -1.88836e-23)
(-1.71155e-05 -1.39033e-06 0)
(-1.94365e-05 -1.32533e-06 -1.70863e-23)
(-2.11067e-05 -1.15986e-06 -7.02392e-28)
(-2.22564e-05 -9.27518e-07 0)
(-2.29381e-05 -6.47906e-07 0)
(-2.32135e-05 -3.45467e-07 3.65067e-24)
(-2.31512e-05 -3.34595e-08 -3.45265e-27)
(-2.27927e-05 2.73552e-07 -6.79591e-24)
(-2.21734e-05 5.64423e-07 6.54204e-24)
(-2.14947e-05 8.26626e-07 0)
(-2.08006e-05 1.01291e-06 -7.81536e-24)
(-2.00861e-05 1.15015e-06 1.55378e-23)
(-1.93785e-05 1.29203e-06 7.54532e-27)
(-1.86071e-05 1.38716e-06 -3.75325e-27)
(-1.78943e-05 1.45509e-06 3.7259e-27)
(-1.72028e-05 1.52366e-06 -3.71519e-27)
(-1.65177e-05 1.5777e-06 1.51175e-23)
(-1.58697e-05 1.62635e-06 -1.50862e-23)
(-1.52342e-05 1.66538e-06 0)
(-1.46335e-05 1.69572e-06 -2.99589e-23)
(-1.40494e-05 1.72243e-06 2.98664e-23)
(-1.34788e-05 1.73801e-06 2.98231e-23)
(-1.29293e-05 1.74918e-06 3.62987e-27)
(-1.23798e-05 1.75334e-06 2.96826e-23)
(-1.18438e-05 1.74908e-06 0)
(-1.1315e-05 1.7413e-06 0)
(-1.07901e-05 1.72602e-06 2.96068e-23)
(-1.02903e-05 1.70632e-06 -1.79837e-27)
(-9.80387e-06 1.68551e-06 2.94745e-23)
(-9.35267e-06 1.66112e-06 0)
(-8.93815e-06 1.64155e-06 -1.78974e-27)
(-8.5643e-06 1.62173e-06 -2.95367e-23)
(-8.24843e-06 1.61155e-06 1.78631e-27)
(-7.98001e-06 1.60579e-06 5.88406e-23)
(-7.77969e-06 1.61025e-06 5.8786e-23)
(-7.63653e-06 1.62541e-06 -1.59346e-27)
(-7.55808e-06 1.65275e-06 1.80172e-27)
(-7.54135e-06 1.69268e-06 -5.83496e-23)
(-7.5817e-06 1.74731e-06 -5.9179e-23)
(-7.6819e-06 1.81372e-06 -1.19237e-30)
(-7.83009e-06 1.89649e-06 5.90705e-23)
(-8.02518e-06 1.98814e-06 8.89759e-28)
(-8.25622e-06 2.09656e-06 -1.80124e-27)
(-8.50818e-06 2.20785e-06 8.90367e-28)
(-8.7807e-06 2.3328e-06 0)
(-9.02805e-06 2.44886e-06 5.81816e-23)
(-9.27615e-06 2.57317e-06 5.93667e-23)
(-9.41658e-06 2.66658e-06 5.78696e-23)
(-9.54028e-06 2.75865e-06 -5.88909e-23)
(-9.39926e-06 2.77346e-06 0)
(-9.26123e-06 2.78484e-06 -4.43662e-28)
(-8.51118e-06 2.60895e-06 -1.17695e-22)
(-7.94976e-06 2.47707e-06 0)
(-5.89548e-06 1.8633e-06 5.79247e-23)
(-4.62792e-06 1.45477e-06 5.835e-23)
(5.83938e-07 -2.71322e-07 -7.8184e-28)
(3.26211e-06 -1.32193e-06 0)
(2.25416e-05 -8.04564e-06 -5.66949e-29)
(2.19724e-05 -3.87279e-05 -6.22954e-23)
(8.0607e-05 0.00114968 0)
(2.64554e-05 0.00101166 0)
(7.49925e-05 0.0013728 -1.47248e-24)
(0.00019388 0.00162075 -1.77011e-27)
(0.000547197 0.00182209 2.55398e-23)
(0.000688852 0.00134005 -2.38944e-27)
(0.000658198 0.00116762 -1.80834e-27)
(0.000758207 0.00113193 1.33162e-26)
(0.000732822 0.000951731 6.87765e-23)
(0.000744295 0.000853996 0)
(0.000708354 0.000729974 0)
(0.00068391 0.000640545 7.78071e-23)
(0.000643814 0.000552256 -1.50767e-22)
(0.000607355 0.000481024 -7.84828e-23)
(0.000569041 0.000418764 1.47999e-22)
(0.000530079 0.000363405 -1.47977e-22)
(0.00049356 0.000317161 1.44042e-22)
(0.000457122 0.000275489 -1.34895e-22)
(0.000421905 0.000239219 -3.37266e-26)
(0.000390017 0.000208788 0)
(0.000357297 0.000180352 2.97082e-26)
(0.000327039 0.000156118 -5.91338e-26)
(0.00029875 0.000134966 2.77259e-26)
(0.00027042 0.000115458 1.08906e-22)
(0.000244438 9.88838e-05 2.53426e-26)
(0.000219657 8.40735e-05 9.73352e-23)
(0.000195419 7.06889e-05 -9.50315e-23)
(0.000173363 5.93709e-05 -5.22369e-28)
(0.00015192 4.91078e-05 -8.32931e-23)
(0.000131686 4.01592e-05 -2.02732e-26)
(0.00011334 3.26229e-05 1.83615e-26)
(9.55069e-05 2.58385e-05 -7.15992e-23)
(7.9159e-05 2.01251e-05 6.93652e-23)
(6.42865e-05 1.53394e-05 -6.44314e-23)
(5.02496e-05 1.12158e-05 4.1618e-28)
(3.77692e-05 7.89133e-06 2.8568e-26)
(2.64567e-05 5.17512e-06 -5.44769e-23)
(1.62452e-05 2.99631e-06 -5.26242e-23)
(7.4435e-06 1.3547e-06 4.9534e-23)
(-3.86558e-07 1.11695e-07 4.66465e-23)
(-7.01822e-06 -7.50295e-07 -1.08783e-26)
(-1.25663e-05 -1.29756e-06 2.35686e-28)
(-1.72083e-05 -1.59506e-06 2.03341e-23)
(-2.08438e-05 -1.68093e-06 0)
(-2.37185e-05 -1.60853e-06 8.89946e-27)
(-2.57918e-05 -1.41169e-06 -9.59596e-27)
(-2.72234e-05 -1.13136e-06 8.45008e-24)
(-2.80782e-05 -7.91965e-07 8.19952e-24)
(-2.84319e-05 -4.2368e-07 -3.80963e-27)
(-2.83689e-05 -4.28296e-08 4.36467e-29)
(-2.79403e-05 3.32434e-07 3.66055e-24)
(-2.71899e-05 6.885e-07 0)
(-2.63639e-05 1.0099e-06 0)
(-2.55177e-05 1.23846e-06 1.68138e-23)
(-2.4645e-05 1.40708e-06 2.74055e-28)
(-2.378e-05 1.58125e-06 0)
(-2.28366e-05 1.69835e-06 -1.65106e-23)
(-2.19639e-05 1.78207e-06 4.02596e-27)
(-2.11169e-05 1.86651e-06 -3.98398e-27)
(-2.02777e-05 1.9331e-06 -3.25356e-23)
(-1.94835e-05 1.99315e-06 3.24762e-23)
(-1.87045e-05 2.04133e-06 -3.95161e-27)
(-1.79679e-05 2.07883e-06 3.22426e-23)
(-1.72517e-05 2.11182e-06 3.91958e-27)
(-1.65517e-05 2.13116e-06 -3.92269e-27)
(-1.58775e-05 2.14503e-06 3.89898e-27)
(-1.52034e-05 2.15028e-06 -3.19532e-23)
(-1.45457e-05 2.14519e-06 3.19161e-23)
(-1.38969e-05 2.13578e-06 -3.88297e-27)
(-1.32529e-05 2.11718e-06 -3.1862e-23)
(-1.26395e-05 2.0932e-06 0)
(-1.20426e-05 2.06782e-06 0)
(-1.14889e-05 2.03817e-06 0)
(-1.09802e-05 2.01436e-06 1.92619e-27)
(-1.05213e-05 1.99043e-06 -1.94118e-27)
(-1.01336e-05 1.97814e-06 0)
(-9.80414e-06 1.97152e-06 -6.33266e-23)
(-9.55818e-06 1.97724e-06 6.32643e-23)
(-9.38233e-06 1.99628e-06 6.30662e-23)
(-9.2859e-06 2.03005e-06 6.35602e-23)
(-9.26513e-06 2.0795e-06 2.1567e-27)
(-9.31445e-06 2.1467e-06 6.36913e-23)
(-9.43709e-06 2.22857e-06 0)
(-9.61864e-06 2.33021e-06 -2.40995e-28)
(-9.85757e-06 2.44302e-06 0)
(-1.01406e-05 2.57597e-06 -6.35227e-23)
(-1.04492e-05 2.71268e-06 0)
(-1.07829e-05 2.86569e-06 -9.69959e-28)
(-1.10856e-05 3.00806e-06 -6.26176e-23)
(-1.1389e-05 3.15992e-06 -6.38931e-23)
(-1.15605e-05 3.27414e-06 -6.22848e-23)
(-1.17109e-05 3.38587e-06 6.33831e-23)
(-1.15371e-05 3.40335e-06 0)
(-1.13659e-05 3.41513e-06 0)
(-1.04459e-05 3.19832e-06 1.26672e-22)
(-9.7545e-06 3.03232e-06 6.31088e-23)
(-7.23803e-06 2.27867e-06 -1.24685e-22)
(-5.67962e-06 1.76853e-06 7.54094e-28)
(6.98999e-07 -3.47755e-07 1.25372e-22)
(3.97761e-06 -1.67075e-06 1.20537e-28)
(2.74765e-05 -9.85547e-06 -6.22818e-23)
(2.67387e-05 -4.72188e-05 2.6821e-22)
(8.75181e-05 0.0013635 0)
(3.33158e-05 0.00120908 1.88801e-24)
(9.39184e-05 0.00163121 -4.38861e-27)
(0.000234244 0.00192304 4.94901e-27)
(0.000647346 0.00216046 -5.10681e-26)
(0.000818983 0.00160353 6.48673e-23)
(0.000785865 0.00139743 -3.1129e-26)
(0.000903754 0.00135201 -6.78211e-27)
(0.00087568 0.00114055 -7.38884e-23)
(0.000889479 0.00102308 3.43696e-27)
(0.000847743 0.000875902 8.14909e-23)
(0.00081883 0.000768752 -8.35724e-23)
(0.000771473 0.000663354 0)
(0.000728122 0.00057799 8.43393e-23)
(0.000682521 0.000503409 1.59101e-22)
(0.000636077 0.00043704 1.59264e-22)
(0.000592458 0.000381539 -1.54918e-22)
(0.000548912 0.000331527 1.45043e-22)
(0.0005068 0.000287974 0)
(0.000468608 0.000251403 3.35955e-26)
(0.000429443 0.000217251 -3.2377e-26)
(0.000393183 0.000188112 0)
(0.000359263 0.000162677 0)
(0.000325308 0.000139226 0)
(0.000294134 0.000119281 0)
(0.000264396 0.000101462 -1.0478e-22)
(0.000235315 8.53569e-05 0)
(0.000208828 7.1726e-05 0)
(0.00018308 5.93689e-05 1.79275e-22)
(0.000158779 4.85887e-05 -2.18156e-26)
(0.000136731 3.95039e-05 1.97589e-26)
(0.000115303 3.13268e-05 7.69984e-23)
(9.56509e-05 2.44338e-05 -7.46223e-23)
(7.77644e-05 1.86572e-05 -5.30775e-27)
(6.08836e-05 1.36779e-05 6.60115e-23)
(4.58654e-05 9.65849e-06 1.51613e-26)
(3.22488e-05 6.37217e-06 5.85884e-23)
(1.99549e-05 3.73283e-06 5.66297e-23)
(9.35094e-06 1.7402e-06 -5.32657e-23)
(-8.46036e-08 2.28564e-07 -5.02104e-23)
(-8.08142e-06 -8.23983e-07 -1.19884e-26)
(-1.47763e-05 -1.49638e-06 1.09926e-26)
(-2.03813e-05 -1.86706e-06 -9.48282e-27)
(-2.47769e-05 -1.98195e-06 0)
(-2.82564e-05 -1.90472e-06 0)
(-3.07721e-05 -1.67684e-06 3.83811e-23)
(-3.25149e-05 -1.34706e-06 9.22653e-27)
(-3.3563e-05 -9.45086e-07 -8.82421e-24)
(-3.40072e-05 -5.07378e-07 0)
(-3.3949e-05 -5.35378e-08 0)
(-3.345e-05 3.94309e-07 0)
(-3.2563e-05 8.19946e-07 0)
(-3.15819e-05 1.20467e-06 9.14527e-24)
(-3.05747e-05 1.47857e-06 -1.80953e-23)
(-2.95341e-05 1.68093e-06 -1.79964e-23)
(-2.85016e-05 1.88977e-06 -1.78956e-23)
(-2.73749e-05 2.03056e-06 1.77645e-23)
(-2.63316e-05 2.1314e-06 -1.771e-23)
(-2.53186e-05 2.23295e-06 4.28763e-27)
(-2.43146e-05 2.31313e-06 1.75055e-23)
(-2.33639e-05 2.38556e-06 -1.74779e-23)
(-2.24314e-05 2.44366e-06 3.47919e-23)
(-2.15493e-05 2.48897e-06 4.23074e-27)
(-2.06914e-05 2.52876e-06 -9.63558e-30)
(-1.98528e-05 2.55224e-06 -4.22171e-27)
(-1.9045e-05 2.56907e-06 -4.1962e-27)
(-1.82373e-05 2.57555e-06 7.4177e-30)
(-1.74491e-05 2.56962e-06 -6.86773e-23)
(-1.66715e-05 2.55851e-06 -3.42041e-23)
(-1.58997e-05 2.53643e-06 -3.42954e-23)
(-1.51645e-05 2.50792e-06 4.16086e-27)
(-1.44492e-05 2.47773e-06 -4.71391e-30)
(-1.37855e-05 2.44256e-06 -4.17479e-27)
(-1.31757e-05 2.41429e-06 0)
(-1.26256e-05 2.38611e-06 4.17451e-27)
(-1.21608e-05 2.37167e-06 -4.14169e-27)