/*--------------------------------*- C++ -*----------------------------------*\
| =========                 |                                                 |
| \\      /  F ield         | OpenFOAM: The Open Source CFD Toolbox           |
|  \\    /   O peration     | Version:  5.x                                   |
|   \\  /    A nd           | Web:      www.OpenFOAM.org                      |
|    \\/     M anipulation  |                                                 |
\*---------------------------------------------------------------------------*/
FoamFile
{
    version     2.0;
    format      ascii;
    class       volVectorField;
    location    "3500";
    object      U;
}
// * * * * * * * * * * * * * * * * * * * * * * * * * * * * * * * * * * * * * //

dimensions      [0 1 -1 0 0 0 0];

internalField   nonuniform List<vector> 
107912
(
(2.78206e-08 9.47403e-07 -1.02383e-30)
(1.29495e-08 6.64984e-07 9.77522e-31)
(3.45203e-08 8.65975e-07 3.27932e-27)
(1.04257e-07 9.55359e-07 1.2726e-26)
(3.4112e-07 1.12128e-06 1.71735e-26)
(4.30035e-07 8.08781e-07 4.88956e-26)
(4.02288e-07 7.05816e-07 5.61424e-27)
(4.52761e-07 6.69352e-07 2.05795e-30)
(4.39559e-07 5.62594e-07 -5.36106e-30)
(4.46318e-07 5.06103e-07 -6.54045e-30)
(4.24374e-07 4.31698e-07 -7.13507e-30)
(4.13641e-07 3.82925e-07 5.76532e-26)
(3.9053e-07 3.31048e-07 1.10065e-25)
(3.73184e-07 2.9228e-07 4.26092e-29)
(3.5227e-07 2.56386e-07 -1.10999e-25)
(3.33143e-07 2.25923e-07 1.12723e-25)
(3.14213e-07 1.99777e-07 1.33806e-29)
(2.95994e-07 1.76487e-07 0)
(2.78457e-07 1.56214e-07 -2.12053e-25)
(2.62487e-07 1.39027e-07 -9.95818e-26)
(2.4643e-07 1.23029e-07 0)
(2.31656e-07 1.09371e-07 0)
(2.17789e-07 9.72724e-08 -8.83755e-26)
(2.04209e-07 8.61501e-08 8.58996e-26)
(1.9165e-07 7.65817e-08 8.29354e-26)
(1.79767e-07 6.79116e-08 1.54911e-25)
(1.68211e-07 6.00051e-08 -7.60034e-26)
(1.57599e-07 5.31834e-08 7.19924e-26)
(1.47304e-07 4.68547e-08 -6.71901e-26)
(1.37518e-07 4.12103e-08 -6.63904e-26)
(1.28494e-07 3.62815e-08 6.19489e-26)
(1.19652e-07 3.16736e-08 0)
(1.11316e-07 2.76145e-08 -5.68014e-26)
(1.03522e-07 2.4008e-08 6.37796e-30)
(9.59295e-08 2.06887e-08 -6.24434e-30)
(8.88386e-08 1.7798e-08 9.5181e-31)
(8.20993e-08 1.51854e-08 4.48601e-26)
(7.56156e-08 1.28344e-08 -6.01003e-31)
(6.95735e-08 1.07954e-08 -4.87978e-30)
(6.37475e-08 8.94654e-09 -3.80563e-26)
(5.82415e-08 7.33568e-09 4.52701e-30)
(5.30613e-08 5.93003e-09 0)
(4.80875e-08 4.6868e-09 0)
(4.34308e-08 3.63004e-09 -1.51792e-26)
(3.89846e-08 2.71287e-09 0)
(3.48009e-08 1.94085e-09 -2.70103e-26)
(3.08557e-08 1.29819e-09 -6.27761e-27)
(2.71233e-08 7.67556e-10 -5.94182e-27)
(2.362e-08 3.47187e-10 0)
(2.03172e-08 2.11612e-11 0)
(1.72162e-08 -2.16816e-10 -2.44247e-27)
(1.43146e-08 -3.74774e-10 -2.22671e-30)
(1.1837e-08 -4.65091e-10 -5.33689e-27)
(9.72207e-09 -4.82356e-10 -5.12945e-27)
(7.8645e-09 -4.58105e-10 -9.90599e-27)
(6.10776e-09 -4.13972e-10 9.56249e-27)
(4.48906e-09 -3.40353e-10 -1.84098e-26)
(3.03783e-09 -2.51447e-10 -1.06716e-30)
(1.68164e-09 -1.52271e-10 8.56443e-27)
(4.28976e-10 -4.3237e-11 -8.25397e-27)
(-7.30425e-10 7.35952e-11 0)
(-1.81421e-09 1.97978e-10 -1.5371e-26)
(-2.81686e-09 3.26968e-10 9.2179e-31)
(-3.75737e-09 4.62044e-10 1.43041e-26)
(-4.63241e-09 5.99655e-10 8.58417e-31)
(-5.45218e-09 7.40632e-10 -1.32965e-26)
(-6.2199e-09 8.84875e-10 -3.98969e-31)
(-6.93705e-09 1.0292e-09 0)
(-7.61015e-09 1.17705e-09 -1.1903e-26)
(-8.23469e-09 1.32348e-09 0)
(-8.81923e-09 1.46964e-09 -1.10335e-26)
(-9.35744e-09 1.61637e-09 -2.12717e-26)
(-9.84919e-09 1.75787e-09 0)
(-1.02948e-08 1.89904e-09 2.92575e-31)
(-1.06803e-08 2.03198e-09 -2.9485e-31)
(-1.10132e-08 2.15824e-09 -2.68258e-31)
(-1.12693e-08 2.27491e-09 1.72811e-26)
(-1.14509e-08 2.37523e-09 -3.29876e-26)
(-1.15342e-08 2.46049e-09 0)
(-1.1508e-08 2.51896e-09 0)
(-1.13495e-08 2.55018e-09 1.40534e-26)
(-1.10339e-08 2.54186e-09 -1.34758e-26)
(-1.05302e-08 2.48554e-09 1.24841e-26)
(-9.81094e-09 2.37266e-09 1.81304e-31)
(-8.81152e-09 2.18051e-09 -8.66174e-32)
(-7.53129e-09 1.90777e-09 1.03313e-26)
(-5.81927e-09 1.50651e-09 -1.49722e-30)
(-3.76415e-09 9.95674e-10 -5.66629e-33)
(-1.00973e-09 2.70325e-10 -6.36839e-32)
(2.10124e-09 -5.86701e-10 -7.59486e-27)
(6.44459e-09 -1.83014e-09 0)
(1.10053e-08 -3.19008e-09 -4.63928e-32)
(1.79679e-08 -5.31894e-09 6.89124e-32)
(2.43892e-08 -7.3701e-09 -2.26888e-32)
(3.61644e-08 -1.11545e-08 4.31362e-30)
(4.4875e-08 -1.41409e-08 -8.04234e-27)
(6.67716e-08 -2.14648e-08 3.97437e-27)
(7.88061e-08 -2.58775e-08 -2.75397e-26)
(1.27846e-07 -4.28273e-08 -4.94243e-32)
(1.46749e-07 -5.0247e-08 3.21349e-26)
(3.25191e-07 -1.13488e-07 -1.7424e-30)
(3.79748e-07 -3.34919e-07 3.57841e-25)
(8.34413e-08 2.89361e-06 0)
(3.86542e-08 2.05095e-06 0)
(1.10052e-07 2.6577e-06 -2.91434e-29)
(3.23551e-07 2.92762e-06 -4.04715e-26)
(1.04147e-06 3.42687e-06 -1.35702e-26)
(1.31525e-06 2.48577e-06 0)
(1.23468e-06 2.17076e-06 -5.59296e-30)
(1.38847e-06 2.05569e-06 -7.80116e-26)
(1.34925e-06 1.73068e-06 -6.06342e-26)
(1.37017e-06 1.55627e-06 -2.08045e-29)
(1.30368e-06 1.32869e-06 2.0446e-29)
(1.27085e-06 1.17836e-06 -9.1891e-26)
(1.20034e-06 1.01923e-06 -1.75085e-25)
(1.14715e-06 8.99829e-07 9.39087e-26)
(1.08311e-06 7.89505e-07 -2.14494e-29)
(1.02442e-06 6.95733e-07 0)
(9.66329e-07 6.15275e-07 1.74531e-25)
(9.1038e-07 5.43577e-07 -1.65231e-25)
(8.56521e-07 4.81176e-07 1.68996e-25)
(8.07441e-07 4.28246e-07 1.5865e-25)
(7.58107e-07 3.79002e-07 -1.51995e-25)
(7.12691e-07 3.36937e-07 -1.83044e-29)
(6.70057e-07 2.99678e-07 7.33796e-29)
(6.28311e-07 2.65433e-07 -1.68128e-29)
(5.8969e-07 2.35961e-07 -1.32233e-25)
(5.53143e-07 2.09258e-07 -2.46889e-25)
(5.17611e-07 1.84911e-07 -1.4917e-29)
(4.84967e-07 1.63897e-07 0)
(4.53302e-07 1.44406e-07 1.29332e-29)
(4.23202e-07 1.27021e-07 1.05847e-25)
(3.9544e-07 1.11837e-07 -1.00736e-29)
(3.68243e-07 9.76453e-08 9.31898e-26)
(3.42598e-07 8.51413e-08 1.81117e-25)
(3.18617e-07 7.40304e-08 0)
(2.95262e-07 6.38062e-08 0)
(2.73446e-07 5.48997e-08 7.67941e-26)
(2.5271e-07 4.68505e-08 -2.45677e-31)
(2.32763e-07 3.96072e-08 -6.89813e-26)
(2.14171e-07 3.33237e-08 7.78038e-30)
(1.96245e-07 2.76269e-08 -7.52099e-30)
(1.79304e-07 2.26624e-08 0)
(1.63364e-07 1.83298e-08 -2.70766e-26)
(1.4806e-07 1.44977e-08 2.1086e-31)
(1.3373e-07 1.12395e-08 6.01288e-30)
(1.20048e-07 8.41148e-09 0)
(1.07174e-07 6.0303e-09 2.15289e-26)
(9.50333e-08 4.04754e-09 1.00172e-26)
(8.35473e-08 2.40987e-09 -2.35824e-30)
(7.27659e-08 1.11171e-09 -4.42776e-27)
(6.26013e-08 1.04187e-10 0)
(5.30579e-08 -6.32169e-10 -6.94548e-32)
(4.41274e-08 -1.12196e-09 7.2674e-27)
(3.65025e-08 -1.40285e-09 1.70221e-26)
(2.99941e-08 -1.45907e-09 8.18112e-27)
(2.42754e-08 -1.38731e-09 1.57974e-26)
(1.88685e-08 -1.2537e-09 -3.0498e-26)
(1.3886e-08 -1.02952e-09 1.4676e-26)
(9.41818e-09 -7.58003e-10 0)
(5.24351e-09 -4.54541e-10 1.36539e-26)
(1.38726e-09 -1.20674e-10 -1.31605e-26)
(-2.18189e-09 2.37363e-10 1.52556e-30)
(-5.51817e-09 6.18742e-10 2.4507e-26)
(-8.60484e-09 1.0144e-09 1.46992e-30)
(-1.15001e-08 1.42889e-09 0)
(-1.41938e-08 1.85126e-09 2.20257e-26)
(-1.67174e-08 2.28407e-09 2.12043e-26)
(-1.90808e-08 2.72698e-09 0)
(-2.12884e-08 3.17022e-09 -1.97447e-26)
(-2.33604e-08 3.62429e-09 -1.89816e-26)
(-2.52829e-08 4.0741e-09 0)
(-2.70823e-08 4.52305e-09 -1.75958e-26)
(-2.8739e-08 4.97378e-09 -4.26363e-31)
(-3.02527e-08 5.40845e-09 -1.63409e-26)
(-3.16243e-08 5.84202e-09 4.8631e-31)
(-3.28113e-08 6.25029e-09 0)
(-3.38359e-08 6.63795e-09 2.8671e-26)
(-3.46247e-08 6.99606e-09 -2.75592e-26)
(-3.51841e-08 7.30378e-09 5.2605e-26)
(-3.54416e-08 7.56506e-09 0)
(-3.5362e-08 7.74383e-09 -2.39398e-26)
(-3.48758e-08 7.83861e-09 3.34017e-30)
(-3.39063e-08 7.8116e-09 -3.34577e-30)
(-3.23588e-08 7.63677e-09 -1.99073e-26)
(-3.01487e-08 7.2876e-09 1.89569e-26)
(-2.70776e-08 6.69451e-09 -1.74772e-26)
(-2.31429e-08 5.85297e-09 1.20921e-31)
(-1.78821e-08 4.61614e-09 3.00848e-26)
(-1.15653e-08 3.04114e-09 1.41493e-26)
(-3.10222e-09 8.06962e-10 0)
(6.46061e-09 -1.83476e-09 8.73756e-32)
(1.98031e-08 -5.66263e-09 -1.64779e-31)
(3.38242e-08 -9.85524e-09 -1.05382e-26)
(5.52054e-08 -1.64051e-08 -7.27459e-32)
(7.49523e-08 -2.2733e-08 7.24639e-32)
(1.11095e-07 -3.43692e-08 -7.52578e-27)
(1.37898e-07 -4.35979e-08 1.28655e-26)
(2.05063e-07 -6.61033e-08 2.06661e-29)
(2.42119e-07 -7.97955e-08 2.197e-26)
(3.92409e-07 -1.31849e-07 2.56921e-32)
(4.50468e-07 -1.55191e-07 -5.12431e-26)
(9.94548e-07 -3.48369e-07 -3.09069e-29)
(1.02047e-06 -1.04544e-06 -8.62173e-25)
(1.39466e-07 4.96769e-06 -2.34606e-28)
(6.49906e-08 3.5486e-06 -1.41392e-26)
(1.96579e-07 4.57982e-06 -5.56146e-27)
(5.64194e-07 5.04008e-06 2.17053e-26)
(1.78669e-06 5.88638e-06 -1.48381e-26)
(2.25934e-06 4.29054e-06 9.29635e-30)
(2.12756e-06 3.74769e-06 -5.40637e-30)
(2.39061e-06 3.54515e-06 1.67527e-25)
(2.32525e-06 2.98871e-06 1.30178e-25)
(2.36134e-06 2.68668e-06 1.87074e-29)
(2.24818e-06 2.29546e-06 0)
(2.1917e-06 2.03546e-06 2.42399e-29)
(2.07089e-06 1.76125e-06 3.76451e-25)
(1.9793e-06 1.55486e-06 0)
(1.86916e-06 1.36446e-06 -2.34689e-29)
(1.76806e-06 1.20244e-06 2.32944e-29)
(1.66797e-06 1.06345e-06 -1.87766e-25)
(1.57152e-06 9.39571e-07 1.77765e-25)
(1.47867e-06 8.31752e-07 0)
(1.394e-06 7.40269e-07 -1.70729e-25)
(1.30891e-06 6.55187e-07 1.6357e-25)
(1.23055e-06 5.82477e-07 1.62123e-25)
(1.15698e-06 5.18081e-07 3.03015e-25)
(1.08494e-06 4.58904e-07 3.59163e-29)
(1.01829e-06 4.07957e-07 -3.47429e-29)
(9.55198e-07 3.61804e-07 1.32856e-25)
(8.93875e-07 3.19729e-07 0)
(8.37518e-07 2.834e-07 1.49365e-29)
(7.82856e-07 2.49713e-07 -1.42026e-29)
(7.30896e-07 2.19664e-07 -1.37543e-29)
(6.8296e-07 1.93415e-07 9.25143e-32)
(6.36008e-07 1.68887e-07 -2.00558e-25)
(5.91733e-07 1.47272e-07 -9.74375e-26)
(5.50324e-07 1.28064e-07 -1.12209e-29)
(5.10002e-07 1.10392e-07 1.04334e-29)
(4.7233e-07 9.49931e-08 -1.02272e-29)
(4.36525e-07 8.10779e-08 0)
(4.02084e-07 6.85559e-08 8.92958e-30)
(3.69978e-07 5.76909e-08 -1.69987e-29)
(3.39025e-07 4.78414e-08 6.53051e-26)
(3.09771e-07 3.92566e-08 7.52628e-30)
(2.82243e-07 3.1764e-08 2.91254e-26)
(2.55816e-07 2.51368e-08 0)
(2.31069e-07 1.95006e-08 0)
(2.07442e-07 1.46083e-08 -2.43465e-26)
(1.85209e-07 1.04881e-08 5.76277e-30)
(1.64242e-07 7.0565e-09 5.16257e-30)
(1.44405e-07 4.22132e-09 -5.07596e-30)
(1.25785e-07 1.97284e-09 4.76983e-27)
(1.0823e-07 2.26748e-10 -4.45107e-30)
(9.17473e-08 -1.05072e-09 4.19361e-27)
(7.63228e-08 -1.90179e-09 -7.82516e-27)
(6.3154e-08 -2.39116e-09 -9.15647e-27)
(5.19136e-08 -2.49279e-09 8.80089e-27)
(4.2034e-08 -2.37271e-09 1.70046e-26)
(3.26951e-08 -2.14505e-09 1.64127e-26)
(2.40886e-08 -1.76124e-09 0)
(1.63699e-08 -1.29506e-09 1.52671e-26)
(9.15846e-09 -7.733e-10 -1.46965e-26)
(2.49677e-09 -1.98921e-10 1.41673e-26)
(-3.66898e-09 4.17455e-10 -1.36912e-26)
(-9.43229e-09 1.07426e-09 -2.63802e-26)
(-1.47647e-08 1.75589e-09 3.1088e-30)
(-1.97661e-08 2.47015e-09 2.45519e-26)
(-2.44196e-08 3.19814e-09 -4.74126e-26)
(-2.8779e-08 3.94426e-09 -2.28211e-26)
(-3.28616e-08 4.70787e-09 0)
(-3.66753e-08 5.47215e-09 2.12502e-26)
(-4.02544e-08 6.25512e-09 4.08588e-26)
(-4.35756e-08 7.0308e-09 0)
(-4.66837e-08 7.80502e-09 1.89375e-26)
(-4.95457e-08 8.58225e-09 1.82551e-26)
(-5.21605e-08 9.33177e-09 -2.10923e-30)
(-5.45298e-08 1.00793e-08 5.02178e-31)
(-5.65805e-08 1.07831e-08 -9.91198e-31)
(-5.83506e-08 1.14512e-08 -3.08569e-26)
(-5.97138e-08 1.20681e-08 2.96617e-26)
(-6.0681e-08 1.25979e-08 -2.83103e-26)
(-6.11271e-08 1.30473e-08 -2.68844e-26)
(-6.09915e-08 1.33541e-08 2.57655e-26)
(-6.01541e-08 1.35156e-08 -2.41211e-26)
(-5.8483e-08 1.34664e-08 2.31298e-26)
(-5.58146e-08 1.31619e-08 3.37401e-31)
(-5.20031e-08 1.25557e-08 -2.04026e-26)
(-4.67065e-08 1.15284e-08 1.88099e-26)
(-3.99195e-08 1.00711e-08 2.80658e-31)
(-3.08464e-08 7.93174e-09 -1.61931e-26)
(-1.99497e-08 5.20636e-09 -1.52281e-26)
(-5.35481e-09 1.34482e-09 -1.09412e-31)
(1.11425e-08 -3.22549e-09 0)
(3.41483e-08 -9.83749e-09 -1.13245e-26)
(5.83394e-08 -1.70926e-08 -1.44063e-29)
(9.51956e-08 -2.83989e-08 0)
(1.29273e-07 -3.93583e-08 0)
(1.9155e-07 -5.94293e-08 0)
(2.37824e-07 -7.54444e-08 -1.38468e-26)
(3.53492e-07 -1.14233e-07 -6.8432e-27)
(4.17498e-07 -1.38105e-07 0)
(6.76125e-07 -2.27751e-07 0)
(7.76141e-07 -2.69051e-07 5.55637e-26)
(1.70921e-06 -6.00066e-07 -1.79034e-27)
(1.71547e-06 -1.77468e-06 -9.07463e-25)
(1.95974e-07 7.17666e-06 2.63665e-28)
(9.18767e-08 5.16695e-06 1.51931e-26)
(2.95741e-07 6.64123e-06 -2.65568e-29)
(8.2845e-07 7.30186e-06 1.80857e-29)
(2.57911e-06 8.50851e-06 0)
(3.26542e-06 6.2326e-06 8.69215e-26)
(3.08491e-06 5.44511e-06 -9.56644e-27)
(3.46349e-06 5.14523e-06 -8.99176e-26)
(3.37205e-06 4.34366e-06 -6.98898e-26)
(3.42446e-06 3.90345e-06 0)
(3.2625e-06 3.33754e-06 0)
(3.18076e-06 2.95908e-06 0)
(3.0066e-06 2.56146e-06 -2.0237e-25)
(2.87389e-06 2.2612e-06 0)
(2.71452e-06 1.98466e-06 -2.52262e-29)
(2.56797e-06 1.74905e-06 2.50388e-29)
(2.42287e-06 1.54699e-06 2.01696e-25)
(2.28295e-06 1.36684e-06 2.31996e-29)
(2.14825e-06 1.21005e-06 -1.95344e-25)
(2.02532e-06 1.07697e-06 0)
(1.90184e-06 9.53252e-07 -1.75875e-25)
(1.78806e-06 8.47477e-07 -1.74402e-25)
(1.6812e-06 7.53807e-07 -1.63009e-25)
(1.57661e-06 6.67741e-07 -1.58396e-25)
(1.47979e-06 5.93622e-07 1.8542e-29)
(1.38815e-06 5.26486e-07 -2.85046e-31)
(1.29908e-06 4.65288e-07 1.40183e-25)
(1.2172e-06 4.12432e-07 0)
(1.13779e-06 3.63432e-07 -1.23968e-25)
(1.06231e-06 3.19719e-07 -1.51215e-29)
(9.92655e-07 2.81527e-07 -2.28725e-25)
(9.24442e-07 2.4585e-07 2.15825e-25)
(8.60112e-07 2.14402e-07 -1.29588e-29)
(7.99939e-07 1.86457e-07 9.76765e-26)
(7.41355e-07 1.60747e-07 -2.27543e-29)
(6.86613e-07 1.38341e-07 1.10051e-29)
(6.34581e-07 1.18095e-07 0)
(5.84536e-07 9.98753e-08 9.60916e-30)
(5.37879e-07 8.40639e-08 -9.28254e-30)
(4.92899e-07 6.97316e-08 -1.13895e-29)
(4.50386e-07 5.72373e-08 8.3591e-30)
(4.1038e-07 4.63319e-08 0)
(3.71976e-07 3.66856e-08 0)
(3.36011e-07 2.84801e-08 6.72834e-30)
(3.01673e-07 2.13569e-08 2.6189e-26)
(2.6936e-07 1.53564e-08 0)
(2.38887e-07 1.03576e-08 0)
(2.10057e-07 6.22634e-09 -5.25803e-30)
(1.82994e-07 2.94833e-09 1.96878e-31)
(1.57478e-07 4.01193e-10 4.79037e-30)
(1.33521e-07 -1.46437e-09 -4.51338e-27)
(1.11101e-07 -2.7093e-09 8.41791e-27)
(9.19604e-08 -3.42708e-09 -9.8549e-27)
(7.56233e-08 -3.58178e-09 -9.4787e-27)
(6.12594e-08 -3.41318e-09 -3.65976e-26)
(4.76846e-08 -3.08703e-09 1.7669e-26)
(3.51733e-08 -2.53437e-09 -4.22614e-30)
(2.3951e-08 -1.86101e-09 -1.64309e-26)
(1.34674e-08 -1.10627e-09 -1.89723e-30)
(3.78245e-09 -2.74871e-10 6.59054e-32)
(-5.1815e-09 6.17962e-10 1.4735e-26)
(-1.35601e-08 1.56972e-09 0)
(-2.13126e-08 2.55784e-09 -2.74024e-26)
(-2.85836e-08 3.59355e-09 1.09516e-30)
(-3.53492e-08 4.64938e-09 -1.09086e-30)
(-4.16868e-08 5.73171e-09 0)
(-4.76221e-08 6.83955e-09 1.42122e-30)
(-5.31663e-08 7.9485e-09 -2.7927e-30)
(-5.83696e-08 9.0846e-09 2.44602e-30)
(-6.31979e-08 1.02102e-08 0)
(-6.77162e-08 1.13337e-08 0)
(-7.18767e-08 1.24615e-08 1.96493e-26)
(-7.5678e-08 1.35491e-08 3.78558e-26)
(-7.91224e-08 1.46335e-08 0)
(-8.21041e-08 1.56545e-08 -1.74781e-26)
(-8.46776e-08 1.66233e-08 2.02728e-30)
(-8.66606e-08 1.75176e-08 -3.1929e-26)
(-8.80677e-08 1.82851e-08 3.04739e-26)
(-8.87185e-08 1.89354e-08 2.89346e-26)
(-8.85243e-08 1.93782e-08 -2.77368e-26)
(-8.73111e-08 1.96094e-08 -2.5968e-26)
(-8.48874e-08 1.95342e-08 -3.90991e-31)
(-8.10158e-08 1.90875e-08 0)
(-7.54844e-08 1.82017e-08 0)
(-6.77978e-08 1.67039e-08 0)
(-5.79466e-08 1.45796e-08 0)
(-4.47792e-08 1.14651e-08 -2.56421e-31)
(-2.89616e-08 7.49576e-09 2.59999e-31)
(-7.78213e-09 1.87862e-09 -1.4713e-26)
(1.6167e-08 -4.77632e-09 0)
(4.95463e-08 -1.4388e-08 1.21881e-26)
(8.46681e-08 -2.4955e-08 1.22228e-26)
(1.38128e-07 -4.1379e-08 -8.5556e-32)
(1.87615e-07 -5.73558e-08 -7.82466e-32)
(2.77909e-07 -8.64882e-08 7.92541e-32)
(3.45138e-07 -1.09885e-07 -4.28905e-32)
(5.12748e-07 -1.66137e-07 7.42176e-27)
(6.05778e-07 -2.01185e-07 -1.22897e-31)
(9.80251e-07 -3.31084e-07 1.2231e-31)
(1.12521e-06 -3.9265e-07 -5.98019e-26)
(2.47161e-06 -8.69909e-07 1.52302e-31)
(2.45685e-06 -2.55465e-06 1.30132e-24)
(2.52767e-07 9.52777e-06 4.11494e-30)
(1.19363e-07 6.91565e-06 8.17813e-27)
(4.09079e-07 8.85141e-06 6.29539e-27)
(1.11856e-06 9.72255e-06 -2.47077e-26)
(3.42116e-06 1.13023e-05 -7.11716e-30)
(4.33695e-06 8.32194e-06 -9.34608e-26)
(4.11105e-06 7.2721e-06 1.02494e-26)
(4.61174e-06 6.86388e-06 1.25538e-29)
(4.49451e-06 5.80293e-06 -2.29953e-29)
(4.56449e-06 5.21317e-06 4.72036e-29)
(4.35162e-06 4.46084e-06 -2.52611e-29)
(4.24293e-06 3.95444e-06 1.13569e-25)
(4.01226e-06 3.42448e-06 -5.44478e-29)
(3.83554e-06 3.02294e-06 -1.16282e-25)
(3.62362e-06 2.65373e-06 0)
(3.42838e-06 2.33878e-06 -5.44568e-29)
(3.23505e-06 2.06873e-06 -2.1698e-25)
(3.04849e-06 1.82791e-06 5.00272e-29)
(2.86887e-06 1.61832e-06 2.10176e-25)
(2.70484e-06 1.44037e-06 1.97285e-25)
(2.54012e-06 1.27498e-06 1.89191e-25)
(2.38826e-06 1.13353e-06 0)
(2.24562e-06 1.00827e-06 0)
(2.10602e-06 8.93207e-07 3.4086e-25)
(1.97676e-06 7.94078e-07 -1.6461e-25)
(1.85438e-06 7.04302e-07 0)
(1.73548e-06 6.22476e-07 -3.01691e-25)
(1.62613e-06 5.5178e-07 -1.42872e-25)
(1.52009e-06 4.86259e-07 2.66774e-25)
(1.41929e-06 4.27801e-07 1.31839e-25)
(1.32626e-06 3.7672e-07 1.23078e-25)
(1.23516e-06 3.29013e-07 -1.16133e-25)
(1.14925e-06 2.86952e-07 0)
(1.06887e-06 2.49576e-07 -3.57018e-29)
(9.90626e-07 2.15194e-07 1.00308e-25)
(9.17505e-07 1.85221e-07 1.21587e-29)
(8.48e-07 1.58141e-07 -8.91092e-26)
(7.81158e-07 1.33771e-07 -8.59444e-26)
(7.18829e-07 1.12618e-07 -9.69576e-30)
(6.58746e-07 9.34458e-08 -7.56015e-26)
(6.01956e-07 7.67291e-08 -8.99545e-30)
(5.48512e-07 6.2137e-08 3.37375e-26)
(4.97211e-07 4.92291e-08 3.20675e-26)
(4.49163e-07 3.82465e-08 0)
(4.0329e-07 2.87118e-08 2.81839e-26)
(3.60122e-07 2.06777e-08 -2.68344e-26)
(3.1941e-07 1.39831e-08 5.97937e-30)
(2.80893e-07 8.44851e-09 -1.15378e-29)
(2.44735e-07 4.0547e-09 -5.5139e-27)
(2.10645e-07 6.38334e-10 0)
(1.78636e-07 -1.86675e-09 9.71486e-27)
(1.48679e-07 -3.54138e-09 -1.81193e-26)
(1.23106e-07 -4.50968e-09 1.06111e-26)
(1.01279e-07 -4.72631e-09 -4.8928e-30)
(8.2082e-08 -4.50953e-09 1.96986e-26)
(6.39437e-08 -4.08054e-09 -1.90112e-26)
(4.72249e-08 -3.34955e-09 0)
(3.2226e-08 -2.45594e-09 0)
(1.82162e-08 -1.45271e-09 0)
(5.27299e-09 -3.46805e-10 3.93681e-30)
(-6.7067e-09 8.4173e-10 -7.74472e-30)
(-1.79038e-08 2.10925e-09 3.79769e-30)
(-2.82647e-08 3.42572e-09 2.94932e-26)
(-3.79816e-08 4.80599e-09 -5.68819e-26)
(-4.70233e-08 6.21341e-09 -1.26523e-30)
(-5.54931e-08 7.65645e-09 0)
(-6.3425e-08 9.13369e-09 0)
(-7.08342e-08 1.06126e-08 0)
(-7.77876e-08 1.21278e-08 -2.36652e-26)
(-8.42401e-08 1.36291e-08 0)
(-9.02779e-08 1.51276e-08 0)
(-9.5838e-08 1.66318e-08 -4.2295e-26)
(-1.00918e-07 1.80822e-08 -2.03711e-26)
(-1.05521e-07 1.95282e-08 0)
(-1.09506e-07 2.08895e-08 3.76208e-26)
(-1.12946e-07 2.21807e-08 1.06688e-30)
(-1.15597e-07 2.33721e-08 -3.2031e-30)
(-1.17479e-07 2.43939e-08 -6.56008e-26)
(-1.18352e-07 2.52587e-08 -3.11476e-26)
(-1.18097e-07 2.58459e-08 2.98528e-26)
(-1.16482e-07 2.615e-08 2.79478e-26)
(-1.13251e-07 2.60442e-08 2.68072e-26)
(-1.08089e-07 2.54416e-08 -3.9097e-31)
(-1.00711e-07 2.42514e-08 0)
(-9.0458e-08 2.22436e-08 0)
(-7.73157e-08 1.93969e-08 0)
(-5.9752e-08 1.52287e-08 0)
(-3.86481e-08 9.91407e-09 0)
(-1.03996e-08 2.40298e-09 1.58351e-26)
(2.15556e-08 -6.50546e-09 0)
(6.60681e-08 -1.93491e-08 -1.98951e-31)
(1.12936e-07 -3.3498e-08 1.09936e-31)
(1.84205e-07 -5.5428e-08 9.22201e-32)
(2.50258e-07 -7.68407e-08 0)
(3.70578e-07 -1.15706e-07 9.47312e-27)
(4.60355e-07 -1.47132e-07 -1.90063e-31)
(6.83566e-07 -2.22111e-07 -7.98762e-27)
(8.07853e-07 -2.6943e-07 6.45971e-32)
(1.30613e-06 -4.42414e-07 -6.24327e-27)
(1.49921e-06 -5.26831e-07 0)
(3.2843e-06 -1.15906e-06 0)
(3.24721e-06 -3.38824e-06 -6.97377e-25)
(3.09504e-07 1.20285e-05 0)
(1.47493e-07 8.80508e-06 -8.78524e-27)
(5.38435e-07 1.12203e-05 -5.90679e-29)
(1.43709e-06 1.23122e-05 2.65417e-26)
(4.31524e-06 1.4277e-05 1.91089e-26)
(5.47734e-06 1.05692e-05 0)
(5.21046e-06 9.2384e-06 1.4604e-29)
(5.84014e-06 8.70966e-06 -1.34109e-29)
(5.69774e-06 7.37454e-06 -2.46406e-29)
(5.78667e-06 6.62291e-06 7.81746e-29)
(5.52084e-06 5.67177e-06 -5.41889e-29)
(5.38341e-06 5.02719e-06 -2.44071e-25)
(5.09297e-06 4.35536e-06 2.33068e-25)
(4.86919e-06 3.84452e-06 1.25095e-25)
(4.6012e-06 3.37564e-06 -2.35611e-25)
(4.35383e-06 2.97513e-06 0)
(4.10882e-06 2.6318e-06 0)
(3.87224e-06 2.32555e-06 2.20799e-25)
(3.64443e-06 2.05902e-06 0)
(3.43623e-06 1.83264e-06 -2.12317e-25)
(3.22722e-06 1.62233e-06 -4.93944e-29)
(3.03444e-06 1.44237e-06 4.95215e-29)
(2.85331e-06 1.28303e-06 0)
(2.67609e-06 1.13668e-06 -3.66553e-25)
(2.51193e-06 1.01055e-06 1.77033e-25)
(2.35648e-06 8.96344e-07 4.00241e-29)
(2.2055e-06 7.92261e-07 3.24514e-25)
(2.06658e-06 7.02306e-07 1.53773e-25)
(1.93188e-06 6.18957e-07 -1.43572e-25)
(1.80385e-06 5.44586e-07 -1.41831e-25)
(1.68563e-06 4.79589e-07 3.1971e-29)
(1.56991e-06 4.18901e-07 1.24875e-25)
(1.46076e-06 3.65383e-07 0)
(1.35863e-06 3.17825e-07 -1.13114e-25)
(1.25923e-06 2.74082e-07 -1.07915e-25)
(1.16632e-06 2.35938e-07 0)
(1.078e-06 2.0148e-07 1.91826e-25)
(9.9307e-07 1.7047e-07 9.24651e-26)
(9.13865e-07 1.43547e-07 0)
(8.37518e-07 1.19147e-07 -1.95571e-29)
(7.65355e-07 9.78689e-08 1.93603e-29)
(6.97437e-07 7.92933e-08 -3.63072e-26)
(6.32247e-07 6.28609e-08 -3.45102e-26)
(5.71185e-07 4.88758e-08 0)
(5.1289e-07 3.67334e-08 -3.03384e-26)
(4.58029e-07 2.64992e-08 2.80425e-31)
(4.06288e-07 1.79689e-08 0)
(3.57337e-07 1.09144e-08 0)
(3.11383e-07 5.31073e-09 5.9457e-27)
(2.68055e-07 9.5064e-10 -5.54846e-30)
(2.27372e-07 -2.25035e-09 -1.04554e-26)
(1.89296e-07 -4.3942e-09 9.75026e-27)
(1.56794e-07 -5.63753e-09 0)
(1.29053e-07 -5.92639e-09 -1.09792e-26)
(1.04645e-07 -5.66242e-09 2.11961e-26)
(8.15899e-08 -5.12642e-09 9.99241e-30)
(6.03367e-08 -4.20741e-09 -4.89524e-30)
(4.12667e-08 -3.07989e-09 4.56658e-30)
(2.34566e-08 -1.81186e-09 -4.55345e-30)
(7.00153e-09 -4.12966e-10 1.7661e-26)
(-8.22871e-09 1.09169e-09 -1.7067e-26)
(-2.24636e-08 2.69708e-09 0)
(-3.56361e-08 4.36519e-09 -3.17424e-26)
(-4.79892e-08 6.1147e-09 3.06088e-26)
(-5.94844e-08 7.89906e-09 2.95509e-26)
(-7.0252e-08 9.72899e-09 3.53709e-30)
(-8.03359e-08 1.16025e-08 2.74673e-26)
(-8.97552e-08 1.34785e-08 0)
(-9.85948e-08 1.54005e-08 0)
(-1.06798e-07 1.73052e-08 2.46317e-26)
(-1.14473e-07 1.92062e-08 -1.46922e-30)
(-1.21542e-07 2.11143e-08 2.27599e-26)
(-1.28e-07 2.29542e-08 0)
(-1.33851e-07 2.47881e-08 -1.25233e-30)
(-1.38919e-07 2.65143e-08 -2.02442e-26)
(-1.43292e-07 2.81511e-08 1.14833e-30)
(-1.46665e-07 2.96609e-08 3.69851e-26)
(-1.4906e-07 3.09546e-08 3.53038e-26)
(-1.50174e-07 3.20482e-08 -5.27843e-30)
(-1.49856e-07 3.27886e-08 9.54916e-31)
(-1.47811e-07 3.31685e-08 -3.00906e-26)
(-1.43715e-07 3.30267e-08 -2.88501e-26)
(-1.37168e-07 3.22532e-08 -5.12247e-32)
(-1.27808e-07 3.07314e-08 2.54605e-26)
(-1.14801e-07 2.81708e-08 3.45883e-31)
(-9.81245e-08 2.45414e-08 -6.75255e-31)
(-7.58415e-08 1.92345e-08 3.21438e-31)
(-4.90602e-08 1.24646e-08 0)
(-1.32244e-08 2.91005e-09 1.70678e-26)
(2.73309e-08 -8.43489e-09 1.63254e-26)
(8.37884e-08 -2.47606e-08 1.41649e-26)
(1.43277e-07 -4.27844e-08 -1.42191e-26)
(2.33641e-07 -7.06375e-08 0)
(3.17502e-07 -9.79415e-08 -9.10631e-32)
(4.69988e-07 -1.47259e-07 -2.04199e-26)
(5.84026e-07 -1.87425e-07 0)
(8.66724e-07 -2.82476e-07 8.67105e-27)
(1.02467e-06 -3.4328e-07 2.99162e-26)
(1.65516e-06 -5.62355e-07 -5.78264e-29)
(1.89975e-06 -6.7254e-07 0)
(4.14988e-06 -1.46877e-06 -1.75062e-31)
(4.08989e-06 -4.27658e-06 -3.71011e-25)
(3.65806e-07 1.46865e-05 0)
(1.76337e-07 1.08463e-05 0)
(6.85902e-07 1.37585e-05 -7.2063e-27)
(1.78688e-06 1.50813e-05 3.6046e-29)
(5.26381e-06 1.74422e-05 -4.13292e-26)
(6.69004e-06 1.29859e-05 -5.99578e-30)
(6.38786e-06 1.13544e-05 -1.90855e-30)
(7.1537e-06 1.06917e-05 1.43178e-29)
(6.98712e-06 9.0671e-06 8.53927e-26)
(7.09652e-06 8.14031e-06 0)
(6.77578e-06 6.97727e-06 0)
(6.60777e-06 6.18346e-06 1.31128e-25)
(6.25417e-06 5.35957e-06 -2.5066e-25)
(5.9801e-06 4.73078e-06 -1.34353e-25)
(5.65235e-06 4.15468e-06 2.53531e-25)
(5.34917e-06 3.66191e-06 -2.5744e-25)
(5.04882e-06 3.23958e-06 2.506e-25)
(4.75859e-06 2.86276e-06 -2.37552e-25)
(4.4791e-06 2.53483e-06 -5.94448e-29)
(4.22345e-06 2.25617e-06 0)
(3.96689e-06 1.99741e-06 5.31189e-29)
(3.73013e-06 1.77588e-06 -1.05954e-28)
(3.50761e-06 1.57976e-06 4.97834e-29)
(3.28996e-06 1.39965e-06 1.9719e-25)
(3.08826e-06 1.24438e-06 4.61602e-29)
(2.89723e-06 1.1038e-06 1.77772e-25)
(2.71174e-06 9.75702e-07 -1.74505e-25)
(2.541e-06 8.64949e-07 -7.69748e-31)
(2.37546e-06 7.62359e-07 -1.54391e-25)
(2.21812e-06 6.70809e-07 -3.76625e-29)
(2.0728e-06 5.90786e-07 3.43975e-29)
(1.93058e-06 5.16088e-07 -1.34473e-25)
(1.79641e-06 4.50198e-07 1.30634e-25)
(1.67086e-06 3.91645e-07 -1.21693e-25)
(1.54868e-06 3.37797e-07 7.47467e-31)
(1.43446e-06 2.90828e-07 5.41108e-29)
(1.32588e-06 2.48401e-07 -1.03223e-25)
(1.22148e-06 2.1022e-07 -9.95394e-26)
(1.1241e-06 1.77063e-07 9.33715e-26)
(1.03024e-06 1.47017e-07 8.75409e-26)
(9.41526e-07 1.20808e-07 -2.01866e-29)
(8.58019e-07 9.79272e-08 6.22818e-31)
(7.77873e-07 7.7685e-08 3.7155e-26)
(7.02794e-07 6.04526e-08 0)
(6.31119e-07 4.54895e-08 1.56595e-29)
(5.63663e-07 3.28741e-08 -1.513e-29)
(5.00042e-07 2.23561e-08 1.44368e-26)
(4.39851e-07 1.36545e-08 1.36921e-26)
(3.83343e-07 6.73822e-09 -6.12198e-30)
(3.30063e-07 1.35291e-09 2.35753e-31)
(2.80035e-07 -2.6059e-09 5.63177e-27)
(2.3321e-07 -5.26256e-09 0)
(1.93243e-07 -6.80819e-09 0)
(1.59131e-07 -7.18123e-09 2.36208e-26)
(1.29106e-07 -6.87187e-09 7.2083e-31)
(1.00753e-07 -6.22497e-09 0)
(7.46127e-08 -5.10815e-09 -2.12014e-26)
(5.11535e-08 -3.73253e-09 5.09083e-30)
(2.92473e-08 -2.18255e-09 -4.7305e-30)
(9.00643e-09 -4.71176e-10 -3.80105e-26)
(-9.72785e-09 1.37124e-09 3.6741e-26)
(-2.72372e-08 3.33797e-09 -4.39911e-30)
(-4.34406e-08 5.38251e-09 3.4162e-26)
(-5.86354e-08 7.52756e-09 3.9508e-30)
(-7.27754e-08 9.71592e-09 -3.95393e-30)
(-8.602e-08 1.19607e-08 3.6716e-30)
(-9.84235e-08 1.42593e-08 -2.95685e-26)
(-1.1001e-07 1.65613e-08 2.85245e-26)
(-1.20882e-07 1.89198e-08 -3.40987e-30)
(-1.30972e-07 2.12573e-08 -2.65079e-26)
(-1.40413e-07 2.35903e-08 0)
(-1.49107e-07 2.59319e-08 0)
(-1.5705e-07 2.81898e-08 0)
(-1.64248e-07 3.04397e-08 1.34792e-30)
(-1.70482e-07 3.25573e-08 -1.35841e-30)
(-1.75862e-07 3.45643e-08 0)
(-1.80013e-07 3.64148e-08 -3.98133e-26)
(-1.82963e-07 3.79992e-08 3.80021e-26)
(-1.84339e-07 3.93368e-08 3.60834e-26)
(-1.83956e-07 4.02394e-08 3.45931e-26)
(-1.81452e-07 4.0698e-08 -4.89837e-30)
(-1.7643e-07 4.05142e-08 3.10627e-26)
(-1.68397e-07 3.9553e-08 0)
(-1.5691e-07 3.76699e-08 8.26979e-30)
(-1.40948e-07 3.45097e-08 0)
(-1.20477e-07 3.00319e-08 -2.38477e-26)
(-9.31298e-08 2.34939e-08 0)
(-6.02521e-08 1.51494e-08 -2.98691e-31)
(-1.62749e-08 3.38994e-09 -1.83691e-26)
(3.35165e-08 -1.05901e-08 -1.75701e-26)
(1.02787e-07 -3.06676e-08 -1.52457e-26)
(1.75833e-07 -5.28843e-08 1.53037e-26)
(2.86665e-07 -8.71089e-08 0)
(3.89666e-07 -1.208e-07 0)
(5.76596e-07 -1.8134e-07 2.20419e-26)
(7.16734e-07 -2.31024e-07 1.88371e-26)
(1.06305e-06 -3.47583e-07 -1.87091e-26)
(1.25723e-06 -4.23216e-07 1.14383e-28)
(2.02884e-06 -6.91572e-07 1.46545e-26)
(2.32853e-06 -8.30825e-07 7.07655e-32)
(5.07101e-06 -1.80036e-06 1.89455e-27)
(4.98788e-06 -5.22199e-06 1.60075e-24)
(4.21285e-07 1.75097e-05 0)
(2.06025e-07 1.30513e-05 1.01571e-26)
(8.53806e-07 1.64771e-05 -4.16395e-29)
(2.17102e-06 1.80409e-05 4.69598e-29)
(6.26934e-06 2.08078e-05 -2.11661e-28)
(7.97853e-06 1.55839e-05 1.09955e-25)
(7.64814e-06 1.36314e-05 -3.32627e-29)
(8.55765e-06 1.28198e-05 -2.01646e-29)
(8.36831e-06 1.08899e-05 -9.17313e-26)
(8.49988e-06 9.77361e-06 1.05024e-29)
(8.12238e-06 8.38481e-06 1.25287e-25)
(7.92189e-06 7.42986e-06 -1.40348e-25)
(7.50168e-06 6.44302e-06 0)
(7.17389e-06 5.68696e-06 1.44385e-25)
(6.78248e-06 4.99553e-06 2.71986e-25)
(6.41961e-06 4.40325e-06 2.77082e-25)
(6.06003e-06 3.89577e-06 -2.69529e-25)
(5.71228e-06 3.44282e-06 2.55068e-25)
(5.37738e-06 3.04865e-06 0)
(5.07076e-06 2.71357e-06 5.975e-29)
(4.76317e-06 2.40254e-06 -5.75825e-29)
(4.47914e-06 2.13613e-06 0)
(4.21213e-06 1.9003e-06 0)
(3.95101e-06 1.68377e-06 0)
(3.70894e-06 1.49702e-06 0)
(3.47964e-06 1.32797e-06 -1.91372e-25)
(3.25704e-06 1.17395e-06 0)
(3.05205e-06 1.04073e-06 0)
(2.85332e-06 9.17373e-07 3.32257e-25)
(2.66445e-06 8.07276e-07 -4.05176e-29)
(2.48995e-06 7.11022e-07 3.70071e-29)
(2.31919e-06 6.21199e-07 1.4455e-25)
(2.15811e-06 5.41949e-07 -1.40535e-25)
(2.00733e-06 4.7152e-07 1.61794e-29)
(1.86063e-06 4.06759e-07 1.24955e-25)
(1.72347e-06 3.50255e-07 2.87173e-29)
(1.59307e-06 2.99221e-07 1.10979e-25)
(1.46772e-06 2.53293e-07 1.07116e-25)
(1.35076e-06 2.13399e-07 -1.00406e-25)
(1.23804e-06 1.77252e-07 -9.42295e-26)
(1.13149e-06 1.45714e-07 -2.24187e-29)
(1.0312e-06 1.18178e-07 2.01972e-29)
(9.34942e-07 9.38166e-08 -2.11069e-29)
(8.44765e-07 7.30712e-08 0)
(7.58677e-07 5.50558e-08 0)
(6.77654e-07 3.98622e-08 6.69077e-26)
(6.01235e-07 2.71907e-08 1.48162e-29)
(5.28936e-07 1.67033e-08 -1.47353e-26)
(4.61057e-07 8.36236e-09 0)
(3.97056e-07 1.8626e-09 0)
(3.36958e-07 -2.92207e-09 0)
(2.80706e-07 -6.13972e-09 0)
(2.32695e-07 -8.01801e-09 1.32276e-26)
(1.9172e-07 -8.48911e-09 -2.54214e-26)
(1.55638e-07 -8.13717e-09 -2.45501e-26)
(1.21575e-07 -7.37588e-09 -2.37005e-26)
(9.0168e-08 -6.05141e-09 2.28116e-26)
(6.19761e-08 -4.41301e-09 -2.20467e-26)
(3.56543e-08 -2.56312e-09 5.09125e-30)
(1.13321e-08 -5.18743e-10 2.04516e-26)
(-1.118e-08 1.68432e-09 -1.97734e-26)
(-3.22193e-08 4.0373e-09 3.81015e-26)
(-5.16906e-08 6.48461e-09 4.40984e-30)
(-6.99488e-08 9.0532e-09 -1.54811e-31)
(-8.69402e-08 1.16744e-08 -4.25555e-30)
(-1.02855e-07 1.43639e-08 -3.9517e-30)
(-1.17759e-07 1.71183e-08 1.41597e-31)
(-1.31681e-07 1.98772e-08 -6.13809e-26)
(-1.44745e-07 2.2704e-08 -2.95042e-26)
(-1.5687e-07 2.55059e-08 -2.8536e-26)
(-1.68213e-07 2.83024e-08 3.27531e-30)
(-1.7866e-07 3.11091e-08 -1.26275e-31)
(-1.88204e-07 3.38153e-08 -3.16344e-30)
(-1.96852e-07 3.65114e-08 0)
(-2.04345e-07 3.90485e-08 2.80314e-30)
(-2.1081e-07 4.14521e-08 -2.7811e-30)
(-2.15803e-07 4.36672e-08 -6.18351e-30)
(-2.19352e-07 4.5562e-08 -8.18058e-26)
(-2.21013e-07 4.71595e-08 0)
(-2.20563e-07 4.82339e-08 -3.72307e-26)