/*--------------------------------*- C++ -*----------------------------------*\
| =========                 |                                                 |
| \\      /  F ield         | OpenFOAM: The Open Source CFD Toolbox           |
|  \\    /   O peration     | Version:  5.x                                   |
|   \\  /    A nd           | Web:      www.OpenFOAM.org                      |
|    \\/     M anipulation  |                                                 |
\*---------------------------------------------------------------------------*/
FoamFile
{
    version     2.0;
    format      ascii;
    class       volVectorField;
    location    "3500";
    object      U;
}
// * * * * * * * * * * * * * * * * * * * * * * * * * * * * * * * * * * * * * //

dimensions      [0 1 -1 0 0 0 0];

internalField   nonuniform List<vector> 
107912
(
(-6.89499e-06 9.10541e-05 -4.3996e-29)
(1.25208e-06 6.341e-05 4.20062e-29)
(3.45657e-06 8.64351e-05 -3.19454e-25)
(1.02347e-05 9.38045e-05 -8.63075e-25)
(3.02722e-05 9.96454e-05 -1.84178e-23)
(3.26011e-05 6.13536e-05 2.79383e-23)
(2.79957e-05 4.91106e-05 1.95266e-23)
(3.07045e-05 4.54188e-05 1.98373e-28)
(2.62485e-05 3.35906e-05 -2.76407e-27)
(2.508e-05 2.84406e-05 -2.4933e-27)
(2.1308e-05 2.16683e-05 -2.2423e-27)
(1.90049e-05 1.75859e-05 1.84598e-23)
(1.59807e-05 1.35372e-05 3.28378e-23)
(1.36393e-05 1.06727e-05 3.50377e-27)
(1.13363e-05 8.24157e-06 -2.78435e-23)
(9.29312e-06 6.29247e-06 2.59423e-23)
(7.51052e-06 4.76627e-06 2.97933e-27)
(5.89258e-06 3.50518e-06 0)
(4.48839e-06 2.51025e-06 -3.93949e-23)
(3.31256e-06 1.74745e-06 -1.7278e-23)
(2.23029e-06 1.10697e-06 0)
(1.35213e-06 6.32534e-07 0)
(5.96374e-07 2.61188e-07 -1.25992e-23)
(-4.94186e-08 -2.57228e-08 1.14858e-23)
(-5.64676e-07 -2.2998e-07 1.04641e-23)
(-9.94339e-07 -3.79446e-07 1.84333e-23)
(-1.33684e-06 -4.80311e-07 -8.54838e-24)
(-1.59582e-06 -5.41497e-07 7.7078e-24)
(-1.79898e-06 -5.7491e-07 -6.8355e-24)
(-1.93849e-06 -5.83289e-07 -6.46082e-24)
(-2.03173e-06 -5.75821e-07 5.77989e-24)
(-2.08705e-06 -5.54344e-07 0)
(-2.10433e-06 -5.23651e-07 -4.92269e-24)
(-2.0979e-06 -4.87868e-07 5.2979e-28)
(-2.06758e-06 -4.47413e-07 -5.18691e-28)
(-2.01949e-06 -4.05496e-07 -3.43236e-28)
(-1.95962e-06 -3.63435e-07 3.53644e-24)
(-1.88832e-06 -3.21639e-07 2.63576e-28)
(-1.81116e-06 -2.81854e-07 -3.73126e-28)
(-1.72854e-06 -2.43327e-07 -2.89665e-24)
(-1.64286e-06 -2.07606e-07 3.44531e-28)
(-1.55749e-06 -1.74757e-07 0)
(-1.47104e-06 -1.43951e-07 0)
(-1.38715e-06 -1.16681e-07 -1.16838e-24)
(-1.30562e-06 -9.13576e-08 0)
(-1.22729e-06 -6.9076e-08 -2.12731e-24)
(-1.15297e-06 -4.90354e-08 -5.00689e-25)
(-1.08163e-06 -3.1067e-08 -4.83295e-25)
(-1.01376e-06 -1.53964e-08 0)
(-9.48648e-07 -1.37602e-09 0)
(-8.86226e-07 1.08372e-08 -2.11771e-25)
(-8.2688e-07 2.13511e-08 -1.98747e-28)
(-7.76154e-07 2.99609e-08 -4.88228e-25)
(-7.30162e-07 3.57851e-08 -4.80718e-25)
(-6.90479e-07 3.99112e-08 -9.50717e-25)
(-6.53278e-07 4.39179e-08 9.43439e-25)
(-6.17623e-07 4.6533e-08 -1.86444e-24)
(-5.87608e-07 4.82631e-08 -1.12863e-28)
(-5.60102e-07 5.00662e-08 9.18007e-25)
(-5.35258e-07 5.15549e-08 -9.12067e-25)
(-5.13206e-07 5.31732e-08 0)
(-4.93357e-07 5.44127e-08 -1.80839e-24)
(-4.76388e-07 5.56982e-08 1.10005e-28)
(-4.61295e-07 5.70504e-08 1.79088e-24)
(-4.48091e-07 5.83771e-08 1.09091e-28)
(-4.37243e-07 5.96341e-08 -1.77745e-24)
(-4.27865e-07 6.11425e-08 -5.41622e-29)
(-4.20271e-07 6.25793e-08 0)
(-4.13976e-07 6.43727e-08 -1.75665e-24)
(-4.08873e-07 6.58848e-08 0)
(-4.05361e-07 6.78151e-08 -1.74738e-24)
(-4.02392e-07 6.97797e-08 -3.50018e-24)
(-4.00494e-07 7.17652e-08 0)
(-3.99182e-07 7.39486e-08 5.29303e-29)
(-3.9786e-07 7.62764e-08 -5.3342e-29)
(-3.9765e-07 7.81171e-08 -5.28375e-29)
(-3.97254e-07 8.04786e-08 3.47774e-24)
(-3.96972e-07 8.266e-08 -6.95453e-24)
(-3.96023e-07 8.49876e-08 0)
(-3.94903e-07 8.67425e-08 0)
(-3.9299e-07 8.87569e-08 3.44333e-24)
(-3.90069e-07 9.01497e-08 -3.4928e-24)
(-3.85889e-07 9.15662e-08 3.4368e-24)
(-3.80071e-07 9.22262e-08 5.32108e-29)
(-3.72166e-07 9.26246e-08 -2.62893e-29)
(-3.62223e-07 9.21234e-08 3.49371e-24)
(-3.48794e-07 9.088e-08 1.47715e-30)
(-3.33059e-07 8.86347e-08 4.4154e-32)
(-3.11425e-07 8.48746e-08 -2.64221e-29)
(-2.88053e-07 8.00502e-08 -3.54582e-24)
(-2.54065e-07 7.23265e-08 0)
(-2.20395e-07 6.39895e-08 -2.70903e-29)
(-1.66031e-07 4.94915e-08 4.04805e-29)
(-1.20182e-07 3.64981e-08 -1.34881e-29)
(-2.81479e-08 8.94558e-09 2.00762e-29)
(3.02385e-08 -9.42176e-09 -3.64311e-24)
(2.03619e-07 -6.52013e-08 3.58596e-24)
(2.75615e-07 -9.0233e-08 -7.45283e-24)
(6.78978e-07 -2.27108e-07 -1.43291e-29)
(7.67464e-07 -2.62832e-07 3.98643e-24)
(2.43163e-06 -8.4874e-07 3.18913e-29)
(2.75082e-06 -3.66118e-06 1.10969e-23)
(-1.25241e-05 0.000277011 0)
(3.75923e-06 0.000194937 0)
(1.09441e-05 0.000263931 -5.05795e-27)
(3.14229e-05 0.000286162 2.75831e-24)
(9.19213e-05 0.000303691 1.47079e-23)
(9.95851e-05 0.000188938 0)
(8.59096e-05 0.000151247 -4.39173e-27)
(9.40811e-05 0.000139501 -3.77652e-23)
(8.06391e-05 0.000103639 -3.3936e-23)
(7.70479e-05 8.76458e-05 -7.94461e-27)
(6.55755e-05 6.69574e-05 7.80774e-27)
(5.85068e-05 5.43387e-05 -2.94214e-23)
(4.92572e-05 4.19051e-05 -5.23298e-23)
(4.20652e-05 3.30588e-05 2.532e-23)
(3.49955e-05 2.55648e-05 -5.59014e-27)
(2.87144e-05 1.95459e-05 0)
(2.32301e-05 1.4829e-05 3.75813e-23)
(1.82497e-05 1.09294e-05 -3.28834e-23)
(1.39249e-05 7.85006e-06 3.14007e-23)
(1.03e-05 5.48594e-06 2.75523e-23)
(6.964e-06 3.50122e-06 -2.46275e-23)
(4.25366e-06 2.02728e-06 -2.69773e-27)
(1.92064e-06 8.73116e-07 -1.03459e-28)
(-7.36481e-08 -1.99025e-08 -2.32397e-27)
(-1.66687e-06 -6.57602e-07 -1.66841e-23)
(-2.99587e-06 -1.12551e-06 -2.93875e-23)
(-4.05657e-06 -1.44266e-06 -1.72724e-27)
(-4.85977e-06 -1.63706e-06 0)
(-5.49047e-06 -1.7448e-06 1.28755e-27)
(-5.925e-06 -1.77487e-06 1.03005e-23)
(-6.21653e-06 -1.75543e-06 2.07007e-27)
(-6.391e-06 -1.69242e-06 8.36074e-24)
(-6.44815e-06 -1.60062e-06 1.56987e-23)
(-6.43174e-06 -1.49266e-06 0)
(-6.34123e-06 -1.3699e-06 0)
(-6.19616e-06 -1.24228e-06 6.15165e-24)
(-6.01411e-06 -1.11422e-06 -3.07003e-29)
(-5.79654e-06 -9.86213e-07 -5.34838e-24)
(-5.56089e-06 -8.64681e-07 5.95009e-28)
(-5.30834e-06 -7.46832e-07 -5.75172e-28)
(-5.04601e-06 -6.37435e-07 0)
(-4.78434e-06 -5.36701e-07 -2.05803e-24)
(-4.51951e-06 -4.42309e-07 1.30783e-29)
(-4.26211e-06 -3.58674e-07 4.60838e-28)
(-4.01194e-06 -2.8078e-07 0)
(-3.77151e-06 -2.1248e-07 1.69563e-24)
(-3.54335e-06 -1.50772e-07 7.98947e-25)
(-3.32428e-06 -9.5674e-08 -1.89912e-28)
(-3.11585e-06 -4.73719e-08 -3.66452e-25)
(-2.91589e-06 -4.356e-09 0)
(-2.72424e-06 3.31662e-08 -2.43396e-29)
(-2.5419e-06 6.54115e-08 6.49997e-25)
(-2.38583e-06 9.20972e-08 1.55726e-24)
(-2.24458e-06 1.09924e-07 7.6671e-25)
(-2.12276e-06 1.22698e-07 1.51614e-24)
(-2.00847e-06 1.34922e-07 -3.00898e-24)
(-1.89893e-06 1.43084e-07 1.48631e-24)
(-1.80666e-06 1.48336e-07 0)
(-1.72207e-06 1.5401e-07 1.46362e-24)
(-1.64574e-06 1.58523e-07 -1.45428e-24)
(-1.5781e-06 1.63578e-07 1.76373e-28)
(-1.51709e-06 1.67271e-07 2.88321e-24)
(-1.46481e-06 1.71366e-07 1.75419e-28)
(-1.41844e-06 1.75457e-07 0)
(-1.37792e-06 1.79624e-07 2.84226e-24)
(-1.34459e-06 1.83398e-07 2.83449e-24)
(-1.31567e-06 1.8815e-07 0)
(-1.29235e-06 1.9251e-07 -2.82048e-24)
(-1.27305e-06 1.981e-07 -2.80134e-24)
(-1.25738e-06 2.02666e-07 0)
(-1.24649e-06 2.08712e-07 -2.78667e-24)
(-1.23739e-06 2.14649e-07 1.12258e-29)
(-1.23148e-06 2.20967e-07 -2.7867e-24)
(-1.22752e-06 2.27586e-07 8.45611e-29)
(-1.22367e-06 2.34765e-07 0)
(-1.22303e-06 2.40288e-07 5.5292e-24)
(-1.22163e-06 2.47707e-07 -5.546e-24)
(-1.22081e-06 2.54354e-07 1.10899e-23)
(-1.21792e-06 2.61552e-07 0)
(-1.21452e-06 2.6692e-07 -5.55997e-24)
(-1.20867e-06 2.73078e-07 2.7165e-28)
(-1.1997e-06 2.77346e-07 -2.05731e-28)
(-1.18687e-06 2.81726e-07 -5.48037e-24)
(-1.16904e-06 2.83727e-07 5.56024e-24)
(-1.14481e-06 2.84934e-07 -5.4954e-24)
(-1.11428e-06 2.83334e-07 4.25171e-29)
(-1.07302e-06 2.79546e-07 1.10261e-23)
(-1.02472e-06 2.72595e-07 5.59918e-24)
(-9.58276e-07 2.61013e-07 0)
(-8.86464e-07 2.46114e-07 4.31839e-29)
(-7.82115e-07 2.22362e-07 -8.44126e-29)
(-6.78645e-07 1.96652e-07 -5.65564e-24)
(-5.11813e-07 1.5206e-07 -4.31854e-29)
(-3.70901e-07 1.11903e-07 4.3018e-29)
(-8.84983e-08 2.72393e-08 -5.74696e-24)
(9.13076e-08 -2.96085e-08 5.80974e-24)
(6.22904e-07 -2.00875e-07 2.45577e-28)
(8.44735e-07 -2.78925e-07 5.94231e-24)
(2.08053e-06 -6.991e-07 1.12525e-29)
(2.35297e-06 -8.14227e-07 -6.35683e-24)
(7.42158e-06 -2.60038e-06 -1.70031e-28)
(6.53242e-06 -1.14016e-05 -2.66207e-23)
(-6.4549e-06 0.00047385 1.3938e-24)
(6.38909e-06 0.000336609 -1.10986e-24)
(1.94864e-05 0.00045279 5.51771e-25)
(5.42929e-05 0.000490686 -1.48643e-24)
(0.000156826 0.000520397 1.57381e-23)
(0.00017086 0.00032669 1.01865e-26)
(0.000148015 0.000261427 -4.79363e-27)
(0.000161829 0.000240617 8.1217e-23)
(0.000139085 0.000179422 7.29818e-23)
(0.000132868 0.000151591 8.56988e-27)
(0.00011328 0.000116056 0)
(0.000101095 9.41773e-05 7.51765e-27)
(8.52112e-05 7.27282e-05 1.1259e-22)
(7.28086e-05 5.74001e-05 0)
(6.06246e-05 4.44345e-05 -5.65062e-27)
(4.97856e-05 3.40059e-05 5.60862e-27)
(4.03141e-05 2.58284e-05 -4.04312e-23)
(3.1709e-05 1.90656e-05 3.53776e-23)
(2.42328e-05 1.37215e-05 0)
(1.79606e-05 9.61492e-06 -2.96499e-23)
(1.21897e-05 6.16759e-06 2.65031e-23)
(7.4954e-06 3.60281e-06 2.46477e-23)
(3.45389e-06 1.59404e-06 4.32343e-23)
(-2.10527e-09 3.8024e-08 4.82105e-27)
(-2.76593e-06 -1.07564e-06 -4.39391e-27)
(-5.07244e-06 -1.89388e-06 1.58175e-23)
(-6.91494e-06 -2.45066e-06 0)
(-8.31224e-06 -2.79393e-06 1.56173e-27)
(-9.41039e-06 -2.98628e-06 -1.48499e-27)
(-1.01692e-05 -3.04357e-06 -1.31242e-27)
(-1.068e-05 -3.01436e-06 3.55996e-27)
(-1.09881e-05 -2.90928e-06 -1.79965e-23)
(-1.1093e-05 -2.75386e-06 -8.44683e-24)
(-1.107e-05 -2.56988e-06 -9.59365e-28)
(-1.09182e-05 -2.35977e-06 8.4577e-28)
(-1.0672e-05 -2.14118e-06 -8.29053e-28)
(-1.03612e-05 -1.92119e-06 0)
(-9.9884e-06 -1.70111e-06 6.89366e-28)
(-9.58422e-06 -1.49203e-06 -1.30636e-27)
(-9.15063e-06 -1.28918e-06 4.97277e-24)
(-8.69969e-06 -1.10073e-06 5.72501e-28)
(-8.24948e-06 -9.2709e-07 2.21376e-24)
(-7.79385e-06 -7.64396e-07 0)
(-7.35058e-06 -6.20067e-07 0)
(-6.91967e-06 -4.85763e-07 -1.89004e-24)
(-6.50541e-06 -3.67794e-07 4.50556e-28)
(-6.11222e-06 -2.61349e-07 4.15782e-28)
(-5.73466e-06 -1.66167e-07 -4.08807e-28)
(-5.37534e-06 -8.28233e-08 3.94767e-25)
(-5.03063e-06 -8.51012e-09 -3.72765e-28)
(-4.70027e-06 5.62649e-08 3.63623e-25)
(-4.38583e-06 1.11995e-07 -6.99887e-25)
(-4.11649e-06 1.58083e-07 -8.37706e-25)
(-3.87294e-06 1.88951e-07 8.24855e-25)
(-3.66293e-06 2.10987e-07 1.63225e-24)
(-3.46584e-06 2.32175e-07 1.61932e-24)
(-3.27694e-06 2.46271e-07 0)
(-3.11771e-06 2.55464e-07 1.59376e-24)
(-2.97177e-06 2.65272e-07 -1.5754e-24)
(-2.8401e-06 2.73147e-07 1.56553e-24)
(-2.72353e-06 2.81851e-07 -1.55623e-24)
(-2.61827e-06 2.88317e-07 -3.1036e-24)
(-2.52797e-06 2.95399e-07 3.76765e-28)
(-2.44798e-06 3.02531e-07 3.07396e-24)
(-2.37817e-06 3.09735e-07 -6.11841e-24)
(-2.32064e-06 3.16307e-07 -3.05061e-24)
(-2.27068e-06 3.24507e-07 0)
(-2.23043e-06 3.3209e-07 3.03554e-24)
(-2.1972e-06 3.41747e-07 6.03014e-24)
(-2.17015e-06 3.49671e-07 0)
(-2.15128e-06 3.60071e-07 2.99916e-24)
(-2.13557e-06 3.7037e-07 3.0037e-24)
(-2.12533e-06 3.81265e-07 -5.3732e-28)
(-2.11853e-06 3.92722e-07 9.08484e-29)
(-2.11214e-06 4.05132e-07 -1.8304e-28)
(-2.11103e-06 4.14688e-07 -5.95076e-24)
(-2.10841e-06 4.27437e-07 5.96912e-24)
(-2.10702e-06 4.38935e-07 -5.96811e-24)
(-2.10211e-06 4.51381e-07 -5.94318e-24)
(-2.09629e-06 4.60647e-07 5.98399e-24)
(-2.0862e-06 4.7126e-07 -5.9095e-24)
(-2.07073e-06 4.78617e-07 5.99434e-24)
(-2.0486e-06 4.86156e-07 9.00417e-29)
(-2.01788e-06 4.89592e-07 -5.98429e-24)
(-1.97616e-06 4.91649e-07 5.91442e-24)
(-1.9235e-06 4.88863e-07 9.14432e-29)
(-1.85235e-06 4.82299e-07 -5.93374e-24)
(-1.76908e-06 4.70255e-07 -6.02608e-24)
(-1.65453e-06 4.50262e-07 -4.53498e-29)
(-1.53066e-06 4.24465e-07 0)
(-1.35079e-06 3.83457e-07 -5.95157e-24)
(-1.17231e-06 3.38933e-07 -3.65962e-28)
(-8.84847e-07 2.62023e-07 0)
(-6.41717e-07 1.9243e-07 0)
(-1.55233e-07 4.65073e-08 0)
(1.55361e-07 -5.2314e-08 -6.25285e-24)
(1.07056e-06 -3.47336e-07 -6.15464e-24)
(1.454e-06 -4.84124e-07 0)
(3.58019e-06 -1.20724e-06 0)
(4.04999e-06 -1.41624e-06 6.84555e-24)
(1.27379e-05 -4.47175e-06 6.19675e-24)
(1.07221e-05 -1.92778e-05 -2.83917e-23)
(-5.84577e-07 0.00068237 -1.49827e-24)
(9.13389e-06 0.000489163 1.19312e-24)
(2.92205e-05 0.000653548 9.92469e-28)
(7.89713e-05 0.000707935 -1.45617e-27)
(0.000225053 0.000750311 0)
(0.000246613 0.000475415 5.11068e-23)
(0.000214573 0.0003803 -3.59106e-23)
(0.000234214 0.000349285 -4.36499e-23)
(0.000201867 0.000261437 -3.92461e-23)
(0.00019281 0.000220676 0)
(0.000164681 0.000169315 0)
(0.000147007 0.000137388 0)
(0.00012406 0.000106247 -6.05667e-23)
(0.000106062 8.3893e-05 0)
(8.83932e-05 6.50119e-05 -6.07993e-27)
(7.26529e-05 4.9803e-05 6.0348e-27)
(5.88874e-05 3.78701e-05 4.35085e-23)
(4.6375e-05 2.79981e-05 4.81622e-27)
(3.54986e-05 2.01911e-05 -3.63757e-23)
(2.63647e-05 1.41866e-05 0)
(1.79626e-05 9.14632e-06 -2.85341e-23)
(1.11197e-05 5.38948e-06 -2.65142e-23)
(5.22714e-06 2.44641e-06 -2.32648e-23)
(1.86162e-07 1.63895e-07 -2.12174e-23)
(-3.84941e-06 -1.47322e-06 2.27774e-27)
(-7.21876e-06 -2.67793e-06 -1.55084e-28)
(-9.91276e-06 -3.50066e-06 1.57919e-23)
(-1.19589e-05 -4.01097e-06 0)
(-1.35685e-05 -4.30006e-06 -1.26288e-23)
(-1.4684e-05 -4.39144e-06 -1.50656e-27)
(-1.54377e-05 -4.3555e-06 -2.13588e-23)
(-1.58956e-05 -4.20841e-06 1.93732e-23)
(-1.60574e-05 -3.98714e-06 -1.14378e-27)
(-1.60319e-05 -3.72342e-06 8.22945e-24)
(-1.58185e-05 -3.42097e-06 -1.8686e-27)
(-1.5467e-05 -3.10583e-06 8.92356e-28)
(-1.50208e-05 -2.78799e-06 0)
(-1.44836e-05 -2.46948e-06 7.42e-28)
(-1.39003e-05 -2.16685e-06 -7.16779e-28)
(-1.32739e-05 -1.873e-06 1.89612e-28)
(-1.26217e-05 -1.59983e-06 6.36482e-28)
(-1.197e-05 -1.34794e-06 0)
(-1.13104e-05 -1.11192e-06 0)
(-1.06681e-05 -9.0233e-07 5.20128e-28)
(-1.00436e-05 -7.07394e-07 2.03307e-24)
(-9.44298e-06 -5.35977e-07 0)
(-8.87278e-06 -3.81357e-07 0)
(-8.32521e-06 -2.43056e-07 -4.31375e-28)
(-7.80397e-06 -1.21909e-07 7.73056e-30)
(-7.30388e-06 -1.3924e-08 4.01222e-28)
(-6.82461e-06 8.02179e-08 -3.91413e-25)
(-6.36831e-06 1.6123e-07 7.52943e-25)
(-5.97728e-06 2.28316e-07 -9.01772e-25)
(-5.62391e-06 2.73245e-07 -8.88379e-25)
(-5.31915e-06 3.05317e-07 -3.51314e-24)
(-5.03311e-06 3.36181e-07 1.74344e-24)
(-4.75895e-06 3.56724e-07 -4.22429e-28)
(-4.52775e-06 3.70207e-07 -1.71525e-24)
(-4.31585e-06 3.84545e-07 -2.0647e-28)
(-4.1247e-06 3.96077e-07 1.25511e-30)
(-3.95556e-06 4.0875e-07 1.67487e-24)
(-3.80273e-06 4.18208e-07 0)
(-3.67153e-06 4.28573e-07 -3.31884e-24)
(-3.55539e-06 4.38991e-07 2.39819e-28)
(-3.4541e-06 4.49514e-07 -3.94082e-28)
(-3.37056e-06 4.59101e-07 0)
(-3.29793e-06 4.71056e-07 1.99455e-28)
(-3.23948e-06 4.82122e-07 -3.98549e-28)
(-3.1913e-06 4.96178e-07 5.38901e-28)
(-3.15201e-06 5.07727e-07 0)
(-3.12448e-06 5.2283e-07 0)
(-3.10167e-06 5.37809e-07 3.23302e-24)
(-3.08674e-06 5.53701e-07 6.45645e-24)
(-3.07688e-06 5.70356e-07 0)
(-3.06784e-06 5.88361e-07 -3.22574e-24)
(-3.0662e-06 6.02266e-07 3.90606e-28)
(-3.06218e-06 6.20761e-07 -6.42569e-24)
(-3.06016e-06 6.37472e-07 6.42405e-24)
(-3.05312e-06 6.55534e-07 6.3964e-24)
(-3.04468e-06 6.6902e-07 -6.44125e-24)
(-3.03004e-06 6.84361e-07 -6.36092e-24)
(-3.00755e-06 6.9506e-07 -9.84823e-29)
(-2.97543e-06 7.05949e-07 0)
(-2.93086e-06 7.10936e-07 0)
(-2.87032e-06 7.13835e-07 0)
(-2.79388e-06 7.09759e-07 0)
(-2.69061e-06 7.00161e-07 -9.75345e-29)
(-2.56975e-06 6.82612e-07 9.88952e-29)
(-2.40356e-06 6.53504e-07 -6.40343e-24)
(-2.22374e-06 6.15934e-07 0)
(-1.96281e-06 5.56316e-07 6.40545e-24)
(-1.70367e-06 4.91439e-07 6.5518e-24)
(-1.28684e-06 3.79754e-07 -4.97695e-29)
(-9.33766e-07 2.78217e-07 -5.00926e-29)
(-2.28582e-07 6.6566e-08 5.07376e-29)
(2.22869e-07 -7.80688e-08 -2.55955e-29)
(1.54874e-06 -5.0565e-07 6.62519e-24)
(2.10653e-06 -7.07635e-07 -5.18358e-29)
(5.1846e-06 -1.75471e-06 3.95134e-29)
(5.86598e-06 -2.07433e-06 -7.3677e-24)
(1.83968e-05 -6.47277e-06 7.94673e-30)
(1.52075e-05 -2.76834e-05 4.073e-23)
(3.88863e-06 0.000903033 1.239e-28)
(1.20031e-05 0.000653351 6.41138e-25)
(4.02697e-05 0.000866734 -6.57546e-25)
(0.000105585 0.000938459 1.74947e-24)
(0.000296672 0.000993957 -1.06375e-26)
(0.000327067 0.00063595 -5.49379e-23)
(0.000285874 0.00050856 3.85893e-23)
(0.000311521 0.000466053 1.00073e-26)
(0.000269295 0.000350212 -1.0593e-26)
(0.000257172 0.000295331 1.97821e-26)
(0.00022007 0.000227111 -9.70775e-27)
(0.000196511 0.000184279 3.66e-23)
(0.000166046 0.000142719 -1.55017e-26)
(0.000142043 0.000112748 -3.15059e-23)
(0.000118492 8.74697e-05 0)
(9.74822e-05 6.70769e-05 -1.21692e-26)
(7.90923e-05 5.10664e-05 -4.68046e-23)
(6.23675e-05 3.78163e-05 9.64237e-27)
(4.78216e-05 2.73295e-05 3.9137e-23)
(3.55936e-05 1.92562e-05 3.43366e-23)
(2.43475e-05 1.24796e-05 3.06947e-23)
(1.51768e-05 7.41891e-06 0)
(7.27777e-06 3.45342e-06 0)
(5.17266e-07 3.7394e-07 4.5672e-23)
(-4.90069e-06 -1.83959e-06 -2.08133e-23)
(-9.42642e-06 -3.47122e-06 0)
(-1.30485e-05 -4.58958e-06 -3.39953e-23)
(-1.58037e-05 -5.28764e-06 -1.53256e-23)
(-1.79736e-05 -5.68748e-06 2.71826e-23)
(-1.94819e-05 -5.82116e-06 1.28496e-23)
(-2.05048e-05 -5.78248e-06 1.14954e-23)
(-2.1131e-05 -5.59398e-06 -1.04264e-23)
(-2.13603e-05 -5.30492e-06 0)
(-2.13377e-05 -4.9578e-06 -8.7006e-29)
(-2.10627e-05 -4.55795e-06 8.22609e-24)
(-2.06021e-05 -4.14054e-06 1.00404e-27)
(-2.00137e-05 -3.71862e-06 -7.03082e-24)
(-1.93028e-05 -3.29507e-06 -6.67014e-24)
(-1.85295e-05 -2.89253e-06 -7.41932e-28)
(-1.76979e-05 -2.50131e-06 -5.75793e-24)
(-1.68311e-05 -2.13737e-06 -6.85065e-28)
(-1.59642e-05 -1.80157e-06 2.56552e-24)
(-1.50864e-05 -1.48682e-06 2.44867e-24)
(-1.42312e-05 -1.20706e-06 0)
(-1.33993e-05 -9.4702e-07 2.18858e-24)
(-1.25991e-05 -7.18063e-07 -2.11403e-24)
(-1.18391e-05 -5.11602e-07 4.81655e-28)
(-1.11092e-05 -3.2691e-07 -9.37873e-28)
(-1.04142e-05 -1.65005e-07 -4.56523e-25)
(-9.74741e-06 -2.08e-08 0)
(-9.10829e-06 1.04987e-07 8.42542e-25)
(-8.49968e-06 2.13243e-07 -1.62071e-24)
(-7.97796e-06 3.03011e-07 9.70972e-25)
(-7.5067e-06 3.63122e-07 -4.64077e-28)
(-7.10013e-06 4.06047e-07 1.89105e-24)
(-6.71852e-06 4.47385e-07 -1.87587e-24)
(-6.35281e-06 4.74906e-07 0)
(-6.04422e-06 4.93081e-07 0)
(-5.76145e-06 5.1236e-07 0)
(-5.50637e-06 5.27887e-07 4.4121e-28)
(-5.28072e-06 5.44855e-07 -8.8151e-28)
(-5.07676e-06 5.57573e-07 4.39132e-28)
(-4.90157e-06 5.71522e-07 3.57206e-24)
(-4.74656e-06 5.85507e-07 -7.12212e-24)
(-4.61144e-06 5.99639e-07 -5.06761e-28)
(-4.4999e-06 6.12497e-07 0)
(-4.4029e-06 6.28523e-07 0)
(-4.32485e-06 6.43365e-07 0)
(-4.26059e-06 6.62162e-07 -3.49288e-24)
(-4.20813e-06 6.77645e-07 0)
(-4.17126e-06 6.97808e-07 0)
(-4.14079e-06 7.17837e-07 -6.95906e-24)
(-4.12078e-06 7.39121e-07 -3.47453e-24)
(-4.1076e-06 7.61388e-07 0)
(-4.09573e-06 7.8536e-07 6.94344e-24)
(-4.09348e-06 8.03989e-07 2.10126e-28)
(-4.08791e-06 8.28635e-07 -9.97785e-28)
(-4.08517e-06 8.50962e-07 -1.3829e-23)
(-4.07585e-06 8.75012e-07 -6.88551e-24)
(-4.06456e-06 8.93061e-07 6.93265e-24)
(-4.04498e-06 9.13437e-07 6.84589e-24)
(-4.01492e-06 9.27737e-07 6.94529e-24)
(-3.97205e-06 9.42162e-07 -1.04315e-28)
(-3.91254e-06 9.48819e-07 0)
(-3.83179e-06 9.52544e-07 0)
(-3.72974e-06 9.47062e-07 0)
(-3.59196e-06 9.34127e-07 0)
(-3.43068e-06 9.1062e-07 0)
(-3.20904e-06 8.71626e-07 6.89179e-24)
(-2.96904e-06 8.21329e-07 0)
(-2.6211e-06 7.41631e-07 -1.05422e-28)
(-2.27525e-06 6.54714e-07 5.35245e-29)
(-1.71968e-06 5.05611e-07 5.357e-29)
(-1.24833e-06 3.694e-07 0)
(-3.08848e-07 8.7222e-08 7.16612e-24)
(2.94322e-07 -1.07439e-07 -1.09975e-28)
(2.05963e-06 -6.76995e-07 -7.1304e-24)
(2.80557e-06 -9.51349e-07 2.79843e-29)
(6.90067e-06 -2.34472e-06 -7.28151e-24)
(7.80888e-06 -2.79401e-06 0)
(2.44152e-05 -8.61129e-06 0)
(2.0007e-05 -3.66458e-05 -2.18807e-23)
(7.72746e-06 0.00113621 0)
(1.50057e-05 0.00082997 -6.89092e-25)
(5.27819e-05 0.00109286 -6.8527e-27)
(0.000134277 0.00118279 -1.87898e-24)
(0.00037172 0.00125185 -1.93647e-23)
(0.000412432 0.000809188 0)
(0.000362214 0.000646958 1.17083e-26)
(0.000394038 0.000591514 -1.0752e-26)
(0.000341699 0.000446326 -1.1386e-26)
(0.000326267 0.000376026 3.18853e-26)
(0.000279757 0.000289858 -2.08745e-26)
(0.000249892 0.000235189 -7.87325e-23)
(0.000211437 0.000182431 7.00741e-23)
(0.000180989 0.000144197 3.38945e-23)
(0.000151133 0.000112 -5.94589e-23)
(0.000124457 8.59827e-05 0)
(0.000101087 6.55428e-05 0)
(7.98204e-05 4.86201e-05 4.40969e-23)
(6.13137e-05 3.52155e-05 0)
(4.5739e-05 2.48854e-05 -3.69531e-23)
(3.14181e-05 1.62148e-05 -7.77197e-27)
(1.97243e-05 9.72677e-06 7.79199e-27)
(9.64947e-06 4.6413e-06 0)
(1.02249e-06 6.86644e-07 -4.9145e-23)
(-5.89908e-06 -2.16242e-06 2.23838e-23)
(-1.16838e-05 -4.2662e-06 4.64364e-27)
(-1.63182e-05 -5.71373e-06 3.65873e-23)
(-1.98492e-05 -6.62304e-06 1.64949e-23)
(-2.26333e-05 -7.14981e-06 -1.46323e-23)
(-2.45748e-05 -7.33553e-06 -1.38234e-23)
(-2.58965e-05 -7.2991e-06 2.93141e-27)
(-2.6712e-05 -7.07047e-06 1.122e-23)
(-2.70213e-05 -6.71204e-06 0)
(-2.7008e-05 -6.278e-06 -9.53314e-24)
(-2.66723e-05 -5.7756e-06 -8.84987e-24)
(-2.60992e-05 -5.25007e-06 0)
(-2.5362e-05 -4.71754e-06 1.5137e-23)
(-2.44678e-05 -4.18201e-06 7.17619e-24)
(-2.34929e-05 -3.67283e-06 0)
(-2.24433e-05 -3.17746e-06 -1.48972e-27)
(-2.13478e-05 -2.71632e-06 1.47473e-27)
(-2.02513e-05 -2.29053e-06 -2.76093e-24)
(-1.91404e-05 -1.89132e-06 -2.63519e-24)
(-1.80575e-05 -1.5361e-06 0)
(-1.70036e-05 -1.20619e-06 -2.35589e-24)
(-1.59895e-05 -9.15267e-07 -1.44223e-28)
(-1.50262e-05 -6.53046e-07 0)
(-1.41008e-05 -4.1842e-07 0)
(-1.32195e-05 -2.12598e-07 4.92275e-25)
(-1.23738e-05 -2.94052e-08 -4.64829e-28)
(-1.15631e-05 1.30483e-07 -9.06868e-25)
(-1.0791e-05 2.68105e-07 8.72145e-25)
(-1.01289e-05 3.8235e-07 0)
(-9.53115e-06 4.5887e-07 -1.02923e-24)
(-9.01519e-06 5.13527e-07 2.03537e-24)
(-8.53093e-06 5.66214e-07 9.85536e-28)
(-8.06691e-06 6.0128e-07 -4.89405e-28)
(-7.67514e-06 6.24603e-07 4.83106e-28)
(-7.31621e-06 6.49259e-07 -4.81718e-28)
(-6.9924e-06 6.69168e-07 1.95207e-24)
(-6.706e-06 6.90771e-07 -1.94071e-24)
(-6.44709e-06 7.07066e-07 0)
(-6.22459e-06 7.24912e-07 -3.84533e-24)
(-6.0278e-06 7.42787e-07 3.83257e-24)
(-5.85629e-06 7.60827e-07 3.81419e-24)
(-5.71464e-06 7.77255e-07 4.64542e-28)
(-5.59142e-06 7.97677e-07 3.78926e-24)
(-5.49227e-06 8.16634e-07 0)
(-5.41069e-06 8.40519e-07 0)
(-5.34404e-06 8.60289e-07 3.77111e-24)
(-5.29709e-06 8.8588e-07 -2.28746e-28)
(-5.25836e-06 9.11375e-07 3.74483e-24)
(-5.23287e-06 9.38455e-07 0)
(-5.21607e-06 9.66797e-07 -2.2659e-28)
(-5.20113e-06 9.97106e-07 -3.73645e-24)
(-5.19816e-06 1.02089e-06 2.26173e-28)
(-5.19091e-06 1.0521e-06 7.44361e-24)
(-5.18733e-06 1.08049e-06 7.44227e-24)
(-5.17554e-06 1.1109e-06 -1.20017e-27)
(-5.16113e-06 1.13389e-06 2.27607e-28)
(-5.1362e-06 1.15961e-06 -7.3697e-24)
(-5.09795e-06 1.1778e-06 -7.47457e-24)
(-5.04348e-06 1.19593e-06 -1.31675e-31)
(-4.96788e-06 1.20439e-06 7.46297e-24)
(-4.86535e-06 1.2089e-06 1.12606e-28)
(-4.73574e-06 1.20189e-06 -2.28153e-28)
(-4.56087e-06 1.18526e-06 1.12872e-28)
(-4.35609e-06 1.15531e-06 0)
(-4.07489e-06 1.10557e-06 7.41862e-24)
(-3.77017e-06 1.04151e-06 7.58939e-24)
(-3.32887e-06 9.40128e-07 7.42158e-24)
(-2.88974e-06 8.29343e-07 -7.59162e-24)
(-2.18544e-06 6.39956e-07 0)
(-1.58683e-06 4.66105e-07 -5.80327e-29)
(-3.96415e-07 1.0826e-07 -1.54257e-23)
(3.70184e-07 -1.41073e-07 0)
(2.60551e-06 -8.62639e-07 7.67609e-24)
(3.55451e-06 -1.2174e-06 7.97828e-24)
(8.73562e-06 -2.98071e-06 -5.09436e-28)
(9.88691e-06 -3.58159e-06 0)
(3.08103e-05 -1.08956e-05 -9.188e-30)
(2.51472e-05 -4.61697e-05 -1.17213e-23)
(1.11431e-05 0.00138227 0)
(1.81516e-05 0.00101985 0)
(6.69215e-05 0.00133243 7.65303e-25)
(0.000165201 0.00144142 -7.80461e-27)
(0.000450213 0.00152445 4.15712e-23)
(0.000502905 0.000996071 -1.21112e-28)
(0.000443898 0.000796304 1.55585e-28)
(0.000482062 0.000726303 1.15502e-26)
(0.000419425 0.000550404 4.87002e-23)
(0.000400428 0.000463277 0)
(0.000344077 0.00035801 0)
(0.00030746 0.000290495 4.23396e-23)
(0.000260519 0.000225698 -7.53633e-23)
(0.000223158 0.000178502 -3.65126e-23)
(0.000186546 0.000138816 6.39825e-23)
(0.00015378 0.000106695 -5.96462e-23)
(0.000125045 8.14403e-05 5.42277e-23)
(9.88824e-05 6.05227e-05 -4.74433e-23)
(7.60999e-05 4.39388e-05 -1.14788e-26)
(5.69046e-05 3.11448e-05 0)
(3.9258e-05 2.04065e-05 8.36449e-27)
(2.48283e-05 1.23543e-05 -1.61777e-26)
(1.23928e-05 6.04067e-06 7.36068e-27)
(1.73877e-06 1.12388e-06 2.64461e-23)
(-6.81935e-06 -2.42679e-06 5.6802e-27)
(-1.39759e-05 -5.05346e-06 2.12213e-23)
(-1.97153e-05 -6.86801e-06 -1.96802e-23)
(-2.40958e-05 -8.01532e-06 -3.00566e-28)
(-2.75541e-05 -8.68768e-06 -1.5751e-23)
(-2.99738e-05 -8.93699e-06 -3.75742e-27)
(-3.16276e-05 -8.90904e-06 3.15528e-27)
(-3.26563e-05 -8.64238e-06 -1.20825e-23)
(-3.30602e-05 -8.21345e-06 1.13451e-23)
(-3.30641e-05 -7.68919e-06 -1.02638e-23)
(-3.26698e-05 -7.07906e-06 1.19429e-28)
(-3.19811e-05 -6.43944e-06 4.3502e-27)
(-3.10886e-05 -5.78947e-06 -8.14631e-24)
(-3.00014e-05 -5.13473e-06 -7.73007e-24)
(-2.88133e-05 -4.51176e-06 7.18054e-24)
(-2.7532e-05 -3.90507e-06 6.67194e-24)
(-2.61931e-05 -3.33988e-06 -1.53663e-27)
(-2.48518e-05 -2.81764e-06 4.55891e-29)
(-2.3492e-05 -2.32779e-06 2.83812e-24)
(-2.21657e-05 -1.89148e-06 0)
(-2.08743e-05 -1.48658e-06 1.22487e-27)
(-1.96313e-05 -1.12894e-06 -1.38367e-27)
(-1.845e-05 -8.06747e-07 1.15235e-24)
(-1.73151e-05 -5.18366e-07 1.11412e-24)
(-1.62339e-05 -2.65235e-07 -5.12945e-28)
(-1.51963e-05 -4.00481e-08 8.46508e-30)
(-1.42016e-05 1.56593e-07 4.88502e-25)
(-1.3254e-05 3.25864e-07 0)
(-1.24413e-05 4.66502e-07 0)
(-1.17078e-05 5.60777e-07 2.21437e-24)
(-1.10743e-05 6.28112e-07 4.29665e-28)
(-1.04798e-05 6.93107e-07 0)
(-9.91021e-06 7.36329e-07 -2.14864e-24)
(-9.42903e-06 7.65316e-07 5.23571e-28)
(-8.98826e-06 7.95814e-07 -5.14967e-28)
(-8.59061e-06 8.20539e-07 -4.20148e-24)
(-8.2389e-06 8.4714e-07 4.17824e-24)
(-7.92094e-06 8.67377e-07 -5.08775e-28)
(-7.64758e-06 8.8945e-07 4.13844e-24)
(-7.40585e-06 9.1158e-07 5.02233e-28)
(-7.19522e-06 9.33845e-07 -5.02632e-28)
(-7.02115e-06 9.5418e-07 4.98547e-28)
(-6.86974e-06 9.79343e-07 -4.07912e-24)
(-6.74787e-06 1.00279e-06 4.07527e-24)
(-6.64765e-06 1.03213e-06 -4.95098e-28)
(-6.56571e-06 1.05658e-06 -4.05836e-24)
(-6.50788e-06 1.08799e-06 0)
(-6.46023e-06 1.11941e-06 0)
(-6.42879e-06 1.1527e-06 0)
(-6.40804e-06 1.18762e-06 2.43904e-28)
(-6.38976e-06 1.22466e-06 -2.45802e-28)
(-6.38593e-06 1.25407e-06 0)
(-6.37685e-06 1.29228e-06 -8.0139e-24)
(-6.3723e-06 1.32722e-06 8.01137e-24)
(-6.3578e-06 1.36436e-06 7.97665e-24)
(-6.33995e-06 1.3927e-06 8.03299e-24)
(-6.30923e-06 1.42409e-06 -6.2826e-28)
(-6.2621e-06 1.44647e-06 8.04629e-24)
(-6.19513e-06 1.46849e-06 0)
(-6.10214e-06 1.47888e-06 1.05145e-27)
(-5.97618e-06 1.48411e-06 0)
(-5.81688e-06 1.47544e-06 -8.04847e-24)
(-5.60213e-06 1.45471e-06 0)
(-5.35054e-06 1.41778e-06 -1.23526e-28)
(-5.00536e-06 1.35634e-06 -7.98425e-24)
(-4.63103e-06 1.2774e-06 -8.16804e-24)
(-4.08953e-06 1.15259e-06 -7.98781e-24)
(-3.55011e-06 1.01593e-06 8.1707e-24)
(-2.68635e-06 7.83182e-07 0)
(-1.95084e-06 5.68452e-07 0)
(-4.91754e-07 1.29435e-07 1.66035e-23)
(4.50883e-07 -1.79702e-07 8.39346e-24)
(3.18871e-06 -1.06397e-06 -1.65242e-23)
(4.35685e-06 -1.50815e-06 1.43187e-27)
(1.06969e-05 -3.66641e-06 1.68707e-23)
(1.21085e-05 -4.44409e-06 1.67809e-29)
(3.75987e-05 -1.33343e-05 -8.31995e-24)
(3.06499e-05 -5.62735e-05 5.05022e-23)
(1.40333e-05 0.00164151 0)
(2.14537e-05 0.00122385 7.94559e-25)
(8.28639e-05 0.00158591 3.55616e-27)
(0.000198518 0.00171482 -4.01045e-27)
(0.000532149 0.00181221 -6.22496e-26)
(0.000598674 0.00119758 6.75575e-23)
(0.000531238 0.000957468 -2.70116e-26)
(0.000575899 0.0008711 -1.96371e-27)
(0.00050284 0.000663129 -5.23205e-23)
(0.000480009 0.000557642 -5.69254e-29)
(0.000413392 0.000432068 4.7819e-23)
(0.000369552 0.000350609 -4.55125e-23)
(0.000313607 0.000272871 0)
(0.000268835 0.00021595 3.9238e-23)
(0.000224986 0.000168159 6.8834e-23)
(0.000185674 0.000129409 6.41965e-23)
(0.000151163 9.89179e-05 -5.83248e-23)
(0.00011972 7.36518e-05 5.10504e-23)
(9.23204e-05 5.36012e-05 0)
(6.92068e-05 3.81149e-05 1.00768e-26)
(4.79622e-05 2.51171e-05 -9.71131e-27)
(3.05644e-05 1.53492e-05 0)
(1.55665e-05 7.68738e-06 0)
(2.70957e-06 1.71159e-06 0)
(-7.63102e-06 -2.61462e-06 0)
(-1.62834e-05 -5.82115e-06 -2.28447e-23)
(-2.32301e-05 -8.04556e-06 0)
(-2.85417e-05 -9.4614e-06 0)
(-3.27407e-05 -1.03009e-05 3.39059e-23)
(-3.5689e-05 -1.06274e-05 -4.04437e-27)
(-3.77126e-05 -1.06157e-05 3.39627e-27)
(-3.89817e-05 -1.03141e-05 1.29998e-23)
(-3.94972e-05 -9.81415e-06 -1.22049e-23)
(-3.95281e-05 -9.19663e-06 -3.17628e-27)
(-3.90783e-05 -8.47369e-06 1.02574e-23)
(-3.82716e-05 -7.71388e-06 2.28682e-27)
(-3.72177e-05 -6.9394e-06 8.76289e-24)
(-3.59277e-05 -6.15789e-06 8.31849e-24)
(-3.45142e-05 -5.41363e-06 -7.7215e-24)
(-3.29872e-05 -4.68802e-06 -7.18173e-24)
(-3.13896e-05 -4.01151e-06 -1.70851e-27)
(-2.97873e-05 -3.3859e-06 1.53971e-27)
(-2.8162e-05 -2.79886e-06 -1.01409e-27)
(-2.65756e-05 -2.27541e-06 0)
(-2.50302e-05 -1.79003e-06 0)
(-2.35423e-05 -1.36055e-06 5.27208e-24)
(-2.21277e-05 -9.73856e-07 1.41412e-27)
(-2.07682e-05 -6.27615e-07 -1.199e-24)
(-1.94728e-05 -3.23515e-07 0)
(-1.82294e-05 -5.31063e-08 0)
(-1.70372e-05 1.83147e-07 0)
(-1.59013e-05 3.8654e-07 0)
(-1.4927e-05 5.55648e-07 1.21108e-24)
(-1.40478e-05 6.69129e-07 -2.38339e-24)
(-1.32881e-05 7.50183e-07 -2.35785e-24)
(-1.25752e-05 8.28517e-07 -2.33936e-24)
(-1.18923e-05 8.80576e-07 2.31182e-24)
(-1.1315e-05 9.15788e-07 -2.3022e-24)
(-1.07864e-05 9.52645e-07 5.54313e-28)
(-1.03093e-05 9.8266e-07 2.26073e-24)
(-9.88745e-06 1.01466e-06 -2.24886e-24)
(-9.50602e-06 1.03924e-06 4.48356e-24)
(-9.17799e-06 1.06591e-06 5.43114e-28)
(-8.88794e-06 1.09269e-06 -2.16259e-30)
(-8.63524e-06 1.11953e-06 -5.41029e-28)
(-8.42629e-06 1.14414e-06 -5.36624e-28)
(-8.24456e-06 1.17442e-06 1.74761e-30)
(-8.09822e-06 1.20276e-06 -8.76971e-24)
(-7.97792e-06 1.23796e-06 -4.35627e-24)
(-7.8795e-06 1.26751e-06 -4.36917e-24)