/*--------------------------------*- C++ -*----------------------------------*\
| =========                 |                                                 |
| \\      /  F ield         | OpenFOAM: The Open Source CFD Toolbox           |
|  \\    /   O peration     | Version:  5.x                                   |
|   \\  /    A nd           | Web:      www.OpenFOAM.org                      |
|    \\/     M anipulation  |                                                 |
\*---------------------------------------------------------------------------*/
FoamFile
{
    version     2.0;
    format      ascii;
    class       volVectorField;
    location    "3500";
    object      wallShearStress;
}
// * * * * * * * * * * * * * * * * * * * * * * * * * * * * * * * * * * * * * //

dimensions      [0 2 -2 0 0 0 0];

internalField   uniform (0 0 0);

boundaryField
{
    inlet
    {
        type            calculated;
        value           uniform (0 0 0);
    }
    outlet
    {
        type            calculated;
        value           uniform (0 0 0);
    }
    walls
    {
        type            calculated;
        value           nonuniform List<vector> 
204
(
(-9.92469e-06 -2.17497e-05 9.11575e-29)
(-3.81913e-07 -1.83709e-05 -8.68039e-29)
(-1.06834e-06 -2.5597e-05 -1.91241e-25)
(-3.33272e-06 -3.01997e-05 -2.08935e-25)
(-1.03278e-05 -3.40305e-05 3.21947e-24)
(-1.29454e-05 -2.44471e-05 -7.79991e-24)
(-1.20673e-05 -2.11962e-05 -5.89437e-24)
(-1.41504e-05 -2.09603e-05 -1.70387e-28)
(-1.36321e-05 -1.74794e-05 1.08752e-27)
(-1.39615e-05 -1.58589e-05 1.18603e-27)
(-1.33036e-05 -1.35552e-05 1.27269e-27)
(-1.29123e-05 -1.1971e-05 -1.01954e-23)
(-1.21896e-05 -1.03472e-05 -1.98782e-23)
(-1.15424e-05 -9.05114e-06 -1.67929e-27)
(-1.08464e-05 -7.90318e-06 1.97045e-23)
(-1.01345e-05 -6.87973e-06 -1.98005e-23)
(-9.46134e-06 -6.02102e-06 -2.3662e-27)
(-8.78735e-06 -5.24385e-06 0)
(-8.12958e-06 -4.56392e-06 3.72649e-23)
(-7.53294e-06 -3.99242e-06 1.74654e-23)
(-6.91637e-06 -3.45486e-06 2.0663e-40)
(-6.34353e-06 -2.99623e-06 -5.73972e-42)
(-5.80696e-06 -2.59452e-06 1.54569e-23)
(-5.26594e-06 -2.22211e-06 -1.49903e-23)
(-4.76777e-06 -1.9054e-06 -1.44714e-23)
(-4.29169e-06 -1.62136e-06 -2.6967e-23)
(-3.8229e-06 -1.36354e-06 1.3207e-23)
(-3.39512e-06 -1.14541e-06 -1.24977e-23)
(-2.97775e-06 -9.46755e-07 1.16339e-23)
(-2.58184e-06 -7.73166e-07 1.14825e-23)
(-2.22206e-06 -6.26833e-07 -1.07011e-23)
(-1.87076e-06 -4.9457e-07 5.39534e-40)
(-1.54758e-06 -3.83213e-07 9.79153e-24)
(-1.25288e-06 -2.89843e-07 -1.09753e-27)
(-9.73539e-07 -2.09261e-07 1.0776e-27)
(-7.24705e-07 -1.44426e-07 2.98881e-28)
(-4.98625e-07 -9.15117e-08 -7.76137e-24)
(-2.93953e-07 -4.91789e-08 -2.36493e-28)
(-1.17443e-07 -1.7518e-08 8.53851e-28)
(3.99599e-08 6.2915e-09 6.68692e-24)
(1.73277e-07 2.24925e-08 -7.99531e-28)
(2.84766e-07 3.24473e-08 1.03974e-40)
(3.78081e-07 3.74499e-08 0)
(4.50836e-07 3.82208e-08 2.79253e-24)
(5.08225e-07 3.59254e-08 6.72623e-44)
(5.49207e-07 3.11273e-08 5.14863e-24)
(5.7708e-07 2.47485e-08 1.22181e-24)
(5.93166e-07 1.7241e-08 1.1838e-24)
(5.98945e-07 9.22206e-09 -2.08709e-41)
(5.96189e-07 1.0283e-09 3.08286e-44)
(5.85922e-07 -6.9848e-09 5.28308e-25)
(5.69015e-07 -1.45294e-08 4.96923e-28)
(5.50929e-07 -2.1293e-08 1.22729e-24)
(5.32215e-07 -2.60609e-08 1.21342e-24)
(5.12745e-07 -2.95142e-08 2.40933e-24)
(4.93743e-07 -3.31038e-08 -2.39258e-24)
(4.7286e-07 -3.54326e-08 4.74122e-24)
(4.53418e-07 -3.70536e-08 2.87233e-28)
(4.34709e-07 -3.86867e-08 -2.3365e-24)
(4.16198e-07 -3.99467e-08 2.31942e-24)
(3.98753e-07 -4.10415e-08 -8.96831e-44)
(3.8167e-07 -4.19029e-08 4.58453e-24)
(3.65519e-07 -4.25286e-08 -2.78673e-28)
(3.49889e-07 -4.30717e-08 -4.5333e-24)
(3.3464e-07 -4.33153e-08 -2.75818e-28)
(3.19989e-07 -4.34598e-08 4.48235e-24)
(3.05412e-07 -4.34235e-08 1.36403e-28)
(2.91221e-07 -4.31775e-08 -2.45642e-40)
(2.77317e-07 -4.28404e-08 4.4157e-24)
(2.63549e-07 -4.23246e-08 1.44509e-44)
(2.50467e-07 -4.16897e-08 4.37384e-24)
(2.378e-07 -4.10371e-08 8.72774e-24)
(2.26041e-07 -4.02886e-08 -2.83399e-41)
(2.15264e-07 -3.96673e-08 -1.31593e-28)
(2.05533e-07 -3.9016e-08 1.32152e-28)
(1.9723e-07 -3.86335e-08 1.30423e-28)
(1.90117e-07 -3.83261e-08 -8.56257e-24)
(1.84667e-07 -3.82815e-08 1.70456e-23)
(1.80632e-07 -3.84704e-08 0)
(1.78124e-07 -3.89706e-08 -7.33608e-40)
(1.77107e-07 -3.97228e-08 -8.36816e-24)
(1.77411e-07 -4.08639e-08 8.45624e-24)
(1.79123e-07 -4.22303e-08 -8.29091e-24)
(1.81934e-07 -4.40111e-08 -1.27842e-28)
(1.85818e-07 -4.59317e-08 6.29053e-29)
(1.905e-07 -4.82903e-08 -8.30838e-24)
(1.95623e-07 -5.06495e-08 -1.35452e-28)
(2.01193e-07 -5.33634e-08 5.45139e-32)
(2.06138e-07 -5.57989e-08 6.18073e-29)
(2.11075e-07 -5.84798e-08 8.23143e-24)
(2.13509e-07 -6.03884e-08 -1.0762e-42)
(2.15575e-07 -6.23353e-08 6.17862e-29)
(2.11614e-07 -6.24574e-08 -9.17858e-29)
(2.07819e-07 -6.26167e-08 3.03374e-29)
(1.90161e-07 -5.84993e-08 4.01577e-29)
(1.7711e-07 -5.56125e-08 7.9487e-24)
(1.30393e-07 -4.17918e-08 -7.82304e-24)
(1.02117e-07 -3.31447e-08 1.57023e-23)
(-1.45921e-08 5.17639e-09 2.98799e-29)
(-7.37789e-08 2.60366e-08 -7.88471e-24)
(-5.08456e-07 1.78386e-07 -1.76206e-28)
(-7.76361e-07 1.49828e-06 -1.57502e-23)
(5.49193e-06 -1.92198e-05 3.84399e-24)
(3.41316e-06 -9.98018e-06 -9.87363e-24)
(3.85038e-06 -7.48175e-06 8.53976e-28)
(1.20906e-06 -1.85605e-06 -1.31546e-23)
(-5.77184e-07 6.52445e-07 1.3833e-23)
(-3.24041e-06 3.21196e-06 -1.24281e-23)
(-5.15123e-06 4.34083e-06 1.49451e-27)
(-6.97396e-06 5.06254e-06 -2.81605e-40)
(-8.21592e-06 5.19556e-06 -1.43493e-42)
(-9.20031e-06 5.11221e-06 -8.84703e-24)
(-9.79614e-06 4.81801e-06 -1.42123e-27)
(-1.02141e-05 4.47027e-06 7.1511e-24)
(-1.03861e-05 4.06381e-06 1.21411e-23)
(-1.04603e-05 3.67162e-06 -5.60093e-24)
(-1.04162e-05 3.28731e-06 2.36557e-27)
(-1.02836e-05 2.92199e-06 -4.20774e-24)
(-1.013e-05 2.59161e-06 7.61792e-24)
(-9.90627e-06 2.28304e-06 4.30479e-42)
(-9.67692e-06 2.00795e-06 -1.4401e-24)
(-9.43743e-06 1.75891e-06 9.41673e-42)
(-9.15814e-06 1.52993e-06 1.96903e-28)
(-8.91218e-06 1.33005e-06 1.88547e-24)
(-8.64425e-06 1.14812e-06 -4.91777e-29)
(-8.37483e-06 9.85549e-07 -4.41346e-29)
(-8.12932e-06 8.39985e-07 -5.66033e-25)
(-7.86379e-06 7.08426e-07 -4.57198e-25)
(-7.62189e-06 5.93281e-07 3.79721e-25)
(-7.38591e-06 4.87861e-07 2.8026e-44)
(-7.14062e-06 3.94472e-07 9.85479e-29)
(-6.92568e-06 3.1202e-07 -9.77575e-29)
(-6.70421e-06 2.37011e-07 5.79771e-26)
(-6.49045e-06 1.72308e-07 -1.47136e-44)
(-6.29647e-06 1.12778e-07 6.41747e-27)
(-6.09256e-06 6.07296e-08 1.54153e-27)
(-5.91185e-06 1.60893e-08 1.42495e-27)
(-5.73383e-06 -2.57431e-08 -4.74702e-27)
(-5.55644e-06 -6.01174e-08 -4.28407e-29)
(-5.4016e-06 -9.15869e-08 3.16601e-26)
(-5.23925e-06 -1.18833e-07 6.55137e-29)
(-5.09483e-06 -1.40796e-07 -8.18367e-26)
(-4.95648e-06 -1.6207e-07 9.05858e-26)
(-4.81839e-06 -1.77791e-07 -4.89447e-29)
(-4.70115e-06 -1.92529e-07 2.07951e-25)
(-4.57746e-06 -2.042e-07 -2.16315e-25)
(-4.47345e-06 -2.12793e-07 -4.53495e-25)
(-4.37104e-06 -2.21274e-07 5.5738e-29)
(-4.27731e-06 -2.25588e-07 4.83536e-25)
(-4.1965e-06 -2.30669e-07 -5.02321e-25)
(-4.11626e-06 -2.32169e-07 4.95645e-29)
(-4.05575e-06 -2.34008e-07 -6.29188e-29)
(-3.99249e-06 -2.33431e-07 -6.67639e-29)
(-3.95474e-06 -2.30112e-07 6.58812e-29)
(-3.93995e-06 -2.31386e-07 -6.93774e-25)
(-3.90905e-06 -2.35902e-07 -7.21848e-25)
(-3.88264e-06 -2.38861e-07 1.86532e-29)
(-3.86112e-06 -2.45055e-07 -9.54162e-29)
(-3.82341e-06 -2.52796e-07 1.94964e-28)
(-3.78145e-06 -2.58442e-07 -9.86388e-29)
(-3.74259e-06 -2.62275e-07 -8.42302e-25)
(-3.70579e-06 -2.66306e-07 3.36312e-44)
(-3.66554e-06 -2.69328e-07 -1.77292e-24)
(-3.63112e-06 -2.71357e-07 9.06988e-25)
(-3.5975e-06 -2.7387e-07 -1.14541e-28)
(-3.56294e-06 -2.75121e-07 2.31147e-28)
(-3.53522e-06 -2.76297e-07 9.64912e-25)
(-3.50581e-06 -2.77469e-07 1.21459e-28)
(-3.48002e-06 -2.77725e-07 -1.83124e-28)
(-3.45799e-06 -2.78418e-07 6.15691e-29)
(-3.43493e-06 -2.78562e-07 -3.2824e-41)
(-3.41778e-06 -2.78452e-07 -1.0562e-24)
(-3.40091e-06 -2.78649e-07 -6.625e-29)
(-3.38651e-06 -2.78274e-07 1.09703e-24)
(-3.37593e-06 -2.78164e-07 -1.10775e-24)
(-3.36535e-06 -2.7788e-07 -6.98385e-29)
(-3.35956e-06 -2.77476e-07 6.93733e-29)
(-3.35445e-06 -2.77277e-07 0)
(-3.35253e-06 -2.76913e-07 1.19248e-24)
(-3.35285e-06 -2.767e-07 -1.20203e-24)
(-3.35513e-06 -2.76506e-07 -4.48416e-44)
(-3.36058e-06 -2.76357e-07 1.24275e-24)
(-3.36753e-06 -2.76342e-07 2.54824e-24)
(-3.37792e-06 -2.76431e-07 2.58293e-24)
(-3.38995e-06 -2.76615e-07 1.31548e-24)
(-3.40531e-06 -2.77042e-07 -1.34282e-24)
(-3.42266e-06 -2.77536e-07 -1.36012e-24)
(-3.44312e-06 -2.78341e-07 -2.79191e-24)
(-3.46647e-06 -2.79268e-07 -1.57977e-40)
(-3.49233e-06 -2.80513e-07 4.47746e-29)
(-3.52267e-06 -2.82015e-07 -4.42648e-29)
(-3.55448e-06 -2.83831e-07 1.50546e-24)
(-3.59304e-06 -2.86108e-07 1.53631e-24)
(-3.63187e-06 -2.88621e-07 -1.18168e-30)
(-3.68075e-06 -2.91934e-07 4.89543e-29)
(-3.72785e-06 -2.95278e-07 1.61936e-24)
(-3.79413e-06 -3.00288e-07 -1.67611e-24)
(-3.84582e-06 -3.04327e-07 -1.73936e-24)
(-3.9509e-06 -3.12736e-07 -3.51081e-24)
(-3.99179e-06 -3.16494e-07 0)
(-4.20096e-06 -3.33568e-07 -1.85012e-24)
(-4.18608e-06 -3.33886e-07 7.08904e-30)
(-4.79371e-06 -3.83539e-07 -1.92292e-24)
(-4.58626e-06 -1.66902e-06 -4.34394e-24)
)
;
    }
    frontAndBack
    {
        type            empty;
    }
}


// ************************************************************************* //
