/*--------------------------------*- C++ -*----------------------------------*\
| =========                 |                                                 |
| \\      /  F ield         | OpenFOAM: The Open Source CFD Toolbox           |
|  \\    /   O peration     | Version:  5.x                                   |
|   \\  /    A nd           | Web:      www.OpenFOAM.org                      |
|    \\/     M anipulation  |                                                 |
\*---------------------------------------------------------------------------*/
FoamFile
{
    version     2.0;
    format      ascii;
    class       volScalarField;
    location    "3500";
    object      yPlus;
}
// * * * * * * * * * * * * * * * * * * * * * * * * * * * * * * * * * * * * * //

dimensions      [0 0 0 0 0 0 0];

internalField   uniform 0;

boundaryField
{
    inlet
    {
        type            calculated;
        value           uniform 0;
    }
    outlet
    {
        type            calculated;
        value           uniform 0;
    }
    walls
    {
        type            calculated;
        value           nonuniform List<scalar> 
204
(
0.0166206
0.0149182
0.0177413
0.0194849
0.0211179
0.0181961
0.0171718
0.017331
0.0160777
0.0155638
0.0146348
0.0139916
0.0132415
0.0126083
0.0119967
0.0114018
0.0108633
0.0103304
0.00982074
0.00935829
0.00887682
0.00842753
0.00799762
0.00755465
0.00713865
0.00672622
0.00630608
0.00590837
0.00550031
0.00509345
0.00470186
0.00429201
0.00388578
0.00348122
0.00305554
0.00262641
0.00217056
0.00166071
0.00104633
0.000609568
0.00126482
0.00161756
0.00185979
0.00202732
0.00214913
0.00223133
0.00228511
0.00231509
0.00232548
0.00231985
0.0023002
0.00226788
0.00223243
0.00219665
0.00216013
0.00212318
0.00208254
0.00204495
0.00200764
0.00197
0.00193381
0.00189761
0.00186286
0.00182834
0.00179398
0.00176022
0.00172556
0.00169102
0.00165605
0.00162039
0.00158562
0.00155085
0.00151794
0.00148711
0.00145889
0.00143498
0.00141457
0.0014
0.00139034
0.00138659
0.00138846
0.00139571
0.00140851
0.00142577
0.00144724
0.00147191
0.00149824
0.00152628
0.00155189
0.00157757
0.00159383
0.00160895
0.00160132
0.00159429
0.00153211
0.00148542
0.0012805
0.00113804
0.000433719
0.000978598
0.00257929
0.00369803
0.0149583
0.0109425
0.00952449
0.00477942
0.00292023
0.00650533
0.00770121
0.00850163
0.00884002
0.00903131
0.00905972
0.00904313
0.00895747
0.00886506
0.00875151
0.00862475
0.00850696
0.00837631
0.00825539
0.00813755
0.00800978
0.00790106
0.00778646
0.00767401
0.00757179
0.00746202
0.00736416
0.00726677
0.00716566
0.00707843
0.0069861
0.00689823
0.00681754
0.00673112
0.00665705
0.00658119
0.0065063
0.00644226
0.00637255
0.00631399
0.00625616
0.00619931
0.00615404
0.00610389
0.0060672
0.00602958
0.00599924
0.00597624
0.00595474
0.00594683
0.0059375
0.00594921
0.0059723
0.00597681
0.00598513
0.00599495
0.0059902
0.00598255
0.00597782
0.00597411
0.00596747
0.00596575
0.00596399
0.00596158
0.00596478
0.00596612
0.00597078
0.0059783
0.00598491
0.00599675
0.00600857
0.00602275
0.00604025
0.00605775
0.0060797
0.00610222
0.00612781
0.00615551
0.00618511
0.0062178
0.006252
0.00628957
0.00632883
0.00637137
0.00641598
0.0064637
0.00651435
0.00656756
0.00662523
0.0066845
0.00675035
0.00681666
0.00689263
0.00696714
0.00705974
0.00713893
0.0072676
0.00733722
0.00756006
0.00757984
0.00814772
0.00818544
)
;
    }
    frontAndBack
    {
        type            empty;
    }
}


// ************************************************************************* //
