/*--------------------------------*- C++ -*----------------------------------*\
| =========                 |                                                 |
| \\      /  F ield         | OpenFOAM: The Open Source CFD Toolbox           |
|  \\    /   O peration     | Version:  5.x                                   |
|   \\  /    A nd           | Web:      www.OpenFOAM.org                      |
|    \\/     M anipulation  |                                                 |
\*---------------------------------------------------------------------------*/
FoamFile
{
    version     2.0;
    format      ascii;
    class       volScalarField;
    location    "600";
    object      nut;
}
// * * * * * * * * * * * * * * * * * * * * * * * * * * * * * * * * * * * * * //

dimensions      [0 2 -1 0 0 0 0];

internalField   nonuniform List<scalar> 
11040
(
0.00332942
0.00390939
0.00420021
0.00424544
0.00406819
0.00380355
0.0035773
0.00338117
0.00317795
0.00294505
0.00265446
0.00237988
0.00216559
0.00199921
0.00182991
0.00164689
0.00143833
0.00108362
0.000776851
0.000632478
0.000547306
0.000466518
0.000403985
0.000440583
0.000541689
0.00054616
0.000498418
0.000433671
0.000416442
0.000415015
0.000422488
0.000438604
0.00046398
0.000497078
0.000532564
0.000557191
0.000541196
0.000458239
0.000441505
0.000527471
0.000891656
0.00771756
0.00824207
0.00749556
0.00672139
0.00599139
0.00536178
0.00528611
0.00531946
0.0052843
0.00514306
0.00495202
0.004802
0.00469509
0.00457366
0.00439335
0.00418981
0.00398183
0.00373773
0.00347761
0.00327219
0.00298116
0.00256941
0.00215245
0.00192696
0.00170039
0.00148586
0.00132007
0.00116632
0.00105968
0.000980413
0.000937394
0.000931938
0.000969547
0.00105362
0.00118708
0.00137022
0.00158924
0.00182156
0.00211726
0.00273709
0.00433433
0.015742
0.0165418
0.0154626
0.0141354
0.0126556
0.0111912
0.00987798
0.0087515
0.00781788
0.00699403
0.0064943
0.00632004
0.00626121
0.00625577
0.00622491
0.0061513
0.00603673
0.0058825
0.00569953
0.00552138
0.00532044
0.00511821
0.00489347
0.00454269
0.00401892
0.00351713
0.003161
0.00283828
0.00260525
0.00242265
0.00230329
0.0022689
0.00233563
0.00251442
0.0028085
0.0032128
0.00370366
0.00424285
0.00485064
0.0059484
0.00888786
0.0249222
0.0257888
0.0246122
0.0228875
0.0208851
0.0188207
0.0168216
0.0149366
0.0132072
0.0116129
0.0101144
0.0088807
0.00821127
0.00796762
0.00786109
0.00780128
0.00774568
0.00766974
0.00756413
0.00744473
0.00733138
0.00727649
0.00725314
0.00717018
0.0069478
0.00653319
0.00593969
0.00535506
0.00493408
0.00460097
0.00436761
0.00427291
0.00434916
0.00462251
0.00510334
0.0057831
0.00661508
0.00753694
0.00854652
0.010188
0.0143306
0.0349318
0.0357491
0.034573
0.0326166
0.0302358
0.0276744
0.0250946
0.022537
0.020104
0.0178088
0.0155465
0.0135085
0.0119149
0.0106999
0.0100645
0.00970355
0.0094821
0.00933386
0.0092193
0.00912652
0.00907685
0.0091313
0.00928987
0.00948713
0.00960968
0.00955802
0.00929163
0.00885054
0.0083081
0.00777709
0.00737522
0.00717312
0.00722406
0.00757739
0.00825703
0.00925685
0.0104871
0.0118503
0.0132924
0.0154444
0.0204283
0.0453878
0.0461089
0.0449963
0.0429722
0.0403924
0.0374385
0.0343178
0.0311827
0.0281428
0.0252187
0.0222891
0.0195576
0.0172458
0.0153338
0.0137326
0.0124987
0.0118202
0.0113563
0.0110134
0.0107719
0.0106557
0.0107204
0.0109825
0.0114142
0.0118948
0.0122676
0.012425
0.0123492
0.0120867
0.0117187
0.0113576
0.0111422
0.0112114
0.0116521
0.0125172
0.013856
0.0155147
0.017351
0.0191934
0.0217225
0.0270586
0.0559764
0.0565642
0.0555479
0.0535888
0.050955
0.0478404
0.0444517
0.0409416
0.0374407
0.0339891
0.03047
0.0271009
0.02414
0.021605
0.0193203
0.0172622
0.0154724
0.0143362
0.0135101
0.0128601
0.0124063
0.0122413
0.0123999
0.0128922
0.0136416
0.0144576
0.015134
0.0155542
0.0157145
0.015682
0.0155749
0.015566
0.0158748
0.0166875
0.0180639
0.0198935
0.0219733
0.0242804
0.0264064
0.0291002
0.0340998
0.0663469
0.0668142
0.0659176
0.0641142
0.061588
0.058535
0.0551252
0.0514856
0.0477436
0.0439488
0.0399953
0.0361038
0.0325667
0.0294416
0.0265639
0.0238833
0.0213547
0.0190644
0.017414
0.0160914
0.0149962
0.0142664
0.0139744
0.0141495
0.0148243
0.0158865
0.0170798
0.0181313
0.0188955
0.0193732
0.019665
0.0199636
0.0205589
0.0217676
0.0237968
0.0266177
0.029879
0.0329539
0.0351659
0.0377249
0.0417145
0.0762587
0.0766097
0.0758327
0.0742341
0.0719379
0.0691116
0.0658839
0.0623451
0.0586029
0.054698
0.0505334
0.0463135
0.0423428
0.0387172
0.0353136
0.0320952
0.0290221
0.0260305
0.0233289
0.0211418
0.0192291
0.017704
0.016641
0.0160424
0.0160565
0.016753
0.0180333
0.0196091
0.0211262
0.0223579
0.0232829
0.0240527
0.024972
0.0264642
0.028923
0.0324769
0.0368828
0.0415407
0.0454836
0.0478467
0.0505618
0.08547
0.0857221
0.085062
0.0836895
0.0816884
0.0791903
0.076286
0.0730295
0.0695003
0.0657003
0.0615576
0.0572433
0.0530459
0.0490926
0.0453218
0.0416877
0.0381724
0.0347275
0.0313444
0.0283131
0.0255968
0.0232879
0.021397
0.0198205
0.0187366
0.0183416
0.0187723
0.0200114
0.0218275
0.0238338
0.0256769
0.0272375
0.0286959
0.0304816
0.0331417
0.0370609
0.0422033
0.0480881
0.0538757
0.0585292
0.0612412
0.093821
0.0939967
0.0934463
0.0922976
0.0906091
0.0884807
0.0859736
0.0830989
0.0799125
0.0764291
0.0725608
0.0684268
0.0642701
0.0602174
0.0562346
0.0523351
0.0485169
0.0447682
0.0410095
0.0373737
0.0340342
0.0311436
0.0286376
0.0262727
0.0241562
0.0224689
0.0214316
0.0212479
0.0220191
0.0236641
0.0259005
0.0283434
0.0307177
0.0330915
0.0359348
0.039856
0.04517
0.0516736
0.0586756
0.0651716
0.0701615
0.101235
0.101355
0.100902
0.0999572
0.098565
0.0968011
0.0947068
0.0922697
0.0895318
0.0864949
0.0830755
0.0793457
0.0754869
0.0716013
0.0676678
0.063719
0.059774
0.0558395
0.0518901
0.0478929
0.0440838
0.0408361
0.0379998
0.0352227
0.0325132
0.0299499
0.0276783
0.0259032
0.0248539
0.0247249
0.025603
0.027412
0.0299229
0.0328748
0.0361917
0.040132
0.0451605
0.0515469
0.0589932
0.0666581
0.0734702
0.107707
0.107784
0.107408
0.106639
0.105509
0.104076
0.102368
0.100365
0.0981003
0.095565
0.0926852
0.0894974
0.0861106
0.0826061
0.0789722
0.0752474
0.0714384
0.0675571
0.0636065
0.0595616
0.0554375
0.0517874
0.0487444
0.0458444
0.0429833
0.0401325
0.0373243
0.0346497
0.0322586
0.0303489
0.0291363
0.0288056
0.0294585
0.0310868
0.0336166
0.0370103
0.0413847
0.0470073
0.0539826
0.0619146
0.0699402
0.113272
0.11331
0.112996
0.112373
0.111465
0.110316
0.108946
0.107337
0.105512
0.103462
0.101126
0.098504
0.0956838
0.0927068
0.0895553
0.0862508
0.0828076
0.0792442
0.0755488
0.0717148
0.0677219
0.0640042
0.0606748
0.0575564
0.0546581
0.0518411
0.0490287
0.0462034
0.0433962
0.0406853
0.0381968
0.0360974
0.0345715
0.033787
0.0338698
0.0349014
0.0369525
0.0401702
0.0447649
0.0508616
0.0583016
0.11798
0.117995
0.117735
0.117233
0.11651
0.115597
0.11451
0.113234
0.111787
0.110164
0.108305
0.106224
0.10397
0.101561
0.0989747
0.0962187
0.0932979
0.0902164
0.0869745
0.0835679
0.0799907
0.0765983
0.0734579
0.0703352
0.0672694
0.0643499
0.0616153
0.0589523
0.0562898
0.0536056
0.0509147
0.0482682
0.0457537
0.0434892
0.0416066
0.04025
0.039548
0.0396195
0.0406157
0.0427155
0.0462225
0.121946
0.121944
0.121727
0.12132
0.120753
0.120027
0.119164
0.118158
0.117022
0.115752
0.114304
0.112686
0.110931
0.109045
0.107
0.104802
0.10246
0.0999599
0.0972951
0.0944593
0.0914437
0.0885531
0.0858514
0.0831171
0.0803551
0.0775891
0.0748555
0.0721684
0.0695919
0.0671251
0.0646965
0.062266
0.059821
0.057378
0.0549724
0.0526773
0.0505838
0.0487723
0.0473436
0.0464112
0.0461188
0.125272
0.125256
0.125073
0.124743
0.124288
0.123711
0.12303
0.122241
0.121353
0.120366
0.119248
0.118006
0.116661
0.115208
0.113636
0.111944
0.110129
0.108185
0.106111
0.103888
0.101506
0.0991964
0.0970184
0.0948036
0.0925521
0.0902633
0.0879416
0.0855958
0.0832459
0.080913
0.0786047
0.0763238
0.0740927
0.0719145
0.0697622
0.0676203
0.0654905
0.0633754
0.0613071
0.0593475
0.057435
0.127923
0.127903
0.127748
0.127479
0.127111
0.126648
0.126104
0.125482
0.124778
0.123998
0.123122
0.122157
0.121118
0.119998
0.118792
0.117497
0.116111
0.114626
0.113038
0.111338
0.109516
0.107741
0.106057
0.104341
0.102595
0.100818
0.0990091
0.0971716
0.0953025
0.0934047
0.0914846
0.0895493
0.0876087
0.0856706
0.0837316
0.081794
0.0798584
0.0779074
0.0759412
0.0740605
0.0721143
0.129963
0.129938
0.129808
0.129584
0.12928
0.128907
0.128462
0.127956
0.127387
0.126759
0.126064
0.125297
0.124475
0.123593
0.122648
0.121639
0.120564
0.119418
0.118196
0.116892
0.1155
0.114141
0.112849
0.111535
0.1102
0.108844
0.107466
0.106067
0.104645
0.1032
0.101733
0.100242
0.0987282
0.0971923
0.0956309
0.0940491
0.0924529
0.0908312
0.0891799
0.0875172
0.0857727
0.131561
0.131535
0.131424
0.131236
0.130982
0.13067
0.1303
0.129881
0.129416
0.128901
0.128334
0.127712
0.127048
0.126344
0.125589
0.124787
0.123936
0.123034
0.122078
0.121063
0.119985
0.118933
0.117935
0.116923
0.115897
0.11486
0.11381
0.112747
0.111671
0.110581
0.109478
0.108358
0.107223
0.106072
0.104899
0.103704
0.10249
0.101249
0.0999783
0.0986827
0.0973195
0.132844
0.13282
0.132725
0.132565
0.132349
0.132084
0.131776
0.131423
0.131033
0.130603
0.130131
0.129622
0.129077
0.128502
0.127888
0.127239
0.126554
0.125832
0.125071
0.124269
0.123422
0.122596
0.121814
0.121023
0.120226
0.119424
0.118612
0.117794
0.116973
0.116145
0.115311
0.114469
0.113619
0.112761
0.11189
0.111005
0.110108
0.109192
0.108255
0.107298
0.106301
0.133894
0.133874
0.133792
0.133655
0.133469
0.133242
0.132977
0.13268
0.132348
0.131987
0.131591
0.131164
0.13071
0.130231
0.129727
0.129195
0.128635
0.128049
0.127434
0.126789
0.126114
0.125456
0.124833
0.124208
0.123577
0.122947
0.122312
0.121675
0.121037
0.120399
0.119761
0.119119
0.118475
0.117828
0.117175
0.116515
0.115849
0.115172
0.114483
0.113782
0.113061
0.13477
0.134752
0.134682
0.134563
0.134402
0.134205
0.133976
0.133719
0.133437
0.133128
0.132792
0.13243
0.132049
0.131647
0.131225
0.130784
0.130324
0.129841
0.129337
0.128812
0.128266
0.127734
0.127232
0.126729
0.126225
0.125723
0.12522
0.124716
0.124214
0.123713
0.123216
0.122722
0.122228
0.121733
0.121236
0.120736
0.120234
0.119727
0.119214
0.118694
0.118167
0.135509
0.135494
0.135432
0.135329
0.135188
0.135016
0.134817
0.134593
0.134349
0.134081
0.133793
0.133483
0.133157
0.132819
0.132462
0.132091
0.131706
0.131307
0.130892
0.130461
0.130013
0.129579
0.129169
0.12876
0.128353
0.127949
0.127545
0.127142
0.126742
0.126344
0.12595
0.12556
0.125174
0.124791
0.124407
0.124023
0.12364
0.123255
0.122867
0.122478
0.122087
0.13614
0.136127
0.136073
0.135982
0.135859
0.135708
0.135534
0.135338
0.135124
0.134893
0.134643
0.134378
0.134097
0.133806
0.133503
0.13319
0.132864
0.132527
0.13218
0.131822
0.131455
0.131096
0.130757
0.130421
0.130088
0.129757
0.129429
0.129103
0.128781
0.128462
0.128147
0.127836
0.127529
0.127226
0.126926
0.126628
0.126333
0.126037
0.125741
0.125445
0.125151
0.136683
0.136672
0.136625
0.136545
0.136437
0.136305
0.136151
0.135979
0.135791
0.135589
0.135372
0.135141
0.1349
0.134648
0.134387
0.134118
0.133842
0.133558
0.133264
0.132963
0.132656
0.132358
0.132077
0.131798
0.131523
0.13125
0.13098
0.130714
0.130452
0.130193
0.129939
0.129688
0.129442
0.1292
0.128961
0.128725
0.128493
0.128264
0.128035
0.127808
0.127585
0.137155
0.137145
0.137104
0.137035
0.13694
0.136824
0.136688
0.136537
0.136371
0.136192
0.136002
0.135801
0.13559
0.135373
0.135148
0.134917
0.134679
0.134436
0.134187
0.133933
0.133674
0.133423
0.133187
0.132954
0.132724
0.132497
0.132274
0.132054
0.131838
0.131627
0.131419
0.131215
0.131016
0.130821
0.130629
0.13044
0.130255
0.130073
0.129893
0.129715
0.129544
0.137566
0.137559
0.137524
0.137464
0.137381
0.137278
0.137159
0.137025
0.136878
0.13672
0.136552
0.136374
0.136191
0.136001
0.135807
0.135606
0.135401
0.135193
0.134979
0.134763
0.134544
0.134332
0.134132
0.133935
0.133741
0.133551
0.133364
0.133181
0.133002
0.132827
0.132656
0.13249
0.132327
0.132168
0.132012
0.13186
0.131712
0.131566
0.131422
0.131282
0.131147
0.137927
0.137923
0.137894
0.137842
0.13777
0.13768
0.137574
0.137455
0.137324
0.137184
0.137035
0.136878
0.136715
0.136549
0.136378
0.136204
0.136027
0.135846
0.135663
0.135478
0.135291
0.13511
0.134939
0.134772
0.134608
0.134447
0.13429
0.134137
0.133987
0.133842
0.1337
0.133563
0.133429
0.133299
0.133172
0.133048
0.132928
0.13281
0.132695
0.132583
0.132476
0.138247
0.138245
0.138222
0.138178
0.138115
0.138035
0.137941
0.137835
0.137719
0.137594
0.137461
0.137322
0.137178
0.137031
0.13688
0.136727
0.136571
0.136415
0.136257
0.136097
0.135938
0.135782
0.135636
0.135493
0.135353
0.135216
0.135083
0.134954
0.134828
0.134707
0.134588
0.134474
0.134363
0.134256
0.134152
0.13405
0.133953
0.133857
0.133764
0.133674
0.133589
0.138531
0.138533
0.138515
0.138478
0.138423
0.138352
0.138268
0.138173
0.138069
0.137958
0.137839
0.137715
0.137588
0.137457
0.137324
0.137188
0.137052
0.136914
0.136777
0.136639
0.136502
0.136368
0.136241
0.136118
0.135998
0.135882
0.135768
0.135659
0.135552
0.13545
0.135351
0.135255
0.135163
0.135073
0.134987
0.134904
0.134824
0.134746
0.13467
0.134597
0.134529
0.138784
0.13879
0.138778
0.138746
0.138698
0.138635
0.13856
0.138475
0.138382
0.138282
0.138177
0.138066
0.137953
0.137837
0.137718
0.137599
0.137478
0.137358
0.137237
0.137116
0.136997
0.136881
0.136771
0.136665
0.136562
0.136461
0.136364
0.136271
0.136181
0.136094
0.13601
0.135929
0.135852
0.135778
0.135706
0.135637
0.135571
0.135507
0.135445
0.135386
0.135331
0.139011
0.139022
0.139013
0.138987
0.138943
0.138887
0.138821
0.138745
0.138663
0.138574
0.13848
0.138382
0.138281
0.138178
0.138073
0.137967
0.13786
0.137754
0.137648
0.137542
0.137438
0.137337
0.137241
0.137149
0.137059
0.136973
0.136889
0.136809
0.136732
0.136657
0.136586
0.136518
0.136453
0.136391
0.136331
0.136273
0.136218
0.136166
0.136115
0.136066
0.136022
0.139216
0.13923
0.139225
0.139202
0.139164
0.139115
0.139056
0.13899
0.138918
0.13884
0.138757
0.13867
0.13858
0.138488
0.138395
0.138301
0.138207
0.138113
0.138019
0.137926
0.137835
0.137746
0.137663
0.137582
0.137504
0.137429
0.137357
0.137287
0.137221
0.137158
0.137097
0.137039
0.136984
0.136931
0.136881
0.136833
0.136787
0.136743
0.136701
0.136661
0.136625
0.139401
0.139419
0.139416
0.139396
0.139363
0.139322
0.139272
0.139216
0.139153
0.139085
0.139013
0.138936
0.138857
0.138776
0.138693
0.13861
0.138526
0.138443
0.13836
0.138278
0.138198
0.13812
0.138047
0.137976
0.137908
0.137842
0.137779
0.137719
0.137662
0.137607
0.137555
0.137506
0.137458
0.137414
0.137371
0.137331
0.137292
0.137256
0.137221
0.137188
0.137158
0.139569
0.139588
0.139586
0.13957
0.139545
0.139513
0.139473
0.139427
0.139375
0.139317
0.139255
0.139188
0.139119
0.139047
0.138974
0.138901
0.138826
0.138753
0.138679
0.138607
0.138536
0.138468
0.138403
0.13834
0.13828
0.138223
0.138168
0.138116
0.138066
0.138018
0.137973
0.137931
0.13789
0.137852
0.137816
0.137782
0.13775
0.137719
0.13769
0.137663
0.137639
0.139721
0.139739
0.139739
0.139729
0.139713
0.139691
0.139663
0.139628
0.139587
0.139541
0.13949
0.139434
0.139374
0.139312
0.139248
0.139183
0.139118
0.139052
0.138987
0.138923
0.138861
0.1388
0.138743
0.138687
0.138634
0.138583
0.138535
0.138489
0.138445
0.138404
0.138365
0.138328
0.138293
0.138261
0.13823
0.138201
0.138174
0.138149
0.138125
0.138103
0.138084
0.139856
0.139871
0.139873
0.139871
0.139865
0.139855
0.139839
0.139817
0.13979
0.139757
0.13972
0.139678
0.139632
0.139583
0.139531
0.139476
0.139421
0.139365
0.139308
0.139253
0.139199
0.139146
0.139096
0.139047
0.139
0.138956
0.138913
0.138874
0.138836
0.138801
0.138769
0.138739
0.138711
0.138686
0.138662
0.138641
0.138622
0.138605
0.13859
0.138577
0.138567
0.139961
0.139974
0.139979
0.139982
0.139983
0.13998
0.139974
0.139965
0.139953
0.139937
0.139919
0.139897
0.139873
0.139846
0.139817
0.139786
0.139753
0.139718
0.139682
0.139645
0.13961
0.139573
0.139537
0.139502
0.139468
0.139435
0.139404
0.139374
0.139347
0.139321
0.139298
0.139276
0.139257
0.139239
0.139224
0.13921
0.139198
0.139187
0.139179
0.139171
0.139167
0.140018
0.140027
0.140033
0.140037
0.140039
0.14004
0.140039
0.140037
0.140032
0.140026
0.140019
0.140009
0.139999
0.139986
0.139973
0.139959
0.139943
0.139927
0.13991
0.139893
0.139875
0.139857
0.139839
0.139822
0.139804
0.139786
0.139769
0.139753
0.139738
0.139723
0.13971
0.139698
0.139687
0.139677
0.139668
0.13966
0.139653
0.139647
0.139643
0.139639
0.139637
0.140047
0.140054
0.14006
0.140066
0.14007
0.140073
0.140075
0.140076
0.140076
0.140075
0.140074
0.140071
0.140067
0.140062
0.140056
0.14005
0.140043
0.140036
0.140029
0.140021
0.140013
0.140005
0.139997
0.139989
0.139982
0.139974
0.139966
0.139959
0.139952
0.139946
0.13994
0.139934
0.139929
0.139925
0.139921
0.139917
0.139914
0.139911
0.139909
0.139907
0.139907
0.140061
0.140068
0.140074
0.14008
0.140085
0.14009
0.140094
0.140098
0.140101
0.140104
0.140106
0.140107
0.140107
0.140107
0.140106
0.140105
0.140103
0.140101
0.140098
0.140095
0.140092
0.140089
0.140086
0.140083
0.14008
0.140076
0.140073
0.14007
0.140068
0.140065
0.140063
0.14006
0.140058
0.140057
0.140055
0.140054
0.140053
0.140052
0.140052
0.140051
0.140052
0.140066
0.140073
0.140079
0.140085
0.140091
0.140097
0.140103
0.140109
0.140114
0.140119
0.140124
0.140128
0.140131
0.140134
0.140137
0.140139
0.14014
0.140141
0.140142
0.140142
0.140143
0.140143
0.140142
0.140142
0.140141
0.140141
0.14014
0.140139
0.140139
0.140138
0.140138
0.140137
0.140137
0.140137
0.140137
0.140137
0.140137
0.140137
0.140137
0.140138
0.140139
0.140065
0.140071
0.140077
0.140083
0.140089
0.140096
0.140103
0.14011
0.140117
0.140124
0.14013
0.140137
0.140142
0.140148
0.140153
0.140157
0.140162
0.140165
0.140168
0.140171
0.140174
0.140176
0.140178
0.14018
0.140181
0.140183
0.140184
0.140185
0.140186
0.140187
0.140187
0.140188
0.140189
0.14019
0.140191
0.140191
0.140192
0.140193
0.140194
0.140195
0.140196
0.140058
0.140064
0.140069
0.140074
0.140081
0.140088
0.140095
0.140103
0.140111
0.140119
0.140127
0.140134
0.140142
0.140149
0.140156
0.140163
0.140169
0.140175
0.14018
0.140185
0.14019
0.140194
0.140198
0.140201
0.140204
0.140207
0.14021
0.140212
0.140214
0.140216
0.140218
0.14022
0.140222
0.140223
0.140225
0.140226
0.140228
0.140229
0.14023
0.140232
0.140233
0.140047
0.140051
0.140055
0.14006
0.140066
0.140072
0.140079
0.140087
0.140095
0.140103
0.140112
0.14012
0.140129
0.140138
0.140146
0.140154
0.140162
0.14017
0.140177
0.140184
0.14019
0.140196
0.140201
0.140206
0.140211
0.140215
0.140219
0.140222
0.140226
0.140229
0.140232
0.140234
0.140237
0.140239
0.140241
0.140243
0.140245
0.140246
0.140248
0.14025
0.140251
0.140031
0.140034
0.140037
0.140041
0.140045
0.14005
0.140055
0.140061
0.140068
0.140075
0.140083
0.140091
0.140099
0.140108
0.140117
0.140126
0.140134
0.140143
0.140151
0.14016
0.140168
0.140176
0.140183
0.14019
0.140197
0.140204
0.14021
0.140216
0.140221
0.140226
0.140231
0.140235
0.140239
0.140243
0.140246
0.14025
0.140253
0.140256
0.140258
0.140261
0.140263
0.140011
0.140012
0.140013
0.140015
0.140017
0.140019
0.140021
0.140024
0.140027
0.140031
0.140035
0.140039
0.140044
0.140049
0.140055
0.140061
0.140065
0.140068
0.14007
0.140074
0.140077
0.140081
0.140085
0.14009
0.140094
0.140099
0.140103
0.140108
0.140112
0.140116
0.14012
0.140124
0.140127
0.140131
0.140134
0.140137
0.14014
0.140143
0.140145
0.140148
0.14015
0.00615346
0.00821814
0.00901754
0.01024
0.0126587
0.0160562
0.0200119
0.0242693
0.0286716
0.0331278
0.0375833
0.0420012
0.0463541
0.0506213
0.0547885
0.0588462
0.062788
0.06661
0.0703099
0.0738864
0.077339
0.0806674
0.0838717
0.0869522
0.0899095
0.0927442
0.0954572
0.0980497
0.100523
0.102879
0.105119
0.107246
0.109262
0.111171
0.112974
0.114676
0.11628
0.117789
0.119207
0.120539
0.121788
0.12296
0.124057
0.125084
0.126046
0.126947
0.127791
0.128586
0.129339
0.130052
0.130727
0.131365
0.131968
0.132536
0.133073
0.13358
0.134059
0.13451
0.134937
0.135341
0.135722
0.136083
0.136424
0.136747
0.137053
0.137342
0.137617
0.137879
0.138128
0.138366
0.138593
0.138809
0.138996
0.139259
0.0131025
0.0159265
0.0154953
0.0141928
0.0140506
0.0158463
0.0190822
0.0230518
0.0273502
0.0317776
0.0362392
0.0406789
0.0450628
0.0493665
0.0535735
0.0576732
0.0616582
0.0655241
0.0692682
0.0728892
0.0763861
0.0797586
0.0830065
0.0861303
0.08913
0.0920065
0.0947604
0.0973927
0.0999047
0.102298
0.104575
0.106737
0.108786
0.110727
0.112561
0.114292
0.115923
0.117458
0.1189
0.120255
0.121526
0.122717
0.123833
0.124877
0.125855
0.12677
0.127628
0.128435
0.1292
0.129923
0.130608
0.131255
0.131865
0.132441
0.132985
0.133498
0.133982
0.134439
0.13487
0.135278
0.135664
0.136028
0.136373
0.136699
0.137008
0.1373
0.137578
0.137842
0.138093
0.138333
0.138561
0.13878
0.138969
0.139239
0.0203609
0.0249449
0.0247519
0.022065
0.019132
0.0178951
0.0190832
0.0220781
0.0259915
0.0302697
0.034692
0.0391352
0.0435457
0.0478876
0.0521397
0.0562887
0.0603254
0.0642441
0.0680418
0.0717167
0.0752674
0.0786933
0.0819942
0.0851701
0.0882212
0.0911479
0.0939508
0.0966309
0.0991892
0.101627
0.103947
0.10615
0.10824
0.110218
0.112088
0.113853
0.115516
0.117081
0.118552
0.119934
0.121229
0.122443
0.12358
0.124645
0.12564
0.126572
0.127445
0.128267
0.129045
0.129781
0.130476
0.131132
0.131752
0.132336
0.132887
0.133407
0.133897
0.13436
0.134797
0.13521
0.1356
0.135969
0.136317
0.136647
0.136959
0.137255
0.137535
0.137802
0.138055
0.138297
0.138528
0.138749
0.13894
0.139216
0.0270924
0.033908
0.034959
0.0323605
0.0280534
0.0239571
0.0218315
0.0223869
0.0250343
0.0287848
0.0330048
0.0373752
0.0417835
0.046153
0.0504494
0.0546527
0.0587487
0.0627296
0.0665913
0.0703309
0.0739466
0.0774371
0.080802
0.0840411
0.0871542
0.0901416
0.0930036
0.0957411
0.098355
0.100847
0.103218
0.10547
0.107607
0.10963
0.111542
0.113348
0.115049
0.11665
0.118154
0.119567
0.120892
0.122133
0.123294
0.124382
0.125399
0.12635
0.127241
0.128079
0.128872
0.129621
0.130329
0.130997
0.131626
0.13222
0.132779
0.133307
0.133804
0.134274
0.134717
0.135135
0.13553
0.135904
0.136257
0.136591
0.136907
0.137206
0.137489
0.137758
0.138015
0.138259
0.138492
0.138716
0.138908
0.139191
0.033387
0.0425114
0.045195
0.0435776
0.0393399
0.0339349
0.0289752
0.026034
0.0258537
0.0279763
0.0314466
0.0355164
0.0398154
0.0441561
0.0484751
0.0527277
0.0568851
0.0609347
0.0648703
0.0686864
0.0723795
0.0759476
0.0793896
0.0827049
0.0858931
0.0889538
0.0918874
0.0946941
0.097375
0.0999311
0.102364
0.104676
0.106869
0.108946
0.110909
0.112762
0.114508
0.116152
0.117696
0.119146
0.120504
0.121777
0.122968
0.124082
0.125124
0.126098
0.127009
0.127867
0.128677
0.129443
0.130165
0.130845
0.131487
0.132091
0.13266
0.133196
0.133702
0.134179
0.134629
0.135053
0.135454
0.135833
0.136191
0.136529
0.136849
0.137152
0.137439
0.137711
0.137971
0.138217
0.138453
0.138679
0.138874
0.139163
0.0393411
0.0505809
0.0549397
0.054759
0.0514999
0.0462514
0.0401311
0.034493
0.0307343
0.0296498
0.0310256
0.0340156
0.0378309
0.0419825
0.0462444
0.0505052
0.0547027
0.058816
0.0628302
0.0667322
0.0705147
0.0741739
0.0777078
0.0811146
0.0843931
0.0875425
0.0905624
0.093453
0.0962148
0.0988489
0.101357
0.10374
0.106001
0.108142
0.110167
0.112077
0.113878
0.115572
0.117164
0.118657
0.120057
0.121367
0.122593
0.123739
0.12481
0.12581
0.126746
0.127626
0.128457
0.129241
0.12998
0.130675
0.13133
0.131946
0.132526
0.133073
0.133588
0.134073
0.134531
0.134963
0.13537
0.135755
0.136118
0.136462
0.136786
0.137094
0.137385
0.13766
0.137923
0.138172
0.13841
0.13864
0.138836
0.139133
0.0449904
0.057791
0.0637137
0.0651869
0.0634265
0.0592771
0.0534971
0.0469638
0.0407948
0.0362064
0.0340526
0.0344001
0.036645
0.0400072
0.0439133
0.0480387
0.0522141
0.0563613
0.0604399
0.0644243
0.0683004
0.0720609
0.0757004
0.0792146
0.0826005
0.0858561
0.0889799
0.0919716
0.0948312
0.0975595
0.100158
0.102627
0.104971
0.10719
0.109289
0.111269
0.113135
0.114891
0.116539
0.118086
0.119534
0.12089
0.122157
0.123341
0.124447
0.125479
0.126444
0.127351
0.128206
0.129012
0.12977
0.130483
0.131153
0.131784
0.132377
0.132935
0.133461
0.133956
0.134423
0.134862
0.135277
0.135669
0.136038
0.136387
0.136717
0.13703
0.137325
0.137605
0.137871
0.138124
0.138364
0.138597
0.138796
0.1391
0.0501681
0.0636908
0.0709942
0.0741662
0.0741721
0.0716801
0.0672136
0.0613078
0.0546431
0.0481146
0.0427531
0.039425
0.0384748
0.0396228
0.0422382
0.0457009
0.0495758
0.0536151
0.0576888
0.0617264
0.0656887
0.0695536
0.0733079
0.0769431
0.0804528
0.083833
0.0870804
0.0901931
0.0931703
0.0960122
0.0987197
0.101294
0.103738
0.106053
0.108241
0.110306
0.112252
0.114082
0.1158
0.117411
0.118919
0.120329
0.121647
0.122877
0.124024
0.125095
0.126095
0.127034
0.127917
0.128748
0.12953
0.130263
0.130952
0.1316
0.132208
0.13278
0.133318
0.133825
0.134301
0.134751
0.135174
0.135573
0.13595
0.136306
0.136642
0.136959
0.137259
0.137544
0.137814
0.13807
0.138315
0.138551
0.138752
0.139063
0.0561412
0.0678721
0.0762119
0.0809693
0.0827895
0.0822459
0.0796731
0.0753679
0.0697131
0.0632231
0.056584
0.0506264
0.0461669
0.0437468
0.0434414
0.0449022
0.0475863
0.0509931
0.05477
0.0587031
0.0626706
0.0666035
0.0704624
0.0742231
0.0778703
0.0813938
0.0847868
0.0880444
0.0911638
0.0941435
0.0969834
0.0996846
0.102249
0.10468
0.106978
0.109147
0.111191
0.113112
0.114915
0.116605
0.118186
0.119663
0.121042
0.122329
0.123527
0.124644
0.125687
0.126664
0.127582
0.128444
0.129253
0.130011
0.130723
0.13139
0.132016
0.132604
0.133157
0.133676
0.134165
0.134625
0.135059
0.135467
0.135852
0.136215
0.136558
0.136881
0.137187
0.137477
0.137752
0.138012
0.13826
0.1385
0.138705
0.139023
0.0637127
0.0704956
0.0789925
0.0849586
0.0883485
0.0897823
0.0893794
0.0872165
0.0834975
0.0784861
0.0725352
0.0661315
0.059906
0.054563
0.0507231
0.0487441
0.0486252
0.0500631
0.0526167
0.0558678
0.0595014
0.0633116
0.067173
0.0710107
0.0747791
0.0784496
0.0820037
0.0854292
0.0887181
0.0918653
0.0948682
0.0977258
0.100439
0.10301
0.105442
0.107738
0.109902
0.111936
0.113844
0.115632
0.117303
0.118863
0.120318
0.121674
0.122936
0.12411
0.125205
0.126229
0.127189
0.128089
0.128931
0.129719
0.130457
0.131148
0.131796
0.132403
0.132973
0.133508
0.134011
0.134484
0.134929
0.135348
0.135742
0.136114
0.136465
0.136795
0.137108
0.137403
0.137683
0.137949
0.138201
0.138445
0.138653
0.138979
0.073622
0.0768426
0.0802048
0.086292
0.0902802
0.0933008
0.0949872
0.0950798
0.0937372
0.0910398
0.0870908
0.0820866
0.0763508
0.0703323
0.0645802
0.0596744
0.0561114
0.054183
0.0539122
0.0550843
0.057353
0.0603576
0.0638002
0.0674674
0.0712195
0.0749678
0.0786564
0.0822495
0.0857242
0.0890653
0.0922636
0.0953134
0.0982124
0.10096
0.103559
0.106011
0.108321
0.110494
0.112533
0.114442
0.116226
0.11789
0.11944
0.120882
0.122223
0.123469
0.124629
0.125712
0.126723
0.127669
0.128552
0.129377
0.130147
0.130867
0.131541
0.132172
0.132762
0.133316
0.133836
0.134324
0.134782
0.135213
0.135619
0.136001
0.13636
0.1367
0.13702
0.137322
0.137608
0.137879
0.138136
0.138385
0.138596
0.138931
0.0784116
0.0820709
0.0852182
0.0879628
0.0895675
0.093
0.0959377
0.0976586
0.0985568
0.0984392
0.0971234
0.0945835
0.0909388
0.0863757
0.0811617
0.0756653
0.0703444
0.0656905
0.0621416
0.0599906
0.0593275
0.0600413
0.0618794
0.0645353
0.0677218
0.0712107
0.0748388
0.0784965
0.082112
0.085639
0.0890475
0.0923186
0.0954407
0.0984074
0.101216
0.103868
0.106365
0.108711
0.110911
0.112971
0.114895
0.11669
0.11836
0.119912
0.121352
0.122689
0.123931
0.125087
0.126163
0.127166
0.1281
0.128971
0.129782
0.130538
0.131243
0.131902
0.132518
0.133094
0.133634
0.13414
0.134615
0.13506
0.135479
0.135873
0.136244
0.136593
0.136921
0.137232
0.137525
0.137802
0.138065
0.138319
0.138534
0.138877
0.0760352
0.0804572
0.0844272
0.0878319
0.0905361
0.092941
0.0946995
0.095694
0.0975984
0.0994585
0.100481
0.100498
0.0996127
0.0977525
0.0948847
0.0910988
0.0866085
0.0817245
0.0768312
0.0723522
0.0686939
0.0661748
0.0649662
0.0650679
0.0663308
0.068514
0.0713507
0.0745998
0.0780702
0.0816238
0.0851661
0.0886349
0.0919898
0.0952055
0.0982669
0.101166
0.1039
0.10647
0.108879
0.111132
0.113234
0.115193
0.117015
0.118707
0.120275
0.121728
0.123074
0.124323
0.125481
0.126557
0.127555
0.128483
0.129344
0.130145
0.13089
0.131584
0.132231
0.132836
0.1334
0.133928
0.134422
0.134886
0.13532
0.135728
0.136111
0.136472
0.136811
0.137131
0.137432
0.137717
0.137986
0.138247
0.138466
0.138819
0.0645898
0.0697257
0.074671
0.0793337
0.0836008
0.0874424
0.0907532
0.0934434
0.0956855
0.09735
0.0983181
0.0990346
0.100327
0.101207
0.101203
0.100222
0.0983216
0.0955576
0.0920324
0.0879468
0.0836024
0.079368
0.07563
0.0727335
0.0709264
0.0703196
0.0708784
0.0724497
0.0748108
0.0777234
0.0809728
0.0843883
0.0878449
0.0912569
0.0945679
0.0977425
0.100759
0.103608
0.106284
0.108788
0.111123
0.113297
0.115316
0.117187
0.11892
0.120521
0.122002
0.12337
0.124635
0.125804
0.126886
0.127887
0.128813
0.129671
0.130467
0.131205
0.131892
0.13253
0.133125
0.13368
0.134199
0.134684
0.135137
0.135562
0.135961
0.136335
0.136686
0.137017
0.137328
0.137622
0.137899
0.138167
0.138392
0.138754
0.0494857
0.0526615
0.0563226
0.0605097
0.0651935
0.0702866
0.075619
0.0809331
0.0859413
0.0903347
0.0938429
0.0963847
0.0982081
0.0993938
0.0999254
0.100384
0.101016
0.101223
0.100609
0.0990768
0.0967022
0.09363
0.090071
0.0863113
0.0826925
0.0795662
0.0772387
0.0759214
0.0757
0.0765321
0.0782721
0.0807148
0.0836409
0.0868519
0.0901879
0.0935313
0.0968015
0.0999465
0.102935
0.10575
0.108386
0.110841
0.11312
0.11523
0.117179
0.118977
0.120634
0.12216
0.123565
0.124858
0.126049
0.127147
0.128158
0.12909
0.129951
0.130746
0.131482
0.132165
0.132799
0.133388
0.133936
0.134447
0.134925
0.135371
0.135788
0.136178
0.136545
0.136889
0.137212
0.137516
0.137802
0.138078
0.138309
0.138683
0.0465887
0.0473995
0.0485275
0.0500016
0.0518835
0.0542485
0.0571765
0.060736
0.064959
0.0698047
0.0751185
0.0806205
0.0859539
0.0907274
0.0945871
0.0974275
0.0993676
0.100489
0.100796
0.100918
0.101062
0.100802
0.0998176
0.0980376
0.0955675
0.0926127
0.0894482
0.0863957
0.0837826
0.0818926
0.0809212
0.0809487
0.0819383
0.0837582
0.0862193
0.0891165
0.0922611
0.0954993
0.0987171
0.101837
0.104811
0.10761
0.110224
0.112649
0.114889
0.116951
0.118847
0.120586
0.12218
0.123641