/*--------------------------------*- C++ -*----------------------------------*\
| =========                 |                                                 |
| \\      /  F ield         | OpenFOAM: The Open Source CFD Toolbox           |
|  \\    /   O peration     | Version:  5.x                                   |
|   \\  /    A nd           | Web:      www.OpenFOAM.org                      |
|    \\/     M anipulation  |                                                 |
\*---------------------------------------------------------------------------*/
FoamFile
{
    version     2.0;
    format      ascii;
    class       volScalarField;
    location    "600";
    object      nuTilda;
}
// * * * * * * * * * * * * * * * * * * * * * * * * * * * * * * * * * * * * * //

dimensions      [0 2 -1 0 0 0 0];

internalField   nonuniform List<scalar> 
41860
(
4.15213e-05
4.37548e-05
5.52741e-05
5.82707e-05
5.38653e-05
4.98719e-05
4.43538e-05
3.97047e-05
3.59607e-05
3.28561e-05
3.01118e-05
2.81363e-05
2.59737e-05
2.49876e-05
2.33415e-05
2.28346e-05
2.19704e-05
2.13643e-05
2.0976e-05
1.96851e-05
1.95238e-05
2.87397e-05
1.89687e-05
2.98233e-05
1.85967e-05
3.03593e-05
3.07012e-05
1.82838e-05
3.07633e-05
3.07345e-05
3.06781e-05
1.79737e-05
1.79426e-05
3.04008e-05
1.79045e-05
3.00648e-05
1.79355e-05
1.79652e-05
1.80023e-05
2.90367e-05
1.8203e-05
1.83167e-05
3.01495e-05
3.01897e-05
1.72042e-05
3.01324e-05
3.0099e-05
3.00687e-05
3.00274e-05
2.99867e-05
2.99441e-05
2.99013e-05
2.98577e-05
2.98175e-05
2.97707e-05
1.71841e-05
1.72059e-05
2.96151e-05
1.7247e-05
2.95169e-05
2.94994e-05
2.94061e-05
1.73535e-05
2.92324e-05
1.73887e-05
2.92167e-05
1.73844e-05
1.73948e-05
2.90342e-05
2.8705e-05
1.73806e-05
2.86739e-05
2.84757e-05
1.73234e-05
1.72536e-05
2.80319e-05
1.71347e-05
1.70052e-05
1.68767e-05
2.6951e-05
1.68214e-05
1.38443e-05
0.000191252
0.000224112
0.000287903
0.000304701
0.000281417
0.000260243
0.000230822
0.000206004
0.000186007
0.000169423
0.000154761
0.000144221
0.000132671
0.000127425
0.000118627
0.000115919
0.000110846
0.000107029
0.000104392
9.81281e-05
9.66018e-05
9.68016e-05
9.10605e-05
9.39224e-05
8.7545e-05
9.17297e-05
9.01113e-05
8.50305e-05
8.88218e-05
8.85162e-05
8.8008e-05
8.2917e-05
8.28202e-05
8.73778e-05
8.29033e-05
8.76227e-05
8.3541e-05
8.38688e-05
8.49402e-05
9.01978e-05
8.71085e-05
8.84777e-05
8.29573e-05
8.29011e-05
7.82702e-05
8.2706e-05
8.26867e-05
8.26242e-05
8.26347e-05
8.26572e-05
8.27131e-05
8.2796e-05
8.2898e-05
8.30257e-05
8.31858e-05
7.87677e-05
7.90042e-05
8.36635e-05
7.94417e-05
8.40731e-05
8.4461e-05
8.45419e-05
8.03964e-05
8.49581e-05
8.0799e-05
8.54166e-05
8.112e-05
8.13827e-05
8.56868e-05
8.60911e-05
8.15895e-05
8.58908e-05
8.6109e-05
8.15459e-05
8.1289e-05
8.53106e-05
8.09814e-05
8.03779e-05
7.97503e-05
8.26243e-05
7.9603e-05
1.67214e-05
0.000240605
0.000278629
0.000364013
0.000387872
0.000358592
0.000331322
0.000293297
0.000261224
0.000235533
0.000214514
0.000196608
0.000183567
0.000171682
0.000165359
0.000160396
0.000158585
0.000157663
0.000157163
0.000156587
0.000155889
0.000154922
0.000157272
0.000153863
0.000156033
0.000152628
0.00015444
0.000153969
0.000149899
0.000151951
0.000150822
0.000149823
0.000146092
0.000145083
0.000146803
0.000143296
0.00014505
0.000141843
0.000141259
0.000140917
0.000142879
0.000140647
0.000140795
0.000140601
0.000140269
0.000137574
0.000139618
0.000139313
0.00013903
0.000138779
0.000138561
0.000138376
0.000138225
0.000138104
0.000138015
0.000137956
0.000135647
0.000135664
0.000137901
0.000135753
0.000137996
0.00013814
0.000138178
0.000136122
0.000138319
0.00013625
0.000138429
0.000136311
0.000136376
0.00013834
0.000138482
0.000136172
0.000138056
0.000137985
0.000135557
0.000135119
0.000136655
0.000134164
0.00013324
0.000132297
0.000132337
0.000131679
2.01811e-05
0.000328483
0.000371583
0.00043787
0.000475334
0.000465192
0.000434881
0.000407356
0.000384809
0.00036478
0.000346337
0.000330217
0.000310136
0.000297823
0.00027946
0.000276266
0.000269912
0.000268702
0.000266576
0.000263751
0.00026213
0.000258667
0.000258226
0.000253909
0.000252875
0.000249036
0.00024765
0.000245658
0.000241261
0.000240567
0.000237982
0.00023566
0.000231956
0.000229719
0.000229036
0.000225683
0.000225189
0.000222234
0.000220764
0.000219492
0.000219501
0.000217598
0.000217014
0.000215691
0.000214659
0.000212686
0.000213125
0.000212405
0.000211741
0.000211134
0.000210591
0.00021011
0.000209686
0.000209317
0.000209005
0.000208743
0.000207402
0.000207256
0.000208196
0.000207064
0.000208044
0.000208092
0.000208045
0.000207053
0.000208016
0.000206998
0.000207936
0.000206838
0.000206794
0.000207514
0.000207554
0.000206179
0.00020679
0.000206544
0.000204959
0.000204227
0.000204382
0.000202557
0.000201122
0.00019964
0.000197757
0.000198099
2.43417e-05
0.000454104
0.000549011
0.00064527
0.00070012
0.000721153
0.000681504
0.000656717
0.000631041
0.000602681
0.000573098
0.000545165
0.00051015
0.000486347
0.000452271
0.000438534
0.000422588
0.000416161
0.000409441
0.00040248
0.000397769
0.000390763
0.000386693
0.000380199
0.000375631
0.000370197
0.000365492
0.000361372
0.000355698
0.000352232
0.000347764
0.000343719
0.000339203
0.000335403
0.000332478
0.000328529
0.000326011
0.000322605
0.00032004
0.000317729
0.000316144
0.000314001
0.000312684
0.000309801
0.000307721
0.000305824
0.000304989
0.000303723
0.000302553
0.000301479
0.000300508
0.000299633
0.000298851
0.000298155
0.000297547
0.000297018
0.000296084
0.00029572
0.000295813
0.00029515
0.000295329
0.00029525
0.000295078
0.000294611
0.000294826
0.000294318
0.000294515
0.000293896
0.000293725
0.000293677
0.000293587
0.000292613
0.000292422
0.000291969
0.000290679
0.000289605
0.000288821
0.000287122
0.000285112
0.000282996
0.000279591
0.000279999
2.93394e-05
0.000619893
0.000790053
0.000995098
0.00108252
0.00111568
0.00105285
0.00100922
0.000963914
0.00091538
0.000865883
0.000818903
0.000764786
0.000724441
0.000673184
0.00064518
0.000616613
0.000602001
0.000588569
0.000575873
0.000566276
0.000554573
0.000546048
0.000535963
0.000527467
0.000519124
0.00051092
0.000503971
0.000496006
0.000489665
0.000482848
0.000476629
0.000470452
0.000464737
0.000459656
0.000454408
0.000449998
0.000445522
0.000441645
0.00043815
0.000435184
0.000432349
0.000430263
0.000425303
0.000421772
0.000419376
0.000417484
0.000415536
0.00041373
0.000412073
0.000410566
0.000409204
0.000407975
0.000406873
0.000405898
0.000405038
0.000404097
0.000403468
0.000403017
0.000402436
0.000402123
0.00040189
0.000401562
0.000401259
0.000401048
0.000400688
0.000400468
0.000399969
0.000399659
0.000399144
0.000398915
0.000397986
0.000397284
0.000396604
0.00039525
0.000393789
0.000392331
0.0003904
0.000387753
0.000384901
0.000380257
0.000379739
3.53346e-05
0.000848891
0.00108737
0.00144137
0.00157184
0.0016011
0.00150836
0.00143676
0.00136588
0.00129295
0.00122009
0.00115083
0.00107519
0.00101537
0.000945167
0.000900547
0.000856887
0.000831366
0.000809111
0.000788985
0.000772866
0.000755178
0.000741202
0.00072624
0.000713119
0.000700723
0.000688525
0.000677998
0.000666828
0.000657258
0.000647528
0.000638617
0.000630058
0.000621996
0.000614585
0.000607453
0.000601032
0.00059498
0.000589522
0.000584618
0.000580256
0.000576378
0.00057344
0.000565968
0.000560511
0.000557159
0.000554229
0.000551434
0.000548844
0.000546467
0.000544301
0.000542339
0.00054056
0.00053896
0.000537533
0.000536268
0.000535067
0.000534112
0.000533246
0.00053252
0.000531852
0.000531431
0.000530914
0.000530577
0.000530093
0.000529689
0.000529205
0.000528633
0.000528169
0.000527327
0.000526945
0.000525876
0.000524792
0.000523858
0.00052225
0.000520354
0.00051833
0.00051596
0.000512618
0.000508921
0.000503231
0.000500658
4.25154e-05
0.00118352
0.00144707
0.00197034
0.00215049
0.00216869
0.00204213
0.00193852
0.00183943
0.00174005
0.00164183
0.00154815
0.00144897
0.00136735
0.00127624
0.00121282
0.00115172
0.00111253
0.00107911
0.00104959
0.00102516
0.000999965
0.000979242
0.000958052
0.000939289
0.0009217
0.000904678
0.000889707
0.000874424
0.000860993
0.000847673
0.000835439
0.000823814
0.000812868
0.000802727
0.000793163
0.000784404
0.000776308
0.000768928
0.000762312
0.000756362
0.000751131
0.000747206
0.000736805
0.000728869
0.000724139
0.000720027
0.000716188
0.000712631
0.00070937
0.000706394
0.000703694
0.000701242
0.000699032
0.000697051
0.000695292
0.00069367
0.000692319
0.000691047
0.000690045
0.000689045
0.000688389
0.000687647
0.000687178
0.00068647
0.000685929
0.000685229
0.000684492
0.000683858
0.000682733
0.000682177
0.000680884
0.000679453
0.00067824
0.000676286
0.000673911
0.000671337
0.000668412
0.000664326
0.000659664
0.000653116
0.000647081
5.11005e-05
0.00163098
0.00188493
0.00258725
0.00282262
0.00282538
0.00266147
0.0025231
0.00239409
0.00226682
0.00214168
0.00202177
0.00189715
0.00179154
0.00167741
0.00159297
0.00151204
0.00145629
0.00140903
0.00136776
0.00133297
0.00129839
0.00126929
0.00124032
0.00121457
0.0011905
0.00116753
0.00114706
0.00112664
0.00110848
0.00109073
0.0010744
0.00105895
0.00104446
0.001031
0.0010184
0.00100682
0.000996169
0.000986436
0.000977715
0.000969859
0.000962935
0.000957825
0.000944114
0.000933051
0.000926475
0.000920917
0.000915789
0.000911042
0.000906694
0.000902722
0.000899118
0.000895841
0.000892882
0.000890224
0.000887857
0.000885689
0.000883851
0.000882122
0.000880745
0.000879379
0.000878432
0.000877421
0.000876759
0.000875829
0.000875101
0.000874189
0.000873241
0.000872418
0.000871013
0.000870261
0.000868711
0.000866926
0.000865407
0.000863067
0.000860175
0.000857028
0.000853479
0.000848613
0.00084286
0.000835718
0.0008244
6.13419e-05
0.00221191
0.00242822
0.003305
0.00360053
0.00358407
0.00337902
0.0032034
0.00304304
0.0028867
0.00273332
0.00258554
0.00243361
0.00230187
0.00216249
0.00205465
0.00195137
0.00187603
0.00181194
0.00175614
0.00170851
0.00166227
0.00162278
0.00158414
0.00154972
0.0015176
0.00148725
0.00145998
0.00143319
0.00140919
0.00138596
0.00136457
0.0013444
0.00132552
0.00130799
0.00129164
0.00127658
0.00126277
0.00125014
0.00123881
0.00122862
0.00121959
0.00121302
0.00119566
0.00118073
0.00117173
0.00116436
0.00115763
0.00115142
0.00114573
0.00114053
0.00113582
0.00113153
0.00112765
0.00112416
0.00112105
0.0011182
0.00111577
0.00111349
0.00111164
0.00110984
0.00110854
0.0011072
0.0011063
0.00110513
0.00110417
0.00110304
0.00110185
0.00110082
0.00109913
0.00109815
0.00109634
0.00109419
0.00109234
0.00108959
0.00108616
0.00108241
0.00107819
0.00107254
0.00106556
0.00105823
0.00103931
7.35271e-05
0.00295802
0.00311537
0.00414133
0.00450112
0.00446132
0.00421084
0.00399546
0.00380248
0.00361613
0.00343337
0.00325626
0.00307519
0.00291526
0.00274828
0.00261455
0.00248625
0.00238814
0.00230388
0.00223031
0.00216691
0.00210624
0.00205388
0.00200326
0.00195805
0.00191596
0.00187645
0.00184075
0.00180605
0.00177482
0.00174481
0.00171715
0.00169113
0.00166683
0.00164427
0.00162327
0.00160392
0.00158619
0.00156997
0.00155541
0.00154231
0.00153066
0.00152227
0.00150094
0.00148133
0.00146918
0.0014595
0.00145078
0.00144275
0.00143541
0.00142871
0.00142262
0.00141708
0.00141208
0.00140757
0.00140354
0.00139986
0.00139669
0.00139375
0.00139132
0.001389
0.00138724
0.00138551
0.00138432
0.00138287
0.00138167
0.00138029
0.00137883
0.00137758
0.00137559
0.00137438
0.0013723
0.00136978
0.00136758
0.00136444
0.00136046
0.0013561
0.00135118
0.00134476
0.00133643
0.00132952
0.00130014
8.79786e-05
0.00390994
0.00398363
0.00511832
0.00554514
0.00547694
0.00517613
0.00491842
0.00469171
0.00447468
0.00426169
0.00405403
0.00384216
0.00365205
0.00345509
0.00329288
0.00313669
0.00301249
0.00290445
0.00280941
0.00272679
0.00264836
0.00258011
0.00251468
0.00245605
0.00240161
0.00235068
0.00230454
0.00226002
0.0022198
0.00218138
0.00214593
0.00211267
0.00208164
0.00205285
0.00202607
0.0020014
0.00197879
0.00195812
0.00193952
0.00192281
0.00190786
0.00189716
0.00187159
0.0018464
0.00183019
0.00181757
0.00180635
0.00179607
0.00178668
0.00177811
0.00177034
0.00176326
0.00175686
0.00175109
0.00174593
0.00174124
0.00173715
0.0017334
0.00173025
0.0017273
0.00172498
0.00172278
0.00172122
0.00171947
0.00171797
0.00171633
0.0017146
0.00171311
0.00171083
0.00170936
0.00170703
0.00170415
0.00170161
0.00169809
0.00169358
0.00168861
0.001683
0.00167588
0.00166608
0.00166042
0.00161736
0.000105052
0.00511792
0.00506944
0.00626241
0.00675747
0.00665424
0.00629743
0.00599474
0.00573346
0.00548549
0.00524184
0.00500276
0.00475869
0.00453659
0.00430728
0.00411393
0.00392682
0.00377305
0.00363736
0.00351673
0.00341093
0.00331081
0.00322302
0.00313934
0.00306408
0.00299432
0.00292919
0.00287007
0.00281335
0.00276194
0.00271307
0.00266794
0.00262567
0.00258627
0.00254973
0.00251575
0.00248447
0.00245575
0.00242954
0.00240587
0.00238463
0.00236553
0.00235185
0.00232177
0.00229008
0.00226871
0.00225231
0.00223795
0.00222486
0.00221294
0.00220205
0.00219218
0.0021832
0.00217508
0.00216775
0.0021612
0.00215524
0.00215003
0.00214528
0.00214124
0.00213751
0.00213451
0.00213172
0.00212971
0.00212761
0.00212578
0.00212386
0.00212183
0.00212011
0.00211755
0.00211581
0.00211328
0.00211007
0.0021072
0.00210336
0.00209838
0.00209286
0.00208659
0.00207889
0.00206751
0.0020642
0.00200421
0.000125127
0.00664337
0.00642047
0.00760487
0.00816752
0.00802039
0.00760101
0.00725065
0.00695435
0.00667573
0.00640157
0.00613076
0.00585347
0.0055979
0.00533396
0.00510678
0.00488555
0.00469858
0.00453114
0.00438045
0.00424699
0.00412069
0.00400904
0.00390299
0.00380715
0.00371845
0.00363567
0.00356043
0.00348854
0.00342319
0.0033613
0.0033041
0.00325062
0.00320077
0.00315457
0.00311161
0.00307207
0.00303572
0.00300255
0.00297253
0.00294559
0.00292125
0.00290368
0.00286882
0.00282967
0.00280183
0.00278058
0.00276224
0.00274564
0.00273055
0.00271679
0.00270432
0.00269297
0.00268271
0.00267345
0.00266516
0.00265765
0.00265105
0.00264507
0.00263992
0.00263523
0.00263138
0.00262787
0.00262529
0.00262278
0.00262058
0.00261836
0.00261604
0.00261407
0.00261127
0.00260928
0.00260659
0.00260312
0.00259996
0.0025959
0.00259054
0.00258457
0.00257773
0.00256967
0.00255664
0.00255702
0.00247749
0.000148597
0.00856064
0.00809854
0.00918311
0.00980778
0.00960637
0.00911698
0.00871633
0.00838513
0.00807701
0.00777333
0.0074712
0.00716028
0.00687018
0.00656955
0.00630592
0.00604727
0.0058233
0.00561986
0.00543432
0.00526833
0.00511078
0.00497027
0.00483702
0.0047159
0.00460388
0.00449923
0.00440398
0.00431326
0.00423054
0.00415244
0.00408017
0.0040127
0.00394981
0.00389154
0.00383736
0.00378747
0.00374155
0.00369966
0.00366162
0.00362749
0.00359651
0.00357382
0.00353381
0.0034863
0.00345047
0.00342303
0.00339964
0.00337863
0.00335958
0.00334222
0.00332651
0.00331221
0.00329929
0.00328762
0.00327718
0.00326773
0.00325939
0.00325189
0.00324537
0.0032395
0.00323458
0.00323018
0.00322689
0.00322389
0.00322126
0.00321872
0.0032161
0.0032139
0.00321091
0.00320869
0.00320592
0.0032023
0.00319894
0.00319478
0.00318922
0.00318297
0.0031757
0.0031676
0.00315288
0.00315847
0.00305872
0.000175846
0.0109593
0.010181
0.0110431
0.0117041
0.0114407
0.0108753
0.0104229
0.0100588
0.00972418
0.0093936
0.00906187
0.00871789
0.00839295
0.00805404
0.00775156
0.00745224
0.00718743
0.00694362
0.00671829
0.0065146
0.0063203
0.00614536
0.00597938
0.00582751
0.00568693
0.00555536
0.00543538
0.00532135
0.00521704
0.00511878
0.00502773
0.0049428
0.00486361
0.00479027
0.00472202
0.00465918
0.00460122
0.00454835
0.00450019
0.00445695
0.00441755
0.00438814
0.00434243
0.00428568
0.0042402
0.00420491
0.0041751
0.00414853
0.00412452
0.00410266
0.00408289
0.00406491
0.00404866
0.00403399
0.00402084
0.00400899
0.00399848
0.00398907
0.00398084
0.00397351
0.00396726
0.00396175
0.00395755
0.00395394
0.00395081
0.00394792
0.003945
0.00394259
0.00393949
0.00393708
0.00393435
0.00393073
0.00392731
0.00392323
0.00391771
0.00391142
0.00390395
0.00389621
0.00387985
0.00389223
0.00377516
0.00020722
0.0139469
0.012763
0.0132426
0.0138617
0.0135208
0.0128811
0.012383
0.0119967
0.0116464
0.011297
0.0109412
0.0105675
0.0102093
0.00983182
0.00948894
0.00914625
0.008837
0.00854865
0.00827864
0.00803203
0.0077953
0.00757993
0.00737518
0.00718638
0.00701125
0.00684686
0.00669655
0.00655384
0.00642282
0.00629959
0.00618519
0.00607854
0.00597903
0.00588685
0.005801
0.00572192
0.00564885
0.00558215
0.00552122
0.00546643
0.00541634
0.00537808
0.00532581
0.00525901
0.0052021
0.00515698
0.00511904
0.00508545
0.0050552
0.0050277
0.00500284
0.00498025
0.00495983
0.00494139
0.00492486
0.00490999
0.00489676
0.00488497
0.00487459
0.00486543
0.00485753
0.00485061
0.00484526
0.00484087
0.00483714
0.00483384
0.00483064
0.00482803
0.00482491
0.00482241
0.00481984
0.00481642
0.00481314
0.00480938
0.0048042
0.00479824
0.00479089
0.00478405
0.00476619
0.00478673
0.00466021
0.000242981
0.0176523
0.0159597
0.015853
0.0162749
0.0158053
0.0150917
0.0145631
0.014179
0.0138402
0.0134958
0.0131336
0.0127422
0.0123584
0.0119465
0.0115646
0.0111779
0.010822
0.0104859
0.010167
0.00987274
0.00958818
0.00932643
0.00907667
0.00884438
0.00862814
0.00842431
0.00823724
0.00805967
0.00789591
0.00774198
0.00759876
0.00746522
0.00734049
0.00722487
0.00711707
0.0070177
0.0069257
0.00684161
0.00676457
0.00669515
0.00663152
0.00658164
0.00652148
0.00644385
0.0063737
0.00631649
0.00626831
0.00622587
0.00618776
0.0061532
0.00612194
0.00609357
0.00606792
0.00604477
0.00602397
0.00600532
0.00598867
0.00597389
0.00596082
0.00594936
0.00593938
0.0059307
0.00592386
0.00591845
0.00591395
0.00591017
0.00590666
0.00590389
0.00590085
0.00589836
0.00589612
0.00589315
0.00589025
0.00588713
0.00588268
0.00587749
0.00587067
0.00586537
0.00584626
0.00587605
0.00575028
0.000639695
0.0222303
0.0199089
0.0189599
0.0189455
0.0182563
0.0174568
0.0169101
0.016553
0.0162595
0.0159574
0.015624
0.0152445
0.0148576
0.0144271
0.0140158
0.0135907
0.0131901
0.0128062
0.0124366
0.0120918
0.0117554
0.0114422
0.0111418
0.0108597
0.0105958
0.0103456
0.0101149
0.00989565
0.00969243
0.00950126
0.00932289
0.00915642
0.00900067
0.00885612
0.00872117
0.00859658
0.00848101
0.00837516
0.00827792
0.00819004
0.00810931
0.00804432
0.00797427
0.00788493
0.00779982
0.00772804
0.00766711
0.00761357
0.00756563
0.00752221
0.00748295
0.00744733
0.00741512
0.00738604
0.0073599
0.00733648
0.00731554
0.007297
0.00728053
0.00726617
0.0072536
0.00724268
0.00723391
0.00722714
0.00722164
0.00721725
0.00721338
0.00721044
0.00720759
0.00720524
0.0072035
0.00720126
0.00719906
0.00719692
0.00719366
0.00718978
0.00718399
0.00718095
0.00716097
0.00720067
0.00708212
0.0015908
0.0278697
0.0247719
0.0226578
0.0218859
0.0208522
0.0199413
0.0193823
0.0190696
0.0188482
0.0186232
0.0183585
0.0180326
0.0176814
0.0172655
0.0168505
0.0164057
0.0159728
0.015549
0.0151328
0.0147394
0.0143509
0.0139843
0.0136299
0.0132934
0.0129762
0.0126735
0.0123926
0.0121249
0.0118753
0.01164
0.0114196
0.0112135
0.0110202
0.0108405
0.0106724
0.0105169
0.0103722
0.0102395
0.0101171
0.0100062
0.00990403
0.00981963
0.00973682
0.0096347
0.00953304
0.00944416
0.00936766
0.00930036
0.00924017
0.00918572
0.00913648
0.00909183
0.00905142
0.00901494
0.00898209
0.0089527
0.00892636
0.00890309
0.00888236
0.00886434
0.00884852
0.00883476
0.0088235
0.0088149
0.00880805
0.0088028
0.00879845
0.00879531
0.00879272
0.00879063
0.00878956
0.00878834
0.00878718
0.00878642
0.00878483
0.00878284
0.00877862
0.0087786
0.00875819
0.00880817
0.00868887
0.00461616
0.0347913
0.0307315
0.027031
0.0251129
0.0235812
0.022521
0.0219501
0.0216924
0.021561
0.0214379
0.0212742
0.0210405
0.0207676
0.0204095
0.0200309
0.0196017
0.0191649
0.0187229
0.0182763
0.017846
0.0174134
0.0169978
0.0165914
0.0162003
0.015828
0.0154692
0.0151336
0.0148122
0.0145102
0.0142244
0.0139555
0.0137031
0.0134657
0.0132442
0.0130365
0.0128438
0.0126641
0.0124985
0.0123455
0.0122062
0.0120776
0.0119688
0.0118694
0.011753
0.0116334
0.0115251
0.0114301
0.011346
0.0112708
0.0112028
0.0111412
0.0110854
0.0110348
0.0109892
0.010948
0.0109111
0.0108781
0.0108489
0.0108228
0.0108002
0.0107803
0.010763
0.0107485
0.0107375
0.0107287
0.0107223
0.0107172
0.0107137
0.0107114
0.0107097
0.0107094
0.0107094
0.0107096
0.0107106
0.0107112
0.0107116
0.0107095
0.0107132
0.0106927
0.010753
0.0106306
0.00724923
0.043012
0.0379587
0.032107
0.0286307
0.0264302
0.0251727
0.0245871
0.0243921
0.0243622
0.0243574
0.0243165
0.0242041
0.0240447
0.0237843
0.0234848
0.0231141
0.0227144
0.0222905
0.0218444
0.0214029
0.020947
0.0204984
0.0200521
0.0196147
0.0191924
0.0187802
0.0183903
0.0180139
0.0176569
0.017317
0.0169949
0.0166911
0.016404
0.0161349
0.0158817
0.0156457
0.015425
0.0152207
0.0150313
0.0148578
0.0146975
0.0145587
0.0144382
0.0143055
0.0141668
0.014037
0.0139208
0.013817
0.0137237
0.0136393
0.0135628
0.0134934
0.0134305
0.0133736
0.0133222
0.0132762
0.0132348
0.0131983
0.0131656
0.0131373
0.0131124
0.0130906
0.0130721
0.0130578
0.0130465
0.0130383
0.0130321
0.0130281
0.0130259
0.0130244
0.013025
0.0130265
0.0130283
0.0130313
0.0130343
0.0130376
0.013038
0.0130458
0.0130255
0.0130957
0.0129616
0.0103069
0.0520207
0.0463325
0.0377913
0.0324014
0.0293705
0.0278642
0.0272617
0.0271364
0.0272174
0.0273419
0.0274383
0.027468
0.0274476
0.0273156
0.0271306
0.026858
0.026538
0.026174
0.0257688
0.0253535
0.0249078
0.0244555
0.0239942
0.0235312
0.0230754
0.0226223
0.0221876
0.0217626
0.0213547
0.0209625
0.0205875
0.0202312
0.019892
0.0195723
0.0192697
0.0189862
0.0187198
0.018472
0.018241
0.0180284
0.0178312
0.0176573
0.0175105
0.0173592
0.0172005
0.0170482
0.0169087
0.0167825
0.0166685
0.016565
0.0164709
0.0163854
0.0163077
0.0162375
0.0161738
0.0161168
0.0160654
0.01602
0.0159794
0.0159442
0.0159131
0.0158859
0.0158624
0.0158439
0.0158292
0.0158185
0.0158107
0.0158056
0.0158032
0.0158019
0.0158032
0.015806
0.0158095
0.0158146
0.0158202
0.0158266
0.0158294
0.0158413
0.0158209
0.0159001
0.0157453
0.0138051
0.0613849
0.0553239
0.0438142
0.0362883
0.0323314
0.0305432
0.0299298
0.0298833
0.0300839
0.0303457
0.0305899
0.0307778
0.0309156
0.0309346
0.0308912
0.0307482
0.0305445
0.0302789
0.0299551
0.0296067
0.0292107
0.0287923
0.0283511
0.0278947
0.0274337
0.0269644
0.0265057
0.0260494
0.0256045
0.0251709
0.0247513
0.0243484
0.0239613
0.0235932
0.0232422
0.0229111
0.0225978
0.0223045
0.0220295
0.0217746
0.0215372
0.0213243
0.0211472
0.0209749
0.0207959
0.0206212
0.0204577
0.0203078
0.020171
0.0200462
0.0199324
0.0198288
0.0197343
0.0196488
0.019571
0.0195013
0.0194383
0.0193826
0.0193327
0.0192893
0.019251
0.0192176
0.019188
0.0191644
0.0191453
0.0191313
0.019121
0.0191142
0.0191112
0.0191096
0.0191113
0.0191153
0.0191201
0.0191271
0.019135
0.0191441
0.019149
0.0191643
0.019143
0.0192292
0.0190477
0.0177645
0.0708128
0.0644243
0.0496355
0.0399446
0.0351527
0.0331188
0.0325303
0.0325773
0.0329071
0.0333109
0.0337091
0.034069
0.0343801
0.0345678
0.0346872
0.0346993
0.0346426
0.0345075
0.0343013
0.0340574
0.0337492
0.033403
0.0330207
0.0326087
0.032178
0.0317261
0.0312743
0.0308145
0.030357
0.0299035
0.0294577
0.0290237
0.0286015
0.0281954
0.0278044
0.0274321
0.0270769
0.0267415
0.0264247
0.0261287
0.0258514
0.0255992
0.0253899
0.0251955
0.0249969
0.0248014
0.0246155
0.0244425
0.0242829
0.0241364
0.024002
0.0238792
0.0237669
0.0236649
0.0235719
0.0234883
0.0234127
0.0233456
0.0232855
0.0232331
0.0231869
0.0231464
0.0231102
0.0230806
0.0230563
0.0230381
0.0230247
0.0230155
0.0230111
0.0230087
0.0230103
0.0230149
0.0230206
0.0230289
0.0230385
0.0230495
0.0230555
0.0230728
0.0230488
0.0231388
0.0229293
0.0221857
0.0800272
0.0730078
0.0552193
0.0432333
0.0378194
0.035637
0.0350858
0.0352014
0.0356235
0.0361663
0.0367192
0.0372627
0.037757
0.0381259
0.038425
0.0386143
0.0387317
0.0387543
0.0386981
0.0385928
0.0384067
0.0381684
0.0378821
0.0375524
0.0371892
0.0367919
0.0363829
0.0359534
0.0355155
0.0350717
0.0346271
0.0341866
0.0337512
0.0333268
0.0329129
0.0325142
0.0321297
0.031763
0.0314134
0.0310837
0.0307725
0.0304857
0.0302469
0.0300321
0.0298165
0.0296043
0.0294001
0.0292076
0.029028
0.0288618
0.0287082
0.0285674
0.0284378
0.0283199
0.028212
0.0281149
0.0280266
0.0279483
0.0278779
0.0278165
0.0277624
0.0277149
0.0276719
0.0276362
0.0276064
0.0275835
0.0275663
0.0275542
0.027548
0.0275442
0.0275452
0.0275497
0.0275556
0.0275646
0.0275749
0.0275867
0.0275922
0.0276096
0.0275808
0.02767
0.0274361
0.0270558
0.0886848
0.0805824
0.0616915
0.0474384
0.0409901
0.0385968
0.037995
0.0380834
0.0384992
0.0390768
0.0396964
0.0403384
0.040952
0.0415015
0.041991
0.0423748
0.0426907
0.0428926
0.043018
0.0430833
0.0430499
0.0429527
0.0427987
0.0425873
0.0423274
0.0420223
0.0416933
0.0413303
0.0409472
0.0405475
0.0401368
0.0397207
0.0393014
0.0388855
0.0384735
0.038071
0.0376777
0.0372982
0.0369324
0.0365836
0.0362514
0.0359415
0.0356815
0.035452
0.0352253
0.0350029
0.0347877
0.0345827
0.0343893
0.0342088
0.0340407
0.0338858
0.0337425
0.0336117
0.0334915
0.033383
0.0332841
0.0331963
0.0331172
0.0330483
0.0329875
0.0329344
0.0328857
0.0328448
0.0328101
0.0327831
0.0327624
0.0327474
0.0327394
0.0327341
0.0327342
0.0327384
0.0327441
0.032753
0.0327632
0.0327747
0.0327785
0.0327938
0.0327585
0.0328416
0.0325908
0.0323853
0.0963465
0.0871277
0.0692065
0.0541276
0.0463676
0.0432473
0.0421393
0.0419023
0.0420868
0.042506
0.0430359
0.04363
0.0442415
0.0448395
0.0454152
0.0459075
0.0463836
0.0467708
0.047109
0.047373
0.0475169
0.0475923
0.0476072
0.0475483
0.047426
0.0472514
0.0470399
0.0467799
0.0464886
0.0461695
0.0458286
0.0454715
0.0451016
0.0447263
0.0443465
0.0439689
0.0435938
0.0432266
0.0428678
0.0425213
0.0421878
0.0418727
0.041606
0.0413726
0.0411445
0.0409217
0.0407055
0.0404982
0.0403008
0.0401152
0.0399408
0.0397793
0.039629
0.0394914
0.0393643
0.0392495
0.0391446
0.0390514
0.0389674
0.0388944
0.0388302
0.0387743
0.0387228
0.0386794
0.038642
0.0386128
0.0385902
0.0385738
0.0385651
0.0385592
0.0385593
0.0385638
0.0385696
0.0385786
0.0385887
0.0385994
0.0386011
0.038613
0.0385706
0.0386426
0.0383862
0.0382087
0.102543
0.0931488
0.077498
0.0630465
0.0545943
0.0503491
0.0482269
0.0472746
0.0469431
0.0469712
0.0472152
0.047575
0.048026
0.0485089
0.049029
0.0495105
0.05001
0.050464
0.0509
0.0512928
0.051618
0.0518945
0.0521139
0.0522345
0.0522811
0.0522772
0.0522198
0.0520987
0.0519373
0.0517376
0.0515042
0.0512433
0.0509597
0.0506607
0.0503479
0.0500283
0.0497033
0.0493787
0.0490557
0.0487389
0.0484297
0.0481334
0.04788
0.0476585
0.0474431
0.0472331
0.047029
0.0468326
0.0466441
0.0464657
0.0462968
0.0461395
0.0459924
0.0458573
0.0457321
0.0456191
0.0455155
0.0454239
0.0453415
0.0452703
0.0452082
0.0451547
0.0451054
0.0450641
0.0450284
0.0450009
0.0449801
0.0449656
0.044959
0.0449552
0.0449576
0.0449645
0.0449724
0.0449833
0.0449947
0.0450061
0.0450068
0.0450159
0.0449687
0.0450259
0.044779
0.0445453
0.107168
0.0993211
0.0862461
0.0731682
0.0643113
0.0588585
0.0556329
0.0538609
0.0529278
0.0524823
0.0523401
0.052359
0.0525377
0.052783
0.0531195
0.0534682
0.0538586
0.0542534
0.0546594
0.0550616
0.0554389
0.0558007
0.056126
0.0564194
0.0566584
0.0568671
0.0569906
0.0570392
0.057046
0.0570043
0.0569162
0.0567902
0.0566322
0.0564483
0.0562402
0.056016
0.0557772
0.0555303
0.0552768
0.055022
0.0547681
0.0545201
0.0543055
0.0541165
0.0539322
0.0537522
0.0535767
0.0534072
0.0532435
0.0530876
0.052939
0.0528002
0.0526697
0.0525498
0.0524385
0.0523383
0.0522467
0.0521665
0.0520949
0.0520341
0.0519822
0.0519388
0.0518991
0.051867
0.0518399
0.0518206
0.0518076
0.0518005
0.0518013
0.0518045
0.0518139
0.0518275
0.0518417
0.0518584
0.0518751
0.0518907
0.0518945
0.0519041
0.051858
0.0518997
0.0516803
0.0513604
0.111536
0.105447
0.0949978
0.0833361
0.0733871
0.0666357
0.0627389
0.0604975
0.0591962
0.0584213
0.0579535
0.0576716
0.0575889
0.0575869
0.0576954
0.0578456
0.0580519
0.0582993
0.0585767
0.0588845
0.0592
0.0595325
0.0598595
0.0601923
0.0605086
0.0608163
0.061096
0.0613311
0.0615415
0.0616871
0.0617739
0.061818
0.0618238
0.0617925
0.0617275
0.0616373
0.0615236
0.0613922
0.0612457
0.0610895
0.0609266
0.0607615
0.0606156
0.0604843
0.0603542
0.0602256
0.0600989
0.0599756
0.0598554
0.0597405
0.0596301
0.0595269
0.0594296
0.0593407
0.0592585
0.0591856
0.0591198
0.0590639
0.0590153
0.0589766
0.0589458
0.0589229
0.0589029
0.0588899
0.0588808
0.0588788
0.0588823
0.0588909
0.0589071
0.058925
0.0589486
0.058976
0.0590034
0.0590328
0.0590616
0.0590883
0.0591026
0.0591195
0.0590844
0.0591149
0.0589417
0.0585469
0.116333
0.111629
0.103324
0.093307
0.0838063
0.0761566
0.070464
0.067092
0.065189
0.0640442
0.0633622
0.0629396
0.0627264
0.0625666
0.0624852
0.062449
0.0624781
0.0625599
0.0626708
0.0628261
0.0630064
0.0632249
0.0634662
0.0637366
0.0640243
0.064327
0.0646378
0.0649405
0.0652431
0.0655263
0.0657888
0.0660268
0.0662214
0.0663669
0.0664745
0.0665517
0.0665973
0.0666169
0.0666137
0.0665931
0.066558
0.0665125
0.0664681
0.0664227
0.0663732
0.0663207
0.0662662
0.0662114
0.0661563
0.0661033
0.0660516
0.066004
0.0659594
0.0659203
0.0658853
0.0658571
0.0658338
0.0658181
0.065808
0.0658058
0.06581
0.0658208
0.0658335
0.0658519
0.0658732
0.0659003
0.0659319
0.0659676
0.0660098
0.066053
0.0661013
0.0661525
0.0662034
0.0662556
0.0663066
0.0663545
0.0663905
0.0664258
0.066416
0.0664464
0.066337
0.0659097
0.12047
0.117181
0.110863
0.102882
0.0947841
0.0875551
0.0814599
0.0766881
0.0730828
0.0707189
0.0693617
0.0684891
0.0678959
0.0674501
0.067185
0.0670241
0.0669589
0.066909
0.0668591
0.0668498
0.06687
0.0669361
0.0670408
0.0671854
0.0673662
0.0675769
0.067818
0.068079
0.0683643
0.0686626
0.0689735
0.0692882
0.0696009
0.0699008
0.0701864
0.0704427
0.0706599
0.0708482
0.0710117
0.0711532
0.0712745
0.0713791
0.0714651
0.0715311
0.0715869
0.0716344
0.0716752
0.0717115
0.0717437
0.0717741
0.0718025
0.0718314
0.0718602
0.0718911
0.0719231
0.0719587
0.0719965
0.0720391
0.0720848
0.0721359
0.0721911
0.0722511
0.0723116
0.0723763
0.0724426
0.0725132
0.0725868
0.0726634
0.0727451
0.0728271
0.0729133
0.0730014
0.0730888
0.0731771
0.0732637
0.0733469
0.0734194
0.0734887
0.0735222
0.073572
0.0735416
0.0731461
0.123927
0.121718
0.117294
0.111472
0.104991
0.0985675
0.0928381
0.0880163
0.0840352
0.0808002
0.0782528
0.0761095
0.0744442
0.0732492
0.0725263
0.0720386
0.0716789