/*--------------------------------*- C++ -*----------------------------------*\
| =========                 |                                                 |
| \\      /  F ield         | OpenFOAM: The Open Source CFD Toolbox           |
|  \\    /   O peration     | Version:  5.x                                   |
|   \\  /    A nd           | Web:      www.OpenFOAM.org                      |
|    \\/     M anipulation  |                                                 |
\*---------------------------------------------------------------------------*/
FoamFile
{
    version     2.0;
    format      ascii;
    class       volScalarField;
    location    "600";
    object      p;
}
// * * * * * * * * * * * * * * * * * * * * * * * * * * * * * * * * * * * * * //

dimensions      [0 2 -2 0 0 0 0];

internalField   nonuniform List<scalar> 
11040
(
-0.000412389
-53.7873
-181.632
-216.397
-228.117
-235.299
-236.156
-230.658
-220.658
-206.756
-188.708
-161.045
-134.436
-115.437
-102.081
-87.8499
-73.4157
-59.7863
-46.8837
-34.4372
-22.4076
-12.0362
-3.3856
4.68684
12.218
19.2137
25.6642
31.5546
36.8523
41.5034
45.4405
48.6168
51.0522
52.8262
54.0888
54.9344
55.1813
54.8693
54.934
57.0771
56.9536
19.1698
-32.8886
-115.261
-157.443
-179.684
-196.023
-205.664
-207.892
-204.102
-195.237
-181.433
-158.462
-134.296
-115.628
-101.982
-87.9143
-73.6413
-60.0798
-47.2163
-34.8002
-22.7884
-12.4386
-3.76796
4.32403
11.8762
18.8964
25.376
31.301
36.6366
41.3267
45.3055
48.5263
51.0007
52.7977
54.076
54.9491
55.2257
54.8911
54.73
56.3249
55.8962
31.9307
-18.6051
-77.9567
-127.331
-156.857
-176.439
-188.638
-193.305
-191.693
-184.885
-173.446
-154.383
-132.558
-114.331
-100.638
-87.0949
-73.2221
-59.8665
-47.1451
-34.843
-22.9128
-12.602
-3.95123
4.12745
11.6728
18.6931
25.1802
31.119
36.474
41.1891
45.2001
48.4577
50.9657
52.7891
54.083
54.977
55.2822
54.9656
54.7192
55.878
55.2526
40.7765
-4.41992
-48.9041
-94.0046
-125.449
-147.801
-163.724
-172.6
-174.835
-171.444
-163.261
-148.303
-129.4
-112.204
-98.6878
-85.7339
-72.3808
-59.3375
-46.8383
-34.7145
-22.9157
-12.6891
-4.0871
3.95979
11.4846
18.4941
24.9805
30.9273
36.2984
41.0385
45.0834
48.3813
50.9303
52.7889
54.1013
55.0047
55.329
55.0326
54.7438
55.6159
55.1021
47.6696
8.91557
-25.6441
-64.2592
-95.8804
-120.089
-138.481
-150.554
-156.205
-156.148
-151.253
-140.363
-124.861
-109.239
-96.1255
-83.7869
-71.0804
-58.4758
-46.2886
-34.4189
-22.8188
-12.7279
-4.2076
3.77974
11.2607
18.2406
24.7115
30.6559
36.0374
40.8018
44.8852
48.2345
50.8412
52.7543
54.101
55.0164
55.3617
55.0988
54.7842
55.5186
55.323
52.8722
20.5505
-7.01921
-39.073
-68.3872
-92.6249
-112.25
-126.723
-135.457
-138.722
-137.22
-130.356
-118.563
-105.074
-92.7546
-81.1435
-69.2189
-57.1944
-45.4209
-33.8881
-22.5609
-12.6592
-4.26397
3.62538
11.0295
17.9513
24.3826
30.305
35.6827
40.4629
44.5836
47.9915
50.6709
52.6597
54.0631
55.0047
55.386
55.19
54.8875
55.5815
55.7232
56.7856
30.2821
7.90298
-18.3141
-43.9586
-66.7066
-86.2639
-101.992
-113.031
-119.23
-120.988
-117.985
-110.066
-99.2895
-88.3188
-77.6601
-66.6696
-55.3873
-44.1566
-33.0609
-22.092
-12.4442
-4.22686
3.51977
10.8079
17.636
23.996
29.8693
35.2212
40.0018
44.1528
47.6216
50.3863
52.4728
53.9614
54.9573
55.405
55.322
55.0955
55.7906
56.2479
59.7276
38.1612
19.8289
-1.4776
-23.0914
-43.344
-61.7176
-77.5341
-89.8675
-98.2696
-102.825
-103.278
-99.1377
-91.4806
-82.4422
-73.0802
-63.2299
-52.8899
-42.3707
-31.8404
-21.3387
-12.0286
-4.05405
3.49517
10.6191
17.3095
23.5574
29.3445
34.6386
39.3944
43.559
47.0829
49.9402
52.145
53.753
54.8478
55.4124
55.5014
55.4255
56.1714
56.8942
61.9235
44.3955
29.3051
12.0217
-5.79456
-23.1166
-39.5307
-54.4385
-67.015
-76.6899
-83.3086
-86.581
-85.8263
-81.397
-74.7573
-67.0932
-58.6427
-49.4806
-39.885
-30.0858
-20.1866
-11.3167
-3.66409
3.61777
10.5164
17.0148
23.1005
28.7547
33.948
38.641
42.7884
46.3474
49.2913
51.6254
53.3854
54.6348
55.3857
55.7231
55.8834
56.761
57.6529
63.5334
49.2519
36.7901
22.7679
8.26149
-6.14885
-20.2374
-33.5694
-45.5022
-55.4997
-63.2884
-68.5469
-70.5186
-69.0795
-65.051
-59.4284
-52.6521
-44.9136
-36.4811
-27.6179
-18.4887
-10.1834
-2.9475
3.98126
10.5802
16.8224
22.6882
28.1565
33.1998
37.784
41.8723
45.4304
48.4358
50.8904
52.819
54.271
55.2779
55.9452
56.4345
57.531
58.5217
64.6852
52.9981
42.6783
31.2867
19.5447
7.76341
-3.98216
-15.4295
-26.1237
-35.6545
-43.7428
-50.0813
-53.9397
-54.9371
-53.3916
-49.9598
-45.067
-38.9689
-31.9326
-24.2294
-16.0684
-8.47825
-1.77267
4.70144
10.912
16.8227
22.4041
27.6298
32.4723
36.9013
40.8865
44.402
47.4314
49.9783
52.0656
53.7367
55.0349
56.0768
56.9594
58.3313
59.4514
65.4855
55.8739
47.3056
38.0317
28.5458
19.0074
9.40275
-0.135164
-9.31547
-17.8638
-25.5631
-32.1606
-37.0324
-39.714
-40.2046
-38.8288
-35.8606
-31.5244
-26.0606
-19.721
-12.7308
-6.02346
0.0202454
5.92268
11.6417
17.1324
22.3541
27.2735
31.8609
36.0879
39.9284
43.3622
46.3782
48.9825
51.1992
53.0697
54.6414
56.0305
57.2956
58.9286
60.2629
66.0261
58.0835
50.9531
43.3837
35.7169
28.0289
20.2645
12.4764
4.83404
-2.49098
-9.36589
-15.6119
-20.7455
-24.3339
-26.2239
-26.5033
-25.2694
-22.6482
-18.8127
-13.964
-8.3078
-2.64136
2.60562
7.81317
12.9285
17.8996
22.6753
27.2146
31.4842
35.4557
39.1054
42.4163
45.3802
48.0037
50.3106
52.3373
54.1271
55.7803
57.3423
59.1422
60.7241
66.3833
59.7932
53.8488
47.6542
41.4468
35.2575
29.018
22.7375
16.5081
10.4289
4.56781
-0.967581
-5.82995
-9.67368
-12.3092
-13.6979
-13.8097
-12.6642
-10.3455
-6.98132
-2.72791
1.79026
6.12999
10.5342
14.9415
19.2942
23.5335
27.6116
31.4919
35.1447
38.5466
41.6815
44.5422
47.1336
49.4758
51.5964
53.5284
55.3454
57.0869
58.9393
60.6638
66.616
61.1317
56.1709
51.089
46.0517
41.0658
36.0636
31.0335
26.0227
21.0834
16.2471
11.5656
7.27336
3.62135
0.775499
-1.18308
-2.16468
-2.1171
-1.04699
0.99286
3.90918
7.26455
10.6456
14.181
17.8066
21.4634
25.0887
28.6302
32.0487
35.3138
38.4016
41.2953
43.9859
46.475
48.7764
50.9075
52.8886
54.7661
56.5696
58.3884
60.1087
66.7775
62.2055
58.063
53.8836
49.7851
45.7616
41.7513
37.7349
33.7347
29.7762
25.8702
22.0358
18.4247
15.2082
12.5093
10.406
8.99705
8.36265
8.54215
9.53825
11.3149
13.6059
16.0621
18.7321
21.5569
24.4817
27.4461
30.398
33.2975
36.1133
38.8209
41.4027
43.8476
46.1525
48.3241
50.3697
52.2975
54.134
55.8962
57.6218
59.2529
66.9268
63.1125
59.6533
56.2092
52.8664
49.6116
46.3911
43.1841
39.9998
36.8497
33.7337
30.6565
27.7121
25.0136
22.6447
20.6646
19.156
18.1967
17.8411
18.1206
19.037
20.4557
22.1074
23.9951
26.0707
28.2879
30.5943
32.9432
35.2972
37.6263
39.9064
42.1186
44.2498
46.2928
48.2484
50.1163
51.8962
53.601
55.2383
56.8204
58.3185
67.0587
63.8448
60.9252
58.05
55.2865
52.6162
49.9924
47.3963
44.8311
42.3014
39.8036
37.3375
34.9618
32.7496
30.7558
29.022
27.6093
26.5805
25.9866
25.8658
26.2368
27.0464
28.0984
29.3762
30.8442
32.4664
34.2009
36.009
37.8587
39.7236
41.5812
43.4134
45.2061
46.9498
48.6412
50.275
51.8464
53.3605
54.8195
56.2245
57.5628
67.1657
64.416
61.9138
59.4734
57.1485
54.9175
52.74
50.5993
48.4955
46.4297
44.3972
42.3954
40.464
38.6515
36.9941
35.5203
34.2738
33.3015
32.6448
32.3384
32.4049
32.8339
33.4836
34.3327
35.3566
36.5284
37.8156
39.1881
40.62
42.0888
43.5752
45.063
46.5385
47.9917
49.417
50.8073
52.1554
53.4624
54.7272
55.9458
57.1133
67.2634
64.8808
62.7096
60.6092
58.6237
56.73
54.893
53.0981
51.3438
49.6295
47.9504
46.3036
44.7165
43.2229
41.8466
40.6073
39.5362
38.6674
38.0324
37.6595
37.5694
37.7716
38.1622
38.7214
39.4329
40.2766
41.2282
42.2644
43.3649
44.5117
45.6886
46.8818
48.079
49.2706
50.4506
51.6113
52.7451
53.8511
54.9265
55.9661
56.9673
67.3567
65.2713
63.3684
61.5408
59.8249
58.1976
56.6279
55.103
53.6206
52.1795
50.7749
49.4039
48.0864
46.8464
45.7002
44.6611
43.7518
42.9968
42.4195
42.0417
41.8805
41.9528
42.1805
42.5473
43.0428
43.652
44.3563
45.1384
45.9824
46.8742
47.8007
48.7502
49.7126
50.6792
51.6442
52.6003
53.5407
54.4634
55.3651
56.2404
57.0878
67.4479
65.6074
63.9263
62.3218
60.8248
59.4121
58.0566
56.747
55.4807
54.2558
53.0682
51.9152
50.8112
49.774
48.8148
47.9428
47.1745
46.5278
46.0196
45.6663
45.4811
45.4825
45.6098
45.8506
46.1983
46.6413
47.1658
47.7583
48.4069
49.1003
49.8283
50.5814
51.351
52.1301
52.9133
53.6942
54.4669
55.2293
55.9779
56.7081
57.4181
67.5374
65.9019
64.4065
62.9875
61.6709
60.4343
59.2535
58.1188
57.0273
55.9767
54.9635
53.9852
53.0526
52.1788
51.372
50.6383
49.9898
49.4397
49.0001
48.6834
48.499
48.4645
48.5311
48.6898
48.9367
49.2626
49.6567
50.1089
50.6098
51.1508
51.7237
52.3209
52.9355
53.5616
54.1948
54.8296
55.461
56.0871
56.7046
57.3099
57.9006
67.6251
66.1629
64.825
63.5621
62.3963
61.3063
60.2702
59.2796
58.3315
57.4235
56.5525
55.7161
54.9226
54.1818
53.4995
52.8802
52.3323
51.8658
51.4895
51.2122
51.0408
50.9905
51.0213
51.1269
51.3049
51.5481
51.8477
52.196
52.5858
53.0102
53.4629
53.9377
54.4291
54.9324
55.4438
55.9589
56.4735
56.9862
57.4938
57.9934
58.4827
67.7105
66.3964
65.1932
64.0631
63.0249
62.0581
61.1433
60.273
59.4441
58.6543
57.9005
57.1809
56.5015
55.8698
55.2901
54.7653
54.3017
53.9065
53.5861
53.3469
53.1936
53.1389
53.1491
53.2203
53.3511
53.5354
53.7662
54.0375
54.3435
54.679
55.0387
55.4179
55.8122
56.2177
56.6314
57.0495
57.469
57.8883
58.305
58.7168
59.121
67.7932
66.6065
65.5197
64.5035
63.574
62.7119
61.8999
61.131
60.4022
59.7113
59.0554
58.4328
57.848
57.3067
56.8119
56.3657
55.9725
55.6376
55.3656
55.1612
55.0273
54.9742
54.9733
55.0222
55.1203
55.2624
55.4428
55.6565
55.8993
56.1666
56.4545
56.7591
57.077
57.4049
57.7405
58.0808
58.4233
58.7667
59.109
59.4484
59.7821
67.8729
66.7966
65.8107
64.8929
64.0569
63.2846
62.5603
61.8776
61.2338
60.6265
60.0529
59.5116
59.0059
58.54
58.1161
57.7355
57.4013
57.1173
56.8869
56.7131
56.598
56.5496
56.5432
56.5777
56.6529
56.7644
56.9074
57.0778
57.2723
57.4873
57.7195
57.9658
58.2235
58.4901
58.7635
59.0414
59.3218
59.6037
59.8854
60.1655
60.4413
67.9492
66.9691
66.0712
65.2389
64.4838
63.7889
63.14
62.5314
61.9602
61.424
60.9204
60.4479
60.0088
59.6063
59.2418
58.9162
58.6316
58.3906
58.1955
58.0485
57.9506
57.9081
57.8996
57.9248
57.9838
58.0728
58.1877
58.3252
58.4826
58.657
58.8458
59.0464
59.2567
59.4745
59.6984
59.9263
60.1568
60.389
60.6214
60.8532
61.0814
68.0219
67.1259
66.3052
65.5475
64.8628
64.2351
63.6515
63.1067
62.598
62.1229
61.6791
61.2651
60.8825
60.5337
60.2195
59.9402
59.6974
59.4927
59.3276
59.2036
59.1211
59.0848
59.0761
59.0952
59.1426
59.2148
59.3084
59.4207
59.5494
59.6921
59.8468
60.0113
60.1839
60.363
60.5473
60.7351
60.9253
61.1173
61.3097
61.5021
61.6915
68.0909
67.2686
66.5158
65.8235
65.2003
64.6311
64.1044
63.615
63.1604
62.738
62.3456
61.9818
61.6476
61.3444
61.0729
60.8329
60.6254
60.4514
60.3118
60.2075
60.1385
60.1083
60.1003
60.1156
60.1545
60.214
60.2913
60.3839
60.4901
60.6079
60.7355
60.8714
61.014
61.1621
61.3145
61.4701
61.6278
61.7871
61.9471
62.1072
62.2648
68.156
67.3985
66.7056
66.0708
65.5015
64.9836
64.5065
64.0655
63.6579
63.2813
62.9334
62.6129
62.3201
62.0562
61.8211
61.6145
61.437
61.2892
61.1713
61.0838
61.0263
61.0017
60.9951
61.0079
61.0405
61.0903
61.1548
61.232
61.3203
61.4183
61.5245
61.6374
61.7559
61.879
62.0058
62.1352
62.2665
62.3993
62.5327
62.6665
62.7981
68.2172
67.5168
66.8767
66.2925
65.7706
65.2978
64.8642
64.4656
64.0992
63.7624
63.4534
63.1703
62.9134
62.6831
62.4793
62.3014
62.1495
62.0239
61.9244
61.8513
61.8039
61.7842
61.7792
61.7904
61.8183
61.8606
61.9149
61.9799
62.054
62.1361
62.2249
62.3194
62.4184
62.5213
62.6272
62.7353
62.8451
62.9562
63.0679
63.18
63.2902
68.2744
67.6244
67.0309
66.4915
66.0113
65.5781
65.1829
64.8215
64.4912
64.1894
63.9142
63.6638
63.438
63.2369
63.0601
62.9068
62.7769
62.6702
62.5865
62.5256
62.4868
62.4715
62.4681
62.4784
62.5026
62.5389
62.5853
62.6403
62.703
62.7722
62.847
62.9264
63.0096
63.0959
63.1848
63.2756
63.3677
63.4609
63.5547
63.649
63.7414
68.3278
67.722
67.1698
66.6698
66.2264
65.8282
65.4668
65.1382
64.8397
64.5688
64.3232
64.1014
63.9027
63.727
63.5736
63.4416
63.3305
63.2401
63.1699
63.1195
63.0882
63.0767
63.0749
63.0845
63.106
63.1375
63.1774
63.2245
63.2778
63.3366
63.3999
63.4669
63.5372
63.6099
63.6848
63.7612
63.8388
63.9173
63.9963
64.0757
64.1535
68.3772
67.8103
67.2945
66.8293
66.4184
66.0511
65.7196
65.42
65.1496
64.9058
64.6865
64.4897
64.3149
64.1613
64.0283
63.9147
63.82
63.7436
63.685
63.6436
63.6185
63.6104
63.6101
63.6194
63.6386
63.6663
63.7009
63.7414
63.7871
63.8372
63.891
63.948
64.0075
64.069
64.1323
64.1969
64.2624
64.3286
64.3953
64.4624
64.5279
68.4227
67.8899
67.4061
66.9717
66.5894
66.2493
65.9443
65.6704
65.4249
65.2052
65.009
64.8344
64.6805
64.5464
64.4311
64.3336
64.2531
64.1889
64.1403
64.1067
64.0871
64.0818
64.083
64.0921
64.1097
64.1342
64.1645
64.1997
64.239
64.282
64.328
64.3766
64.4272
64.4794
64.5331
64.5877
64.6431
64.6992
64.7555
64.8123
64.8676
68.4643
67.9613
67.5056
67.0981
66.741
66.425
66.1433
65.8923
65.6689
65.4706
65.2949
65.1399
65.0045
64.8876
64.788
64.7046
64.6365
64.5828
64.5428
64.5159
64.501
64.4983
64.5006
64.5097
64.5259
64.5479
64.5746
64.6052
64.6393
64.6764
64.7159
64.7574
64.8006
64.8451
64.8906
64.937
64.984
65.0315
65.0792
65.1273
65.174
68.5022
68.0249
67.5937
67.2097
66.8747
66.5799
66.3189
66.0881
65.8844
65.7051
65.5478
65.4103
65.2913
65.1896
65.1038
65.0328
64.9756
64.9312
64.8988
64.8777
64.867
64.8666
64.8702
64.8795
64.8946
64.9146
64.9384
64.9654
64.9952
65.0273
65.0614
65.097
65.134
65.172
65.2108
65.2502
65.2901
65.3304
65.3708
65.4115
65.4509
68.5363
68.081
67.6709
67.3074
66.9916
66.7154
66.4728
66.26
66.0738
65.9115
65.7705
65.6486
65.5443
65.4561
65.3826
65.3226
65.2749
65.2386
65.2129
65.1969
65.1896
65.1911
65.1958
65.2052
65.2194
65.2377
65.259
65.2828
65.3089
65.3369
65.3664
65.3971
65.4289
65.4614
65.4945
65.5281
65.562
65.5962
65.6305
65.665
65.6983
68.5667
68.13
67.7379
67.3919
67.0927
66.8328
66.6063
66.4094
66.2389
66.0919
65.9655
65.8576
65.7664
65.6903
65.6279
65.5777
65.5386
65.5097
65.4899
65.4786
65.4748
65.4782
65.4842
65.494
65.5078
65.5248
65.5443
65.5657
65.5889
65.6135
65.6392
65.6659
65.6932
65.7211
65.7495
65.7781
65.807
65.836
65.865
65.8942
65.9223
68.5935
68.1719
67.795
67.4638
67.1789
66.933
66.7207
66.5379
66.3814
66.2479
66.1348
66.0395
65.9601
65.8949
65.8423
65.8009
65.7694
65.7469
65.7322
65.7248
65.7237
65.7286
65.7355
65.7455
65.7587
65.7745
65.7922
65.8115
65.8321
65.8538
65.8763
65.8995
65.9232
65.9473
65.9716
65.9962
66.0208
66.0455
66.0701
66.0948
66.1185
68.6166
68.2071
67.8423
67.5235
67.2505
67.0168
66.8168
66.6465
66.5024
66.3812
66.2799
66.196
66.1274
66.0721
66.0286
65.9953
65.971
65.9547
65.9452
65.942
65.944
65.951
65.9593
65.9702
65.9836
65.999
66.0158
66.0336
66.0524
66.0719
66.0919
66.1122
66.1329
66.1537
66.1746
66.1956
66.2165
66.2375
66.2583
66.2792
66.2991
68.6359
68.2352
67.8799
67.5709
67.3078
67.0843
66.895
66.7358
66.6028
66.4926
66.4021
66.3286
66.2697
66.2235
66.1881
66.162
66.1438
66.1324
66.127
66.1267
66.1307
66.1388
66.1479
66.159
66.1721
66.1866
66.2022
66.2186
66.2356
66.253
66.2708
66.2888
66.307
66.3252
66.3434
66.3615
66.3796
66.3976
66.4153
66.4331
66.4499
68.6517
68.2568
67.9082
67.6066
67.3511
67.1359
66.9557
66.806
66.683
66.5828
66.5022
66.4382
66.3884
66.3507
66.3233
66.3046
66.2932
66.2879
66.2878
66.2919
66.2995
66.3102
66.3215
66.3342
66.3482
66.3632
66.3788
66.3947
66.4108
66.4271
66.4433
66.4596
66.4757
66.4917
66.5075
66.523
66.5384
66.5536
66.5685
66.5833
66.5974
68.6641
68.2726
67.9285
67.632
67.3822
67.1734
67.0004
66.8586
66.744
66.6525
66.5807
66.5254
66.4839
66.4539
66.4332
66.4201
66.4133
66.4116
66.4142
66.4204
66.4295
66.441
66.4529
66.4658
66.4797
66.4942
66.509
66.524
66.539
66.554
66.5689
66.5836
66.5981
66.6124
66.6264
66.6402
66.6537
66.667
66.68
66.6928
66.705
68.6729
68.2817
67.9395
67.6462
67.4003
67.1965
67.0295
66.8945
66.7871
66.7032
66.6391
66.5917
66.5582
66.5363
66.5239
66.5192
66.5205
66.5265
66.536
66.548
66.5619
66.5771
66.5923
66.6078
66.6237
66.6397
66.6554
66.6708
66.6859
66.7005
66.7148
66.7286
66.7419
66.7548
66.7672
66.7793
66.7908
66.802
66.8129
66.8233
66.8333
68.6769
68.2797
67.9347
67.641
67.3966
67.1965
67.0348
66.9064
66.8063
66.7302
66.6738
66.6337
66.6067
66.5903
66.5822
66.5806
66.5842
66.592
66.6031
66.6167
66.6319
66.6478
66.6637
66.6797
66.6957
66.7116
66.727
66.7421
66.7566
66.7707
66.7842
66.7972
66.8096
66.8215
66.8329
66.8439
66.8543
66.8644
66.874
66.8832
66.8921
68.6756
68.2685
67.9167
67.619
67.3732
67.1741
67.0157
66.8924
66.7989
66.7306
66.6832
66.6533
66.6376
66.6336
66.6386
66.6506
66.6675
66.6873
66.7089
66.731
66.7529
66.7744
66.795
66.8149
66.8341
66.8524
66.8697
66.8861
66.9016
66.9161
66.9298
66.9426
66.9546
66.9659
66.9765
66.9865
66.9958
67.0046
67.0129
67.0207
67.0283
62.3363
66.4095
69.7659
71.716
72.9005
73.6935
74.1483
74.3557
74.4012
74.337
74.1998
74.017
73.808
73.5856
73.3588
73.1335
72.914
72.7025
72.5005
72.309
72.1282
71.958
71.7983
71.6488
71.509
71.3785
71.2566
71.1429
71.0369
70.9378
70.8453
70.7587
70.6776
70.6015
70.53
70.4627
70.3993
70.3395
70.2832
70.2302
70.1803
70.1333
70.089
70.0473
70.008
69.9709
69.9358
69.9027
69.8712
69.8414
69.8131
69.7861
69.7604
69.7359
69.7123
69.6897
69.668
69.6471
69.6269
69.6073
69.5883
69.5698
69.5518
69.5343
69.5173
69.5008
69.4847
69.4695
69.4544
69.4414
69.4269
69.4192
69.4016
69.4099
61.7265
66.1248
69.6245
71.7152
72.9638
73.7657
74.2114
74.4057
74.4377
74.3612
74.2135
74.022
73.8059
73.5781
73.347
73.1186
72.8967
72.6835
72.4804
72.2881
72.1069
71.9367
71.7771
71.6279
71.4885
71.3584
71.2371
71.124
71.0185
70.9201
70.8283
70.7424
70.6619
70.5864
70.5155
70.4488
70.3859
70.3267
70.271
70.2184
70.169
70.1224
70.0786
70.0373
69.9984
69.9617
69.927
69.8942
69.8632
69.8337
69.8057
69.779
69.7536
69.7293
69.706
69.6836
69.6622
69.6415
69.6214
69.6021
69.5833
69.565
69.5472
69.5299
69.513
69.4967
69.4807
69.4656
69.4507
69.4378
69.4235
69.4159
69.3984
69.4068
61.2682
65.4342
69.2869
71.6358
72.9956
73.8324
74.2811
74.4645
74.4811
74.3898
74.2294
74.0275
73.8031
73.5688
73.3328
73.1007
72.8761
72.661
72.4567
72.2637
72.0822
71.9119
71.7525
71.6036
71.4648
71.3353
71.2147
71.1023
70.9976
70.9
70.809
70.7238
70.6442
70.5694
70.4992
70.4332
70.371
70.3125
70.2573
70.2054
70.1565
70.1105
70.0672
70.0264
69.9879
69.9517
69.9174
69.885
69.8543
69.8252
69.7976
69.7712
69.7461
69.7221
69.6991
69.6771
69.6559
69.6354
69.6156
69.5965
69.5779
69.5598
69.5423
69.5251
69.5085
69.4923
69.4765
69.4616
69.4468
69.4341
69.4199
69.4124
69.3951
69.4036
61.0143
64.8316
68.8587
71.4543
72.9685
73.8668
74.3359
74.5207
74.5273
74.4215
74.247
74.0329
73.7989
73.5571
73.3153
73.079
72.8514
72.6342
72.4286
72.2349
72.0531
71.8828
71.7238
71.5755
71.4373
71.3086
71.1889
71.0775
70.9737
70.8771
70.787
70.7028
70.6241
70.5502
70.4809
70.4157
70.3543
70.2965
70.2421
70.1908
70.1426
70.0972
70.0545
70.0143
69.9764
69.9406
69.9069
69.875
69.8447
69.816
69.7888
69.7628
69.7381
69.7144
69.6917
69.67
69.6491
69.6289
69.6094
69.5905
69.5722
69.5543
69.537
69.5201
69.5036
69.4876
69.472
69.4573
69.4427
69.4301
69.4161
69.4087
69.3916
69.4001
61.0654
64.5875
68.4994
71.1978
72.8663
73.8519
74.3561
74.5523
74.5589
74.4466
74.2615
74.0359
73.7915
73.5414
73.2933
73.0523
72.8214
72.6021
72.395
72.2006
72.0187
71.8487
71.6902
71.5426
71.4053
71.2777
71.159
71.0488
70.9462
70.8508
70.7619
70.6789
70.6013
70.5285
70.4602
70.396
70.3355
70.2786
70.225
70.1746
70.1271
70.0825
70.0404
70.0009
69.9636
69.9285
69.8953
69.8639
69.8342
69.806
69.7792
69.7536
69.7293
69.706
69.6837
69.6623
69.6417
69.6219
69.6027
69.5841
69.566
69.5484
69.5313
69.5146
69.4984
69.4826
69.4672
69.4527
69.4382
69.4258
69.412
69.4048
69.3878
69.3964
61.2764
64.6302
68.3134
70.9751
72.7145
73.7763
74.3308
74.5481
74.5587
74.4453
74.2575
74.0269
73.7758
73.5187
73.2643
73.0185
72.7843
72.5628
72.3545
72.1596
71.9777
71.8082
71.6505
71.504
71.3679
71.2416
71.1244
71.0155
70.9145
70.8205
70.733
70.6514
70.5752
70.5037
70.4366
70.3736
70.3143
70.2584
70.2058
70.1563
70.1098
70.066
70.0248
69.986
69.9494
69.915
69.8825
69.8517
69.8225
69.7949
69.7686
69.7436
69.7197
69.6969
69.675
69.654
69.6338
69.6143
69.5954
69.5771
69.5593
69.5421
69.5252
69.5088
69.4928
69.4773
69.4621
69.4477
69.4335
69.4213
69.4077
69.4006
69.3839
69.3925
61.5572
64.8333
68.2934
70.8684
72.582
73.6601
74.2532
74.5013
74.5235
74.4099
74.2194
73.9877
73.7367
73.4788
73.2224
72.9738
72.7372
72.514
72.3049
72.1099
71.9285
71.7598
71.6033
71.4582
71.3238
71.1992
71.0838
70.9768
70.8776
70.7854
70.6997
70.6198
70.5452
70.4753
70.4097
70.3481
70.2901
70.2355
70.1841
70.1357
70.0902
70.0474
70.0072
69.9693
69.9337
69.9
69.8682
69.8382
69.8097
69.7827
69.757
69.7326
69.7092
69.6869
69.6655
69.6449
69.6251
69.606
69.5875
69.5696
69.5522
69.5352
69.5187
69.5026
69.4868
69.4715
69.4566
69.4425
69.4285
69.4164
69.403
69.3961
69.3797
69.3883
61.9311
65.0903
68.341
70.8403
72.504
73.5506
74.1434
74.4097
74.4485
74.3421
74.15
73.9139
73.6612
73.4053
73.1527
72.9077
72.6733
72.4512
72.2428
72.0487
71.8684
71.7014
71.5467
71.4037
71.2714
71.1491
71.036
70.9313
70.8344
70.7445
70.661
70.5832
70.5106
70.4426
70.3788
70.3189
70.2625
70.2094
70.1594
70.1124
70.0681
70.0266
69.9874
69.9506
69.916
69.8833
69.8524
69.8232
69.7955
69.7692
69.7442
69.7204
69.6977
69.6759
69.6551
69.635
69.6157
69.5971
69.579
69.5615
69.5444
69.5278
69.5116
69.4958
69.4804
69.4654
69.4508
69.4369
69.4231
69.4113
69.3981
69.3913
69.3752
69.3839
62.478
65.3769
68.3351
70.7819
72.4305
73.4528
74.0276
74.2904
74.3354
74.2376
74.0506
73.814
73.5574
73.2981
73.0457
72.8054
72.5781
72.3632
72.1606
71.9708
71.7939
71.6298
71.4781
71.338
71.2088
71.0895
70.9794
70.8777
70.7836
70.6965
70.6157
70.5405
70.4704
70.4047
70.3431
70.2853
70.2308
70.1795
70.1312
70.0858
70.043
70.0029
69.9651
69.9295
69.8961
69.8645
69.8346
69.8064
69.7796
69.7542
69.73
69.707
69.685
69.6639
69.6436
69.6242
69.6054
69.5873
69.5697
69.5526
69.536
69.5198
69.504
69.4886
69.4735
69.4588
69.4445
69.4309
69.4174
69.4058
69.3929
69.3863
69.3705
69.3792
63.1845
65.6764
68.2415
70.6039
72.2523
73.2796
73.8741
74.15
74.1995
74.1028
73.9184
73.6853
73.4304
73.1698
72.9141
72.6719
72.4467
72.238
72.0445
71.8645
71.6964
71.5393
71.3932
71.2579
71.133
71.0178
70.9117
70.8139
70.7236
70.64
70.5626
70.4906
70.4235
70.3607
70.3017
70.2463
70.1942
70.1451
70.0988
70.0553
70.0144
69.9759
69.9397
69.9056
69.8736
69.8433
69.8147
69.7876
69.7619
69.7375
69.7142
69.6921
69.6709
69.6505
69.631
69.6122
69.5941
69.5766
69.5595
69.543
69.5269
69.5112
69.4958
69.4808
69.4661
69.4518
69.4378
69.4245
69.4113
69.3999
69.3873
69.3809
69.3654
69.3742
63.8163
65.8781
68.0027
70.2216
71.8791
72.9315
73.5712
73.9058
74.0042
73.9357
73.764
73.5353
73.2808
73.0198
72.7639
72.5209
72.2945
72.0856
71.895
71.7219
71.5638
71.418
71.2826
71.1567
71.0394
70.9306
70.8301
70.7374
70.6519
70.5729
70.4998
70.4318
70.3684
70.3091
70.2535
70.2011
70.1517
70.1052
70.0614
70.0202
69.9814
69.945
69.9107
69.8784
69.848
69.8193
69.7921
69.7664
69.742
69.7187
69.6966
69.6754
69.6552
69.6358
69.6171
69.5991
69.5817
69.5648
69.5484
69.5325
69.5169
69.5017
69.4869
69.4723
69.458
69.4441
69.4305
69.4176
69.4047
69.3937
69.3814
69.3751
69.3601
69.369
64.0344
65.7762
67.5136
69.5041
71.1468
72.2638
72.9887
73.4235
73.6209
73.6372
73.5307
73.346
73.1148
72.8624
72.6071
72.361
72.1309
71.9194
71.7277
71.5557
71.4014
71.2626
71.1374
71.0235
70.9182
70.8203
70.7292
70.6444
70.5656
70.4926
70.425
70.3621
70.3035
70.2485
70.1968
70.1482
70.1023
70.0589
70.0181
69.9796
69.9434
69.9094
69.8774
69.8472
69.8188
69.7919
69.7665
69.7424
69.7194
69.6976
69.6767
69.6568
69.6376
69.6193
69.6016
69.5845
69.5679
69.5518
69.5362
69.5209
69.506
69.4914
69.4771
69.4631
69.4493
69.4359
69.4227
69.4101
69.3977
69.3869
69.375
69.369
69.3544
69.3634
63.7429
65.2729
66.7395
68.4434
69.9712
71.1162
71.9405
72.5166
72.8721
73.0385
73.061
72.9821
72.8345
72.6434
72.4282
72.2027
71.9783
71.7639
71.5654
71.3862
71.2271
71.0872
70.9652
70.8582
70.7632
70.6776
70.5994
70.5268
70.4587
70.3948
70.335
70.2789
70.2262
70.1768
70.1301
70.086
70.0443
70.0049
69.9676
69.9325
69.8994
69.8683
69.839
69.8114
69.7853
69.7606
69.7373
69.715
69.6939
69.6736
69.6543
69.6358
69.618
69.6008
69.5842
69.5682
69.5526
69.5375
69.5227
69.5082
69.4941
69.4802
69.4665
69.4531
69.4399
69.427
69.4143
69.4021
69.3901
69.3797
69.3682
69.3625
69.3484
69.3576
63.0267
64.3906
65.6839
67.1286
68.4888
69.6048
70.4864
71.1721
71.6751
72.0096
72.2026
72.2832
72.2764
72.2038
72.0848
71.9355
71.7686
71.5934
71.4164
71.2435
71.0799
70.9302
70.7978
70.6835
70.5866
70.505
70.4359
70.3757
70.3214
70.2711
70.2234
70.1775
70.1333
70.0911
70.0508
70.0124
69.976
69.9414
69.9085
69.8775
69.8482
69.8206
69.7945
69.77
69.7467
69.7247
69.7037
69.6838
69.6647
69.6464
69.6289
69.612
69.5958
69.5801
69.5648
69.55
69.5356
69.5215
69.5077
69.4942
69.4809
69.4678
69.4549
69.4422
69.4296
69.4173
69.4051
69.3935
69.382
69.372
69.3609
69.3555
69.342
69.3514
62.0133
63.2364
64.4103
65.6644
66.8683
67.9225
68.8173
69.5655
70.1703
70.6363
70.9775
71.2126
71.3593
71.4335
71.4495
71.4196
71.3546
71.264
71.1561
71.0377
70.9142
70.7893
70.6662
70.5487
70.441
70.3466
70.2677
70.2039
70.1532
70.1126
70.0785
70.0474
70.0171
69.9868
69.9561
69.9254
69.8953
69.8663
69.8388
69.8127
69.7881
69.7648
69.7428
69.7219
69.7021
69.6832
69.6652
69.6479
69.6313
69.6154
69.6
69.5851
69.5706
69.5566
69.5429
69.5296
69.5165
69.5037
69.4911
69.4786
69.4663
69.4542
69.4421
69.4302
69.4184
69.4067
69.3952
69.3842
69.3732
69.3637
69.3531
69.3481
69.3351
69.3448
60.8465
61.9511
63.0249
64.1369
65.2117
66.1935
67.0717
67.8463
68.514
69.0731
69.5283
69.8891
70.1667
70.3724
70.5173
70.6119
70.665
70.6842
70.6755
70.6443
70.5954
70.5334
70.4625
70.386
70.3068
70.2267
70.1482
70.0748
70.01
69.9567
69.9159
69.8859
69.864
69.8469
69.8313
69.8149
69.797
69.7777
69.7576
69.7375
69.7182
69.6998
69.6825
69.666
69.6502
69.6351
69.6206
69.6065
69.5929
69.5797
69.5669
69.5543
69.542
69.53
69.5182
69.5066
69.4951
69.4837
69.4725
69.4613
69.4502
69.4391
69.428
69.417
69.4061
69.3952
69.3844
69.3741
69.3637
69.3547
69.3447
69.3401
69.3278
69.3379
59.6724
60.6682
61.645
62.6373
63.6022
64.5093
65.3511
66.1232
66.8196
67.4358
67.9712
68.4286
68.8126
69.1294
69.386
69.59
69.7489
69.8696
69.9583
70.0201
70.0592
70.0791
70.0826
70.0724
70.0511
70.0213
69.9854
69.9451
69.9015
69.8558
69.8101
69.7675
69.7312
69.7035
69.6842
69.6718
69.6638
69.6575
69.6508
69.6428
69.6333
69.6228
69.6118
69.6008
69.5899
69.5793
69.569
69.5587
69.5487
69.5387
69.5289
69.5191
69.5094
69.4997
69.4901
69.4805
69.4709
69.4612
69.4516
69.4419
69.4321
69.4223
69.4124
69.4025
69.3925
69.3826
69.3727
69.3631
69.3534
69.3451
69.3357
69.3316
69.3199
69.3306
58.7143
59.6021
60.4795
61.3613
62.2248
63.0538
63.8424
64.5857
65.2778
65.9135
66.4898
67.006
67.4625
67.8615
68.2062
68.5006
68.7495
68.9579
69.1307
69.2728
69.3885
69.4816
69.5552
69.6117
69.6527
69.68
69.6949
69.6993
69.6951
69.6843
69.6687
69.6497
69.6279
69.6044
69.5813
69.5609
69.5454
69.5359
69.5315
69.5306
69.5309
69.5306
69.5289
69.5258
69.5214
69.5164
69.5109
69.5051
69.4991
69.4929
69.4865
69.4799
69.4731
69.4661
69.459
69.4517
69.4442
69.4365
69.4286
69.4206
69.4124
69.404
69.3954
69.3867
69.3779
69.3689
69.36
69.3512
69.3423
69.3347
69.326
69.3225
69.3116
69.323
58.0892
58.8675
59.6429
60.4193
61.1856
61.9332
62.6573
63.3533
64.016
64.6409
65.2242
65.7634
66.257
66.7048
67.1071
67.4654
67.7821
68.0597
68.3014
68.5105
68.6903
68.8441
68.975
69.0856
69.1784
69.2553
69.3178
69.3672
69.405
69.4323
69.4508
69.4621
69.4678
69.4693
69.4673
69.4623
69.4549
69.4464
69.4386
69.4335
69.4321
69.4341
69.4382
69.4426
69.4461
69.448
69.4484
69.4476
69.446
69.4438
69.4411
69.4379
69.4342
69.4301
69.4256
69.4208
69.4156
69.41
69.4041
69.3978
69.3913
69.3844
69.3773
69.3699
69.3622
69.3544
69.3464
69.3386
69.3306
69.3237
69.3158
69.3129
69.3027
69.315
57.7912
58.461
59.1336
59.8078
60.4788
61.142
61.7935
62.4292
63.045
63.637
64.2017
64.736
65.2374
65.7043
66.1356
66.531
66.8909
67.2163
67.5085
67.7694
68.0011
68.2058
68.3859
68.5435
68.681
68.8005
68.9037
68.9925
69.0683
69.1324
69.1857
69.2292
69.264
69.2913
69.3122
69.328
69.3395
69.3473
69.3519
69.3535
69.3534
69.3533
69.3549
69.359
69.3653
69.3727
69.3796
69.3851
69.389
69.3915
69.3928
69.3932
69.3928
69.3918
69.3902
69.3879
69.3851
69.3818
69.378
69.3736
69.3689
69.3636
69.358
69.352
69.3456
69.339
69.3321
69.3252
69.3181
69.312
69.3048
69.3026
69.2932
69.3067
57.7789
58.3443
58.9163
59.4923
60.0706
60.6486
61.2231
61.7908
62.3486
62.8931
63.4212
63.93
64.4169
64.8795
65.3162
65.7255
66.1066
66.4592
66.7835
67.0799
67.3494
67.5933
67.8128
68.0095
68.1851
68.3413
68.4797
68.602
68.7097
68.8045
68.8877
68.9604
69.0235
69.0778
69.1239
69.1625
69.1941
69.2199
69.2407
69.2571
69.2697
69.2789
69.2852
69.2898
69.2943
69.3002
69.308
69.3171
69.3262
69.3343
69.3407
69.3454
69.3488
69.3511
69.3525
69.353
69.3528
69.3519
69.3502
69.3479
69.345
69.3415
69.3375
69.333
69.3279
69.3226
69.3168
69.311
69.3048
69.2995
69.2932
69.2918
69.2832
69.2981
57.9939
58.4628
58.9405
59.4248
59.9153
60.4103
60.9073
61.404
61.8978
62.3863
62.8667
63.3365
63.7931
64.2344
64.6581
65.0625
65.4461
65.8078
66.1468
66.4629
66.7559
67.0261
67.274
67.5005
67.7065
67.8931
68.0614
68.2127
68.3485
68.4699
68.5784
68.6753
68.7618
68.8388
68.9073
68.9679
69.0208
69.0666
69.1054
69.138
69.1651
69.1874
69.2055
69.2199
69.2309
69.2395
69.2468
69.2544
69.2632
69.2732
69.2836
69.2932
69.3013
69.3076
69.3124
69.316
69.3185
69.3201
69.3208
69.3206
69.3197
69.3181
69.3158
69.3128
69.3092
69.3052
69.3006
69.2959
69.2907
69.2864
69.2808
69.2803
69.2724
69.2892
58.3776
58.7608
59.1534
59.5548
59.9646
60.3817
60.8044
61.2309
61.6595
62.0882
62.5149
62.9376
63.354
63.762
64.1597
64.5451
64.9164
65.2723
65.6114
65.9327
66.2357
66.5197
66.7848
67.0309
67.2584
67.4678
67.6598
67.835
67.9946
68.1393
68.2703
68.3887
68.4956
68.5919
68.6788
68.7572
68.8277
68.891
68.9474
68.997
69.0401
69.0769
69.1081
69.1342
69.156
69.1739
69.1883
69.1999
69.2095
69.2185
69.228
69.2386
69.2496
69.26
69.269
69.2764
69.2821
69.2864
69.2896
69.2917
69.293
69.2933
69.2927
69.2914