/*--------------------------------*- C++ -*----------------------------------*\
| =========                 |                                                 |
| \\      /  F ield         | OpenFOAM: The Open Source CFD Toolbox           |
|  \\    /   O peration     | Version:  5.x                                   |
|   \\  /    A nd           | Web:      www.OpenFOAM.org                      |
|    \\/     M anipulation  |                                                 |
\*---------------------------------------------------------------------------*/
FoamFile
{
    version     2.0;
    format      ascii;
    class       volScalarField;
    location    "600";
    object      p;
}
// * * * * * * * * * * * * * * * * * * * * * * * * * * * * * * * * * * * * * //

dimensions      [0 2 -2 0 0 0 0];

internalField   nonuniform List<scalar> 
11040
(
-0.00399022
-99.74
-337.073
-401.183
-422.368
-435.344
-436.798
-426.5
-407.831
-381.899
-348.216
-296.471
-246.659
-211.181
-186.388
-159.959
-133.115
-107.759
-83.7548
-60.5873
-38.1681
-18.8024
-2.61966
12.5254
26.7121
39.9641
52.277
63.6389
73.9883
83.2255
91.2379
97.9055
103.173
107.107
109.91
111.836
112.625
112.046
111.719
115.208
115.268
36.5733
-59.9155
-212.483
-290.478
-331.387
-361.459
-379.292
-383.474
-376.492
-360.054
-334.369
-291.478
-246.304
-211.471
-186.133
-160.013
-133.477
-108.253
-84.3283
-61.2247
-38.8466
-19.5287
-3.31556
11.8592
26.0779
39.3676
51.7255
63.1389
73.5486
82.8572
90.9463
97.6943
103.041
107.036
109.874
111.849
112.707
112.11
111.37
113.833
113.371
61.2513
-32.5045
-142.364
-234.019
-288.799
-325.032
-347.623
-356.29
-353.302
-340.641
-319.327
-283.742
-242.969
-208.962
-183.521
-158.394
-132.622
-107.793
-84.1406
-61.2567
-39.0379
-19.7992
-3.62872
11.5153
25.715
38.9976
51.3606
62.7891
73.2256
82.5742
90.7162
97.529
102.942
106.995
109.873
111.886
112.809
112.267
111.384
113.047
112.235
78.6312
-5.14278
-87.383
-171.038
-229.428
-270.862
-300.454
-317.072
-321.368
-315.175
-300.017
-272.178
-236.927
-204.868
-179.753
-155.737
-130.954
-106.721
-83.4946
-60.9544
-38.9911
-19.9189
-3.84704
11.2301
25.3835
38.6372
50.9887
62.4208
72.8762
82.261
90.4567
97.3385
102.828
106.955
109.886
111.922
112.883
112.401
111.471
112.651
112.007
92.3244
20.5619
-43.3289
-114.931
-173.767
-218.799
-253.053
-275.644
-286.313
-286.346
-277.34
-257.136
-228.285
-199.193
-174.824
-151.958
-128.395
-104.995
-82.3621
-60.3087
-38.7295
-19.9222
-4.01271
10.9434
25.0045
38.1911
50.5005
61.9127
72.3713
81.7844
90.035
96.9982
102.589
106.825
109.842
111.915
112.913
112.52
111.588
112.59
112.45
102.743
42.9538
-8.03772
-67.4319
-121.973
-167.096
-203.668
-230.743
-247.189
-253.454
-250.819
-238.18
-216.312
-191.241
-168.363
-146.855
-124.764
-102.46
-80.6091
-59.1945
-38.1369
-19.6945
-4.0295
10.7325
24.6382
37.7022
49.9213
61.2734
71.7031
81.1219
89.4161
96.4638
102.176
106.552
109.698
111.843
112.908
112.669
111.825
112.813
113.222
110.632
61.6468
20.2342
-28.315
-76.0049
-118.364
-154.815
-184.216
-204.95
-216.693
-220.16
-214.759
-200.176
-180.217
-159.88
-140.157
-119.824
-98.9203
-78.0921
-57.5012
-37.1224
-19.1644
-3.84166
10.6427
24.3189
37.1929
49.2601
60.4976
70.8521
80.2402
88.555
95.6802
101.524
106.072
109.395
111.668
112.862
112.869
112.247
113.291
114.238
116.573
76.7305
42.7921
3.35495
-36.8104
-74.5069
-108.74
-138.277
-161.395
-177.23
-185.912
-186.969
-179.466
-165.372
-148.67
-131.378
-113.186
-94.0591
-74.5729
-55.0471
-35.5493
-18.2302
-3.36903
10.7363
24.0935
36.6949
48.5329
59.584
69.7986
79.101
87.3947
94.5736
100.549
105.292
108.842
111.325
112.747
113.116
112.87
114.088
115.46
120.992
88.6108
60.6646
28.6862
-4.39726
-36.6148
-67.1751
-94.9834
-118.512
-136.684
-149.189
-155.488
-154.305
-146.257
-134.056
-119.944
-104.374
-87.4616
-69.7149
-51.5658
-33.2028
-16.714
-2.46089
11.1361
24.0613
36.2897
47.8055
58.5824
68.5743
77.7149
85.9213
93.1034
99.1814
104.122
107.941
110.723
112.501
113.378
113.677
115.235
116.857
124.205
97.8113
74.7266
48.7904
21.8719
-4.9079
-31.1153
-55.9566
-78.241
-96.9676
-111.613
-121.578
-125.455
-122.982
-115.662
-105.366
-92.923
-78.6767
-63.1133
-46.7224
-29.8081
-14.3827
-0.914902
12.0141
24.3687
36.105
47.1921
57.5971
67.2747
76.1666
84.204
91.3148
97.4356
102.538
106.631
109.776
112.026
113.548
114.557
116.611
118.41
126.473
104.86
85.7387
64.6738
42.8979
21.0204
-0.809874
-22.1163
-42.0572
-59.8696
-75.0287
-86.9591
-94.3098
-96.3513
-93.6507
-87.4335
-78.498
-67.3112
-54.3578
-40.1384
-25.039
-10.9574
1.51259
13.5835
25.2015
36.3044
46.8415
56.7687
66.038
74.5957
82.3838
89.3461
95.4362
100.637
104.965
108.477
111.24
113.459
115.259
117.89
119.98
128.021
110.232
94.3531
77.2071
59.6235
41.9221
24.0841
6.34822
-10.7482
-26.6945
-41.0889
-53.4566
-62.6461
-67.7839
-68.8492
-66.4428
-61.0769
-53.1622
-43.1353
-31.4583
-18.5447
-6.11561
5.11292
16.1084
26.7968
37.0997
46.9449
56.2733
65.0317
73.1679
80.6307
87.3751
93.3677
98.6018
103.103
106.93
110.154
112.986
115.51
118.643
121.201
129.043
114.33
101.115
87.1219
72.9154
58.6548
44.2434
29.7726
15.5552
1.91033
-10.9188
-22.596
-32.2294
-39.0116
-42.6459
-43.2905
-41.1272
-36.384
-29.3744
-20.465
-10.032
0.456355
10.1963
19.8899
29.4419
38.7594
47.7508
56.3409
64.4694
72.0831
79.1346
85.5858
91.4117
96.611
101.213
105.271
108.85
112.129
115.185
118.61
121.65
129.699
117.483
106.466
95.0146
83.5152
72.0389
60.4633
48.8007
37.2214
25.9092
14.988
4.65884
-4.43665
-11.6562
-16.6414
-19.3162
-19.625
-17.5993
-13.3892
-7.22512
0.608837
8.96408
17.015
25.2091
33.4339
41.5854
49.5562
57.2582
64.6237
71.5971
78.132
84.1932
89.7595
94.8303
99.4322
103.605
107.398
110.939
114.3
117.801
121.074
130.113
119.942
110.749
101.353
92.0235
82.7814
73.5044
64.1684
54.8602
45.6769
36.6749
27.9513
19.9394
13.1047
7.7583
4.05412
2.15842
2.17156
4.08606
7.80907
13.173
19.3743
25.6454
32.2223
38.9866
45.8311
52.6408
59.3186
65.7907
71.9995
77.8984
83.4527
88.6401
93.4564
97.9199
102.054
105.889
109.503
112.949
116.374
119.611
130.395
121.913
114.237
106.51
98.9194
91.4624
84.0271
76.5754
69.1483
61.7933
54.5288
47.3921
40.6621
34.6567
29.6057
25.6566
22.9921
21.7633
22.0469
23.8517
27.1151
31.3489
35.906
40.875
46.1462
51.6198
57.1845
62.7433
68.2211
73.5584
78.7075
83.6326
88.3091
92.7269
96.8941
100.818
104.509
108.011
111.353
114.596
117.656
130.657
123.58
117.171
110.803
104.613
98.5815
92.6118
86.6637
80.7542
74.9045
69.1137
63.3917
57.9112
52.8814
48.4593
44.7568
41.9263
40.1139
39.4232
39.9151
41.5959
44.2192
47.2872
50.804
54.6798
58.8303
63.1587
67.5777
72.0171
76.42
80.7397
84.9394
88.9913
92.8795
96.6021
100.155
103.534
106.762
109.85
112.816
115.622
130.893
124.93
119.523
114.206
109.089
104.142
99.2797
94.4662
89.7072
85.0118
80.3724
75.7894
71.3716
67.2533
63.5382
60.304
57.6643
55.7364
54.6167
54.3779
55.0569
56.5565
58.5146
60.8991
63.6437
66.6826
69.9382
73.3381
76.8223
80.3404
83.8498
87.3152
90.7086
94.0104
97.2123
100.303
103.27
106.123
108.864
111.492
113.992
131.089
125.987
121.354
116.841
112.537
108.404
104.37
100.402
96.4999
92.6674
88.8942
85.1767
81.5881
78.218
75.1338
72.3897
70.0666
68.2523
67.0244
66.4491
66.5695
67.3669
68.5801
70.1682
72.0854
74.2825
76.6995
79.2796
81.9741
84.7408
87.543
90.3492
93.1331
95.8747
98.5625
101.182
103.718
106.173
108.543
110.82
112.997
131.271
126.851
122.832
118.947
115.272
111.765
108.362
105.035
101.783
98.6038
95.4884
92.4318
89.485
86.7103
84.1523
81.8483
79.856
78.2394
77.0574
76.3637
76.1976
76.5765
77.3095
78.3585
79.6932
81.277
83.0644
85.0121
87.0817
89.2394
91.4545
93.7003
95.9536
98.1958
100.415
102.595
104.723
106.795
108.807
110.748
112.614
131.448
127.58
124.058
120.678
117.501
114.488
111.581
108.756
106.008
103.337
100.732
98.1888
95.7441
93.4425
91.3143
89.385
87.6963
86.2944
85.2229
84.5233
84.2275
84.3668
84.7975
85.4883
86.42
87.5648
88.8886
90.3585
91.945
93.6213
95.3627
97.1471
98.9551
100.77
102.581
104.374
106.135
107.861
109.546
111.179
112.757
131.622
128.209
125.098
122.131
119.36
116.744
114.234
111.808
109.462
107.192
104.991
102.853
100.806
98.8821
97.103
95.4857
94.0609
92.862
91.9209
91.2685
90.9295
90.9377
91.1816
91.6374
92.2927
93.1266
94.1129
95.2266
96.4453
97.7478
99.1147
100.528
101.972
103.433
104.9
106.362
107.808
109.232
110.629
111.991
113.313
131.795
128.762
125.995
123.37
120.934
118.645
116.459
114.357
112.335
110.389
108.512
106.699
104.971
103.351
101.856
100.496
99.2952
98.2768
97.4643
96.8806
96.5437
96.4853
96.616
96.9184
97.385
97.9993
98.741
99.591
100.532
101.548
102.622
103.742
104.894
106.067
107.251
108.438
109.618
110.787
111.939
113.067
114.167
131.964
129.253
126.777
124.442
122.285
120.267
118.349
116.515
114.759
113.078
111.465
109.916
108.446
107.074
105.81
104.664
103.65
102.787
102.093
101.583
101.27
101.182
101.246
101.448
101.786
102.245
102.809
103.464
104.196
104.992
105.841
106.731
107.651
108.593
109.549
110.511
111.472
112.428
113.375
114.306
115.216
132.129
129.693
127.467
125.377
123.456
121.667
119.974
118.363
116.828
115.366
113.97
112.638
111.381
110.211
109.138
108.168
107.311
106.581
105.99
105.551
105.272
105.175
105.2
105.338
105.586
105.935
106.37
106.88
107.455
108.084
108.758
109.468
110.206
110.964
111.737
112.518
113.3
114.082
114.859
115.626
116.378
132.29
130.09
128.079
126.2
124.48
122.885
121.382
119.959
118.611
117.332
116.118
114.966
113.884
112.882
111.967
111.142
110.416
109.798
109.298
108.922
108.679
108.585
108.588
108.684
108.871
109.14
109.48
109.882
110.338
110.84
111.379
111.949
112.543
113.156
113.783
114.418
115.057
115.697
116.335
116.967
117.588
132.444
130.449
128.625
126.928
125.381
123.952
122.612
121.349
120.158
119.034
117.973
116.972
116.036
115.175
114.391
113.688
113.072
112.548
112.124
111.806
111.597
111.511
111.504
111.572
111.716
111.927
112.197
112.518
112.883
113.286
113.721
114.182
114.663
115.161
115.672
116.19
116.713
117.239
117.763
118.285
118.798
132.592
130.776
129.115
127.575
126.178
124.893
123.692
122.567
121.51
120.518
119.587
118.713
117.901
117.157
116.484
115.883
115.358
114.914
114.556
114.287
114.109
114.034
114.022
114.073
114.186
114.355
114.572
114.83
115.126
115.453
115.806
116.182
116.575
116.981
117.399
117.825
118.254
118.687
119.12
119.551
119.976
132.733
131.073
129.554
128.153
126.886
125.725
124.646
123.638
122.697
121.819
120.998
120.233
119.526
118.882
118.301
117.786
117.339
116.962
116.659
116.432
116.283
116.219
116.206
116.245
116.336
116.473
116.65
116.861
117.103
117.371
117.66
117.968
118.29
118.625
118.969
119.319
119.674
120.031
120.39
120.748
121.101
132.867
131.343
129.95
128.67
127.517
126.464
125.49
124.585
123.745
122.964
122.238
121.566
120.949
120.389
119.888
119.446
119.063
118.744
118.488
118.297
118.172
118.119
118.107
118.139
118.213
118.327
118.473
118.647
118.846
119.067
119.306
119.56
119.827
120.103
120.388
120.678
120.972
121.269
121.567
121.865
122.159
132.993
131.589
130.307
129.133
128.08
127.122
126.24
125.425
124.671
123.975
123.332
122.74
122.2
121.713
121.279
120.898
120.572
120.3
120.084
119.925
119.821
119.778
119.768
119.794
119.857
119.952
120.074
120.219
120.385
120.569
120.768
120.979
121.2
121.43
121.667
121.908
122.153
122.4
122.649
122.898
123.144
133.111
131.814
130.629
129.549
128.583
127.709
126.907
126.171
125.493
124.871
124.3
123.777
123.303
122.878
122.503
122.175
121.896
121.665
121.483
121.35
121.265
121.231
121.224
121.247
121.3
121.381
121.484
121.606
121.745
121.899
122.066
122.242
122.427
122.619
122.817
123.019
123.224
123.431
123.639
123.847
124.053
133.222
132.018
130.92
129.922
129.034
128.233
127.502
126.834
126.224
125.666
125.158
124.696
124.279
123.908
123.583
123.301
123.062
122.866
122.713
122.603
122.533
122.507
122.502
122.523
122.57
122.639
122.727
122.831
122.948
123.078
123.218
123.367
123.522
123.684
123.85
124.019
124.191
124.365
124.539
124.715
124.887
133.325
132.203
131.181
130.256
129.436
128.7
128.032
127.425
126.873
126.373
125.92
125.51
125.144
124.82
124.538
124.295
124.091
123.925
123.797
123.706
123.65
123.63
123.629
123.648
123.69
123.75
123.825
123.914
124.014
124.124
124.243
124.369
124.5
124.636
124.776
124.918
125.063
125.209
125.357
125.505
125.65
133.421
132.371
131.416
130.556
129.796
129.116
128.504
127.95
127.451
127.001
126.596
126.233
125.911
125.628
125.383
125.174
125.001
124.861
124.754
124.679
124.635
124.621
124.622
124.641
124.678
124.731
124.796
124.873
124.959
125.053
125.154
125.26
125.371
125.487
125.605
125.725
125.847
125.971
126.095
126.22
126.343
133.509
132.522
131.626
130.823
130.116
129.487
128.923
128.417
127.964
127.559
127.197
126.875
126.591
126.344
126.132
125.953
125.806
125.689
125.6
125.539
125.505
125.497
125.5
125.519
125.552
125.599
125.657
125.723
125.797
125.878
125.964
126.055
126.149
126.247
126.347
126.45
126.553
126.658
126.763
126.869
126.972
133.589
132.657
131.814
131.06
130.4
129.815
129.295
128.831
128.419
128.053
127.729
127.444
127.194
126.979
126.796
126.643
126.519
126.421
126.348
126.3
126.274
126.27
126.276
126.294
126.325
126.367
126.417
126.475
126.54
126.609
126.683
126.761
126.842
126.925
127.01
127.097
127.185
127.273
127.362
127.452
127.539
133.662
132.778
131.98
131.27
130.65
130.105
129.623
129.197
128.821
128.49
128.2
127.947
127.728
127.541
127.384
127.254
127.149
127.068
127.01
126.972
126.954
126.954
126.962
126.98
127.01
127.048
127.093
127.144
127.2
127.26
127.324
127.391
127.46
127.531
127.604
127.678
127.752
127.827
127.903
127.979
128.053
133.728
132.885
132.125
131.453
130.869
130.359
129.911
129.518
129.174
128.875
128.615
128.391
128.199
128.037
127.903
127.793
127.706
127.64
127.594
127.565
127.553
127.557
127.567
127.585
127.613
127.648
127.688
127.733
127.782
127.835
127.89
127.948
128.007
128.068
128.13
128.193
128.257
128.32
128.384
128.449
128.511
133.787
132.978
132.252
131.612
131.059
130.578
130.16
129.797
129.482
129.211
128.979
128.78
128.613
128.473
128.359
128.267
128.196
128.144
128.109
128.089
128.083
128.091
128.103
128.122
128.149
128.181
128.218
128.258
128.302
128.348
128.397
128.447
128.498
128.55
128.603
128.657
128.711
128.765
128.819
128.874
128.927
133.839
133.057
132.359
131.747
131.22
130.766
130.374
130.037
129.748
129.503
129.294
129.119
128.974
128.854
128.758
128.683
128.626
128.585
128.56
128.547
128.546
128.556
128.57
128.589
128.615
128.645
128.678
128.715
128.754
128.794
128.837
128.88
128.925
128.97
129.016
129.062
129.108
129.154
129.2
129.246
129.291
133.883
133.124
132.449
131.859
131.355
130.923
130.554
130.24
129.974
129.751
129.565
129.411
129.285
129.185
129.105
129.045
129.001
128.972
128.956
128.951
128.956
128.97
128.986
129.007
129.033
129.062
129.094
129.128
129.163
129.2
129.237
129.276
129.315
129.354
129.393
129.432
129.471
129.511
129.55
129.589
129.626
133.921
133.178
132.52
131.948
131.462
131.049
130.7
130.407
130.162
129.959
129.793
129.659
129.551
129.467
129.403
129.355
129.323
129.303
129.294
129.295
129.303
129.319
129.337
129.358
129.383
129.411
129.44
129.471
129.503
129.536
129.57
129.604
129.638
129.672
129.706
129.74
129.774
129.808
129.841
129.874
129.906
133.951
133.219
132.574
132.016
131.544
131.146
130.814
130.538
130.312
130.128
129.98
129.863
129.772
129.704
129.655
129.621
129.601
129.593
129.594
129.603
129.618
129.639
129.66
129.685
129.711
129.74
129.769
129.799
129.83
129.861
129.891
129.922
129.952
129.982
130.012
130.041
130.07
130.098
130.126
130.154
130.18
133.975
133.249
132.612
132.064
131.602
131.217
130.898
130.637
130.426
130.258
130.127
130.026
129.951
129.897
129.86
129.837
129.826
129.824
129.829
129.842
129.859
129.882
129.904
129.929
129.956
129.983
130.011
130.039
130.068
130.096
130.124
130.152
130.179
130.206
130.232
130.258
130.284
130.309
130.333
130.357
130.38
133.992
133.267
132.633
132.091
131.637
131.261
130.953
130.705
130.507
130.354
130.237
130.15
130.09
130.051
130.029
130.022
130.026
130.038
130.057
130.081
130.107
130.137
130.165
130.195
130.225
130.255
130.285
130.314
130.343
130.37
130.397
130.423
130.448
130.472
130.496
130.518
130.54
130.561
130.581
130.601
130.62
134
133.264
132.625
132.082
131.631
131.261
130.964
130.727
130.544
130.405
130.302
130.23
130.181
130.152
130.139
130.137
130.145
130.161
130.182
130.208
130.237
130.267
130.298
130.328
130.358
130.388
130.417
130.446
130.473
130.5
130.525
130.55
130.573
130.596
130.617
130.638
130.657
130.676
130.694
130.711
130.728
133.998
133.243
132.592
132.041
131.587
131.22
130.929
130.702
130.531
130.406
130.321
130.267
130.24
130.234
130.245
130.269
130.302
130.341
130.382
130.424
130.465
130.506
130.545
130.582
130.619
130.653
130.686
130.716
130.746
130.773
130.799
130.823
130.845
130.867
130.887
130.905
130.923
130.939
130.955
130.97
130.984
125.733
133.169
139.069
142.362
144.217
145.366
145.925
146.063
145.937
145.639
145.236
144.773
144.281
143.78
143.285
142.804
142.343
141.904
141.49
141.1
140.734
140.392
140.072
139.774
139.497
139.238
138.997
138.773
138.564
138.37
138.189
138.02
137.862
137.714
137.575
137.444
137.322
137.206
137.097
136.995
136.898
136.807
136.722
136.641
136.565
136.493
136.426
136.362
136.301
136.244
136.189
136.137
136.088
136.04
135.995
135.952
135.91
135.87
135.831
135.793
135.757
135.721
135.687
135.653
135.62
135.588
135.557
135.527
135.498
135.471
135.443
135.426
135.391
135.404
124.723
132.719
138.885
142.411
144.364
145.517
146.051
146.159
146.004
145.682
145.258
144.779
144.273
143.762
143.259
142.773
142.307
141.866
141.45
141.059
140.693
140.35
140.031
139.734
139.457
139.199
138.96
138.737
138.529
138.336
138.156
137.989
137.832
137.685
137.547
137.418
137.296
137.182
137.074
136.973
136.877
136.787
136.702
136.622
136.547
136.476
136.409
136.346
136.286
136.229
136.175
136.124
136.075
136.028
135.983
135.94
135.899
135.859
135.821
135.784
135.747
135.712
135.678
135.645
135.612
135.58
135.55
135.52
135.491
135.465
135.436
135.42
135.385
135.398
123.972
131.529
138.347
142.326
144.46
145.66
146.189
146.271
146.084
145.732
145.283
144.784
144.263
143.74
143.228
142.735
142.265
141.821
141.402
141.01
140.644
140.302
139.984
139.687
139.411
139.155
138.917
138.695
138.489
138.298
138.12
137.953
137.798
137.653
137.517
137.389
137.268
137.155
137.048
136.948
136.853
136.764
136.681
136.602
136.527
136.457
136.391
136.329
136.269
136.213
136.16
136.109
136.061
136.015
135.97
135.928
135.887
135.848
135.81
135.773
135.737
135.703
135.669
135.636
135.604
135.572
135.542
135.512
135.483
135.458
135.43
135.413
135.379
135.391
123.574
130.506
137.646
142.057
144.454
145.749
146.3
146.377
146.167
145.786
145.31
144.788
144.249
143.712
143.191
142.69
142.215
141.767
141.347
140.954
140.587
140.246
139.928
139.633
139.359
139.104
138.867
138.648
138.444
138.254
138.078
137.913
137.76
137.616
137.482
137.356
137.237
137.125
137.02
136.921
136.827
136.739
136.657
136.579
136.506
136.437
136.371
136.31
136.251
136.196
136.143
136.093
136.046
136
135.957
135.915
135.875
135.836
135.798
135.762
135.727
135.692
135.659
135.626
135.595
135.564
135.533
135.504
135.476
135.45
135.422
135.406
135.372
135.385
123.691
130.118
137.071
141.653
144.312
145.751
146.353
146.438
146.221
145.824
145.329
144.786
144.228
143.676
143.143
142.635
142.154
141.702
141.28
140.886
140.52
140.179
139.863
139.569
139.297
139.045
138.81
138.593
138.391
138.204
138.03
137.868
137.717
137.575
137.443
137.318
137.201
137.091
136.988
136.89
136.798
136.712
136.63
136.554
136.482
136.414
136.35
136.289
136.232
136.177
136.125
136.076
136.029
135.985
135.942
135.9
135.861
135.823
135.786
135.75
135.715
135.681
135.648
135.616
135.585
135.554
135.524
135.496
135.467
135.442
135.415
135.399
135.365
135.378
124.067
130.224
136.785
141.306
144.078
145.64
146.323
146.439
146.22
145.814
145.31
144.757
144.188
143.625
143.082
142.565
142.079
141.624
141.2
140.806
140.44
140.101
139.786
139.495
139.225
138.975
138.744
138.529
138.331
138.146
137.975
137.816
137.667
137.528
137.398
137.276
137.161
137.053
136.951
136.856
136.766
136.681
136.601
136.526
136.455
136.388
136.326
136.266
136.21
136.156
136.106
136.057
136.011
135.967
135.925
135.885
135.846
135.808
135.772
135.737
135.703
135.67
135.637
135.605
135.574
135.544
135.515
135.486
135.458
135.434
135.407
135.391
135.358
135.37
124.565
130.588
136.739
141.135
143.871
145.452
146.195
146.361
146.159
145.748
145.234
144.674
144.102
143.539
142.993
142.473
141.984
141.527
141.102
140.708
140.344
140.007
139.695
139.407
139.14
138.894
138.666
138.455
138.26
138.079
137.912
137.756
137.61
137.474
137.347
137.228
137.116
137.01
136.911
136.817
136.729
136.646
136.568
136.495
136.426
136.36
136.299
136.241
136.186
136.134
136.084
136.037
135.992
135.949
135.908
135.868
135.83
135.793
135.757
135.723
135.689
135.657
135.625
135.594
135.563
135.534
135.504
135.477
135.449
135.425
135.398
135.382
135.35
135.362
125.244
131.014
136.743
141.05
143.732
145.261
146.003
146.2
146.025
145.625
145.108
144.537
143.957
143.392
142.852
142.339
141.855
141.402
140.98
140.588
140.227
139.893
139.585
139.302
139.04
138.798
138.575
138.368
138.178
138.001
137.838
137.686
137.545
137.412
137.289
137.173
137.064
136.961
136.864
136.773
136.687
136.607
136.531
136.46
136.392
136.329
136.269
136.213
136.159
136.108
136.06
136.014
135.97
135.928
135.888
135.849
135.812
135.776
135.742
135.708
135.675
135.643
135.612
135.581
135.551
135.522
135.494
135.466
135.439
135.415
135.389
135.373
135.341
135.354
126.216
131.446
136.605
140.847
143.543
145.06
145.788
145.985
145.822
145.435
144.927
144.356
143.769
143.195
142.651
142.141
141.668
141.228
140.818
140.436
140.082
139.755
139.453
139.175
138.919
138.684
138.466
138.266
138.081
137.91
137.752
137.605
137.468
137.341
137.221
137.109
137.004
136.904
136.811
136.723
136.64
136.562
136.489
136.42
136.355
136.294
136.236
136.181
136.129
136.08
136.034
135.989
135.946
135.906
135.867
135.829
135.793
135.758
135.724
135.691
135.659
135.628
135.598
135.568
135.538
135.51
135.482
135.455
135.428
135.405
135.379
135.364
135.332
135.345
127.368
131.812
136.239
140.353
143.102
144.668
145.46
145.706
145.57
145.191
144.685
144.12
143.536
142.963
142.414
141.899
141.425
140.991
140.594
140.229
139.893
139.58
139.29
139.022
138.774
138.547
138.337
138.144
137.966
137.802
137.651
137.51
137.379
137.257
137.143
137.036
136.935
136.84
136.75
136.666
136.586
136.511
136.441
136.375
136.313
136.254
136.198
136.146
136.096
136.049
136.004
135.961
135.92
135.881
135.843
135.807
135.772
135.738
135.705
135.673
135.642
135.612
135.582
135.553
135.524
135.497
135.469
135.443
135.417
135.394
135.368
135.353
135.323
135.335
128.182
131.855
135.497
139.36
142.195
143.879
144.796
145.179
145.159
144.86
144.395
143.845
143.265
142.691
142.141
141.626
141.151
140.717
140.322
139.965
139.642
139.348
139.077
138.827
138.595
138.38
138.182
137.999
137.83
137.675
137.531
137.398
137.275
137.159
137.051
136.95
136.855
136.764
136.68
136.6
136.524
136.453
136.387
136.324
136.265
136.209
136.156
136.106
136.059
136.014
135.971
135.93
135.891
135.853
135.817
135.782
135.749
135.716
135.684
135.654
135.624
135.594
135.565
135.537
135.51
135.482
135.456
135.43
135.405
135.382
135.357
135.343
135.313
135.325
128.095
131.226
134.22
137.669
140.502
142.356
143.491
144.116
144.325
144.22
143.905
143.462
142.948
142.403
141.86
141.341
140.86
140.42
140.023
139.666
139.348
139.063
138.806
138.575
138.364
138.169
137.989
137.822
137.666
137.522
137.389
137.266
137.152
137.045
136.944
136.85
136.761
136.677
136.598
136.523
136.453
136.386
136.324
136.265
136.21
136.158
136.108
136.061
136.017
135.974
135.934
135.895
135.858
135.822
135.788
135.755
135.723
135.692
135.662
135.632
135.603
135.575
135.547
135.52
135.493
135.467
135.441
135.416
135.391
135.369
135.345
135.331
135.302
135.315
127.066
129.834
132.399
135.347
137.98
139.917
141.272
142.189
142.726
142.936
142.897
142.682
142.35
141.945
141.5
141.041
140.585
140.148
139.741
139.371
139.042
138.751
138.497
138.274
138.077
137.902
137.743
137.598
137.463
137.337
137.219
137.109
137.006
136.909
136.818
136.733
136.652
136.575
136.503
136.435
136.37
136.309
136.252
136.198
136.147
136.099
136.053
136.01
135.969
135.929
135.892
135.856
135.821
135.788
135.756
135.725
135.694
135.665
135.636
135.608
135.581
135.554
135.528
135.501
135.476
135.45
135.425
135.401
135.377
135.356
135.332
135.319
135.29
135.304
125.299
127.774
130.072
132.594
134.955
136.874
138.364
139.502
140.321
140.848
141.133
141.227
141.175
141.012
140.768
140.471
140.142
139.799
139.453
139.113
138.788
138.485
138.212
137.972
137.766
137.591
137.443
137.316
137.204
137.102
137.006
136.916
136.83
136.748
136.669
136.594
136.523
136.456
136.392
136.331
136.274
136.22
136.168
136.12
136.075
136.031
135.99
135.951
135.914
135.878
135.844
135.811
135.78
135.749
135.719
135.691
135.663
135.635
135.608
135.582
135.556
135.531
135.506
135.481
135.456
135.432
135.408
135.385
135.362
135.341
135.319
135.306
135.278
135.292
123.042
125.271
127.383
129.603
131.719
133.56
135.106
136.385
137.409
138.188
138.748
139.125
139.351
139.456
139.464
139.397
139.271
139.1
138.898
138.676
138.442
138.205
137.969
137.739
137.523
137.327
137.157
137.016
136.902
136.809
136.734
136.669
136.608
136.549
136.49
136.431
136.372
136.316
136.261
136.209
136.161
136.115
136.071
136.03
135.991
135.954
135.918
135.884
135.851
135.82
135.79
135.761
135.733
135.705
135.678
135.652
135.627
135.602
135.577
135.553
135.529
135.506
135.482
135.459
135.436
135.413
135.39
135.368
135.346
135.326
135.304
135.292
135.265
135.279
120.552
122.577
124.526
126.521
128.436
130.177
131.725
133.081
134.243
135.209
135.991
136.606
137.075
137.419
137.658
137.812
137.896
137.925
137.908
137.854
137.77
137.661
137.533
137.394
137.247
137.097
136.947
136.802
136.668
136.551
136.455
136.382
136.327
136.286
136.251
136.219
136.184
136.148
136.109
136.069
136.03
135.993
135.958
135.925
135.893
135.863
135.834
135.806
135.779
135.753
135.728
135.703
135.679
135.655
135.632
135.609
135.587
135.565
135.543
135.521
135.499
135.477
135.456
135.434
135.413
135.391
135.37
135.349
135.328
135.309
135.288
135.277
135.251
135.266
118.101
119.935
121.721
123.521
125.263
126.894
128.401
129.777
131.013
132.104
133.048
133.852
134.525
135.078
135.525
135.88
136.155
136.364
136.518
136.627
136.698
136.738
136.75
136.738
136.706
136.657
136.595
136.524
136.445
136.361
136.275
136.19
136.112
136.047
135.997
135.962
135.938
135.92
135.904
135.888
135.869
135.848
135.826
135.803
135.781
135.759
135.738
135.717
135.697
135.676
135.657
135.637
135.618
135.599
135.58
135.561
135.542
135.523
135.504
135.485
135.465
135.446
135.427
135.407
135.387
135.368
135.348
135.328
135.309
135.291
135.271
135.261
135.237
135.252
116.113
117.754
119.367
120.98
122.554
124.061
125.489
126.831
128.078
129.219
130.252
131.176
131.991
132.703
133.317
133.841
134.284
134.655
134.962
135.215
135.421
135.589
135.723
135.829
135.91
135.968
136.005
136.022
136.022
136.007
135.982
135.948
135.909
135.865
135.819
135.775
135.738
135.709
135.691
135.681
135.676
135.673
135.668
135.661
135.652
135.641
135.629
135.617
135.604
135.591
135.577
135.564
135.55
135.536
135.521
135.507
135.492
135.476
135.461
135.445
135.428
135.412
135.395
135.378
135.36
135.342
135.324
135.306
135.288
135.272
135.253
135.244
135.221
135.238
114.803
116.244
117.676
119.104
120.51
121.878
123.2
124.468
125.673
126.806
127.863
128.838
129.73
130.538
131.263
131.909
132.48
132.98
133.416
133.793
134.118
134.397
134.634
134.837
135.008
135.151
135.271
135.368
135.444
135.503
135.544
135.57
135.585
135.59
135.587
135.579
135.565
135.548
135.53
135.514
135.504
135.5
135.501
135.505
135.51
135.512
135.512
135.509
135.505
135.499
135.492
135.485
135.477
135.468
135.459
135.449
135.438
135.427
135.415
135.402
135.389
135.375
135.361
135.346
135.331
135.315
135.299
135.283
135.266
135.251
135.234
135.225
135.204
135.222
114.143
115.384
116.629
117.874
119.111
120.331
121.527
122.692
123.819
124.9
125.93
126.903
127.816
128.665
129.448
130.167
130.82
131.411
131.942
132.416
132.837
133.21
133.539
133.827
134.079
134.299
134.49
134.655
134.797
134.919
135.022
135.108
135.179
135.235
135.278
135.31
135.334
135.35
135.359
135.363
135.362
135.359
135.357
135.358
135.363
135.372
135.382
135.391
135.397
135.401
135.402
135.402
135.4
135.397
135.393
135.388
135.381
135.374
135.366
135.357
135.347
135.336
135.325
135.313
135.3
135.286
135.272
135.258
135.243
135.229
135.213
135.206
135.186
135.206
114.042
115.091
116.151
117.217
118.286
119.353
120.412
121.457
122.482
123.481
124.45
125.382
126.273
127.118
127.916
128.664
129.359
130.003
130.595
131.136
131.628
132.074
132.476
132.837
133.159
133.446
133.701
133.927
134.126
134.302
134.456
134.592
134.712
134.816
134.905
134.981
135.045
135.097
135.138
135.171
135.196
135.214
135.226
135.234
135.239
135.245
135.254
135.266
135.28
135.293
135.304
135.312
135.318
135.321
135.322
135.322
135.321
135.318
135.314
135.309
135.303
135.295
135.287
135.277
135.267
135.256
135.243
135.231
135.218
135.206
135.192
135.186
135.167
135.19
114.384
115.254
116.141
117.038
117.947
118.862
119.781
120.698
121.608
122.508
123.392
124.256
125.095
125.905
126.682
127.424
128.127
128.79
129.411
129.99
130.527
131.022
131.477
131.893
132.272
132.615
132.926
133.205
133.455
133.68
133.88
134.06
134.22
134.363
134.49
134.604
134.705
134.794
134.87
134.935
134.989
135.033
135.068
135.096
135.118
135.134
135.146
135.157
135.168
135.182
135.198
135.214
135.228
135.239
135.247
135.253
135.257
135.259
135.259
135.258
135.255
135.252
135.246
135.24
135.232
135.223
135.213
135.203
135.192
135.181
135.169
135.164
135.147
135.173
115.054
115.766
116.495
117.24
117.999
118.772
119.555
120.344
121.136
121.927
122.715
123.494
124.261
125.013
125.744
126.453
127.136
127.79
128.413
129.004
129.56
130.083
130.57
131.023
131.441
131.827
132.181
132.504
132.799
133.067
133.309
133.528
133.725
133.903
134.064
134.209
134.339
134.457
134.563
134.658
134.742
134.814
134.876
134.927
134.97
135.005
135.033
135.055
135.072
135.086
135.1
135.116
135.133
135.15
135.166
135.179
135.189
135.196
135.201
135.204
135.206
135.205
135.203
135.2
135.195
135.189
135.181