/*--------------------------------*- C++ -*----------------------------------*\
| =========                 |                                                 |
| \\      /  F ield         | OpenFOAM: The Open Source CFD Toolbox           |
|  \\    /   O peration     | Version:  5.x                                   |
|   \\  /    A nd           | Web:      www.OpenFOAM.org                      |
|    \\/     M anipulation  |                                                 |
\*---------------------------------------------------------------------------*/
FoamFile
{
    version     2.0;
    format      ascii;
    class       surfaceScalarField;
    location    "600";
    object      phi;
}
// * * * * * * * * * * * * * * * * * * * * * * * * * * * * * * * * * * * * * //

dimensions      [0 3 -1 0 0 0 0];

internalField   nonuniform List<scalar> 
21876
(
0.0302881
-0.00418926
-0.0260998
0.0395643
-0.00927622
0.0396452
-8.08707e-05
0.0400817
-0.000436492
0.0383073
0.00177441
0.0354964
0.00281092
0.0324072
0.00308921
0.0293442
0.00306296
0.026375
0.00296917
0.0232226
0.00315243
0.0195715
0.0036511
0.0166986
0.00287291
0.0148987
0.0017998
0.0135691
0.00132982
0.011977
0.00159272
0.0102069
0.00177155
0.00824557
0.00196732
0.00610312
0.00215105
0.00379189
0.00230999
0.00152134
0.00226132
-0.00036341
0.00188045
-0.00148426
0.00111876
-0.00224587
0.000761793
-0.00270023
0.000455244
-0.00295508
0.000255337
-0.00308996
0.000133663
-0.00316956
7.79351e-05
-0.00323934
6.84918e-05
-0.00332493
8.54213e-05
-0.0034426
0.000117765
-0.00360414
0.000161567
-0.00381798
0.000213825
-0.00407854
0.000260442
-0.00435343
0.000274648
-0.00457423
0.000219862
-0.00461775
4.16714e-05
-0.00433625
-0.000282987
-0.0037152
-0.000621336
-0.00314033
-0.000574451
-0.00132564
-0.00181396
-0.00880185
0.00747601
0.0366763
-0.0105463
-0.0303193
0.0443504
-0.0169503
0.0464226
-0.00215313
0.0479968
-0.00201069
0.0486514
0.00111989
0.0482423
0.00322
0.0468561
0.00447536
0.0446382
0.00528091
0.0418268
0.00578055
0.0384327
0.00654653
0.034267
0.00781677
0.0301827
0.00695726
0.0267223
0.00526015
0.023789
0.00426324
0.0209931
0.00438901
0.018258
0.0045076
0.0153999
0.00482788
0.0122944
0.00525879
0.00892068
0.00568144
0.00538851
0.00578912
0.00201299
0.00525302
-0.000133735
0.0032639
-0.00159334
0.0022208
-0.00253324
0.00139459
-0.00311821
0.00083981
-0.00348666
0.00050188
-0.0037491
0.000340865
-0.00397245
0.0002925
-0.00419344
0.000306903
-0.00443241
0.000356967
-0.00469558
0.000424804
-0.00497898
0.000497243
-0.005263
0.000544429
-0.00550878
0.000520306
-0.00566157
0.000372461
-0.00564356
2.37767e-05
-0.00528881
-0.00063684
-0.00437507
-0.0015335
-0.00277403
-0.00217481
-0.000301993
-0.00428709
-0.0151111
0.00600705
0.0429616
-0.0178629
-0.035645
0.0497711
-0.0237597
0.0539127
-0.0062947
0.0560784
-0.00417643
0.0570011
0.000197155
0.0568643
0.00335687
0.0559407
0.00539892
0.0543693
0.0068523
0.0522284
0.00792149
0.0494608
0.00931414
0.0458467
0.0114309
0.041917
0.0108869
0.0381551
0.00902203
0.0345533
0.00786512
0.0309073
0.00803528
0.0272755
0.00813924
0.0235551
0.00854732
0.0196011
0.00921102
0.0152981
0.00998356
0.0106444
0.0104443
0.00590912
0.00999011
0.00259044
0.00658287
0.000125636
0.00468559
-0.00155928
0.00307911
-0.00266771
0.00194797
-0.003407
0.00124116
-0.00393183
0.000866172
-0.00433876
0.000699671
-0.00469052
0.000658776
-0.00502481
0.000691326
-0.00535992
0.000759938
-0.0057028
0.000840133
-0.00604682
0.000888421
-0.00636465
0.000838203
-0.00659999
0.000608069
-0.00664633
7.06071e-05
-0.00631145
-0.000970927
-0.00530705
-0.00253791
-0.00334119
-0.00414129
-0.000509147
-0.00711896
-0.0197609
0.00414068
0.0499018
-0.0259786
-0.0417861
0.0566299
-0.0304877
0.0618314
-0.0114962
0.0647826
-0.00712763
0.0662702
-0.00129039
0.0665316
0.00309543
0.0657936
0.00613697
0.0643179
0.00832794
0.0623033
0.00993609
0.0597837
0.0118338
0.0565978
0.0146168
0.0530748
0.0144099
0.0496031
0.0124937
0.0461089
0.0113594
0.0423267
0.0118177
0.0382875
0.0121787
0.0339674
0.0128675
0.0292743
0.0139039
0.0240872
0.0151706
0.0183167
0.0162154
0.0120984
0.0162089
0.00731123
0.01137
0.00338687
0.00860979
0.000517414
0.00594816
-0.00144263
0.00390757
-0.00277043
0.00256879
-0.00369786
0.00179389
-0.00438409
0.00138625
-0.0049325
0.00120742
-0.0054066
0.00116553
-0.00584823
0.00120161
-0.0062857
0.00127761
-0.00672988
0.00133258
-0.00716157
0.00126988
-0.00751794
0.000964515
-0.0076753
0.00022833
-0.00742907
-0.00121653
-0.00645312
-0.00351346
-0.00438887
-0.00620562
-0.00135523
-0.0101529
-0.0233257
0.00220938
0.0575527
-0.0348654
-0.0486658
0.0645716
-0.0375067
0.0706304
-0.017555
0.074708
-0.0112052
0.0771372
-0.00371964
0.0781451
0.0020876
0.0778805
0.00640158
0.0765852
0.00962324
0.0745332
0.0119881
0.0718751
0.0144919
0.068602
0.0178899
0.065031
0.0179809
0.0615847
0.0159401
0.0582358
0.0147084
0.0546727
0.015381
0.0507736
0.0160777
0.0464407
0.0171997
0.0415264
0.0188171
0.0358592
0.0208377
0.0292546
0.0228211
0.0216734
0.0237913
0.0152691
0.0177746
0.00942328
0.0144557
0.00470653
0.0106647
0.00127345
0.00734052
-0.00109109
0.00493334
-0.0027196
0.0034226
-0.00388489
0.00255162
-0.00476415
0.00208671
-0.00546981
0.00187122
-0.00608106
0.00181288
-0.00665695
0.00185351
-0.00723482
0.00191045
-0.00781298
0.00184808
-0.0083327
0.00148439
-0.00866414
0.000560067
-0.00859732
-0.00128301
-0.00779207
-0.0043189
-0.00586475
-0.00813331
-0.00284265
-0.0131749
-0.026124
-4.42859e-05
0.0660147
-0.0445938
-0.0562863
0.0736206
-0.0451126
0.0804999
-0.0244343
0.0857122
-0.0164175
0.0892341
-0.00724155
0.0912083
0.000113406
0.0917445
0.00586544
0.0909939
0.0103738
0.0892026
0.0137794
0.086557
0.0171375
0.0831376
0.0213093
0.0792672
0.0218513
0.0754533
0.0197541
0.0718379
0.0183239
0.068236
0.018983
0.0644863
0.0198274
0.0604398
0.0212461
0.055859
0.0233978
0.0504311
0.0262657
0.043764
0.0294888
0.0355173
0.0320385
0.0278184
0.0254735
0.0199239
0.0223501
0.0127373
0.0178512
0.00694771
0.0131299
0.00271166
0.00916932
-0.000241288
0.0063756
-0.00230767
0.00461807
-0.00380339
0.0035825
-0.00493503
0.00300291
-0.00584497
0.00272284
-0.00663864
0.00264719
-0.00739577
0.00266757
-0.00815332
0.00260563
-0.0088806
0.00221174
-0.0094602
0.00113983
-0.00968926
-0.00105378
-0.00923907
-0.00476908
-0.00772258
-0.00964984
-0.00502827
-0.0158692
-0.0282679
-0.00288444
0.0754236
-0.0553376
-0.0646797
0.0839
-0.053589
0.0916732
-0.0322074
0.0979956
-0.0227398
0.102679
-0.0119254
0.10576
-0.00296677
0.107301
0.00432418
0.107387
0.0102878
0.106196
0.0149701
0.103905
0.0194284
0.100617
0.0245973
0.0965975
0.0258711
0.0923703
0.0239813
0.0882341
0.0224602
0.084205
0.0230122
0.0802135
0.0238189
0.07619
0.0252694
0.0719608
0.0276266
0.0671964
0.03103
0.0613435
0.0353421
0.0536802
0.0397024
0.0457627
0.0333913
0.0365691
0.0315438
0.0269395
0.0274807
0.0180439
0.0220255
0.0107762
0.0164371
0.00537369
0.0117781
0.00154105
0.00845071
-0.00117728
0.00630083
-0.00315759
0.00498323
-0.00465667
0.00422194
-0.00585774
0.00384826
-0.00690739
0.00371721
-0.00791002
0.00360828
-0.00889755
0.00319935
-0.00980031
0.00204273
-0.010457
-0.000397034
-0.0105855
-0.0046406
-0.00980674
-0.0104288
-0.00787851
-0.0177974
-0.029653
-0.00649339
0.0859428
-0.0673721
-0.0739083
0.0955836
-0.0632298
0.104406
-0.0410301
0.111854
-0.0301874
0.117729
-0.0178003
0.122003
-0.00724105
0.124682
0.00164573
0.125813
0.00915619
0.125501
0.0152826
0.123895
0.0210339
0.121098
0.027395
0.117279
0.0296892
0.112897
0.0283634
0.108327
0.0270311
0.103759
0.0275802
0.0992432
0.0283343
0.0948247
0.0296879
0.0904968
0.0319545
0.0861208
0.0354061
0.0812875
0.0401756
0.0751719
0.0458182
0.0684623
0.040101
0.0597471
0.040259
0.0491609
0.0380669
0.0376513
0.033535
0.026637
0.0274513
0.0173276
0.0210875
0.0101962
0.0155821
0.00501902
0.011478
0.00129529
0.00870698
-0.00142777
0.00694501
-0.00348105
0.00590154
-0.00511748
0.00535364
-0.00654662
0.00503744
-0.00790965
0.00456244
-0.00923554
0.00336869
-0.0104589
0.000826308
-0.0114007
-0.00369881
-0.0117203
-0.0101092
-0.0111062
-0.0184115
-0.0299011
-0.010858
0.0977771
-0.0810655
-0.0840838
0.108912
-0.0743651
0.11901
-0.0511281
0.127669
-0.0388462
0.134762
-0.0248932
0.14026
-0.0127389
0.14415
-0.00224422
0.146458
0.00684754
0.14723
0.0145113
0.146583
0.0216806
0.144605
0.0293725
0.141372
0.0329224
0.137224
0.0325114
0.132536
0.0317192
0.127616
0.0325009
0.122612
0.0333377
0.117649
0.0346514
0.112846
0.0367572
0.108277
0.0399752
0.10387
0.0445829
0.0991329
0.0505553
0.0942686
0.0449654
0.087703
0.0468246
0.0786945
0.0470754
0.0671625
0.045067
0.0539344
0.0406794
0.0405327
0.0344892
0.028527
0.0275878
0.018848
0.021157
0.0115701
0.0159849
0.00624451
0.0122706
0.00233786
0.00980818
-0.000588956
0.00828046
-0.00291184
0.00736034
-0.00495022
0.00660088
-0.00690417
0.00532272
-0.00887856
0.00280071
-0.0108688
-0.00170863
-0.0126404
-0.00833768
-0.0139133
-0.0171386
-0.0284014
-0.015413
0.111185
-0.096878
-0.0953722
0.124202
-0.0873829
0.135868
-0.0627935
0.145903
-0.0488815
0.154282
-0.0332715
0.161025
-0.0194819
0.166154
-0.00737401
0.169693
0.00330894
0.171664
0.0125403
0.172165
0.02118
0.171266
0.0302717
0.168955
0.0352334
0.165442
0.0360236
0.16105
0.0361119
0.156133
0.0374182
0.150916
0.0385542
0.145573
0.039994
0.140286
0.0420448
0.135231
0.0450296
0.130576
0.0492386
0.126266
0.0548648
0.122619
0.0486129
0.118321
0.0511227
0.112374
0.0530224
0.103824
0.0536164
0.0922317
0.0522721
0.0780269
0.0486941
0.0625171
0.0430976
0.0474408
0.0362333
0.0342821
0.0291436
0.0237611
0.0227916
0.0158108
0.0177585
0.00993489
0.0141564
0.00553574
0.0117595
0.00203502
0.0101017
-0.00104573
0.0084035
-0.00411379
0.00586876
-0.00744794
0.00162545
-0.011007
-0.00477859
-0.0146471
-0.0134985
-0.0244543
-0.0185941
0.12649
-0.115369
-0.108
0.141855
-0.102748
0.155455
-0.0763928
0.167117
-0.0605438
0.17692
-0.0430743
0.184966
-0.0275281
0.191345
-0.0137531
0.196115
-0.00146157
0.199315
0.00934033
0.201047
0.0194488
0.201378
0.0299398
0.200233
0.0363789
0.1977
0.038557
0.194016
0.0397954
0.189523
0.0419119
0.184481
0.0435953
0.179106
0.045369
0.173608
0.0475426
0.168201
0.050437
0.163119
0.0543205
0.158545
0.0594387
0.155096
0.0520619
0.151869
0.0543498
0.148268
0.0566234
0.143366
0.0585191
0.136106
0.0595321
0.125679
0.0591211
0.111934
0.0568424
0.0955916
0.0525755
0.0781005
0.0466347
0.0611844
0.0397077
0.0462853
0.0326575
0.034172
0.0262697
0.0248525
0.0210791
0.0177637
0.0171904
0.0121408
0.0140265
0.00711324
0.0108963
0.00190681
0.00683184
-0.00383864
0.000966837
-0.0102363
-0.00710085
-0.0174363
-0.0172544
0.144101
-0.13721
-0.12226
0.162373
-0.12102
0.17836
-0.0923798
0.19199
-0.0741735
0.203443
-0.0545269
0.212915
-0.0370002
0.220582
-0.0214199
0.22658
-0.00745984
0.230983
0.00493722
0.233935
0.016497
0.23553
0.0283442
0.235664
0.036245
0.234335
0.0398868
0.231696
0.0424339
0.228027
0.0455812
0.223577
0.0480452
0.218579
0.0503664
0.213265
0.0528567
0.207866
0.0558358
0.202623
0.0595643
0.197771
0.0642908
0.194066
0.0557661
0.19087
0.0575466
0.188029
0.0594636
0.185147
0.0614016
0.181514
0.0631653
0.17616
0.0644748
0.168083
0.0649199
0.156599
0.0640593
0.141663
0.0615703
0.123986
0.0573853
0.104893
0.0517503
0.0859925
0.04517
0.0687283
0.0383434
0.0539893
0.0319294
0.0420564
0.0259594
0.0323069
0.0206458
0.0235476
0.0155911
0.0147539
0.00976047
0.00513814
0.00251495
-0.00668023
-0.00561791
0.164524
-0.163211
-0.138522
0.18638
-0.142876
0.205313
-0.111313
0.221349
-0.0902098
0.234773
-0.0679504
0.24588
-0.0481073
0.254944
-0.0304832
0.262195
-0.0147113
0.267772
-0.000639366
0.271885
0.0123834
0.274684
0.0255455
0.276081
0.0348482
0.27603
0.0399376
0.27463
0.0438343
0.272083
0.0481277
0.268589
0.0515392
0.264366
0.0545895
0.259645
0.0575781
0.254667
0.0608139
0.249676
0.0645547
0.244917
0.0690502
0.241102
0.0595813
0.237744
0.0609042
0.234861
0.0623468
0.2324
0.0638626
0.230173
0.065392
0.227761
0.0668864
0.224463
0.068218
0.219364
0.0691583
0.211546
0.0693885
0.200367
0.0685646
0.185696
0.0664207
0.168015
0.0628515
0.148301
0.0580571
0.12778
0.0524506
0.1079
0.0458388
0.089603
0.0389432
0.0729822
0.0322118
0.057669
0.0250737
0.0427661
0.0174178
0.00878129
0.0273046
0.188382
-0.194346
-0.157247
0.214643
-0.169138
0.237205
-0.133875
0.2562
-0.109204
0.27202
-0.0837705
0.285068
-0.0611552
0.295722
-0.0411371
0.304316
-0.0233051
0.311081
-0.00740514
0.316303
0.00716157
0.320207
0.0216418
0.322763
0.0322919
0.323934
0.0387671
0.323801
0.0439672
0.322514
0.0494144
0.320213
0.0538407
0.317073
0.0577291
0.3133
0.0613513
0.309122
0.064992
0.304782
0.0688946
0.300531
0.0733015
0.296932
0.0631797
0.293691
0.0641452
0.290843
0.0651953
0.288407
0.0662983
0.286391
0.0674083
0.284753
0.0685246
0.28333
0.0696405
0.281758
0.0707303
0.279434
0.071713
0.275573
0.0724257
0.26936
0.0726333
0.260149
0.0720627
0.247607
0.0705988
0.231757
0.0683006
0.213203
0.0643935
0.192735
0.0594113
0.17098
0.0539666
0.148676
0.0473777
0.126032
0.0400619
0.0318078
0.103005
0.216444
-0.231791
-0.179
0.248105
-0.200798
0.27513
-0.160899
0.297764
-0.131839
0.316522
-0.102528
0.331922
-0.0765552
0.344457
-0.0536725
0.354573
-0.0334207
0.362609
-0.0154413
0.368933
0.000837649
0.373862
0.0167123
0.377451
0.0287028
0.37971
0.0365085
0.380746
0.0429318
0.380691
0.0494689
0.379647
0.0548846
0.377749
0.0596277
0.375159
0.0639413
0.372072
0.0680791
0.368706
0.0722598
0.365305
0.0767025
0.362201
0.0662838
0.359366
0.06698
0.356852
0.0677098
0.354681
0.0684694
0.352866
0.0692226
0.351427
0.0699639
0.350382
0.0706857
0.349717
0.0713953
0.349327
0.0721033
0.348953
0.0727999
0.348152
0.0734344
0.346323
0.0738917
0.342779
0.0741423
0.336829
0.0742509
0.328006
0.0732165
0.316052
0.0713656
0.300783
0.0692353
0.282433
0.0657278
0.261222
0.0612726
0.055602
0.237428
0.249648
-0.276971
-0.204468
0.287915
-0.239065
0.320416
-0.193401
0.347526
-0.158949
0.369897
-0.124899
0.388177
-0.0948358
0.40299
-0.068485
0.414902
-0.0453328
0.424371
-0.0249107
0.431868
-0.00665895
0.437801
0.0107791
0.442326
0.0241778
0.445529
0.0333056
0.447572
0.0408888
0.448609
0.0484318
0.448737
0.0547569
0.448068
0.0602963
0.446733
0.0652765
0.444886
0.0699265
0.442706
0.0744395
0.440404
0.079005
0.437995
0.0686921
0.43576
0.0692151
0.433777
0.0696933
0.432089
0.0701571
0.430715
0.0705962
0.429661
0.0710182
0.428932
0.0714144
0.428546
0.0717815
0.428526
0.0721237
0.428878
0.0724472
0.429557
0.0727561
0.430415
0.0730337
0.431176
0.0733809
0.431417
0.0740098
0.430622
0.0740115
0.428222
0.0737655
0.423587
0.0738709
0.416228
0.0730861
0.405797
0.0717042
0.0696042
0.391794
0.289103
-0.331607
-0.234466
0.335442
-0.285404
0.374659
-0.232617
0.40727
-0.191561
0.434088
-0.151717
0.455916
-0.116663
0.473521
-0.0860909
0.487612
-0.0594232
0.498777
-0.0360756
0.5076
-0.0154821
0.514591
0.00378794
0.520018
0.0187508
0.524059
0.0292646
0.526951
0.0379975
0.528895
0.0464878
0.530016
0.0536357
0.530435
0.0598776
0.530269
0.0654421
0.529647
0.0705487
0.528711
0.0753752
0.527629
0.080087
0.526039
0.0702828
0.524525
0.0707283
0.523183
0.0710358
0.522076
0.0712636
0.521245
0.0714279
0.520705
0.0715581
0.520457
0.0716619
0.520495
0.0717435
0.520813
0.071806
0.521413
0.0718477
0.522303
0.0718654
0.523491
0.0718462
0.524956
0.0719161
0.526624
0.0723413
0.52835
0.0722861
0.529888
0.0722271
0.530886
0.0728726
0.530905
0.0730676
0.529533
0.073076
0.0731337
0.526004
0.305035
-0.391563
-0.245079
0.355935
-0.336304
0.398903
-0.275586
0.43456
-0.227218
0.463811
-0.180968
0.487548
-0.1404
0.506623
-0.105166
0.521821
-0.0746217
0.533813
-0.0480676
0.543242
-0.024911
0.550673
-0.00364308
0.556453
0.0129713
0.560834
0.024883
0.564109
0.0347233
0.56652
0.0440768
0.568227
0.0519288
0.569368
0.0587359
0.570065
0.0647452
0.570431
0.0701833
0.570578
0.0752275
0.570632
0.0800336
0.569908
0.0710061
0.569195
0.0714412
0.568577
0.0716541
0.568118
0.0717229
0.567863
0.0716826
0.567841
0.0715804
0.568063
0.0714396
0.568528
0.0712786
0.569223
0.0711112
0.570128
0.0709422
0.571224
0.0707699
0.572491
0.0705786
0.573917
0.0704904
0.575488
0.0707705
0.57719
0.0705837
0.578991
0.0704263
0.580825
0.0710383
0.582579
0.071314
0.584132
0.071523
0.0721043
0.585161
0.3173
-0.45606
-0.252803
0.372091
-0.391095
0.418263
-0.321758
0.456523
-0.265478
0.487856
-0.2123
0.513225
-0.165769
0.533554
-0.125495
0.549691
-0.0907594
0.562374
-0.0607504
0.572293
-0.0348298
0.580057
-0.0114075
0.586072
0.00695674
0.590649
0.0203064
0.594118
0.0312539
0.596759
0.0414361
0.598762
0.0499252
0.600291
0.0572075
0.601477
0.0635587
0.602436
0.0692242
0.603272
0.0743923
0.604083
0.0792218
0.603969
0.07112
0.603838
0.0715723
0.603761
0.0717315
0.603793
0.0716903
0.603977
0.0714987
0.604341
0.0712164
0.604902
0.0708789
0.605665
0.0705157
0.606626
0.0701504
0.607771
0.0697973
0.609079
0.0694619
0.610523
0.0691339
0.612075
0.0689384
0.613705
0.0691409
0.615388
0.0689003
0.617106
0.0687088
0.61884
0.0693038
0.62058
0.0695742
0.622326
0.069777
0.0703894
0.624041
0.331933
-0.525506
-0.262487
0.390955
-0.450117
0.440633
-0.371435
0.481758
-0.306603
0.515397
-0.245939
0.542592
-0.192964
0.564337
-0.14724
0.581549
-0.107972
0.595031
-0.074232
0.605522
-0.0453209
0.613677
-0.0195629
0.619955
0.000679158
0.624719
0.0155426
0.628335
0.0276375
0.631115
0.0386566
0.633279
0.0477604
0.635015
0.055472
0.636471
0.0621026
0.637771
0.0679239
0.63902
0.0731436
0.640309
0.0779324
0.640585
0.0708448
0.640836
0.0713211
0.641124
0.0714431
0.641498
0.0713163
0.641994
0.0710028
0.642638
0.0705727
0.643446
0.0700712
0.644425
0.0695362
0.645577
0.068999
0.646894
0.0684803
0.648364
0.0679918
0.649969
0.0675285
0.651688
0.0672193
0.653496
0.067333
0.655366
0.06703
0.657275
0.0668004
0.659199
0.0673796
0.661125
0.0676482
0.663051
0.0678512
0.0684623
0.664978
0.348772
-0.600327
-0.273951
0.412386
-0.513731
0.465885
-0.424935
0.510146
-0.350863
0.54632
-0.282113
0.575531
-0.222176
0.598854
-0.170562
0.617274
-0.126392
0.631662
-0.08862
0.642811
-0.0564699
0.651422
-0.0281744
0.658006
-0.00590487
0.662973
0.0105756
0.666724
0.0238866
0.6696
0.0357804
0.671854
0.0455072
0.673693
0.0536328
0.675287
0.0605088
0.676772
0.066439
0.678259
0.0716562
0.679841
0.07635
0.680355
0.0703309
0.68085
0.0708266
0.681379
0.0709135
0.681987
0.0707088
0.682704
0.0702853
0.683555
0.0697222
0.684553
0.0690729
0.685707
0.0683821
0.687019
0.0676873
0.688485
0.0670142
0.690098
0.0663787
0.691847
0.0657791
0.69372
0.0653465
0.695702
0.0653512
0.697774
0.0649576
0.699921
0.0646538
0.702126
0.0651741
0.704376
0.0653987
0.70666
0.0655669
0.0661514
0.708971
0.367752
-0.680981
-0.287098
0.436347
-0.582326
0.494003
-0.482592
0.541683
-0.398543
0.580631
-0.321061
0.612059
-0.253604
0.637123
-0.195626
0.656887
-0.146156
0.67229
-0.104024
0.684184
-0.0683642
0.693321
-0.0373106
0.70026
-0.0128446
0.705459
0.00537733
0.709351
0.0199942
0.71231
0.0328219
0.714614
0.0432028
0.716497
0.0517498
0.718147
0.0588591
0.719715
0.0648709
0.721323
0.0700478
0.72307
0.0746028
0.723714
0.0696875
0.724349
0.0701918
0.725026
0.0702364
0.725785
0.0699498
0.726655
0.0694153
0.727657
0.0687202
0.728805
0.0679252
0.730105
0.0670812
0.731562
0.0662307
0.733173
0.0654034
0.734933
0.0646186
0.736835
0.0638769
0.738871
0.0633106
0.741033
0.0631895
0.743307
0.0626834
0.745684
0.062277
0.748157
0.0627015
0.750715
0.0628407
0.753351
0.0629304
0.0634435
0.756059
0.388872
-0.767962
-0.30189
0.462867
-0.656321
0.525041
-0.544766
0.576444
-0.449946
0.61842
-0.363037
0.652275
-0.287459
0.679253
-0.222604
0.700501
-0.167403
0.717033
-0.120556
0.729763
-0.0810939
0.739495
-0.0470428
0.746843
-0.0201931
0.752308
-8.74436e-05
0.75636
0.0159423
0.759402
0.0297797
0.761742
0.0408626
0.763637
0.0498555
0.765293
0.057203
0.766879
0.0632851
0.768529
0.0683977
0.770351
0.0727809
0.771042
0.0689958
0.771738
0.069496
0.772488
0.0694863
0.773331
0.069107
0.774294
0.0684518
0.775398
0.067616
0.776657
0.0666672
0.778076
0.0656619
0.779659
0.0646472
0.781406
0.0636564
0.783313
0.0627115
0.785375
0.0618153
0.787585
0.0611003
0.78994
0.0608349
0.792427
0.0601964
0.795039
0.0596646
0.797775
0.0599655
0.800626
0.05999
0.803586
0.0599698
0.0603768
0.806653
0.412173
-0.861805
-0.318331
0.492026
-0.736174
0.559107
-0.611847
0.614561
-0.5054
0.659837
-0.408313
0.696344
-0.323965
0.72542
-0.251681
0.7483
-0.190283
0.76608
-0.138336
0.77974
-0.0947538
0.790143
-0.0574458
0.797957
-0.0280068
0.803728
-0.00585867
0.807964
0.0117066
0.8111
0.0266437
0.813473
0.03849
0.815361
0.0479666
0.816994
0.05557
0.818556
0.0617235
0.820195
0.0667591
0.822029
0.0709468
0.822709
0.0683156
0.823405
0.0687998
0.824169
0.0687224
0.82504
0.0682364
0.826045
0.0674461
0.827206
0.066455
0.828536
0.0653378
0.830041
0.0641564
0.831726
0.0629622
0.833591
0.0617919
0.835632
0.0606701
0.837846
0.0596017
0.840227
0.0587187
0.842775
0.0582878
0.845475
0.0574956
0.848324
0.0568162
0.851321
0.0569684
0.854457
0.0568534
0.857728
0.0566989
0.0569734
0.861132
0.437734
-0.963089
-0.336449
0.523941
-0.822381
0.596352
-0.684258
0.656212
-0.565259
0.705083
-0.457185
0.744483
-0.363365
0.775856
-0.283053
0.800528
-0.214956
0.819684
-0.157492
0.834375
-0.109445
0.845528
-0.0685988
0.853867
-0.0363458
0.859988
-0.0119795
0.864436
0.00725884
0.867681
0.0233984
0.87009
0.0360816
0.871965
0.0460908
0.873557
0.0539782
0.875067
0.0602137
0.876658
0.0651686
0.878459
0.0691451
0.879084
0.0676913
0.879734
0.0681493
0.880465
0.0679912
0.881318
0.0673834
0.882323
0.0664415
0.8835
0.0652778
0.884864
0.0639739
0.886423
0.0625977
0.88818
0.0612047
0.890137
0.0598351
0.892291
0.0585161
0.894638
0.0572545
0.897175
0.056182
0.8999
0.0555626
0.902801
0.0545946
0.905872
0.0537451
0.909116
0.0537243
0.912523
0.0534465
0.916087
0.0531354
0.0532545
0.919806
0.46566
-1.07245
-0.356301
0.558762
-0.915483
0.636963
-0.76246
0.701615
-0.629911
0.754402
-0.509972
0.796959
-0.405922
0.830842
-0.316936
0.857481
-0.241594
0.87815
-0.178161
0.893981
-0.125276
0.905968
-0.0805865
0.914897
-0.0452745
0.921414
-0.0184964
0.926105
0.00256742
0.929479
0.0200251
0.93193
0.0336299
0.933791
0.0442304
0.93533
0.0524392
0.936768
0.0587758
0.938283
0.0636536
0.940018
0.06741
0.940551
0.0671579
0.941119
0.0675818
0.941779
0.067331
0.942576
0.0665863
0.943542
0.0654756
0.944699
0.0641205
0.946063
0.0626102
0.947642
0.0610183
0.949442
0.0594051
0.951463
0.0578144
0.953703
0.0562759
0.956159
0.0547987
0.958827
0.0535139
0.961707
0.0526826
0.964785
0.0515163
0.968056
0.0504746
0.971523
0.0502573
0.975174
0.0497946
0.979004
0.0493059
0.0492484
0.98301
0.496081
-1.19057
-0.37796
0.596668
-1.01607
0.681162
-0.846954
0.751026
-0.699775
0.808079
-0.567024
0.854081
-0.451924
0.890708
-0.353563
0.9195
-0.270386
0.941832
-0.200494
0.958921
-0.142364
0.971835
-0.0935005
0.981423
-0.0548626
0.988386
-0.0254595
0.993356
-0.00240216
0.996878
0.0165023
0.999383
0.0311248
1.00123
0.0423856
1.00271
0.0509616
1.00406
0.0574259
1.00547
0.0622372
1.00711
0.0657702
1.00752
0.0667457
1.00798
0.0671297
1.00853
0.0667755
1.00924
0.0658797
1.01013
0.0645832
1.01123
0.0630175
1.01256
0.0612801
1.01413
0.059451
1.01594
0.0575952
1.01799
0.0557605
1.02029
0.0539795
1.02283
0.0522637
1.0256
0.0507435
1.0286
0.0496766
1.03183
0.0482897
1.03527
0.047034
1.03893
0.0465975
1.0428
0.0459289
1.04686
0.0452428
0.044989
1.05112
0.529151
-1.31821
-0.401514
0.637868
-1.12479
0.729203
-0.938289
0.80474
-0.775312
0.86644
-0.628724
0.916201
-0.501685
0.955828
-0.39319
0.986979
-0.301537
1.01114
-0.224653
1.02961
-0.160838
1.04355
-0.107441
1.05388
-0.0651852
1.06134
-0.0329237
1.06663
-0.00768752
1.07032
0.012807
1.07289
0.0285552
1.07472
0.0405552
1.07613
0.049553
1.07738
0.0561793
1.07867
0.0609412
1.08019
0.0642535
1.08045
0.0664829
1.08076
0.0668239
1.08118
0.0663576
1.08176
0.0652975
1.08254
0.0637988
1.08356
0.0620037
1.08482
0.0600186
1.08634
0.0579303
1.08812
0.0558093
1.09018
0.0537075
1.0925
0.0516607
1.09508
0.0496831
1.09792
0.0479044
1.10101
0.0465785
1.10435
0.044949
1.10793
0.0434581
1.11175
0.0427804
1.11579
0.0418854
1.12005
0.040983
0.040514
1.12453
0.565044
-1.45618
-0.427071
0.682597
-1.24234
0.781373
-1.03706
0.863086
-0.857026
0.929852
-0.69549
0.983716
-0.555549
1.02662
-0.436098
1.06036
-0.335275
1.08653
-0.250819
1.10653
-0.18084
1.1216
-0.122516
1.13274
-0.0763249
1.14077
-0.0409485
1.14641
-0.0133293
1.1503
0.00891391
1.15295
0.0259089
1.15477
0.0387381
1.1561
0.0482215
1.15722
0.0550521
1.15838
0.0597886
1.15974
0.062889
1.15983
0.0663986
1.15995
0.0666962
1.1602
0.0661111
1.16062
0.0648752
1.16126
0.0631588
1.16215
0.0611162
1.16331
0.0588632
1.16474
0.0564943
1.16647
0.0540857
1.16848
0.0516938
1.17078
0.0493581
1.17337
0.0470956
1.17624
0.0450355
1.17939
0.0434276
1.1828
0.0415339
1.18648
0.0397869
1.19041
0.0388465
1.19459
0.0377055
1.199
0.0365684
0.0358661
1.20365
0.603955
-1.60539
-0.454747
0.731117
-1.3695
0.837991
-1.14394
0.926434
-0.945468
0.998725
-0.767781
1.05707
-0.613894
1.10357
-0.482593
1.14014
-0.371846
1.16851
-0.279189
1.19019
-0.202525
1.20652
-0.138848
1.21857
-0.0883719
1.22722
-0.0495991
1.23326
-0.0193718
1.23738
0.00479605
1.24012
0.0231736
1.24192
0.036934
1.24316
0.0469772
1.24415
0.0540629
1.24514
0.0588056
1.24632
0.0617095
1.24619
0.0665246
1.2461
0.0667817
1.24614
0.0660734
1.24637
0.0646518
1.24682
0.0627039
1.24754
0.0603967
1.24855
0.0578566
1.24985
0.0551861
1.25147
0.0524679
1.2534
0.0497634
1.25565
0.047116
1.25819
0.0445461
1.26105
0.0421822
1.26421
0.0402695
1.26765
0.0380905
1.27137
0.0360671
1.27537
0.0348432
1.27964
0.0334369
1.28416
0.0320472
0.0310941
1.28893
0.646104
-1.76682
-0.484676
0.783721
-1.50712
0.899415
-1.25963
0.995193
-1.04125
1.07351
-0.846102
1.13676
-0.677137
1.18718
-0.533016
1.22686
-0.411525
1.25765
-0.309982
1.28119
-0.226064
1.29891
-0.156567
1.31196
-0.101426
1.32131
-0.058947
1.3278
-0.0258632
1.33217
0.0004245
1.33501
0.0203362
1.3368
0.0351436
1.33795
0.0458325
1.33878
0.0532342
1.33956
0.0580234
1.34051
0.0607538
1.34014
0.0668973
1.3398
0.0671197
1.33959
0.0662867
1.33957
0.0646719
1.33979
0.0624803
1.3403
0.0598929
1.34111
0.0570474
1.34224
0.0540554
1.3437
0.0510065
1.34549
0.0479676
1.34762
0.0449865
1.35008
0.0420872
1.35287
0.0393974
1.35598
0.037158
1.3594
0.0346731
1.36311
0.0323534
1.36713
0.0308256
1.37143
0.0291353
1.376
0.0274755
0.0262544
1.38084
0.691731
-1.94154
-0.517004
0.840732
-1.65612
0.966038
-1.38494
1.06982
-1.14503
1.15472
-0.931008
1.22332
-0.745735
1.27805
-0.587742
1.32114
-0.454614
1.35459
-0.343439
1.38018
-0.251646
1.39943
-0.17582
1.4136
-0.115596
1.42373
-0.0690712
1.43072
-0.0328564
1.43537
-0.00423195
1.43833
0.0173842
1.4401
0.0333698
1.44113
0.0448034
1.44177
0.0525933
1.44232
0.0574791
1.443
0.0600679
1.44234
0.0675585
1.4417
0.0677565
1.44119
0.0668004
1.44087
0.0649873
1.44081
0.0625419
1.44104
0.0596604
1.4416
0.0564928
1.44249
0.0531606
1.44374
0.0497609
1.44534
0.0463667
1.4473
0.0430307
1.4496
0.0397806
1.45226
0.0367438
1.45526
0.0341561
1.45859
0.0313453
1.46223
0.0287102
1.4662
0.0268585
1.47047
0.0248659
1.47502
0.022919
0.0214133
1.47986
0.7411
-2.13075
-0.551889
0.902507
-1.81753
1.0383
-1.52073
1.15081
-1.25754
1.24292
-1.02311
1.31738
-0.820195
1.37682
-0.647183
1.42365
-0.501448
1.46004
-0.379827
1.48788
-0.279483
1.50883
-0.19677
1.52423
-0.131005
1.53522
-0.0800586
1.54277
-0.0404092
1.54775
-0.00920684
1.55083
0.0143046
1.55258
0.0316174
1.55347
0.0439098
1.55389
0.0521735
1.55416
0.0572177
1.55452
0.0597072
1.55352
0.0685578
1.55253
0.068746
1.55166
0.0676721
1.55098
0.0656588
1.55057
0.0629521
1.55047
0.0597647
1.5507
0.0562601
1.55129
0.0525704
1.55225
0.0488011
1.55359
0.0450319
1.5553
0.0413206
1.55738
0.0376994
1.55983
0.0342952
1.56265
0.0313384
1.56581
0.0281825
1.5693
0.0252134
1.57314
0.0230184
1.5773
0.0207059
1.58177
0.0184556
0.0166489
1.58653
0.794501
-2.33575
-0.589505
0.969438
-1.99246
1.11667
-1.66796
1.23873
-1.3796
1.33871
-1.12309
1.41959
-0.901075
1.4842
-0.711798
1.53515
-0.552398
1.57477
-0.419442
1.60509
-0.309806
1.62792
-0.219596
1.6447
-0.147787
1.65664
-0.0920057
1.66482
-0.0485854
1.67015
-0.0145362
1.67337
0.0110852
1.67509
0.0298942
1.67583
0.0431772
1.67598
0.0520154
1.67591
0.0572934
1.67588
0.0597381
1.67448
0.0699536
1.67308
0.0701518
1.67178
0.0689697
1.67068
0.066758
1.66985
0.0637856
1.66933
0.060283
1.66916
0.0564286
1.66936
0.052366
1.66995
0.0482101
1.67094
0.0440475
1.67232
0.0399419
1.67409
0.0359304
1.67624
0.0321394
1.67879
0.0287937
1.68169
0.0252742
1.68495
0.0219532
1.68858
0.0193965
1.69254
0.0167469
1.69681
0.0141774
0.0120542
1.70141
0.852254
-2.55796
-0.63004
1.04196
-2.18217
1.20168
-1.82768
1.33418
-1.5121
1.44278
-1.23169
1.5307
-0.988993
1.60099
-0.782093
1.65647
-0.607874
1.69964
-0.462614
1.73271
-0.342877
1.75761
-0.2445
1.77592
-0.166093
1.78893
-0.105019
1.7978
-0.0574552
1.80352
-0.0202589
1.8069
0.00771357
1.80858
0.0282113
1.80912
0.0426367
1.80897
0.0521681
1.80849
0.0577712
1.80799
0.0602403
1.80613
0.0718145
1.80423
0.0720488
1.80242
0.0707735
1.80081
0.0683694
1.79947
0.0651303
1.79845
0.0613064
1.79778
0.0570921
1.7975
0.0526436
1.79763
0.0480858
1.79816
0.0435133
1.79911
0.038996
1.80046
0.0345763
1.80222
0.0303804
1.80439
0.026627
1.80694
0.0227266
1.80985
0.0190371
1.81315
0.0161007
1.8168
0.013098
1.82078
0.0101943
0.00773974
1.82509
0.914704
-2.79897
-0.673695
1.12054
-2.388
1.29393
-2.00107
1.43785
-1.65602
1.55589
-1.34973
1.65153
-1.08463
1.72807
-0.85863
1.78852
-0.668333
1.83562
-0.509709
1.87173
-0.378983
1.89893
-0.271703
1.91892
-0.186088
1.93312
-0.119218
1.94276
-0.0670958
1.94892
-0.026417
1.95246
0.00417839
1.95409
0.0265837
1.95439
0.0423268
1.95387
0.0526908
1.95291
0.0587292
1.95185
0.061309
1.94944
0.0742221
1.94696
0.0745256
1.94456
0.073178
1.94233
0.0705926
1.94037
0.0670903
1.93874
0.0629428
1.93747
0.0583616
1.93659
0.053517
1.93614
0.0485445
1.9361
0.0435476
1.93649
0.0386031
1.93731
0.0337592
1.93855
0.0291418
1.94021
0.0249633
1.94227
0.0206661
1.94472
0.0165925
1.94756
0.0132598
1.95077
0.00988881
1.95433
0.00663694
0.00383704
1.95823
0.982233
-3.06052
-0.720687
1.2057
-2.61147
1.39404
-2.18941
1.55047
-1.81245
1.67887
-1.47813
1.78299
-1.18876
1.8664
-0.942033
1.93235
-0.734283
1.98377
-0.561134
2.02324
-0.418446
2.05299
-0.301457
2.07486
-0.207961
2.09038
-0.134734
2.10088
-0.0775929
2.10751