/*--------------------------------*- C++ -*----------------------------------*\
| =========                 |                                                 |
| \\      /  F ield         | OpenFOAM: The Open Source CFD Toolbox           |
|  \\    /   O peration     | Version:  5.x                                   |
|   \\  /    A nd           | Web:      www.OpenFOAM.org                      |
|    \\/     M anipulation  |                                                 |
\*---------------------------------------------------------------------------*/
FoamFile
{
    version     2.0;
    format      ascii;
    class       volVectorField;
    location    "600";
    object      U;
}
// * * * * * * * * * * * * * * * * * * * * * * * * * * * * * * * * * * * * * //

dimensions      [0 1 -1 0 0 0 0];

internalField   nonuniform List<vector> 
11040
(
(-4.50666 25.0884 0)
(-0.631683 30.5769 -1.53116e-19)
(5.69837 33.7783 1.58413e-17)
(11.5762 32.7421 1.83029e-17)
(16.0356 29.4378 3.79899e-17)
(19.1037 25.2788 -1.81771e-17)
(21.003 20.9322 -1.7702e-17)
(21.9291 16.791 1.76574e-17)
(22.0562 13.0683 3.85943e-17)
(21.474 9.79744 1.24199e-18)
(19.8738 6.69366 1.67335e-17)
(17.6943 4.20195 -7.10083e-19)
(15.8089 2.69514 1.02745e-17)
(14.4963 1.91552 6.85614e-18)
(13.2026 1.32216 2.82741e-18)
(11.5916 0.756423 -6.12517e-19)
(9.6736 0.287733 3.14764e-18)
(7.5515 -0.0363445 8.32755e-19)
(5.24777 -0.22318 -9.81717e-19)
(2.77275 -0.276394 -1.46335e-17)
(0.474859 -0.155838 -2.23053e-17)
(-1.12152 0.0324235 -3.17505e-17)
(-2.0028 0.14964 -6.02751e-17)
(-2.53687 0.235774 -3.82952e-18)
(-2.83346 0.305352 -1.63642e-20)
(-2.97508 0.360468 2.00858e-18)
(-3.03625 0.408833 -1.30787e-16)
(-3.06981 0.458243 2.05339e-18)
(-3.10644 0.508991 -1.33863e-16)
(-3.16454 0.56076 1.29067e-16)
(-3.25543 0.617282 2.00141e-18)
(-3.38848 0.681135 9.58881e-19)
(-3.56698 0.751737 -9.04621e-19)
(-3.7769 0.823097 0)
(-3.97061 0.881131 2.02204e-16)
(-4.05385 0.903832 0)
(-3.91877 0.867717 0)
(-3.53931 0.759028 -3.69689e-19)
(-2.75382 0.491955 4.42018e-19)
(-1.62322 -0.141831 -2.16349e-16)
(-1.564 -0.999022 -1.95369e-16)
(-0.273577 24.3949 0)
(4.02913 28.5186 0)
(11.7126 30.0619 -8.95783e-18)
(18.2449 28.7808 9.33131e-18)
(22.9262 26.6867 -2.24972e-17)
(26.193 24.3332 2.28353e-17)
(28.3043 21.6611 1.08298e-17)
(29.3779 18.7253 1.38843e-18)
(29.5627 15.6788 -9.00771e-19)
(29.0207 12.6893 1.05302e-17)
(27.6359 9.65962 -1.17137e-18)
(25.3314 7.05284 0)
(22.7289 5.18352 0)
(20.4154 3.88536 -3.15007e-18)
(18.363 2.82109 -1.49439e-18)
(16.276 1.96065 5.85126e-19)
(14.0226 1.29981 0)
(11.5486 0.80596 -3.55517e-19)
(8.81111 0.462066 1.3318e-18)
(5.85565 0.260449 1.29597e-18)
(2.84715 0.182655 7.69979e-18)
(0.497243 0.197267 1.11385e-17)
(-0.917416 0.232541 1.68516e-18)
(-1.82096 0.273603 -2.95222e-17)
(-2.37549 0.319351 2.79711e-17)
(-2.69986 0.366177 2.00377e-18)
(-2.90333 0.416595 6.74079e-17)
(-3.0543 0.470326 -1.09206e-18)
(-3.18818 0.527275 7.25577e-17)
(-3.32777 0.588941 -7.21609e-17)
(-3.48077 0.65613 -7.25878e-17)
(-3.64816 0.729031 7.14596e-17)
(-3.82173 0.80458 -1.40456e-21)
(-3.98139 0.875131 -1.45418e-18)
(-4.08976 0.927374 -5.77018e-17)
(-4.09153 0.939936 0)
(-3.93881 0.893399 -3.98721e-19)
(-3.52468 0.777028 9.46417e-17)
(-2.55981 0.554492 9.64606e-17)
(-0.745448 -0.033713 9.00511e-17)
(-0.277337 -1.14699 1.27761e-16)
(1.51405 23.4644 0)
(5.4701 26.5997 0)
(10.8827 28.2009 2.34343e-18)
(15.9451 28.0847 -6.76626e-18)
(20.0427 26.7061 6.97699e-18)
(23.4046 24.6125 -8.31422e-18)
(26.0912 22.1195 -6.31451e-18)
(28.0384 19.4047 0)
(29.2172 16.5971 -9.66895e-18)
(29.6703 13.8086 -5.38937e-18)
(29.3384 10.969 0)
(28.0525 8.44116 0)
(26.1339 6.47774 -3.54633e-18)
(24.0549 4.98813 -2.23575e-18)
(21.9278 3.72782 -4.95317e-20)
(19.6755 2.70107 5.19484e-20)
(17.2597 1.91218 0)
(14.6571 1.3285 0)
(11.8064 0.919399 -2.91788e-19)
(8.6759 0.648577 8.21249e-19)
(5.35261 0.478723 -9.26418e-19)
(2.54651 0.378909 4.39687e-18)
(0.636679 0.320022 -3.52957e-20)
(-0.682089 0.299861 -1.40429e-17)
(-1.53761 0.311943 -1.1427e-18)
(-2.0842 0.344327 -1.24268e-18)
(-2.45096 0.391996 -1.57888e-21)
(-2.71157 0.448068 1.39001e-18)
(-2.91632 0.509467 0)
(-3.09712 0.575166 0)
(-3.26965 0.644164 9.52654e-17)
(-3.44134 0.715703 -9.29003e-17)
(-3.61285 0.786338 4.42794e-17)
(-3.77615 0.849115 0)
(-3.90623 0.892645 3.95407e-17)
(-3.94967 0.893562 3.72075e-17)
(-3.83888 0.816843 0)
(-3.47962 0.64178 1.32099e-19)
(-2.5859 0.335598 -2.19852e-19)
(-0.792154 -0.366195 0)
(-0.210188 -1.70189 -5.49705e-17)
(3.33171 22.4022 1.03328e-19)
(7.03125 24.8589 -1.06686e-19)
(11.2587 26.2138 2.95521e-19)
(15.6863 26.322 0)
(19.5509 25.2836 -7.23316e-18)
(22.6766 23.5574 0)
(25.1467 21.4178 1.40574e-17)
(26.9868 19.0287 1.19237e-20)
(28.2185 16.5287 1.35781e-18)
(28.8931 14.0334 8.259e-18)
(29.0151 11.506 1.18781e-18)
(28.4412 9.18766 2.75873e-18)
(27.2844 7.31353 6.29065e-18)
(25.8346 5.84786 1.7445e-18)
(24.1785 4.57403 0)
(22.2502 3.48216 1.76729e-19)
(20.0297 2.60182 2.52652e-19)
(17.5331 1.92977 7.03671e-19)
(14.739 1.44745 4.72007e-19)
(11.6086 1.11366 -5.0186e-19)
(8.15205 0.871254 -2.75218e-18)
(5.00906 0.671877 -3.94029e-18)
(2.59942 0.506152 0)
(0.787417 0.397914 2.51697e-17)
(-0.449757 0.349692 -1.52369e-17)
(-1.26907 0.346773 1.42645e-17)
(-1.82284 0.376657 -2.98389e-17)
(-2.20861 0.424966 0)
(-2.49695 0.483552 0)
(-2.72788 0.54801 0)
(-2.92784 0.616178 -3.39715e-17)
(-3.11476 0.687159 3.4733e-17)
(-3.29947 0.757303 -1.00546e-18)
(-3.48225 0.818351 -3.18264e-17)
(-3.6432 0.856393 -2.7867e-17)
(-3.73043 0.844156 -2.74264e-17)
(-3.67799 0.739148 -4.80609e-17)
(-3.40672 0.513409 -4.20514e-17)
(-2.65947 0.140789 -1.51273e-19)
(-1.07699 -0.602794 -3.49391e-17)
(-0.50408 -2.03241 2.12293e-17)
(5.15195 21.2366 0)
(8.39455 23.164 1.53985e-19)
(11.7664 24.2805 -5.15216e-20)
(15.4069 24.6021 2.86686e-19)
(18.8014 24.0293 5.43203e-18)
(21.7098 22.7724 -5.05291e-18)
(24.1171 21.0221 -1.85303e-18)
(25.984 18.9269 -6.50657e-18)
(27.2853 16.6434 0)
(28.056 14.3105 -7.60991e-18)
(28.3346 11.9475 0)
(28.0641 9.746 -1.68307e-18)
(27.3179 7.92386 -3.39405e-18)
(26.3102 6.48837 0)
(25.135 5.26061 5.44006e-19)
(23.7148 4.19588 0)
(21.9782 3.31379 0)
(19.9014 2.61747 -3.74348e-19)
(17.4514 2.09672 -5.54364e-19)
(14.5799 1.71772 0)
(11.2384 1.41691 2.06197e-18)
(7.96931 1.13217 0)
(5.16337 0.851938 0)
(2.80789 0.618232 -8.38114e-18)
(1.05079 0.468064 0)
(-0.158514 0.399154 1.15158e-17)
(-0.974543 0.390239 2.41215e-17)
(-1.53566 0.416457 0)
(-1.94019 0.463086 0)
(-2.24454 0.520766 0)
(-2.48915 0.585163 2.76319e-17)
(-2.70283 0.654584 2.34467e-17)
(-2.90669 0.724679 -2.43583e-17)
(-3.11035 0.78498 -7.58422e-19)
(-3.30166 0.817828 6.99302e-19)
(-3.43565 0.791847 0)
(-3.45372 0.658857 3.76706e-17)
(-3.292 0.383292 -3.28274e-17)
(-2.73126 -0.0524011 2.96112e-17)
(-1.45369 -0.814071 2.67272e-17)
(-0.96119 -2.22489 3.60024e-20)
(6.82483 20.009 -2.30175e-19)
(9.5888 21.5157 -2.76573e-20)
(12.3242 22.4237 7.08373e-19)
(15.2809 22.8461 -1.40396e-19)
(18.1958 22.6031 -6.49282e-19)
(20.8285 21.7583 4.95725e-18)
(23.1114 20.4269 -6.1051e-18)
(24.9768 18.7098 5.31802e-18)
(26.3593 16.7331 2.40572e-18)
(27.2516 14.6259 -1.22255e-18)
(27.6734 12.4365 0)
(27.5957 10.3286 0)
(27.0742 8.51201 6.17859e-19)
(26.2875 7.04791 -6.55056e-19)
(25.3685 5.82379 -8.18591e-19)
(24.2984 4.785 -2.34234e-19)
(23.0101 3.93297 7.85671e-19)
(21.4529 3.26489 1.5006e-19)
(19.56 2.76473 1.13491e-18)
(17.2391 2.39608 -2.55721e-18)
(14.3571 2.08724 3.81852e-18)
(11.3017 1.76361 -2.05995e-18)
(8.36623 1.39739 1.21848e-18)
(5.57355 1.02747 1.5084e-18)
(3.22551 0.731816 -9.12798e-18)
(1.46649 0.546201 1.19856e-20)
(0.239311 0.460239 -2.28509e-17)
(-0.600434 0.441367 -1.88354e-17)
(-1.19004 0.46158 0)
(-1.6158 0.503253 0)
(-1.9382 0.558315 -1.99533e-17)
(-2.19884 0.623078 -4.34042e-17)
(-2.43011 0.691765 -1.27511e-18)
(-2.65385 0.751221 1.94018e-17)
(-2.87157 0.779714 1.92848e-17)
(-3.05203 0.741645 -1.75622e-17)
(-3.14755 0.5836 4.83904e-19)
(-3.11003 0.262758 5.37882e-17)
(-2.7612 -0.230423 -4.79884e-17)
(-1.84259 -1.00664 8.24343e-20)
(-1.48564 -2.32344 1.55972e-17)
(8.33053 18.7573 0)
(10.6514 19.9295 -5.96993e-19)
(12.8885 20.6653 -1.31659e-18)
(15.2806 21.1081 -2.76386e-19)
(17.7218 21.0815 -2.27107e-19)
(20.0309 20.566 7.72795e-19)
(22.1267 19.614 -2.80071e-18)
(23.9308 18.282 1.20391e-18)
(25.3589 16.6572 0)
(26.3715 14.8424 1.51308e-18)
(26.962 12.8907 -2.90204e-18)
(27.0933 10.9326 2.6009e-18)
(26.7858 9.1548 -2.81222e-19)
(26.1716 7.65673 0)
(25.3922 6.39766 2.79507e-19)
(24.4931 5.34135 2.28981e-19)
(23.4584 4.48546 -2.08425e-19)
(22.2678 3.83029 -5.81307e-19)
(20.8776 3.36195 3.99894e-19)
(19.199 3.04343 9.71839e-19)
(17.0444 2.79103 -1.0836e-18)
(14.5893 2.50899 -1.4905e-18)
(11.9545 2.13877 0)
(9.08589 1.68265 2.13321e-18)
(6.29431 1.23097 5.15241e-18)
(3.90833 0.873683 -7.7875e-18)
(2.08952 0.648905 5.62496e-18)
(0.797653 0.538171 1.74483e-17)
(-0.103703 0.50277 -2.39801e-18)
(-0.741628 0.510691 -2.39389e-21)
(-1.20601 0.545141 -1.41562e-17)
(-1.55737 0.598148 -4.6008e-18)
(-1.842 0.661643 -1.54157e-17)
(-2.09642 0.719353 0)
(-2.34045 0.744888 -1.5371e-17)
(-2.56309 0.698349 1.52267e-17)
(-2.73473 0.521856 -1.36953e-17)
(-2.82699 0.166002 -4.57592e-17)
(-2.70296 -0.373235 2.00034e-17)
(-2.16894 -1.16402 6.97677e-20)
(-2.00052 -2.3661 -2.82169e-17)
(9.66044 17.5131 1.40265e-18)
(11.5949 18.422 -4.01411e-19)
(13.433 19.0167 -2.80862e-19)
(15.3705 19.4334 1.12645e-18)
(17.3799 19.5307 -3.98611e-19)
(19.3469 19.2586 -8.45972e-19)
(21.2047 18.625 1.79198e-18)
(22.8818 17.6488 1.75802e-18)
(24.2924 16.3795 -1.4294e-18)
(25.3812 14.8886 0)
(26.1234 13.2219 -8.52104e-19)
(26.4692 11.4775 1.35499e-19)
(26.4005 9.80671 -9.79573e-21)
(25.9938 8.32147 3.56973e-19)
(25.3669 7.03633 -2.34438e-20)
(24.5937 5.94557 2.43914e-20)
(23.6983 5.05337 0)
(22.6987 4.36837 0)
(21.6033 3.88911 -1.78618e-18)
(20.3903 3.59566 1.57223e-18)
(18.9294 3.41363 -1.05662e-18)
(17.2512 3.23405 1.1002e-18)
(15.3075 2.9654 1.31154e-18)
(12.9049 2.54936 0)
(10.1667 2.02829 1.77576e-18)
(7.3964 1.50294 -2.11702e-18)
(4.93855 1.07485 -5.14972e-18)
(2.9998 0.792575 0)
(1.58356 0.64145 0)
(0.576535 0.57806 2.06355e-18)
(-0.143522 0.567773 1.76041e-17)
(-0.669116 0.592636 1.50906e-17)
(-1.06574 0.640447 3.05253e-17)
(-1.3869 0.691788 1.89253e-18)
(-1.6741 0.715442 0)
(-1.94173 0.666198 -7.9228e-19)
(-2.1852 0.481865 1.25276e-17)
(-2.4006 0.107903 6.79452e-20)
(-2.49662 -0.458493 1.79318e-17)
(-2.34306 -1.25637 1.52884e-17)
(-2.4166 -2.34806 1.29917e-17)
(10.8201 16.3037 -8.44681e-19)
(12.4282 17.0073 -1.0373e-20)
(13.9429 17.4863 1.11834e-18)
(15.5164 17.8553 -2.11149e-18)
(17.1539 18.0103 0)
(18.7924 17.8995 -5.22136e-19)
(20.3889 17.5092 1.40253e-18)
(21.8892 16.8345 -1.11538e-18)
(23.2186 15.8941 3.87622e-19)
(24.32 14.7288 8.343e-19)
(25.1608 13.3697 3.91152e-20)
(25.685 11.8847 -1.48675e-18)
(25.8475 10.3867 0)
(25.6747 8.97946 -6.56306e-20)
(25.2456 7.7111 -2.36882e-19)
(24.632 6.6059 2.65476e-19)
(23.8742 5.6779 6.13672e-19)
(23.0066 4.9433 -6.33125e-19)
(22.0666 4.41126 5.25299e-19)
(21.089 4.08162 0)
(20.0527 3.91264 -2.00424e-18)
(18.9845 3.81349 3.61178e-18)
(17.7847 3.6862 -3.06559e-18)
(16.1949 3.43087 -2.182e-20)
(14.118 3.01261 2.50105e-18)
(11.6198 2.46733 -2.84954e-18)
(8.94477 1.88657 0)
(6.42238 1.37635 1.0193e-17)
(4.31275 1.00703 4.90228e-18)
(2.70201 0.786437 2.87621e-18)
(1.52704 0.677999 -1.32108e-17)
(0.676778 0.640918 -3.66142e-18)
(0.0564921 0.648925 3.89245e-18)
(-0.409557 0.679079 -1.85433e-18)
(-0.788187 0.695671 -1.00238e-17)
(-1.12442 0.647896 -1.50289e-18)
(-1.44496 0.469544 0)
(-1.77341 0.100513 1.97342e-17)
(-2.0675 -0.466346 -1.67335e-17)
(-2.25743 -1.25193 -1.42065e-17)
(-2.60999 -2.24866 0)
(11.8213 15.1507 0)
(13.1585 15.6957 0)
(14.4099 16.0796 0)
(15.6918 16.3939 5.83536e-18)
(17.0202 16.5645 -3.33088e-18)
(18.3641 16.5498 1.49188e-18)
(19.7018 16.3303 1.33531e-18)
(20.9987 15.8903 -3.47323e-19)
(22.1982 15.229 -3.45099e-19)
(23.2508 14.3628 1.12265e-19)
(24.1245 13.3071 -1.10491e-19)
(24.7653 12.1021 5.1544e-19)
(25.1152 10.8241 -1.24887e-19)
(25.1649 9.55659 1.26496e-19)
(24.9548 8.35995 6.87746e-19)
(24.5377 7.2802 -5.83401e-19)
(23.9537 6.34328 -1.07111e-18)
(23.2386 5.57094 1.10397e-18)
(22.4338 4.97897 -8.65291e-19)
(21.5886 4.57645 0)
(20.7452 4.3511 -2.91229e-18)
(19.986 4.24973 2.0763e-18)
(19.2621 4.19784 8.32397e-19)
(18.3753 4.10195 -1.67926e-18)
(17.1635 3.88962 3.64096e-18)
(15.5012 3.52119 0)
(13.3791 3.00738 0)
(10.9418 2.41211 -2.60333e-18)
(8.45091 1.83056 -1.5388e-17)
(6.18224 1.35043 -7.32735e-18)
(4.31618 1.01746 8.60972e-18)
(2.8899 0.826149 2.48932e-18)
(1.83913 0.739607 -1.39286e-17)
(1.06977 0.714152 -2.98826e-18)
(0.489674 0.703845 1.83815e-17)
(0.0194926 0.653244 -2.99179e-18)
(-0.407019 0.492088 -1.09802e-17)
(-0.850645 0.152634 1.21837e-18)
(-1.31722 -0.382989 1.50359e-17)
(-1.78785 -1.12735 0)
(-2.42117 -2.03815 0)
(12.6795 14.0704 0)
(13.7929 14.4931 0)
(14.8295 14.7993 -2.1518e-19)
(15.8772 15.0599 -4.08651e-18)
(16.9537 15.2227 0)
(18.0458 15.2582 -3.34921e-18)
(19.1463 15.1491 -9.87292e-19)
(20.2366 14.8777 0)
(21.2786 14.4343 1.21372e-18)
(22.2353 13.8202 -1.05634e-18)
(23.081 13.0386 -2.45945e-19)
(23.7699 12.1077 -1.34842e-19)
(24.2432 11.0718 2.14233e-21)
(24.4721 9.98937 0)
(24.4666 8.91665 1.2624e-18)
(24.2552 7.90834 -1.02919e-18)
(23.8682 7.00045 0)
(23.3357 6.22037 0)
(22.694 5.58889 -8.45893e-19)
(21.986 5.11846 3.45943e-18)
(21.2624 4.81117 -1.84679e-18)
(20.633 4.64553 0)
(20.1051 4.5731 2.6117e-18)
(19.576 4.52982 9.79568e-20)
(18.9534 4.46171 -2.83262e-18)
(18.1059 4.31185 1.50566e-18)
(16.9025 4.03335 0)
(15.2726 3.60927 0)
(13.2536 3.06581 -1.99089e-18)
(10.9957 2.4678 9.03122e-18)
(8.71889 1.89743 -5.24052e-18)
(6.63929 1.42627 6.13609e-18)
(4.90186 1.09291 3.53501e-18)
(3.54888 0.894118 0)
(2.53302 0.788432 6.52767e-18)
(1.7633 0.706094 6.56032e-21)
(1.13441 0.561245 2.08476e-17)
(0.537709 0.272634 0)
(-0.0885664 -0.198322 -1.76214e-17)
(-0.775645 -0.868991 1.43323e-17)
(-1.66418 -1.69075 0)
(13.4107 13.0733 0)
(14.3394 13.402 -2.34412e-18)
(15.2003 13.645 2.13555e-18)
(16.0593 13.8568 0)
(16.9329 14.0007 3.37127e-18)
(17.8166 14.0573 -9.63336e-19)
(18.7113 14.0138 -1.15022e-17)
(19.6093 13.8551 1.28553e-17)
(20.4876 13.5698 -6.95222e-18)
(21.3217 13.1518 -4.49198e-18)
(22.0938 12.5978 3.01825e-18)
(22.7701 11.9112 7.30004e-19)
(23.2996 11.1126 -1.11055e-18)
(23.6473 10.2363 6.67901e-19)
(23.8041 9.32551 -1.72807e-18)
(23.7775 8.43084 1.29753e-18)
(23.5835 7.59181 9.22718e-19)
(23.243 6.83987 5.41941e-19)
(22.784 6.20016 2.34845e-18)
(22.2403 5.6887 -5.41001e-18)
(21.6521 5.31399 3.08164e-18)
(21.1214 5.0755 1.19456e-19)
(20.677 4.93915 5.19241e-19)
(20.2716 4.85766 0)
(19.8851 4.80619 -3.47073e-18)
(19.4652 4.75396 1.15773e-18)
(18.9233 4.66087 3.7485e-18)
(18.1507 4.48285 -2.5991e-18)
(17.0529 4.18599 5.57279e-18)
(15.5893 3.76207 -2.99796e-18)
(13.7982 3.23579 0)
(11.7951 2.65937 -5.54455e-18)
(9.74386 2.09723 -2.09699e-18)
(7.81214 1.60718 2.37728e-18)
(6.12561 1.22375 -1.61263e-17)
(4.74711 0.944157 -3.00373e-18)
(3.65503 0.717316 -6.40364e-18)
(2.74348 0.453977 6.8294e-18)
(1.89088 0.0736214 7.26118e-18)
(1.02233 -0.479506 -1.42373e-17)
(-0.0889694 -1.18858 -4.08287e-19)
(14.0302 12.165 0)
(14.8064 12.4215 1.28238e-19)
(15.5231 12.6135 1.93963e-18)
(16.2299 12.7831 7.0982e-18)
(16.9405 12.9045 -4.1667e-18)
(17.6551 12.9653 2.38045e-18)
(18.3782 12.9574 2.09234e-18)
(19.1081 12.8697 -1.10693e-17)
(19.8323 12.6918 2.1146e-18)
(20.5363 12.4161 4.12248e-18)
(21.2099 12.0368 -5.55205e-18)
(21.8305 11.5502 3.42828e-18)
(22.3589 10.9615 1.73103e-18)
(22.7631 10.2868 -5.73571e-19)
(23.0261 9.55374 0)
(23.1417 8.80146 0)
(23.1124 8.06532 -4.38628e-18)
(22.9487 7.37644 -8.62352e-19)
(22.6689 6.76178 4.15495e-18)
(22.2978 6.24093 -3.05304e-19)
(21.8649 5.82717 3.22008e-18)
(21.4516 5.53597 -6.36572e-18)
(21.0888 5.34261 3.27096e-18)
(20.7509 5.2031 0)
(20.4426 5.10391 -4.65059e-19)
(20.1593 5.03344 3.90483e-18)
(19.8792 4.97746 -4.9585e-18)
(19.5559 4.9139 4.13982e-18)
(19.1196 4.81165 -3.16542e-18)
(18.4892 4.63645 0)
(17.5958 4.36181 2.32151e-18)
(16.4066 3.97943 4.92081e-18)
(14.9402 3.50354 -2.65249e-18)
(13.2659 2.96684 2.89066e-18)
(11.4838 2.41049 1.56509e-18)
(9.71491 1.87561 -3.58877e-18)
(8.06704 1.38844 5.90951e-18)
(6.5873 0.943166 -4.26805e-18)
(5.25955 0.505977 -3.50058e-18)
(4.04996 0.0137089 -6.40777e-19)
(2.68396 -0.556207 1.04336e-17)
(14.5527 11.347 -2.03288e-18)
(15.2027 11.5478 -7.57698e-18)
(15.8007 11.699 7.44889e-18)
(16.3841 11.8333 0)
(16.9642 11.9325 -2.08902e-19)
(17.543 11.989 0)
(18.1262 11.998 -1.72351e-17)
(18.7154 11.9523 1.39e-17)
(19.3043 11.8435 9.93456e-18)
(19.8852 11.6652 -1.18114e-17)
(20.4533 11.4119 4.09163e-18)
(20.995 11.0771 -2.08053e-18)
(21.483 10.6584 -1.50671e-18)
(21.8923 10.1605 -3.33466e-18)
(22.2059 9.59838 2.93634e-20)
(22.4116 8.99779 3.34234e-18)
(22.5035 8.38525 -2.63733e-18)
(22.4828 7.78693 3.6243e-18)
(22.3584 7.22772 0)
(22.1462 6.72818 4.53172e-18)
(21.8662 6.30467 3.19618e-20)
(21.5782 5.98539 -4.95568e-18)
(21.3111 5.75555 4.38382e-20)
(21.0511 5.57392 0)
(20.805 5.42914 3.83166e-19)
(20.5776 5.31276 3.97849e-19)
(20.3711 5.21916 0)
(20.1807 5.1433 0)
(19.9903 5.07673 2.40491e-21)
(19.7672 5.00411 0)
(19.4628 4.90297 -2.68678e-18)
(19.0205 4.74767 0)
(18.3892 4.51626 3.8187e-18)
(17.5366 4.19656 -3.98188e-18)
(16.4542 3.788 0)
(15.169 3.30406 2.20403e-18)
(13.7359 2.76729 -2.36658e-18)
(12.2115 2.19734 1.33241e-18)
(10.6381 1.61503 4.30224e-18)
(9.10064 1.0224 -3.94748e-19)
(7.36465 0.422452 -9.9299e-18)
(14.9918 10.6178 5.39772e-18)
(15.5368 10.7756 2.09292e-19)
(16.0368 10.8942 -3.29732e-18)
(16.5199 10.9994 -6.30457e-18)
(16.9951 11.0786 -1.48226e-17)
(17.4654 11.1269 1.76196e-17)
(17.9364 11.1422 -4.25731e-19)
(18.4108 11.1198 -1.02683e-17)
(18.8861 11.0538 2.0291e-17)
(19.3586 10.9392 -5.52269e-19)
(19.8268 10.7719 -1.10213e-17)
(20.2833 10.5455 3.98542e-18)
(20.7104 10.2548 -7.46132e-18)
(21.0907 9.8988 1.13469e-17)
(21.4105 9.4841 -1.90003e-18)
(21.6577 9.02552 0)
(21.8231 8.54011 -7.91321e-18)
(21.9022 8.04667 7.16197e-18)
(21.8968 7.56489 7.69195e-18)
(21.8146 7.11298 -1.48523e-17)
(21.6672 6.70719 8.14139e-18)
(21.4941 6.38312 -4.26443e-19)
(21.3204 6.13576 -3.6383e-20)
(21.1427 5.92987 -5.02017e-18)
(20.9671 5.75698 1.01981e-17)
(20.7979 5.60928 -5.54239e-18)
(20.6385 5.48065 5.12492e-18)
(20.4919 5.36716 -6.20808e-18)
(20.3597 5.2667 -6.39883e-18)
(20.24 5.17715 5.73095e-18)
(20.1237 5.09391 1.46386e-18)
(19.9918 5.00773 2.22676e-18)
(19.8148 4.9042 -6.75714e-18)
(19.5565 4.76557 6.10205e-18)
(19.1781 4.57311 -3.1253e-18)
(18.6478 4.31268 -1.63236e-18)
(17.9477 3.97799 0)
(17.0725 3.56739 -1.71904e-18)
(16.012 3.08954 -1.81409e-18)
(14.8464 2.56146 -2.01707e-18)
(13.3491 1.97507 2.07979e-18)
(15.359 9.97343 1.45403e-20)
(15.8165 10.0975 7.56422e-19)
(16.2354 10.1902 2.88444e-18)
(16.6366 10.272 -5.48025e-18)
(17.0275 10.3338 2.18482e-17)
(17.4111 10.373 -2.03448e-17)
(17.7927 10.3888 2.5702e-17)
(18.1751 10.3782 1.42893e-17)
(18.5577 10.3374 -5.76358e-18)
(18.9392 10.2629 -7.90843e-19)
(19.3197 10.152 -1.78419e-17)
(19.6956 9.99947 2.43788e-19)
(20.0559 9.79989 0)
(20.3896 9.55012 -3.41044e-18)
(20.6871 9.25223 3.54882e-18)
(20.9389 8.91373 -3.72202e-18)
(21.136 8.54416 0)
(21.2722 8.15523 7.05914e-18)
(21.345 7.76044 -1.52369e-17)
(21.3566 7.37361 5.42391e-18)
(21.3118 7.0081 -7.63313e-18)
(21.2325 6.70076 8.57702e-18)
(21.1385 6.45367 2.60249e-19)
(21.0334 6.2388 -1.01494e-19)
(20.9232 6.05154 8.75131e-18)
(20.8119 5.88673 -8.8183e-18)
(20.7024 5.73915 2.82632e-19)
(20.5967 5.60413 5.77763e-19)
(20.4965 5.47813 -4.77423e-18)
(20.4038 5.35898 5.40828e-18)
(20.3203 5.24562 -6.06083e-19)
(20.2458 5.13721 6.13109e-19)
(20.1766 5.03176 -2.49976e-18)
(20.1036 4.92484 1.23328e-18)
(20.0109 4.8085 5.12195e-18)
(19.8774 4.67245 -1.30821e-18)
(19.6779 4.50568 1.32713e-18)
(19.3894 4.29699 -2.71374e-18)
(18.9746 4.03673 1.41083e-18)
(18.4606 3.73106 1.40869e-18)
(17.6851 3.34621 0)
(15.6642 9.4071 -8.27107e-18)
(16.0485 9.50463 1.52189e-17)
(16.3997 9.57679 1.50724e-17)
(16.7336 9.63999 -3.99533e-17)
(17.0563 9.68766 1.49695e-17)
(17.3706 9.71831 -3.29354e-17)
(17.681 9.7319 2.76339e-17)
(17.9903 9.72683 -4.11065e-17)
(18.2988 9.70053 3.97617e-17)
(18.6061 9.65061 -5.52651e-19)
(18.9134 9.57531 -1.70419e-17)
(19.2189 9.47108 -1.87239e-18)
(19.5162 9.33323 -1.49014e-17)
(19.7984 9.15847 1.47473e-17)
(20.0596 8.94683 -1.37661e-17)
(20.2931 8.70167 1.53209e-17)
(20.492 8.42768 0)
(20.6505 8.13127 -1.17154e-17)
(20.7648 7.8206 1.42996e-17)
(20.8339 7.50479 -1.28989e-17)
(20.8584 7.19327 -1.99887e-19)
(20.8471 6.91935 2.08033e-17)
(20.8141 6.68888 -1.0677e-19)
(20.7662 6.48031 -7.41119e-18)
(20.7083 6.29194 -1.40363e-23)
(20.6444 6.12133 0)
(20.5773 5.96557 -7.84357e-18)
(20.5091 5.82142 7.75304e-18)
(20.4408 5.68567 0)
(20.3731 5.5554 -5.04571e-19)
(20.3067 5.42834 0)
(20.2424 5.30299 4.21479e-18)
(20.1811 5.17866 -4.74905e-18)
(20.1231 5.0551 -4.31039e-18)
(20.0671 4.93168 8.67165e-18)
(20.0094 4.80756 -4.91925e-18)
(19.9429 4.68082 -5.62658e-19)
(19.8583 4.54804 1.1024e-18)
(19.7363 4.40302 -1.11933e-18)
(19.5764 4.24805 0)
(19.3172 4.05835 -1.19913e-18)
(15.9057 8.9338 0)
(16.231 9.01121 -2.06852e-17)
(16.528 9.06811 5.44874e-19)
(16.8087 9.11748 2.86012e-17)
(17.0781 9.1543 1.83129e-17)
(17.3389 9.17795 -1.87114e-17)
(17.5948 9.18883 1.79269e-17)
(17.8485 9.18602 1.76664e-17)
(18.1005 9.1678 3.45732e-17)
(18.3509 9.13256 -4.38279e-17)
(18.601 9.07913 4.35585e-18)
(18.8503 9.00493 4.15898e-18)
(19.0946 8.90637 -1.53832e-17)
(19.3299 8.78063 1.13154e-17)
(19.5526 8.62713 1.6459e-17)
(19.7583 8.44725 -1.26463e-17)
(19.9422 8.24311 -1.57053e-17)
(20.0998 8.01795 1.57864e-17)
(20.2274 7.77637 0)
(20.323 7.52391 1.76823e-18)
(20.3855 7.26659 1.76051e-18)
(20.4155 7.03219 1.39916e-17)
(20.4223 6.82772 -2.79954e-17)
(20.4134 6.6367 1.43132e-17)
(20.3925 6.45896 7.2124e-18)
(20.3625 6.2937 -1.54775e-19)
(20.326 6.13968 -7.32693e-18)
(20.2851 5.99527 1.14651e-19)
(20.241 5.85865 7.48976e-21)
(20.1943 5.72787 7.61886e-18)
(20.1453 5.60105 -7.69416e-18)
(20.0939 5.47649 -3.92629e-18)
(20.04 5.35283 4.18291e-18)
(19.9836 5.2292 -4.01198e-18)
(19.9245 5.10504 3.50451e-18)
(19.8628 4.98085 3.06824e-18)
(19.7982 4.85768 -1.5446e-18)
(19.7297 4.7364 5.27933e-19)
(19.654 4.61735 0)
(19.5692 4.50413 0)
(19.4676 4.39084 -2.55608e-20)
(16.0903 8.5551 -9.27661e-18)
(16.3699 8.6177 1.04143e-17)
(16.6249 8.66328 -4.51957e-18)
(16.8649 8.70218 -8.88668e-18)
(17.0938 8.73054 0)
(17.3143 8.74829 1.75864e-17)
(17.5296 8.75606 -4.32662e-17)
(17.7419 8.75333 2.65456e-17)
(17.9519 8.73896 -8.74469e-18)
(18.1599 8.71183 8.40069e-18)
(18.3671 8.67127 -4.17227e-18)
(18.5735 8.6154 -3.68342e-17)
(18.7765 8.54144 6.36171e-17)
(18.9735 8.44713 -2.72991e-17)
(19.1622 8.33172 -3.61244e-18)
(19.34 8.19567 -1.45001e-17)
(19.5033 8.03984 4.46356e-17)
(19.6489 7.86579 -1.95213e-17)
(19.774 7.676 -2.979e-17)
(19.8764 7.47375 1.22552e-17)
(19.9543 7.2627 -3.43949e-18)
(20.0047 7.06531 0)
(20.0332 6.88838 0)
(20.0472 6.71916 -1.403e-17)
(20.0488 6.55814 1.40407e-17)
(20.0403 6.40537 2.17464e-19)
(20.0237 6.2605 0)
(20.0007 6.12289 7.255e-18)
(19.9723 5.9917 -7.26701e-18)
(19.9396 5.86594 5.65611e-20)
(19.9029 5.74462 -5.87683e-20)
(19.8622 5.62673 0)
(19.8175 5.51139 3.5901e-18)
(19.7684 5.39778 -3.79368e-18)
(19.7144 5.28512 4.73803e-19)
(19.6552 5.17334 -4.78429e-19)
(19.5905 5.06296 0)
(19.5201 4.95439 -4.88214e-19)
(19.4443 4.84867 -1.00548e-18)
(19.3627 4.74831 4.96835e-19)
(19.2781 4.65363 1.5008e-18)
(16.2346 8.24803 0)
(16.4777 8.29935 0)
(16.6995 8.33622 -1.68211e-17)
(16.9074 8.36707 -3.33573e-17)
(17.1049 8.38886 5.0962e-17)
(17.2943 8.40185 -4.17828e-17)
(17.4784 8.40677 -1.64204e-17)
(17.659 8.40336 3.39471e-17)
(17.8369 8.39081 -3.35757e-17)
(18.0126 8.36837 3.3878e-17)
(18.187 8.33559 0)
(18.3604 8.29112 0)
(18.5311 8.23288 3.17149e-17)
(18.6973 8.15908 -6.18777e-17)
(18.8577 8.06905 6.01855e-17)
(19.0104 7.96285 -2.9583e-17)
(19.1531 7.84074 -3.67785e-18)
(19.2834 7.70339 3.37051e-17)
(19.3991 7.55209 -2.29306e-17)
(19.4984 7.38871 0)
(19.5793 7.21541 1.68216e-18)
(19.6373 7.05011 0)
(19.6761 6.89889 -1.46716e-17)
(19.7019 6.75172 2.84919e-17)
(19.7162 6.60935 -1.38225e-17)
(19.7204 6.47221 0)
(19.716 6.34045 0)
(19.7044 6.21397 6.60871e-18)
(19.6864 6.09248 -7.05107e-18)
(19.663 5.9756 -7.1439e-18)
(19.6345 5.86289 7.1939e-18)
(19.6015 5.75394 7.2389e-18)
(19.5639 5.64835 -7.26024e-18)
(19.5218 5.54577 0)
(19.475 5.44573 -5.81166e-20)
(19.4233 5.34821 0)
(19.3664 5.25347 -1.47313e-20)
(19.304 5.1614 -5.93193e-20)
(19.2362 5.07236 2.02477e-18)
(19.1629 4.98741 -2.86317e-18)
(19.0857 4.90665 9.44498e-19)
(16.3494 7.9942 0)
(16.5629 8.03667 -1.96738e-18)
(16.7576 8.06671 0)
(16.9397 8.09125 1.5771e-17)
(17.112 8.10785 -1.5846e-17)
(17.2766 8.11698 0)
(17.4359 8.11942 1.59839e-17)
(17.5916 8.11504 1.58502e-17)
(17.7444 8.10327 -4.10566e-17)
(17.8948 8.08359 0)
(18.0436 8.0557 3.25046e-17)
(18.1911 8.01865 -6.54404e-17)
(18.3361 7.97082 3.1897e-17)
(18.4774 7.91085 0)
(18.6143 7.83818 -2.97523e-17)
(18.7454 7.75274 3.31107e-17)
(18.8692 7.65453 3.21318e-17)
(18.9838 7.54379 -3.54817e-17)
(19.0877 7.42116 -3.42406e-18)
(19.1793 7.28772 0)
(19.257 7.14467 0)
(19.3158 7.00634 -1.73982e-18)
(19.358 6.87789 8.32747e-19)
(19.389 6.75132 1.36311e-17)
(19.4097 6.6274 9.02103e-19)
(19.4209 6.50672 -1.35983e-17)
(19.4239 6.38964 1.36886e-17)
(19.4196 6.27636 -1.32479e-17)
(19.4087 6.16691 -7.76547e-18)
(19.3919 6.06123 6.88448e-18)
(19.3698 5.95921 -6.95507e-18)
(19.3427 5.86073 6.94295e-18)
(19.311 5.7657 0)
(19.2749 5.67402 -7.50093e-18)
(19.2344 5.58546 7.09504e-18)
(19.1896 5.50014 0)
(19.1407 5.41835 1.38021e-20)
(19.0875 5.33993 1.85663e-18)
(19.0302 5.26503 -1.90831e-18)
(18.9687 5.19416 8.53474e-19)
(18.9038 5.12713 -8.92232e-19)
(16.4424 7.78109 0)
(16.6313 7.81648 1.81252e-18)
(16.8036 7.84104 -1.47331e-17)
(16.9643 7.86054 2.9444e-17)
(17.1159 7.873 -6.00023e-17)
(17.2603 7.87901 3.05321e-17)
(17.3996 7.87934 0)
(17.5352 7.87397 1.53516e-17)
(17.6678 7.86248 9.31618e-17)
(17.7978 7.84451 -6.31313e-17)
(17.926 7.81986 0)
(18.0527 7.78782 -7.99869e-18)
(18.177 7.74718 2.31471e-17)
(18.2981 7.69689 -2.89214e-19)
(18.4155 7.63649 -2.95755e-17)
(18.5282 7.56588 3.24487e-17)
(18.6352 7.48498 -2.84238e-17)
(18.7352 7.39383 2.77337e-17)
(18.8268 7.29276 -2.76789e-17)
(18.909 7.18238 -2.73203e-17)
(18.9804 7.06335 2.36268e-17)
(19.0362 6.94723 -1.18073e-17)
(19.078 6.83827 1.50342e-17)
(19.1103 6.73001 -1.4143e-17)
(19.1334 6.62317 -2.52777e-18)
(19.1482 6.51833 1.3287e-17)
(19.1554 6.41594 0)
(19.1556 6.31632 0)
(19.1496 6.21965 -1.25627e-17)
(19.1379 6.12604 1.3356e-17)
(19.1209 6.03558 0)
(19.099 5.94829 8.49532e-19)
(19.0727 5.86421 8.51654e-19)
(19.0421 5.78337 7.20796e-18)
(19.0075 5.70565 -7.19694e-18)
(18.9692 5.63122 -3.41677e-18)
(18.9274 5.56033 3.40671e-18)
(18.8822 5.49286 -1.28804e-18)
(18.8338 5.42892 3.43918e-18)
(18.7826 5.36883 -1.66575e-18)
(18.7287 5.31258 -2.13295e-19)
(16.5187 7.59987 1.31992e-17)
(16.6867 7.62949 1.64916e-17)
(16.8401 7.64959 -1.76399e-19)
(16.9829 7.66503 0)
(17.1172 7.67415 0)
(17.2448 7.67762 0)
(17.3675 7.67619 0)
(17.4866 7.6699 -5.85666e-17)
(17.6026 7.65846 1.04303e-16)
(17.716 7.64159 -6.04111e-17)
(17.8274 7.61919 6.04028e-17)
(17.9371 7.59071 -3.83864e-17)
(18.0444 7.55524 6.81239e-17)
(18.1489 7.51196 -8.12195e-17)
(18.25 7.46053 2.88731e-17)
(18.3472 7.40086 2.11242e-17)
(18.4396 7.33283 -2.77835e-17)
(18.5263 7.25644 3.36697e-18)
(18.6063 7.17183 -3.4142e-18)
(18.6789 7.07938 3.35176e-17)
(18.7427 6.97947 2.96228e-17)
(18.7937 6.88146 -4.93327e-17)
(18.8329 6.78887 -1.60538e-18)
(18.8641 6.69642 0)
(18.8873 6.60472 1.59787e-18)
(18.9033 6.51431 -1.63592e-18)
(18.9125 6.42564 -1.13224e-17)
(18.9155 6.33907 1.29218e-17)
(18.9127 6.25483 -1.29686e-17)
(18.9047 6.17311 1.29323e-17)
(18.8918 6.09407 1.2997e-17)
(18.8744 6.01781 -1.37606e-17)
(18.8529 5.94444 -8.04333e-19)
(18.8275 5.87402 6.52887e-18)
(18.7986 5.8065 -5.28008e-18)
(18.7664 5.74203 0)
(18.7312 5.68082 0)
(18.6932 5.62276 -4.06399e-19)
(18.6526 5.5679 8.25358e-19)
(18.6098 5.51647 8.26142e-19)
(18.565 5.46859 2.00095e-19)
(16.5819 7.44408 0)
(16.7322 7.46895 -3.08951e-18)
(16.8693 7.4854 2.52114e-17)
(16.9969 7.49752 -2.59365e-17)
(17.1165 7.50392 -5.24799e-17)
(17.2299 7.50532 5.40956e-17)
(17.3386 7.50245 2.7088e-17)
(17.4439 7.49537 -5.60309e-17)
(17.546 7.48388 -5.63756e-17)
(17.6456 7.46779 5.7562e-17)
(17.7431 7.44703 0)
(17.8387 7.42119 -2.92002e-17)
(17.9319 7.38958 5.85053e-17)
(18.0225 7.35159 -6.45826e-17)
(18.1099 7.30694 0)
(18.1939 7.25558 -6.89616e-18)
(18.2738 7.1974 6.78609e-18)
(18.3489 7.13238 0)
(18.4184 7.06061 3.24602e-18)
(18.4817 6.98231 -6.43612e-18)
(18.5378 6.89772 2.89714e-17)
(18.5833 6.81451 -2.87494e-17)
(18.6189 6.73557 3.19633e-18)
(18.6477 6.65655 2.36456e-17)
(18.6697 6.57796 -2.35632e-17)
(18.6854 6.50029 1.55071e-18)
(18.6952 6.42393 -1.40963e-17)
(18.6996 6.34923 1.2508e-17)
(18.6989 6.27644 1.5779e-18)
(18.6934 6.20577 0)
(18.6837 6.13739 0)
(18.67 6.07143 0)
(18.6526 6.00801 -6.26788e-18)
(18.6318 5.9472 6.24521e-18)
(18.6079 5.889 -7.75734e-19)
(18.5812 5.83352 -6.27448e-18)
(18.552 5.78092 7.03701e-18)
(18.5204 5.73111 0)
(18.4868 5.68411 9.3305e-21)
(18.4514 5.64005 -1.563e-18)
(18.4142 5.59913 7.6307e-19)
(16.6347 7.30891 1.12048e-17)
(16.7696 7.32984 0)
(16.8927 7.34326 -5.83846e-17)
(17.0071 7.35264 4.826e-17)
(17.1142 7.35683 0)
(17.2154 7.35656 5.03177e-17)
(17.3123 7.35251 -2.25314e-19)
(17.4057 7.34478 5.25124e-17)
(17.4962 7.33323 -8.07728e-17)
(17.5841 7.31772 -5.42706e-17)
(17.6698 7.29824 5.53911e-17)
(17.7536 7.27446 1.38434e-17)
(17.835 7.24587 0)
(17.9138 7.212 0)
(17.9898 7.17265 -1.3576e-17)
(18.0625 7.12779 5.93132e-17)
(18.1316 7.07736 -1.17092e-16)
(18.1965 7.02132 5.14825e-17)
(18.2567 6.95974 6.40623e-18)
(18.3116 6.8928 6.35629e-18)
(18.3604 6.82062 -3.08409e-18)
(18.4004 6.74957 4.63459e-17)
(18.4321 6.68203 -7.96323e-17)
(18.4579 6.61436 1.50576e-18)
(18.478 6.547 2.28072e-17)
(18.4926 6.48036 0)