/*--------------------------------*- C++ -*----------------------------------*\
| =========                 |                                                 |
| \\      /  F ield         | OpenFOAM: The Open Source CFD Toolbox           |
|  \\    /   O peration     | Version:  5.x                                   |
|   \\  /    A nd           | Web:      www.OpenFOAM.org                      |
|    \\/     M anipulation  |                                                 |
\*---------------------------------------------------------------------------*/
FoamFile
{
    version     2.0;
    format      ascii;
    class       volVectorField;
    location    "600";
    object      U;
}
// * * * * * * * * * * * * * * * * * * * * * * * * * * * * * * * * * * * * * //

dimensions      [0 1 -1 0 0 0 0];

internalField   nonuniform List<vector> 
41860
(
(164.687 251.402 0)
(244.623 188.449 4.44665e-16)
(282.66 114.921 1.47444e-16)
(255.237 85.7231 -3.93253e-16)
(240.843 67.5708 -9.7447e-22)
(225.039 54.5042 -2.76559e-16)
(209.751 44.7387 -3.33668e-16)
(196.704 37.4973 3.91723e-16)
(185.412 31.9236 0)
(175.468 27.4703 -5.04605e-16)
(166.503 23.8513 5.6896e-16)
(158.512 20.8377 6.06763e-16)
(150.956 18.2774 -5.2437e-21)
(145.044 16.1983 6.91963e-16)
(139.23 14.3604 -7.8554e-16)
(135.616 12.9425 -7.78704e-16)
(131.756 11.6147 8.25805e-16)
(128.555 10.4762 -8.51936e-16)
(125.806 9.45572 -8.55604e-16)
(122.529 8.48557 9.12568e-16)
(120.49 7.67213 -8.91248e-16)
(117.666 6.86254 -2.54692e-21)
(115.657 6.16425 -5.79514e-21)
(113.72 5.50905 3.53346e-21)
(111.58 4.88941 1.89707e-15)
(110.24 4.3397 -9.18167e-16)
(108.352 3.79889 0)
(106.778 3.30411 -4.60188e-16)
(105.431 2.84111 4.6081e-16)
(104.144 2.40367 0)
(102.802 1.98887 3.41986e-21)
(101.266 1.5898 -3.38666e-21)
(100.137 1.22188 -2.95584e-21)
(99.2852 0.868803 6.52867e-21)
(98.0658 0.534543 2.10041e-16)
(97.3319 0.213825 0)
(96.3362 -0.0889993 -2.51393e-17)
(95.5128 -0.382215 1.98195e-16)
(94.938 -0.659512 -1.91433e-16)
(94.4985 -0.932648 3.7206e-16)
(93.9428 -1.18843 0)
(93.467 -1.43976 -1.40337e-15)
(88.6965 -1.57771 0)
(88.2972 -1.75966 3.95948e-21)
(87.3431 -1.91242 9.5555e-16)
(87.0541 -2.07473 -1.82083e-21)
(86.4497 -2.21928 1.81842e-21)
(85.8426 -2.35473 9.62712e-16)
(85.2786 -2.48625 -1.93256e-15)
(84.7361 -2.60687 -9.70935e-16)
(84.2203 -2.72743 -1.86313e-21)
(83.7299 -2.83603 9.78537e-16)
(83.2611 -2.94644 -9.81872e-16)
(82.8131 -3.04615 1.88312e-21)
(82.3906 -3.14844 6.54095e-24)
(81.6431 -3.22746 6.55683e-24)
(81.28 -3.32156 -1.90949e-21)
(81.1753 -3.41933 0)
(80.5553 -3.49493 -2.01134e-15)
(80.4435 -3.58857 -1.91672e-21)
(80.1615 -3.67395 1.99392e-15)
(79.7683 -3.76108 -2.01404e-15)
(79.1946 -3.84572 2.02169e-15)
(78.9948 -3.94249 -4.04141e-15)
(78.3799 -4.02157 2.03298e-15)
(78.1347 -4.11327 -2.02612e-15)
(77.4321 -4.18428 0)
(76.9688 -4.26173 9.78714e-22)
(76.5618 -4.34487 3.52419e-24)
(76.1507 -4.42668 -2.02977e-15)
(75.1974 -4.47474 -3.78702e-24)
(74.6995 -4.55142 9.91987e-22)
(74.0535 -4.61727 4.13095e-15)
(72.9439 -4.65324 -5.03464e-22)
(71.962 -4.69678 4.29438e-15)
(71.1191 -4.74936 0)
(69.8129 -4.76946 -8.6479e-15)
(68.2971 -4.77351 -2.61538e-22)
(66.8377 -4.77878 4.4872e-15)
(64.4277 -4.71477 -4.48423e-15)
(65.4986 -4.89547 4.5894e-15)
(-0.214605 -0.211926 -7.65761e-15)
(211.437 312.172 0)
(300.186 231.328 -1.9154e-16)
(329.346 134.14 -6.05302e-17)
(294.074 99.2611 1.59823e-16)
(280.282 78.7895 0)
(264.925 64.3087 4.50009e-22)
(251.895 53.8561 2.78758e-16)
(241.256 46.1083 6.18663e-22)
(232.213 40.0922 1.94368e-16)
(224.439 35.24 2.23121e-16)
(217.829 31.3011 -2.56811e-16)
(211.401 27.8823 -5.57827e-16)
(206.436 25.0836 5.211e-23)
(200.965 22.5253 -2.47592e-21)
(197.822 20.483 0)
(194.378 18.6228 0)
(192.201 17.0119 -3.96032e-16)
(190.299 15.5724 0)
(188.261 14.2099 4.10323e-16)
(187.18 13.0206 0)
(185.193 11.8448 8.52718e-16)
(183.955 10.7796 -4.50294e-16)
(182.411 9.7698 -4.44244e-16)
(180.68 8.79734 0)
(179.435 7.90499 -2.00999e-21)
(177.394 7.02159 -4.45138e-16)
(176.061 6.20994 0)
(174.399 5.43092 0)
(172.665 4.68434 -6.57264e-22)
(170.886 3.97393 0)
(169.201 3.30174 0)
(167.708 2.65965 0)
(165.93 2.04877 2.14091e-16)
(164.028 1.45804 0)
(162.4 0.906589 -1.03775e-16)
(160.495 0.372303 1.57541e-21)
(158.822 -0.127892 -1.5202e-21)
(157.073 -0.611374 -4.93549e-17)
(155.193 -1.06248 9.55029e-17)
(153.242 -1.4978 -2.0897e-22)
(151.523 -1.90311 -1.38109e-21)
(149.602 -2.29322 7.01169e-16)
(150.971 -2.67306 0)
(150.4 -2.98384 4.78228e-16)
(149.661 -3.26424 -4.82457e-16)
(148.478 -3.52713 1.84894e-21)
(147.467 -3.77434 4.87624e-16)
(146.496 -4.00775 -4.91925e-16)
(145.52 -4.23226 3.11819e-22)
(144.567 -4.43774 4.96993e-16)
(143.624 -4.64182 0)
(142.698 -4.82441 -5.01492e-16)
(141.79 -5.00915 1.92382e-21)
(140.894 -5.17441 6.79384e-24)
(140.009 -5.34216 -1.928e-21)
(139.336 -5.50024 9.76582e-22)
(138.464 -5.65156 -1.94692e-21)
(137.45 -5.78295 9.74854e-22)
(136.78 -5.92768 1.02331e-15)
(135.803 -6.05225 9.82565e-22)
(134.977 -6.18032 -1.0214e-15)
(134.204 -6.32171 1.03157e-15)
(133.5 -6.47709 -9.77864e-22)
(132.489 -6.60674 1.03417e-15)
(131.74 -6.75389 -1.03219e-15)
(130.684 -6.87431 -9.86408e-22)
(129.905 -7.01419 0)
(128.909 -7.13265 1.0398e-15)
(127.816 -7.24865 -1.80209e-24)
(126.702 -7.35987 2.39052e-22)
(125.767 -7.47878 1.05885e-15)
(124.497 -7.58064 0)
(123.216 -7.67714 -2.11374e-15)
(122.028 -7.77886 -2.20106e-24)
(120.635 -7.86832 -2.18977e-15)
(118.937 -7.93708 -2.20037e-15)
(117.329 -8.00951 2.21314e-15)
(115.312 -8.05327 -2.2601e-15)
(113.393 -8.10094 -2.3143e-15)
(109.796 -8.02745 0)
(111.364 -8.30138 -2.37026e-15)
(6.22085 -0.677493 1.23585e-14)
(232.566 341.727 -4.63832e-18)
(329.567 254.174 0)
(354.896 144.673 4.61705e-17)
(315.534 106.619 1.21153e-16)
(301.695 84.8585 0)
(286.411 69.5644 0)
(274.421 58.7037 -1.01388e-16)
(264.951 50.6632 0)
(257.032 44.4001 -1.36195e-16)
(250.355 39.329 -1.1912e-21)
(244.912 35.2106 1.73746e-16)
(239.267 31.5733 7.11689e-21)
(235.39 28.6162 2.11591e-16)
(230.094 25.8029 2.16242e-16)
(227.584 23.5758 0)
(223.986 21.4694 2.37357e-16)
(221.884 19.6477 0)
(219.949 18.0064 2.49082e-16)
(217.793 16.4457 2.47566e-16)
(216.72 15.0816 -2.56071e-16)
(214.569 13.7292 -2.49761e-16)
(213.401 12.5102 2.59129e-16)
(211.592 11.3374 2.53572e-16)
(209.881 10.2234 2.55616e-16)
(208.362 9.18332 -1.1888e-21)
(206.335 8.17072 2.51713e-16)
(204.885 7.23014 0)
(202.918 6.32223 -1.24072e-16)
(201.221 5.46194 -3.85551e-22)
(199.305 4.63765 0)
(197.484 3.85641 1.89112e-21)
(195.686 3.10594 1.21638e-16)
(193.757 2.39462 1.19993e-16)
(191.859 1.7077 6.01822e-17)
(189.893 1.06223 0)
(187.959 0.438088 1.79962e-21)
(185.911 -0.147647 -7.13541e-18)
(183.943 -0.714042 -2.83501e-17)
(181.779 -1.24271 -5.53408e-17)
(179.657 -1.75421 -1.09995e-16)
(177.477 -2.2273 -3.2536e-21)
(175.183 -2.68456 2.95853e-21)
(177.472 -3.14181 9.13417e-24)
(176.837 -3.50709 -2.69031e-16)
(175.825 -3.83371 2.69023e-16)
(174.668 -4.14821 -2.73621e-16)
(173.523 -4.44006 -2.75037e-16)
(172.422 -4.71587 0)
(171.307 -4.98115 2.79317e-16)
(170.215 -5.22399 2.81231e-16)
(169.13 -5.46512 1.0815e-21)
(168.059 -5.68081 -9.30027e-22)
(167.004 -5.89895 2.86076e-16)
(165.96 -6.09399 -1.09932e-21)
(164.922 -6.29169 -5.77283e-16)
(163.97 -6.47166 -1.1047e-21)
(162.941 -6.64981 5.78579e-16)
(161.904 -6.81094 0)
(160.945 -6.97412 0)
(159.946 -7.12744 5.91132e-16)
(158.946 -7.27701 0)
(158.03 -7.44315 1.13645e-21)
(157.033 -7.61803 -1.68385e-21)
(155.984 -7.77754 5.6964e-22)
(154.944 -7.94266 0)
(153.834 -8.09122 6.01226e-16)
(152.779 -8.24836 -6.00876e-16)
(151.599 -8.38738 -1.20107e-15)
(150.462 -8.5321 -6.14525e-16)
(149.125 -8.66139 -4.49689e-22)
(147.933 -8.79604 -6.13235e-16)
(146.583 -8.92458 0)
(145.077 -9.03817 -2.95409e-22)
(143.618 -9.15406 1.25063e-15)
(142.039 -9.26334 -1.27022e-15)
(140.21 -9.35548 1.28578e-15)
(138.275 -9.43804 1.28481e-15)
(136.025 -9.49846 1.30966e-15)
(133.887 -9.56332 4.13379e-22)
(129.988 -9.50275 0)
(131.607 -9.78307 0)
(19.0059 -1.65143 -1.35558e-14)
(248.711 365.749 1.07718e-17)
(356.365 275.133 0)
(380.072 155.109 1.23247e-20)
(336.58 113.806 -1.1251e-16)
(321.911 90.5949 0)
(306.526 74.4863 5.86938e-22)
(294.867 63.1043 -6.32565e-22)
(285.736 54.658 0)
(278.125 48.0598 -1.67533e-21)
(271.742 42.7016 1.7785e-21)
(266.556 38.3331 1.30862e-16)
(261.268 34.4852 1.40136e-16)
(257.483 31.3098 -1.55003e-16)
(252.486 28.3205 -3.20351e-16)
(249.533 25.8549 -2.63714e-21)
(245.75 23.5603 -1.73779e-16)
(243.143 21.5337 0)
(240.8 19.7166 -1.80194e-16)
(238.349 18.0005 -1.78989e-16)
(236.761 16.4786 1.84013e-16)
(234.455 15.0039 -1.79925e-16)
(232.91 13.6558 -3.70518e-16)
(230.898 12.3738 -1.10899e-21)
(229.026 11.1578 -3.65891e-16)
(227.247 10.0174 -1.83035e-16)
(225.196 8.91928 0)
(223.533 7.8898 0)
(221.466 6.9017 1.78646e-16)
(219.69 5.96478 -9.06509e-17)
(217.722 5.0677 8.93204e-17)
(215.823 4.21595 0)
(213.899 3.3964 -8.79701e-17)
(211.928 2.62055 -8.69491e-17)
(210.034 1.87082 -4.36005e-17)
(207.983 1.16473 0)
(206.055 0.48158 2.62042e-21)
(203.934 -0.16067 -2.5348e-21)
(201.918 -0.782522 2.08185e-17)
(199.734 -1.36414 -4.08298e-17)
(197.615 -1.92824 0)
(195.358 -2.45038 0)
(193.008 -2.95784 -3.13678e-16)
(194.654 -3.44656 0)
(193.976 -3.84643 1.95586e-16)
(192.836 -4.20389 0)
(191.675 -4.55138 -1.36141e-21)
(190.465 -4.8728 1.52598e-21)
(189.292 -5.17654 -2.02494e-16)
(188.109 -5.46897 2.03863e-16)
(186.948 -5.73681 -2.05437e-16)
(185.795 -6.00287 0)
(184.656 -6.24108 2.08263e-16)
(183.532 -6.48202 -2.09573e-16)
(182.419 -6.69761 0)
(181.311 -6.91624 1.93446e-22)
(180.226 -7.11252 1.62455e-21)
(179.13 -7.30979 -8.51946e-16)
(178.08 -7.49069 8.251e-22)
(176.994 -7.66887 -8.18173e-22)
(175.977 -7.84113 -4.36259e-16)
(174.91 -8.00721 8.31021e-22)
(173.917 -8.19069 -8.37938e-22)
(172.793 -8.38186 0)
(171.713 -8.56101 4.43486e-16)
(170.541 -8.74138 -2.83575e-24)
(169.391 -8.90867 -4.46567e-16)
(168.196 -9.07987 4.47067e-16)
(166.925 -9.23448 4.47304e-16)
(165.732 -9.39717 4.57305e-16)
(164.305 -9.54215 9.03032e-16)
(162.952 -9.68815 4.57509e-16)
(161.535 -9.83389 -4.41775e-22)
(159.915 -9.96153 9.23037e-16)
(158.282 -10.0876 -9.3409e-16)
(156.565 -10.2095 1.8964e-15)
(154.634 -10.3165 -4.56229e-22)
(152.501 -10.4076 -9.59048e-16)
(150.064 -10.4773 -9.76126e-16)
(147.743 -10.5511 9.96071e-16)
(143.59 -10.4964 1.01055e-15)
(145.296 -10.7654 1.02251e-15)
(36.6248 -3.09925 1.42429e-14)
(260.808 384.071 -5.82677e-18)
(378.706 292.751 -1.06479e-16)
(402.978 164.688 -3.66387e-17)
(355.718 120.377 9.46041e-17)
(339.171 95.5166 5.33168e-17)
(323.454 78.6455 5.96806e-17)
(311.352 66.6653 6.73838e-17)
(301.872 57.7699 -1.10968e-21)
(294.044 50.8306 8.20622e-17)
(287.547 45.2012 1.34325e-21)
(282.263 40.6055 -9.83205e-17)
(277.175 36.5962 3.25029e-21)
(273.301 33.2434 -3.51063e-21)
(268.717 30.1498 1.21164e-16)
(265.474 27.5143 4.0921e-21)
(261.727 25.099 -8.17388e-21)
(258.836 22.9293 8.45767e-21)
(256.284 20.9897 -4.26837e-21)
(253.705 19.1647 0)
(251.837 17.5319 0)
(249.487 15.9696 2.85957e-16)
(247.715 14.5272 1.47516e-16)
(245.643 13.1674 -1.45972e-16)
(243.669 11.8742 1.46683e-16)
(241.792 10.6615 -1.47753e-16)
(239.715 9.49708 2.22929e-21)
(237.939 8.40084 -2.26099e-21)
(235.869 7.35307 -2.98213e-22)
(234.02 6.35624 -2.25357e-21)
(232.035 5.40314 -1.45236e-16)
(230.099 4.49699 0)
(228.147 3.62474 7.19625e-17)
(226.161 2.79858 1.40694e-23)
(224.239 1.99932 3.56257e-17)
(222.185 1.24617 3.50058e-17)
(220.232 0.516588 8.76232e-18)
(218.115 -0.170018 4.29482e-18)
(216.08 -0.835599 0)
(213.901 -1.4591 3.36384e-17)
(211.77 -2.0646 -2.04821e-21)
(209.52 -2.62623 1.9981e-21)
(207.16 -3.17424 2.59473e-16)
(208.217 -3.68677 0)
(207.505 -4.11379 0)
(206.323 -4.49682 -1.62157e-16)
(205.121 -4.8695 1.64526e-16)
(203.866 -5.21454 0)
(202.646 -5.54061 1.67418e-16)
(201.418 -5.85478 1.16044e-21)
(200.21 -6.14267 -2.59437e-21)
(199.01 -6.42877 -4.856e-24)
(197.825 -6.6851 -1.7254e-16)
(196.654 -6.94442 -1.32296e-21)
(195.494 -7.17663 0)
(194.34 -7.4122 3.51621e-16)
(193.2 -7.62352 -3.53873e-16)
(192.059 -7.83635 7.0946e-16)
(190.962 -8.03154 3.58819e-16)
(189.827 -8.22388 -3.58137e-16)
(188.76 -8.40968 1.38614e-21)
(187.649 -8.58938 4.44127e-24)
(186.599 -8.78699 -3.6624e-16)
(185.424 -8.99352 -1.3885e-21)
(184.284 -9.18672 -3.69419e-16)
(183.053 -9.38165 7.04235e-22)
(181.84 -9.5623 3.7227e-16)
(180.576 -9.74708 0)
(179.24 -9.91457 0)
(177.969 -10.0898 0)
(176.478 -10.2478 -3.76894e-16)
(175.033 -10.4051 -3.82858e-16)
(173.53 -10.5627 0)
(171.827 -10.702 -7.70849e-16)
(170.086 -10.8384 0)
(168.258 -10.9703 -7.93596e-16)
(166.214 -11.0873 1.82066e-24)
(163.955 -11.1873 -7.65376e-22)
(161.364 -11.2641 8.16312e-16)
(158.893 -11.3445 8.32561e-16)
(154.497 -11.2926 -8.41467e-16)
(156.306 -11.5405 9.51121e-22)
(56.1978 -4.71802 0)
(269.842 397.788 1.06892e-17)
(396.602 307.041 1.80178e-16)
(421.444 172.525 0)
(371.28 125.781 -1.52315e-16)
(352.795 99.436 -8.53105e-17)
(336.725 81.9311 -9.5425e-17)
(324.158 69.4503 -1.07652e-16)
(314.355 60.192 3.63892e-21)
(306.356 52.9854 -1.31562e-16)
(299.794 47.1479 7.20716e-17)
(294.482 42.3812 2.45287e-21)
(289.574 38.2483 -2.56215e-21)
(285.709 34.766 0)
(281.484 31.5942 0)
(278.201 28.8439 3.36512e-21)
(274.602 26.3432 -1.11029e-16)
(271.605 24.0687 3.50739e-21)
(268.967 22.0358 -1.18334e-16)
(266.346 20.1259 1.187e-16)
(264.321 18.4068 -3.78981e-21)
(261.972 16.7741 -1.21693e-16)
(260.067 15.2564 3.86029e-21)
(257.981 13.8333 -3.79825e-21)
(255.954 12.4771 1.25823e-16)
(254.033 11.2053 2.54472e-16)
(251.949 9.98554 1.25339e-16)
(250.109 8.83406 -1.28411e-16)
(248.057 7.73643 -6.28556e-17)
(246.163 6.68926 3.8739e-21)
(244.176 5.68894 6.29387e-17)
(242.225 4.73688 0)
(240.268 3.82013 -6.25957e-17)
(238.28 2.95124 3.77061e-21)
(236.338 2.10981 -3.09978e-17)
(234.296 1.31662 -3.05231e-17)
(232.325 0.547406 -7.63078e-18)
(230.226 -0.177072 0)
(228.183 -0.880064 0)
(226.019 -1.53945 2.9405e-17)
(223.88 -2.18042 -1.77925e-21)
(221.65 -2.77602 0)
(219.295 -3.3592 -1.63595e-22)
(219.866 -3.89266 -2.12796e-21)
(219.121 -4.34282 2.1526e-21)
(217.921 -4.7481 1.42414e-16)
(216.679 -5.14238 1.44372e-16)
(215.393 -5.50786 4.43708e-21)
(214.136 -5.85329 8.83198e-24)
(212.874 -6.18632 -1.4818e-16)
(211.631 -6.49164 -8.62061e-24)
(210.396 -6.79514 4.59754e-21)
(209.175 -7.06726 1.51768e-16)
(207.969 -7.34257 1.52851e-16)
(206.772 -7.58928 0)
(205.583 -7.83963 -3.09596e-16)
(204.408 -8.06443 3.12063e-16)
(203.231 -8.29088 -6.25834e-16)
(202.089 -8.49823 -1.59037e-22)
(200.924 -8.70333 3.16106e-16)
(199.81 -8.90068 0)
(198.664 -9.09233 0)
(197.57 -9.30231 3.2312e-16)
(196.361 -9.52262 2.45766e-21)
(195.166 -9.72781 -1.24179e-21)
(193.895 -9.93585 0)
(192.623 -10.1279 -9.38232e-23)
(191.31 -10.325 0)
(189.919 -10.5038 3.30852e-16)
(188.576 -10.6896 3.37039e-16)
(187.034 -10.8592 3.3305e-16)
(185.518 -11.0267 3.38689e-16)
(183.937 -11.1944 0)
(182.164 -11.344 -6.51131e-22)
(180.338 -11.4897 6.91769e-16)
(178.415 -11.6304 0)
(176.269 -11.7557 0)
(173.909 -11.8639 0)
(171.186 -11.947 0)
(168.583 -12.0327 -7.35978e-16)
(163.974 -11.9838 7.42227e-16)
(165.865 -12.2025 -1.51588e-15)
(74.8118 -6.27376 2.65777e-14)
(276.411 407.916 -9.37236e-18)
(411.273 318.963 -1.58154e-16)
(436.497 179.057 -3.8184e-22)
(384.104 130.299 6.36472e-17)
(364.014 102.703 8.09859e-21)
(347.639 84.66 4.02861e-17)
(334.748 71.7734 9.13594e-17)
(324.729 62.2202 -5.09043e-17)
(316.631 54.7956 5.62183e-17)
(310.05 48.7875 -2.92385e-21)
(304.754 43.8818 6.81474e-17)
(300.001 39.6444 4.51152e-21)
(296.192 36.0579 -4.91294e-21)
(292.258 32.8178 5.22293e-21)
(289.033 29.9799 -1.15493e-20)
(285.617 27.4116 1.42942e-20)
(282.612 25.0542 8.7984e-23)
(279.954 22.945 1.03929e-16)
(277.335 20.9643 -1.04611e-16)
(275.224 19.1734 6.63082e-21)
(272.897 17.4803 -1.07907e-16)
(270.918 15.8991 6.79598e-21)
(268.836 14.4211 1.11453e-16)
(266.789 13.0106 -9.297e-22)
(264.847 11.6873 -1.47827e-20)
(262.774 10.4192 -2.24417e-16)
(260.897 9.21953 1.15149e-16)
(258.868 8.07779 3.45773e-21)
(256.951 6.98639 -3.48167e-21)
(254.971 5.94424 0)
(253.016 4.95151 -3.4674e-21)
(251.062 3.9952 5.64287e-17)
(249.078 3.08829 -5.59137e-17)
(247.128 2.20932 2.79663e-17)
(245.099 1.3804 0)
(243.12 0.57583 0)
(241.038 -0.182483 0)
(238.994 -0.918919 -3.3135e-21)
(236.846 -1.61041 -2.66016e-17)
(234.709 -2.28315 3.2196e-21)
(232.499 -2.90916 -3.18483e-21)
(230.155 -3.52406 -1.86492e-22)
(230.326 -4.07709 7.69641e-21)
(229.546 -4.54787 1.28288e-16)
(228.333 -4.97313 1.29363e-16)
(227.062 -5.38691 -1.31138e-16)
(225.75 -5.77085 -4.02352e-21)
(224.465 -6.13378 -1.33655e-16)
(223.175 -6.48387 4.10344e-21)
(221.904 -6.80496 0)
(220.64 -7.12422 0)
(219.39 -7.41065 0)
(218.154 -7.70046 -2.78247e-16)
(216.928 -7.96033 2.80389e-16)
(215.708 -8.22408 5.63853e-16)
(214.504 -8.46108 0)
(213.298 -8.69991 -2.0116e-21)
(212.119 -8.91837 -2.88142e-16)
(210.927 -9.13502 2.88211e-16)
(209.774 -9.34293 -2.91605e-16)
(208.6 -9.54545 -2.91086e-16)
(207.468 -9.76668 2.9465e-16)
(206.228 -9.99946 0)
(204.988 -10.2156 0)
(203.68 -10.4355 0)
(202.36 -10.6381 -2.99912e-16)
(201.002 -10.8462 -1.14883e-21)
(199.565 -11.0354 -3.02026e-16)
(198.16 -11.2308 -3.07568e-16)
(196.573 -11.411 -3.03979e-16)
(194.993 -11.5878 -3.09219e-16)
(193.345 -11.7647 0)
(191.511 -11.9237 0)
(189.609 -12.0779 -6.31561e-16)
(187.602 -12.2266 -1.22252e-21)
(185.366 -12.3594 6.14268e-22)
(182.915 -12.475 0)
(180.075 -12.5639 6.58563e-16)
(177.356 -12.6542 -6.40224e-22)
(172.559 -12.6093 -6.76072e-16)
(174.507 -12.7911 6.92699e-16)
(91.0624 -7.66717 -2.35571e-14)
(280.953 415.145 1.46012e-17)
(423.586 329.204 7.15055e-17)
(449.451 184.838 2.20122e-22)
(395.317 134.321 -5.59147e-17)
(373.87 105.616 3.19907e-17)
(357.207 87.0811 -3.58451e-17)
(344.073 73.8398 -7.42204e-21)
(333.892 64.0273 4.5556e-17)
(325.721 56.4094 5.03394e-17)
(319.134 50.2497 -1.10608e-16)
(313.864 45.2206 -6.10699e-17)
(309.237 40.8875 0)
(305.495 37.21 4.49401e-21)
(301.791 33.9055 -4.5746e-21)
(298.658 30.9938 8.48049e-17)
(295.427 28.3672 8.66102e-17)
(292.467 25.9403 9.12757e-17)
(289.829 23.7654 9.40071e-17)
(287.238 21.7227 0)
(285.082 19.869 9.93872e-17)
(282.789 18.1221 1.47714e-21)
(280.772 16.4848 0)
(278.704 14.9574 -1.01919e-16)
(276.656 13.4982 -1.02847e-16)
(274.707 12.1285 -1.04398e-16)
(272.654 10.8166 1.03035e-16)
(270.759 9.57338 6.48536e-21)
(268.753 8.39133 -6.31528e-21)
(266.828 7.25976 0)
(264.86 6.17938 5.21761e-17)
(262.908 5.14945 6.39542e-21)
(260.96 4.15688 -5.20775e-17)
(258.984 3.21511 1.03252e-16)
(257.033 2.30173 -5.16675e-17)
(255.017 1.43998 -2.54657e-17)
(253.036 0.602929 -6.20622e-21)
(250.97 -0.186491 0)
(248.928 -0.953686 0)
(246.797 -1.67471 2.46212e-17)
(244.665 -2.37672 0)
(242.473 -3.03068 -4.8195e-17)
(240.144 -3.67498 -1.78166e-22)
(239.98 -4.2468 0)
(239.162 -4.73645 -1.19025e-16)
(237.938 -5.18009 -2.40207e-16)
(236.645 -5.61197 -3.72406e-21)
(235.313 -6.013 -1.22715e-16)
(234.003 -6.39217 2.4836e-16)
(232.69 -6.75808 -1.25213e-16)
(231.395 -7.09382 1.26363e-16)
(230.107 -7.42772 -3.88164e-21)
(228.832 -7.72743 -3.92652e-21)
(227.57 -8.03073 1.29411e-16)
(226.318 -8.30282 -2.60857e-16)
(225.073 -8.57905 -2.62323e-16)
(223.842 -8.82736 0)
(222.61 -9.07768 2.65476e-16)
(221.4 -9.30656 -4.09968e-21)
(220.183 -9.53389 -2.68363e-16)
(218.997 -9.75172 2.71532e-16)
(217.797 -9.96434 2.71096e-16)
(216.632 -10.1961 -5.4888e-16)
(215.364 -10.4404 -4.17799e-21)
(214.084 -10.6668 2.11034e-21)
(212.743 -10.8977 -2.11721e-21)
(211.381 -11.11 2.79428e-16)
(209.982 -11.3284 -2.81106e-16)
(208.503 -11.5272 0)
(207.043 -11.7318 0)
(205.416 -11.9217 0)
(203.778 -12.1072 -2.88155e-16)
(202.069 -12.2927 -1.11305e-21)
(200.18 -12.4604 1.10299e-21)
(198.207 -12.6225 -5.88454e-16)
(196.124 -12.7786 0)
(193.809 -12.9187 5.7488e-22)
(191.275 -13.041 6.03411e-16)
(188.329 -13.1354 4.40089e-22)
(185.503 -13.2298 0)
(180.538 -13.19 -3.0099e-22)
(182.516 -13.3262 3.06721e-22)
(105.089 -8.9127 -1.00163e-14)
(283.916 420.139 -1.27961e-17)
(434.028 338.161 6.635e-17)
(461.08 190.204 -2.01998e-17)
(405.614 138.091 1.02485e-16)
(382.953 108.346 -1.89454e-21)
(365.996 89.3362 3.31239e-17)
(352.654 75.7643 -3.77459e-17)
(342.332 65.7092 -2.63078e-21)
(334.092 57.9091 -4.65511e-17)
(327.494 51.606 5.10855e-17)
(322.243 46.4609 5.63374e-17)
(317.713 42.0357 0)
(314.032 38.2735 -8.26745e-21)
(310.51 34.9056 -6.94387e-17)
(307.475 31.9273 -7.78528e-17)
(304.417 29.2471 9.62978e-21)
(301.531 26.7592 -8.40596e-17)
(298.934 24.5255 -8.67986e-17)
(296.388 22.4266 -2.14192e-20)
(294.214 20.5163 9.30888e-21)
(291.96 18.7197 1.61108e-21)
(289.928 17.0314 9.50435e-17)
(287.88 15.4583 0)
(285.843 13.9543 9.5886e-17)
(283.897 12.5416 0)
(281.867 11.1891 1.17968e-20)
(279.967 9.90545 -1.20371e-20)
(277.984 8.68573 0)
(276.061 7.5168 0)
(274.106 6.40067 -9.77855e-17)
(272.162 5.336 -5.95611e-21)
(270.222 4.30949 0)
(268.256 3.33507 -4.84492e-17)
(266.308 2.38947 2.4245e-17)
(264.305 1.49694 5.9143e-21)
(262.327 0.629442 0)
(260.275 -0.189154 -5.77142e-21)
(258.238 -0.985205 1.17788e-17)
(256.123 -1.73393 -2.31611e-17)
(253.998 -2.46342 5.60754e-21)
(251.824 -3.14358 4.53491e-17)
(249.51 -3.81562 -8.96974e-17)
(249.062 -4.40578 5.49918e-17)
(248.201 -4.91306 6.85909e-21)
(246.968 -5.37392 2.26421e-16)
(245.657 -5.82285 0)
(244.306 -6.24001 1.15744e-16)
(242.976 -6.63451 -7.32877e-21)
(241.643 -7.01536 1.18145e-16)
(240.327 -7.36493 -1.19241e-16)
(239.017 -7.71265 0)
(237.72 -8.02494 0)
(236.436 -8.34096 3.73532e-21)
(235.16 -8.62463 -3.75177e-21)
(233.892 -8.91263 3.78687e-21)
(232.636 -9.17162 1.30576e-23)
(231.381 -9.43282 -2.50794e-16)
(230.144 -9.6716 -2.53414e-16)
(228.904 -9.909 -2.5357e-16)
(227.688 -10.1363 -2.56587e-16)
(226.464 -10.3584 0)
(225.268 -10.6001 2.5938e-16)
(223.975 -10.8552 0)
(222.66 -11.0914 0)
(221.287 -11.3326 0)
(219.887 -11.5543 -2.64136e-16)
(218.449 -11.7824 2.65737e-16)
(216.932 -11.9903 -4.05992e-21)
(215.423 -12.2036 2.70901e-16)
(213.758 -12.4026 -2.67785e-16)
(212.066 -12.5964 2.72378e-16)
(210.302 -12.7901 8.25313e-24)
(208.362 -12.966 -2.08498e-21)
(206.325 -13.1355 5.56091e-16)
(204.171 -13.2987 0)
(201.783 -13.4455 -5.68053e-16)
(199.171 -13.5741 -5.69926e-16)
(196.128 -13.674 -1.30015e-22)
(193.203 -13.7717 0)
(188.087 -13.7385 0)
(190.065 -13.8193 1.4573e-22)
(117.599 -10.067 8.35619e-15)
(285.706 423.485 0)
(442.865 346.061 3.23386e-19)
(471.803 195.352 1.90142e-17)
(415.398 141.759 -4.83051e-17)
(391.606 110.998 -1.61874e-21)
(374.336 91.5107 -3.13958e-17)
(360.798 77.6159 -4.21918e-21)
(350.338 67.3238 0)
(342.023 59.345 0)
(335.399 52.9007 -4.81983e-17)
(330.154 47.6417 -5.30793e-17)
(325.69 43.1246 6.80517e-21)
(322.058 39.2803 -6.28798e-17)
(318.677 35.8484 1.29821e-16)
(315.732 32.8069 0)
(312.828 30.0754 9.13355e-21)
(310.03 27.5315 1.36791e-22)
(307.488 25.2435 -1.98479e-20)
(304.995 23.0924 9.98828e-21)
(302.822 21.1297 -8.66219e-17)
(300.611 19.2864 8.5909e-17)
(298.578 17.5505 -8.95701e-17)
(296.554 15.9344 0)
(294.535 14.3881 -9.05386e-17)
(292.599 12.935 -1.11942e-20)
(290.596 11.5439 -1.11591e-20)
(288.697 10.2222 1.13956e-20)
(286.738 8.96673 4.60337e-17)
(284.821 7.76243 -4.6812e-17)
(282.882 6.61236 2.51654e-22)
(280.948 5.51469 1.13032e-20)
(279.017 4.45592 1.13585e-20)
(277.063 3.45046 -1.1197e-20)
(275.121 2.47423 0)
(273.13 1.55239 2.2738e-17)
(271.156 0.655932 5.70523e-18)
(269.119 -0.190435 6.53727e-23)
(267.087 -1.01395 -1.12089e-17)
(264.988 -1.78904 0)
(262.872 -2.54469 0)
(260.713 -3.24977 0)
(258.417 -3.94832 0)
(257.723 -4.55658 -6.53228e-21)
(256.813 -5.08058 1.0681e-16)
(255.572 -5.55778 -2.21681e-22)
(254.246 -6.02298 -6.69471e-21)
(252.88 -6.45555 6.72185e-21)
(251.531 -6.8647 -1.79034e-22)
(250.18 -7.25983 -1.12679e-16)
(248.844 -7.62264 -1.13755e-16)
(247.515 -7.98359 6.9909e-21)
(246.198 -8.3079 0)
(244.893 -8.63611 -7.12934e-21)
(243.596 -8.93086 -2.35079e-16)
(242.306 -9.23014 2.50756e-23)
(241.028 -9.49935 -7.26968e-21)
(239.751 -9.77096 4.78863e-16)
(238.489 -10.0192 -7.20041e-21)
(237.227 -10.2663 2.4214e-16)
(235.984 -10.5026 2.4503e-16)
(234.738 -10.7339 3.73955e-21)
(233.515 -10.985 1.20332e-23)
(232.197 -11.2505 -3.76586e-21)
(230.85 -11.4961 0)
(229.447 -11.7471 2.5014e-16)
(228.012 -11.9778 2.52293e-16)
(226.538 -12.2151 0)
(224.985 -12.4318 3.88473e-21)
(223.431 -12.6534 -2.58723e-16)
(221.73 -12.8612 5.11518e-16)
(219.988 -13.0628 -2.60114e-16)
(218.172 -13.2643 -7.88075e-24)
(216.184 -13.4481 3.9899e-21)
(214.086 -13.6248 8.67821e-24)
(211.867 -13.7946 5.38465e-16)
(209.41 -13.948 1.08413e-15)
(206.726 -14.0826 0)
(203.593 -14.1877 -5.52026e-16)
(200.576 -14.2883 0)
(195.323 -14.2632 -5.40152e-22)
(197.266 -14.2772 8.32256e-22)
(129.242 -11.1825 6.98734e-15)
(286.618 425.618 -7.53192e-22)
(450.247 353.047 -5.80803e-17)
(481.844 200.4 1.84449e-17)
(424.913 145.423 0)
(400.047 113.644 -3.47648e-21)
(382.437 93.6622 3.0346e-17)
(368.701 79.4415 3.45485e-17)
(358.096 68.9105 0)
(349.692 60.7509 -1.05204e-20)
(343.026 54.1637 4.62196e-17)
(337.769 48.7896 0)
(333.344 44.1788 -5.3836e-17)
(329.744 40.2524 5.97893e-17)
(326.465 36.7546 -6.15091e-17)
(323.598 33.6509 0)
(320.826 30.8684 0)
(318.119 28.2717 -7.43854e-17)
(315.639 25.9323 7.70217e-17)
(313.205 23.7316 7.80841e-17)
(311.045 21.7194 8.22377e-17)
(308.878 19.8313 0)
(306.854 18.0504 8.51939e-17)
(304.856 16.3929 -1.96354e-22)
(302.86 14.8064 -8.62565e-17)
(300.937 13.3145 8.78304e-17)
(298.962 11.8865 8.69287e-17)
(297.07 10.5283 8.9498e-17)
(295.135 9.2384 -4.40268e-17)
(293.229 8.00019 4.47848e-17)
(291.306 6.81746 -2.13691e-20)
(289.384 5.68808 4.44891e-17)
(287.464 4.59828 -1.08756e-20)
(285.522 3.56294 -6.97e-23)
(283.586 2.55725 -2.20696e-17)
(281.609 1.60721 0)
(279.64 0.682876 -5.44853e-18)
(277.617 -0.190218 -2.70794e-18)
(275.591 -1.04016 1.07418e-17)
(273.506 -1.84061 1.02909e-20)
(271.399 -2.62145 0)
(269.255 -3.35048 4.14278e-17)
(266.977 -4.07462 9.98065e-21)
(266.07 -4.7009 -5.02247e-17)
(265.106 -5.24095 -1.0255e-16)
(263.855 -5.73381 -1.03631e-16)
(262.516 -6.21468 0)
(261.136 -6.6621 -1.29729e-20)
(259.771 -7.0854 -2.14752e-16)
(258.402 -7.49432 -1.30663e-20)
(257.049 -7.86991 1.09381e-16)
(255.702 -8.24363 0)
(254.366 -8.57956 0)
(253.042 -8.91955 1.12145e-16)
(251.726 -9.225 2.26137e-16)
(250.416 -9.53518 -2.27497e-16)
(249.116 -9.81427 6.99388e-21)
(247.818 -10.0959 -4.60744e-16)
(246.533 -10.3534 7.3022e-21)
(245.25 -10.6097 -2.33008e-16)
(243.982 -10.8548 -7.20732e-21)
(242.715 -11.095 2.35489e-16)
(241.465 -11.3552 7.26459e-21)
(240.125 -11.6306 7.27309e-21)
(238.747 -11.8854 2.40751e-16)
(237.317 -12.1459 -2.40763e-16)
(235.848 -12.3853 -8.27669e-23)
(234.341 -12.6314 -2.4428e-16)
(232.753 -12.8565 0)
(231.156 -13.0862 0)
(229.421 -13.3024 -2.46122e-16)
(227.633 -13.5117 2.50273e-16)
(225.768 -13.7208 -3.85044e-21)
(223.735 -13.9121 0)
(221.58 -14.0957 0)
(219.299 -14.272 -5.17747e-16)
(216.778 -14.4316 -5.21087e-16)
(214.025 -14.5719 1.98842e-21)
(210.81 -14.6821 1.01439e-21)
(207.705 -14.785 5.39951e-16)
(202.329 -14.7699 0)
(204.194 -14.7044 5.60911e-16)
(140.48 -12.2975 -5.9423e-15)
(286.867 426.854 2.37616e-17)
(456.29 359.236 -5.53255e-17)
(491.313 205.431 -1.79267e-17)
(434.316 149.156 -1.8431e-21)
(408.425 116.34 0)
(390.445 95.8345 2.97025e-17)
(376.499 81.2761 -3.38026e-17)
(365.738 70.4988 0)
(357.228 62.1525 0)
(350.499 55.4174 0)
(345.211 49.9246 -4.90639e-17)
(340.797 45.2163 5.1885e-17)
(337.21 41.206 -5.74398e-17)
(334.002 37.6393 -1.45127e-20)
(331.195 34.4731 1.59068e-20)
(328.531 31.6387 0)
(325.912 28.9905 7.09974e-17)
(323.495 26.6014 -7.35547e-17)
(321.12 24.3527 -1.49201e-16)
(318.982 22.2929 -2.38907e-21)
(316.859 20.3614 -3.81498e-20)
(314.851 18.5371 -8.16167e-17)
(312.881 16.8395 8.17461e-17)
(310.909 15.214 8.28003e-17)
(309.004 13.6845 -8.43472e-17)
(307.056 12.2206 -8.34744e-17)
(305.176 10.8272 -8.60753e-17)
(303.263 9.50382 -4.23036e-17)
(301.37 8.23273 1.51412e-22)
(299.464 7.0183 4.26692e-17)
(297.554 5.85812 -4.28081e-17)
(295.646 4.73819 0)
(293.716 3.67385 -4.24833e-17)
(291.788 2.63955 1.34608e-22)
(289.823 1.66211 -2.10197e-17)
(287.861 0.710725 -5.28742e-18)
(285.85 -0.188322 2.02086e-20)
(283.831 -1.06392 -2.03551e-20)
(281.759 -1.88899 1.98728e-20)
(279.661 -2.69426 -4.0615e-17)
(277.532 -3.44652 -4.00698e-17)
(275.273 -4.19552 1.9287e-20)
(274.179 -4.83986 -4.84826e-17)
(273.156 -5.39552 -9.90051e-17)
(271.893 -5.90348 -1.00142e-16)
(270.543 -6.39953 -1.23834e-20)
(269.15 -6.86138 -1.02528e-16)
(267.769 -7.29846 1.0382e-16)
(266.385 -7.72078 1.04745e-16)
(265.015 -8.10882 0)
(263.65 -8.49496 0)
(262.297 -8.84221 0)
(260.954 -9.19365 -1.08482e-16)
(259.62 -9.50952 0)
(258.291 -9.8303 2.20097e-16)
(256.97 -10.119 0)
(255.653 -10.4105 2.22913e-16)
(254.346 -10.6769 2.23775e-22)
(253.043 -10.9423 1.91085e-22)
(251.752 -11.1959 -2.28205e-16)
(250.464 -11.4446 -2.27912e-16)
(249.189 -11.7138 7.03114e-21)
(247.827 -11.9989 -2.303e-16)
(246.421 -12.2624 -4.66026e-16)
(244.964 -12.5321 -7.12343e-21)
(243.464 -12.78 -4.70012e-16)
(241.924 -13.0347 2.3641e-16)
(240.305 -13.2681 -2.36686e-16)
(238.667 -13.5057 -2.40901e-16)
(236.899 -13.7299 0)
(235.067 -13.9467 0)
(233.156 -14.1631 0)
(231.079 -14.3617 0)
(228.872 -14.552 3.77497e-21)
(226.531 -14.7346 -7.6377e-21)
(223.95 -14.9003 3.83337e-21)
(221.133 -15.046 0)
(217.839 -15.1612 -5.12063e-16)
(214.653 -15.2658 -5.21214e-16)
(209.166 -15.2627 -5.21105e-16)
(210.904 -15.104 -5.41864e-16)
(151.63 -13.4389 5.16272e-15)
(286.618 427.431 -2.18078e-17)
(461.112 364.752 5.20866e-17)
(500.256 210.502 0)
(443.709 153.015 4.42711e-17)
(416.851 119.131 -2.63074e-17)
(398.469 98.0642 -2.93755e-17)
(384.294 83.149 3.33378e-17)
(373.362 72.1133 -3.69616e-17)
(364.728 63.5707 0)
(357.914 56.6803 -4.3831e-17)
(352.573 51.063 3.20392e-20)
(348.145 46.252 -2.42763e-20)
(344.55 42.1544 5.56357e-17)
(341.381 38.515 5.68601e-17)
(338.615 35.2843 6.32426e-17)
(336.035 32.3963 -4.95284e-22)
(333.494 29.6965 3.30371e-20)
(331.138 27.2584 3.47019e-20)
(328.821 24.9624 7.16638e-17)
(326.709 22.8563 -1.51248e-16)
(324.628 20.882 -7.51864e-17)
(322.64 19.0154 -7.85963e-17)
(320.698 17.2785 -7.87179e-17)
(318.753 15.6148 -3.87952e-20)
(316.866 14.0486 0)
(314.946 12.5495 0)