/*--------------------------------*- C++ -*----------------------------------*\
| =========                 |                                                 |
| \\      /  F ield         | OpenFOAM: The Open Source CFD Toolbox           |
|  \\    /   O peration     | Version:  5.x                                   |
|   \\  /    A nd           | Web:      www.OpenFOAM.org                      |
|    \\/     M anipulation  |                                                 |
\*---------------------------------------------------------------------------*/
FoamFile
{
    version     2.0;
    format      ascii;
    class       volVectorField;
    location    "600";
    object      wallShearStress;
}
// * * * * * * * * * * * * * * * * * * * * * * * * * * * * * * * * * * * * * //

dimensions      [0 2 -2 0 0 0 0];

internalField   uniform (0 0 0);

boundaryField
{
    inlet
    {
        type            calculated;
        value           uniform (0 0 0);
    }
    outlet
    {
        type            calculated;
        value           uniform (0 0 0);
    }
    walls
    {
        type            calculated;
        value           nonuniform List<vector> 
82
(
(0.116183 -0.818181 0)
(-0.0277539 -1.20668 7.14104e-21)
(-0.21673 -1.53281 -8.36409e-19)
(-0.496543 -1.57464 -9.43858e-19)
(-0.728978 -1.4793 -2.20225e-18)
(-0.898865 -1.30385 1.10307e-18)
(-1.00378 -1.09525 1.06329e-18)
(-1.05276 -0.884599 -9.97716e-19)
(-1.05776 -0.690388 -2.26065e-18)
(-1.02473 -0.519033 -7.32777e-20)
(-0.93195 -0.354048 -1.00707e-18)
(-0.81415 -0.2199 5.08528e-20)
(-0.726037 -0.140854 -7.7291e-19)
(-0.679132 -0.102649 -7.10637e-19)
(-0.639515 -0.0763914 -5.53361e-19)
(-0.590751 -0.0511371 -3.16176e-19)
(-0.535661 -0.0290705 2.38692e-19)
(-0.479873 -0.0113976 1.88474e-20)
(-0.425075 0.00219872 -1.88135e-20)
(-0.371367 0.0121572 -9.57603e-20)
(-0.318594 0.0188366 -6.15826e-20)
(-0.273451 0.0220486 -3.5877e-20)
(-0.235159 0.0230602 -2.01592e-20)
(-0.199155 0.0227855 2.61947e-21)
(-0.165416 0.0214831 1.34135e-21)
(-0.134043 0.0193611 -3.68975e-21)
(-0.105176 0.0166076 2.9746e-19)
(-0.0791714 0.0134094 -6.121e-21)
(-0.0565402 0.0101833 4.10777e-19)
(-0.0368756 0.00715331 -4.37796e-19)
(-0.0208315 0.00435973 -7.14918e-21)
(-0.00895861 0.00205792 -3.99488e-21)
(-0.00217567 0.000556368 3.71841e-21)
(0.00144418 -0.000257932 0)
(0.00500223 -0.00113253 -1.25521e-18)
(0.00881565 -0.00239877 1.50463e-36)
(0.0155314 -0.00474272 -6.75909e-38)
(0.0279012 -0.00788909 2.47984e-21)
(0.0422279 -0.00831562 -2.57824e-21)
(0.0459494 -0.000333343 1.18576e-18)
(0.0213069 0.00976024 1.17501e-18)
(0.142718 -0.532016 -2.28788e-19)
(0.0876672 -0.239955 -3.23587e-20)
(0.0325698 -0.0849281 -1.54531e-18)
(-0.000173496 -0.0157808 -6.54276e-19)
(-0.0165939 0.00154138 -7.97105e-19)
(-0.0501002 0.0202238 -1.02738e-18)
(-0.0894846 0.0369513 -2.12059e-18)
(-0.128393 0.049083 -9.88445e-19)
(-0.165087 0.0581062 8.75385e-19)
(-0.205112 0.0691783 5.91027e-20)
(-0.251518 0.0786395 -1.74268e-18)
(-0.292623 0.0774608 7.78039e-19)
(-0.324121 0.0696086 2.09801e-21)
(-0.350538 0.0610176 4.68584e-19)
(-0.373978 0.0523475 7.13434e-19)
(-0.393763 0.0429967 -4.32465e-20)
(-0.409623 0.0331096 1.88079e-37)
(-0.42186 0.0230355 -2.71738e-19)
(-0.430812 0.0130591 -1.8979e-20)
(-0.436843 0.00340053 -1.41409e-19)
(-0.439974 -0.00570201 3.52961e-22)
(-0.441325 -0.0138313 -9.40395e-38)
(-0.440909 -0.0202667 -2.84193e-19)
(-0.439732 -0.0259023 -2.44449e-19)
(-0.438041 -0.0308974 5.0803e-19)
(-0.435973 -0.0353394 4.95603e-19)
(-0.433666 -0.0392872 9.68099e-19)
(-0.431233 -0.0428035 4.73049e-19)
(-0.428748 -0.0459503 1.43494e-20)
(-0.426275 -0.0487901 -4.65924e-19)
(-0.423881 -0.0513836 -4.48642e-19)
(-0.421634 -0.0537928 8.7003e-19)
(-0.419571 -0.0560759 8.49663e-19)
(-0.417726 -0.058282 -8.29309e-19)
(-0.416085 -0.0604545 6.24021e-21)
(-0.414686 -0.0626344 -6.15391e-21)
(-0.413434 -0.0648595 -1.17549e-38)
(-0.412818 -0.0672179 -1.46937e-39)
(-0.411167 -0.0696956 1.40559e-21)
(-0.416761 -0.0727789 -7.13712e-19)
(-0.399064 -0.0758891 6.51975e-22)
)
;
    }
    frontAndBack
    {
        type            empty;
    }
}


// ************************************************************************* //
