/*--------------------------------*- C++ -*----------------------------------*\
| =========                 |                                                 |
| \\      /  F ield         | OpenFOAM: The Open Source CFD Toolbox           |
|  \\    /   O peration     | Version:  5.x                                   |
|   \\  /    A nd           | Web:      www.OpenFOAM.org                      |
|    \\/     M anipulation  |                                                 |
\*---------------------------------------------------------------------------*/
FoamFile
{
    version     2.0;
    format      ascii;
    class       volVectorField;
    location    "600";
    object      wallShearStress;
}
// * * * * * * * * * * * * * * * * * * * * * * * * * * * * * * * * * * * * * //

dimensions      [0 2 -2 0 0 0 0];

internalField   uniform (0 0 0);

boundaryField
{
    inlet
    {
        type            calculated;
        value           uniform (0 0 0);
    }
    outlet
    {
        type            calculated;
        value           uniform (0 0 0);
    }
    walls
    {
        type            calculated;
        value           nonuniform List<vector> 
82
(
(0.310714 -1.72079 -7.52316e-37)
(0.0100589 -2.40167 1.1379e-20)
(-0.341386 -2.93583 -1.43827e-18)
(-0.841796 -2.92561 -1.54645e-18)
(-1.21467 -2.61317 -3.34975e-18)
(-1.45386 -2.18158 1.60293e-18)
(-1.57323 -1.73388 1.47284e-18)
(-1.5961 -1.32537 -1.31068e-18)
(-1.54546 -0.978826 -2.80921e-18)
(-1.4325 -0.693529 -8.79855e-20)
(-1.22671 -0.437783 -1.04732e-18)
(-0.991261 -0.243216 3.96196e-20)
(-0.811532 -0.136336 -5.3161e-19)
(-0.696741 -0.0882311 -3.29996e-19)
(-0.591431 -0.0574412 -1.27817e-19)
(-0.471489 -0.029902 2.50642e-20)
(-0.344991 -0.00978104 -1.1222e-19)
(-0.225756 0.00122147 -2.50445e-20)
(-0.121952 0.00507671 2.2878e-20)
(-0.042702 0.00413763 2.2539e-19)
(-0.00342578 0.000979596 1.59583e-19)
(0.0104744 -0.000573057 2.97907e-19)
(0.0252076 -0.00213475 7.60068e-19)
(0.0366404 -0.00354637 5.54247e-20)
(0.0437186 -0.00474779 2.49368e-22)
(0.0472306 -0.00568938 -3.18931e-20)
(0.0487191 -0.00651158 2.09985e-18)
(0.0494922 -0.00738174 -3.31292e-20)
(0.0503497 -0.00831208 2.1717e-18)
(0.0517825 -0.00930703 -2.11427e-18)
(0.0541188 -0.0104649 -3.33154e-20)
(0.0576718 -0.0118677 -1.6342e-20)
(0.0626303 -0.0135226 1.59064e-20)
(0.0687026 -0.015272 0)
(0.0744973 -0.0166639 -3.79561e-18)
(0.0769476 -0.0169458 6.01853e-36)
(0.0725534 -0.0154238 -3.05629e-37)
(0.0611353 -0.0119843 6.35723e-21)
(0.0404659 -0.00559019 -4.30031e-21)
(0.0178468 0.00357229 2.25914e-18)
(0.0172249 0.0197063 2.20425e-18)
(0.380548 -1.19817 -4.5651e-19)
(0.269793 -0.601695 -6.71448e-20)
(0.141736 -0.25851 -3.44944e-18)
(0.0405717 -0.0781977 -1.69115e-18)
(-0.00177544 -0.0116699 -1.13609e-18)
(-0.0288823 0.00514929 -1.96073e-18)
(-0.07887 0.0286707 -4.59248e-18)
(-0.136627 0.0505115 -2.19722e-18)
(-0.195074 0.0675917 1.97842e-18)
(-0.259557 0.0865311 1.37363e-19)
(-0.334519 0.103546 -4.22509e-18)
(-0.404819 0.10651 1.939e-18)
(-0.463268 0.0995089 3.8469e-21)
(-0.514773 0.0901707 1.21147e-18)
(-0.561881 0.0795706 1.87149e-18)
(-0.60354 0.0670603 -1.14416e-19)
(-0.639231 0.0529816 2.82119e-37)
(-0.669263 0.0379497 -7.36637e-19)
(-0.694025 0.0224898 -5.16483e-20)
(-0.71405 0.00702633 -3.89348e-19)
(-0.729297 -0.00797372 6.89124e-22)
(-0.740529 -0.0218312 -1.88079e-37)
(-0.747546 -0.0330731 -7.90545e-19)
(-0.752887 -0.0431115 -6.81503e-19)
(-0.757072 -0.0521955 1.41795e-18)
(-0.760442 -0.0604721 1.38251e-18)
(-0.763333 -0.0680343 2.69636e-18)
(-0.765998 -0.0749707 1.31467e-18)
(-0.768625 -0.0813731 3.97414e-20)
(-0.771365 -0.0873416 -1.2875e-18)
(-0.774389 -0.0929753 -1.23533e-18)
(-0.777872 -0.0983822 2.38665e-18)
(-0.781968 -0.103675 2.3204e-18)
(-0.786872 -0.108968 -2.25274e-18)
(-0.792768 -0.114377 1.67876e-20)
(-0.799924 -0.120023 -1.65336e-20)
(-0.808555 -0.126052 -1.17549e-38)
(-0.819943 -0.132734 0)
(-0.83205 -0.140185 3.59932e-21)
(-0.860938 -0.150082 -1.80208e-18)
(-0.857695 -0.159673 1.63185e-21)
)
;
    }
    frontAndBack
    {
        type            empty;
    }
}


// ************************************************************************* //
