# Force coefficients
# liftDir    : (-2.505448e-01 9.681050e-01 0.000000e+00)
# dragDir    : (9.681050e-01 2.505448e-01 0.000000e+00)
# pitchAxis  : (0.000000e+00 0.000000e+00 1.000000e+00)
# magUInf    : 8.000000e+01
# lRef       : 1.000000e+00
# Aref       : 3.000000e-01
# CofR       : (5.000000e-01 0.000000e+00 0.000000e+00)
# Time       	Cm           	Cd           	Cl           	Cl(f)        	Cl(r)        
500          	-3.347324e-09	5.754140e-09	1.246941e-08	2.887383e-09	9.582030e-09
1000         	-2.619693e-09	5.326114e-09	1.514594e-08	4.953277e-09	1.019266e-08
1500         	-2.476222e-09	5.065769e-09	1.349720e-08	4.272378e-09	9.224821e-09
2000         	-2.558176e-09	4.778096e-09	1.292906e-08	3.906356e-09	9.022709e-09
2500         	-2.515814e-09	4.938411e-09	1.353095e-08	4.249662e-09	9.281291e-09
3000         	-2.506546e-09	4.984263e-09	1.382966e-08	4.408286e-09	9.421378e-09
3500         	-2.544532e-09	4.801285e-09	1.325672e-08	4.083827e-09	9.172891e-09
