# Force coefficients
# liftDir    : (-2.505448e-01 9.681050e-01 0.000000e+00)
# dragDir    : (9.681050e-01 2.505448e-01 0.000000e+00)
# pitchAxis  : (0.000000e+00 0.000000e+00 1.000000e+00)
# magUInf    : 8.000000e+01
# lRef       : 1.000000e+00
# Aref       : 3.000000e-01
# CofR       : (5.000000e-01 0.000000e+00 0.000000e+00)
# Time       	Cm           	Cd           	Cl           	Cl(f)        	Cl(r)        
500          	-6.688720e-09	7.908725e-09	2.901911e-08	7.820837e-09	2.119828e-08
1000         	-2.897952e-09	6.006996e-09	1.124304e-08	2.723567e-09	8.519471e-09
1500         	-2.868902e-09	5.242082e-09	9.611504e-09	1.936850e-09	7.674654e-09
2000         	-2.786177e-09	5.479698e-09	1.090348e-08	2.665563e-09	8.237917e-09
2500         	-2.908109e-09	5.559192e-09	1.117206e-08	2.677919e-09	8.494138e-09
3000         	-2.711297e-09	5.535154e-09	1.079832e-08	2.687865e-09	8.110458e-09
3500         	-2.777912e-09	5.589306e-09	1.130672e-08	2.875447e-09	8.431271e-09
