/*--------------------------------*- C++ -*----------------------------------*\
| =========                 |                                                 |
| \\      /  F ield         | OpenFOAM: The Open Source CFD Toolbox           |
|  \\    /   O peration     | Version:  5.x                                   |
|   \\  /    A nd           | Web:      www.OpenFOAM.org                      |
|    \\/     M anipulation  |                                                 |
\*---------------------------------------------------------------------------*/
FoamFile
{
    version     2.0;
    format      ascii;
    class       volScalarField;
    location    "1500";
    object      p;
}
// * * * * * * * * * * * * * * * * * * * * * * * * * * * * * * * * * * * * * //

dimensions      [0 2 -2 0 0 0 0];

internalField   nonuniform List<scalar> 
107912
(
2.75296e-09
3.07521e-07
1.24805e-07
2.10447e-07
5.7951e-08
-7.74286e-08
1.39241e-08
-8.85318e-08
-5.85899e-08
-1.03432e-07
-9.61864e-08
-1.13861e-07
-1.13879e-07
-1.20059e-07
-1.20254e-07
-1.22586e-07
-1.21099e-07
-1.21534e-07
-1.19428e-07
-1.17811e-07
-1.15809e-07
-1.13042e-07
-1.10371e-07
-1.07585e-07
-1.04168e-07
-1.01087e-07
-9.77058e-08
-9.40574e-08
-9.06764e-08
-8.69387e-08
-8.32393e-08
-7.96296e-08
-7.57731e-08
-7.20291e-08
-6.82842e-08
-6.43939e-08
-6.06487e-08
-5.68364e-08
-5.30129e-08
-4.92858e-08
-4.54726e-08
-4.17629e-08
-3.80525e-08
-3.43521e-08
-3.07287e-08
-2.70923e-08
-2.3549e-08
-2.00131e-08
-1.65528e-08
-1.3121e-08
-9.76324e-09
-6.437e-09
-3.54681e-09
-9.25222e-10
1.58358e-09
3.96743e-09
6.32693e-09
8.59525e-09
1.07669e-08
1.28935e-08
1.4926e-08
1.69078e-08
1.8822e-08
2.06739e-08
2.24756e-08
2.42205e-08
2.59171e-08
2.75697e-08
2.91755e-08
3.07466e-08
3.22794e-08
3.37823e-08
3.52559e-08
3.67043e-08
3.81334e-08
3.95425e-08
4.09428e-08
4.23258e-08
4.3707e-08
4.50737e-08
4.64459e-08
4.78016e-08
4.91711e-08
5.05056e-08
5.18757e-08
5.31457e-08
5.45223e-08
5.56277e-08
5.70424e-08
5.77497e-08
5.93397e-08
5.90869e-08
6.13147e-08
5.86746e-08
6.29801e-08
5.43888e-08
6.49794e-08
4.04245e-08
6.90982e-08
-3.10423e-09
8.44971e-08
-3.7729e-07
4.76126e-09
3.07722e-07
1.24122e-07
2.0967e-07
5.82963e-08
-7.65108e-08
1.4159e-08
-8.81427e-08
-5.83057e-08
-1.03117e-07
-9.59569e-08
-1.13639e-07
-1.13706e-07
-1.19908e-07
-1.20128e-07
-1.22479e-07
-1.2101e-07
-1.21457e-07
-1.19365e-07
-1.17756e-07
-1.15763e-07
-1.13003e-07
-1.10337e-07
-1.07556e-07
-1.04144e-07
-1.01066e-07
-9.76886e-08
-9.40428e-08
-9.06638e-08
-8.69286e-08
-8.32307e-08
-7.96224e-08
-7.57675e-08
-7.20244e-08
-6.82806e-08
-6.43913e-08
-6.06467e-08
-5.68351e-08
-5.30122e-08
-4.92855e-08
-4.54728e-08
-4.17634e-08
-3.80534e-08
-3.43533e-08
-3.07301e-08
-2.7094e-08
-2.35508e-08
-2.0015e-08
-1.65549e-08
-1.31232e-08
-9.76553e-09
-6.43934e-09
-3.54913e-09
-9.27669e-10
1.58111e-09
3.96501e-09
6.32444e-09
8.59275e-09
1.07644e-08
1.28911e-08
1.49236e-08
1.69054e-08
1.88197e-08
2.06716e-08
2.24733e-08
2.42183e-08
2.59149e-08
2.75676e-08
2.91734e-08
3.07445e-08
3.22773e-08
3.37803e-08
3.52538e-08
3.67022e-08
3.81313e-08
3.95403e-08
4.09406e-08
4.23234e-08
4.37046e-08
4.50711e-08
4.64432e-08
4.77986e-08
4.91678e-08
5.0502e-08
5.18718e-08
5.31412e-08
5.45174e-08
5.56219e-08
5.70362e-08
5.77418e-08
5.93316e-08
5.90755e-08
6.13041e-08
5.86567e-08
6.29664e-08
5.43569e-08
6.49611e-08
4.03544e-08
6.90709e-08
-3.35855e-09
8.4509e-08
-3.62302e-07
5.90405e-09
3.07954e-07
1.23314e-07
2.0876e-07
5.86773e-08
-7.54176e-08
1.44543e-08
-8.76949e-08
-5.79579e-08
-1.02748e-07
-9.56773e-08
-1.13375e-07
-1.13496e-07
-1.19724e-07
-1.19974e-07
-1.22348e-07
-1.20899e-07
-1.21361e-07
-1.19285e-07
-1.17686e-07
-1.15703e-07
-1.12953e-07
-1.10293e-07
-1.07519e-07
-1.04112e-07
-1.01038e-07
-9.76648e-08
-9.40223e-08
-9.06459e-08
-8.69138e-08
-8.32177e-08
-7.96112e-08
-7.57583e-08
-7.20164e-08
-6.82739e-08
-6.43859e-08
-6.06421e-08
-5.68315e-08
-5.30093e-08
-4.92833e-08
-4.54713e-08
-4.17623e-08
-3.80528e-08
-3.43531e-08
-3.07303e-08
-2.70945e-08
-2.35516e-08
-2.0016e-08
-1.65561e-08
-1.31246e-08
-9.76709e-09
-6.44102e-09
-3.55083e-09
-9.29547e-10
1.57913e-09
3.96306e-09
6.32236e-09
8.59063e-09
1.07623e-08
1.2889e-08
1.49215e-08
1.69033e-08
1.88176e-08
2.06696e-08
2.24713e-08
2.42163e-08
2.59129e-08
2.75656e-08
2.91714e-08
3.07425e-08
3.22753e-08
3.37783e-08
3.52518e-08
3.67002e-08
3.81293e-08
3.95382e-08
4.09384e-08
4.23211e-08
4.37021e-08
4.50685e-08
4.64403e-08
4.77955e-08
4.91644e-08
5.04982e-08
5.18676e-08
5.31363e-08
5.45119e-08
5.56153e-08
5.7029e-08
5.77328e-08
5.93221e-08
5.90622e-08
6.12914e-08
5.86356e-08
6.29493e-08
5.43192e-08
6.49371e-08
4.02713e-08
6.90317e-08
-3.65883e-09
8.44402e-08
-3.59763e-07
6.86842e-09
3.08163e-07
1.22496e-07
2.07818e-07
5.90624e-08
-7.42846e-08
1.47593e-08
-8.72286e-08
-5.75976e-08
-1.02365e-07
-9.53864e-08
-1.13101e-07
-1.13277e-07
-1.19532e-07
-1.19813e-07
-1.22211e-07
-1.20783e-07
-1.2126e-07
-1.19202e-07
-1.17612e-07
-1.15641e-07
-1.129e-07
-1.10246e-07
-1.07479e-07
-1.04079e-07
-1.01008e-07
-9.76396e-08
-9.40006e-08
-9.06268e-08
-8.68979e-08
-8.32038e-08
-7.95992e-08
-7.57483e-08
-7.20077e-08
-6.82667e-08
-6.438e-08
-6.06371e-08
-5.68275e-08
-5.30061e-08
-4.92808e-08
-4.54695e-08
-4.1761e-08
-3.8052e-08
-3.43527e-08
-3.07303e-08
-2.70948e-08
-2.35522e-08
-2.00169e-08
-1.65573e-08
-1.31259e-08
-9.76857e-09
-6.44262e-09
-3.55246e-09
-9.31374e-10
1.5772e-09
3.96115e-09
6.32032e-09
8.58851e-09
1.07601e-08
1.28868e-08
1.49193e-08
1.69012e-08
1.88155e-08
2.06675e-08
2.24692e-08
2.42142e-08
2.59109e-08
2.75636e-08
2.91695e-08
3.07406e-08
3.22734e-08
3.37763e-08
3.52498e-08
3.66981e-08
3.81272e-08
3.9536e-08
4.09362e-08
4.23188e-08
4.36996e-08
4.50658e-08
4.64374e-08
4.77923e-08
4.91609e-08
5.04942e-08
5.18632e-08
5.31313e-08
5.45063e-08
5.56086e-08
5.70217e-08
5.77234e-08
5.93123e-08
5.90484e-08
6.12782e-08
5.86136e-08
6.29315e-08
5.42801e-08
6.49119e-08
4.01852e-08
6.89904e-08
-3.96765e-09
8.43622e-08
-3.58985e-07
7.93632e-09
3.08351e-07
1.21651e-07
2.06824e-07
5.94633e-08
-7.30891e-08
1.50791e-08
-8.6731e-08
-5.7218e-08
-1.01958e-07
-9.50786e-08
-1.12809e-07
-1.13045e-07
-1.19329e-07
-1.19641e-07
-1.22065e-07
-1.2066e-07
-1.21154e-07
-1.19113e-07
-1.17534e-07
-1.15574e-07
-1.12844e-07
-1.10197e-07
-1.07437e-07
-1.04043e-07
-1.00977e-07
-9.76129e-08
-9.39776e-08
-9.06067e-08
-8.68811e-08
-8.31891e-08
-7.95865e-08
-7.57379e-08
-7.19986e-08
-6.82591e-08
-6.43738e-08
-6.06318e-08
-5.68234e-08
-5.30028e-08
-4.92781e-08
-4.54676e-08
-4.17596e-08
-3.80512e-08
-3.43523e-08
-3.07304e-08
-2.70952e-08
-2.3553e-08
-2.00179e-08
-1.65585e-08
-1.31273e-08
-9.77019e-09
-6.44437e-09
-3.55424e-09
-9.33359e-10
1.57511e-09
3.95909e-09
6.3181e-09
8.58623e-09
1.07579e-08
1.28845e-08
1.49171e-08
1.68989e-08
1.88133e-08
2.06653e-08
2.2467e-08
2.42121e-08
2.59087e-08
2.75614e-08
2.91673e-08
3.07384e-08
3.22712e-08
3.37742e-08
3.52476e-08
3.66959e-08
3.81249e-08
3.95337e-08
4.09338e-08
4.23162e-08
4.3697e-08
4.5063e-08
4.64343e-08
4.77889e-08
4.91572e-08
5.049e-08
5.18585e-08
5.31259e-08
5.45003e-08
5.56014e-08
5.70138e-08
5.77134e-08
5.93018e-08
5.90337e-08
6.12642e-08
5.85904e-08
6.29126e-08
5.42386e-08
6.48853e-08
4.00941e-08
6.89472e-08
-4.29178e-09
8.42827e-08
-3.57443e-07
9.11476e-09
3.08519e-07
1.20767e-07
2.05763e-07
5.98851e-08
-7.18123e-08
1.54197e-08
-8.61939e-08
-5.68126e-08
-1.0152e-07
-9.47484e-08
-1.12495e-07
-1.12795e-07
-1.19109e-07
-1.19458e-07
-1.21909e-07
-1.20528e-07
-1.21039e-07
-1.19018e-07
-1.17451e-07
-1.15503e-07
-1.12784e-07
-1.10144e-07
-1.07391e-07
-1.04005e-07
-1.00943e-07
-9.75842e-08
-9.39528e-08
-9.0585e-08
-8.6863e-08
-8.31734e-08
-7.95729e-08
-7.57266e-08
-7.19888e-08
-6.8251e-08
-6.43672e-08
-6.06261e-08
-5.68189e-08
-5.29992e-08
-4.92753e-08
-4.54656e-08
-4.17582e-08
-3.80503e-08
-3.4352e-08
-3.07304e-08
-2.70957e-08
-2.35537e-08
-2.0019e-08
-1.65598e-08
-1.31289e-08
-9.77195e-09
-6.44628e-09
-3.55618e-09
-9.35515e-10
1.57284e-09
3.95684e-09
6.31569e-09
8.58376e-09
1.07554e-08
1.2882e-08
1.49146e-08
1.68965e-08
1.88108e-08
2.06629e-08
2.24646e-08
2.42097e-08
2.59064e-08
2.75591e-08
2.9165e-08
3.07361e-08
3.22689e-08
3.37719e-08
3.52453e-08
3.66936e-08
3.81225e-08
3.95312e-08
4.09312e-08
4.23135e-08
4.36941e-08
4.50599e-08
4.6431e-08
4.77853e-08
4.91531e-08
5.04855e-08
5.18535e-08
5.312e-08
5.44938e-08
5.55937e-08
5.70053e-08
5.77027e-08
5.92906e-08
5.9018e-08
6.12492e-08
5.85654e-08
6.28922e-08
5.41942e-08
6.48568e-08
3.99965e-08
6.89012e-08
-4.63622e-09
8.41972e-08
-3.55488e-07
1.03878e-08
3.08661e-07
1.19844e-07
2.04631e-07
6.03278e-08
-7.04487e-08
1.57826e-08
-8.56141e-08
-5.63792e-08
-1.01048e-07
-9.4394e-08
-1.12157e-07
-1.12526e-07
-1.18873e-07
-1.1926e-07
-1.2174e-07
-1.20385e-07
-1.20915e-07
-1.18915e-07
-1.1736e-07
-1.15426e-07
-1.12719e-07
-1.10087e-07
-1.07343e-07
-1.03963e-07
-1.00906e-07
-9.75532e-08
-9.39261e-08
-9.05616e-08
-8.68435e-08
-8.31563e-08
-7.95582e-08
-7.57145e-08
-7.19783e-08
-6.82422e-08
-6.436e-08
-6.062e-08
-5.68141e-08
-5.29953e-08
-4.92723e-08
-4.54634e-08
-4.17566e-08
-3.80494e-08
-3.43516e-08
-3.07305e-08
-2.70962e-08
-2.35546e-08
-2.00201e-08
-1.65613e-08
-1.31306e-08
-9.77385e-09
-6.44833e-09
-3.55825e-09
-9.3783e-10
1.5704e-09
3.95443e-09
6.31311e-09
8.5811e-09
1.07527e-08
1.28794e-08
1.49119e-08
1.68938e-08
1.88082e-08
2.06603e-08
2.24621e-08
2.42072e-08
2.59038e-08
2.75566e-08
2.91625e-08
3.07337e-08
3.22664e-08
3.37694e-08
3.52428e-08
3.6691e-08
3.81199e-08
3.95285e-08
4.09283e-08
4.23106e-08
4.36909e-08
4.50565e-08
4.64273e-08
4.77813e-08
4.91488e-08
5.04806e-08
5.1848e-08
5.31138e-08
5.44869e-08
5.55853e-08
5.69962e-08
5.76911e-08
5.92785e-08
5.9001e-08
6.1233e-08
5.85385e-08
6.28704e-08
5.41464e-08
6.48261e-08
3.9892e-08
6.88521e-08
-5.00199e-09
8.41034e-08
-3.53392e-07
1.17581e-08
3.0877e-07
1.18883e-07
2.03425e-07
6.07912e-08
-6.8995e-08
1.61685e-08
-8.49889e-08
-5.59169e-08
-1.00542e-07
-9.40141e-08
-1.11793e-07
-1.12238e-07
-1.18619e-07
-1.19047e-07
-1.21557e-07
-1.20232e-07
-1.20782e-07
-1.18804e-07
-1.17263e-07
-1.15343e-07
-1.12649e-07
-1.10025e-07
-1.0729e-07
-1.03918e-07
-1.00866e-07
-9.75197e-08
-9.38973e-08
-9.05363e-08
-8.68224e-08
-8.31379e-08
-7.95424e-08
-7.57014e-08
-7.19668e-08
-6.82326e-08
-6.43523e-08
-6.06134e-08
-5.68089e-08
-5.29911e-08
-4.9269e-08
-4.54611e-08
-4.17549e-08
-3.80484e-08
-3.43511e-08
-3.07306e-08
-2.70967e-08
-2.35555e-08
-2.00214e-08
-1.65628e-08
-1.31324e-08
-9.77587e-09
-6.45052e-09
-3.56049e-09
-9.4032e-10
1.56777e-09
3.95183e-09
6.31033e-09
8.57823e-09
1.07498e-08
1.28765e-08
1.49091e-08
1.6891e-08
1.88054e-08
2.06575e-08
2.24593e-08
2.42044e-08
2.59011e-08
2.75539e-08
2.91599e-08
3.0731e-08
3.22638e-08
3.37667e-08
3.52401e-08
3.66883e-08
3.81171e-08
3.95256e-08
4.09253e-08
4.23074e-08
4.36876e-08
4.50529e-08
4.64234e-08
4.7777e-08
4.91441e-08
5.04753e-08
5.18422e-08
5.3107e-08
5.44794e-08
5.55763e-08
5.69864e-08
5.76787e-08
5.92654e-08
5.89828e-08
6.12155e-08
5.85097e-08
6.28469e-08
5.40952e-08
6.47932e-08
3.97802e-08
6.87997e-08
-5.38956e-09
8.40008e-08
-3.5116e-07
1.32342e-08
3.08837e-07
1.17888e-07
2.02142e-07
6.1275e-08
-6.74471e-08
1.65783e-08
-8.43148e-08
-5.5424e-08
-9.99984e-08
-9.36071e-08
-1.11402e-07
-1.11928e-07
-1.18345e-07
-1.18818e-07
-1.21361e-07
-1.20066e-07
-1.20639e-07
-1.18685e-07
-1.17158e-07
-1.15254e-07
-1.12573e-07
-1.09959e-07
-1.07233e-07
-1.0387e-07
-1.00824e-07
-9.74836e-08
-9.38662e-08
-9.05091e-08
-8.67997e-08
-8.31181e-08
-7.95252e-08
-7.56872e-08
-7.19545e-08
-6.82223e-08
-6.43439e-08
-6.06062e-08
-5.68032e-08
-5.29866e-08
-4.92654e-08
-4.54585e-08
-4.1753e-08
-3.80473e-08
-3.43506e-08
-3.07306e-08
-2.70972e-08
-2.35564e-08
-2.00227e-08
-1.65645e-08
-1.31343e-08
-9.77805e-09
-6.45288e-09
-3.56288e-09
-9.42993e-10
1.56495e-09
3.94903e-09
6.30733e-09
8.57515e-09
1.07467e-08
1.28734e-08
1.4906e-08
1.68879e-08
1.88023e-08
2.06545e-08
2.24563e-08
2.42015e-08
2.58982e-08
2.7551e-08
2.9157e-08
3.07281e-08
3.22609e-08
3.37638e-08
3.52371e-08
3.66853e-08
3.8114e-08
3.95225e-08
4.09221e-08
4.2304e-08
4.36839e-08
4.5049e-08
4.64192e-08
4.77724e-08
4.9139e-08
5.04696e-08
5.18359e-08
5.30997e-08
5.44713e-08
5.55667e-08
5.69758e-08
5.76653e-08
5.92514e-08
5.89632e-08
6.11968e-08
5.84788e-08
6.28216e-08
5.40404e-08
6.47579e-08
3.96606e-08
6.8744e-08
-5.79953e-09
8.38886e-08
-3.48759e-07
1.48248e-08
3.08852e-07
1.16859e-07
2.00778e-07
6.17791e-08
-6.58005e-08
1.70129e-08
-8.3588e-08
-5.48989e-08
-9.94144e-08
-9.31711e-08
-1.10981e-07
-1.11596e-07
-1.1805e-07
-1.18572e-07
-1.2115e-07
-1.19889e-07
-1.20484e-07
-1.18556e-07
-1.17045e-07
-1.15158e-07
-1.12492e-07
-1.09887e-07
-1.07172e-07
-1.03818e-07
-1.00778e-07
-9.74447e-08
-9.38327e-08
-9.04797e-08
-8.67752e-08
-8.30967e-08
-7.95067e-08
-7.56719e-08
-7.19412e-08
-6.82112e-08
-6.43348e-08
-6.05985e-08
-5.67971e-08
-5.29816e-08
-4.92615e-08
-4.54557e-08
-4.1751e-08
-3.80461e-08
-3.435e-08
-3.07306e-08
-2.70978e-08
-2.35574e-08
-2.00241e-08
-1.65662e-08
-1.31363e-08
-9.78038e-09
-6.45541e-09
-3.56546e-09
-9.45871e-10
1.56191e-09
3.94603e-09
6.30411e-09
8.57184e-09
1.07434e-08
1.287e-08
1.49027e-08
1.68846e-08
1.87991e-08
2.06513e-08
2.24531e-08
2.41983e-08
2.5895e-08
2.75479e-08
2.91539e-08
3.0725e-08
3.22578e-08
3.37607e-08
3.5234e-08
3.66821e-08
3.81108e-08
3.95191e-08
4.09185e-08
4.23003e-08
4.368e-08
4.50448e-08
4.64147e-08
4.77674e-08
4.91336e-08
5.04635e-08
5.18291e-08
5.30919e-08
5.44626e-08
5.55563e-08
5.69644e-08
5.76509e-08
5.92363e-08
5.89421e-08
6.11766e-08
5.84456e-08
6.27945e-08
5.39816e-08
6.47201e-08
3.95329e-08
6.86847e-08
-6.23257e-09
8.37658e-08
-3.46172e-07
1.65383e-08
3.08807e-07
1.15801e-07
1.9933e-07
6.23032e-08
-6.40508e-08
1.74734e-08
-8.28044e-08
-5.434e-08
-9.87873e-08
-9.27044e-08
-1.1053e-07
-1.11239e-07
-1.17733e-07
-1.18307e-07
-1.20923e-07
-1.19697e-07
-1.20318e-07
-1.18418e-07
-1.16923e-07
-1.15054e-07
-1.12404e-07
-1.0981e-07
-1.07106e-07
-1.03762e-07
-1.00728e-07
-9.74027e-08
-9.37965e-08
-9.0448e-08
-8.67487e-08
-8.30736e-08
-7.94868e-08
-7.56553e-08
-7.19268e-08
-6.81992e-08
-6.4325e-08
-6.05901e-08
-5.67904e-08
-5.29763e-08
-4.92573e-08
-4.54527e-08
-4.17488e-08
-3.80447e-08
-3.43494e-08
-3.07306e-08
-2.70984e-08
-2.35585e-08
-2.00256e-08
-1.65681e-08
-1.31385e-08
-9.78288e-09
-6.45813e-09
-3.56822e-09
-9.4896e-10
1.55865e-09
3.94279e-09
6.30065e-09
8.56827e-09
1.07398e-08
1.28664e-08
1.48991e-08
1.6881e-08
1.87955e-08
2.06478e-08
2.24496e-08
2.41949e-08
2.58916e-08
2.75445e-08
2.91505e-08
3.07217e-08
3.22544e-08
3.37573e-08
3.52306e-08
3.66786e-08
3.81072e-08
3.95154e-08
4.09147e-08
4.22963e-08
4.36758e-08
4.50403e-08
4.64098e-08
4.77621e-08
4.91277e-08
5.04569e-08
5.18217e-08
5.30834e-08
5.44532e-08
5.55451e-08
5.69522e-08
5.76355e-08
5.922e-08
5.89195e-08
6.11549e-08
5.841e-08
6.27653e-08
5.39187e-08
6.46794e-08
3.93965e-08
6.86216e-08
-6.68916e-09
8.36314e-08
-3.43385e-07
1.83836e-08
3.08688e-07
1.14716e-07
1.97795e-07
6.28469e-08
-6.21939e-08
1.79606e-08
-8.19597e-08
-5.37456e-08
-9.81141e-08
-9.22049e-08
-1.10044e-07
-1.10856e-07
-1.17391e-07
-1.18023e-07
-1.20678e-07
-1.19491e-07
-1.20139e-07
-1.18268e-07
-1.16792e-07
-1.14942e-07
-1.12309e-07
-1.09727e-07
-1.07034e-07
-1.03702e-07
-1.00675e-07
-9.73574e-08
-9.37575e-08
-9.04138e-08
-8.672e-08
-8.30487e-08
-7.94652e-08
-7.56374e-08
-7.19112e-08
-6.81862e-08
-6.43144e-08
-6.05811e-08
-5.67832e-08
-5.29705e-08
-4.92527e-08
-4.54494e-08
-4.17463e-08
-3.80433e-08
-3.43487e-08
-3.07306e-08
-2.7099e-08
-2.35596e-08
-2.00272e-08
-1.65701e-08
-1.31409e-08
-9.78556e-09
-6.46104e-09
-3.5712e-09
-9.52286e-10
1.55514e-09
3.93931e-09
6.29692e-09
8.56443e-09
1.0736e-08
1.28625e-08
1.48953e-08
1.68772e-08
1.87917e-08
2.06441e-08
2.24459e-08
2.41912e-08
2.5888e-08
2.75408e-08
2.91469e-08
3.0718e-08
3.22508e-08
3.37537e-08
3.52269e-08
3.66749e-08
3.81034e-08
3.95115e-08
4.09107e-08
4.2292e-08
4.36712e-08
4.50354e-08
4.64045e-08
4.77563e-08
4.91213e-08
5.04498e-08
5.18138e-08
5.30743e-08
5.44431e-08
5.5533e-08
5.69389e-08
5.76188e-08
5.92026e-08
5.88952e-08
6.11316e-08
5.83718e-08
6.27339e-08
5.38514e-08
6.46359e-08
3.92509e-08
6.85545e-08
-7.16972e-09
8.34839e-08
-3.40388e-07
2.03701e-08
3.08483e-07
1.1361e-07
1.96169e-07
6.34092e-08
-6.0226e-08
1.84752e-08
-8.10493e-08
-5.3114e-08
-9.73914e-08
-9.16707e-08
-1.09522e-07
-1.10445e-07
-1.17024e-07
-1.17717e-07
-1.20414e-07
-1.19269e-07
-1.19946e-07
-1.18107e-07
-1.16651e-07
-1.14822e-07
-1.12207e-07
-1.09637e-07
-1.06958e-07
-1.03637e-07
-1.00617e-07
-9.73084e-08
-9.37154e-08
-9.03769e-08
-8.66891e-08
-8.30218e-08
-7.94419e-08
-7.56181e-08
-7.18944e-08
-6.81721e-08
-6.43029e-08
-6.05713e-08
-5.67754e-08
-5.29642e-08
-4.92478e-08
-4.54458e-08
-4.17437e-08
-3.80416e-08
-3.43479e-08
-3.07306e-08
-2.70996e-08
-2.35608e-08
-2.00289e-08
-1.65722e-08
-1.31434e-08
-9.78843e-09
-6.46417e-09
-3.57439e-09
-9.55856e-10
1.55137e-09
3.93556e-09
6.29291e-09
8.5603e-09
1.07318e-08
1.28584e-08
1.48912e-08
1.68731e-08
1.87876e-08
2.064e-08
2.24418e-08
2.41872e-08
2.5884e-08
2.75369e-08
2.9143e-08
3.07141e-08
3.22469e-08
3.37498e-08
3.52229e-08
3.66709e-08
3.80993e-08
3.95073e-08
4.09062e-08
4.22873e-08
4.36663e-08
4.50301e-08
4.63988e-08
4.77501e-08
4.91145e-08
5.04421e-08
5.18053e-08
5.30645e-08
5.44322e-08
5.552e-08
5.69247e-08
5.76009e-08
5.91837e-08
5.88691e-08
6.11065e-08
5.83308e-08
6.27002e-08
5.37794e-08
6.45891e-08
3.90958e-08
6.84833e-08
-7.67444e-09
8.33222e-08
-3.37166e-07
2.25076e-08
3.08176e-07
1.12488e-07
1.94451e-07
6.39894e-08
-5.81434e-08
1.90179e-08
-8.00683e-08
-5.24436e-08
-9.66161e-08
-9.10995e-08
-1.08961e-07
-1.10004e-07
-1.16629e-07
-1.17389e-07
-1.2013e-07
-1.19031e-07
-1.19738e-07
-1.17934e-07
-1.16499e-07
-1.14692e-07
-1.12097e-07
-1.09541e-07
-1.06875e-07
-1.03566e-07
-1.00555e-07
-9.72556e-08
-9.36699e-08
-9.03371e-08
-8.66557e-08
-8.29927e-08
-7.94168e-08
-7.55972e-08
-7.18763e-08
-6.81569e-08
-6.42905e-08
-6.05607e-08
-5.67669e-08
-5.29574e-08
-4.92424e-08
-4.54419e-08
-4.17408e-08
-3.80399e-08
-3.4347e-08
-3.07305e-08
-2.71003e-08
-2.35621e-08
-2.00307e-08
-1.65745e-08
-1.31461e-08
-9.79151e-09
-6.46753e-09
-3.57783e-09
-9.59699e-10
1.54732e-09
3.93153e-09
6.2886e-09
8.55585e-09
1.07273e-08
1.28539e-08
1.48867e-08
1.68686e-08
1.87832e-08
2.06357e-08
2.24375e-08
2.41829e-08
2.58798e-08
2.75327e-08
2.91388e-08
3.07099e-08
3.22427e-08
3.37456e-08
3.52187e-08
3.66665e-08
3.80948e-08
3.95027e-08
4.09015e-08
4.22823e-08
4.3661e-08
4.50244e-08
4.63927e-08
4.77433e-08
4.91071e-08
5.04338e-08
5.17961e-08
5.30539e-08
5.44204e-08
5.5506e-08
5.69094e-08
5.75816e-08
5.91634e-08
5.88411e-08
6.10794e-08
5.82869e-08
6.2664e-08
5.37024e-08
6.4539e-08
3.89305e-08
6.84077e-08
-8.20337e-09
8.31445e-08
-3.33707e-07
2.4806e-08
3.07752e-07
1.11357e-07
1.92637e-07
6.45862e-08
-5.59428e-08
1.95893e-08
-7.90115e-08
-5.17326e-08
-9.57843e-08
-9.04892e-08
-1.08359e-07
-1.09531e-07
-1.16203e-07
-1.17037e-07
-1.19824e-07
-1.18774e-07
-1.19515e-07
-1.17747e-07
-1.16336e-07
-1.14552e-07
-1.11978e-07
-1.09436e-07
-1.06785e-07
-1.0349e-07
-1.00488e-07
-9.71986e-08
-9.36209e-08
-9.02941e-08
-8.66197e-08
-8.29613e-08
-7.93896e-08
-7.55746e-08
-7.18566e-08
-6.81404e-08
-6.4277e-08
-6.05492e-08
-5.67577e-08
-5.295e-08
-4.92365e-08
-4.54376e-08
-4.17377e-08
-3.80379e-08
-3.4346e-08
-3.07304e-08
-2.71009e-08
-2.35634e-08
-2.00326e-08
-1.6577e-08
-1.3149e-08
-9.79481e-09
-6.47113e-09
-3.58152e-09
-9.63824e-10
1.54296e-09
3.92719e-09
6.28396e-09
8.55107e-09
1.07225e-08
1.2849e-08
1.48819e-08
1.68639e-08
1.87785e-08
2.0631e-08
2.24328e-08
2.41783e-08
2.58752e-08
2.75281e-08
2.91342e-08
3.07054e-08
3.22382e-08
3.3741e-08
3.52141e-08
3.66619e-08
3.80901e-08
3.94977e-08
4.08963e-08
4.22769e-08
4.36553e-08
4.50183e-08
4.6386e-08
4.77361e-08
4.90991e-08
5.04248e-08
5.17862e-08
5.30425e-08
5.44077e-08
5.54909e-08
5.68929e-08
5.75609e-08
5.91416e-08
5.88109e-08
6.10504e-08
5.82399e-08
6.2625e-08
5.36201e-08
6.44853e-08
3.87546e-08
6.83275e-08
-8.75627e-09
8.29492e-08
-3.29998e-07
2.72758e-08
3.07192e-07
1.10226e-07
1.90725e-07
6.51985e-08
-5.36216e-08
2.01897e-08
-7.78735e-08
-5.09795e-08
-9.48922e-08
-8.98375e-08
-1.07712e-07
-1.09024e-07
-1.15745e-07
-1.16658e-07
-1.19495e-07
-1.18498e-07
-1.19274e-07
-1.17546e-07
-1.16159e-07
-1.14401e-07
-1.1185e-07
-1.09324e-07
-1.06689e-07
-1.03409e-07
-1.00415e-07
-9.71371e-08
-9.35679e-08
-9.02477e-08
-8.65807e-08
-8.29273e-08
-7.93602e-08
-7.55501e-08
-7.18354e-08
-6.81226e-08
-6.42624e-08
-6.05367e-08
-5.67478e-08
-5.29419e-08
-4.92301e-08
-4.5433e-08
-4.17342e-08
-3.80357e-08
-3.43449e-08
-3.07302e-08
-2.71016e-08
-2.35648e-08
-2.00347e-08
-1.65796e-08
-1.31521e-08
-9.79834e-09
-6.475e-09
-3.58548e-09
-9.68261e-10
1.53827e-09
3.92252e-09
6.27897e-09
8.54593e-09
1.07174e-08
1.28438e-08
1.48768e-08
1.68587e-08
1.87734e-08
2.06259e-08
2.24278e-08
2.41733e-08
2.58702e-08
2.75232e-08
2.91294e-08
3.07005e-08
3.22333e-08
3.37361e-08
3.52091e-08
3.66568e-08
3.80849e-08
3.94924e-08
4.08908e-08
4.22711e-08
4.36491e-08
4.50117e-08
4.63789e-08
4.77282e-08
4.90905e-08
5.04152e-08
5.17755e-08
5.30302e-08
5.43941e-08
5.54747e-08
5.68751e-08
5.75385e-08
5.91181e-08
5.87786e-08
6.10191e-08
5.81895e-08
6.25831e-08
5.35322e-08
6.44278e-08
3.85677e-08
6.82425e-08
-9.33267e-09
8.27344e-08
-3.26026e-07
2.99275e-08
3.06477e-07
1.09103e-07
1.88715e-07
6.58248e-08
-5.11776e-08
2.08193e-08
-7.66483e-08
-5.01825e-08
-9.39358e-08
-8.91418e-08
-1.07017e-07
-1.08481e-07
-1.15253e-07
-1.16251e-07
-1.1914e-07
-1.182e-07
-1.19014e-07
-1.17328e-07
-1.15969e-07
-1.14238e-07
-1.11712e-07
-1.09203e-07
-1.06585e-07
-1.0332e-07
-1.00337e-07
-9.70706e-08
-9.35107e-08
-9.01975e-08
-8.65385e-08
-8.28906e-08
-7.93284e-08
-7.55237e-08
-7.18124e-08
-6.81033e-08
-6.42465e-08
-6.05232e-08
-5.67369e-08
-5.29332e-08
-4.92231e-08
-4.54279e-08
-4.17304e-08
-3.80333e-08
-3.43437e-08
-3.073e-08
-2.71023e-08
-2.35662e-08
-2.00368e-08
-1.65823e-08
-1.31554e-08
-9.80212e-09
-6.47914e-09
-3.58973e-09
-9.73023e-10
1.53324e-09
3.9175e-09
6.2736e-09
8.5404e-09
1.07118e-08
1.28382e-08
1.48712e-08
1.68532e-08
1.87679e-08
2.06205e-08
2.24224e-08
2.41679e-08
2.58649e-08
2.75179e-08
2.91241e-08
3.06953e-08
3.2228e-08
3.37308e-08
3.52037e-08
3.66514e-08
3.80793e-08
3.94866e-08
4.08848e-08
4.22648e-08
4.36424e-08
4.50045e-08
4.63711e-08
4.77198e-08
4.90812e-08
5.04048e-08
5.17639e-08
5.30169e-08
5.43793e-08
5.54572e-08
5.68559e-08
5.75145e-08
5.90928e-08
5.87439e-08
6.09855e-08
5.81355e-08
6.25382e-08
5.34384e-08
6.43662e-08
3.83693e-08
6.81523e-08
-9.93172e-09
8.24979e-08
-3.21777e-07
3.27718e-08
3.05585e-07
1.07999e-07
1.86604e-07
6.64633e-08
-4.86094e-08
2.1478e-08
-7.53301e-08
-4.93402e-08
-9.29108e-08
-8.83998e-08
-1.06271e-07
-1.07899e-07
-1.14723e-07
-1.15814e-07
-1.18758e-07
-1.1788e-07
-1.18735e-07
-1.17094e-07
-1.15764e-07
-1.14063e-07
-1.11563e-07
-1.09073e-07
-1.06473e-07
-1.03225e-07
-1.00253e-07
-9.69988e-08
-9.34488e-08
-9.01433e-08
-8.64929e-08
-8.2851e-08
-7.92941e-08
-7.5495e-08
-7.17875e-08
-6.80823e-08
-6.42293e-08
-6.05085e-08
-5.67252e-08
-5.29237e-08
-4.92155e-08
-4.54223e-08
-4.17263e-08
-3.80307e-08
-3.43422e-08
-3.07296e-08
-2.7103e-08
-2.35678e-08
-2.00391e-08
-1.65853e-08
-1.31589e-08
-9.80616e-09
-6.48358e-09
-3.5943e-09
-9.7814e-10
1.52784e-09
3.9121e-09
6.26783e-09
8.53445e-09
1.07058e-08
1.28322e-08
1.48653e-08
1.68472e-08
1.87619e-08
2.06146e-08
2.24165e-08
2.41622e-08
2.58592e-08
2.75122e-08
2.91184e-08
3.06896e-08
3.22223e-08
3.37251e-08
3.5198e-08
3.66455e-08
3.80733e-08
3.94804e-08
4.08783e-08
4.2258e-08
4.36352e-08
4.49968e-08
4.63628e-08
4.77106e-08
4.90712e-08
5.03936e-08
5.17515e-08
5.30026e-08
5.43634e-08
5.54383e-08
5.68352e-08
5.74887e-08
5.90656e-08
5.87066e-08
6.09493e-08
5.80778e-08
6.24899e-08
5.33384e-08
6.43001e-08
3.81588e-08
6.80568e-08
-1.05522e-08
8.22373e-08
-3.17241e-07
3.58193e-08
3.04494e-07
1.06927e-07
1.84394e-07
6.71125e-08
-4.59162e-08
2.21656e-08
-7.39124e-08
-4.8451e-08
-9.18127e-08
-8.76087e-08
-1.05471e-07
-1.07275e-07
-1.14153e-07
-1.15345e-07
-1.18347e-07
-1.17536e-07
-1.18434e-07
-1.16842e-07
-1.15544e-07
-1.13874e-07
-1.11402e-07
-1.08932e-07
-1.06351e-07
-1.03122e-07
-1.00162e-07
-9.69212e-08
-9.33821e-08
-9.00848e-08
-8.64436e-08
-8.28081e-08
-7.92569e-08
-7.5464e-08
-7.17605e-08
-6.80596e-08
-6.42107e-08
-6.04926e-08
-5.67124e-08
-5.29133e-08
-4.92073e-08
-4.54162e-08
-4.17217e-08
-3.80277e-08
-3.43407e-08
-3.07292e-08
-2.71037e-08
-2.35693e-08
-2.00415e-08
-1.65884e-08
-1.31627e-08
-9.81048e-09
-6.48833e-09
-3.5992e-09
-9.83631e-10
1.52204e-09
3.9063e-09
6.26163e-09
8.52806e-09
1.06994e-08
1.28257e-08
1.48588e-08
1.68408e-08
1.87556e-08
2.06083e-08
2.24102e-08
2.41559e-08
2.5853e-08
2.7506e-08
2.91123e-08
3.06835e-08
3.22162e-08
3.37189e-08
3.51917e-08
3.66392e-08
3.80668e-08
3.94737e-08
4.08714e-08
4.22507e-08
4.36275e-08
4.49884e-08
4.63538e-08
4.77008e-08
4.90604e-08
5.03814e-08
5.17381e-08
5.29872e-08
5.43463e-08
5.5418e-08
5.68129e-08
5.7461e-08
5.90362e-08
5.86667e-08
6.09104e-08
5.8016e-08
6.2438e-08
5.32318e-08
6.42295e-08
3.79361e-08
6.79556e-08
-1.11925e-08
8.19503e-08
-3.12404e-07
3.90804e-08
3.03179e-07
1.059e-07
1.82083e-07
6.77705e-08
-4.30984e-08
2.28814e-08
-7.23887e-08
-4.75135e-08
-9.06368e-08
-8.67659e-08
-1.04612e-07
-1.06608e-07
-1.1354e-07
-1.14842e-07
-1.17904e-07
-1.17165e-07
-1.1811e-07
-1.1657e-07
-1.15306e-07
-1.1367e-07
-1.11228e-07
-1.0878e-07
-1.0622e-07
-1.0301e-07
-1.00064e-07
-9.68374e-08
-9.33099e-08
-9.00216e-08
-8.63902e-08
-8.27617e-08
-7.92167e-08
-7.54303e-08
-7.17314e-08
-6.80351e-08
-6.41905e-08
-6.04754e-08
-5.66985e-08
-5.29021e-08
-4.91983e-08
-4.54095e-08
-4.17167e-08
-3.80245e-08
-3.43389e-08
-3.07287e-08
-2.71043e-08
-2.3571e-08
-2.0044e-08
-1.65917e-08
-1.31667e-08
-9.81509e-09
-6.49343e-09
-3.60446e-09
-9.89525e-10
1.51581e-09
3.90006e-09
6.25497e-09
8.5212e-09
1.06925e-08
1.28188e-08
1.48519e-08
1.68339e-08
1.87487e-08
2.06015e-08
2.24035e-08
2.41492e-08
2.58463e-08
2.74994e-08
2.91057e-08
3.06769e-08
3.22096e-08
3.37123e-08
3.5185e-08
3.66323e-08
3.80598e-08
3.94665e-08
4.08639e-08
4.22428e-08
4.36191e-08
4.49795e-08
4.63441e-08
4.76901e-08
4.90487e-08
5.03684e-08
5.17236e-08
5.29706e-08
5.43279e-08
5.53962e-08
5.67889e-08
5.74311e-08
5.90047e-08
5.86238e-08
6.08686e-08
5.795e-08
6.23822e-08
5.31184e-08
6.41538e-08
3.77006e-08
6.78484e-08
-1.18504e-08
8.16338e-08
-3.07256e-07
4.2565e-08
3.01616e-07
1.04932e-07
1.79674e-07
6.84354e-08
-4.01571e-08
2.36246e-08
-7.07524e-08
-4.65264e-08
-8.93782e-08
-8.58687e-08
-1.03691e-07
-1.05893e-07
-1.12881e-07
-1.14301e-07
-1.17427e-07
-1.16766e-07
-1.17762e-07
-1.16276e-07
-1.1505e-07
-1.1345e-07
-1.11041e-07
-1.08617e-07
-1.06079e-07
-1.0289e-07
-9.99578e-08
-9.67467e-08
-9.32319e-08
-8.99532e-08
-8.63324e-08
-8.27115e-08
-7.91731e-08
-7.53939e-08
-7.16998e-08
-6.80084e-08
-6.41685e-08
-6.04566e-08
-5.66833e-08
-5.28898e-08
-4.91884e-08
-4.54022e-08
-4.17113e-08
-3.80209e-08
-3.43368e-08
-3.07281e-08
-2.7105e-08
-2.35727e-08
-2.00467e-08
-1.65953e-08
-1.31709e-08
-9.82002e-09
-6.49887e-09
-3.6101e-09
-9.95842e-10
1.50913e-09
3.89336e-09
6.24781e-09
8.51383e-09
1.06851e-08
1.28113e-08
1.48445e-08
1.68265e-08
1.87413e-08
2.05942e-08
2.23962e-08
2.4142e-08
2.58392e-08
2.74923e-08
2.90987e-08
3.06699e-08
3.22025e-08
3.37052e-08
3.51778e-08
3.6625e-08
3.80523e-08
3.94587e-08
4.08558e-08
4.22342e-08
4.361e-08
4.49698e-08
4.63336e-08
4.76787e-08
4.90361e-08
5.03543e-08
5.17079e-08
5.29527e-08
5.43079e-08
5.53726e-08
5.67631e-08
5.73991e-08
5.89707e-08
5.85778e-08
6.08237e-08
5.78795e-08
6.23224e-08
5.29978e-08
6.40728e-08
3.74521e-08
6.77348e-08
-1.25232e-08
8.12848e-08
-3.01785e-07
4.62825e-08
2.99779e-07
1.04039e-07
1.77169e-07
6.91056e-08
-3.70946e-08
2.43939e-08
-6.89964e-08
-4.54882e-08
-8.80318e-08
-8.49142e-08
-1.02704e-07
-1.05128e-07
-1.12173e-07
-1.13721e-07
-1.16913e-07
-1.16337e-07
-1.17386e-07
-1.1596e-07
-1.14774e-07
-1.13213e-07
-1.10838e-07
-1.0844e-07
-1.05926e-07
-1.0276e-07
-9.98433e-08
-9.66487e-08
-9.31475e-08
-8.98793e-08
-8.62699e-08
-8.26572e-08
-7.9126e-08
-7.53544e-08
-7.16655e-08
-6.79794e-08
-6.41446e-08
-6.04363e-08
-5.66668e-08
-5.28764e-08
-4.91777e-08
-4.53942e-08
-4.17052e-08
-3.80169e-08
-3.43345e-08
-3.07273e-08
-2.71055e-08
-2.35744e-08
-2.00495e-08
-1.6599e-08
-1.31754e-08
-9.82527e-09
-6.5047e-09
-3.61615e-09
-1.00262e-09
1.50197e-09
3.88617e-09
6.24014e-09
8.50592e-09
1.06771e-08
1.28032e-08
1.48366e-08
1.68185e-08
1.87334e-08
2.05863e-08
2.23884e-08
2.41343e-08
2.58315e-08
2.74846e-08
2.9091e-08
3.06622e-08
3.21949e-08
3.36975e-08
3.517e-08
3.66171e-08
3.80441e-08
3.94503e-08
4.0847e-08
4.2225e-08
4.36003e-08
4.49593e-08
4.63223e-08
4.76663e-08
4.90225e-08
5.03391e-08
5.16911e-08
5.29334e-08
5.42865e-08
5.53473e-08
5.67353e-08
5.73646e-08
5.89342e-08
5.85286e-08
6.07754e-08
5.78042e-08
6.22582e-08
5.28697e-08
6.39862e-08
3.71905e-08
6.76144e-08
-1.32074e-08
8.08999e-08
-2.95982e-07
5.02411e-08
2.97641e-07
1.0324e-07
1.7457e-07
6.97795e-08
-3.39143e-08
2.51878e-08
-6.7114e-08
-4.43979e-08
-8.65923e-08
-8.38993e-08
-1.01646e-07
-1.04311e-07
-1.11411e-07
-1.13098e-07
-1.16361e-07
-1.15875e-07
-1.16981e-07
-1.15618e-07
-1.14476e-07
-1.12957e-07
-1.1062e-07
-1.0825e-07
-1.05762e-07
-1.0262e-07
-9.97196e-08
-9.65427e-08
-9.30563e-08
-8.97993e-08
-8.62021e-08
-8.25984e-08
-7.90749e-08
-7.53115e-08
-7.16284e-08
-6.7948e-08
-6.41187e-08
-6.04141e-08
-5.66489e-08
-5.28619e-08
-4.9166e-08
-4.53854e-08
-4.16986e-08
-3.80124e-08
-3.43319e-08
-3.07263e-08
-2.71061e-08
-2.35762e-08
-2.00524e-08
-1.66029e-08
-1.31802e-08
-9.83086e-09
-6.51092e-09
-3.62261e-09
-1.00987e-09
1.49429e-09
3.87845e-09
6.2319e-09
8.49743e-09
1.06686e-08
1.27946e-08
1.4828e-08
1.68099e-08
1.87249e-08
2.05779e-08
2.238e-08
2.4126e-08
2.58232e-08
2.74764e-08
2.90828e-08
3.0654e-08
3.21866e-08
3.36892e-08
3.51616e-08
3.66085e-08
3.80354e-08
3.94413e-08
4.08376e-08
4.22151e-08
4.35898e-08
4.4948e-08
4.63101e-08
4.76529e-08
4.90079e-08
5.03227e-08
5.16729e-08
5.29126e-08
5.42634e-08
5.532e-08
5.67053e-08
5.73276e-08
5.88948e-08
5.84759e-08
6.07234e-08
5.77239e-08
6.21893e-08
5.27339e-08
6.38935e-08
3.69156e-08
6.74868e-08
-1.38988e-08
8.04756e-08
-2.89838e-07
5.44478e-08
2.95178e-07
1.02552e-07
1.71883e-07
7.04557e-08
-3.06209e-08