/*--------------------------------*- C++ -*----------------------------------*\
| =========                 |                                                 |
| \\      /  F ield         | OpenFOAM: The Open Source CFD Toolbox           |
|  \\    /   O peration     | Version:  5.x                                   |
|   \\  /    A nd           | Web:      www.OpenFOAM.org                      |
|    \\/     M anipulation  |                                                 |
\*---------------------------------------------------------------------------*/
FoamFile
{
    version     2.0;
    format      ascii;
    class       volScalarField;
    location    "1500";
    object      p;
}
// * * * * * * * * * * * * * * * * * * * * * * * * * * * * * * * * * * * * * //

dimensions      [0 2 -2 0 0 0 0];

internalField   nonuniform List<scalar> 
107912
(
-1.10994e-05
1.54081e-05
-1.41086e-05
-1.61274e-05
-4.25138e-05
-5.69328e-05
-4.3567e-05
-5.63118e-05
-5.05906e-05
-5.33753e-05
-5.04502e-05
-4.9586e-05
-4.72245e-05
-4.52118e-05
-4.29723e-05
-4.07719e-05
-3.85371e-05
-3.64378e-05
-3.43365e-05
-3.24368e-05
-3.05664e-05
-2.88478e-05
-2.72877e-05
-2.5794e-05
-2.44321e-05
-2.31872e-05
-2.20594e-05
-2.10624e-05
-2.01523e-05
-1.93335e-05
-1.86163e-05
-1.79634e-05
-1.74022e-05
-1.68985e-05
-1.64278e-05
-1.60567e-05
-1.5698e-05
-1.54036e-05
-1.51696e-05
-1.49471e-05
-1.47396e-05
-1.45663e-05
-1.44129e-05
-1.42772e-05
-1.41738e-05
-1.41095e-05
-1.40202e-05
-1.39997e-05
-1.3931e-05
-1.39464e-05
-1.39271e-05
-1.39448e-05
-1.39165e-05
-1.39519e-05
-1.39509e-05
-1.39741e-05
-1.39775e-05
-1.40432e-05
-1.40467e-05
-1.40985e-05
-1.41157e-05
-1.4173e-05
-1.41866e-05
-1.42517e-05
-1.42702e-05
-1.43129e-05
-1.43298e-05
-1.43873e-05
-1.44078e-05
-1.44312e-05
-1.44488e-05
-1.45103e-05
-1.45369e-05
-1.45974e-05
-1.46212e-05
-1.46065e-05
-1.4622e-05
-1.46759e-05
-1.46911e-05
-1.46709e-05
-1.46695e-05
-1.46601e-05
-1.46555e-05
-1.46339e-05
-1.46225e-05
-1.46002e-05
-1.45829e-05
-1.45548e-05
-1.45279e-05
-1.44794e-05
-1.44441e-05
-1.44099e-05
-1.43669e-05
-1.43462e-05
-1.4299e-05
-1.4308e-05
-1.41946e-05
-1.43387e-05
-1.41491e-05
-1.46101e-05
-1.3977e-05
-1.70978e-05
-1.55452e-05
1.54057e-05
-1.41885e-05
-1.61833e-05
-4.24272e-05
-5.68363e-05
-4.35447e-05
-5.62669e-05
-5.05696e-05
-5.33534e-05
-5.04406e-05
-4.95795e-05
-4.72236e-05
-4.52133e-05
-4.29756e-05
-4.0777e-05
-3.8543e-05
-3.6444e-05
-3.4343e-05
-3.24432e-05
-3.05728e-05
-2.88539e-05
-2.72933e-05
-2.57994e-05
-2.44373e-05
-2.3192e-05
-2.20636e-05
-2.10663e-05
-2.01558e-05
-1.93367e-05
-1.86192e-05
-1.7966e-05
-1.74045e-05
-1.69006e-05
-1.64301e-05
-1.60583e-05
-1.56997e-05
-1.54053e-05
-1.51709e-05
-1.49483e-05
-1.47409e-05
-1.45675e-05
-1.4414e-05
-1.42783e-05
-1.41749e-05
-1.41103e-05
-1.40214e-05
-1.40004e-05
-1.39323e-05
-1.39471e-05
-1.39278e-05
-1.39452e-05
-1.39177e-05
-1.39526e-05
-1.39517e-05
-1.39747e-05
-1.39783e-05
-1.40435e-05
-1.40476e-05
-1.4099e-05
-1.41164e-05
-1.41733e-05
-1.41872e-05
-1.4252e-05
-1.42707e-05
-1.43132e-05
-1.43303e-05
-1.43875e-05
-1.44082e-05
-1.44315e-05
-1.44492e-05
-1.45105e-05
-1.45373e-05
-1.45976e-05
-1.46213e-05
-1.46067e-05
-1.46224e-05
-1.46761e-05
-1.46911e-05
-1.46711e-05
-1.46696e-05
-1.46604e-05
-1.46557e-05
-1.46341e-05
-1.46226e-05
-1.46004e-05
-1.4583e-05
-1.4555e-05
-1.4528e-05
-1.44798e-05
-1.44444e-05
-1.44104e-05
-1.43672e-05
-1.43466e-05
-1.42993e-05
-1.43085e-05
-1.41951e-05
-1.43394e-05
-1.41494e-05
-1.46119e-05
-1.39774e-05
-1.69846e-05
-1.60475e-05
1.54046e-05
-1.42799e-05
-1.62467e-05
-4.23304e-05
-5.67211e-05
-4.35159e-05
-5.62158e-05
-5.05425e-05
-5.33269e-05
-5.04271e-05
-4.95702e-05
-4.72205e-05
-4.52131e-05
-4.29775e-05
-4.0781e-05
-3.8548e-05
-3.64497e-05
-3.43492e-05
-3.24494e-05
-3.0579e-05
-2.88599e-05
-2.72988e-05
-2.5805e-05
-2.44427e-05
-2.31971e-05
-2.20681e-05
-2.10704e-05
-2.01596e-05
-1.93402e-05
-1.86225e-05
-1.79689e-05
-1.74071e-05
-1.69029e-05
-1.64328e-05
-1.60601e-05
-1.57017e-05
-1.54073e-05
-1.51724e-05
-1.49498e-05
-1.47423e-05
-1.45689e-05
-1.44152e-05
-1.42798e-05
-1.41762e-05
-1.41114e-05
-1.4023e-05
-1.40012e-05
-1.3934e-05
-1.3948e-05
-1.39287e-05
-1.39458e-05
-1.39193e-05
-1.39537e-05
-1.39529e-05
-1.39756e-05
-1.39795e-05
-1.40441e-05
-1.40487e-05
-1.40997e-05
-1.41173e-05
-1.41738e-05
-1.41882e-05
-1.42524e-05
-1.42715e-05
-1.43136e-05
-1.43311e-05
-1.43879e-05
-1.44088e-05
-1.44319e-05
-1.44499e-05
-1.45108e-05
-1.4538e-05
-1.4598e-05
-1.46215e-05
-1.46071e-05
-1.4623e-05
-1.46764e-05
-1.46912e-05
-1.46714e-05
-1.46699e-05
-1.46607e-05
-1.46559e-05
-1.46345e-05
-1.46228e-05
-1.46008e-05
-1.45832e-05
-1.45554e-05
-1.45283e-05
-1.44803e-05
-1.44448e-05
-1.4411e-05
-1.43676e-05
-1.43471e-05
-1.42997e-05
-1.43091e-05
-1.41959e-05
-1.43402e-05
-1.41498e-05
-1.46141e-05
-1.39786e-05
-1.69653e-05
-1.56871e-05
1.54009e-05
-1.43711e-05
-1.63125e-05
-4.22327e-05
-5.66031e-05
-4.34862e-05
-5.61632e-05
-5.0515e-05
-5.32997e-05
-5.04133e-05
-4.95611e-05
-4.72175e-05
-4.52132e-05
-4.29797e-05
-4.07855e-05
-3.85535e-05
-3.64559e-05
-3.43559e-05
-3.24562e-05
-3.05859e-05
-2.88665e-05
-2.73048e-05
-2.58112e-05
-2.44488e-05
-2.32028e-05
-2.20731e-05
-2.10752e-05
-2.0164e-05
-1.93443e-05
-1.86263e-05
-1.79724e-05
-1.74102e-05
-1.69057e-05
-1.64363e-05
-1.60623e-05
-1.57043e-05
-1.541e-05
-1.51744e-05
-1.49517e-05
-1.47444e-05
-1.45709e-05
-1.4417e-05
-1.42819e-05
-1.41782e-05
-1.41129e-05
-1.40254e-05
-1.40023e-05
-1.39365e-05
-1.39494e-05
-1.39302e-05
-1.39467e-05
-1.39217e-05
-1.39552e-05
-1.39547e-05
-1.39768e-05
-1.39812e-05
-1.40449e-05
-1.40504e-05
-1.41008e-05
-1.41188e-05
-1.41745e-05
-1.41896e-05
-1.42531e-05
-1.42727e-05
-1.43143e-05
-1.43323e-05
-1.43885e-05
-1.44097e-05
-1.44326e-05
-1.44511e-05
-1.45113e-05
-1.45389e-05
-1.45985e-05
-1.46219e-05
-1.46078e-05
-1.46239e-05
-1.46769e-05
-1.46913e-05
-1.46719e-05
-1.46702e-05
-1.46613e-05
-1.46563e-05
-1.46352e-05
-1.46232e-05
-1.46014e-05
-1.45836e-05
-1.4556e-05
-1.45287e-05
-1.4481e-05
-1.44454e-05
-1.44118e-05
-1.43681e-05
-1.43478e-05
-1.43002e-05
-1.43099e-05
-1.41969e-05
-1.43411e-05
-1.41504e-05
-1.46164e-05
-1.39799e-05
-1.69596e-05
-1.54911e-05
1.53945e-05
-1.44642e-05
-1.6382e-05
-4.2131e-05
-5.64794e-05
-4.34547e-05
-5.61073e-05
-5.04864e-05
-5.32709e-05
-5.0399e-05
-4.95515e-05
-4.72148e-05
-4.52137e-05
-4.29823e-05
-4.07904e-05
-3.85595e-05
-3.64627e-05
-3.43632e-05
-3.24636e-05
-3.05934e-05
-2.88738e-05
-2.73113e-05
-2.5818e-05
-2.44555e-05
-2.32092e-05
-2.20786e-05
-2.10804e-05
-2.01688e-05
-1.93489e-05
-1.86305e-05
-1.79762e-05
-1.74137e-05
-1.69088e-05
-1.64401e-05
-1.60647e-05
-1.57071e-05
-1.54129e-05
-1.51767e-05
-1.49539e-05
-1.47466e-05
-1.45732e-05
-1.4419e-05
-1.42843e-05
-1.41805e-05
-1.41147e-05
-1.4028e-05
-1.40037e-05
-1.39393e-05
-1.3951e-05
-1.39318e-05
-1.39478e-05
-1.39245e-05
-1.39571e-05
-1.39567e-05
-1.39784e-05
-1.39833e-05
-1.40459e-05
-1.40525e-05
-1.41021e-05
-1.41206e-05
-1.41755e-05
-1.41913e-05
-1.4254e-05
-1.42741e-05
-1.43151e-05
-1.43337e-05
-1.43893e-05
-1.44108e-05
-1.44335e-05
-1.44524e-05
-1.45119e-05
-1.45401e-05
-1.45993e-05
-1.46223e-05
-1.46086e-05
-1.4625e-05
-1.46775e-05
-1.46914e-05
-1.46725e-05
-1.46706e-05
-1.4662e-05
-1.46567e-05
-1.46359e-05
-1.46237e-05
-1.4602e-05
-1.4584e-05
-1.45566e-05
-1.45291e-05
-1.44819e-05
-1.4446e-05
-1.44127e-05
-1.43688e-05
-1.43487e-05
-1.43008e-05
-1.43108e-05
-1.4198e-05
-1.43422e-05
-1.4151e-05
-1.46188e-05
-1.39813e-05
-1.69482e-05
-1.53897e-05
1.53851e-05
-1.45601e-05
-1.64559e-05
-4.20236e-05
-5.63483e-05
-4.3421e-05
-5.60474e-05
-5.04563e-05
-5.32403e-05
-5.03839e-05
-4.95416e-05
-4.72123e-05
-4.52146e-05
-4.29855e-05
-4.07962e-05
-3.85663e-05
-3.64703e-05
-3.43714e-05
-3.24719e-05
-3.06018e-05
-2.88818e-05
-2.73186e-05
-2.58256e-05
-2.4463e-05
-2.32164e-05
-2.20849e-05
-2.10864e-05
-2.01743e-05
-1.93541e-05
-1.86354e-05
-1.79806e-05
-1.74177e-05
-1.69124e-05
-1.64446e-05
-1.60676e-05
-1.57105e-05
-1.54165e-05
-1.51793e-05
-1.49565e-05
-1.47494e-05
-1.45759e-05
-1.44214e-05
-1.42873e-05
-1.41834e-05
-1.41169e-05
-1.40314e-05
-1.40055e-05
-1.39429e-05
-1.39531e-05
-1.3934e-05
-1.39492e-05
-1.3928e-05
-1.39594e-05
-1.39593e-05
-1.39803e-05
-1.39859e-05
-1.40472e-05
-1.4055e-05
-1.41038e-05
-1.41228e-05
-1.41767e-05
-1.41934e-05
-1.42551e-05
-1.42758e-05
-1.43162e-05
-1.43355e-05
-1.43903e-05
-1.44121e-05
-1.44345e-05
-1.4454e-05
-1.45127e-05
-1.45414e-05
-1.46001e-05
-1.46228e-05
-1.46096e-05
-1.46263e-05
-1.46783e-05
-1.46916e-05
-1.46732e-05
-1.46711e-05
-1.46628e-05
-1.46572e-05
-1.46368e-05
-1.46242e-05
-1.46029e-05
-1.45845e-05
-1.45574e-05
-1.45296e-05
-1.4483e-05
-1.44468e-05
-1.44139e-05
-1.43695e-05
-1.43497e-05
-1.43014e-05
-1.43118e-05
-1.41994e-05
-1.43434e-05
-1.41518e-05
-1.46214e-05
-1.39829e-05
-1.69341e-05
-1.5277e-05
1.53726e-05
-1.46586e-05
-1.65339e-05
-4.19097e-05
-5.6208e-05
-4.33844e-05
-5.59826e-05
-5.04243e-05
-5.32071e-05
-5.03678e-05
-4.95307e-05
-4.72095e-05
-4.52155e-05
-4.29889e-05
-4.08022e-05
-3.85736e-05
-3.64785e-05
-3.43801e-05
-3.24807e-05
-3.06107e-05
-2.88905e-05
-2.73264e-05
-2.58337e-05
-2.4471e-05
-2.32241e-05
-2.20917e-05
-2.10928e-05
-2.01802e-05
-1.93596e-05
-1.86407e-05
-1.79854e-05
-1.7422e-05
-1.69162e-05
-1.64493e-05
-1.60707e-05
-1.5714e-05
-1.54202e-05
-1.51822e-05
-1.49593e-05
-1.47523e-05
-1.45788e-05
-1.4424e-05
-1.42904e-05
-1.41864e-05
-1.41192e-05
-1.40349e-05
-1.40074e-05
-1.39466e-05
-1.39553e-05
-1.39362e-05
-1.39507e-05
-1.39315e-05
-1.39618e-05
-1.39621e-05
-1.39823e-05
-1.39886e-05
-1.40486e-05
-1.40576e-05
-1.41056e-05
-1.41251e-05
-1.4178e-05
-1.41957e-05
-1.42563e-05
-1.42776e-05
-1.43173e-05
-1.43373e-05
-1.43913e-05
-1.44135e-05
-1.44357e-05
-1.44557e-05
-1.45136e-05
-1.45429e-05
-1.4601e-05
-1.46234e-05
-1.46107e-05
-1.46278e-05
-1.46791e-05
-1.46918e-05
-1.4674e-05
-1.46717e-05
-1.46636e-05
-1.46578e-05
-1.46378e-05
-1.46248e-05
-1.46038e-05
-1.4585e-05
-1.45583e-05
-1.45301e-05
-1.44841e-05
-1.44476e-05
-1.44151e-05
-1.43704e-05
-1.43508e-05
-1.43022e-05
-1.43129e-05
-1.42009e-05
-1.43447e-05
-1.41527e-05
-1.46242e-05
-1.39846e-05
-1.69189e-05
-1.51444e-05
1.53559e-05
-1.47588e-05
-1.66158e-05
-4.17886e-05
-5.60585e-05
-4.33451e-05
-5.59128e-05
-5.03904e-05
-5.31716e-05
-5.03507e-05
-4.95191e-05
-4.72067e-05
-4.52166e-05
-4.29928e-05
-4.0809e-05
-3.85815e-05
-3.64874e-05
-3.43897e-05
-3.24904e-05
-3.06205e-05
-2.89e-05
-2.7335e-05
-2.58424e-05
-2.44799e-05
-2.32325e-05
-2.20992e-05
-2.10999e-05
-2.01867e-05
-1.93658e-05
-1.86465e-05
-1.79907e-05
-1.74268e-05
-1.69205e-05
-1.64547e-05
-1.60743e-05
-1.57182e-05
-1.54245e-05
-1.51855e-05
-1.49625e-05
-1.47557e-05
-1.45822e-05
-1.44271e-05
-1.42941e-05
-1.419e-05
-1.41221e-05
-1.40391e-05
-1.40098e-05
-1.39509e-05
-1.39579e-05
-1.3939e-05
-1.39526e-05
-1.39356e-05
-1.39646e-05
-1.39652e-05
-1.39848e-05
-1.39918e-05
-1.40503e-05
-1.40606e-05
-1.41077e-05
-1.41278e-05
-1.41796e-05
-1.41982e-05
-1.42577e-05
-1.42796e-05
-1.43187e-05
-1.43394e-05
-1.43926e-05
-1.44152e-05
-1.44371e-05
-1.44576e-05
-1.45146e-05
-1.45445e-05
-1.4602e-05
-1.4624e-05
-1.4612e-05
-1.46294e-05
-1.468e-05
-1.4692e-05
-1.46749e-05
-1.46724e-05
-1.46646e-05
-1.46585e-05
-1.46389e-05
-1.46255e-05
-1.46048e-05
-1.45856e-05
-1.45593e-05
-1.45307e-05
-1.44854e-05
-1.44486e-05
-1.44164e-05
-1.43713e-05
-1.4352e-05
-1.43031e-05
-1.43141e-05
-1.42026e-05
-1.43461e-05
-1.41536e-05
-1.46271e-05
-1.39865e-05
-1.6903e-05
-1.49922e-05
1.53345e-05
-1.486e-05
-1.67009e-05
-4.16592e-05
-5.58979e-05
-4.33023e-05
-5.58372e-05
-5.03542e-05
-5.3133e-05
-5.03322e-05
-4.95062e-05
-4.72034e-05
-4.52175e-05
-4.29968e-05
-4.08159e-05
-3.85898e-05
-3.64968e-05
-3.43997e-05
-3.25006e-05
-3.06309e-05
-2.891e-05
-2.7344e-05
-2.58517e-05
-2.44891e-05
-2.32414e-05
-2.21071e-05
-2.11074e-05
-2.01936e-05
-1.93723e-05
-1.86526e-05
-1.79963e-05
-1.74318e-05
-1.6925e-05
-1.64601e-05
-1.60781e-05
-1.57224e-05
-1.54288e-05
-1.51889e-05
-1.49658e-05
-1.47592e-05
-1.45857e-05
-1.44303e-05
-1.42978e-05
-1.41937e-05
-1.4125e-05
-1.40432e-05
-1.40122e-05
-1.39551e-05
-1.39607e-05
-1.39418e-05
-1.39546e-05
-1.39396e-05
-1.39676e-05
-1.39685e-05
-1.39873e-05
-1.3995e-05
-1.40521e-05
-1.40636e-05
-1.41099e-05
-1.41305e-05
-1.41812e-05
-1.42008e-05
-1.42591e-05
-1.42817e-05
-1.43201e-05
-1.43416e-05
-1.43938e-05
-1.44168e-05
-1.44386e-05
-1.44596e-05
-1.45157e-05
-1.45462e-05
-1.4603e-05
-1.46247e-05
-1.46133e-05
-1.4631e-05
-1.46809e-05
-1.46923e-05
-1.46757e-05
-1.46731e-05
-1.46656e-05
-1.46592e-05
-1.464e-05
-1.46262e-05
-1.46058e-05
-1.45863e-05
-1.45603e-05
-1.45314e-05
-1.44867e-05
-1.44496e-05
-1.44179e-05
-1.43723e-05
-1.43533e-05
-1.4304e-05
-1.43155e-05
-1.42043e-05
-1.43477e-05
-1.41546e-05
-1.46302e-05
-1.39886e-05
-1.68859e-05
-1.48235e-05
1.5307e-05
-1.49612e-05
-1.67889e-05
-4.15203e-05
-5.57257e-05
-4.32563e-05
-5.57553e-05
-5.03157e-05
-5.30914e-05
-5.03124e-05
-4.94921e-05
-4.71999e-05
-4.52185e-05
-4.30012e-05
-4.08234e-05
-3.85987e-05
-3.65068e-05
-3.44105e-05
-3.25116e-05
-3.0642e-05
-2.89208e-05
-2.73537e-05
-2.58617e-05
-2.44992e-05
-2.32511e-05
-2.21157e-05
-2.11156e-05
-2.02011e-05
-1.93795e-05
-1.86593e-05
-1.80025e-05
-1.74373e-05
-1.693e-05
-1.64661e-05
-1.60825e-05
-1.57272e-05
-1.54336e-05
-1.51927e-05
-1.49694e-05
-1.47631e-05
-1.45897e-05
-1.44339e-05
-1.4302e-05
-1.41979e-05
-1.41284e-05
-1.40478e-05
-1.40151e-05
-1.39599e-05
-1.39638e-05
-1.39449e-05
-1.39569e-05
-1.39441e-05
-1.39708e-05
-1.39721e-05
-1.39901e-05
-1.39986e-05
-1.40542e-05
-1.4067e-05
-1.41124e-05
-1.41335e-05
-1.41831e-05
-1.42036e-05
-1.42608e-05
-1.4284e-05
-1.43217e-05
-1.43439e-05
-1.43952e-05
-1.44186e-05
-1.44402e-05
-1.44618e-05
-1.4517e-05
-1.45479e-05
-1.46041e-05
-1.46254e-05
-1.46148e-05
-1.46328e-05
-1.46819e-05
-1.46926e-05
-1.46767e-05
-1.46738e-05
-1.46667e-05
-1.46599e-05
-1.46412e-05
-1.4627e-05
-1.46069e-05
-1.4587e-05
-1.45613e-05
-1.45321e-05
-1.44881e-05
-1.44507e-05
-1.44194e-05
-1.43734e-05
-1.43547e-05
-1.4305e-05
-1.43169e-05
-1.42062e-05
-1.43493e-05
-1.41557e-05
-1.46335e-05
-1.39909e-05
-1.68677e-05
-1.46319e-05
1.52728e-05
-1.5061e-05
-1.68785e-05
-4.13699e-05
-5.55394e-05
-4.32062e-05
-5.56661e-05
-5.02744e-05
-5.30459e-05
-5.02909e-05
-4.94763e-05
-4.71957e-05
-4.5219e-05
-4.30055e-05
-4.0831e-05
-3.86079e-05
-3.65174e-05
-3.44218e-05
-3.25232e-05
-3.06537e-05
-2.89322e-05
-2.7364e-05
-2.58721e-05
-2.45096e-05
-2.32611e-05
-2.21247e-05
-2.11241e-05
-2.0209e-05
-1.93869e-05
-1.86663e-05
-1.80089e-05
-1.74431e-05
-1.69352e-05
-1.64721e-05
-1.60869e-05
-1.57321e-05
-1.54385e-05
-1.51966e-05
-1.49732e-05
-1.47671e-05
-1.45937e-05
-1.44376e-05
-1.43062e-05
-1.42021e-05
-1.41318e-05
-1.40524e-05
-1.40181e-05
-1.39645e-05
-1.39669e-05
-1.39481e-05
-1.39593e-05
-1.39484e-05
-1.39741e-05
-1.39757e-05
-1.3993e-05
-1.40022e-05
-1.40563e-05
-1.40703e-05
-1.41148e-05
-1.41365e-05
-1.4185e-05
-1.42064e-05
-1.42624e-05
-1.42863e-05
-1.43234e-05
-1.43462e-05
-1.43967e-05
-1.44204e-05
-1.44419e-05
-1.4464e-05
-1.45182e-05
-1.45497e-05
-1.46052e-05
-1.46261e-05
-1.46164e-05
-1.46345e-05
-1.46828e-05
-1.4693e-05
-1.46776e-05
-1.46747e-05
-1.46678e-05
-1.46607e-05
-1.46424e-05
-1.46279e-05
-1.46081e-05
-1.45878e-05
-1.45624e-05
-1.45329e-05
-1.44896e-05
-1.44518e-05
-1.44209e-05
-1.43746e-05
-1.43562e-05
-1.4306e-05
-1.43184e-05
-1.42081e-05
-1.43511e-05
-1.41569e-05
-1.4637e-05
-1.39933e-05
-1.68481e-05
-1.44169e-05
1.52304e-05
-1.51579e-05
-1.69691e-05
-4.12063e-05
-5.5338e-05
-4.31521e-05
-5.55689e-05
-5.02303e-05
-5.29967e-05
-5.02678e-05
-4.9459e-05
-4.7191e-05
-4.52194e-05
-4.30102e-05
-4.08391e-05
-3.86177e-05
-3.65286e-05
-3.44339e-05
-3.25355e-05
-3.06662e-05
-2.89443e-05
-2.7375e-05
-2.58833e-05
-2.45208e-05
-2.32719e-05
-2.21346e-05
-2.11333e-05
-2.02174e-05
-1.93949e-05
-1.86737e-05
-1.80157e-05
-1.74493e-05
-1.69409e-05
-1.64787e-05
-1.6092e-05
-1.57374e-05
-1.54438e-05
-1.52009e-05
-1.49773e-05
-1.47715e-05
-1.45981e-05
-1.44417e-05
-1.43109e-05
-1.42068e-05
-1.41357e-05
-1.40574e-05
-1.40215e-05
-1.39696e-05
-1.39704e-05
-1.39517e-05
-1.39619e-05
-1.39532e-05
-1.39776e-05
-1.39796e-05
-1.39962e-05
-1.40061e-05
-1.40587e-05
-1.40739e-05
-1.41175e-05
-1.41397e-05
-1.41872e-05
-1.42095e-05
-1.42643e-05
-1.42887e-05
-1.43252e-05
-1.43487e-05
-1.43982e-05
-1.44223e-05
-1.44437e-05
-1.44663e-05
-1.45196e-05
-1.45515e-05
-1.46063e-05
-1.46269e-05
-1.4618e-05
-1.46364e-05
-1.46837e-05
-1.46933e-05
-1.46786e-05
-1.46755e-05
-1.46689e-05
-1.46616e-05
-1.46437e-05
-1.46288e-05
-1.46093e-05
-1.45886e-05
-1.45635e-05
-1.45337e-05
-1.44911e-05
-1.44531e-05
-1.44225e-05
-1.43759e-05
-1.43578e-05
-1.43071e-05
-1.432e-05
-1.42101e-05
-1.4353e-05
-1.41581e-05
-1.46406e-05
-1.3996e-05
-1.68273e-05
-1.41714e-05
1.51788e-05
-1.52498e-05
-1.7059e-05
-4.10268e-05
-5.51184e-05
-4.3093e-05
-5.54624e-05
-5.01827e-05
-5.29427e-05
-5.02426e-05
-4.94396e-05
-4.71854e-05
-4.52191e-05
-4.30147e-05
-4.08473e-05
-3.86278e-05
-3.65402e-05
-3.44464e-05
-3.25483e-05
-3.06793e-05
-2.8957e-05
-2.73866e-05
-2.58949e-05
-2.45325e-05
-2.3283e-05
-2.21447e-05
-2.11428e-05
-2.02262e-05
-1.94031e-05
-1.86815e-05
-1.80229e-05
-1.74557e-05
-1.69468e-05
-1.64853e-05
-1.60971e-05
-1.57429e-05
-1.54492e-05
-1.52052e-05
-1.49815e-05
-1.47759e-05
-1.46025e-05
-1.44459e-05
-1.43155e-05
-1.42115e-05
-1.41396e-05
-1.40623e-05
-1.40249e-05
-1.39745e-05
-1.39738e-05
-1.39553e-05
-1.39646e-05
-1.39577e-05
-1.39811e-05
-1.39835e-05
-1.39993e-05
-1.401e-05
-1.40611e-05
-1.40774e-05
-1.41202e-05
-1.41429e-05
-1.41893e-05
-1.42124e-05
-1.42661e-05
-1.42911e-05
-1.4327e-05
-1.43512e-05
-1.43998e-05
-1.44243e-05
-1.44456e-05
-1.44686e-05
-1.4521e-05
-1.45533e-05
-1.46074e-05
-1.46278e-05
-1.46197e-05
-1.46382e-05
-1.46847e-05
-1.46938e-05
-1.46796e-05
-1.46764e-05
-1.46701e-05
-1.46625e-05
-1.4645e-05
-1.46298e-05
-1.46105e-05
-1.45895e-05
-1.45647e-05
-1.45346e-05
-1.44927e-05
-1.44544e-05
-1.44242e-05
-1.43772e-05
-1.43595e-05
-1.43083e-05
-1.43217e-05
-1.42122e-05
-1.4355e-05
-1.41594e-05
-1.46445e-05
-1.3999e-05
-1.6805e-05
-1.38936e-05
1.51163e-05
-1.53343e-05
-1.71468e-05
-4.08285e-05
-5.48787e-05
-4.30289e-05
-5.53457e-05
-5.01314e-05
-5.28837e-05
-5.02152e-05
-4.94181e-05
-4.71791e-05
-4.52186e-05
-4.30194e-05
-4.0856e-05
-3.86384e-05
-3.65525e-05
-3.44597e-05
-3.25618e-05
-3.06931e-05
-2.89704e-05
-2.73989e-05
-2.59072e-05
-2.45449e-05
-2.32949e-05
-2.21557e-05
-2.1153e-05
-2.02355e-05
-1.9412e-05
-1.86897e-05
-1.80305e-05
-1.74626e-05
-1.69531e-05
-1.64923e-05
-1.61028e-05
-1.57488e-05
-1.5455e-05
-1.52099e-05
-1.4986e-05
-1.47807e-05
-1.46073e-05
-1.44505e-05
-1.43206e-05
-1.42166e-05
-1.41439e-05
-1.40677e-05
-1.40288e-05
-1.39799e-05
-1.39776e-05
-1.39591e-05
-1.39676e-05
-1.39625e-05
-1.39849e-05
-1.39877e-05
-1.40028e-05
-1.40142e-05
-1.40637e-05
-1.40811e-05
-1.41231e-05
-1.41463e-05
-1.41917e-05
-1.42156e-05
-1.42681e-05
-1.42937e-05
-1.4329e-05
-1.43537e-05
-1.44014e-05
-1.44263e-05
-1.44476e-05
-1.4471e-05
-1.45224e-05
-1.45552e-05
-1.46085e-05
-1.46286e-05
-1.46214e-05
-1.46401e-05
-1.46856e-05
-1.46942e-05
-1.46807e-05
-1.46773e-05
-1.46712e-05
-1.46634e-05
-1.46463e-05
-1.46309e-05
-1.46117e-05
-1.45904e-05
-1.45659e-05
-1.45355e-05
-1.44943e-05
-1.44557e-05
-1.44259e-05
-1.43786e-05
-1.43612e-05
-1.43095e-05
-1.43235e-05
-1.42144e-05
-1.43572e-05
-1.41607e-05
-1.46485e-05
-1.40021e-05
-1.67813e-05
-1.35752e-05
1.50419e-05
-1.54084e-05
-1.72301e-05
-4.06076e-05
-5.46148e-05
-4.29584e-05
-5.52169e-05
-5.00757e-05
-5.28188e-05
-5.01851e-05
-4.93938e-05
-4.71714e-05
-4.52171e-05
-4.30238e-05
-4.08646e-05
-3.86492e-05
-3.65652e-05
-3.44735e-05
-3.25759e-05
-3.07076e-05
-2.89845e-05
-2.74117e-05
-2.59201e-05
-2.45577e-05
-2.33072e-05
-2.2167e-05
-2.11635e-05
-2.02452e-05
-1.94211e-05
-1.86982e-05
-1.80383e-05
-1.74696e-05
-1.69595e-05
-1.64994e-05
-1.61086e-05
-1.57548e-05
-1.54607e-05
-1.52146e-05
-1.49905e-05
-1.47855e-05
-1.46121e-05
-1.4455e-05
-1.43257e-05
-1.42217e-05
-1.41482e-05
-1.40729e-05
-1.40326e-05
-1.3985e-05
-1.39814e-05
-1.3963e-05
-1.39706e-05
-1.39671e-05
-1.39886e-05
-1.39918e-05
-1.40062e-05
-1.40182e-05
-1.40663e-05
-1.40848e-05
-1.4126e-05
-1.41496e-05
-1.4194e-05
-1.42187e-05
-1.427e-05
-1.42962e-05
-1.4331e-05
-1.43563e-05
-1.44031e-05
-1.44283e-05
-1.44496e-05
-1.44733e-05
-1.45239e-05
-1.4557e-05
-1.46096e-05
-1.46295e-05
-1.46232e-05
-1.4642e-05
-1.46865e-05
-1.46947e-05
-1.46817e-05
-1.46783e-05
-1.46724e-05
-1.46644e-05
-1.46476e-05
-1.46319e-05
-1.4613e-05
-1.45914e-05
-1.4567e-05
-1.45365e-05
-1.4496e-05
-1.44571e-05
-1.44276e-05
-1.43801e-05
-1.4363e-05
-1.43108e-05
-1.43254e-05
-1.42165e-05
-1.43594e-05
-1.41622e-05
-1.46527e-05
-1.40056e-05
-1.67559e-05
-1.32125e-05
1.49536e-05
-1.54685e-05
-1.73067e-05
-4.03601e-05
-5.43236e-05
-4.28812e-05
-5.50746e-05
-5.00152e-05
-5.27474e-05
-5.01521e-05
-4.93669e-05
-4.71627e-05
-4.52149e-05
-4.30282e-05
-4.08735e-05
-3.86604e-05
-3.65785e-05
-3.4488e-05
-3.25908e-05
-3.07228e-05
-2.89993e-05
-2.74254e-05
-2.59336e-05
-2.45712e-05
-2.33202e-05
-2.21791e-05
-2.11747e-05
-2.02554e-05
-1.94307e-05
-1.87072e-05
-1.80466e-05
-1.74771e-05
-1.69665e-05
-1.65069e-05
-1.61149e-05
-1.57613e-05
-1.54669e-05
-1.52196e-05
-1.49954e-05
-1.47907e-05
-1.46173e-05
-1.44601e-05
-1.43312e-05
-1.42272e-05
-1.41529e-05
-1.40786e-05
-1.40369e-05
-1.39905e-05
-1.39854e-05
-1.39671e-05
-1.39739e-05
-1.3972e-05
-1.39924e-05
-1.39961e-05
-1.40099e-05
-1.40226e-05
-1.40691e-05
-1.40886e-05
-1.4129e-05
-1.41531e-05
-1.41965e-05
-1.42219e-05
-1.42721e-05
-1.42987e-05
-1.43331e-05
-1.43589e-05
-1.44048e-05
-1.44303e-05
-1.44517e-05
-1.44758e-05
-1.45254e-05
-1.45589e-05
-1.46106e-05
-1.46303e-05
-1.4625e-05
-1.46438e-05
-1.46872e-05
-1.46951e-05
-1.46827e-05
-1.46792e-05
-1.46736e-05
-1.46653e-05
-1.4649e-05
-1.4633e-05
-1.46143e-05
-1.45924e-05
-1.45683e-05
-1.45375e-05
-1.44977e-05
-1.44586e-05
-1.44294e-05
-1.43817e-05
-1.43649e-05
-1.43122e-05
-1.43274e-05
-1.42188e-05
-1.43618e-05
-1.41637e-05
-1.46571e-05
-1.40093e-05
-1.67291e-05
-1.2796e-05
1.48506e-05
-1.55103e-05
-1.73734e-05
-4.00807e-05
-5.4e-05
-4.27956e-05
-5.49163e-05
-4.99488e-05
-5.26683e-05
-5.01156e-05
-4.93365e-05
-4.71523e-05
-4.52115e-05
-4.30322e-05
-4.08822e-05
-3.86718e-05
-3.65922e-05
-3.45029e-05
-3.26062e-05
-3.07387e-05
-2.90147e-05
-2.74396e-05
-2.59477e-05
-2.45853e-05
-2.33337e-05
-2.21917e-05
-2.11862e-05
-2.0266e-05
-1.94407e-05
-1.87165e-05
-1.80551e-05
-1.74848e-05
-1.69736e-05
-1.65144e-05
-1.61214e-05
-1.57678e-05
-1.54731e-05
-1.52247e-05
-1.50002e-05
-1.47958e-05
-1.46224e-05
-1.4465e-05
-1.43365e-05
-1.42326e-05
-1.41576e-05
-1.4084e-05
-1.40411e-05
-1.39957e-05
-1.39894e-05
-1.39711e-05
-1.39771e-05
-1.39766e-05
-1.39962e-05
-1.40004e-05
-1.40135e-05
-1.40268e-05
-1.40719e-05
-1.40923e-05
-1.41319e-05
-1.41565e-05
-1.4199e-05
-1.4225e-05
-1.42741e-05
-1.43013e-05
-1.43352e-05
-1.43615e-05
-1.44065e-05
-1.44323e-05
-1.44538e-05
-1.44782e-05
-1.45269e-05
-1.45607e-05
-1.46117e-05
-1.46312e-05
-1.46268e-05
-1.46457e-05
-1.4688e-05
-1.46956e-05
-1.46838e-05
-1.46802e-05
-1.46748e-05
-1.46664e-05
-1.46503e-05
-1.46342e-05
-1.46156e-05
-1.45934e-05
-1.45695e-05
-1.45385e-05
-1.44994e-05
-1.44601e-05
-1.44312e-05
-1.43833e-05
-1.43668e-05
-1.43136e-05
-1.43294e-05
-1.42211e-05
-1.43643e-05
-1.41652e-05
-1.46617e-05
-1.40133e-05
-1.67004e-05
-1.23202e-05
1.4731e-05
-1.55289e-05
-1.74271e-05
-3.9764e-05
-5.3639e-05
-4.27004e-05
-5.47398e-05
-4.98758e-05
-5.25806e-05
-5.00752e-05
-4.93024e-05
-4.71402e-05
-4.52071e-05
-4.30359e-05
-4.08911e-05
-3.86836e-05
-3.66064e-05
-3.45186e-05
-3.26224e-05
-3.07554e-05
-2.9031e-05
-2.74546e-05
-2.59625e-05
-2.46001e-05
-2.33479e-05
-2.2205e-05
-2.11984e-05
-2.02771e-05
-1.94512e-05
-1.87262e-05
-1.80641e-05
-1.74929e-05
-1.69812e-05
-1.65224e-05
-1.61284e-05
-1.57748e-05
-1.54797e-05
-1.52301e-05
-1.50054e-05
-1.48013e-05
-1.46278e-05
-1.44705e-05
-1.43424e-05
-1.42385e-05
-1.41627e-05
-1.40898e-05
-1.40457e-05
-1.40013e-05
-1.39937e-05
-1.39755e-05
-1.39805e-05
-1.39814e-05
-1.40001e-05
-1.40048e-05
-1.40173e-05
-1.40312e-05
-1.40748e-05
-1.40962e-05
-1.4135e-05
-1.41601e-05
-1.42016e-05
-1.42282e-05
-1.42762e-05
-1.43039e-05
-1.43373e-05
-1.43641e-05
-1.44082e-05
-1.44344e-05
-1.44559e-05
-1.44806e-05
-1.45284e-05
-1.45624e-05
-1.46126e-05
-1.4632e-05
-1.46286e-05
-1.46475e-05
-1.46887e-05
-1.46961e-05
-1.46848e-05
-1.46812e-05
-1.4676e-05
-1.46674e-05
-1.46517e-05
-1.46353e-05
-1.46169e-05
-1.45944e-05
-1.45707e-05
-1.45396e-05
-1.45011e-05
-1.44616e-05
-1.4433e-05
-1.43849e-05
-1.43688e-05
-1.4315e-05
-1.43315e-05
-1.42235e-05
-1.43669e-05
-1.41668e-05
-1.46664e-05
-1.40176e-05
-1.66702e-05
-1.17744e-05
1.45944e-05
-1.55181e-05
-1.74634e-05
-3.94031e-05
-5.32341e-05
-4.25934e-05
-5.45417e-05
-4.97946e-05
-5.24827e-05
-5.003e-05
-4.92638e-05
-4.71257e-05
-4.52009e-05
-4.30389e-05
-4.08997e-05
-3.86955e-05
-3.6621e-05
-3.45347e-05
-3.26392e-05
-3.07727e-05
-2.90478e-05
-2.74703e-05
-2.59779e-05
-2.46154e-05
-2.33626e-05
-2.22188e-05
-2.12109e-05
-2.02886e-05
-1.9462e-05
-1.87362e-05
-1.80733e-05
-1.75012e-05
-1.69889e-05
-1.65304e-05
-1.61354e-05
-1.57818e-05
-1.54862e-05
-1.52356e-05
-1.50106e-05
-1.48067e-05
-1.46332e-05
-1.44758e-05
-1.43481e-05
-1.42443e-05
-1.41677e-05
-1.40954e-05
-1.40502e-05
-1.40067e-05
-1.39978e-05
-1.39797e-05
-1.39839e-05
-1.3986e-05
-1.40038e-05
-1.40091e-05
-1.40211e-05
-1.40355e-05
-1.40777e-05
-1.40999e-05
-1.41381e-05
-1.41635e-05
-1.42041e-05
-1.42314e-05
-1.42783e-05
-1.43064e-05
-1.43395e-05
-1.43666e-05
-1.44099e-05
-1.44364e-05
-1.4458e-05
-1.4483e-05
-1.45298e-05
-1.45642e-05
-1.46135e-05
-1.4633e-05
-1.46304e-05
-1.46494e-05
-1.46894e-05
-1.46966e-05
-1.46859e-05
-1.46822e-05
-1.46771e-05
-1.46684e-05
-1.46531e-05
-1.46365e-05
-1.46182e-05
-1.45955e-05
-1.4572e-05
-1.45408e-05
-1.45029e-05
-1.44632e-05
-1.44349e-05
-1.43867e-05
-1.43709e-05
-1.43165e-05
-1.43337e-05
-1.42259e-05
-1.43697e-05
-1.41685e-05
-1.46713e-05
-1.40223e-05
-1.66381e-05
-1.11514e-05
1.44396e-05
-1.54713e-05
-1.74781e-05
-3.8991e-05
-5.27784e-05
-4.24722e-05
-5.43187e-05
-4.97041e-05
-5.23732e-05
-4.99794e-05
-4.92202e-05
-4.71089e-05
-4.5193e-05
-4.30412e-05
-4.09081e-05
-3.87076e-05
-3.66361e-05
-3.45515e-05
-3.26567e-05
-3.07909e-05
-2.90656e-05
-2.74868e-05
-2.59941e-05
-2.46314e-05
-2.3378e-05
-2.22334e-05
-2.12241e-05
-2.03007e-05
-1.94733e-05
-1.87467e-05
-1.8083e-05
-1.751e-05
-1.69971e-05
-1.65388e-05
-1.61431e-05
-1.57893e-05
-1.54932e-05
-1.52413e-05
-1.50161e-05
-1.48124e-05
-1.46389e-05
-1.44816e-05
-1.43542e-05
-1.42504e-05
-1.41731e-05
-1.41015e-05
-1.4055e-05
-1.40123e-05
-1.40022e-05
-1.39841e-05
-1.39875e-05
-1.39907e-05
-1.40077e-05
-1.40135e-05
-1.4025e-05
-1.40399e-05
-1.40808e-05
-1.41037e-05
-1.41412e-05
-1.4167e-05
-1.42068e-05
-1.42346e-05
-1.42805e-05
-1.4309e-05
-1.43417e-05
-1.43692e-05
-1.44116e-05
-1.44384e-05
-1.44602e-05
-1.44854e-05
-1.45313e-05
-1.45658e-05
-1.46143e-05
-1.46338e-05
-1.46322e-05
-1.46511e-05
-1.46899e-05
-1.4697e-05
-1.46869e-05
-1.46832e-05
-1.46783e-05
-1.46694e-05
-1.46544e-05
-1.46378e-05
-1.46196e-05
-1.45966e-05
-1.45732e-05
-1.45419e-05
-1.45047e-05
-1.44649e-05
-1.44368e-05
-1.43884e-05
-1.4373e-05
-1.43181e-05
-1.4336e-05
-1.42284e-05
-1.43725e-05
-1.41702e-05
-1.46762e-05
-1.40274e-05
-1.66043e-05
-1.04397e-05
1.42669e-05
-1.53802e-05
-1.74656e-05
-3.85192e-05
-5.22632e-05
-4.23334e-05
-5.40659e-05
-4.9602e-05
-5.22496e-05
-4.9922e-05
-4.91704e-05
-4.70887e-05
-4.51828e-05
-4.30424e-05
-4.0916e-05
-3.87196e-05
-3.66515e-05
-3.45688e-05
-3.26748e-05
-3.08097e-05
-2.90839e-05
-2.7504e-05
-2.60109e-05
-2.4648e-05
-2.3394e-05
-2.22484e-05
-2.12377e-05
-2.03132e-05
-1.9485e-05
-1.87574e-05
-1.8093e-05
-1.75189e-05
-1.70055e-05
-1.65473e-05
-1.61508e-05
-1.57968e-05
-1.55002e-05
-1.52471e-05
-1.50216e-05
-1.48181e-05
-1.46446e-05
-1.44874e-05
-1.43602e-05
-1.42564e-05
-1.41783e-05
-1.41072e-05
-1.40598e-05
-1.40177e-05
-1.40065e-05
-1.39884e-05
-1.3991e-05
-1.39951e-05
-1.40114e-05
-1.40178e-05
-1.40288e-05
-1.40442e-05
-1.40838e-05
-1.41074e-05
-1.41442e-05
-1.41704e-05
-1.42094e-05
-1.42377e-05
-1.42826e-05
-1.43114e-05
-1.43439e-05
-1.43717e-05
-1.44133e-05
-1.44404e-05
-1.44623e-05
-1.44878e-05
-1.45328e-05
-1.45675e-05
-1.46151e-05
-1.46346e-05
-1.4634e-05
-1.46529e-05
-1.46904e-05
-1.46976e-05
-1.46879e-05
-1.46842e-05
-1.46795e-05
-1.46705e-05
-1.46558e-05
-1.4639e-05
-1.46209e-05
-1.45978e-05
-1.45745e-05
-1.45431e-05
-1.45065e-05
-1.44665e-05
-1.44387e-05
-1.43903e-05
-1.43751e-05
-1.43197e-05
-1.43383e-05
-1.42308e-05
-1.43755e-05
-1.4172e-05
-1.46814e-05
-1.40328e-05
-1.65685e-05
-9.63126e-06
1.40766e-05
-1.52363e-05
-1.74202e-05
-3.79792e-05
-5.16799e-05
-4.2173e-05
-5.37785e-05
-4.9486e-05
-5.211e-05
-4.98567e-05
-4.91137e-05
-4.70649e-05
-4.51699e-05
-4.30424e-05
-4.09233e-05
-3.87317e-05
-3.66672e-05
-3.45866e-05
-3.26936e-05
-3.08293e-05
-2.91032e-05
-2.7522e-05
-2.60285e-05
-2.46654e-05
-2.34107e-05
-2.22643e-05
-2.1252e-05
-2.03263e-05
-1.94973e-05
-1.87687e-05
-1.81034e-05
-1.75284e-05
-1.70143e-05
-1.65562e-05
-1.6159e-05
-1.58048e-05
-1.55076e-05
-1.52532e-05
-1.50274e-05
-1.48241e-05
-1.46506e-05
-1.44935e-05
-1.43666e-05
-1.42629e-05
-1.4184e-05
-1.41134e-05
-1.4065e-05
-1.40234e-05
-1.40109e-05
-1.39929e-05
-1.39947e-05
-1.39997e-05
-1.40152e-05
-1.40221e-05
-1.40328e-05
-1.40487e-05
-1.4087e-05
-1.41112e-05
-1.41473e-05
-1.41739e-05
-1.42121e-05
-1.42408e-05
-1.42847e-05
-1.43139e-05
-1.43461e-05
-1.43742e-05
-1.4415e-05
-1.44423e-05
-1.44645e-05
-1.44901e-05
-1.45342e-05
-1.4569e-05
-1.46157e-05
-1.46354e-05
-1.46358e-05
-1.46545e-05
-1.46908e-05
-1.46979e-05
-1.46889e-05
-1.46852e-05
-1.46806e-05
-1.46716e-05
-1.46572e-05
-1.46403e-05
-1.46222e-05
-1.4599e-05
-1.45758e-05
-1.45443e-05
-1.45083e-05
-1.44683e-05
-1.44407e-05
-1.43921e-05
-1.43773e-05
-1.43214e-05
-1.43408e-05
-1.42334e-05
-1.43786e-05
-1.41738e-05
-1.46865e-05
-1.40386e-05
-1.6531e-05
-8.7147e-06
1.38707e-05
-1.50293e-05
-1.73349e-05
-3.73611e-05
-5.10175e-05
-4.19856e-05
-5.34495e-05
-4.93528e-05
-5.19508e-05
-4.97816e-05
-4.90483e-05
-4.70363e-05
-4.51536e-05
-4.30406e-05
-4.09296e-05
-3.87434e-05
-3.66831e-05