/*--------------------------------*- C++ -*----------------------------------*\
| =========                 |                                                 |
| \\      /  F ield         | OpenFOAM: The Open Source CFD Toolbox           |
|  \\    /   O peration     | Version:  5.x                                   |
|   \\  /    A nd           | Web:      www.OpenFOAM.org                      |
|    \\/     M anipulation  |                                                 |
\*---------------------------------------------------------------------------*/
FoamFile
{
    version     2.0;
    format      ascii;
    class       volScalarField;
    location    "1500";
    object      p;
}
// * * * * * * * * * * * * * * * * * * * * * * * * * * * * * * * * * * * * * //

dimensions      [0 2 -2 0 0 0 0];

internalField   nonuniform List<scalar> 
107912
(
2.43081e-05
5.26519e-05
2.43935e-05
1.41653e-05
-1.91802e-05
-4.63156e-05
-3.64349e-05
-5.98285e-05
-6.06802e-05
-7.06514e-05
-7.37596e-05
-7.81571e-05
-8.06347e-05
-8.25217e-05
-8.37335e-05
-8.44958e-05
-8.45815e-05
-8.46159e-05
-8.40365e-05
-8.33726e-05
-8.24756e-05
-8.12807e-05
-8.00413e-05
-7.86207e-05
-7.70445e-05
-7.54439e-05
-7.37178e-05
-7.19295e-05
-7.01265e-05
-6.82441e-05
-6.63901e-05
-6.45168e-05
-6.26326e-05
-6.08029e-05
-5.89888e-05
-5.72212e-05
-5.5525e-05
-5.38796e-05
-5.23205e-05
-5.0835e-05
-4.94363e-05
-4.8136e-05
-4.69165e-05
-4.57983e-05
-4.47701e-05
-4.38262e-05
-4.29828e-05
-4.22042e-05
-4.15213e-05
-4.08981e-05
-4.03473e-05
-3.98558e-05
-3.94724e-05
-3.91491e-05
-3.88777e-05
-3.86232e-05
-3.84053e-05
-3.82064e-05
-3.80345e-05
-3.78713e-05
-3.77308e-05
-3.75996e-05
-3.74862e-05
-3.7373e-05
-3.72757e-05
-3.71799e-05
-3.70956e-05
-3.70109e-05
-3.69364e-05
-3.68647e-05
-3.68016e-05
-3.67382e-05
-3.66847e-05
-3.66318e-05
-3.65865e-05
-3.65451e-05
-3.65051e-05
-3.64672e-05
-3.64299e-05
-3.63956e-05
-3.63584e-05
-3.63211e-05
-3.62812e-05
-3.62399e-05
-3.61946e-05
-3.6147e-05
-3.60956e-05
-3.60414e-05
-3.59812e-05
-3.59216e-05
-3.58511e-05
-3.57852e-05
-3.57007e-05
-3.56383e-05
-3.5535e-05
-3.55031e-05
-3.53739e-05
-3.54393e-05
-3.5244e-05
-3.56025e-05
-3.51667e-05
-3.79636e-05
3.42603e-05
5.2607e-05
2.42763e-05
1.40606e-05
-1.91066e-05
-4.61937e-05
-3.63961e-05
-5.97519e-05
-6.06266e-05
-7.05942e-05
-7.3717e-05
-7.81189e-05
-8.06051e-05
-8.24978e-05
-8.37146e-05
-8.44814e-05
-8.45707e-05
-8.46078e-05
-8.40313e-05
-8.3369e-05
-8.24738e-05
-8.12804e-05
-8.00419e-05
-7.86223e-05
-7.70467e-05
-7.54467e-05
-7.3721e-05
-7.1933e-05
-7.01302e-05
-6.82481e-05
-6.63941e-05
-6.45209e-05
-6.26367e-05
-6.08068e-05
-5.89927e-05
-5.7225e-05
-5.55286e-05
-5.3883e-05
-5.23237e-05
-5.0838e-05
-4.94391e-05
-4.81386e-05
-4.69189e-05
-4.58005e-05
-4.47721e-05
-4.38281e-05
-4.29844e-05
-4.22057e-05
-4.15226e-05
-4.08993e-05
-4.03484e-05
-3.98568e-05
-3.94733e-05
-3.915e-05
-3.88783e-05
-3.86239e-05
-3.84059e-05
-3.8207e-05
-3.8035e-05
-3.78718e-05
-3.77311e-05
-3.76e-05
-3.74865e-05
-3.73733e-05
-3.7276e-05
-3.71802e-05
-3.70958e-05
-3.70111e-05
-3.69366e-05
-3.6865e-05
-3.68018e-05
-3.67384e-05
-3.66849e-05
-3.6632e-05
-3.65867e-05
-3.65453e-05
-3.65053e-05
-3.64674e-05
-3.64301e-05
-3.63958e-05
-3.63585e-05
-3.63211e-05
-3.62812e-05
-3.62399e-05
-3.61947e-05
-3.6147e-05
-3.60956e-05
-3.60414e-05
-3.59811e-05
-3.59215e-05
-3.5851e-05
-3.57852e-05
-3.57006e-05
-3.56383e-05
-3.5535e-05
-3.55033e-05
-3.53741e-05
-3.544e-05
-3.52447e-05
-3.56047e-05
-3.51681e-05
-3.7881e-05
3.56045e-05
5.25527e-05
2.41416e-05
1.39404e-05
-1.90274e-05
-4.60538e-05
-3.63519e-05
-5.9669e-05
-6.05657e-05
-7.05308e-05
-7.36686e-05
-7.80756e-05
-8.0571e-05
-8.24702e-05
-8.36924e-05
-8.44643e-05
-8.45574e-05
-8.45977e-05
-8.40244e-05
-8.33638e-05
-8.24706e-05
-8.12789e-05
-8.00414e-05
-7.8623e-05
-7.70482e-05
-7.54487e-05
-7.37237e-05
-7.19361e-05
-7.01335e-05
-6.82517e-05
-6.63978e-05
-6.45246e-05
-6.26405e-05
-6.08106e-05
-5.89964e-05
-5.72286e-05
-5.5532e-05
-5.38863e-05
-5.23268e-05
-5.0841e-05
-4.94419e-05
-4.81412e-05
-4.69214e-05
-4.58027e-05
-4.47741e-05
-4.383e-05
-4.29861e-05
-4.22073e-05
-4.15239e-05
-4.09006e-05
-4.03495e-05
-3.98578e-05
-3.94741e-05
-3.91509e-05
-3.8879e-05
-3.86247e-05
-3.84065e-05
-3.82077e-05
-3.80354e-05
-3.78724e-05
-3.77316e-05
-3.76005e-05
-3.74868e-05
-3.73737e-05
-3.72762e-05
-3.71805e-05
-3.7096e-05
-3.70114e-05
-3.69368e-05
-3.68653e-05
-3.68021e-05
-3.67387e-05
-3.66851e-05
-3.66323e-05
-3.6587e-05
-3.65456e-05
-3.65055e-05
-3.64676e-05
-3.64303e-05
-3.63959e-05
-3.63587e-05
-3.63213e-05
-3.62813e-05
-3.624e-05
-3.61947e-05
-3.6147e-05
-3.60955e-05
-3.60413e-05
-3.5981e-05
-3.59214e-05
-3.58509e-05
-3.5785e-05
-3.57005e-05
-3.56383e-05
-3.5535e-05
-3.55035e-05
-3.53743e-05
-3.54408e-05
-3.52454e-05
-3.56072e-05
-3.51704e-05
-3.78661e-05
3.50583e-05
5.24957e-05
2.40058e-05
1.38173e-05
-1.89479e-05
-4.59097e-05
-3.63065e-05
-5.95836e-05
-6.05034e-05
-7.04655e-05
-7.36187e-05
-7.80309e-05
-8.05359e-05
-8.24416e-05
-8.36694e-05
-8.44464e-05
-8.45435e-05
-8.4587e-05
-8.4017e-05
-8.33583e-05
-8.24672e-05
-8.12772e-05
-8.00407e-05
-7.86235e-05
-7.70496e-05
-7.54507e-05
-7.37263e-05
-7.19391e-05
-7.01368e-05
-6.82553e-05
-6.64014e-05
-6.45284e-05
-6.26443e-05
-6.08143e-05
-5.90001e-05
-5.72322e-05
-5.55355e-05
-5.38896e-05
-5.233e-05
-5.08439e-05
-4.94447e-05
-4.81438e-05
-4.69238e-05
-4.58049e-05
-4.47761e-05
-4.3832e-05
-4.29877e-05
-4.2209e-05
-4.15253e-05
-4.09018e-05
-4.03507e-05
-3.98589e-05
-3.9475e-05
-3.91518e-05
-3.88797e-05
-3.86255e-05
-3.84071e-05
-3.82084e-05
-3.80359e-05
-3.78729e-05
-3.7732e-05
-3.76009e-05
-3.74871e-05
-3.73741e-05
-3.72765e-05
-3.71809e-05
-3.70962e-05
-3.70117e-05
-3.6937e-05
-3.68655e-05
-3.68023e-05
-3.6739e-05
-3.66853e-05
-3.66326e-05
-3.65873e-05
-3.65458e-05
-3.65057e-05
-3.64678e-05
-3.64305e-05
-3.63961e-05
-3.63588e-05
-3.63214e-05
-3.62814e-05
-3.624e-05
-3.61947e-05
-3.6147e-05
-3.60955e-05
-3.60413e-05
-3.5981e-05
-3.59214e-05
-3.58508e-05
-3.57849e-05
-3.57004e-05
-3.56383e-05
-3.5535e-05
-3.55037e-05
-3.53745e-05
-3.54416e-05
-3.52463e-05
-3.56099e-05
-3.51728e-05
-3.7861e-05
3.48947e-05
5.24343e-05
2.38657e-05
1.36883e-05
-1.88649e-05
-4.57575e-05
-3.62582e-05
-5.94923e-05
-6.04376e-05
-7.03959e-05
-7.35659e-05
-7.79833e-05
-8.04986e-05
-8.24111e-05
-8.3645e-05
-8.44274e-05
-8.45288e-05
-8.45757e-05
-8.40092e-05
-8.33525e-05
-8.24635e-05
-8.12754e-05
-8.00401e-05
-7.86242e-05
-7.7051e-05
-7.54529e-05
-7.37291e-05
-7.19423e-05
-7.01402e-05
-6.82591e-05
-6.64053e-05
-6.45323e-05
-6.26484e-05
-6.08184e-05
-5.90041e-05
-5.72361e-05
-5.55392e-05
-5.38931e-05
-5.23333e-05
-5.08471e-05
-4.94477e-05
-4.81465e-05
-4.69264e-05
-4.58073e-05
-4.47783e-05
-4.38341e-05
-4.29893e-05
-4.22107e-05
-4.15266e-05
-4.09032e-05
-4.03519e-05
-3.986e-05
-3.94759e-05
-3.91528e-05
-3.88805e-05
-3.86264e-05
-3.84078e-05
-3.82092e-05
-3.80363e-05
-3.78736e-05
-3.77324e-05
-3.76015e-05
-3.74874e-05
-3.73746e-05
-3.72768e-05
-3.71813e-05
-3.70964e-05
-3.70121e-05
-3.69372e-05
-3.68659e-05
-3.68025e-05
-3.67393e-05
-3.66856e-05
-3.66329e-05
-3.65875e-05
-3.65461e-05
-3.6506e-05
-3.64681e-05
-3.64307e-05
-3.63963e-05
-3.6359e-05
-3.63215e-05
-3.62815e-05
-3.624e-05
-3.61947e-05
-3.6147e-05
-3.60955e-05
-3.60412e-05
-3.59809e-05
-3.59213e-05
-3.58507e-05
-3.57848e-05
-3.57003e-05
-3.56383e-05
-3.55351e-05
-3.55039e-05
-3.53747e-05
-3.54425e-05
-3.52472e-05
-3.56127e-05
-3.51753e-05
-3.78516e-05
3.49615e-05
5.23668e-05
2.37198e-05
1.35522e-05
-1.87766e-05
-4.55944e-05
-3.62063e-05
-5.93936e-05
-6.03674e-05
-7.0321e-05
-7.35092e-05
-7.79321e-05
-8.04584e-05
-8.23782e-05
-8.36187e-05
-8.44069e-05
-8.4513e-05
-8.45635e-05
-8.40008e-05
-8.33462e-05
-8.24596e-05
-8.12735e-05
-8.00394e-05
-7.86248e-05
-7.70526e-05
-7.54552e-05
-7.3732e-05
-7.19458e-05
-7.0144e-05
-6.82632e-05
-6.64095e-05
-6.45367e-05
-6.26528e-05
-6.08227e-05
-5.90083e-05
-5.72403e-05
-5.55431e-05
-5.38969e-05
-5.23369e-05
-5.08505e-05
-4.94509e-05
-4.81495e-05
-4.69292e-05
-4.58099e-05
-4.47807e-05
-4.38363e-05
-4.29912e-05
-4.22127e-05
-4.15281e-05
-4.09046e-05
-4.03533e-05
-3.98612e-05
-3.94768e-05
-3.91539e-05
-3.88812e-05
-3.86273e-05
-3.84085e-05
-3.821e-05
-3.80368e-05
-3.78743e-05
-3.77329e-05
-3.76021e-05
-3.74877e-05
-3.7375e-05
-3.72771e-05
-3.71817e-05
-3.70966e-05
-3.70124e-05
-3.69375e-05
-3.68662e-05
-3.68027e-05
-3.67396e-05
-3.66858e-05
-3.66332e-05
-3.65878e-05
-3.65464e-05
-3.65062e-05
-3.64683e-05
-3.64309e-05
-3.63965e-05
-3.63592e-05
-3.63216e-05
-3.62815e-05
-3.62401e-05
-3.61948e-05
-3.6147e-05
-3.60954e-05
-3.60411e-05
-3.59808e-05
-3.59211e-05
-3.58505e-05
-3.57846e-05
-3.57002e-05
-3.56383e-05
-3.55351e-05
-3.55042e-05
-3.5375e-05
-3.54434e-05
-3.52481e-05
-3.56156e-05
-3.5178e-05
-3.78399e-05
3.50403e-05
5.22927e-05
2.35683e-05
1.34092e-05
-1.86821e-05
-4.54192e-05
-3.61505e-05
-5.92868e-05
-6.02922e-05
-7.02403e-05
-7.34483e-05
-7.7877e-05
-8.04153e-05
-8.23429e-05
-8.35904e-05
-8.43848e-05
-8.44959e-05
-8.45504e-05
-8.39917e-05
-8.33394e-05
-8.24554e-05
-8.12714e-05
-8.00386e-05
-7.86255e-05
-7.70543e-05
-7.54577e-05
-7.37353e-05
-7.19495e-05
-7.0148e-05
-6.82676e-05
-6.6414e-05
-6.45413e-05
-6.26575e-05
-6.08274e-05
-5.90129e-05
-5.72448e-05
-5.55474e-05
-5.3901e-05
-5.23408e-05
-5.08542e-05
-4.94543e-05
-4.81527e-05
-4.69323e-05
-4.58127e-05
-4.47832e-05
-4.38388e-05
-4.29931e-05
-4.22147e-05
-4.15297e-05
-4.09062e-05
-4.03547e-05
-3.98625e-05
-3.94779e-05
-3.91551e-05
-3.88821e-05
-3.86283e-05
-3.84093e-05
-3.82109e-05
-3.80374e-05
-3.7875e-05
-3.77335e-05
-3.76027e-05
-3.74881e-05
-3.73756e-05
-3.72774e-05
-3.71821e-05
-3.70969e-05
-3.70128e-05
-3.69377e-05
-3.68666e-05
-3.6803e-05
-3.674e-05
-3.66861e-05
-3.66335e-05
-3.65881e-05
-3.65467e-05
-3.65065e-05
-3.64686e-05
-3.64312e-05
-3.63967e-05
-3.63593e-05
-3.63218e-05
-3.62816e-05
-3.62401e-05
-3.61948e-05
-3.6147e-05
-3.60954e-05
-3.6041e-05
-3.59807e-05
-3.5921e-05
-3.58504e-05
-3.57845e-05
-3.57001e-05
-3.56383e-05
-3.55352e-05
-3.55045e-05
-3.53752e-05
-3.54444e-05
-3.52492e-05
-3.56188e-05
-3.5181e-05
-3.78274e-05
3.51082e-05
5.22112e-05
2.34121e-05
1.32598e-05
-1.85804e-05
-4.52303e-05
-3.60906e-05
-5.91713e-05
-6.02119e-05
-7.01534e-05
-7.3383e-05
-7.78177e-05
-8.03688e-05
-8.23048e-05
-8.35599e-05
-8.43611e-05
-8.44775e-05
-8.45362e-05
-8.39819e-05
-8.3332e-05
-8.24508e-05
-8.12691e-05
-8.00377e-05
-7.86262e-05
-7.70561e-05
-7.54604e-05
-7.37387e-05
-7.19535e-05
-7.01523e-05
-6.82724e-05
-6.64188e-05
-6.45462e-05
-6.26625e-05
-6.08324e-05
-5.90178e-05
-5.72497e-05
-5.55519e-05
-5.39054e-05
-5.2345e-05
-5.08581e-05
-4.94581e-05
-4.81561e-05
-4.69355e-05
-4.58157e-05
-4.47859e-05
-4.38414e-05
-4.29952e-05
-4.22169e-05
-4.15314e-05
-4.09079e-05
-4.03562e-05
-3.98639e-05
-3.94789e-05
-3.91563e-05
-3.8883e-05
-3.86294e-05
-3.84101e-05
-3.82119e-05
-3.8038e-05
-3.78758e-05
-3.7734e-05
-3.76033e-05
-3.74885e-05
-3.73761e-05
-3.72777e-05
-3.71826e-05
-3.70972e-05
-3.70133e-05
-3.6938e-05
-3.6867e-05
-3.68032e-05
-3.67404e-05
-3.66864e-05
-3.66339e-05
-3.65884e-05
-3.65471e-05
-3.65067e-05
-3.64689e-05
-3.64315e-05
-3.63969e-05
-3.63595e-05
-3.63219e-05
-3.62817e-05
-3.62402e-05
-3.61948e-05
-3.6147e-05
-3.60953e-05
-3.60409e-05
-3.59806e-05
-3.59209e-05
-3.58502e-05
-3.57843e-05
-3.57e-05
-3.56383e-05
-3.55352e-05
-3.55048e-05
-3.53755e-05
-3.54455e-05
-3.52503e-05
-3.56222e-05
-3.51842e-05
-3.7814e-05
3.51802e-05
5.21215e-05
2.32518e-05
1.31048e-05
-1.84697e-05
-4.50261e-05
-3.60262e-05
-5.90458e-05
-6.01258e-05
-7.00596e-05
-7.33128e-05
-7.77538e-05
-8.03189e-05
-8.22638e-05
-8.35271e-05
-8.43354e-05
-8.44577e-05
-8.45209e-05
-8.39714e-05
-8.33241e-05
-8.24459e-05
-8.12666e-05
-8.00367e-05
-7.8627e-05
-7.70581e-05
-7.54632e-05
-7.37424e-05
-7.19578e-05
-7.01569e-05
-6.82774e-05
-6.64239e-05
-6.45515e-05
-6.26679e-05
-6.08378e-05
-5.90231e-05
-5.72549e-05
-5.55568e-05
-5.39101e-05
-5.23494e-05
-5.08623e-05
-4.9462e-05
-4.81598e-05
-4.6939e-05
-4.58189e-05
-4.47888e-05
-4.38441e-05
-4.29975e-05
-4.22193e-05
-4.15333e-05
-4.09097e-05
-4.03578e-05
-3.98654e-05
-3.94801e-05
-3.91577e-05
-3.8884e-05
-3.86306e-05
-3.84111e-05
-3.82129e-05
-3.80386e-05
-3.78766e-05
-3.77347e-05
-3.76041e-05
-3.74889e-05
-3.73767e-05
-3.72781e-05
-3.71831e-05
-3.70975e-05
-3.70137e-05
-3.69383e-05
-3.68674e-05
-3.68035e-05
-3.67408e-05
-3.66867e-05
-3.66343e-05
-3.65888e-05
-3.65475e-05
-3.65071e-05
-3.64692e-05
-3.64318e-05
-3.63972e-05
-3.63597e-05
-3.63221e-05
-3.62818e-05
-3.62402e-05
-3.61949e-05
-3.6147e-05
-3.60953e-05
-3.60408e-05
-3.59805e-05
-3.59208e-05
-3.585e-05
-3.57842e-05
-3.56999e-05
-3.56383e-05
-3.55353e-05
-3.55051e-05
-3.53758e-05
-3.54467e-05
-3.52514e-05
-3.56258e-05
-3.51876e-05
-3.77997e-05
3.52631e-05
5.20228e-05
2.30883e-05
1.29451e-05
-1.83482e-05
-4.48042e-05
-3.59569e-05
-5.89093e-05
-6.00335e-05
-6.99583e-05
-7.32372e-05
-7.76849e-05
-8.02651e-05
-8.22195e-05
-8.34917e-05
-8.43078e-05
-8.44363e-05
-8.45045e-05
-8.39599e-05
-8.33155e-05
-8.24406e-05
-8.12639e-05
-8.00357e-05
-7.86278e-05
-7.70601e-05
-7.54662e-05
-7.37463e-05
-7.19623e-05
-7.01619e-05
-6.82828e-05
-6.64295e-05
-6.45572e-05
-6.26737e-05
-6.08435e-05
-5.90288e-05
-5.72604e-05
-5.55621e-05
-5.39151e-05
-5.23542e-05
-5.08669e-05
-4.94663e-05
-4.81638e-05
-4.69427e-05
-4.58223e-05
-4.47919e-05
-4.38471e-05
-4.29999e-05
-4.22218e-05
-4.15353e-05
-4.09116e-05
-4.03596e-05
-3.9867e-05
-3.94814e-05
-3.91591e-05
-3.88851e-05
-3.86318e-05
-3.8412e-05
-3.8214e-05
-3.80394e-05
-3.78775e-05
-3.77353e-05
-3.76048e-05
-3.74894e-05
-3.73773e-05
-3.72785e-05
-3.71837e-05
-3.70978e-05
-3.70142e-05
-3.69386e-05
-3.68678e-05
-3.68038e-05
-3.67412e-05
-3.6687e-05
-3.66347e-05
-3.65892e-05
-3.65478e-05
-3.65074e-05
-3.64695e-05
-3.64321e-05
-3.63974e-05
-3.63599e-05
-3.63222e-05
-3.62819e-05
-3.62403e-05
-3.61949e-05
-3.6147e-05
-3.60952e-05
-3.60407e-05
-3.59804e-05
-3.59206e-05
-3.58499e-05
-3.5784e-05
-3.56997e-05
-3.56383e-05
-3.55353e-05
-3.55054e-05
-3.53762e-05
-3.54479e-05
-3.52527e-05
-3.56295e-05
-3.51912e-05
-3.77843e-05
3.5358e-05
5.1914e-05
2.2923e-05
1.27821e-05
-1.82134e-05
-4.45619e-05
-3.58824e-05
-5.87603e-05
-5.99342e-05
-6.98485e-05
-7.31558e-05
-7.76106e-05
-8.0207e-05
-8.21718e-05
-8.34535e-05
-8.4278e-05
-8.44131e-05
-8.44867e-05
-8.39475e-05
-8.33063e-05
-8.24347e-05
-8.12609e-05
-8.00345e-05
-7.86286e-05
-7.70623e-05
-7.54694e-05
-7.37506e-05
-7.19672e-05
-7.01672e-05
-6.82887e-05
-6.64354e-05
-6.45633e-05
-6.26799e-05
-6.08497e-05
-5.90349e-05
-5.72664e-05
-5.55677e-05
-5.39205e-05
-5.23593e-05
-5.08717e-05
-4.94708e-05
-4.8168e-05
-4.69467e-05
-4.5826e-05
-4.47952e-05
-4.38503e-05
-4.30025e-05
-4.22245e-05
-4.15375e-05
-4.09136e-05
-4.03615e-05
-3.98687e-05
-3.94828e-05
-3.91606e-05
-3.88863e-05
-3.86331e-05
-3.84131e-05
-3.82151e-05
-3.80401e-05
-3.78785e-05
-3.77361e-05
-3.76056e-05
-3.74899e-05
-3.7378e-05
-3.7279e-05
-3.71843e-05
-3.70982e-05
-3.70147e-05
-3.6939e-05
-3.68683e-05
-3.68042e-05
-3.67417e-05
-3.66874e-05
-3.66352e-05
-3.65896e-05
-3.65483e-05
-3.65078e-05
-3.64698e-05
-3.64324e-05
-3.63977e-05
-3.63602e-05
-3.63224e-05
-3.6282e-05
-3.62403e-05
-3.61949e-05
-3.6147e-05
-3.60952e-05
-3.60406e-05
-3.59803e-05
-3.59205e-05
-3.58497e-05
-3.57838e-05
-3.56996e-05
-3.56383e-05
-3.55354e-05
-3.55058e-05
-3.53766e-05
-3.54493e-05
-3.5254e-05
-3.56335e-05
-3.51951e-05
-3.77676e-05
3.54673e-05
5.17942e-05
2.27573e-05
1.26172e-05
-1.80623e-05
-4.42961e-05
-3.58019e-05
-5.85971e-05
-5.9827e-05
-6.97294e-05
-7.30678e-05
-7.75301e-05
-8.01444e-05
-8.21201e-05
-8.34123e-05
-8.42458e-05
-8.43882e-05
-8.44675e-05
-8.39341e-05
-8.32963e-05
-8.24285e-05
-8.12577e-05
-8.00332e-05
-7.86295e-05
-7.70646e-05
-7.54729e-05
-7.37551e-05
-7.19724e-05
-7.01729e-05
-6.82949e-05
-6.64417e-05
-6.45699e-05
-6.26866e-05
-6.08563e-05
-5.90414e-05
-5.72728e-05
-5.55737e-05
-5.39263e-05
-5.23649e-05
-5.08769e-05
-4.94757e-05
-4.81725e-05
-4.6951e-05
-4.58299e-05
-4.47988e-05
-4.38537e-05
-4.30054e-05
-4.22273e-05
-4.15398e-05
-4.09158e-05
-4.03635e-05
-3.98706e-05
-3.94842e-05
-3.91622e-05
-3.88876e-05
-3.86345e-05
-3.84142e-05
-3.82163e-05
-3.8041e-05
-3.78795e-05
-3.77368e-05
-3.76064e-05
-3.74905e-05
-3.73787e-05
-3.72795e-05
-3.71849e-05
-3.70986e-05
-3.70152e-05
-3.69394e-05
-3.68688e-05
-3.68046e-05
-3.67422e-05
-3.66878e-05
-3.66357e-05
-3.659e-05
-3.65487e-05
-3.65081e-05
-3.64702e-05
-3.64327e-05
-3.6398e-05
-3.63604e-05
-3.63226e-05
-3.62822e-05
-3.62404e-05
-3.61949e-05
-3.6147e-05
-3.60951e-05
-3.60405e-05
-3.59801e-05
-3.59204e-05
-3.58495e-05
-3.57836e-05
-3.56995e-05
-3.56383e-05
-3.55355e-05
-3.55063e-05
-3.5377e-05
-3.54507e-05
-3.52555e-05
-3.56377e-05
-3.51994e-05
-3.77497e-05
3.55934e-05
5.16621e-05
2.2593e-05
1.24524e-05
-1.78913e-05
-4.40027e-05
-3.57147e-05
-5.84176e-05
-5.9711e-05
-6.95998e-05
-7.29724e-05
-7.74429e-05
-8.00764e-05
-8.20642e-05
-8.33676e-05
-8.42108e-05
-8.43611e-05
-8.44466e-05
-8.39196e-05
-8.32854e-05
-8.24216e-05
-8.12541e-05
-8.00317e-05
-7.86303e-05
-7.70671e-05
-7.54765e-05
-7.37599e-05
-7.1978e-05
-7.01789e-05
-6.83016e-05
-6.64485e-05
-6.45769e-05
-6.26938e-05
-6.08634e-05
-5.90484e-05
-5.72796e-05
-5.55802e-05
-5.39325e-05
-5.23708e-05
-5.08825e-05
-4.9481e-05
-4.81774e-05
-4.69556e-05
-4.58341e-05
-4.48026e-05
-4.38573e-05
-4.30085e-05
-4.22304e-05
-4.15424e-05
-4.09182e-05
-4.03657e-05
-3.98725e-05
-3.94858e-05
-3.91639e-05
-3.8889e-05
-3.8636e-05
-3.84154e-05
-3.82176e-05
-3.80419e-05
-3.78805e-05
-3.77377e-05
-3.76073e-05
-3.74911e-05
-3.73795e-05
-3.728e-05
-3.71855e-05
-3.7099e-05
-3.70158e-05
-3.69399e-05
-3.68693e-05
-3.6805e-05
-3.67427e-05
-3.66882e-05
-3.66362e-05
-3.65905e-05
-3.65492e-05
-3.65086e-05
-3.64706e-05
-3.64331e-05
-3.63983e-05
-3.63607e-05
-3.63228e-05
-3.62823e-05
-3.62405e-05
-3.6195e-05
-3.6147e-05
-3.60951e-05
-3.60404e-05
-3.598e-05
-3.59202e-05
-3.58493e-05
-3.57835e-05
-3.56993e-05
-3.56383e-05
-3.55357e-05
-3.55067e-05
-3.53775e-05
-3.54522e-05
-3.5257e-05
-3.56422e-05
-3.52039e-05
-3.77305e-05
3.57397e-05
5.15167e-05
2.24324e-05
1.22902e-05
-1.76963e-05
-4.36773e-05
-3.56198e-05
-5.82195e-05
-5.95849e-05
-6.94583e-05
-7.28689e-05
-7.73481e-05
-8.00028e-05
-8.20034e-05
-8.33192e-05
-8.41729e-05
-8.43318e-05
-8.44241e-05
-8.39037e-05
-8.32736e-05
-8.24141e-05
-8.12501e-05
-8.003e-05
-7.86312e-05
-7.70696e-05
-7.54804e-05
-7.37651e-05
-7.19839e-05
-7.01855e-05
-6.83088e-05
-6.64559e-05
-6.45844e-05
-6.27015e-05
-6.0871e-05
-5.90559e-05
-5.7287e-05
-5.55871e-05
-5.39392e-05
-5.23771e-05
-5.08885e-05
-4.94866e-05
-4.81826e-05
-4.69605e-05
-4.58387e-05
-4.48067e-05
-4.38611e-05
-4.30118e-05
-4.22336e-05
-4.15451e-05
-4.09208e-05
-4.0368e-05
-3.98746e-05
-3.94876e-05
-3.91657e-05
-3.88905e-05
-3.86376e-05
-3.84167e-05
-3.82189e-05
-3.80429e-05
-3.78816e-05
-3.77386e-05
-3.76082e-05
-3.74917e-05
-3.73802e-05
-3.72806e-05
-3.71862e-05
-3.70995e-05
-3.70164e-05
-3.69403e-05
-3.68699e-05
-3.68054e-05
-3.67433e-05
-3.66887e-05
-3.66368e-05
-3.6591e-05
-3.65497e-05
-3.6509e-05
-3.6471e-05
-3.64335e-05
-3.63986e-05
-3.63609e-05
-3.63231e-05
-3.62824e-05
-3.62406e-05
-3.6195e-05
-3.6147e-05
-3.6095e-05
-3.60403e-05
-3.59799e-05
-3.592e-05
-3.58491e-05
-3.57833e-05
-3.56992e-05
-3.56384e-05
-3.55358e-05
-3.55072e-05
-3.5378e-05
-3.54538e-05
-3.52586e-05
-3.56468e-05
-3.52087e-05
-3.77099e-05
3.59095e-05
5.13569e-05
2.22784e-05
1.21335e-05
-1.74723e-05
-4.33143e-05
-3.55159e-05
-5.79998e-05
-5.94472e-05
-6.93031e-05
-7.2756e-05
-7.72447e-05
-7.99226e-05
-8.19373e-05
-8.32665e-05
-8.41317e-05
-8.42998e-05
-8.43995e-05
-8.38865e-05
-8.32607e-05
-8.24059e-05
-8.12458e-05
-8.00281e-05
-7.8632e-05
-7.70724e-05
-7.54845e-05
-7.37707e-05
-7.19903e-05
-7.01925e-05
-6.83164e-05
-6.64637e-05
-6.45925e-05
-6.27097e-05
-6.08791e-05
-5.90639e-05
-5.72949e-05
-5.55946e-05
-5.39463e-05
-5.23839e-05
-5.0895e-05
-4.94927e-05
-4.81882e-05
-4.69658e-05
-4.58435e-05
-4.48111e-05
-4.38653e-05
-4.30153e-05
-4.22371e-05
-4.1548e-05
-4.09235e-05
-4.03705e-05
-3.98769e-05
-3.94894e-05
-3.91677e-05
-3.88921e-05
-3.86393e-05
-3.84182e-05
-3.82204e-05
-3.8044e-05
-3.78828e-05
-3.77396e-05
-3.76092e-05
-3.74925e-05
-3.73811e-05
-3.72813e-05
-3.71869e-05
-3.71e-05
-3.70171e-05
-3.69409e-05
-3.68705e-05
-3.68059e-05
-3.67439e-05
-3.66892e-05
-3.66374e-05
-3.65916e-05
-3.65503e-05
-3.65095e-05
-3.64715e-05
-3.6434e-05
-3.6399e-05
-3.63612e-05
-3.63233e-05
-3.62826e-05
-3.62407e-05
-3.61951e-05
-3.61471e-05
-3.6095e-05
-3.60402e-05
-3.59798e-05
-3.59199e-05
-3.58489e-05
-3.57831e-05
-3.56991e-05
-3.56384e-05
-3.5536e-05
-3.55078e-05
-3.53786e-05
-3.54556e-05
-3.52603e-05
-3.56517e-05
-3.52138e-05
-3.76878e-05
3.6107e-05
5.11815e-05
2.21339e-05
1.19854e-05
-1.72137e-05
-4.29075e-05
-3.54014e-05
-5.77553e-05
-5.92962e-05
-6.91325e-05
-7.26325e-05
-7.71316e-05
-7.9835e-05
-8.18651e-05
-8.3209e-05
-8.40866e-05
-8.4265e-05
-8.43726e-05
-8.38676e-05
-8.32466e-05
-8.23969e-05
-8.12409e-05
-8.0026e-05
-7.86328e-05
-7.70752e-05
-7.54889e-05
-7.37765e-05
-7.19971e-05
-7.01999e-05
-6.83246e-05
-6.64721e-05
-6.46011e-05
-6.27185e-05
-6.08878e-05
-5.90726e-05
-5.73033e-05
-5.56025e-05
-5.3954e-05
-5.23912e-05
-5.09019e-05
-4.94991e-05
-4.81942e-05
-4.69714e-05
-4.58487e-05
-4.48158e-05
-4.38697e-05
-4.30191e-05
-4.22408e-05
-4.15512e-05
-4.09264e-05
-4.03731e-05
-3.98793e-05
-3.94914e-05
-3.91698e-05
-3.88938e-05
-3.86411e-05
-3.84197e-05
-3.82219e-05
-3.80452e-05
-3.78841e-05
-3.77406e-05
-3.76103e-05
-3.74933e-05
-3.7382e-05
-3.7282e-05
-3.71876e-05
-3.71006e-05
-3.70177e-05
-3.69414e-05
-3.68711e-05
-3.68065e-05
-3.67445e-05
-3.66898e-05
-3.6638e-05
-3.65922e-05
-3.65509e-05
-3.65101e-05
-3.6472e-05
-3.64344e-05
-3.63994e-05
-3.63615e-05
-3.63236e-05
-3.62828e-05
-3.62408e-05
-3.61951e-05
-3.61471e-05
-3.60949e-05
-3.60401e-05
-3.59796e-05
-3.59197e-05
-3.58488e-05
-3.5783e-05
-3.5699e-05
-3.56385e-05
-3.55362e-05
-3.55085e-05
-3.53793e-05
-3.54574e-05
-3.52622e-05
-3.56568e-05
-3.52193e-05
-3.76642e-05
3.63363e-05
5.09894e-05
2.20029e-05
1.185e-05
-1.69139e-05
-4.24496e-05
-3.52741e-05
-5.74816e-05
-5.91295e-05
-6.89438e-05
-7.24967e-05
-7.70073e-05
-7.9739e-05
-8.17859e-05
-8.31461e-05
-8.40373e-05
-8.42268e-05
-8.43433e-05
-8.38468e-05
-8.32311e-05
-8.2387e-05
-8.12355e-05
-8.00235e-05
-7.86336e-05
-7.70781e-05
-7.54934e-05
-7.37828e-05
-7.20043e-05
-7.02079e-05
-6.83334e-05
-6.64811e-05
-6.46104e-05
-6.27279e-05
-6.08971e-05
-5.90818e-05
-5.73123e-05
-5.56111e-05
-5.39622e-05
-5.2399e-05
-5.09093e-05
-4.95061e-05
-4.82007e-05
-4.69775e-05
-4.58543e-05
-4.48208e-05
-4.38744e-05
-4.30233e-05
-4.22448e-05
-4.15546e-05
-4.09296e-05
-4.0376e-05
-3.98818e-05
-3.94936e-05
-3.9172e-05
-3.88957e-05
-3.8643e-05
-3.84213e-05
-3.82235e-05
-3.80465e-05
-3.78855e-05
-3.77418e-05
-3.76114e-05
-3.74941e-05
-3.73829e-05
-3.72827e-05
-3.71884e-05
-3.71012e-05
-3.70185e-05
-3.69421e-05
-3.68718e-05
-3.68071e-05
-3.67452e-05
-3.66904e-05
-3.66387e-05
-3.65928e-05
-3.65515e-05
-3.65106e-05
-3.64726e-05
-3.64349e-05
-3.63998e-05
-3.63619e-05
-3.63238e-05
-3.6283e-05
-3.62409e-05
-3.61952e-05
-3.61471e-05
-3.60949e-05
-3.60401e-05
-3.59795e-05
-3.59196e-05
-3.58486e-05
-3.57828e-05
-3.56989e-05
-3.56387e-05
-3.55364e-05
-3.55092e-05
-3.538e-05
-3.54594e-05
-3.52641e-05
-3.5662e-05
-3.52252e-05
-3.76391e-05
3.6602e-05
5.07797e-05
2.18895e-05
1.17313e-05
-1.6566e-05
-4.19324e-05
-3.51313e-05
-5.71741e-05
-5.89447e-05
-6.87345e-05
-7.23468e-05
-7.68703e-05
-7.96333e-05
-8.16987e-05
-8.30771e-05
-8.39831e-05
-8.41849e-05
-8.4311e-05
-8.38239e-05
-8.3214e-05
-8.2376e-05
-8.12294e-05
-8.00206e-05
-7.86342e-05
-7.70812e-05
-7.54983e-05
-7.37894e-05
-7.20121e-05
-7.02165e-05
-6.83428e-05
-6.64907e-05
-6.46203e-05
-6.27381e-05
-6.09071e-05
-5.90917e-05
-5.73219e-05
-5.56203e-05
-5.3971e-05
-5.24074e-05
-5.09172e-05
-4.95135e-05
-4.82075e-05
-4.69839e-05
-4.58603e-05
-4.48262e-05
-4.38795e-05
-4.30277e-05
-4.2249e-05
-4.15583e-05
-4.0933e-05
-4.03791e-05
-3.98846e-05
-3.9496e-05
-3.91744e-05
-3.88977e-05
-3.8645e-05
-3.8423e-05
-3.82252e-05
-3.80479e-05
-3.78869e-05
-3.7743e-05
-3.76126e-05
-3.7495e-05
-3.73839e-05
-3.72835e-05
-3.71893e-05
-3.71019e-05
-3.70193e-05
-3.69427e-05
-3.68725e-05
-3.68077e-05
-3.67459e-05
-3.66911e-05
-3.66394e-05
-3.65935e-05
-3.65521e-05
-3.65112e-05
-3.64731e-05
-3.64354e-05
-3.64003e-05
-3.63622e-05
-3.63241e-05
-3.62832e-05
-3.6241e-05
-3.61953e-05
-3.61471e-05
-3.60948e-05
-3.604e-05
-3.59794e-05
-3.59194e-05
-3.58484e-05
-3.57827e-05
-3.56988e-05
-3.56388e-05
-3.55367e-05
-3.55099e-05
-3.53808e-05
-3.54615e-05
-3.52662e-05
-3.56675e-05
-3.52315e-05
-3.76124e-05
3.69089e-05
5.05517e-05
2.17989e-05
1.16343e-05
-1.61618e-05
-4.13465e-05
-3.49694e-05
-5.68268e-05
-5.87382e-05
-6.85009e-05
-7.21802e-05
-7.67184e-05
-7.95164e-05
-8.16024e-05
-8.30008e-05
-8.39233e-05
-8.41387e-05
-8.42753e-05
-8.37985e-05
-8.31951e-05
-8.23637e-05
-8.12224e-05
-8.00172e-05
-7.86346e-05
-7.70842e-05
-7.55033e-05
-7.37964e-05
-7.20202e-05
-7.02256e-05
-6.83528e-05
-6.65009e-05
-6.46309e-05
-6.27489e-05
-6.09178e-05
-5.91023e-05
-5.73322e-05
-5.56301e-05
-5.39804e-05
-5.24164e-05
-5.09257e-05
-4.95214e-05
-4.82149e-05
-4.69909e-05
-4.58666e-05
-4.4832e-05
-4.38849e-05
-4.30325e-05
-4.22535e-05
-4.15622e-05
-4.09366e-05
-4.03824e-05
-3.98875e-05
-3.94985e-05
-3.91769e-05
-3.88999e-05
-3.86472e-05
-3.84249e-05
-3.8227e-05
-3.80494e-05
-3.78884e-05
-3.77443e-05
-3.76138e-05
-3.74961e-05
-3.7385e-05
-3.72844e-05
-3.71902e-05
-3.71026e-05
-3.70201e-05
-3.69435e-05
-3.68733e-05
-3.68084e-05
-3.67467e-05
-3.66918e-05
-3.66402e-05
-3.65943e-05
-3.65529e-05
-3.65119e-05
-3.64738e-05
-3.6436e-05
-3.64008e-05
-3.63626e-05
-3.63245e-05
-3.62834e-05
-3.62412e-05
-3.61954e-05
-3.61472e-05
-3.60948e-05
-3.60399e-05
-3.59793e-05
-3.59192e-05
-3.58482e-05
-3.57826e-05
-3.56988e-05
-3.5639e-05
-3.5537e-05
-3.55108e-05
-3.53817e-05
-3.54637e-05
-3.52683e-05
-3.56732e-05
-3.52381e-05
-3.7584e-05
3.72617e-05
5.03048e-05
2.17365e-05
1.15641e-05
-1.56934e-05
-4.06817e-05
-3.47843e-05
-5.64333e-05
-5.85064e-05
-6.8239e-05
-7.19941e-05
-7.65492e-05
-7.93865e-05
-8.14954e-05
-8.29163e-05
-8.38569e-05
-8.40874e-05
-8.42358e-05
-8.37702e-05
-8.3174e-05
-8.23499e-05
-8.12144e-05
-8.00133e-05
-7.86348e-05
-7.70873e-05
-7.55085e-05
-7.38038e-05
-7.20289e-05
-7.02352e-05
-6.83635e-05
-6.65119e-05
-6.46422e-05
-6.27605e-05
-6.09292e-05
-5.91136e-05
-5.73433e-05
-5.56406e-05
-5.39905e-05
-5.2426e-05
-5.09348e-05
-4.95299e-05
-4.82228e-05
-4.69983e-05
-4.58735e-05
-4.48382e-05
-4.38907e-05
-4.30376e-05
-4.22584e-05
-4.15664e-05
-4.09405e-05
-4.03859e-05
-3.98907e-05
-3.95012e-05
-3.91797e-05
-3.89022e-05
-3.86495e-05
-3.84269e-05
-3.8229e-05
-3.8051e-05
-3.78901e-05
-3.77457e-05
-3.76151e-05
-3.74971e-05
-3.73861e-05
-3.72854e-05
-3.71911e-05
-3.71034e-05
-3.7021e-05
-3.69442e-05
-3.68741e-05
-3.68091e-05
-3.67475e-05
-3.66926e-05
-3.6641e-05
-3.65951e-05
-3.65536e-05
-3.65126e-05
-3.64744e-05
-3.64365e-05
-3.64013e-05
-3.6363e-05
-3.63248e-05
-3.62837e-05
-3.62414e-05
-3.61954e-05
-3.61472e-05
-3.60948e-05
-3.60398e-05
-3.59792e-05
-3.59191e-05
-3.58481e-05
-3.57825e-05
-3.56988e-05
-3.56392e-05
-3.55374e-05
-3.55117e-05
-3.53827e-05
-3.54661e-05
-3.52707e-05
-3.56791e-05
-3.52452e-05
-3.75539e-05
3.76652e-05
5.00389e-05
2.17085e-05
1.15264e-05
-1.51516e-05
-3.99268e-05
-3.45702e-05
-5.59853e-05
-5.82444e-05
-6.79439e-05
-7.1785e-05
-7.63596e-05
-7.92411e-05
-8.13759e-05
-8.2822e-05
-8.37828e-05
-8.40302e-05
-8.41917e-05
-8.37385e-05
-8.31503e-05
-8.23342e-05
-8.12052e-05
-8.00085e-05
-7.86346e-05
-7.70902e-05
-7.55139e-05
-7.38115e-05
-7.20381e-05
-7.02455e-05
-6.83748e-05
-6.65236e-05
-6.46543e-05
-6.27728e-05
-6.09414e-05
-5.91257e-05
-5.73551e-05
-5.56518e-05
-5.40014e-05
-5.24362e-05
-5.09445e-05
-4.9539e-05
-4.82313e-05
-4.70062e-05
-4.58808e-05
-4.48449e-05
-4.38969e-05
-4.30431e-05
-4.22635e-05
-4.1571e-05
-4.09446e-05
-4.03897e-05
-3.98941e-05
-3.95041e-05
-3.91826e-05
-3.89048e-05
-3.8652e-05
-3.8429e-05
-3.8231e-05
-3.80527e-05
-3.78918e-05
-3.77472e-05
-3.76166e-05
-3.74983e-05
-3.73873e-05
-3.72864e-05
-3.71922e-05
-3.71043e-05
-3.70219e-05
-3.69451e-05
-3.6875e-05
-3.68099e-05
-3.67484e-05
-3.66935e-05
-3.6642e-05
-3.65959e-05
-3.65544e-05
-3.65134e-05
-3.64751e-05
-3.64372e-05
-3.64018e-05
-3.63635e-05
-3.63252e-05
-3.62839e-05
-3.62416e-05
-3.61956e-05
-3.61473e-05
-3.60947e-05
-3.60398e-05
-3.59791e-05
-3.59189e-05
-3.58479e-05
-3.57824e-05
-3.56988e-05
-3.56395e-05
-3.55378e-05
-3.55127e-05
-3.53838e-05
-3.54686e-05
-3.52731e-05
-3.56851e-05
-3.52526e-05
-3.75222e-05
3.81236e-05
4.97541e-05
2.17214e-05
1.15269e-05
-1.45281e-05
-3.90701e-05
-3.43209e-05
-5.54741e-05
-5.79465e-05
-6.761e-05
-7.15488e-05
-7.61463e-05
-7.90777e-05
-8.12417e-05
-8.27164e-05
-8.36997e-05
-8.39662e-05
-8.41423e-05
-8.37028e-05
-8.31237e-05
-8.23165e-05
-8.11946e-05
-8.00028e-05
-7.86339e-05
-7.7093e-05
-7.55194e-05
-7.38195e-05
-7.20477e-05
-7.02564e-05
-6.83869e-05
-6.65361e-05
-6.46673e-05
-6.2786e-05
-6.09544e-05
-5.91387e-05
-5.73676e-05
-5.56638e-05
-5.40129e-05
-5.24472e-05
-5.0955e-05
-4.95488e-05
-4.82404e-05
-4.70147e-05
-4.58886e-05
-4.4852e-05
-4.39035e-05
-4.3049e-05
-4.22691e-05
-4.15758e-05
-4.09491e-05
-4.03937e-05
-3.98977e-05
-3.95072e-05
-3.91857e-05
-3.89074e-05
-3.86546e-05
-3.84313e-05
-3.82332e-05
-3.80546e-05
-3.78936e-05
-3.77488e-05
-3.76181e-05
-3.74996e-05
-3.73886e-05
-3.72875e-05
-3.71933e-05
-3.71052e-05
-3.70229e-05
-3.6946e-05
-3.68759e-05
-3.68108e-05
-3.67493e-05
-3.66944e-05
-3.66429e-05
-3.65968e-05
-3.65553e-05
-3.65142e-05
-3.64759e-05
-3.64378e-05
-3.64024e-05
-3.63639e-05
-3.63255e-05
-3.62842e-05
-3.62418e-05
-3.61957e-05
-3.61473e-05
-3.60947e-05
-3.60397e-05
-3.5979e-05
-3.59188e-05
-3.58478e-05
-3.57823e-05
-3.56988e-05
-3.56398e-05
-3.55383e-05
-3.55139e-05
-3.5385e-05
-3.54713e-05
-3.52757e-05
-3.56913e-05
-3.52606e-05
-3.74887e-05
3.86406e-05
4.94515e-05
2.17822e-05
1.15718e-05
-1.38141e-05
-3.80993e-05
-3.40281e-05
-5.4889e-05
-5.76057e-05
-6.72303e-05
-7.12801e-05
-7.59046e-05
-7.88926e-05
-8.109e-05
-8.25971e-05
-8.36059e-05
-8.38939e-05
-8.40864e-05
-8.36623e-05
-8.30934e-05
-8.22961e-05
-8.1182e-05
-7.99958e-05
-7.86325e-05