/*--------------------------------*- C++ -*----------------------------------*\
| =========                 |                                                 |
| \\      /  F ield         | OpenFOAM: The Open Source CFD Toolbox           |
|  \\    /   O peration     | Version:  5.x                                   |
|   \\  /    A nd           | Web:      www.OpenFOAM.org                      |
|    \\/     M anipulation  |                                                 |
\*---------------------------------------------------------------------------*/
FoamFile
{
    version     2.0;
    format      ascii;
    class       surfaceScalarField;
    location    "1500";
    object      phi;
}
// * * * * * * * * * * * * * * * * * * * * * * * * * * * * * * * * * * * * * //

dimensions      [0 3 -1 0 0 0 0];

internalField   nonuniform List<scalar> 
215247
(
1.62047e-09
3.05506e-08
-1.89402e-09
1.61635e-09
4.46441e-12
1.94013e-09
-3.2402e-10
2.13545e-09
-1.95282e-10
1.83381e-09
3.04438e-10
1.33739e-09
4.96229e-10
1.18938e-09
1.4972e-10
1.02209e-09
1.69345e-10
8.46047e-10
1.78118e-10
7.08913e-10
1.3947e-10
5.81866e-10
1.30146e-10
4.81939e-10
1.02499e-10
3.90411e-10
9.53012e-11
3.20043e-10
7.38319e-11
2.56201e-10
6.58816e-11
2.04159e-10
5.49287e-11
1.60305e-10
4.63945e-11
1.21564e-10
4.17402e-11
9.11605e-11
3.32084e-11
6.45778e-11
2.95509e-11
4.20627e-11
2.51932e-11
2.42289e-11
2.07125e-11
8.85813e-12
1.76294e-11
-3.4631e-12
1.63044e-11
-1.3209e-11
1.30561e-11
-2.12043e-11
1.2548e-11
-2.71842e-11
8.78134e-12
-3.17308e-11
7.44491e-12
-3.50895e-11
6.35611e-12
-3.72569e-11
5.42362e-12
-3.86248e-11
4.99291e-12
-3.92357e-11
4.14367e-12
-3.92667e-11
3.51699e-12
-3.88369e-11
2.2562e-12
-3.80061e-11
3.96307e-12
-3.69282e-11
7.77265e-13
-3.55999e-11
1.55796e-12
-3.41343e-11
2.37061e-12
-3.25745e-11
1.64272e-12
-3.09201e-11
1.74468e-12
-2.92517e-11
1.63881e-12
-2.75528e-11
1.88832e-12
-2.58682e-11
1.39687e-12
-2.42224e-11
3.22466e-12
-2.26091e-11
1.00266e-12
-2.11113e-11
3.64156e-12
-1.96583e-11
1.32919e-12
-1.83263e-11
3.26828e-12
-1.705e-11
3.57819e-12
-1.58611e-11
3.06107e-12
-1.47285e-11
4.03421e-12
-1.36327e-11
3.14585e-12
-1.27126e-11
3.69278e-12
-1.18408e-11
5.86673e-12
-1.0985e-11
4.51022e-12
-1.01121e-11
4.63694e-12
-9.23082e-12
4.82362e-12
-8.37891e-12
3.90026e-12
-7.49504e-12
5.67354e-12
-6.61491e-12
4.23513e-12
-5.73567e-12
6.8141e-12
-4.87185e-12
3.57379e-12
-4.0271e-12
5.88587e-12
-3.22613e-12
3.74481e-12
-2.47606e-12
6.15896e-12
-1.78402e-12
3.35377e-12
-1.1618e-12
6.11085e-12
-6.29349e-13
4.01529e-12
-1.83543e-13
5.98245e-12
1.78915e-13
3.38359e-12
4.45957e-13
7.00209e-12
6.28049e-13
1.2951e-12
7.22293e-13
1.03473e-11
7.34169e-13
5.53046e-12
6.58684e-13
7.90075e-12
5.58333e-13
2.05416e-12
3.93889e-13
9.43447e-12
1.86682e-13
4.50943e-12
-5.90396e-14
7.27508e-12
-3.03382e-13
4.83569e-12
-5.68963e-13
6.62895e-12
-8.19609e-13
3.72345e-12
-1.07673e-12
7.82058e-12
-1.29256e-12
3.9152e-12
-1.49503e-12
7.99841e-12
-1.62742e-12
2.4376e-12
-1.71697e-12
8.76827e-12
-1.69289e-12
2.85416e-12
-1.5777e-12
8.0608e-12
-1.27501e-12
2.07067e-12
-8.07868e-13
8.55917e-12
-2.71699e-14
2.23285e-12
9.97067e-13
7.59257e-12
2.60951e-12
3.39901e-12
4.52175e-12
2.79508e-12
7.6319e-12
5.92085e-13
1.12292e-11
-2.91289e-12
1.79943e-11
4.56885e-12
2.54459e-11
-2.49016e-12
4.98175e-11
-2.00519e-11
8.10339e-11
-2.86487e-11
-2.89204e-08
2.90062e-08
5.35775e-09
3.13493e-08
-6.18087e-09
5.31087e-09
5.13171e-11
6.38426e-09
-1.39728e-09
7.00021e-09
-8.1246e-10
6.03558e-09
1.27346e-09
4.43996e-09
2.08988e-09
3.92644e-09
6.65647e-10
3.38809e-09
7.10355e-10
2.80258e-09
7.66535e-10
2.35291e-09
5.923e-10
1.9319e-09
5.55762e-10
1.60182e-09
4.35019e-10
1.2986e-09
4.03582e-10
1.06537e-09
3.1104e-10
8.5365e-10
2.79838e-10
6.80954e-10
2.30821e-10
5.35283e-10
1.95826e-10
4.06633e-10
1.7466e-10
3.05521e-10
1.38271e-10
2.17133e-10
1.2188e-10
1.422e-10
1.03611e-10
8.27864e-11
8.41708e-11
3.16064e-11
7.22736e-11
-9.46842e-12
6.26842e-11
-4.20063e-11
4.96241e-11
-6.87082e-11
4.47046e-11
-8.87303e-11
3.19294e-11
-1.03959e-10
2.64382e-11
-1.15238e-10
2.17193e-11
-1.22555e-10
1.72409e-11
-1.27198e-10
1.48593e-11
-1.29335e-10
1.12249e-11
-1.29519e-10
8.62595e-12
-1.28164e-10
4.23308e-12
-1.25494e-10
6.2347e-12
-1.21975e-10
-1.15813e-12
-1.17629e-10
-2.04428e-13
-1.12828e-10
1.82339e-12
-1.07685e-10
9.01226e-13
-1.02231e-10
7.44231e-13
-9.6736e-11
-2.95062e-13
-9.11261e-11
6.31588e-13
-8.55696e-11
-1.24847e-12
-8.01385e-11
1.96457e-12
-7.48215e-11
-2.71747e-12
-6.98575e-11
3.87092e-12
-6.5075e-11
-1.85645e-12
-6.06545e-11
3.98597e-12
-5.64549e-11
3.99547e-12
-5.25157e-11
4.75566e-12
-4.87687e-11
7.50842e-12
-4.51364e-11
4.6456e-12
-4.21167e-11
5.32986e-12
-3.92128e-11
1.22786e-11
-3.63871e-11
9.35221e-12
-3.3499e-11
8.86223e-12
-3.06007e-11
9.35085e-12
-2.77677e-11
7.75021e-12
-2.48541e-11
1.17095e-11
-2.19394e-11
8.6196e-12
-1.90332e-11
1.49604e-11
-1.61758e-11
6.75002e-12
-1.33907e-11
1.24026e-11
-1.07355e-11
7.67077e-12
-8.25295e-12
1.35238e-11
-5.96691e-12
6.66725e-12
-3.91473e-12
1.342e-11
-2.1484e-12
8.84712e-12
-6.67031e-13
1.36853e-11
5.24871e-13
7.52904e-12
1.40477e-12
1.62562e-11
2.005e-12
3.34586e-12
2.32022e-12
2.55337e-11
2.36524e-12
1.44918e-11
2.14252e-12
2.01009e-11
1.78626e-12
5.40861e-12
1.24447e-12
2.31452e-11
5.64241e-13
1.18774e-11
-2.26828e-13
1.88289e-11
-1.0446e-12
1.20829e-11
-1.91575e-12
1.58658e-11
-2.74812e-12
9.52874e-12
-3.58377e-12
1.90318e-11
-4.30609e-12
9.62596e-12
-4.96251e-12
1.89671e-11
-5.40863e-12
6.06922e-12
-5.68747e-12
2.07051e-11
-5.61513e-12
6.56283e-12
-5.21862e-12
1.80515e-11
-4.2249e-12
4.50555e-12
-2.67053e-12
1.87352e-11
-9.09571e-14
4.13483e-12
3.29589e-12
1.54536e-11
8.63411e-12
5.00529e-12
1.49463e-11
2.93286e-12
2.52574e-11
-4.95446e-12
3.70639e-11
-1.34856e-11
5.95117e-11
-3.19431e-12
8.38984e-11
-2.02784e-11
1.64339e-10
-9.49151e-11
2.36277e-10
-9.80933e-11
-5.97542e-08
3.10731e-08
9.93489e-09
3.27955e-08
-1.1369e-08
9.81933e-09
1.67483e-10
1.17945e-08
-3.37287e-09
1.29079e-08
-1.92538e-09
1.1166e-08
3.01836e-09
8.26326e-09
4.99333e-09
7.28646e-09
1.64454e-09
6.29944e-09
1.7e-09
5.21311e-09
1.85539e-09
4.38098e-09
1.42737e-09
3.59938e-09
1.34099e-09
2.98636e-09
1.05161e-09
2.4228e-09
9.71934e-10
1.98882e-09
7.4962e-10
1.59484e-09
6.76712e-10
1.27324e-09
5.56243e-10
1.0018e-09
4.70331e-10
7.62078e-10
4.18081e-10
5.73492e-10
3.30305e-10
4.08634e-10
2.90474e-10
2.6879e-10
2.46862e-10
1.57824e-10
1.98724e-10
6.22484e-11
1.7071e-10
-1.45211e-11
1.44366e-10
-7.5395e-11
1.14895e-10
-1.25372e-10
1.00429e-10
-1.62906e-10
7.34335e-11
-1.91481e-10
5.87842e-11
-2.12685e-10
4.67823e-11
-2.26495e-10
3.51886e-11
-2.35306e-10
2.81914e-11
-2.39442e-10
1.98254e-11
-2.39914e-10
1.34947e-11
-2.37508e-10
5.54144e-12
-2.32659e-10
7.51697e-12
-2.262e-10
-4.64274e-12
-2.18201e-10
-4.03945e-12
-2.09349e-10
-2.00678e-12
-1.99837e-10
-4.47747e-12
-1.89741e-10
-4.91945e-12
-1.79574e-10
-5.85884e-12
-1.69177e-10
-4.95086e-12
-1.58884e-10
-7.07945e-12
-1.48819e-10
-1.48212e-12
-1.38969e-10
-8.33675e-12
-1.29751e-10
1.40454e-12
-1.20894e-10
-6.18284e-12
-1.12679e-10
1.93996e-12
-1.04902e-10
2.9761e-12
-9.75847e-11
2.99631e-12
-9.06285e-11
7.11789e-12
-8.38788e-11
3.6571e-12
-7.82925e-11
5.88353e-12
-7.28875e-11
1.51023e-11
-6.76462e-11
1.09162e-11
-6.22854e-11
1.05387e-11
-5.69191e-11
1.13175e-11
-5.16504e-11
8.58695e-12
-4.62524e-11
1.44263e-11
-4.08429e-11
9.81043e-12
-3.54536e-11
1.88002e-11
-3.01527e-11
7.27299e-12
-2.49938e-11
1.54753e-11
-2.00642e-11
8.57403e-12
-1.54585e-11
1.72579e-11
-1.12208e-11
7.7747e-12
-7.41931e-12
1.77787e-11
-4.13845e-12
1.13305e-11
-1.38467e-12
1.87267e-11
8.20642e-13
1.03627e-11
2.45138e-12
2.33286e-11
3.56411e-12
5.00198e-12
4.15179e-12
3.65935e-11
4.2427e-12
2.12081e-11
3.85375e-12
2.95682e-11
3.17548e-12
9.35795e-12
2.17316e-12
3.47009e-11
9.19387e-13
1.8538e-11
-5.27594e-13
2.8435e-11
-2.04876e-12
1.94545e-11
-3.65595e-12
2.54309e-11
-5.20018e-12
1.57942e-11
-6.7359e-12
2.96331e-11
-8.07904e-12
1.60661e-11
-9.28246e-12
2.96238e-11
-1.01127e-11
1.04974e-11
-1.06122e-11
3.1452e-11
-1.0478e-11
1.06621e-11
-9.72414e-12
2.72232e-11
-7.88119e-12
6.28002e-12
-4.9843e-12
2.66516e-11
-1.94311e-13
3.59635e-12
6.0953e-12
1.95761e-11
1.60087e-11
1.49665e-12
2.77176e-11
-2.71606e-12
4.68689e-11
-1.90283e-11
6.8704e-11
-3.32642e-11
1.10387e-10
-3.17356e-11
1.55397e-10
-5.88191e-11
3.04214e-10
-2.38019e-10
4.27329e-10
-2.17371e-10
-9.25858e-08
3.3266e-08
1.54755e-08
3.48971e-08
-1.75991e-08
1.52883e-08
3.54582e-10
1.83251e-08
-6.40957e-09
2.00313e-08
-3.63301e-09
1.73849e-08
5.66944e-09
1.29347e-08
9.44169e-09
1.13856e-08
3.19634e-09
9.85342e-09
3.23537e-09
8.163e-09
3.5492e-09
6.8644e-09
2.72967e-09
5.64473e-09
2.56578e-09
4.68602e-09
2.0131e-09
3.80477e-09
1.85901e-09
3.12509e-09
1.43379e-09
2.50808e-09
1.29635e-09
2.00399e-09
1.06384e-09
1.57833e-09
9.00406e-10
1.20231e-09
7.99156e-10
9.06274e-10
6.30965e-10
6.4744e-10
5.53936e-10
4.27776e-10
4.70606e-10
2.5334e-10
3.77919e-10
1.03084e-10
3.25166e-10
-1.77002e-11
2.71093e-10
-1.13559e-10
2.15425e-10
-1.92302e-10
1.85121e-10
-2.51521e-10
1.3636e-10
-2.96659e-10
1.08343e-10
-3.30222e-10
8.51829e-11
-3.52163e-10
6.24354e-11
-3.66238e-10
4.8453e-11
-3.72975e-10
3.2392e-11
-3.73928e-10
2.02588e-11
-3.70353e-10
6.05951e-12
-3.62941e-10
5.27173e-12
-3.52972e-10
-1.27024e-11
-3.40586e-10
-1.35383e-11
-3.26851e-10
-1.11036e-11
-3.12055e-10
-1.41155e-11
-2.96337e-10
-1.54043e-11
-2.80504e-10
-1.75903e-11
-2.643e-10
-1.60979e-11
-2.48253e-10
-1.98683e-11
-2.32556e-10
-1.29922e-11
-2.17196e-10
-2.19107e-11
-2.02803e-10
-7.67592e-12
-1.8899e-10
-1.80816e-11
-1.76157e-10
-5.31342e-12
-1.64025e-10
-4.00361e-12
-1.52594e-10
-1.84095e-12
-1.4173e-10
4.77564e-12
-1.31179e-10
-1.03115e-12
-1.22466e-10
2.29495e-12
-1.14017e-10
1.71566e-11
-1.05835e-10
1.17378e-11
-9.74644e-11
1.02458e-11
-8.90958e-11
1.1447e-11
-8.08646e-11
8.17531e-12
-7.24466e-11
1.61845e-11
-6.40069e-11
1.00629e-11
-5.56029e-11
2.28676e-11
-4.73347e-11
6.12796e-12
-3.92941e-11
1.79458e-11
-3.16047e-11
8.69311e-12
-2.44226e-11
2.12259e-11
-1.78162e-11
7.86367e-12
-1.1892e-11
2.23784e-11
-6.77302e-12
1.399e-11
-2.47382e-12
2.48657e-11
9.62356e-13
1.34697e-11
3.50697e-12
3.20748e-11
5.24365e-12
7.51549e-12
6.16424e-12
5.24842e-11
6.3134e-12
3.18768e-11
5.72769e-12
4.37256e-11
4.66316e-12
1.48174e-11
3.10567e-12
5.05146e-11
1.15969e-12
2.85781e-11
-1.0782e-12
4.27741e-11
-3.44773e-12
2.9354e-11
-5.94244e-12
3.7277e-11
-8.34604e-12
2.43707e-11
-1.07257e-11
4.34113e-11
-1.28165e-11
2.42995e-11
-1.4676e-11
4.27077e-11
-1.59648e-11
1.61573e-11
-1.67226e-11
4.4718e-11
-1.65022e-11
1.52984e-11
-1.53005e-11
3.71106e-11
-1.24128e-11
8.03918e-12
-7.86938e-12
3.46534e-11
-3.78297e-13
1.86215e-12
9.45553e-12
2.18706e-11
2.49447e-11
-5.84709e-12
4.3231e-11
-1.34429e-11
7.31386e-11
-4.31564e-11
1.07175e-10
-6.46229e-11
1.72212e-10
-8.15346e-11
2.42242e-10
-1.21214e-10
4.73542e-10
-4.6289e-10
6.58301e-10
-3.99181e-10
-1.27513e-07
3.55893e-08
2.21371e-08
3.78137e-08
-2.50395e-08
2.18795e-08
6.13096e-10
2.6156e-08
-1.06864e-08
2.85637e-08
-6.03981e-09
2.48747e-08
9.36086e-09
1.86066e-08
1.57115e-08
1.63559e-08
5.44931e-09
1.41654e-08
5.42888e-09
1.17512e-08
5.96618e-09
9.88728e-09
4.5969e-09
8.13877e-09
4.31761e-09
6.76028e-09
3.39534e-09
5.49378e-09
3.13042e-09
4.51516e-09
2.41726e-09
3.62689e-09
2.18793e-09
2.90048e-09
1.79426e-09
2.28678e-09
1.51742e-09
1.7445e-09
1.34555e-09
1.31725e-09
1.06198e-09
9.43598e-10
9.31762e-10
6.26341e-10
7.91682e-10
3.74209e-10
6.3405e-10
1.56988e-10
5.45401e-10
-1.77651e-11
4.50641e-10
-1.56573e-10
3.58972e-10
-2.7067e-10
3.05029e-10
-3.56591e-10
2.26895e-10
-4.22169e-10
1.78223e-10
-4.71036e-10
1.38437e-10
-5.03101e-10
9.91238e-11
-5.23791e-10
7.41334e-11
-5.3388e-10
4.74387e-11
-5.35581e-10
2.68294e-11
-5.30731e-10
5.56274e-12
-5.20334e-10
1.14329e-12
-5.06207e-10
-2.29323e-11
-4.88586e-10
-2.63005e-11
-4.69003e-10
-2.53913e-11
-4.47862e-10
-3.0585e-11
-4.25382e-10
-3.28584e-11
-4.02722e-10
-3.48067e-11
-3.79514e-10
-3.37651e-11
-3.56522e-10
-3.75086e-11
-3.34026e-10
-2.82475e-11
-3.12011e-10
-3.84421e-11
-2.91364e-10
-2.11075e-11
-2.7156e-10
-3.21012e-11
-2.53142e-10
-1.688e-11
-2.3574e-10
-1.39404e-11
-2.19334e-10
-1.18689e-11
-2.03739e-10
-3.43405e-12
-1.88584e-10
-9.75138e-12
-1.76086e-10
-3.7484e-12
-1.63953e-10
1.30274e-11
-1.52214e-10
6.99837e-12
-1.40204e-10
5.54309e-12
-1.28207e-10
7.00863e-12
-1.16398e-10
2.79877e-12
-1.04335e-10
1.20727e-11
-9.22407e-11
4.91858e-12
-8.02028e-11
1.95725e-11
-6.83583e-11
5.66652e-13
-5.68465e-11
1.43964e-11
-4.58336e-11
3.81443e-12
-3.55494e-11
1.88956e-11
-2.60907e-11
4.22942e-12
-1.76107e-11
2.17082e-11
-1.02783e-11
1.26307e-11
-4.1173e-12
2.62103e-11
8.02763e-13
1.41843e-11
4.45169e-12
3.66182e-11
6.94173e-12
9.08096e-12
8.2656e-12
6.10999e-11
8.48871e-12
3.83787e-11
7.67157e-12
5.28825e-11
6.14809e-12
2.07267e-11
3.92736e-12
6.1991e-11
1.15255e-12
3.6908e-11
-2.03268e-12
5.34734e-11
-5.4171e-12
3.8894e-11
-8.97341e-12
4.88009e-11
-1.2406e-11
3.31625e-11
-1.57944e-11
5.54375e-11
-1.87774e-11
3.31522e-11
-2.14165e-11
5.44772e-11
-2.32466e-11
2.26729e-11
-2.43017e-11
5.53271e-11
-2.39612e-11
2.022e-11
-2.21999e-11
4.49596e-11
-1.80314e-11
8.51806e-12
-1.14775e-11
3.8357e-11
-7.0267e-13
-3.79807e-12
1.34354e-11
1.77622e-11
3.56811e-11
-2.09022e-11
6.19367e-11
-3.28622e-11
1.04851e-10
-8.0017e-11
1.5364e-10
-1.09578e-10
2.46849e-10
-1.62798e-10
3.47042e-10
-2.14117e-10
6.77176e-10
-7.86545e-10
9.35724e-10
-6.52741e-10
-1.64616e-07
3.8047e-08
3.01013e-08
4.1568e-08
-3.38755e-08
2.97782e-08
9.35959e-10
3.54915e-08
-1.63997e-08
3.87245e-08
-9.27445e-09
3.38446e-08
1.42455e-08
2.54568e-08
2.40979e-08
2.23511e-08
8.5582e-09
1.93701e-08
8.4138e-09
1.60937e-08
9.24664e-09
1.35484e-08
7.14666e-09
1.11649e-08
6.70671e-09
9.27937e-09
5.28418e-09
7.54808e-09
4.86851e-09
6.20761e-09
3.76294e-09
4.99108e-09
3.4077e-09
3.99515e-09
2.79416e-09
3.15335e-09
2.36445e-09
2.40923e-09
2.09578e-09
1.82251e-09
1.6542e-09
1.30923e-09
1.4506e-09
8.73225e-10
1.23258e-09
5.26428e-10
9.86559e-10
2.27582e-10
8.49372e-10
-1.30344e-11
6.97954e-10
-2.04326e-10
5.55747e-10
-3.6167e-10
4.68928e-10
-4.80319e-10
3.50067e-10
-5.71013e-10
2.74231e-10
-6.38744e-10
2.11994e-10
-6.83357e-10
1.5007e-10
-7.12317e-10
1.10483e-10
-7.26701e-10
6.87641e-11
-7.29514e-10
3.6553e-11
-7.23305e-10
4.4624e-12
-7.09459e-10
-7.22141e-12
-6.90442e-10
-3.95265e-11
-6.66615e-10
-4.67337e-11
-6.40069e-10
-4.67827e-11
-6.11351e-10
-5.31898e-11
-5.80778e-10
-5.72054e-11
-5.49941e-10
-6.07558e-11
-5.18334e-10
-5.93928e-11
-4.87009e-10
-6.50361e-11
-4.56345e-10
-5.45631e-11
-4.26337e-10
-6.62251e-11
-3.98174e-10
-4.37296e-11
-3.71168e-10
-5.65538e-11
-3.46032e-10
-3.58172e-11
-3.22289e-10
-3.16965e-11
-2.99893e-10
-2.63991e-11
-2.78603e-10
-1.45331e-11
-2.57901e-10
-2.36269e-11
-2.40847e-10
-1.49549e-11
-2.24281e-10
8.3776e-12
-2.0826e-10
1.57443e-12
-1.91874e-10
-1.55684e-12
-1.75517e-10
4.93584e-13
-1.59413e-10
-4.0599e-12
-1.42977e-10
7.28546e-12
-1.26502e-10
-1.12209e-12
-1.10111e-10
1.72642e-11
-9.39842e-11
-7.0473e-12
-7.83176e-11
1.06702e-11
-6.33288e-11
-1.84151e-12
-4.93342e-11
1.75532e-11
-3.64639e-11
-5.53294e-13
-2.49271e-11
2.20483e-11
-1.49475e-11
1.18775e-11
-6.55843e-12
2.97117e-11
1.38362e-13
1.55555e-11
5.11302e-12
4.42538e-11
8.50623e-12
1.20819e-11
1.03164e-11
7.73489e-11
1.06332e-11
5.10101e-11
9.54631e-12
6.92863e-11
7.48062e-12
2.9013e-11
4.47387e-12
8.03619e-11
7.13824e-13
5.04625e-11
-3.59805e-12
7.13093e-11
-8.18841e-12
5.23367e-11
-1.30059e-11
6.41591e-11
-1.76618e-11
4.55095e-11
-2.22472e-11
7.2551e-11
-2.62869e-11
4.48063e-11
-2.98445e-11
7.02771e-11
-3.23071e-11
3.10762e-11
-3.36982e-11
7.00953e-11
-3.31913e-11
2.59735e-11
-3.07316e-11
5.43455e-11
-2.49981e-11
9.01326e-12
-1.59983e-11
4.27586e-11
-1.2491e-12
-1.11813e-11
1.8093e-11
1.15097e-11
4.84854e-11
-4.16443e-11
8.43483e-11
-5.9774e-11
1.42906e-10
-1.31454e-10
2.09439e-10
-1.71501e-10
3.3645e-10
-2.74142e-10
4.72803e-10
-3.41565e-10
9.20664e-10
-1.22693e-09
1.26726e-09
-9.95758e-10
-2.03988e-07
4.06428e-08
3.95747e-08
4.63212e-08
-4.43125e-08
3.91964e-08
1.31535e-09
4.65634e-08
-2.3767e-08
5.0762e-08
-1.34717e-08
4.45344e-08
2.04751e-08
3.36918e-08
3.49434e-08
2.95503e-08
1.27019e-08
2.56245e-08
1.23429e-08
2.13263e-08
1.35476e-08
1.79637e-08
1.05128e-08
1.48214e-08
9.85218e-09
1.23261e-08
7.78363e-09
1.00366e-08
7.16338e-09
8.26001e-09
5.54493e-09
6.64791e-09
5.02381e-09
5.32663e-09
4.11985e-09
4.20925e-09
3.4852e-09
3.22113e-09
3.08824e-09
2.44139e-09
2.43781e-09
1.75902e-09
2.13741e-09
1.17908e-09
1.81661e-09
7.17396e-10
1.45252e-09
3.19445e-10
1.25074e-09
-1.24248e-12
1.02364e-09
-2.56424e-10
8.16225e-10
-4.66472e-10
6.85136e-10
-6.25087e-10
5.14168e-10
-7.46521e-10
4.00387e-10
-8.37419e-10
3.07703e-10
-8.97527e-10
2.15173e-10
-9.36789e-10
1.55051e-10
-9.56652e-10
9.39607e-11
-9.61064e-10
4.62136e-11
-9.53454e-10
2.0689e-12
-9.35656e-10
-1.8415e-11
-9.10926e-10
-5.93331e-11
-8.79785e-10
-7.21419e-11
-8.44991e-10
-7.57994e-11
-8.07271e-10
-8.57576e-11
-7.67064e-10
-9.18466e-11
-7.26476e-10
-9.50536e-11
-6.84844e-10
-9.47507e-11
-6.43566e-10
-9.99392e-11
-6.03141e-10
-8.69094e-11
-5.63579e-10
-9.89309e-11
-5.26425e-10
-7.29316e-11
-4.90801e-10
-8.49748e-11
-4.57624e-10
-6.11525e-11
-4.26287e-10
-5.45512e-11
-3.96713e-10
-4.88951e-11
-3.68595e-10
-3.46845e-11
-3.41243e-10
-4.35408e-11
-3.1873e-10
-3.04267e-11
-2.96852e-10
-5.16003e-12
-2.75704e-10
-1.19368e-11
-2.5408e-10
-1.51395e-11
-2.3251e-10
-1.28214e-11
-2.11275e-10
-1.80309e-11
-1.8962e-10
-6.02172e-12
-1.67923e-10
-1.49785e-11
-1.46345e-10
4.56837e-12
-1.25118e-10
-2.10663e-11
-1.04507e-10
-1.69026e-12
-8.47892e-11
-1.46337e-11
-6.63818e-11
7.28988e-12
-4.94547e-11
-1.07422e-11
-3.42834e-11
1.48784e-11
-2.11557e-11
5.39948e-12
-1.0116e-11
2.64252e-11
-1.30401e-12
1.33853e-11
5.25251e-12
4.59535e-11
9.7231e-12
1.33478e-11
1.2116e-11
8.39048e-11
1.25519e-11
5.77724e-11
1.11526e-11
7.89504e-11
8.45089e-12
3.75382e-11
4.51793e-12
9.28728e-11
-4.05065e-13
6.14814e-11
-6.04861e-12
8.43372e-11
-1.2063e-11
6.52031e-11
-1.83697e-11
7.89069e-11
-2.44706e-11
5.79812e-11
-3.04672e-11
8.72807e-11
-3.57493e-11
5.70769e-11
-4.03811e-11
8.42134e-11
-4.35754e-11
4.0341e-11
-4.53399e-11
8.12457e-11
-4.46035e-11
3.18003e-11
-4.12737e-11
6.07651e-11
-3.36331e-11
7.34584e-12
-2.16675e-11
4.10153e-11
-2.12572e-12
-2.44122e-11
2.34836e-11
-3.93137e-12
6.36577e-11
-7.39773e-11
1.11053e-10
-9.96468e-11
1.88339e-10
-2.01385e-10
2.76118e-10
-2.53469e-10
4.4349e-10
-4.30176e-10
6.22987e-10
-5.12947e-10
1.21034e-09
-1.80696e-09
1.66161e-09
-1.44081e-09
-2.45697e-07
4.33803e-08
5.07923e-08
5.20913e-08
-5.6581e-08
5.03764e-08
1.73082e-09
5.96336e-08
-3.30244e-08
6.49561e-08
-1.87957e-08
5.72175e-08
2.82187e-08
4.35513e-08
4.86089e-08
3.81616e-08
1.80953e-08
3.31113e-08
1.73982e-08
2.7608e-08
1.90556e-08
2.3269e-08
1.48571e-08
1.92238e-08
1.39037e-08
1.59983e-08
1.10133e-08
1.30408e-08
1.01289e-08
1.07406e-08
7.85143e-09
8.65358e-09
7.11494e-09
6.94098e-09
5.83715e-09
5.49183e-09
4.94054e-09
4.20974e-09
4.37773e-09
3.19717e-09
3.4569e-09
2.31069e-09
3.03056e-09
1.5569e-09
2.57629e-09
9.56245e-10
2.06004e-09
4.38356e-10
1.7749e-09
2.06393e-11
1.44907e-09
-3.1207e-10
1.15545e-09
-5.86148e-10
9.66636e-10
-7.93419e-10
7.27044e-10
-9.52368e-10
5.65735e-10
-1.07163e-09
4.3397e-10
-1.15082e-09
3.01885e-10
-1.20288e-09
2.15862e-10
-1.2297e-09
1.29002e-10
-1.23636e-09
6.10316e-11
-1.22736e-09
-5.85587e-13
-1.20509e-09
-3.46917e-11
-1.17372e-09
-8.75743e-11
-1.13401e-09
-1.07698e-10
-1.08949e-09
-1.14413e-10
-1.04112e-09
-1.26895e-10
-9.89495e-10
-1.36084e-10
-9.37335e-10
-1.41307e-10
-8.83788e-10
-1.41206e-10
-8.30674e-10
-1.48499e-10
-7.78634e-10
-1.34146e-10
-7.27694e-10
-1.46939e-10
-6.79832e-10
-1.14718e-10
-6.3394e-10
-1.27346e-10
-5.91176e-10
-9.67718e-11
-5.50779e-10
-8.77159e-11
-5.12639e-10
-7.7607e-11
-4.7637e-10
-5.87913e-11
-4.41075e-10
-7.06827e-11
-4.12046e-10
-5.2523e-11
-3.8383e-10
-1.95851e-11
-3.56563e-10
-2.66352e-11
-3.287e-10
-3.2099e-11
-3.00923e-10
-2.89595e-11
-2.73586e-10
-3.42542e-11
-2.45733e-10
-2.02719e-11
-2.17837e-10
-3.02202e-11
-1.90109e-10
-6.98798e-12
-1.62839e-10
-3.80126e-11
-1.36373e-10
-1.43192e-11
-1.11057e-10
-2.86714e-11
-8.74284e-11
-1.72944e-12
-6.57018e-11
-2.25974e-11
-4.62309e-11
9.07946e-12
-2.93788e-11
-3.88495e-13
-1.52016e-11
2.60188e-11
-3.88452e-12
1.20323e-11
4.55e-12
5.1899e-11
1.02991e-11
1.65888e-11
1.33884e-11
1.00526e-10
1.39745e-11
7.27148e-11
1.22168e-11
9.81951e-11
8.77258e-12
4.94064e-11
3.75501e-12
1.14772e-10
-2.5331e-12
7.95999e-11
-9.74101e-12
1.06828e-10
-1.7428e-11
8.33722e-11
-2.54834e-11
9.91247e-11
-3.32815e-11
7.53278e-11
-4.09316e-11
1.08993e-10
-4.76657e-11
7.3223e-11
-5.35445e-11
1.03764e-10
-5.75778e-11
5.22042e-11
-5.97487e-11
9.80444e-11
-5.86986e-11
3.86938e-11
-5.42861e-11
6.93328e-11
-4.43269e-11
5.49343e-12
-2.87749e-11
4.01303e-11
-3.47277e-12
-4.04466e-11
2.96591e-11
-2.25928e-11
8.15341e-11
-1.1444e-10
1.42721e-10
-1.50241e-10
2.42341e-10
-2.92256e-10
3.55455e-10
-3.59755e-10
5.70816e-10
-6.29066e-10
8.0157e-10
-7.33308e-10
1.55343e-09
-2.55012e-09
2.12868e-09
-2.01175e-09
-2.89826e-07
4.62622e-08
6.402e-08
5.90266e-08
-7.09383e-08
6.3594e-08
2.1583e-09
7.49975e-08
-4.44281e-08
8.16218e-08
-2.54181e-08
7.22055e-08
3.76366e-08
5.53131e-08
6.5505e-08
4.84269e-08
2.49838e-08
4.20433e-08
2.37858e-08
3.51246e-08
2.59773e-08
2.9624e-08
2.03617e-08
2.45082e-08
1.90223e-08
2.0411e-08
1.51147e-08
1.66572e-08
1.38882e-08
1.37303e-08
1.07841e-08
1.10749e-08
9.77483e-09
8.89304e-09
8.02377e-09
7.0457e-09
6.79154e-09
5.4105e-09
6.01788e-09
4.11788e-09
4.75376e-09
2.98576e-09
4.16772e-09
2.02254e-09
3.54413e-09
1.25426e-09
2.83321e-09
5.91611e-10
2.44115e-09
5.66254e-11
1.98912e-09
-3.69918e-10
1.58767e-09
-7.21587e-10
1.3247e-09
-9.87946e-10
9.99627e-10
-1.19257e-09
7.75742e-10
-1.34649e-09
5.93406e-10
-1.44912e-09
4.1012e-10
-1.51703e-09
2.89666e-10
-1.55267e-09
1.70603e-10
-1.56244e-09
7.6663e-11
-1.55215e-09
-4.87541e-12
-1.52484e-09
-5.49643e-11
-1.48582e-09
-1.20607e-10
-1.43611e-09
-1.5086e-10
-1.38018e-09
-1.64065e-10
-1.31928e-09
-1.81918e-10
-1.25417e-09
-1.94832e-10
-1.18832e-09
-1.99742e-10
-1.12067e-09
-2.01599e-10
-1.05353e-09
-2.08033e-10
-9.87721e-10
-1.90947e-10
-9.23287e-10
-2.03019e-10
-8.62716e-10
-1.66518e-10
-8.04631e-10
-1.76774e-10
-7.50481e-10
-1.42112e-10
-6.99316e-10
-1.29459e-10
-6.50987e-10
-1.17767e-10
-6.05019e-10
-9.5753e-11
-5.60273e-10
-1.07035e-10
-5.23493e-10
-8.17614e-11
-4.87739e-10
-4.70432e-11
-4.53202e-10
-5.30687e-11
-4.17931e-10
-5.88487e-11
-3.82793e-10
-5.5364e-11
-3.48228e-10
-6.10757e-11
-3.13039e-10
-4.69847e-11
-2.77819e-10
-5.71663e-11
-2.42829e-10
-3.32458e-11
-2.08429e-10
-6.4605e-11
-1.75059e-10
-3.94042e-11
-1.43147e-10
-5.32478e-11
-1.13368e-10
-2.34418e-11
-8.59887e-11
-4.26329e-11
-6.14547e-11
-7.48853e-12
-4.02161e-11
-1.46377e-11
-2.2342e-11
1.59132e-11
-8.07095e-12
5.10388e-12
2.58249e-12
4.93496e-11
9.84349e-12
1.61897e-11
1.37608e-11
1.04404e-10
1.45361e-11
7.9172e-11
1.23697e-11
1.08195e-10
8.06481e-12
6.06479e-11
1.78267e-12
1.28787e-10
-6.09878e-12
9.38527e-11
-1.51351e-11
1.22983e-10
-2.47763e-11
1.0039e-10
-3.48749e-11
1.1798e-10
-4.46555e-11
9.22458e-11
-5.4233e-11
1.27318e-10
-6.26532e-11
8.9548e-11
-6.99706e-11
1.20502e-10
-7.4956e-11
6.44072e-11
-7.75603e-11
1.09886e-10
-7.60844e-11
4.49718e-11
-7.03268e-11
7.35416e-11
-5.75543e-11
-2.03481e-13
-3.76762e-11
3.04797e-11
-5.4696e-12
-6.52983e-11
3.66648e-11
-5.43792e-11
1.02491e-10
-1.71388e-10
1.80117e-10
-2.19298e-10
3.06276e-10
-4.09707e-10
4.49498e-10
-4.95326e-10
7.21703e-10
-8.9039e-10
1.01312e-09
-1.0155e-09
1.95815e-09
-3.48675e-09
2.67974e-09
-2.72562e-09
-3.36426e-07
4.92909e-08
7.95582e-08
6.71221e-08
-8.76709e-08
7.91621e-08
2.55374e-09
9.29866e-08
-5.8253e-08
1.01112e-07
-3.35449e-08
8.98522e-08
4.89014e-08
6.92982e-08
8.60592e-08
6.06269e-08
3.36596e-08
5.26678e-08
3.17512e-08
4.40935e-08
3.45572e-08
3.72155e-08
2.72463e-08
3.08347e-08
2.541e-08
2.57004e-08
2.02541e-08
2.09998e-08
1.85983e-08
1.7325e-08
1.44666e-08
1.39913e-08
1.31138e-08
1.12483e-08
1.07725e-08
8.92426e-09
9.12292e-09
6.86597e-09
8.08518e-09
5.23736e-09
6.39017e-09
3.81029e-09
5.60289e-09
2.59541e-09
4.76614e-09
1.62537e-09
3.81157e-09
7.88408e-10
3.28565e-09
1.12006e-10
2.67448e-09
-4.27865e-10
2.13525e-09
-8.73364e-10
1.77872e-09
-1.21134e-09
1.34452e-09
-1.47146e-09
1.0436e-09
-1.66763e-09
7.98026e-10
-1.79901e-09
5.50435e-10
-1.88653e-09
3.87542e-10
-1.93332e-09
2.27103e-10
-1.94733e-09
1.00276e-10
-1.93598e-09
-8.48715e-12
-1.90308e-09
-8.11491e-11
-1.85529e-09
-1.6438e-10
-1.79396e-09
-2.07017e-10
-1.72471e-09
-2.26458e-10
-1.6491e-09
-2.48952e-10
-1.56814e-09
-2.67015e-10
-1.48616e-09
-2.74482e-10
-1.40187e-09
-2.7744e-10
-1.31817e-09
-2.86166e-10
-1.23609e-09
-2.67454e-10
-1.1557e-09
-2.79481e-10
-1.0801e-09
-2.35166e-10
-1.00759e-09
-2.4449e-10
-9.39951e-10
-2.01306e-10
-8.76029e-10
-1.84556e-10
-8.15622e-10
-1.66768e-10
-7.58148e-10
-1.38637e-10
-7.02186e-10
-1.53178e-10
-6.56218e-10
-1.19452e-10
-6.11528e-10
-7.57242e-11
-5.68377e-10
-8.14113e-11
-5.24339e-10
-9.00149e-11
-4.805e-10
-8.5414e-11
-4.37403e-10
-9.08243e-11
-3.93567e-10
-7.48988e-11
-3.49722e-10
-8.57783e-11
-3.06189e-10
-5.81658e-11
-2.63409e-10
-9.49e-11
-2.21932e-10
-6.47974e-11
-1.82278e-10
-7.93478e-11
-1.45282e-10
-4.35349e-11
-1.11273e-10
-6.4666e-11
-8.08012e-11
-2.21613e-11
-5.44172e-11
-2.78169e-11
-3.22042e-11
9.66976e-12
-1.44643e-11
-4.85939e-13
-1.19912e-12
5.25768e-11
7.84245e-12
1.90288e-11
1.27428e-11
1.21179e-10
1.37546e-11
9.65375e-11
1.11265e-11
1.30791e-10
5.82789e-12
7.6833e-11
-1.92004e-12
1.55228e-10
-1.16531e-11
1.17631e-10
-2.28154e-11
1.51435e-10
-3.47299e-11
1.24666e-10
-4.72044e-11
1.44587e-10
-5.92895e-11
1.15996e-10
-7.11016e-11
1.55065e-10
-8.14696e-11
1.11383e-10
-9.04353e-11
1.44923e-10
-9.64918e-11
8.04254e-11
-9.95444e-11
1.2916e-10
-9.7497e-11
5.27817e-11
-9.00702e-11
8.05864e-11
-7.38907e-11
-6.17486e-12
-4.88046e-11
2.16971e-11
-8.34328e-12
-9.43623e-11
4.45372e-11
-9.10266e-11
1.26951e-10
-2.40249e-10
2.24116e-10
-3.0387e-10
3.8171e-10
-5.56662e-10
5.60598e-10
-6.64971e-10
8.99911e-10
-1.21203e-09
1.26288e-09
-1.3663e-09
2.43382e-09
-4.64754e-09
3.32766e-09
-3.61428e-09
-3.85561e-07
5.24681e-08
9.77446e-08
7.6491e-08
-1.07096e-07
9.74349e-08
2.86511e-09
1.13972e-07
-7.47899e-08
1.2382e-07
-4.33908e-08
1.10558e-07
6.21651e-08
8.58768e-08
1.10745e-07
7.50867e-08
4.44518e-08
6.5272e-08
4.15702e-08
5.47683e-08
4.50635e-08
4.62625e-08
3.57563e-08
3.83916e-08
3.32836e-08
3.20268e-08
2.66236e-08
2.62037e-08
2.44275e-08
2.16387e-08
1.90384e-08
1.74973e-08
1.72605e-08
1.40848e-08
1.41905e-08
1.11914e-08
1.202e-08
8.62731e-09
1.06545e-08
6.59641e-09
8.4253e-09
4.81593e-09
7.38871e-09
3.29922e-09
6.28777e-09
2.08683e-09
5.02924e-09
1.04034e-09
4.33618e-09
1.9371e-10
3.52667e-09
-4.82794e-10
2.8181e-09
-1.04157e-09
2.34455e-09
-1.4662e-09
1.77639e-09
-1.79365e-09
1.37679e-09
-2.04128e-09
1.05161e-09
-2.20786e-09
7.22984e-10
-2.31961e-09
5.05496e-10
-2.38046e-09
2.94301e-10
-2.40019e-09
1.26323e-10
-2.38817e-09
-1.35047e-11
-2.34916e-09
-1.12384e-10
-2.29137e-09
-2.1494e-10
-2.21665e-09
-2.74098e-10
-2.1319e-09
-3.04174e-10
-2.03909e-09
-3.35343e-10
-1.93955e-09
-3.5959e-10
-1.83864e-09
-3.67067e-10
-1.73478e-09
-3.73195e-10
-1.63159e-09
-3.80427e-10
-1.53033e-09
-3.58367e-10
-1.43114e-09
-3.68559e-10
-1.33781e-09
-3.18459e-10
-1.24827e-09
-3.23592e-10
-1.16472e-09
-2.74632e-10
-1.08572e-09
-2.52715e-10
-1.01103e-09
-2.3238e-10
-9.39951e-10
-1.99946e-10
-8.70722e-10
-2.12645e-10
-8.13888e-10
-1.67891e-10
-7.58635e-10
-1.22084e-10
-7.05305e-10
-1.25681e-10
-6.50927e-10
-1.34809e-10
-5.96834e-10
-1.29709e-10
-5.43695e-10
-1.3513e-10
-4.89699e-10
-1.19616e-10
-4.3573e-10
-1.30412e-10
-3.82182e-10
-1.02408e-10
-3.29586e-10
-1.38514e-10
-2.78621e-10
-1.06785e-10
-2.29912e-10
-1.19735e-10
-1.84481e-10
-8.03083e-11
-1.42724e-10
-9.79522e-11
-1.05313e-10
-5.10082e-11
-7.29153e-11
-5.23444e-11
-4.56288e-11
-9.21376e-12
-2.38293e-11
-1.37719e-11
-7.50163e-12
4.48793e-11
3.63188e-12
1.6269e-11
9.69449e-12
1.22489e-10
1.10019e-11
1.03009e-10
7.85476e-12
1.42018e-10
1.41668e-12
9.16558e-11
-8.02362e-12
1.72214e-10
-1.98976e-11
1.36504e-10
-3.35218e-11
1.72399e-10
-4.80686e-11
1.47554e-10
-6.3294e-11
1.69447e-10
-7.80453e-11
1.39062e-10
-9.24364e-11
1.78839e-10
-1.05042e-10
1.33202e-10
-1.15884e-10
1.65912e-10
-1.23133e-10
9.63642e-11
-1.26634e-10
1.4239e-10
-1.23825e-10
5.92255e-11
-1.14331e-10
8.1864e-11
-9.40315e-11
-1.79819e-11
-6.26885e-11
1.24274e-12
-1.23789e-11
-1.35917e-10
5.32995e-11
-1.45523e-10
1.55383e-10
-3.32585e-10
2.75712e-10
-4.14625e-10
4.70438e-10
-7.41005e-10
6.91458e-10
-8.76305e-10
1.10975e-09
-1.61914e-09
1.55684e-09
-1.80303e-09
2.99099e-09
-6.07206e-09
4.08703e-09
-4.701e-09
-4.37255e-07
5.57947e-08
1.18957e-07
8.70802e-08
-1.29562e-07
1.18811e-07
3.01008e-09
1.38367e-07
-9.43462e-08
1.50184e-07
-5.52096e-08
1.34774e-07
7.75811e-08
1.05474e-07
1.40046e-07
9.21827e-08
5.77488e-08
8.01894e-08
5.35715e-08
6.74452e-08
5.78144e-08
5.70216e-08
4.61879e-08
4.74004e-08
4.29127e-08
3.95796e-08
3.4451e-08
3.24288e-08
3.15895e-08
2.68064e-08
2.46703e-08
2.17056e-08
2.2368e-08
1.74958e-08
1.84072e-08
1.39237e-08
1.56008e-08
1.0756e-08
1.38331e-08
8.24433e-09
1.09462e-08
6.04111e-09
9.6017e-09
4.16301e-09
8.17446e-09
2.65996e-09
6.5423e-09
1.36202e-09
5.64317e-09
3.10777e-10
4.58847e-09
-5.3023e-10
3.66829e-09
-1.22559e-09
3.04988e-09
-1.75495e-09
2.3143e-09
-2.16399e-09
1.7951e-09
-2.47421e-09
1.37194e-09
-2.68387e-09
9.43162e-10
-2.82551e-09
6.59271e-10
-2.90406e-09
3.84214e-10
-2.93144e-09
1.64908e-10
-2.91941e-09
-1.61844e-11
-2.87379e-09
-1.50326e-10
-2.80472e-09
-2.78851e-10
-2.7146e-09
-3.57723e-10
-2.61189e-09
-3.98815e-10
-2.49907e-09
-4.38037e-10
-2.37782e-09
-4.70472e-10
-2.25474e-09
-4.813e-10
-2.12794e-09
-4.89965e-10
-2.00187e-09
-4.99651e-10
-1.87809e-09
-4.7536e-10
-1.75679e-09
-4.84592e-10
-1.64261e-09
-4.24333e-10
-1.53304e-09
-4.26711e-10
-1.43074e-09
-3.66697e-10
-1.33398e-09
-3.38586e-10
-1.24245e-09
-3.10178e-10
-1.15531e-09
-2.69713e-10