/*--------------------------------*- C++ -*----------------------------------*\
| =========                 |                                                 |
| \\      /  F ield         | OpenFOAM: The Open Source CFD Toolbox           |
|  \\    /   O peration     | Version:  5.x                                   |
|   \\  /    A nd           | Web:      www.OpenFOAM.org                      |
|    \\/     M anipulation  |                                                 |
\*---------------------------------------------------------------------------*/
FoamFile
{
    version     2.0;
    format      ascii;
    class       surfaceScalarField;
    location    "1500";
    object      phi;
}
// * * * * * * * * * * * * * * * * * * * * * * * * * * * * * * * * * * * * * //

dimensions      [0 3 -1 0 0 0 0];

internalField   nonuniform List<scalar> 
215247
(
1.51478e-09
-6.62082e-08
-1.52865e-09
1.69423e-09
-1.79586e-10
2.17051e-09
-4.75869e-10
2.55061e-09
-3.80451e-10
2.39388e-09
1.56732e-10
1.94439e-09
4.4894e-10
1.85847e-09
8.56677e-11
1.73178e-09
1.2634e-10
1.56026e-09
1.71217e-10
1.41766e-09
1.42253e-10
1.27495e-09
1.4236e-10
1.15481e-09
1.19697e-10
1.03838e-09
1.15972e-10
9.43459e-10
9.44574e-11
8.52361e-10
9.07181e-11
7.72842e-10
7.92234e-11
7.01985e-10
7.053e-11
6.33996e-10
6.76386e-11
5.76772e-10
5.6924e-11
5.22428e-10
5.40364e-11
4.71271e-10
5.08442e-11
4.26736e-10
4.42403e-11
3.83718e-10
4.27888e-11
3.44085e-10
3.92887e-11
3.0837e-10
3.54402e-11
2.7375e-10
3.42386e-11
2.42468e-10
3.11545e-11
2.13509e-10
2.87221e-11
1.85589e-10
2.76515e-11
1.6093e-10
2.4424e-11
1.37667e-10
2.30202e-11
1.15769e-10
2.16647e-11
9.63618e-11
1.91747e-11
7.8186e-11
1.80322e-11
6.16999e-11
1.60904e-11
4.70716e-11
1.46627e-11
3.36368e-11
1.29243e-11
2.19572e-11
1.16942e-11
1.16418e-11
1.02049e-11
2.56822e-12
8.92003e-12
-5.03346e-12
7.4973e-12
-1.15571e-11
6.32475e-12
-1.69038e-11
5.16017e-12
-2.12141e-11
3.45214e-12
-2.46264e-11
3.78103e-12
-2.71426e-11
1.64219e-12
-2.8954e-11
2.09995e-12
-3.00916e-11
4.38146e-13
-3.06695e-11
1.04875e-12
-3.0753e-11
-2.37583e-14
-3.03973e-11
-3.34032e-13
-2.97051e-11
-1.67998e-12
-2.89917e-11
3.79815e-14
-2.81817e-11
-1.1192e-12
-2.73337e-11
-5.64116e-13
-2.64108e-11
-1.34127e-12
-2.54554e-11
-8.87155e-14
-2.45188e-11
-1.21945e-12
-2.35688e-11
-1.53676e-13
-2.26255e-11
-1.11466e-12
-2.17213e-11
5.8881e-14
-2.08703e-11
-1.29622e-12
-2.01026e-11
2.08538e-13
-1.94049e-11
-9.53529e-13
-1.87871e-11
3.81311e-13
-1.82121e-11
-9.79648e-13
-1.7646e-11
4.4772e-13
-1.70393e-11
-8.47565e-13
-1.63337e-11
4.05297e-13
-1.54902e-11
-1.29057e-12
-1.44687e-11
1.17168e-13
-1.32518e-11
-1.16889e-12
-1.18599e-11
-4.58843e-13
-1.03064e-11
-1.51964e-12
-8.68023e-12
-2.21475e-13
-7.02736e-12
-1.95963e-12
-5.4551e-12
-5.29689e-13
-4.03943e-12
-1.3364e-12
-2.84768e-12
-9.50787e-14
-1.95442e-12
-5.96232e-13
-1.379e-12
9.92235e-13
-1.16064e-12
1.05495e-13
-1.3023e-12
1.43206e-12
-1.80505e-12
9.75238e-13
-2.68551e-12
2.24627e-12
-3.92639e-12
1.7824e-12
-5.57267e-12
2.74227e-12
-7.58276e-12
2.61428e-12
-1.00234e-11
3.40828e-12
-1.27562e-11
3.43752e-12
-1.58536e-11
3.79515e-12
-1.89914e-11
3.92547e-12
-2.20856e-11
3.58577e-12
-2.46187e-11
3.09697e-12
-2.63408e-11
2.17732e-12
-2.61422e-11
1.00453e-13
-2.38988e-11
-9.61608e-13
-1.68204e-11
-7.1198e-12
-5.32249e-12
-1.10186e-11
2.47088e-11
-2.97277e-11
6.99587e-11
-4.49825e-11
-2.77393e-08
2.78096e-08
5.0161e-09
-6.62742e-08
-4.95023e-09
5.56592e-09
-7.29439e-10
7.12741e-09
-2.0372e-09
8.34855e-09
-1.60174e-09
7.85829e-09
6.46583e-10
6.42993e-09
1.87676e-09
6.11737e-09
3.97944e-10
5.71802e-09
5.2524e-10
5.15012e-09
7.38783e-10
4.68541e-09
6.06566e-10
4.21509e-09
6.12171e-10
3.82007e-09
5.14318e-10
3.43639e-09
4.99064e-10
3.12326e-09
4.06978e-10
2.8226e-09
3.9091e-10
2.56009e-09
3.41339e-10
2.32578e-09
3.04457e-10
2.10121e-09
2.91743e-10
1.91187e-09
2.45883e-10
1.73211e-09
2.33416e-10
1.56292e-09
2.19688e-10
1.41545e-09
1.91359e-10
1.27307e-09
1.84906e-10
1.14188e-09
1.7023e-10
1.02355e-09
1.53267e-10
9.08916e-10
1.48526e-10
8.05287e-10
1.34417e-10
7.09308e-10
1.24458e-10
6.16809e-10
1.1988e-10
5.35056e-10
1.05907e-10
4.57926e-10
9.98756e-11
3.85333e-10
9.39873e-11
3.20947e-10
8.328e-11
2.60654e-10
7.8141e-11
2.05954e-10
7.06332e-11
1.57389e-10
6.30157e-11
1.12794e-10
5.71854e-11
7.40037e-11
5.04838e-11
3.97317e-11
4.43443e-11
9.57816e-12
3.89538e-11
-1.56989e-11
3.26373e-11
-3.73984e-11
2.78493e-11
-5.51975e-11
2.27878e-11
-6.95583e-11
1.72528e-11
-8.0935e-11
1.53962e-11
-8.93445e-11
9.35296e-12
-9.54051e-11
8.49971e-12
-9.92359e-11
3.67941e-12
-1.01201e-10
3.48514e-12
-1.01526e-10
2.34463e-13
-1.00391e-10
-1.38705e-12
-9.81394e-11
-4.73167e-12
-9.57981e-11
-1.54172e-12
-9.31441e-11
-3.93837e-12
-9.03542e-11
-3.19727e-12
-8.73179e-11
-4.66607e-12
-8.41687e-11
-2.40771e-12
-8.10828e-11
-4.46382e-12
-7.79465e-11
-2.51739e-12
-7.48355e-11
-4.24673e-12
-7.18494e-11
-1.99178e-12
-6.90417e-11
-4.42541e-12
-6.65026e-11
-1.28236e-12
-6.42003e-11
-3.35837e-12
-6.2157e-11
-6.16743e-13
-6.02582e-11
-3.12502e-12
-5.83843e-11
-3.27979e-13
-5.63808e-11
-2.9157e-12
-5.40466e-11
-7.3915e-13
-5.12596e-11
-4.34596e-12
-4.78801e-11
-2.03022e-12
-4.3859e-11
-4.89063e-12
-3.92572e-11
-4.22258e-12
-3.41229e-11
-6.46445e-12
-2.87465e-11
-4.13503e-12
-2.32826e-11
-7.57431e-12
-1.80841e-11
-4.73369e-12
-1.34026e-11
-5.72656e-12
-9.46263e-12
-2.86648e-12
-6.50664e-12
-2.98352e-12
-4.60201e-12
5.73571e-13
-3.8781e-12
-7.96514e-14
-4.34473e-12
3.16961e-12
-6.00434e-12
3.34478e-12
-8.91339e-12
6.38695e-12
-1.3014e-11
6.55259e-12
-1.84549e-11
9.21359e-12
-2.50967e-11
1.0025e-11
-3.31633e-11
1.23069e-11
-4.21898e-11
1.32729e-11
-5.24245e-11
1.46466e-11
-6.27838e-11
1.52584e-11
-7.30093e-11
1.42239e-11
-8.13609e-11
1.19845e-11
-8.70642e-11
8.29503e-12
-8.63768e-11
-2.70281e-13
-7.90153e-11
-6.91445e-12
-5.55703e-11
-3.07607e-11
-1.77994e-11
-4.8456e-11
8.12332e-11
-1.28563e-10
2.00577e-10
-1.63987e-10
-5.73932e-08
2.98551e-08
9.27139e-09
-6.64783e-08
-9.06743e-09
1.02798e-08
-1.73806e-09
1.31458e-08
-4.90273e-09
1.53706e-08
-3.82699e-09
1.45057e-08
1.51155e-09
1.19274e-08
4.45434e-09
1.13212e-08
1.00386e-09
1.05976e-08
1.24845e-09
9.54921e-09
1.78679e-09
8.69362e-09
1.4617e-09
7.8245e-09
1.48089e-09
7.09398e-09
1.24423e-09
6.3839e-09
1.20856e-09
5.80358e-09
9.86732e-10
5.2463e-09
9.47719e-10
4.75951e-09
8.27743e-10
4.32458e-09
7.38972e-10
3.90793e-09
7.07965e-10
3.55628e-09
5.97153e-10
3.22245e-09
5.66864e-10
2.90827e-09
5.33444e-10
2.63419e-09
4.65061e-10
2.36968e-09
4.4909e-10
2.1259e-09
4.13512e-10
1.9059e-09
3.72966e-10
1.69283e-09
3.61085e-10
1.50017e-09
3.26974e-10
1.32166e-09
3.02626e-10
1.14967e-09
2.91497e-10
9.97591e-10
2.57661e-10
8.541e-10
2.43034e-10
7.1905e-10
2.28718e-10
5.99221e-10
2.02798e-10
4.87005e-10
1.90162e-10
3.85184e-10
1.71889e-10
2.94746e-10
1.53539e-10
2.11703e-10
1.39547e-10
1.39446e-10
1.22708e-10
7.55855e-11
1.08056e-10
1.93879e-11
9.49264e-11
-2.77419e-11
7.96183e-11
-6.8213e-11
6.80225e-11
-1.01429e-10
5.57285e-11
-1.28245e-10
4.29871e-11
-1.49503e-10
3.70295e-11
-1.65242e-10
2.39996e-11
-1.76599e-10
2.01022e-11
-1.83809e-10
1.00418e-11
-1.87538e-10
7.71964e-12
-1.88214e-10
7.42834e-13
-1.86168e-10
-3.42324e-12
-1.82041e-10
-1.00301e-11
-1.77726e-10
-5.07723e-12
-1.72832e-10
-9.23591e-12
-1.67675e-10
-7.98875e-12
-1.62062e-10
-1.07309e-11
-1.56232e-10
-7.21618e-12
-1.50519e-10
-1.04729e-11
-1.44707e-10
-7.37221e-12
-1.38945e-10
-1.0153e-11
-1.33409e-10
-6.34955e-12
-1.28207e-10
-1.0108e-11
-1.23496e-10
-4.85789e-12
-1.19228e-10
-7.87878e-12
-1.15436e-10
-3.20682e-12
-1.11914e-10
-7.08737e-12
-1.08434e-10
-2.62331e-12
-1.04716e-10
-6.86391e-12
-1.00382e-10
-3.74087e-12
-9.52107e-11
-1.00032e-11
-8.89371e-11
-6.97981e-12
-8.14775e-11
-1.22547e-11
-7.29401e-11
-1.15811e-11
-6.34179e-11
-1.58267e-11
-5.34461e-11
-1.23951e-11
-4.3313e-11
-1.80044e-11
-3.3672e-11
-1.31286e-11
-2.49898e-11
-1.42556e-11
-1.76836e-11
-8.8245e-12
-1.22004e-11
-7.99656e-12
-8.66741e-12
-9.84958e-13
-7.32443e-12
-9.46611e-13
-8.18992e-12
5.67594e-12
-1.12678e-11
7.08985e-12
-1.66638e-11
1.35504e-11
-2.42696e-11
1.49026e-11
-3.43605e-11
2.07403e-11
-4.66759e-11
2.31401e-11
-6.16323e-11
2.85755e-11
-7.83607e-11
3.08947e-11
-9.7327e-11
3.45946e-11
-1.16512e-10
3.53984e-11
-1.3545e-10
3.3897e-11
-1.50894e-10
2.82492e-11
-1.61445e-10
1.95205e-11
-1.60116e-10
-1.15936e-12
-1.46476e-10
-1.90625e-11
-1.02955e-10
-7.41038e-11
-3.31283e-11
-1.17535e-10
1.50064e-10
-3.11278e-10
3.60615e-10
-3.74165e-10
-8.90582e-08
3.20262e-08
1.44054e-08
-6.68496e-08
-1.40342e-08
1.59786e-08
-3.31129e-09
2.03913e-08
-9.31533e-09
2.38116e-08
-7.24744e-09
2.25331e-08
2.78956e-09
1.86074e-08
8.37943e-09
1.76374e-08
1.97353e-09
1.65232e-08
2.36215e-09
1.49015e-08
3.40806e-09
1.35733e-08
2.78949e-09
1.22235e-08
2.83015e-09
1.10862e-08
2.38108e-09
9.98062e-09
2.31346e-09
9.0756e-09
1.89106e-09
8.20644e-09
1.81637e-09
7.4467e-09
1.58704e-09
6.76742e-09
1.4178e-09
6.11678e-09
1.35807e-09
5.56721e-09
1.14628e-09
5.04547e-09
1.08817e-09
4.55444e-09
1.02408e-09
4.1258e-09
8.93295e-10
3.71219e-09
8.62392e-10
3.33095e-09
7.94498e-10
2.98673e-09
7.16609e-10
2.65342e-09
6.94036e-10
2.35195e-09
6.27992e-10
2.07256e-09
5.8174e-10
1.80339e-09
5.60375e-10
1.56531e-09
4.95446e-10
1.34065e-09
4.67392e-10
1.1292e-09
4.3986e-10
9.41511e-10
3.90172e-10
7.65739e-10
3.65713e-10
6.06225e-10
3.31308e-10
4.64496e-10
2.94978e-10
3.3435e-10
2.6943e-10
2.21075e-10
2.35948e-10
1.20935e-10
2.08046e-10
3.27925e-11
1.82954e-10
-4.11575e-11
1.53406e-10
-1.04679e-10
1.31365e-10
-1.56839e-10
1.07712e-10
-1.98977e-10
8.4714e-11
-2.32405e-10
7.05881e-11
-2.57187e-10
4.81982e-11
-2.75097e-10
3.82978e-11
-2.86511e-10
2.09641e-11
-2.92465e-10
1.40772e-11
-2.93631e-10
1.85003e-12
-2.9053e-10
-6.41728e-12
-2.84165e-10
-1.70315e-11
-2.77476e-10
-1.11194e-11
-2.6988e-10
-1.69311e-11
-2.61859e-10
-1.59122e-11
-2.53125e-10
-1.96295e-11
-2.44046e-10
-1.55402e-11
-2.35145e-10
-1.94226e-11
-2.26085e-10
-1.57133e-11
-2.17102e-10
-1.90298e-11
-2.0847e-10
-1.40937e-11
-2.00357e-10
-1.84072e-11
-1.93007e-10
-1.12038e-11
-1.8635e-10
-1.45018e-11
-1.8043e-10
-8.10993e-12
-1.74931e-10
-1.26878e-11
-1.69492e-10
-6.99986e-12
-1.63683e-10
-1.25838e-11
-1.5691e-10
-9.3439e-12
-1.48832e-10
-1.8186e-11
-1.39033e-10
-1.55903e-11
-1.27389e-10
-2.34597e-11
-1.14065e-10
-2.41136e-11
-9.92093e-11
-3.03284e-11
-8.36548e-11
-2.65156e-11
-6.78513e-11
-3.38202e-11
-5.28169e-11
-2.7246e-11
-3.92791e-11
-2.73494e-11
-2.78887e-11
-1.90453e-11
-1.93402e-11
-1.57871e-11
-1.38339e-11
-5.05581e-12
-1.17435e-11
-2.34981e-12
-1.30987e-11
8.29073e-12
-1.79051e-11
1.27536e-11
-2.63281e-11
2.31618e-11
-3.81974e-11
2.7534e-11
-5.39412e-11
3.75051e-11
-7.31492e-11
4.32034e-11
-9.64696e-11
5.27163e-11
-1.2254e-10
5.78161e-11
-1.52087e-10
6.47767e-11
-1.81954e-10
6.62821e-11
-2.1142e-10
6.38141e-11
-2.35408e-10
5.28067e-11
-2.51767e-10
3.63153e-11
-2.49577e-10
-2.98968e-12
-2.28227e-10
-3.90556e-11
-1.60279e-10
-1.42162e-10
-5.15539e-11
-2.25945e-10
2.33283e-10
-5.95933e-10
5.53732e-10
-6.94219e-10
-1.22833e-07
3.43287e-08
2.05608e-08
-6.74476e-08
-1.99631e-08
2.28214e-08
-5.57217e-09
2.90539e-08
-1.55474e-08
3.38885e-08
-1.20825e-08
3.2162e-08
4.51621e-09
2.66717e-08
1.38691e-08
2.52549e-08
3.38998e-09
2.36734e-08
3.9432e-09
2.13729e-08
5.70816e-09
1.9477e-08
4.68489e-09
1.75517e-08
4.75501e-09
1.59245e-08
4.00765e-09
1.43429e-08
3.89455e-09
1.30458e-08
3.18764e-09
1.17999e-08
3.0617e-09
1.07101e-08
2.67647e-09
9.73507e-09
2.39237e-09
8.80112e-09
2.29154e-09
8.01168e-09
1.93529e-09
7.26214e-09
1.83729e-09
6.5567e-09
1.72904e-09
5.94048e-09
1.50909e-09
5.34597e-09
1.4565e-09
4.79789e-09
1.34204e-09
4.30281e-09
1.2114e-09
3.82349e-09
1.17281e-09
3.38985e-09
1.06154e-09
2.98787e-09
9.83324e-10
2.60062e-09
9.47179e-10
2.25798e-09
8.37711e-10
1.93461e-09
7.90374e-10
1.63026e-09
7.43834e-10
1.36001e-09
6.60067e-10
1.10691e-09
6.18575e-10
8.7718e-10
5.60436e-10
6.72994e-10
4.99225e-10
4.85487e-10
4.56219e-10
3.22238e-10
3.99056e-10
1.7788e-10
3.52229e-10
5.07914e-11
3.09781e-10
-5.58772e-11
2.59887e-10
-1.47532e-10
2.22669e-10
-2.22831e-10
1.82687e-10
-2.83701e-10
1.44582e-10
-3.32023e-10
1.19042e-10
-3.67893e-10
8.30219e-11
-3.93861e-10
6.43079e-11
-4.10471e-10
3.67909e-11
-4.19208e-10
2.31619e-11
-4.21047e-10
3.486e-12
-4.16734e-10
-1.07293e-11
-4.07715e-10
-2.70593e-11
-3.98189e-10
-2.01468e-11
-3.87352e-10
-2.81513e-11
-3.75891e-10
-2.70493e-11
-3.63402e-10
-3.24101e-11
-3.50407e-10
-2.76584e-11
-3.37662e-10
-3.23295e-11
-3.24684e-10
-2.78261e-11
-3.11815e-10
-3.18731e-11
-2.99447e-10
-2.53516e-11
-2.87822e-10
-3.03618e-11
-2.77285e-10
-2.07541e-11
-2.67741e-10
-2.41485e-11
-2.59247e-10
-1.54841e-11
-2.51354e-10
-2.08836e-11
-2.43541e-10
-1.37735e-11
-2.35195e-10
-2.10025e-11
-2.25464e-10
-1.78339e-11
-2.13863e-10
-3.01204e-11
-1.99797e-10
-2.84943e-11
-1.83092e-10
-3.99229e-11
-1.63985e-10
-4.20615e-11
-1.42692e-10
-5.12334e-11
-1.20404e-10
-4.71586e-11
-9.77648e-11
-5.65599e-11
-7.62323e-11
-4.76466e-11
-5.68468e-11
-4.64432e-11
-4.05398e-11
-3.40613e-11
-2.83044e-11
-2.72995e-11
-2.04279e-11
-1.09879e-11
-1.74458e-11
-4.67196e-12
-1.94017e-11
1.19193e-11
-2.63036e-11
2.05353e-11
-3.83886e-11
3.70547e-11
-5.54104e-11
4.54584e-11
-7.79797e-11
6.16002e-11
-1.05503e-10
7.16705e-11
-1.38903e-10
8.75721e-11
-1.76219e-10
9.60737e-11
-2.18485e-10
1.08191e-10
-2.61172e-10
1.0994e-10
-3.03246e-10
1.06819e-10
-3.37427e-10
8.79534e-11
-3.60654e-10
6.03375e-11
-3.57281e-10
-5.76758e-12
-3.26485e-10
-6.84983e-11
-2.28976e-10
-2.39128e-10
-7.33407e-11
-3.80681e-10
3.33431e-10
-1.00213e-09
7.85447e-10
-1.14576e-09
-1.58813e-07
3.67666e-08
2.78955e-08
-6.8353e-08
-2.69903e-08
3.0989e-08
-8.66574e-09
3.93481e-08
-2.39065e-08
4.58451e-08
-1.85794e-08
4.36442e-08
6.71627e-09
3.63528e-08
2.11599e-08
3.43913e-08
5.35107e-09
3.22542e-08
6.07965e-09
2.91552e-08
8.80672e-09
2.65817e-08
7.25786e-09
2.39717e-08
7.36434e-09
2.17579e-08
6.22103e-09
1.96063e-08
6.04531e-09
1.78383e-08
4.95486e-09
1.61401e-08
4.75934e-09
1.46532e-08
4.16287e-09
1.3322e-08
3.72302e-09
1.20469e-08
3.56605e-09
1.09682e-08
3.01341e-09
9.94394e-09
2.86103e-09
8.97987e-09
2.69264e-09
8.13717e-09
2.3513e-09
7.32428e-09
2.26902e-09
6.57473e-09
2.0913e-09
5.89735e-09
1.88813e-09
5.24164e-09
1.82814e-09
4.64826e-09
1.65437e-09
4.09803e-09
1.53324e-09
3.56803e-09
1.47686e-09
3.09889e-09
1.3065e-09
2.65611e-09
1.23281e-09
2.23935e-09
1.16024e-09
1.86916e-09
1.0299e-09
1.52243e-09
9.65039e-10
1.20766e-09
8.75154e-10
9.27807e-10
7.7871e-10
6.70791e-10
7.13043e-10
4.46962e-10
6.22799e-10
2.4898e-10
5.50035e-10
7.4646e-11
4.84006e-10
-7.17364e-11
4.06072e-10
-1.97557e-10
3.48309e-10
-3.00974e-10
2.85921e-10
-3.84629e-10
2.27984e-10
-4.51088e-10
1.85512e-10
-5.00487e-10
1.31969e-10
-5.36309e-10
1.00346e-10
-5.59306e-10
5.94076e-11
-5.71508e-10
3.56836e-11
-5.74252e-10
6.17799e-12
-5.68561e-10
-1.62867e-11
-5.56413e-10
-3.96564e-11
-5.43518e-10
-3.25389e-11
-5.28817e-10
-4.28806e-11
-5.13242e-10
-4.25839e-11
-4.96258e-10
-4.94139e-11
-4.78573e-10
-4.46759e-11
-4.61217e-10
-4.96056e-11
-4.43539e-10
-4.48463e-11
-4.26009e-10
-4.91468e-11
-4.09156e-10
-4.13686e-11
-3.93316e-10
-4.62258e-11
-3.78952e-10
-3.41707e-11
-3.65941e-10
-3.69617e-11
-3.54351e-10
-2.60876e-11
-3.43574e-10
-3.15889e-11
-3.32896e-10
-2.34345e-11
-3.21487e-10
-3.21359e-11
-3.08185e-10
-2.9987e-11
-2.92337e-10
-4.58771e-11
-2.73131e-10
-4.65691e-11
-2.5034e-10
-6.21166e-11
-2.24286e-10
-6.7368e-11
-1.95269e-10
-7.96971e-11
-1.64908e-10
-7.61139e-11
-1.34082e-10
-8.72343e-11
-1.0477e-10
-7.61288e-11
-7.83886e-11
-7.21995e-11
-5.62038e-11
-5.50666e-11
-3.95646e-11
-4.29631e-11
-2.8863e-11
-2.03049e-11
-2.48276e-11
-7.84483e-12
-2.752e-11
1.58658e-11
-3.69504e-11
3.09893e-11
-5.34423e-11
5.46945e-11
-7.6656e-11
6.95435e-11
-1.07419e-10
9.33792e-11
-1.44913e-10
1.10118e-10
-1.90385e-10
1.33862e-10
-2.4115e-10
1.4774e-10
-2.98601e-10
1.66306e-10
-3.56562e-10
1.68962e-10
-4.13616e-10
1.64378e-10
-4.59846e-10
1.34789e-10
-4.91101e-10
9.20513e-11
-4.86093e-10
-1.03591e-11
-4.43746e-10
-1.09558e-10
-3.1063e-10
-3.72238e-10
-9.87236e-11
-5.92295e-10
4.53463e-10
-1.55415e-09
1.06223e-09
-1.75407e-09
-1.97094e-07
3.9344e-08
3.6588e-08
-6.96676e-08
-3.52737e-08
4.06866e-08
-1.27647e-08
5.15144e-08
-3.47339e-08
5.9954e-08
-2.70195e-08
5.72649e-08
9.40547e-09
4.79177e-08
3.05064e-08
4.52969e-08
7.97148e-09
4.25028e-08
8.87337e-09
3.84705e-08
1.28386e-08
3.50925e-08
1.06353e-08
3.16722e-08
1.07842e-08
2.87594e-08
9.1332e-09
2.59291e-08
8.87504e-09
2.35983e-08
7.2851e-09
2.13593e-08
6.99787e-09
1.93969e-08
6.12478e-09
1.76388e-08
5.48056e-09
1.59546e-08
5.24984e-09
1.45288e-08
4.43877e-09
1.31746e-08
4.21475e-09
1.19e-08
3.96673e-09
1.0785e-08
3.46582e-09
9.70966e-09
3.3439e-09
8.71788e-09
3.08247e-09
7.82115e-09
2.78456e-09
6.95324e-09
2.69546e-09
6.16762e-09
2.43989e-09
5.43891e-09
2.26147e-09
4.73703e-09
2.17823e-09
4.11554e-09
1.92754e-09
3.52889e-09
1.81903e-09
2.9767e-09
1.712e-09
2.48602e-09
1.52018e-09
2.02641e-09
1.42435e-09
1.6091e-09
1.29182e-09
1.23795e-09
1.14989e-09
8.97059e-10
1.05317e-09
6.00105e-10
9.19508e-10
3.37364e-10
8.12578e-10
1.05956e-10
7.15105e-10
-8.84293e-11
6.00209e-10
-2.55566e-10
5.14999e-10
-3.93011e-10
4.22965e-10
-5.04264e-10
3.38302e-10
-5.92718e-10
2.73883e-10
-6.58552e-10
1.9679e-10
-7.06377e-10
1.48043e-10
-7.37192e-10
8.94893e-11
-7.53687e-10
5.23921e-11
-7.57634e-10
9.87619e-12
-7.50391e-10
-2.3552e-11
-7.34577e-10
-5.63489e-11
-7.17699e-10
-4.91652e-11
-6.98414e-10
-6.25227e-11
-6.77948e-10
-6.27537e-11
-6.5561e-10
-7.18977e-11
-6.3233e-10
-6.71892e-11
-6.09472e-10
-7.2501e-11
-5.86183e-10
-6.73314e-11
-5.63087e-10
-7.20529e-11
-5.40879e-10
-6.24989e-11
-5.20005e-10
-6.72862e-11
-5.0107e-10
-5.22216e-11
-4.83912e-10
-5.40694e-11
-4.68615e-10
-4.03022e-11
-4.54379e-10
-4.59891e-11
-4.40259e-10
-3.66104e-11
-4.25168e-10
-4.71348e-11
-4.07574e-10
-4.63793e-11
-3.86624e-10
-6.70076e-11
-3.61257e-10
-7.08871e-11
-3.3118e-10
-9.18012e-11
-2.96822e-10
-1.0056e-10
-2.58586e-10
-1.17313e-10
-2.18599e-10
-1.14461e-10
-1.78018e-10
-1.27729e-10
-1.39447e-10
-1.13647e-10
-1.04744e-10
-1.06446e-10
-7.55736e-11
-8.29461e-11
-5.37071e-11
-6.38468e-11
-3.96603e-11
-3.23954e-11
-3.43918e-11
-1.2254e-11
-3.79859e-11
2.11998e-11
-5.04552e-11
4.45585e-11
-7.22255e-11
7.8338e-11
-1.02844e-10
1.01234e-10
-1.43392e-10
1.3556e-10
-1.92779e-10
1.60607e-10
-2.52628e-10
1.95316e-10
-3.19383e-10
2.1551e-10
-3.94856e-10
2.43091e-10
-4.70897e-10
2.46022e-10
-5.45628e-10
2.40228e-10
-6.05983e-10
1.96311e-10
-6.46525e-10
1.33574e-10
-6.39257e-10
-1.68835e-11
-5.82811e-10
-1.64738e-10
-4.06976e-10
-5.47212e-10
-1.2789e-10
-8.70259e-10
5.96807e-10
-2.27811e-09
1.39144e-09
-2.54814e-09
-2.37766e-07
4.20644e-08
4.68397e-08
-7.15185e-08
-4.49891e-08
5.21452e-08
-1.80703e-08
6.58216e-08
-4.84105e-08
7.65193e-08
-3.77172e-08
7.33453e-08
1.25784e-08
6.16718e-08
4.21792e-08
5.82585e-08
1.13843e-08
5.46913e-08
1.24397e-08
4.95746e-08
1.79548e-08
4.52466e-08
1.49626e-08
4.08721e-08
1.5158e-08
3.71304e-08
1.28744e-08
3.34952e-08
1.25092e-08
3.04947e-08
1.02847e-08
2.76117e-08
9.8801e-09
2.50824e-08
8.65346e-09
2.28148e-08
7.74752e-09
2.0642e-08
7.42186e-09
1.88011e-08
6.27901e-09
1.70524e-08
5.96281e-09
1.54062e-08
5.61233e-09
1.39652e-08
4.90625e-09
1.25755e-08
4.73311e-09
1.12936e-08
4.36403e-09
1.01339e-08
3.9435e-09
9.01169e-09
3.81724e-09
7.99555e-09
3.45536e-09
7.05274e-09
3.20392e-09
6.1447e-09
3.08589e-09
5.34036e-09
2.73148e-09
4.58099e-09
2.57799e-09
3.86623e-09
2.42635e-09
3.23083e-09
2.15516e-09
2.63561e-09
2.01924e-09
2.09509e-09
1.83232e-09
1.61418e-09
1.63035e-09
1.17245e-09
1.49476e-09
7.87531e-10
1.30429e-09
4.46861e-10
1.15304e-09
1.46753e-10
1.0151e-09
-1.05452e-10
8.52167e-10
-3.22376e-10
7.31736e-10
-5.00856e-10
6.01249e-10
-6.45423e-10
4.82733e-10
-7.60456e-10
3.88846e-10
-8.46188e-10
2.82173e-10
-9.08585e-10
2.10611e-10
-9.48939e-10
1.29552e-10
-9.70733e-10
7.44445e-11
-9.76267e-10
1.53608e-11
-9.67298e-10
-3.23618e-11
-9.47212e-10
-7.67412e-11
-9.2565e-10
-7.03362e-11
-9.0095e-10
-8.71955e-11
-8.74689e-10
-8.89989e-11
-8.46004e-10
-1.0048e-10
-8.16083e-10
-9.64892e-11
-7.86682e-10
-1.0171e-10
-7.56723e-10
-9.66573e-11
-7.2701e-10
-1.01371e-10
-6.98434e-10
-9.02521e-11
-6.71574e-10
-9.40186e-11
-6.47201e-10
-7.56627e-11
-6.25106e-10
-7.58061e-11
-6.05389e-10
-5.90207e-11
-5.8702e-10
-6.41202e-11
-5.68781e-10
-5.38329e-11
-5.49276e-10
-6.61783e-11
-5.2654e-10
-6.79396e-11
-4.99489e-10
-9.3776e-11
-4.66763e-10
-1.02496e-10
-4.28001e-10
-1.29818e-10
-3.83761e-10
-1.44055e-10
-3.34569e-10
-1.65749e-10
-2.83158e-10
-1.64437e-10
-2.31013e-10
-1.79571e-10
-1.81476e-10
-1.62401e-10
-1.36925e-10
-1.50182e-10
-9.94952e-11
-1.19125e-10
-7.14574e-11
-9.06972e-11
-5.34729e-11
-4.89861e-11
-4.67725e-11
-1.79099e-11
-5.14689e-11
2.71903e-11
-6.75768e-11
6.1852e-11
-9.56437e-11
1.0756e-10
-1.35079e-10
1.41658e-10
-1.87261e-10
1.88784e-10
-2.50766e-10
2.25169e-10
-3.27653e-10
2.73045e-10
-4.13325e-10
3.02155e-10
-5.10067e-10
3.40534e-10
-6.07387e-10
3.44465e-10
-7.02844e-10
3.36248e-10
-7.79639e-10
2.73767e-10
-8.30813e-10
1.85245e-10
-8.20437e-10
-2.67925e-11
-7.46815e-10
-2.37104e-10
-5.19914e-10
-7.74008e-10
-1.60956e-10
-1.22894e-09
7.67434e-10
-3.20636e-09
1.78149e-09
-3.56166e-09
-2.80915e-07
4.4931e-08
5.88759e-08
-7.40642e-08
-5.63305e-08
6.56246e-08
-2.48195e-08
8.25688e-08
-6.53543e-08
9.58777e-08
-5.10264e-08
9.22464e-08
1.62098e-08
7.7964e-08
5.6461e-08
7.36046e-08
1.57434e-08
6.91321e-08
1.69117e-08
6.27626e-08
2.43238e-08
5.7318e-08
2.04067e-08
5.18249e-08
2.06508e-08
4.71042e-08
1.75944e-08
4.25186e-08
1.70944e-08
3.87241e-08
1.40787e-08
3.50776e-08
1.35261e-08
3.18747e-08
1.18559e-08
2.90009e-08
1.06207e-08
2.62467e-08
1.01756e-08
2.39112e-08
8.61399e-09
2.16922e-08
8.18134e-09
1.96031e-08
7.70082e-09
1.77728e-08
6.73599e-09
1.6008e-08
6.49735e-09
1.43797e-08
5.99173e-09
1.29058e-08
5.41705e-09
1.14798e-08
5.24271e-09
1.01881e-08
4.7469e-09
8.98928e-09
4.40222e-09
7.83473e-09
4.23984e-09
6.81162e-09
3.75406e-09
5.84558e-09
3.54352e-09
4.93625e-09
3.33517e-09
4.12756e-09
2.96339e-09
3.36994e-09
2.7765e-09
2.68181e-09
2.51975e-09
2.06936e-09
2.24277e-09
1.50674e-09
2.05654e-09
1.01634e-09
1.79433e-09
5.82173e-10
1.58697e-09
1.99613e-10
1.39731e-09
-1.22027e-10
1.17348e-09
-3.98772e-10
1.00795e-09
-6.26592e-10
8.28595e-10
-8.11257e-10
6.66502e-10
-9.58319e-10
5.35561e-10
-1.06807e-09
3.90904e-10
-1.14811e-09
2.90337e-10
-1.20007e-09
1.80785e-10
-1.2284e-09
1.02851e-10
-1.236e-09
2.26718e-11
-1.22514e-09
-4.32641e-11
-1.2001e-09
-1.02564e-10
-1.17306e-09
-9.73595e-11
-1.14199e-09
-1.18614e-10
-1.1089e-09
-1.2184e-10
-1.07271e-09
-1.36683e-10
-1.03494e-09
-1.33602e-10
-9.97792e-10
-1.38778e-10
-9.59933e-10
-1.33756e-10
-9.22382e-10
-1.38542e-10
-8.86264e-10
-1.25282e-10
-8.52313e-10
-1.28054e-10
-8.21494e-10
-1.05677e-10
-7.93543e-10
-1.0355e-10
-7.68573e-10
-8.29019e-11
-7.45284e-10
-8.74839e-11
-7.22127e-10
-7.61186e-11
-6.9735e-10
-9.06978e-11
-6.68475e-10
-9.56032e-11
-6.34149e-10
-1.28178e-10
-5.92666e-10
-1.43009e-10
-5.43589e-10
-1.78313e-10
-4.87633e-10
-1.98789e-10
-4.25475e-10
-2.27035e-10
-3.60563e-10
-2.27674e-10
-2.94768e-10
-2.45082e-10
-2.323e-10
-2.23851e-10
-1.76148e-10
-2.05742e-10
-1.28999e-10
-1.64949e-10
-9.37107e-11
-1.2471e-10
-7.11153e-11
-6.95538e-11
-6.27645e-11
-2.51617e-11
-6.88057e-11
3.51108e-11
-8.92562e-11
8.36796e-11
-1.24807e-10
1.45109e-10
-1.74699e-10
1.92838e-10
-2.40657e-10
2.5655e-10
-3.20851e-10
3.06719e-10
-4.17842e-10
3.71877e-10
-5.25785e-10
4.11224e-10
-6.47509e-10
4.63796e-10
-7.6974e-10
4.67849e-10
-8.89358e-10
4.57243e-10
-9.85152e-10
3.70932e-10
-1.04838e-09
2.49638e-10
-1.03377e-09
-4.04214e-11
-9.39258e-10
-3.30372e-10
-6.51508e-10
-1.06051e-09
-1.97943e-10
-1.68117e-09
9.69929e-10
-4.37334e-09
2.24196e-09
-4.83297e-09
-3.26618e-07
4.79462e-08
7.29481e-08
-7.75019e-08
-6.9511e-08
8.14154e-08
-3.32869e-08
1.02087e-07
-8.60262e-08
1.18401e-07
-6.73404e-08
1.14372e-07
2.02376e-08
9.71909e-08
7.36408e-08
9.17099e-08
2.12239e-08
8.61821e-08
2.24383e-08
7.83734e-08
3.21318e-08
7.16223e-08
2.71569e-08
6.48238e-08
2.74485e-08
5.89518e-08
2.34657e-08
5.3248e-08
2.27969e-08
4.85157e-08
1.88099e-08
4.39667e-08
1.80742e-08
3.99661e-08
1.58557e-08
3.63736e-08
1.42125e-08
3.29297e-08
1.36185e-08
3.00066e-08
1.15362e-08
2.72287e-08
1.09585e-08
2.4613e-08
1.03158e-08
2.23196e-08
9.02868e-09
2.01084e-08
8.70797e-09
1.80676e-08
8.03199e-09
1.62194e-08
7.26445e-09
1.44314e-08
7.03018e-09
1.28114e-08
6.36612e-09
1.13072e-08
5.90595e-09
9.85869e-09
5.68789e-09
8.57456e-09
5.03771e-09
7.36185e-09
4.75575e-09
6.22031e-09
4.47623e-09
5.20466e-09
3.97856e-09
4.25305e-09
3.7277e-09
3.38858e-09
3.3842e-09
2.61886e-09
3.01197e-09
1.91171e-09
2.76357e-09
1.29513e-09
2.41073e-09
7.49077e-10
2.13277e-09
2.67811e-10
1.87847e-09
-1.37007e-10
1.57799e-09
-4.85452e-10
1.3562e-09
-7.72456e-10
1.1154e-09
-1.00527e-09
8.99253e-10
-1.19084e-09
7.21003e-10
-1.32953e-09
5.29321e-10
-1.43088e-09
3.91827e-10
-1.49694e-09
2.46615e-10
-1.53328e-09
1.3941e-10
-1.54359e-09
3.29292e-11
-1.53068e-09
-5.59834e-11
-1.49994e-09
-1.3351e-10
-1.46651e-09
-1.30496e-10
-1.42798e-09
-1.57065e-10
-1.38686e-09
-1.62942e-10
-1.34185e-09
-1.81486e-10
-1.29481e-09
-1.8003e-10
-1.24853e-09
-1.84771e-10
-1.20135e-09
-1.80296e-10
-1.15455e-09
-1.84815e-10
-1.10953e-09
-1.69456e-10
-1.06721e-09
-1.70109e-10
-1.02877e-09
-1.43156e-10
-9.93899e-10
-1.37908e-10
-9.62706e-10
-1.13043e-10
-9.33572e-10
-1.16224e-10
-9.04566e-10
-1.04067e-10
-8.73509e-10
-1.21106e-10
-8.37323e-10
-1.30539e-10
-7.94347e-10
-1.70689e-10
-7.42477e-10
-1.93737e-10
-6.8119e-10
-2.38709e-10
-6.11394e-10
-2.67801e-10
-5.33947e-10
-3.03514e-10
-4.53137e-10
-3.06961e-10
-3.71293e-10
-3.26481e-10
-2.93637e-10
-3.00732e-10
-2.23875e-10
-2.74485e-10
-1.65337e-10
-2.22107e-10
-1.21568e-10
-1.67076e-10
-9.35993e-11
-9.60604e-11
-8.3359e-11
-3.41618e-11
-9.10382e-11
4.41739e-11
-1.16655e-10
1.10653e-10
-1.6107e-10
1.90736e-10
-2.23321e-10
2.56212e-10
-3.0553e-10
3.39864e-10
-4.05376e-10
4.07746e-10
-5.25994e-10
4.93395e-10
-6.6005e-10
5.46352e-10
-8.10982e-10
6.1549e-10
-9.62234e-10
6.20311e-10
-1.10987e-09
6.05516e-10
-1.22747e-09
4.89264e-10
-1.30423e-09
3.26932e-10
-1.2839e-09
-6.02256e-11
-1.16403e-09
-4.48977e-10
-8.0399e-10
-1.42036e-09
-2.38744e-10
-2.24614e-09
1.20957e-09
-5.82154e-09
2.78379e-09
-6.4066e-09
-3.74945e-07
5.11118e-08
8.93348e-08
-8.20728e-08
-8.47641e-08
9.98412e-08
-4.37939e-08
1.24741e-07
-1.10925e-07
1.44496e-07
-8.70959e-08
1.4017e-07
2.4564e-08
1.19802e-07
9.40082e-08
1.13001e-07
2.8024e-08
1.06249e-07
2.91906e-08
9.6796e-08
4.15844e-08
8.85234e-08
3.54289e-08
8.02078e-08
3.57639e-08
7.29867e-08
3.06863e-08
6.59721e-08
2.98109e-08
6.01358e-08
2.46458e-08
5.45235e-08
2.36859e-08
4.95812e-08
2.07973e-08
4.51389e-08
1.86542e-08
4.08791e-08
1.78778e-08
3.72601e-08
1.51547e-08
3.38197e-08
1.43985e-08
3.05797e-08
1.3555e-08
2.77364e-08
1.18716e-08
2.49953e-08
1.14484e-08
2.24648e-08
1.05617e-08
2.01716e-08
9.55729e-09
1.79535e-08
9.24771e-09
1.5943e-08
8.37643e-09
1.40756e-08
7.77277e-09
1.22774e-08
7.48539e-09
1.06826e-08
6.63197e-09
9.17621e-09
6.26158e-09
7.75814e-09
5.89372e-09
6.4959e-09
5.24032e-09
5.31311e-09
4.91004e-09
4.23841e-09
4.45815e-09
3.28112e-09
3.96916e-09
2.40154e-09
3.64221e-09
1.63436e-09
3.17744e-09
9.54689e-10
2.81217e-09
3.55509e-10
2.47726e-09
-1.48744e-10
2.08178e-09
-5.82951e-10
1.78973e-09
-9.40804e-10
1.47268e-09
-1.23132e-09
1.18886e-09
-1.46309e-09
9.52222e-10
-1.63658e-09
7.01748e-10
-1.76363e-09
5.18425e-10
-1.84679e-09
3.29016e-10
-1.89298e-09
1.85597e-10
-1.90679e-09
4.63738e-11
-1.89172e-09
-7.11138e-11
-1.85445e-09
-1.71543e-10
-1.8136e-09
-1.71501e-10
-1.76638e-09
-2.04634e-10
-1.71586e-09
-2.13215e-10
-1.66049e-09
-2.36772e-10
-1.60258e-09
-2.37325e-10
-1.54555e-09
-2.41632e-10
-1.4874e-09
-2.37679e-10
-1.42971e-09
-2.41952e-10
-1.37422e-09
-2.23808e-10
-1.32204e-09
-2.2228e-10
-1.27465e-09
-1.89763e-10
-1.23161e-09
-1.80591e-10
-1.19306e-09
-1.50432e-10
-1.15701e-09
-1.52267e-10
-1.12106e-09
-1.39149e-10
-1.08254e-09
-1.59209e-10
-1.03767e-09
-1.74118e-10
-9.84441e-10
-2.23897e-10
-9.20281e-10
-2.56941e-10
-8.44584e-10
-3.13649e-10
-7.58491e-10
-3.52575e-10
-6.63073e-10
-3.978e-10
-5.6361e-10
-4.04628e-10
-4.62961e-10
-4.26671e-10
-3.67533e-10
-3.95117e-10
-2.81863e-10
-3.59397e-10
-2.10029e-10
-2.92495e-10
-1.5638e-10
-2.19167e-10
-1.22176e-10
-1.28092e-10
-1.09787e-10
-4.52064e-11
-1.19457e-10
5.59159e-11
-1.51204e-10
1.44049e-10
-2.06086e-10
2.47794e-10
-2.82896e-10
3.34534e-10
-3.84212e-10
4.43196e-10
-5.07119e-10
5.3227e-10
-6.55398e-10
6.4377e-10
-8.1995e-10
7.12171e-10
-1.00489e-09
8.02202e-10
-1.1898e-09
8.06531e-10
-1.36975e-09
7.87097e-10
-1.51224e-09
6.33389e-10
-1.60403e-09
4.20141e-10
-1.57606e-09
-8.69888e-11
-1.42546e-09
-5.98297e-10
-9.79757e-10
-1.86448e-09
-2.83086e-10
-2.94119e-09
1.49244e-09
-7.59596e-09
3.41942e-09
-8.33273e-09
-4.25954e-07
5.4429e-08
1.08343e-07
-8.80729e-08
-1.02344e-07
1.2126e-07
-5.6711e-08
1.50929e-07
-1.40594e-07
1.74607e-07
-1.10774e-07
1.70137e-07
2.90326e-08
1.46303e-07
1.1784e-07
1.37964e-07
3.63631e-08
1.29796e-07
3.73567e-08
1.18475e-07
5.29042e-08
1.08439e-07
4.5464e-08
9.83677e-08
4.58343e-08
8.95716e-08
3.94813e-08
8.10258e-08
3.83553e-08
7.38937e-08
3.17766e-08
6.70324e-08
3.05462e-08
6.09815e-08
2.68471e-08
5.55373e-08
2.40975e-08
5.03149e-08
2.3099e-08
4.58734e-08
1.95952e-08
4.16497e-08
1.86212e-08
3.76714e-08
1.75323e-08
3.41769e-08
1.53652e-08
3.08082e-08
1.48163e-08
2.76976e-08
1.36717e-08
2.48766e-08
1.23772e-08
2.21484e-08
1.19752e-08
1.96748e-08
1.08491e-08
1.73761e-08
1.00709e-08
1.51629e-08
9.69809e-09
1.31989e-08
8.59532e-09
1.13436e-08
8.11637e-09
9.59693e-09
7.63979e-09
8.04141e-09
6.79526e-09
6.58367e-09
6.36729e-09
5.25884e-09
5.78291e-09
4.07823e-09
5.14919e-09
2.99334e-09
4.72697e-09
2.04673e-09
4.12382e-09
1.20779e-09
3.65079e-09
4.67995e-10
3.21693e-09
-1.54924e-10
2.70431e-09
-6.9154e-10
2.32614e-09
-1.13407e-09
1.91499e-09
-1.49362e-09
1.54839e-09
-1.78076e-09
1.23921e-09
-1.99605e-09
9.16801e-10
-2.15405e-09
6.76562e-10
-2.25791e-09
4.32694e-10