/*--------------------------------*- C++ -*----------------------------------*\
| =========                 |                                                 |
| \\      /  F ield         | OpenFOAM: The Open Source CFD Toolbox           |
|  \\    /   O peration     | Version:  5.x                                   |
|   \\  /    A nd           | Web:      www.OpenFOAM.org                      |
|    \\/     M anipulation  |                                                 |
\*---------------------------------------------------------------------------*/
FoamFile
{
    version     2.0;
    format      ascii;
    class       surfaceScalarField;
    location    "1500";
    object      phi;
}
// * * * * * * * * * * * * * * * * * * * * * * * * * * * * * * * * * * * * * //

dimensions      [0 3 -1 0 0 0 0];

internalField   nonuniform List<scalar> 
215247
(
1.98878e-11
-5.80814e-12
-2.19955e-11
1.90128e-11
8.74947e-13
2.24386e-11
-3.42618e-12
2.58124e-11
-3.37338e-12
2.48436e-11
9.69321e-13
2.04361e-11
4.40697e-12
1.91004e-11
1.33566e-12
1.7634e-11
1.46635e-12
1.59859e-11
1.6481e-12
1.45585e-11
1.42736e-12
1.32031e-11
1.35547e-12
1.20702e-11
1.13277e-12
1.09832e-11
1.08695e-12
1.01102e-11
8.73031e-13
9.27116e-12
8.39007e-13
8.55343e-12
7.17733e-13
7.90983e-12
6.43569e-13
7.30363e-12
6.06182e-13
6.79388e-12
5.09721e-13
6.3129e-12
4.80968e-13
5.86662e-12
4.46246e-13
5.47831e-12
3.88292e-13
5.10691e-12
3.71372e-13
4.76812e-12
3.38705e-13
4.46295e-12
3.05213e-13
4.16968e-12
2.93176e-13
3.90544e-12
2.64312e-13
3.66045e-12
2.44967e-13
3.42449e-12
2.35938e-13
3.21488e-12
2.09584e-13
3.01533e-12
1.99536e-13
2.82526e-12
1.90038e-13
2.6534e-12
1.71847e-13
2.48864e-12
1.64744e-13
2.33452e-12
1.54016e-13
2.19236e-12
1.42214e-13
2.0556e-12
1.36658e-13
1.92967e-12
1.25965e-13
1.81072e-12
1.18929e-13
1.69732e-12
1.13387e-13
1.59289e-12
1.04383e-13
1.49289e-12
9.99677e-14
1.39937e-12
9.34899e-14
1.31137e-12
8.78728e-14
1.22761e-12
8.37865e-14
1.14985e-12
7.75878e-14
1.07559e-12
7.43277e-14
1.00614e-12
6.9275e-14
9.40402e-13
6.58328e-14
8.78358e-13
6.20021e-14
8.20032e-13
5.83186e-14
7.64702e-13
5.51793e-14
7.21571e-13
4.31661e-14
6.82269e-13
3.9157e-14
6.47093e-13
3.52693e-14
6.13727e-13
3.32615e-14
5.83697e-13
3.01188e-14
5.56881e-13
2.67121e-14
5.31838e-13
2.51286e-14
5.08708e-13
2.30513e-14
4.87169e-13
2.16345e-14
4.67118e-13
1.99444e-14
4.48509e-13
1.8692e-14
4.31019e-13
1.73944e-14
4.14795e-13
1.63143e-14
3.99574e-13
1.5122e-14
3.85329e-13
1.43203e-14
3.72062e-13
1.31818e-14
3.59542e-13
1.26007e-14
3.47949e-13
1.15077e-14
3.37112e-13
1.08967e-14
3.27073e-13
9.96672e-15
3.17917e-13
9.21077e-15
3.09519e-13
8.33484e-15
3.02153e-13
7.45451e-15
2.95757e-13
6.32234e-15
2.90591e-13
5.19798e-15
2.86851e-13
3.67354e-15
2.84757e-13
2.15524e-15
2.84751e-13
-2.84923e-17
2.87189e-13
-2.39151e-15
2.92719e-13
-5.57483e-15
3.02042e-13
-9.27573e-15
3.1607e-13
-1.40604e-14
3.3587e-13
-1.97585e-14
3.63042e-13
-2.72184e-14
3.9891e-13
-3.58221e-14
4.46563e-13
-4.76977e-14
5.07296e-13
-6.06835e-14
5.87408e-13
-8.01834e-14
6.87308e-13
-9.98416e-14
8.23342e-13
-1.3614e-13
9.84546e-13
-1.61113e-13
1.22211e-12
-2.37579e-13
1.48932e-12
-2.67198e-13
1.92523e-12
-4.35893e-13
2.41575e-12
-4.89745e-13
3.38581e-12
-9.7089e-13
4.48336e-12
-1.09745e-12
8.00698e-12
-3.52382e-12
1.22852e-11
-4.27841e-12
-2.99928e-09
3.01157e-09
6.59059e-11
2.94492e-13
-7.20084e-11
6.27866e-11
3.99428e-12
7.41768e-11
-1.48168e-11
8.49743e-11
-1.41704e-11
8.18742e-11
4.07013e-12
6.76812e-11
1.85992e-11
6.3104e-11
5.91282e-12
5.83546e-11
6.21565e-12
5.28725e-11
7.1302e-12
4.81944e-11
6.10545e-12
4.37015e-11
5.84834e-12
3.99662e-11
4.86791e-12
3.6368e-11
4.68508e-12
3.34818e-11
3.75926e-12
3.07039e-11
3.61679e-12
2.83295e-11
3.09212e-12
2.61974e-11
2.77565e-12
2.41912e-11
2.61229e-12
2.25026e-11
2.19834e-12
2.09097e-11
2.07383e-12
1.94319e-11
1.92397e-12
1.81454e-11
1.67473e-12
1.69152e-11
1.6015e-12
1.57932e-11
1.46054e-12
1.47821e-11
1.31644e-12
1.38107e-11
1.2644e-12
1.29354e-11
1.13966e-12
1.21237e-11
1.05667e-12
1.13422e-11
1.01739e-12
1.06478e-11
9.03976e-13
9.98667e-12
8.60603e-13
9.35718e-12
8.1948e-13
8.78777e-12
7.41226e-13
8.24196e-12
7.10516e-13
7.73145e-12
6.64373e-13
7.26046e-12
6.13278e-13
6.80744e-12
5.89514e-13
6.3903e-12
5.43141e-13
5.99621e-12
5.12979e-13
5.62059e-12
4.88983e-13
5.27462e-12
4.50279e-13
4.94335e-12
4.31155e-13
4.63357e-12
4.03219e-13
4.34205e-12
3.79202e-13
4.06458e-12
3.6126e-13
3.80696e-12
3.34955e-13
3.56098e-12
3.20367e-13
3.33092e-12
2.991e-13
3.11315e-12
2.83696e-13
2.90762e-12
2.67461e-13
2.71441e-12
2.51512e-13
2.53112e-12
2.38253e-13
2.38828e-12
1.86038e-13
2.25807e-12
1.69172e-13
2.14152e-12
1.51909e-13
2.03099e-12
1.43652e-13
1.9315e-12
1.29725e-13
1.84262e-12
1.15454e-13
1.75965e-12
1.08201e-13
1.683e-12
9.96083e-14
1.61163e-12
9.31232e-14
1.54519e-12
8.6247e-14
1.48352e-12
8.04542e-14
1.42557e-12
7.52283e-14
1.3718e-12
7.0187e-14
1.32137e-12
6.54306e-14
1.27416e-12
6.16098e-14
1.2302e-12
5.7036e-14
1.18871e-12
5.41852e-14
1.15029e-12
4.98078e-14
1.11439e-12
4.68754e-14
1.08112e-12
4.31418e-14
1.05078e-12
3.96228e-14
1.02295e-12
3.60862e-14
9.98542e-13
3.19737e-14
9.77348e-13
2.74153e-14
9.60222e-13
2.23549e-14
9.47824e-13
1.59877e-14
9.40872e-13
9.17321e-15
9.40837e-13
-3.65757e-17
9.48891e-13
-1.03792e-14
9.67182e-13
-2.39224e-14
9.98014e-13
-4.00487e-14
1.04444e-12
-6.05218e-14
1.10992e-12
-8.51875e-14
1.19985e-12
-1.17206e-13
1.31846e-12
-1.54373e-13
1.4762e-12
-2.05492e-13
1.67695e-12
-2.61375e-13
1.9422e-12
-3.45524e-13
2.2722e-12
-4.29771e-13
2.72279e-12
-5.86868e-13
3.25469e-12
-6.92906e-13
4.0421e-12
-1.02502e-12
4.9222e-12
-1.14728e-12
6.36836e-12
-1.88201e-12
7.97977e-12
-2.10017e-12
1.11988e-11
-4.19101e-12
1.47899e-11
-4.68836e-12
2.64262e-11
-1.51605e-11
3.72733e-11
-1.51259e-11
-6.2055e-09
3.24349e-09
1.22361e-10
1.08122e-11
-1.32878e-10
1.16535e-10
9.81936e-12
1.37603e-10
-3.58844e-11
1.5724e-10
-3.38076e-11
1.51633e-10
9.67763e-12
1.25759e-10
4.44731e-11
1.17113e-10
1.45587e-11
1.08372e-10
1.49565e-11
9.81914e-11
1.73107e-11
8.9541e-11
1.47559e-11
8.11986e-11
1.41907e-11
7.4271e-11
1.17954e-11
6.75891e-11
1.1367e-11
6.22288e-11
9.11957e-12
5.70678e-11
8.77766e-12
5.26566e-11
7.50337e-12
4.86932e-11
6.73902e-12
4.49655e-11
6.33999e-12
4.18261e-11
5.33772e-12
3.88651e-11
5.03476e-12
3.61183e-11
4.67071e-12
3.37264e-11
4.06663e-12
3.14395e-11
3.88836e-12
2.93539e-11
3.54606e-12
2.74738e-11
3.19664e-12
2.56681e-11
3.06999e-12
2.4041e-11
2.76682e-12
2.25317e-11
2.56593e-12
2.1079e-11
2.47006e-12
1.97879e-11
2.19504e-12
1.85588e-11
2.08969e-12
1.73886e-11
1.98965e-12
1.633e-11
1.79981e-12
1.53153e-11
1.72522e-12
1.43664e-11
1.61323e-12
1.34907e-11
1.48901e-12
1.26485e-11
1.43155e-12
1.18731e-11
1.31864e-12
1.11404e-11
1.2456e-12
1.04422e-11
1.18722e-12
9.79899e-12
1.0934e-12
9.18315e-12
1.04696e-12
8.60728e-12
9.7906e-13
8.06534e-12
9.21011e-13
7.54955e-12
8.77069e-13
7.07065e-12
8.13658e-13
6.61337e-12
7.77722e-13
6.18571e-12
7.26574e-13
5.78089e-12
6.88614e-13
5.39882e-12
6.49478e-13
5.03967e-12
6.10657e-13
4.69895e-12
5.78805e-13
4.43348e-12
4.51537e-13
4.19143e-12
4.11065e-13
3.97472e-12
3.68715e-13
3.76929e-12
3.48971e-13
3.5843e-12
3.14808e-13
3.41904e-12
2.80604e-13
3.26476e-12
2.62574e-13
3.12223e-12
2.42052e-13
2.98954e-12
2.25922e-13
2.86599e-12
2.09674e-13
2.75132e-12
1.95214e-13
2.64357e-12
1.82884e-13
2.54359e-12
1.7026e-13
2.4498e-12
1.59113e-13
2.36203e-12
1.49464e-13
2.28027e-12
1.38701e-13
2.20313e-12
1.31414e-13
2.13169e-12
1.21154e-13
2.06492e-12
1.13707e-13
2.00306e-12
1.04928e-13
1.94663e-12
9.61057e-14
1.89489e-12
8.77619e-14
1.8495e-12
7.74667e-14
1.81008e-12
6.67516e-14
1.77823e-12
5.42363e-14
1.75516e-12
3.89834e-14
1.74222e-12
2.21844e-14
1.74213e-12
1.84416e-17
1.75706e-12
-2.52673e-14
1.79102e-12
-5.79304e-14
1.84828e-12
-9.72526e-14
1.9345e-12
-1.46777e-13
2.05611e-12
-2.06759e-13
2.22316e-12
-2.84298e-13
2.4434e-12
-3.74564e-13
2.73638e-12
-4.98526e-13
3.10908e-12
-6.34014e-13
3.60176e-12
-8.38281e-13
4.21417e-12
-1.04213e-12
5.05113e-12
-1.42393e-12
6.03768e-12
-1.67936e-12
7.50038e-12
-2.48774e-12
9.13132e-12
-2.7782e-12
1.18181e-11
-4.56872e-12
1.48001e-11
-5.08144e-12
2.07784e-11
-1.01702e-11
2.7406e-11
-1.13159e-11
4.8938e-11
-3.66927e-11
6.79689e-11
-3.4157e-11
-9.62988e-09
3.49235e-09
1.90969e-10
2.64369e-11
-2.06593e-10
1.82116e-10
1.86719e-11
2.14725e-10
-6.8493e-11
2.44885e-10
-6.39677e-11
2.36349e-10
1.82142e-11
1.96581e-10
8.42404e-11
1.82945e-10
2.81948e-11
1.69337e-10
2.85646e-11
1.53473e-10
3.31751e-11
1.39986e-10
2.82422e-11
1.26966e-10
2.7211e-11
1.16146e-10
2.26155e-11
1.05708e-10
2.1805e-11
9.73274e-11
1.74997e-11
8.92598e-11
1.68451e-11
8.23616e-11
1.44016e-11
7.61624e-11
1.29382e-11
7.03325e-11
1.21699e-11
6.5421e-11
1.02491e-11
6.0789e-11
9.6667e-12
5.64923e-11
8.96733e-12
5.27497e-11
7.80918e-12
4.9172e-11
7.46601e-12
4.59093e-11
6.80866e-12
4.29673e-11
6.13866e-12
4.01424e-11
5.8948e-12
3.75968e-11
5.3125e-12
3.52352e-11
4.92742e-12
3.29626e-11
4.74265e-12
3.09425e-11
4.21507e-12
2.90194e-11
4.01269e-12
2.71888e-11
3.8202e-12
2.55325e-11
3.4561e-12
2.39449e-11
3.31273e-12
2.24603e-11
3.09769e-12
2.10902e-11
2.85913e-12
1.97727e-11
2.74887e-12
1.85596e-11
2.53184e-12
1.74133e-11
2.39182e-12
1.63209e-11
2.27955e-12
1.53147e-11
2.09954e-12
1.43512e-11
2.01032e-12
1.34503e-11
1.87988e-12
1.26025e-11
1.76864e-12
1.17956e-11
1.68396e-12
1.10464e-11
1.5626e-12
1.0331e-11
1.4931e-12
9.66202e-12
1.39536e-12
9.02875e-12
1.32195e-12
8.43106e-12
1.24708e-12
7.86925e-12
1.17244e-12
7.33626e-12
1.11157e-12
6.92107e-12
8.6673e-13
6.54243e-12
7.89513e-13
6.20336e-12
7.07844e-13
5.88203e-12
6.70178e-13
5.59259e-12
6.04348e-13
5.33396e-12
5.39102e-13
5.09256e-12
5.04066e-13
4.86953e-12
4.64999e-13
4.66188e-12
4.3368e-13
4.46856e-12
4.02861e-13
4.28912e-12
3.7474e-13
4.1205e-12
3.51391e-13
3.96404e-12
3.26819e-13
3.81728e-12
3.05752e-13
3.67991e-12
2.86903e-13
3.55197e-12
2.66541e-13
3.43124e-12
2.52233e-13
3.31944e-12
2.32835e-13
3.21494e-12
2.18274e-13
3.11812e-12
2.01659e-13
3.0298e-12
1.84484e-13
2.94882e-12
1.68677e-13
2.87777e-12
1.48625e-13
2.81607e-12
1.28346e-13
2.76621e-12
1.04119e-13
2.73009e-12
7.50226e-14
2.70981e-12
4.2524e-14
2.70963e-12
1.5874e-16
2.73296e-12
-4.85288e-14
2.78603e-12
-1.1106e-13
2.87553e-12
-1.86694e-13
3.01032e-12
-2.81603e-13
3.20043e-12
-3.96816e-13
3.46157e-12
-5.45484e-13
3.80582e-12
-7.18768e-13
4.2638e-12
-9.56552e-13
4.84626e-12
-1.21641e-12
5.61625e-12
-1.60837e-12
6.57312e-12
-1.99893e-12
7.88092e-12
-2.73186e-12
9.4218e-12
-3.22015e-12
1.17069e-11
-4.77285e-12
1.42529e-11
-5.32421e-12
1.84489e-11
-8.76468e-12
2.30998e-11
-9.73146e-12
3.24296e-11
-1.9501e-11
4.27418e-11
-2.16277e-11
7.62153e-11
-7.01666e-11
1.05088e-10
-6.30302e-11
-1.32839e-08
3.75911e-09
2.73823e-10
4.7909e-11
-2.95295e-10
2.61634e-10
3.08608e-11
3.0791e-10
-1.14769e-10
3.50509e-10
-1.06566e-10
3.38579e-10
3.0144e-11
2.82406e-10
1.40414e-10
2.62692e-10
4.79089e-11
2.43185e-10
4.80709e-11
2.20489e-10
5.58716e-11
2.01152e-10
4.75788e-11
1.82483e-10
4.58799e-11
1.66946e-10
3.8153e-11
1.51961e-10
3.67897e-11
1.39918e-10
2.95433e-11
1.28327e-10
2.8436e-11
1.1841e-10
2.43178e-11
1.09498e-10
2.18505e-11
1.01117e-10
2.05513e-11
9.40539e-11
1.73119e-11
8.73931e-11
1.63274e-11
8.12148e-11
1.51456e-11
7.58318e-11
1.31922e-11
7.06868e-11
1.2611e-11
6.59947e-11
1.15007e-11
6.17632e-11
1.03703e-11
5.77006e-11
9.95726e-12
5.40397e-11
8.97349e-12
5.0643e-11
8.32407e-12
4.73748e-11
8.01086e-12
4.44694e-11
7.1204e-12
4.17036e-11
6.77854e-12
3.9071e-11
6.4527e-12
3.66888e-11
5.83831e-12
3.44057e-11
5.59579e-12
3.22707e-11
5.23265e-12
3.03002e-11
4.82968e-12
2.84055e-11
4.64346e-12
2.66608e-11
4.27657e-12
2.50123e-11
4.04029e-12
2.34414e-11
3.85038e-12
2.19943e-11
3.54663e-12
2.06088e-11
3.39576e-12
1.93133e-11
3.1754e-12
1.8094e-11
2.98778e-12
1.69337e-11
2.84431e-12
1.58563e-11
2.63987e-12
1.48276e-11
2.52181e-12
1.38656e-11
2.35725e-12
1.29549e-11
2.23265e-12
1.20955e-11
2.10646e-12
1.12877e-11
1.98028e-12
1.05213e-11
1.87777e-12
9.92444e-12
1.46362e-12
9.37999e-12
1.33385e-12
8.89237e-12
1.19553e-12
8.43035e-12
1.13212e-12
8.01407e-12
1.0207e-12
7.64203e-12
9.1105e-13
7.29481e-12
8.5136e-13
6.97399e-12
7.85765e-13
6.67532e-12
7.32426e-13
6.39724e-12
6.80852e-13
6.13911e-12
6.32934e-13
5.89656e-12
5.93867e-13
5.67148e-12
5.51978e-13
5.46034e-12
5.1681e-13
5.26273e-12
4.84567e-13
5.07865e-12
4.50556e-13
4.90498e-12
4.25975e-13
4.74412e-12
3.93623e-13
4.59377e-12
3.68666e-13
4.45448e-12
3.40892e-13
4.32739e-12
3.11607e-13
4.21088e-12
2.85144e-13
4.10863e-12
2.5095e-13
4.01985e-12
2.17062e-13
3.94809e-12
1.75895e-13
3.8961e-12
1.26963e-13
3.86688e-12
7.17924e-14
3.86657e-12
4.42059e-16
3.90007e-12
-8.19895e-14
3.97634e-12
-1.8736e-13
4.10496e-12
-3.15282e-13
4.29869e-12
-4.75356e-13
4.57194e-12
-6.70029e-13
4.94723e-12
-9.2081e-13
5.44196e-12
-1.21347e-12
6.10003e-12
-1.61466e-12
6.93694e-12
-2.05328e-12
8.04312e-12
-2.7146e-12
9.41767e-12
-3.37344e-12
1.12959e-11
-4.61014e-12
1.35086e-11
-5.43287e-12
1.67891e-11
-8.05334e-12
2.04438e-11
-8.97883e-12
2.64646e-11
-1.47856e-11
3.31352e-11
-1.64014e-11
4.65101e-11
-3.28766e-11
6.12651e-11
-3.63826e-11
1.09053e-10
-1.17955e-10
1.49686e-10
-1.03664e-10
-1.71791e-08
4.04486e-09
3.7334e-10
7.60127e-11
-4.01444e-10
3.57536e-10
4.66645e-11
4.19897e-10
-1.7713e-10
4.77105e-10
-1.63774e-10
4.61275e-10
4.59742e-11
3.85856e-10
2.15832e-10
3.58784e-10
7.4981e-11
3.32169e-10
7.46857e-11
3.01306e-10
8.67344e-11
2.74931e-10
7.39542e-11
2.49478e-10
7.1333e-11
2.28254e-10
5.93766e-11
2.07794e-10
5.7249e-11
1.9133e-10
4.60077e-11
1.7549e-10
4.42758e-11
1.6193e-10
3.78774e-11
1.49743e-10
3.40381e-11
1.3828e-10
3.20135e-11
1.28619e-10
2.69732e-11
1.19508e-10
2.54387e-11
1.11057e-10
2.35964e-11
1.03692e-10
2.05572e-11
9.66536e-11
1.96492e-11
9.02349e-11
1.79192e-11
8.4445e-11
1.61602e-11
7.88873e-11
1.55148e-11
7.38788e-11
1.39821e-11
6.92315e-11
1.29714e-11
6.47605e-11
1.24818e-11
6.07855e-11
1.10954e-11
5.70014e-11
1.05625e-11
5.34e-11
1.0054e-11
5.01408e-11
9.09744e-12
4.70173e-11
8.71927e-12
4.40966e-11
8.15318e-12
4.14006e-11
7.52571e-12
3.88086e-11
7.23528e-12
3.64218e-11
6.66339e-12
3.41665e-11
6.2955e-12
3.20176e-11
5.99927e-12
3.00379e-11
5.52622e-12
2.81426e-11
5.29096e-12
2.63703e-11
4.94759e-12
2.47024e-11
4.65548e-12
2.31151e-11
4.43152e-12
2.16413e-11
4.11343e-12
2.02342e-11
3.92891e-12
1.89182e-11
3.67297e-12
1.76726e-11
3.47828e-12
1.64971e-11
3.28189e-12
1.53922e-11
3.08517e-12
1.4344e-11
2.92572e-12
1.35278e-11
2.27978e-12
1.27831e-11
2.07833e-12
1.2116e-11
1.86269e-12
1.14841e-11
1.7639e-12
1.09146e-11
1.59028e-12
1.04055e-11
1.42003e-12
9.9304e-12
1.32653e-12
9.4914e-12
1.2247e-12
9.08274e-12
1.14119e-12
8.70221e-12
1.06125e-12
8.34896e-12
9.8625e-13
8.01705e-12
9.25678e-13
7.70903e-12
8.60082e-13
7.42007e-12
8.05657e-13
7.14964e-12
7.55059e-13
6.89769e-12
7.02407e-13
6.66e-12
6.63748e-13
6.43983e-12
6.13679e-13
6.23403e-12
5.74516e-13
6.04337e-12
5.31482e-13
5.8694e-12
4.85621e-13
5.70991e-12
4.44586e-13
5.56993e-12
3.9102e-13
5.44839e-12
3.38507e-13
5.35013e-12
2.74149e-13
5.27893e-12
1.98097e-13
5.2389e-12
1.11867e-13
5.23841e-12
8.96308e-16
5.28418e-12
-1.277e-13
5.38845e-12
-2.91671e-13
5.56434e-12
-4.91127e-13
5.82925e-12
-7.4029e-13
6.20291e-12
-1.04363e-12
6.71603e-12
-1.43398e-12
7.39247e-12
-1.88986e-12
8.29205e-12
-2.51428e-12
9.4361e-12
-3.19728e-12
1.09478e-11
-4.22636e-12
1.28263e-11
-5.25191e-12
1.5392e-11
-7.17596e-12
1.84151e-11
-8.45589e-12
2.28943e-11
-1.25325e-11
2.78851e-11
-1.39696e-11
3.61008e-11
-2.30013e-11
4.52027e-11
-2.55025e-11
6.34334e-11
-5.11083e-11
8.35165e-11
-5.64653e-11
1.48363e-10
-1.82802e-10
2.02994e-10
-1.58295e-10
-2.13269e-08
4.35078e-09
4.92312e-10
1.11565e-10
-5.27864e-10
4.72668e-10
6.63085e-11
5.53848e-10
-2.5831e-10
6.28115e-10
-2.38041e-10
6.07839e-10
6.62512e-11
5.09979e-10
3.13691e-10
4.74047e-10
1.10913e-10
4.38904e-10
1.09828e-10
3.98328e-10
1.27311e-10
3.63523e-10
1.08759e-10
3.2996e-10
1.04896e-10
3.01913e-10
8.74232e-11
2.74892e-10
8.42703e-11
2.53116e-10
6.77833e-11
2.32176e-10
6.52167e-11
2.14237e-10
5.58161e-11
1.98112e-10
5.01626e-11
1.82946e-10
4.71793e-11
1.7016e-10
3.97595e-11
1.58102e-10
3.74969e-11
1.46918e-10
3.478e-11
1.37169e-10
3.03067e-11
1.27853e-10
2.89647e-11
1.19358e-10
2.64147e-11
1.11693e-10
2.3825e-11
1.04337e-10
2.28707e-11
9.77074e-11
2.06115e-11
9.15553e-11
1.91235e-11
8.56377e-11
1.83994e-11
8.03757e-11
1.63573e-11
7.53667e-11
1.55715e-11
7.06e-11
1.48207e-11
6.62858e-11
1.34117e-11
6.21514e-11
1.28536e-11
5.82855e-11
1.2019e-11
5.47168e-11
1.10944e-11
5.12861e-11
1.06659e-11
4.8127e-11
9.82255e-12
4.51418e-11
9.28064e-12
4.22977e-11
8.84341e-12
3.96773e-11
8.14656e-12
3.71687e-11
7.79951e-12
3.48231e-11
7.29317e-12
3.26155e-11
6.86297e-12
3.05148e-11
6.53219e-12
2.85643e-11
6.06388e-12
2.6702e-11
5.7912e-12
2.49605e-11
5.41438e-12
2.3312e-11
5.12674e-12
2.17564e-11
4.83747e-12
2.02942e-11
4.54733e-12
1.89073e-11
4.31259e-12
1.78275e-11
3.35954e-12
1.68421e-11
3.06362e-12
1.59591e-11
2.74571e-12
1.5123e-11
2.59997e-12
1.43692e-11
2.34411e-12
1.36952e-11
2.094e-12
1.30662e-11
1.95554e-12
1.2485e-11
1.80586e-12
1.1944e-11
1.68229e-12
1.14402e-11
1.56497e-12
1.09725e-11
1.45401e-12
1.0533e-11
1.36506e-12
1.01251e-11
1.26802e-12
9.74254e-12
1.1882e-12
9.38443e-12
1.11322e-12
9.05078e-12
1.03601e-12
8.73601e-12
9.78561e-13
8.44443e-12
9.05207e-13
8.17186e-12
8.47117e-13
7.91934e-12
7.83958e-13
7.6889e-12
7.16081e-13
7.47765e-12
6.55809e-13
7.29222e-12
5.76504e-13
7.13121e-12
4.99471e-13
7.00104e-12
4.04314e-13
6.90668e-12
2.92423e-13
6.85361e-12
1.64981e-13
6.85288e-12
1.60791e-15
6.91341e-12
-1.88205e-13
7.05135e-12
-4.2963e-13
7.28411e-12
-7.23859e-13
7.63463e-12
-1.09082e-12
8.12906e-12
-1.53804e-12
8.80792e-12
-2.11286e-12
9.70286e-12
-2.78478e-12
1.08927e-11
-3.70414e-12
1.24059e-11
-4.7105e-12
1.44047e-11
-6.22514e-12
1.68887e-11
-7.73591e-12
2.02795e-11
-1.05668e-11
2.42756e-11
-1.2452e-11
3.01918e-11
-1.84487e-11
3.6786e-11
-2.05639e-11
4.76296e-11
-3.38448e-11
5.96452e-11
-3.75177e-11
8.36772e-11
-7.51407e-11
1.1012e-10
-8.29075e-11
1.95189e-10
-2.67871e-10
2.66407e-10
-2.29514e-10
-2.57386e-08
4.67811e-09
6.33958e-10
1.55401e-10
-6.77794e-10
6.1033e-10
8.99365e-11
7.13415e-10
-3.61396e-10
8.07495e-10
-3.32121e-10
7.82187e-10
9.15596e-11
6.58309e-10
4.37569e-10
6.11759e-10
1.57463e-10
5.66429e-10
1.55158e-10
5.14349e-10
1.7939e-10
4.69491e-10
1.53617e-10
4.26274e-10
1.48113e-10
3.90073e-10
1.23624e-10
3.55218e-10
1.19126e-10
3.27086e-10
9.5915e-11
3.00045e-10
9.22579e-11
2.76863e-10
7.89981e-11
2.56025e-10
7.10007e-11
2.36423e-10
6.67805e-11
2.19893e-10
5.62894e-11
2.04304e-10
5.30859e-11
1.89847e-10
4.92374e-11
1.77239e-10
4.29141e-11
1.65195e-10
4.10087e-11
1.54211e-10
3.73987e-11
1.44299e-10
3.3737e-11
1.34788e-10
3.23816e-11
1.26216e-10
2.91836e-11
1.1826e-10
2.70791e-11
1.10609e-10
2.60507e-11
1.03805e-10
2.31614e-11
9.73274e-11
2.20487e-11
9.11645e-11
2.09835e-11
8.55855e-11
1.89906e-11
8.02397e-11
1.81994e-11
7.52413e-11
1.70173e-11
7.06266e-11
1.57091e-11
6.61909e-11
1.51015e-11
6.21061e-11
1.39073e-11
5.82461e-11
1.31405e-11
5.45689e-11
1.25206e-11
5.11808e-11
1.15345e-11
4.79374e-11
1.10428e-11
4.49048e-11
1.03257e-11
4.20506e-11
9.7169e-12
3.93347e-11
9.24801e-12
3.6813e-11
8.58539e-12
3.44054e-11
8.19866e-12
3.2154e-11
7.66557e-12
3.0023e-11
7.2577e-12
2.80121e-11
6.84828e-12
2.61221e-11
6.43733e-12
2.43293e-11
6.10514e-12
2.29339e-11
4.75483e-12
2.16602e-11
4.33713e-12
2.05186e-11
3.88737e-12
1.94379e-11
3.68055e-12
1.84632e-11
3.31881e-12
1.75914e-11
2.96571e-12
1.67781e-11
2.76896e-12
1.60264e-11
2.55749e-12
1.53267e-11
2.3821e-12
1.46751e-11
2.21644e-12
1.40701e-11
2.059e-12
1.35018e-11
1.93335e-12
1.29742e-11
1.79569e-12
1.24792e-11
1.68305e-12
1.2016e-11
1.57651e-12
1.15843e-11
1.46759e-12
1.11771e-11
1.38584e-12
1.07998e-11
1.28236e-12
1.04471e-11
1.19984e-12
1.01204e-11
1.11064e-12
9.82219e-12
1.01432e-12
9.54883e-12
9.29132e-13
9.30886e-12
8.16569e-13
9.10047e-12
7.0776e-13
8.93199e-12
5.72774e-13
8.80982e-12
4.14527e-13
8.74109e-12
2.33749e-13
8.74004e-12
2.63154e-15
8.81825e-12
-2.66358e-13
8.99654e-12
-6.07961e-13
9.29747e-12
-1.02474e-12
9.75059e-12
-1.54396e-12
1.03898e-11
-2.17719e-12
1.12672e-11
-2.99033e-12
1.2424e-11
-3.94149e-12
1.39614e-11
-5.24159e-12
1.59168e-11
-6.66587e-12
1.84983e-11
-8.80677e-12
2.17072e-11
-1.09447e-11
2.60843e-11
-1.49441e-11
3.12445e-11
-1.76121e-11
3.88768e-11
-2.6081e-11
4.73878e-11
-2.90748e-11
6.1365e-11
-4.7822e-11
7.68587e-11
-5.30107e-11
1.07793e-10
-1.06075e-10
1.41793e-10
-1.16908e-10
2.50724e-10
-3.76803e-10
3.41513e-10
-3.20303e-10
-3.04252e-08
5.02813e-09
8.01984e-10
2.08353e-10
-8.54936e-10
7.74347e-10
1.17574e-10
9.02803e-10
-4.89852e-10
1.01978e-09
-4.49098e-10
9.88825e-10
1.22515e-10
8.34939e-10
5.91455e-10
7.75722e-10
2.16681e-10
7.18267e-10
2.12613e-10
6.52617e-10
2.45041e-10
5.95815e-10
2.10419e-10
5.41147e-10
2.02782e-10
4.95235e-10
1.69536e-10
4.51059e-10
1.63302e-10
4.15346e-10
1.31627e-10
3.81034e-10
1.2657e-10
3.51596e-10
1.08437e-10
3.25132e-10
9.74641e-11
3.00237e-10
9.1676e-11
2.79236e-10
7.72901e-11
2.59431e-10
7.28912e-11
2.41064e-10
6.76043e-11
2.25042e-10
5.89357e-11
2.09739e-10
5.63117e-11
1.95783e-10
5.13552e-11
1.83186e-10
4.6334e-11
1.71101e-10
4.44666e-11
1.60208e-10
4.00761e-11
1.50098e-10
3.71897e-11
1.40375e-10
3.57727e-11
1.31728e-10
3.18084e-11
1.23497e-10
3.02798e-11
1.15666e-10
2.88143e-11
1.08577e-10
2.60803e-11
1.01784e-10
2.49923e-11
9.54324e-11
2.33686e-11
8.95681e-11
2.15733e-11
8.39318e-11
2.07378e-11
7.87415e-11
1.90976e-11
7.38367e-11
1.80452e-11
6.91643e-11
1.7193e-11
6.48593e-11
1.58395e-11
6.07382e-11
1.51639e-11
5.6885e-11
1.41788e-11
5.32586e-11
1.33432e-11
4.9808e-11
1.26986e-11
4.6604e-11
1.17893e-11
4.35453e-11
1.12574e-11
4.06851e-11
1.05257e-11
3.79779e-11
9.96488e-12
3.54233e-11
9.40285e-12
3.30224e-11
8.83821e-12
3.07452e-11
8.38225e-12
2.89732e-11
6.52675e-12
2.73554e-11
5.95489e-12
2.59048e-11
5.338e-12
2.45322e-11
5.05313e-12
2.32938e-11
4.55723e-12
2.21857e-11
4.07378e-12
2.11519e-11
3.80274e-12
2.01965e-11
3.51286e-12
1.93072e-11
3.27146e-12
1.8479e-11
3.0446e-12
1.771e-11
2.82805e-12
1.69875e-11
2.65577e-12
1.63168e-11
2.46645e-12
1.56876e-11
2.31222e-12
1.50986e-11
2.16552e-12
1.45498e-11
2.01641e-12
1.4032e-11
1.90361e-12
1.35523e-11
1.76207e-12
1.31038e-11
1.64837e-12
1.26883e-11
1.52613e-12
1.2309e-11
1.39361e-12
1.19613e-11
1.27679e-12
1.16561e-11
1.12186e-12
1.1391e-11
9.72802e-13
1.11767e-11
7.87092e-13
1.10212e-11
5.69967e-13
1.09337e-11
3.21278e-13
1.09322e-11
4.08329e-15
1.10316e-11
-3.65674e-13
1.12581e-11
-8.34476e-13
1.16405e-11
-1.40712e-12
1.22162e-11
-2.11968e-12
1.30283e-11
-2.98935e-12
1.41429e-11
-4.10494e-12
1.56124e-11
-5.41092e-12
1.75647e-11
-7.19389e-12
2.0048e-11
-9.14915e-12
2.33247e-11
-1.20835e-11
2.73983e-11
-1.50183e-11
3.29508e-11
-2.04966e-11
3.94989e-11
-2.41601e-11
4.91736e-11
-3.57557e-11
5.99681e-11
-3.98693e-11
7.76688e-11
-6.55227e-11
9.72999e-11
-7.26416e-11
1.36414e-10
-1.4519e-10
1.79365e-10
-1.59858e-10
3.16331e-10
-5.13769e-10
4.30121e-10
-4.34094e-10
-3.53973e-08
5.40219e-09
1.00066e-09
2.71218e-10
-1.06352e-09
9.69148e-10
1.49084e-10
1.12685e-09
-6.47559e-10
1.27017e-09
-5.92409e-10
1.23292e-09
1.59758e-10
1.04461e-09
7.79769e-10
9.70342e-10
2.90947e-10
8.98505e-10
2.84451e-10
8.16903e-10
3.26642e-10
7.45956e-10
2.81365e-10
6.7775e-10
2.70987e-10
6.20309e-10
2.26977e-10
5.65079e-10
2.18531e-10
5.20353e-10
1.76354e-10
4.77401e-10
1.69522e-10
4.40517e-10
1.45321e-10
4.0736e-10
1.30621e-10
3.76164e-10
1.22873e-10
3.4984e-10
1.03614e-10
3.25014e-10
9.77171e-11
3.01992e-10
9.06259e-11
2.81903e-10
7.90245e-11
2.62719e-10
7.54959e-11
2.45222e-10
6.88517e-11
2.29427e-10
6.21298e-11
2.14276e-10
5.96175e-11
2.00619e-10
5.37329e-11
1.87941e-10
4.98674e-11
1.75753e-10
4.79612e-11
1.6491e-10
4.26505e-11
1.54589e-10
4.06006e-11
1.44772e-10
3.86316e-11
1.35883e-10
3.49696e-11
1.27366e-10
3.35092e-11
1.19403e-10
3.13312e-11
1.1205e-10
2.89263e-11
1.04984e-10
2.78039e-11
9.84763e-11
2.5605e-11
9.2327e-11
2.41944e-11
8.64695e-11
2.30505e-11
8.10721e-11
2.12367e-11
7.59057e-11
2.03301e-11
7.10753e-11
1.90091e-11
6.6529e-11
1.78892e-11
6.22035e-11
1.7024e-11
5.81871e-11
1.58054e-11
5.4353e-11
1.50913e-11
5.07678e-11
1.41107e-11
4.73746e-11
1.33581e-11
4.41727e-11
1.26045e-11
4.11636e-11
1.18473e-11
3.83097e-11
1.12359e-11
3.60897e-11
8.74663e-12
3.40622e-11
7.98223e-12
3.22437e-11
7.15646e-12
3.05236e-11
6.77318e-12
2.8971e-11
6.10982e-12
2.75813e-11
5.46342e-12
2.6285e-11
5.09909e-12
2.50869e-11
4.71094e-12
2.39716e-11
4.38684e-12
2.29329e-11
4.08317e-12
2.19684e-11
3.79262e-12
2.10623e-11
3.56177e-12
2.02209e-11
3.30788e-12
1.94316e-11
3.10145e-12
1.86928e-11
2.90438e-12
1.80042e-11
2.70494e-12
1.73546e-11
2.55322e-12
1.67527e-11
2.36392e-12
1.61899e-11
2.21118e-12
1.56685e-11
2.0475e-12
1.51924e-11
1.86967e-12
1.47561e-11
1.71307e-12
1.43729e-11
1.50509e-12
1.40402e-11
1.30543e-12
1.37712e-11
1.0561e-12
1.3576e-11
7.65115e-13
1.34661e-11
4.31202e-13
1.34641e-11
6.06284e-15
1.35886e-11
-4.90112e-13
1.38725e-11
-1.11845e-12
1.4352e-11
-1.88658e-12
1.50738e-11
-2.84146e-12
1.6092e-11
-4.00758e-12
1.74891e-11
-5.50202e-12
1.9331e-11
-7.2528e-12
2.17771e-11
-9.64005e-12
2.48888e-11
-1.22608e-11
2.89923e-11
-1.61871e-11
3.40948e-11
-2.01208e-11
4.10437e-11
-2.74457e-11
4.92419e-11
-3.23582e-11
6.13397e-11
-4.78536e-11
7.48467e-11
-5.33763e-11
9.69578e-11
-8.76337e-11
1.21495e-10
-9.71784e-11
1.70274e-10
-1.93969e-10
2.23785e-10
-2.13369e-10
3.93559e-10
-6.83544e-10
5.34285e-10
-5.7482e-10
-4.06647e-08
5.80168e-09
1.23488e-09
3.44725e-10
-1.30839e-09
1.19985e-09
1.84107e-10
1.39113e-09
-8.38837e-10
1.56459e-09
-7.65868e-10
1.52041e-09
2.0394e-10
1.29279e-09
1.00739e-09
1.20072e-09
3.83021e-10
1.11187e-09
3.73296e-10
1.01158e-09
4.26933e-10
9.23936e-10
3.69012e-10
8.39774e-10
3.5515e-10
7.68684e-10
2.98067e-10
7.0038e-10
2.86835e-10
6.44964e-10
2.3177e-10
5.91772e-10
2.22713e-10
5.46053e-10
1.91039e-10
5.04952e-10
1.71722e-10
4.66274e-10
1.61551e-10
4.33628e-10
1.3626e-10
4.02839e-10
1.28506e-10
3.74289e-10
1.19176e-10
3.49367e-10
1.03947e-10
3.25571e-10
9.92913e-11
3.03869e-10
9.05543e-11
2.84271e-10
8.17275e-11
2.65477e-10
7.84113e-11
2.48536e-10
7.0674e-11
2.32807e-10
6.55963e-11
2.17688e-10
6.30803e-11
2.04237e-10
5.61017e-11
1.91433e-10
5.34044e-11
1.79255e-10
5.08095e-11
1.68227e-10
4.59979e-11
1.57661e-10
4.40747e-11
1.47784e-10
4.12087e-11
1.38662e-10
3.80483e-11
1.29896e-10
3.65693e-11
1.21824e-10
3.3677e-11
1.14196e-10
3.18226e-11
1.0693e-10
3.03162e-11
1.00235e-10
2.79319e-11
9.38267e-11
2.67385e-11
8.78354e-11
2.50005e-11
8.21965e-11
2.35281e-11
7.68314e-11
2.23891e-11
7.185e-11
2.07868e-11
6.70948e-11
1.98465e-11
6.26485e-11
1.8557e-11
5.84404e-11
1.75661e-11
5.44699e-11
1.6575e-11
5.07386e-11
1.55785e-11
4.72e-11
1.47744e-11
4.44481e-11
1.14984e-11
4.19342e-11
1.04961e-11
3.96786e-11
9.4121e-12
3.75459e-11
8.90589e-12
3.56201e-11
8.03559e-12
3.38956e-11
7.18789e-12
3.22873e-11
6.70747e-12
3.08005e-11
6.19765e-12
2.94167e-11
5.77073e-12
2.81278e-11
5.37202e-12
2.69308e-11
4.98965e-12
2.58063e-11
4.6862e-12
2.47621e-11
4.35217e-12
2.37824e-11
4.08112e-12
2.28653e-11
3.82149e-12
2.20104e-11
3.55981e-12
2.12041e-11
3.35957e-12
2.04567e-11
3.11127e-12
1.97579e-11
2.91e-12
1.91104e-11
2.69493e-12
1.85192e-11
2.46086e-12
1.79774e-11
2.2549e-12
1.75015e-11
1.98103e-12
1.70882e-11
1.71868e-12
1.6754e-11
1.39028e-12
1.65114e-11
1.00767e-12
1.63748e-11
5.67826e-13
1.63722e-11
8.75073e-15
1.65265e-11
-6.44495e-13
1.68788e-11
-1.47066e-12
1.74737e-11
-2.48151e-12
1.83691e-11
-3.73684e-12
1.96324e-11
-5.27086e-12
2.1365e-11
-7.23466e-12
2.36494e-11
-9.53722e-12
2.66819e-11
-1.26725e-11
3.05399e-11
-1.61188e-11
3.56241e-11
-2.12713e-11
4.19476e-11
-2.64443e-11
5.05511e-11
-3.60492e-11
6.07058e-11
-4.2513e-11
7.56709e-11
-6.28187e-11
9.23912e-11
-7.00965e-11
1.19712e-10
-1.14954e-10
1.50051e-10
-1.27518e-10
2.1021e-10
-2.54129e-10
2.76146e-10
-2.79305e-10
4.84171e-10
-8.91568e-10
6.56338e-10
-7.46988e-10
-4.62364e-08
6.22807e-09
1.51027e-09
4.29487e-10
-1.59503e-09
1.47238e-09
2.21998e-10
1.70203e-09
-1.06849e-09
1.90985e-09
-9.7369e-10
1.85808e-09
2.55713e-10
1.58582e-09
1.27965e-09
1.47275e-09
4.96085e-10
1.36385e-09
4.82196e-10
1.24173e-09
5.49055e-10
1.13442e-09
4.76319e-10
1.0315e-09
4.58069e-10
9.44298e-10
3.85273e-10
8.60569e-10
3.70564e-10
7.92506e-10
2.99833e-10
7.27207e-10
2.88012e-10
6.71027e-10
2.47219e-10
6.20518e-10
2.22231e-10
5.72979e-10
2.0909e-10
5.32841e-10
1.76398e-10
4.94984e-10
1.66363e-10
4.59882e-10
1.54278e-10
4.29229e-10
1.346e-10
3.99968e-10
1.28553e-10
3.73279e-10
1.17243e-10
3.49173e-10
1.05834e-10
3.2606e-10
1.01524e-10
3.05225e-10
9.15096e-11
2.85877e-10
8.49434e-11
2.67284e-10
8.16737e-11
2.50739e-10
7.26465e-11
2.3499e-10
6.91529e-11
2.20014e-10
6.57856e-11
2.06449e-10
5.95627e-11
1.93455e-10
5.70689e-11
1.81307e-10
5.33561e-11
1.70087e-10
4.92684e-11
1.59308e-10
4.7349e-11
1.4938e-10
4.36043e-11
1.39998e-10
4.12043e-11
1.31063e-10
3.92511e-11
1.22829e-10
3.61655e-11
1.14949e-10
3.4619e-11
1.07581e-10
3.2368e-11
1.00647e-10
3.04621e-11
9.40496e-11
2.8986e-11
8.79242e-11
2.6912e-11
8.20773e-11
2.56932e-11
7.66103e-11
2.40237e-11
7.14366e-11
2.27398e-11
6.65551e-11
2.14563e-11
6.19681e-11
2.01655e-11
5.76182e-11
1.9124e-11
5.42366e-11
1.48799e-11
5.11464e-11
1.35861e-11
4.83727e-11
1.21858e-11
4.57512e-11
1.15273e-11
4.3383e-11
1.04038e-11
4.12613e-11
9.30949e-12
3.92828e-11
8.686e-12
3.74538e-11
8.02665e-12
3.57514e-11
7.47324e-12
3.41656e-11
6.95766e-12
3.26928e-11
6.46254e-12
3.13093e-11
6.0696e-12
3.00242e-11
5.63729e-12
2.88186e-11
5.28667e-12
2.76899e-11
4.95018e-12
2.66376e-11
4.612e-12
2.56452e-11
4.35207e-12
2.47252e-11
4.03121e-12
2.38648e-11
3.77035e-12
2.30677e-11
3.49202e-12
2.23397e-11
3.18886e-12
2.16725e-11
2.92204e-12
2.10865e-11
2.56718e-12
2.05775e-11
2.22757e-12
2.01658e-11
1.80185e-12
1.9867e-11
1.30647e-12
1.96986e-11
7.36189e-13
1.9695e-11
1.23241e-14
1.98849e-11
-8.34291e-13
2.03181e-11
-1.90386e-12
2.105e-11
-3.21339e-12
2.21512e-11
-4.83812e-12
2.37051e-11
-6.82469e-12