/*--------------------------------*- C++ -*----------------------------------*\
| =========                 |                                                 |
| \\      /  F ield         | OpenFOAM: The Open Source CFD Toolbox           |
|  \\    /   O peration     | Version:  5.x                                   |
|   \\  /    A nd           | Web:      www.OpenFOAM.org                      |
|    \\/     M anipulation  |                                                 |
\*---------------------------------------------------------------------------*/
FoamFile
{
    version     2.0;
    format      ascii;
    class       volVectorField;
    location    "1500";
    object      U;
}
// * * * * * * * * * * * * * * * * * * * * * * * * * * * * * * * * * * * * * //

dimensions      [0 1 -1 0 0 0 0];

internalField   nonuniform List<vector> 
107912
(
(-9.65934e-06 9.24861e-05 -1.46438e-29)
(1.27761e-06 6.47655e-05 1.39815e-29)
(3.51415e-06 8.78684e-05 -4.73375e-25)
(1.04217e-05 9.55192e-05 -1.21803e-24)
(3.07978e-05 0.000101378 -2.07515e-23)
(3.32932e-05 6.2653e-05 3.05664e-23)
(2.86202e-05 5.02089e-05 2.19509e-23)
(3.14102e-05 4.64642e-05 2.05866e-28)
(2.69126e-05 3.44431e-05 -3.05148e-27)
(2.57251e-05 2.91744e-05 -2.77311e-27)
(2.18975e-05 2.22706e-05 -2.52703e-27)
(1.95469e-05 1.80891e-05 2.07014e-23)
(1.64667e-05 1.39514e-05 3.71177e-23)
(1.40761e-05 1.10169e-05 4.02134e-27)
(1.17271e-05 8.52693e-06 -3.20225e-23)
(9.64004e-06 6.52973e-06 3.01489e-23)
(7.8203e-06 4.96512e-06 3.4824e-27)
(6.16913e-06 3.67181e-06 0)
(4.73534e-06 2.65037e-06 -4.75736e-23)
(3.53511e-06 1.86669e-06 -2.11681e-23)
(2.42953e-06 1.20766e-06 0)
(1.53136e-06 7.18663e-07 0)
(7.57887e-07 3.34565e-07 -1.62535e-23)
(9.50175e-08 3.67755e-08 1.51123e-23)
(-4.34939e-07 -1.77086e-07 1.40545e-23)
(-8.78787e-07 -3.34443e-07 2.52873e-23)
(-1.23467e-06 -4.42993e-07 -1.20104e-23)
(-1.50652e-06 -5.10329e-07 1.108e-23)
(-1.72178e-06 -5.49294e-07 -1.008e-23)
(-1.87282e-06 -5.62521e-07 -9.76651e-24)
(-1.97665e-06 -5.59067e-07 8.97133e-24)
(-2.04209e-06 -5.41345e-07 0)
(-2.06872e-06 -5.13773e-07 -8.0584e-24)
(-2.07075e-06 -4.81133e-07 8.99261e-28)
(-2.0478e-06 -4.42183e-07 -8.80421e-28)
(-2.00612e-06 -4.02709e-07 -3.3038e-28)
(-1.95192e-06 -3.61687e-07 6.37416e-24)
(-1.88437e-06 -3.20032e-07 3.28832e-28)
(-1.81007e-06 -2.80849e-07 -7.15563e-28)
(-1.72926e-06 -2.4277e-07 -5.62398e-24)
(-1.64363e-06 -2.07276e-07 6.74894e-28)
(-1.55667e-06 -1.7405e-07 0)
(-1.46729e-06 -1.4326e-07 0)
(-1.37887e-06 -1.15342e-07 -2.4425e-24)
(-1.29167e-06 -9.02466e-08 0)
(-1.20748e-06 -6.70538e-08 -4.61123e-24)
(-1.12737e-06 -4.79035e-08 -1.10468e-24)
(-1.05132e-06 -2.93977e-08 -1.08451e-24)
(-9.79671e-07 -1.44768e-08 0)
(-9.11969e-07 -5.62051e-10 0)
(-8.47348e-07 1.11575e-08 -4.99651e-25)
(-7.8536e-07 2.08432e-08 -4.74936e-28)
(-7.30544e-07 2.87279e-08 -1.18173e-24)
(-6.78573e-07 3.46006e-08 -1.18001e-24)
(-6.30393e-07 3.72707e-08 -2.36015e-24)
(-5.81692e-07 3.9958e-08 2.36317e-24)
(-5.312e-07 4.07714e-08 -4.71536e-24)
(-4.82961e-07 4.04673e-08 -2.89508e-28)
(-4.33883e-07 3.96941e-08 2.36541e-24)
(-3.84466e-07 3.78107e-08 -2.3708e-24)
(-3.35262e-07 3.5938e-08 0)
(-2.86655e-07 3.22333e-08 -4.76394e-24)
(-2.39682e-07 2.90007e-08 2.90896e-28)
(-1.94446e-07 2.4776e-08 4.78676e-24)
(-1.51814e-07 2.08173e-08 2.92597e-28)
(-1.12813e-07 1.59435e-08 -4.80159e-24)
(-7.73022e-08 1.20816e-08 -1.46778e-28)
(-4.64474e-08 7.67705e-09 0)
(-2.02829e-08 4.15436e-09 -4.82995e-24)
(9.74683e-10 3.49948e-10 0)
(1.74538e-08 -1.70906e-09 -4.84241e-24)
(2.87321e-08 -4.82448e-09 -9.74812e-24)
(3.57156e-08 -4.23449e-09 0)
(3.81265e-08 -5.96852e-09 1.49355e-28)
(3.6779e-08 -5.52804e-09 -1.50517e-28)
(3.15435e-08 -6.12619e-09 -1.49381e-28)
(2.46773e-08 -3.25786e-09 9.85036e-24)
(1.48301e-08 -2.3212e-09 -1.97689e-23)
(3.48464e-09 6.41659e-10 0)
(-9.05154e-09 2.59528e-09 0)
(-2.17942e-08 5.80926e-09 9.82613e-24)
(-3.47943e-08 8.43038e-09 -9.96695e-24)
(-4.70287e-08 1.23368e-08 9.81146e-24)
(-5.87888e-08 1.45905e-08 1.51757e-28)
(-6.85214e-08 1.81871e-08 -7.49402e-29)
(-7.7083e-08 1.96621e-08 9.92724e-24)
(-8.14801e-08 2.25678e-08 1.04466e-28)
(-8.3979e-08 2.24709e-08 -1.42006e-31)
(-7.90662e-08 2.2624e-08 -7.45506e-29)
(-7.16278e-08 1.99305e-08 -9.93779e-24)
(-4.97344e-08 1.54341e-08 0)
(-2.68294e-08 7.99272e-09 -7.48986e-29)
(2.4269e-08 -5.89618e-09 1.11642e-28)
(6.88156e-08 -2.01785e-08 -3.70147e-29)
(1.73676e-07 -5.29739e-08 5.13107e-29)
(2.44123e-07 -7.66868e-08 -9.76128e-24)
(4.60828e-07 -1.48397e-07 9.59152e-24)
(5.6273e-07 -1.82923e-07 -1.94826e-23)
(1.07832e-06 -3.60522e-07 -3.71957e-29)
(1.21448e-06 -4.15571e-07 1.00101e-23)
(3.29906e-06 -1.15194e-06 -1.38092e-28)
(3.91672e-06 -4.88142e-06 2.36089e-23)
(-1.85324e-05 0.000281337 0)
(3.8361e-06 0.000198989 0)
(1.11264e-05 0.000268316 -5.34309e-27)
(3.19982e-05 0.000291391 3.89007e-24)
(9.35198e-05 0.000308977 1.65672e-23)
(0.000101698 0.000192926 0)
(8.7822e-05 0.000154619 -4.87153e-27)
(9.62391e-05 0.000142702 -4.14391e-23)
(8.26729e-05 0.000106256 -3.77186e-23)
(7.90239e-05 8.98979e-05 -8.83647e-27)
(6.73831e-05 6.8808e-05 8.68423e-27)
(6.01693e-05 5.58862e-05 -3.2994e-23)
(5.07488e-05 4.31791e-05 -5.91512e-23)
(4.34058e-05 3.41172e-05 2.88461e-23)
(3.61953e-05 2.64422e-05 -6.39712e-27)
(2.97799e-05 2.02754e-05 0)
(2.41815e-05 1.54404e-05 4.4199e-23)
(1.9099e-05 1.14418e-05 -3.91548e-23)
(1.46832e-05 8.28081e-06 3.79195e-23)
(1.09832e-05 5.85257e-06 3.37541e-23)
(7.57544e-06 3.81064e-06 -3.06512e-23)
(4.80336e-06 2.29159e-06 -3.44641e-27)
(2.41587e-06 1.09815e-06 1.05789e-27)
(3.68847e-07 1.71993e-07 -3.02655e-27)
(-1.26956e-06 -4.95339e-07 -2.24087e-23)
(-2.64254e-06 -9.87523e-07 -4.03134e-23)
(-3.74434e-06 -1.32874e-06 -2.39705e-27)
(-4.58709e-06 -1.54182e-06 0)
(-5.25514e-06 -1.66666e-06 1.92185e-27)
(-5.72512e-06 -1.7116e-06 1.55708e-23)
(-6.04932e-06 -1.7045e-06 2.37261e-27)
(-6.25497e-06 -1.6531e-06 1.33175e-23)
(-6.3407e-06 -1.5708e-06 2.56978e-23)
(-6.34996e-06 -1.47224e-06 0)
(-6.28252e-06 -1.35395e-06 0)
(-6.1567e-06 -1.23434e-06 1.08626e-23)
(-5.99199e-06 -1.10893e-06 -2.60577e-29)
(-5.78642e-06 -9.81802e-07 -9.89807e-24)
(-5.55947e-06 -8.62097e-07 1.14102e-27)
(-5.31209e-06 -7.45315e-07 -1.10298e-27)
(-5.04985e-06 -6.36501e-07 0)
(-4.78348e-06 -5.34625e-07 -4.15637e-24)
(-4.5094e-06 -4.4024e-07 9.87259e-30)
(-4.23826e-06 -3.54462e-07 9.55462e-28)
(-3.97088e-06 -2.77607e-07 0)
(-3.71238e-06 -2.06402e-07 3.67548e-24)
(-3.46656e-06 -1.47268e-07 1.76273e-24)
(-3.23298e-06 -9.07714e-08 -4.22527e-28)
(-3.01304e-06 -4.44011e-08 -8.35992e-25)
(-2.80521e-06 -2.03294e-09 0)
(-2.60669e-06 3.41098e-08 -4.59323e-29)
(-2.41611e-06 6.37848e-08 1.55242e-24)
(-2.24753e-06 8.85328e-08 3.76927e-24)
(-2.08801e-06 1.06317e-07 1.88203e-24)
(-1.93998e-06 1.14684e-07 3.76381e-24)
(-1.79031e-06 1.22773e-07 -7.53699e-24)
(-1.63539e-06 1.25349e-07 3.75902e-24)
(-1.48714e-06 1.24179e-07 0)
(-1.33622e-06 1.22182e-07 3.77121e-24)
(-1.18449e-06 1.16205e-07 -3.78014e-24)
(-1.03342e-06 1.10589e-07 4.63457e-28)
(-8.84101e-07 9.9015e-08 7.59531e-24)
(-7.39772e-07 8.93499e-08 4.63869e-28)
(-6.00869e-07 7.61791e-08 0)
(-4.6976e-07 6.42862e-08 7.64968e-24)
(-3.4995e-07 4.91906e-08 7.65698e-24)
(-2.40897e-07 3.75466e-08 0)
(-1.46153e-07 2.39011e-08 -7.70918e-24)
(-6.5501e-08 1.33045e-08 -7.7021e-24)
(-1.28894e-10 1.59254e-09 0)
(5.02675e-08 -4.60098e-09 -7.7223e-24)
(8.49467e-08 -1.42957e-08 1.15869e-28)
(1.06522e-07 -1.23185e-08 -7.80458e-24)
(1.13941e-07 -1.7627e-08 2.37475e-28)
(1.10351e-07 -1.62338e-08 0)
(9.44975e-08 -1.79699e-08 1.56033e-23)
(7.30398e-08 -9.18783e-09 -1.57078e-23)
(4.28238e-08 -6.34726e-09 3.15235e-23)
(8.60916e-09 2.66729e-09 0)
(-2.96552e-08 8.8242e-09 -1.58512e-23)
(-6.87649e-08 1.85695e-08 4.1149e-28)
(-1.0853e-07 2.67115e-08 -3.22494e-28)
(-1.45978e-07 3.85979e-08 -1.56455e-23)
(-1.8192e-07 4.56171e-08 1.58569e-23)
(-2.11748e-07 5.64762e-08 -1.56573e-23)
(-2.37834e-07 6.10822e-08 1.20705e-28)
(-2.51236e-07 6.98274e-08 3.12752e-23)
(-2.58688e-07 6.95868e-08 1.58256e-23)
(-2.43283e-07 6.98492e-08 0)
(-2.20158e-07 6.16378e-08 1.2076e-28)
(-1.52948e-07 4.75899e-08 -2.35402e-28)
(-8.23353e-08 2.46881e-08 -1.56785e-23)
(7.45916e-08 -1.82707e-08 -1.18511e-28)
(2.11596e-07 -6.23792e-08 1.18051e-28)
(5.33445e-07 -1.63296e-07 -1.56094e-23)
(7.50553e-07 -2.36665e-07 1.55664e-23)
(1.415e-06 -4.56893e-07 6.34431e-28)
(1.72839e-06 -5.64632e-07 1.55338e-23)
(3.30799e-06 -1.10969e-06 2.95167e-29)
(3.72637e-06 -1.28546e-06 -1.59623e-23)
(1.00767e-05 -3.53076e-06 -8.37578e-28)
(9.54012e-06 -1.50898e-05 -5.65593e-23)
(-1.21924e-05 0.000481142 1.83278e-24)
(6.52193e-06 0.000343512 -8.49201e-25)
(1.98092e-05 0.000460308 8.14965e-25)
(5.5286e-05 0.000499632 -2.09485e-24)
(0.000159555 0.000529447 1.77371e-23)
(0.00017448 0.000333553 1.12753e-26)
(0.000151301 0.000267233 -5.30533e-27)
(0.000165533 0.000246122 8.91223e-23)
(0.000142582 0.000183933 8.1119e-23)
(0.000136266 0.000155472 9.50874e-27)
(0.000116392 0.00011925 0)
(0.000103959 9.68492e-05 8.46271e-27)
(8.77826e-05 7.49292e-05 1.27269e-22)
(7.51201e-05 5.92288e-05 0)
(6.26942e-05 4.59508e-05 -6.53181e-27)
(5.1624e-05 3.52666e-05 6.48325e-27)
(4.19559e-05 2.68853e-05 -4.75507e-23)
(3.31745e-05 1.99512e-05 4.21248e-23)
(2.55412e-05 1.44658e-05 0)
(1.91391e-05 1.02483e-05 -3.63239e-23)
(1.3244e-05 6.70191e-06 3.29855e-23)
(8.44286e-06 4.0588e-06 3.12137e-23)
(4.30712e-06 1.98212e-06 5.57704e-23)
(7.59778e-07 3.68836e-07 6.33976e-27)
(-2.08233e-06 -7.95911e-07 -5.89723e-27)
(-4.46505e-06 -1.6564e-06 2.16978e-23)
(-6.37866e-06 -2.25466e-06 0)
(-7.84404e-06 -2.63024e-06 2.27215e-27)
(-9.00685e-06 -2.8521e-06 -2.16051e-27)
(-9.82684e-06 -2.935e-06 -2.00897e-27)
(-1.03942e-05 -2.92705e-06 4.82915e-27)
(-1.07561e-05 -2.84202e-06 -2.86652e-23)
(-1.09101e-05 -2.70286e-06 -1.38265e-23)
(-1.09311e-05 -2.53483e-06 -1.58878e-27)
(-1.08194e-05 -2.33276e-06 1.47282e-27)
(-1.0606e-05 -2.12771e-06 -1.44371e-27)
(-1.03249e-05 -1.91238e-06 0)
(-9.97321e-06 -1.694e-06 1.2906e-27)
(-9.58396e-06 -1.48798e-06 -2.47479e-27)
(-9.15897e-06 -1.28675e-06 9.65389e-24)
(-8.70811e-06 -1.09928e-06 1.14353e-27)
(-8.25001e-06 -9.23715e-07 4.47087e-24)
(-7.77823e-06 -7.60988e-07 0)
(-7.31146e-06 -6.13139e-07 0)
(-6.85112e-06 -4.80606e-07 -4.02783e-24)
(-6.40573e-06 -3.57698e-07 9.68287e-28)
(-5.98226e-06 -2.55539e-07 9.25058e-28)
(-5.57967e-06 -1.58008e-07 -9.0954e-28)
(-5.20064e-06 -7.78643e-08 9.00594e-25)
(-4.84244e-06 -4.6954e-09 -8.57472e-28)
(-4.50018e-06 5.7855e-08 8.5792e-25)
(-4.17145e-06 1.09164e-07 -1.67158e-24)
(-3.8805e-06 1.51822e-07 -2.02765e-24)
(-3.60559e-06 1.82557e-07 2.02482e-24)
(-3.3504e-06 1.972e-07 4.05193e-24)
(-3.09229e-06 2.11159e-07 4.05612e-24)
(-2.82537e-06 2.15576e-07 0)
(-2.5697e-06 2.13659e-07 4.06988e-24)
(-2.30949e-06 2.10281e-07 -4.05921e-24)
(-2.04801e-06 2.00057e-07 4.06933e-24)
(-1.7878e-06 1.90407e-07 -4.07887e-24)
(-1.53046e-06 1.70588e-07 -8.17588e-24)
(-1.28174e-06 1.53952e-07 9.99905e-28)
(-1.04243e-06 1.31386e-07 8.21589e-24)
(-8.16444e-07 1.11021e-07 -1.64669e-23)
(-6.09988e-07 8.51328e-08 -8.2408e-24)
(-4.22129e-07 6.5113e-08 0)
(-2.58891e-07 4.17545e-08 8.297e-24)
(-1.19706e-07 2.36571e-08 1.65792e-23)
(-6.95869e-09 3.58998e-09 0)
(7.96893e-08 -7.06939e-09 8.31115e-24)
(1.3961e-07 -2.35619e-08 8.36531e-24)
(1.76911e-07 -2.03052e-08 -9.73908e-28)
(1.89779e-07 -2.91429e-08 2.56329e-28)
(1.841e-07 -2.66126e-08 -5.16726e-28)
(1.57098e-07 -2.95626e-08 -1.67929e-23)
(1.19914e-07 -1.46584e-08 1.69062e-23)
(6.79987e-08 -9.56886e-09 -1.69643e-23)
(9.70862e-09 5.98455e-09 -1.6939e-23)
(-5.59358e-08 1.66079e-08 1.706e-23)
(-1.23143e-07 3.33413e-08 -1.68634e-23)
(-1.91408e-07 4.73379e-08 1.7105e-23)
(-2.55709e-07 6.77424e-08 2.56987e-28)
(-3.17368e-07 7.98291e-08 -1.70663e-23)
(-3.68551e-07 9.84076e-08 1.68511e-23)
(-4.1316e-07 1.06311e-07 2.60178e-28)
(-4.36003e-07 1.21177e-07 -1.68307e-23)
(-4.48468e-07 1.20714e-07 -1.70322e-23)
(-4.21423e-07 1.20908e-07 -1.27951e-28)
(-3.81115e-07 1.06579e-07 0)
(-2.651e-07 8.207e-08 -1.66044e-23)
(-1.42918e-07 4.23164e-08 -6.90665e-28)
(1.27743e-07 -3.20413e-08 0)
(3.64327e-07 -1.0859e-07 0)
(9.1894e-07 -2.82678e-07 0)
(1.29413e-06 -4.10299e-07 -1.67537e-23)
(2.43808e-06 -7.89793e-07 -1.64621e-23)
(2.97902e-06 -9.78506e-07 0)
(5.69643e-06 -1.91639e-06 0)
(6.41693e-06 -2.23219e-06 1.71848e-23)
(1.73023e-05 -6.07453e-06 1.62877e-23)
(1.57016e-05 -2.55405e-05 -6.05827e-23)
(-5.99336e-06 0.000692774 -1.97065e-24)
(9.32623e-06 0.00049908 9.13194e-25)
(2.97011e-05 0.000664363 1.83302e-27)
(8.0411e-05 0.000720779 -2.08834e-27)
(0.000228963 0.000763316 0)
(0.000251822 0.000485342 5.59511e-23)
(0.00021932 0.000388707 -4.03822e-23)
(0.000239558 0.000357242 -4.79007e-23)
(0.000206922 0.000267977 -4.36233e-23)
(0.000197727 0.000226305 0)
(0.00016919 0.000173954 0)
(0.00015116 0.000141272 0)
(0.000127791 0.000109449 -6.84639e-23)
(0.000109418 8.65544e-05 0)
(9.13992e-05 6.72198e-05 -7.02815e-27)
(7.53245e-05 5.16391e-05 6.97597e-27)
(6.12737e-05 3.94093e-05 5.11699e-23)
(4.85049e-05 2.92878e-05 5.6974e-27)
(3.73998e-05 2.12749e-05 -4.39251e-23)
(2.80765e-05 1.51087e-05 0)
(1.94936e-05 9.92384e-06 -3.55122e-23)
(1.24949e-05 6.05251e-06 -3.35776e-23)
(6.46486e-06 3.01044e-06 -3.00101e-23)
(1.29053e-06 6.44446e-07 -2.79141e-23)
(-2.85934e-06 -1.06691e-06 3.08979e-27)
(-6.33979e-06 -2.33338e-06 -1.47895e-28)
(-9.13731e-06 -3.21637e-06 2.21827e-23)
(-1.12821e-05 -3.77369e-06 0)
(-1.29859e-05 -4.10566e-06 -1.86203e-23)
(-1.41903e-05 -4.23419e-06 -2.24858e-27)
(-1.5026e-05 -4.22911e-06 -3.31484e-23)
(-1.55621e-05 -4.11112e-06 3.08567e-23)
(-1.57949e-05 -3.91337e-06 -1.84623e-27)
(-1.58331e-05 -3.6725e-06 1.38016e-23)
(-1.56779e-05 -3.38196e-06 -3.21164e-27)
(-1.53737e-05 -3.08633e-06 1.55391e-27)
(-1.49701e-05 -2.77518e-06 0)
(-1.4464e-05 -2.45945e-06 1.3891e-27)
(-1.39023e-05 -2.16122e-06 -1.34189e-27)
(-1.32882e-05 -1.86952e-06 1.59171e-28)
(-1.26361e-05 -1.59771e-06 1.24669e-27)
(-1.19732e-05 -1.34309e-06 0)
(-1.129e-05 -1.10701e-06 0)
(-1.06139e-05 -8.92446e-07 1.09767e-27)
(-9.94688e-06 -6.99981e-07 4.33264e-24)
(-9.30131e-06 -5.2167e-07 0)
(-8.68749e-06 -3.72798e-07 0)
(-8.10366e-06 -2.31458e-07 -9.75902e-28)
(-7.55403e-06 -1.14519e-07 1.82895e-30)
(-7.03444e-06 -8.42624e-09 9.22961e-28)
(-6.53796e-06 8.26525e-08 -9.23497e-25)
(-6.0609e-06 1.57227e-07 1.79835e-24)
(-5.6384e-06 2.19484e-07 -2.18292e-24)
(-5.23968e-06 2.63909e-07 -2.18076e-24)
(-4.86953e-06 2.85539e-07 -8.7211e-24)
(-4.49504e-06 3.0572e-07 4.36714e-24)
(-4.10799e-06 3.12261e-07 -1.0632e-27)
(-3.73714e-06 3.09443e-07 -4.38013e-24)
(-3.35981e-06 3.04787e-07 -5.34326e-28)
(-2.98079e-06 2.90025e-07 -1.29791e-30)
(-2.6038e-06 2.76085e-07 4.38983e-24)
(-2.23089e-06 2.47521e-07 0)
(-1.87044e-06 2.23553e-07 -8.8094e-24)
(-1.52375e-06 1.90972e-07 4.84228e-28)
(-1.19634e-06 1.61685e-07 -7.96289e-28)
(-8.97228e-07 1.24375e-07 0)
(-6.25083e-07 9.55091e-08 5.43677e-28)
(-3.886e-07 6.18619e-08 -1.08944e-27)
(-1.86799e-07 3.58856e-08 1.16811e-27)
(-2.33078e-08 7.06184e-09 0)
(1.02146e-07 -8.33858e-09 0)
(1.89257e-07 -3.18171e-08 9.00374e-24)
(2.43455e-07 -2.75364e-08 1.80804e-23)
(2.62295e-07 -3.97775e-08 0)
(2.54494e-07 -3.60911e-08 -9.11841e-24)
(2.15881e-07 -3.99758e-08 1.10375e-27)
(1.62041e-07 -1.88564e-08 -1.81976e-23)
(8.71394e-08 -1.11172e-08 1.82586e-23)
(3.29673e-09 1.12081e-08 1.82307e-23)
(-9.13609e-08 2.68277e-08 -1.83619e-23)
(-1.88382e-07 5.09286e-08 -1.81502e-23)
(-2.86832e-07 7.1307e-08 -2.81013e-28)
(-3.79676e-07 1.00568e-07 0)
(-4.68507e-07 1.1827e-07 0)
(-5.42301e-07 1.44789e-07 0)
(-6.06292e-07 1.56412e-07 0)
(-6.38968e-07 1.77355e-07 -2.76144e-28)
(-6.56285e-07 1.76827e-07 2.79996e-28)
(-6.16365e-07 1.7647e-07 -1.80335e-23)
(-5.57012e-07 1.55669e-07 0)
(-3.88328e-07 1.19373e-07 1.78706e-23)
(-2.10175e-07 6.14845e-08 1.81624e-23)
(1.82722e-07 -4.7111e-08 -1.37595e-28)
(5.26775e-07 -1.58866e-07 -1.36432e-28)
(1.33102e-06 -4.11644e-07 1.38188e-28)
(1.87655e-06 -5.98494e-07 -6.85201e-29)
(3.53395e-06 -1.14853e-06 1.77202e-23)
(4.31968e-06 -1.4274e-06 -1.36501e-28)
(8.2529e-06 -2.78493e-06 1.02914e-28)
(9.29654e-06 -3.26304e-06 -1.84955e-23)
(2.49957e-05 -8.79558e-06 1.85185e-29)
(2.22665e-05 -3.66954e-05 8.69235e-23)
(-1.41618e-06 0.000916676 -1.57345e-29)
(1.22592e-05 0.000666434 4.90538e-25)
(4.09257e-05 0.000880991 -9.62593e-25)
(0.0001075 0.000955361 2.45425e-24)
(0.000301807 0.00101109 -1.17818e-26)
(0.000333946 0.000649127 -6.01449e-23)
(0.000292167 0.000519734 4.33949e-23)
(0.000318599 0.000476616 1.11041e-26)
(0.000276009 0.000358924 -1.17551e-26)
(0.000263707 0.000302833 2.19792e-26)
(0.000226073 0.000233306 -1.07992e-26)
(0.000202044 0.000189469 4.10521e-23)
(0.000171025 0.000147004 -1.75924e-26)
(0.000146524 0.00011631 -3.58966e-23)
(0.000122508 9.04272e-05 0)
(0.000101053 6.95368e-05 -1.42238e-26)
(8.22824e-05 5.31288e-05 -5.50464e-23)
(6.52148e-05 3.95444e-05 1.15611e-26)
(5.03626e-05 2.87814e-05 4.72597e-23)
(3.78805e-05 2.0491e-05 4.20647e-23)
(2.6392e-05 1.35203e-05 3.82012e-23)
(1.70121e-05 8.30572e-06 0)
(8.92855e-06 4.2074e-06 0)
(1.989e-06 1.01581e-06 6.00873e-23)
(-3.58253e-06 -1.29702e-06 -2.79508e-23)
(-8.25715e-06 -3.01159e-06 0)
(-1.20178e-05 -4.21042e-06 -4.77515e-23)
(-1.49047e-05 -4.97134e-06 -2.20272e-23)
(-1.72004e-05 -5.42848e-06 4.00786e-23)
(-1.88273e-05 -5.61173e-06 1.94214e-23)
(-1.99597e-05 -5.61417e-06 1.78405e-23)
(-2.069e-05 -5.46448e-06 -1.66062e-23)
(-2.10139e-05 -5.2067e-06 0)
(-2.10757e-05 -4.88974e-06 -6.61223e-28)
(-2.08784e-05 -4.50605e-06 1.41399e-23)
(-2.04804e-05 -4.11443e-06 1.71004e-27)
(-1.99486e-05 -3.70134e-06 -1.26733e-23)
(-1.92791e-05 -3.2819e-06 -1.23428e-23)
(-1.85345e-05 -2.88521e-06 -1.42264e-27)
(-1.77191e-05 -2.49669e-06 -1.1178e-23)
(-1.68525e-05 -2.13452e-06 -1.34185e-27)
(-1.5971e-05 -1.79516e-06 5.18152e-24)
(-1.50619e-05 -1.48036e-06 5.03686e-24)
(-1.41619e-05 -1.1941e-06 0)
(-1.32738e-05 -9.37104e-07 4.66431e-24)
(-1.24139e-05 -6.99433e-07 -4.58329e-24)
(-1.15962e-05 -4.99918e-07 1.07171e-27)
(-1.08182e-05 -3.11715e-07 -2.10417e-27)
(-1.00857e-05 -1.54848e-07 -1.04166e-24)
(-9.39298e-06 -1.34622e-08 0)
(-8.73103e-06 1.08411e-07 1.98791e-24)
(-8.09477e-06 2.08073e-07 -3.87103e-24)
(-7.53098e-06 2.91609e-07 2.35044e-24)
(-6.99944e-06 3.5059e-07 -1.14562e-27)
(-6.50594e-06 3.79944e-07 4.69438e-24)
(-6.00664e-06 4.06791e-07 -4.69887e-24)
(-5.49083e-06 4.15751e-07 0)
(-4.99659e-06 4.11964e-07 0)
(-4.49395e-06 4.0604e-07 0)
(-3.98922e-06 3.86547e-07 1.15158e-27)
(-3.48744e-06 3.67989e-07 -2.30849e-27)
(-2.99108e-06 3.30287e-07 1.15385e-27)
(-2.51135e-06 2.98555e-07 9.48157e-24)
(-2.05005e-06 2.55438e-07 -1.9035e-23)
(-1.61443e-06 2.167e-07 -1.02743e-27)
(-1.21646e-06 1.67443e-07 0)
(-8.54388e-07 1.29199e-07 0)
(-5.39739e-07 8.4782e-08 0)
(-2.7113e-07 5.04948e-08 -9.60282e-24)
(-5.34049e-08 1.26141e-08 0)
(1.13533e-07 -7.86016e-09 0)
(2.29886e-07 -3.83236e-08 -1.93804e-23)
(3.02176e-07 -3.34667e-08 -9.72959e-24)
(3.27616e-07 -4.88428e-08 0)
(3.17667e-07 -4.40332e-08 1.96265e-23)
(2.67012e-07 -4.84369e-08 5.94018e-28)
(1.9562e-07 -2.11067e-08 -1.63303e-27)
(9.65007e-08 -1.01858e-08 -3.93039e-23)
(-1.44386e-08 1.91083e-08 -1.9621e-23)
(-1.39743e-07 4.03127e-08 1.97628e-23)
(-2.683e-07 7.21757e-08 1.9534e-23)
(-3.98614e-07 9.95289e-08 1.98166e-23)
(-5.21688e-07 1.37936e-07 -2.97698e-28)
(-6.39103e-07 1.61878e-07 0)
(-7.36724e-07 1.96505e-07 0)
(-8.20859e-07 2.12354e-07 0)
(-8.6365e-07 2.39207e-07 0)
(-8.85463e-07 2.38822e-07 0)
(-8.31242e-07 2.37286e-07 1.94089e-23)
(-7.50659e-07 2.09648e-07 0)
(-5.25011e-07 1.60016e-07 -2.9316e-28)
(-2.85964e-07 8.26125e-08 1.49718e-28)
(2.38377e-07 -6.33653e-08 1.48097e-28)
(6.98573e-07 -2.13346e-07 0)
(1.77053e-06 -5.5074e-07 1.94632e-23)
(2.49968e-06 -8.02311e-07 -2.95533e-28)
(4.70653e-06 -1.53487e-06 -1.90715e-23)
(5.75569e-06 -1.91417e-06 7.34005e-29)
(1.09871e-05 -3.71968e-06 -1.91674e-23)
(1.23763e-05 -4.3853e-06 0)
(3.31781e-05 -1.17038e-05 0)
(2.92563e-05 -4.8589e-05 -4.67393e-23)
(2.50237e-06 0.00115319 0)
(1.53304e-05 0.000846354 -5.27349e-25)
(5.36319e-05 0.00111069 -6.9145e-27)
(0.000136693 0.00120388 -2.63589e-24)
(0.000378118 0.00127326 -2.18513e-23)
(0.000421055 0.000825796 0)
(0.000370139 0.000661069 1.29932e-26)
(0.000402945 0.000604835 -1.19319e-26)
(0.000350174 0.000457357 -1.26361e-26)
(0.000334524 0.000385533 3.54436e-26)
(0.000287358 0.000297725 -2.32229e-26)
(0.000256905 0.000241788 -8.83129e-23)
(0.000217755 0.000187885 7.9223e-23)
(0.00018668 0.000148735 3.86179e-23)
(0.000156238 0.00011577 -6.83887e-23)
(0.000128999 8.91199e-05 0)
(0.000105145 6.81733e-05 0)
(8.34428e-05 5.08244e-05 5.25073e-23)
(6.45459e-05 3.70669e-05 0)
(4.86466e-05 2.64593e-05 -4.527e-23)
(3.40161e-05 1.75406e-05 -9.75476e-27)
(2.20548e-05 1.08555e-05 9.77988e-27)
(1.1744e-05 5.60035e-06 0)
(2.88819e-06 1.50222e-06 -6.46566e-23)
(-4.22985e-06 -1.47327e-06 3.006e-23)
(-1.02045e-05 -3.68307e-06 6.44374e-27)
(-1.50154e-05 -5.2327e-06 5.13898e-23)
(-1.87136e-05 -6.22202e-06 2.37078e-23)
(-2.16577e-05 -6.82161e-06 -2.1574e-23)
(-2.37496e-05 -7.07024e-06 -2.08933e-23)
(-2.52101e-05 -7.08595e-06 4.60635e-27)
(-2.61573e-05 -6.9065e-06 1.78695e-23)
(-2.65862e-05 -6.58765e-06 0)
(-2.66796e-05 -6.19149e-06 -1.59875e-23)
(-2.64422e-05 -5.71e-06 -1.52122e-23)
(-2.5948e-05 -5.21669e-06 0)
(-2.52819e-05 -4.69535e-06 2.72861e-23)
(-2.44403e-05 -4.16548e-06 1.32792e-23)
(-2.35017e-05 -3.66369e-06 0)
(-2.24725e-05 -3.17164e-06 -2.91796e-27)
(-2.13774e-05 -2.7127e-06 2.8886e-27)
(-2.02627e-05 -2.28254e-06 -5.57618e-24)
(-1.91123e-05 -1.88328e-06 -5.42053e-24)
(-1.79731e-05 -1.52007e-06 0)
(-1.68485e-05 -1.19357e-06 -5.02089e-24)
(-1.57594e-05 -8.9228e-07 -8.00129e-28)
(-1.47236e-05 -6.37944e-07 0)
(-1.37376e-05 -3.99517e-07 0)
(-1.28091e-05 -1.99413e-07 1.12324e-24)
(-1.19307e-05 -2.00772e-08 -1.0694e-27)
(-1.10913e-05 1.35025e-07 -2.13973e-24)
(-1.02842e-05 2.61735e-07 2.08313e-24)
(-9.56874e-06 3.6832e-07 0)
(-8.89475e-06 4.42847e-07 -2.52694e-24)
(-8.26893e-06 4.80685e-07 5.05272e-24)
(-7.63588e-06 5.14713e-07 2.46904e-27)
(-6.98217e-06 5.2642e-07 -1.23181e-27)
(-6.35589e-06 5.21658e-07 1.23918e-27)
(-5.71932e-06 5.14455e-07 -1.23562e-27)
(-5.08031e-06 4.90084e-07 5.07399e-24)
(-4.44539e-06 4.66574e-07 -5.08608e-24)
(-3.81738e-06 4.19386e-07 0)
(-3.21053e-06 3.79455e-07 -1.02066e-23)
(-2.62714e-06 3.25332e-07 1.02431e-23)
(-2.07632e-06 2.7661e-07 1.02646e-23)
(-1.57308e-06 2.1492e-07 1.25249e-27)
(-1.11527e-06 1.6678e-07 1.03003e-23)
(-7.17381e-07 1.11156e-07 0)
(-3.77639e-07 6.81443e-08 0)
(-1.02071e-07 2.09341e-08 1.03941e-23)
(1.09137e-07 -4.92122e-09 -6.32145e-28)
(2.56869e-07 -4.23006e-08 1.0429e-23)
(3.48515e-07 -3.73073e-08 0)
(3.81265e-07 -5.55033e-08 -6.39171e-28)
(3.69212e-07 -4.95743e-08 -1.0561e-23)
(3.06105e-07 -5.40841e-08 6.39363e-28)
(2.16293e-07 -2.04999e-08 2.10791e-23)
(9.17538e-08 -5.82792e-09 2.11513e-23)
(-4.78124e-08 3.06812e-08 -9.18327e-28)
(-2.05398e-07 5.80388e-08 6.4908e-28)
(-3.67203e-07 9.8135e-08 -2.10263e-23)
(-5.31062e-07 1.33037e-07 -2.13268e-23)
(-6.86016e-07 1.80927e-07 -5.70919e-31)
(-8.33399e-07 2.11705e-07 2.12797e-23)
(-9.55983e-07 2.54656e-07 3.20357e-28)
(-1.06094e-06 2.75185e-07 -6.48354e-28)
(-1.11397e-06 3.07788e-07 3.20396e-28)
(-1.13973e-06 3.07667e-07 0)
(-1.06951e-06 3.04298e-07 2.08904e-23)
(-9.65183e-07 2.69297e-07 2.12691e-23)
(-6.77777e-07 2.04671e-07 2.07035e-23)
(-3.72377e-07 1.06124e-07 -2.10428e-23)
(2.93415e-07 -8.05964e-08 0)
(8.79234e-07 -2.72196e-07 -1.58053e-28)
(2.23828e-06 -7.00581e-07 -4.18957e-23)
(3.16541e-06 -1.02297e-06 0)
(5.95993e-06 -1.95081e-06 2.05301e-23)
(7.29261e-06 -2.44189e-06 2.08507e-23)
(1.39092e-05 -4.72537e-06 -1.24894e-27)
(1.56677e-05 -5.60727e-06 0)
(4.18706e-05 -1.48095e-05 -2.14354e-29)
(3.67039e-05 -6.12297e-05 -2.50976e-23)
(6.02991e-06 0.00140263 0)
(1.855e-05 0.00103965 0)
(6.79847e-05 0.00135392 1.11756e-24)
(0.000168144 0.00146681 -9.40352e-27)
(0.000457904 0.00155028 4.69185e-23)
(0.000513342 0.00101629 -1.26341e-28)
(0.000453538 0.00081352 1.43766e-28)
(0.00049289 0.000742537 1.28196e-26)
(0.000429767 0.000563909 5.41499e-23)
(0.000410515 0.000474925 0)
(0.000353386 0.000367674 0)
(0.00031606 0.00029861 4.74932e-23)
(0.000268278 0.000232416 -8.52026e-23)
(0.000230154 0.000184097 -4.1605e-23)
(0.000192826 0.000143469 7.35914e-23)
(0.000159372 0.000110568 -6.93223e-23)
(0.000130044 8.46883e-05 6.37794e-23)
(0.000103343 6.32444e-05 -5.64917e-23)
(8.00794e-05 4.62241e-05 -1.37632e-26)
(6.04823e-05 3.30865e-05 0)
(4.24528e-05 2.20411e-05 1.04984e-26)
(2.76918e-05 1.37447e-05 -2.04784e-26)
(1.49639e-05 7.22111e-06 9.40246e-27)
(4.02679e-06 2.12644e-06 3.47934e-23)
(-4.77472e-06 -1.5801e-06 7.7053e-27)
(-1.21656e-05 -4.3379e-06 2.91122e-23)
(-1.81229e-05 -6.27778e-06 -2.76418e-23)
(-2.27089e-05 -7.52363e-06 -2.81433e-28)
(-2.63638e-05 -8.28552e-06 -2.32228e-23)
(-2.89678e-05 -8.61205e-06 -5.60779e-27)
(-3.07918e-05 -8.64803e-06 4.95805e-27)
(-3.19817e-05 -8.44161e-06 -1.9243e-23)
(-3.25317e-05 -8.06111e-06 1.85669e-23)
(-3.26659e-05 -7.58288e-06 -1.72119e-23)
(-3.23916e-05 -6.999e-06 1.02863e-28)
(-3.17992e-05 -6.39811e-06 7.66384e-27)
(-3.09933e-05 -5.76196e-06 -1.4685e-23)
(-2.99703e-05 -5.11465e-06 -1.43042e-23)
(-2.88267e-05 -4.50067e-06 1.3608e-23)
(-2.75704e-05 -3.89799e-06 1.29521e-23)
(-2.62322e-05 -3.33545e-06 -3.06962e-27)
(-2.48688e-05 -2.80804e-06 3.32017e-29)
(-2.3461e-05 -2.31816e-06 5.83842e-24)
(-2.20663e-05 -1.87246e-06 0)
(-2.0689e-05 -1.47114e-06 2.63298e-27)
(-1.93549e-05 -1.1016e-06 -3.57274e-27)
(-1.80856e-05 -7.88039e-07 2.5434e-24)
(-1.6877e-05 -4.95657e-07 2.50059e-24)
(-1.57388e-05 -2.48867e-07 -1.18018e-27)
(-1.46614e-05 -2.85687e-08 4.1525e-31)
(-1.36316e-05 1.62379e-07 1.15262e-24)
(-1.26412e-05 3.18252e-07 0)
(-1.1763e-05 4.49693e-07 0)
(-1.09363e-05 5.40929e-07 5.43687e-24)
(-1.01686e-05 5.88028e-07 1.14902e-27)
(-9.39224e-06 6.29847e-07 0)
(-8.59099e-06 6.44637e-07 -5.43407e-24)
(-7.82353e-06 6.38985e-07 1.33054e-27)
(-7.04398e-06 6.30447e-07 -1.33268e-27)
(-6.26173e-06 6.01121e-07 -1.09209e-23)
(-5.48494e-06 5.72306e-07 1.09498e-23)
(-4.71678e-06 5.15354e-07 -1.33679e-27)
(-3.97468e-06 4.66763e-07 1.09847e-23)
(-3.26147e-06 4.01243e-07 1.34686e-27)
(-2.58824e-06 3.41988e-07 -1.34793e-27)
(-1.97311e-06 2.67449e-07 1.35093e-27)
(-1.41361e-06 2.08889e-07 -1.10883e-23)
(-9.27236e-07 1.41696e-07 1.11376e-23)
(-5.11897e-07 8.95507e-08 -1.35703e-27)
(-1.74754e-07 3.28002e-08 -1.11858e-23)
(8.36091e-08 1.26e-09 0)
(2.64952e-07 -4.28827e-08 0)
(3.77292e-07 -3.81887e-08 0)
(4.18144e-07 -5.88353e-08 6.8794e-28)
(4.04112e-07 -5.17594e-08 -6.93293e-28)
(3.28185e-07 -5.59391e-08 0)
(2.19107e-07 -1.60392e-08 -2.26908e-23)
(6.7985e-08 3.00371e-09 2.27652e-23)
(-1.01702e-07 4.7023e-08 2.27277e-23)
(-2.93186e-07 8.11056e-08 2.28943e-23)
(-4.89936e-07 1.29943e-07 -2.57305e-28)
(-6.88998e-07 1.72982e-07 2.29557e-23)
(-8.77442e-07 2.30713e-07 0)
(-1.05613e-06 2.68917e-07 1.60487e-27)
(-1.20472e-06 3.2042e-07 0)
(-1.33107e-06 3.46059e-07 -2.28664e-23)
(-1.39428e-06 3.84227e-07 0)
(-1.42323e-06 3.8442e-07 -3.48456e-28)
(-1.33497e-06 3.78495e-07 -2.24832e-23)
(-1.20402e-06 3.35462e-07 -2.28907e-23)
(-8.49534e-07 2.54027e-07 -2.22831e-23)
(-4.71727e-07 1.32462e-07 2.26479e-23)
(3.46373e-07 -9.86282e-08 0)
(1.06818e-06 -3.35633e-07 0)
(2.73503e-06 -8.61871e-07 4.50935e-23)
(3.87574e-06 -1.26182e-06 2.24872e-23)
(7.29843e-06 -2.39857e-06 -4.41942e-23)
(8.93631e-06 -3.01402e-06 2.12721e-27)
(1.70297e-05 -5.80711e-06 4.44091e-23)
(1.91826e-05 -6.93822e-06 4.30511e-29)
(5.10942e-05 -1.81239e-05 -2.18668e-23)
(4.46378e-05 -7.46415e-05 1.08083e-22)
(9.04364e-06 0.00166528 0)
(2.19315e-05 0.00124716 6.07603e-25)
(8.41603e-05 0.00161114 5.05491e-27)
(0.000202013 0.00174458 -5.70067e-27)
(0.000541153 0.00184254 -6.07523e-26)
(0.000610987 0.00122157 7.40373e-23)
(0.000542673 0.000977956 -2.99846e-26)
(0.00058874 0.000890401 -2.03653e-27)
(0.000515154 0.000679264 -5.81755e-23)
(0.000492036 0.000571575 2.2689e-30)
(0.000424522 0.000443661 5.3441e-23)
(0.000379849 0.000360358 -5.10606e-23)
(0.000322916 0.000280957 0)
(0.000277237 0.00022269 4.47104e-23)
(0.000232536 0.000173771 7.91786e-23)
(0.000192402 0.000134082 7.46108e-23)
(0.000157178 0.000102838 -6.85978e-23)
(0.000125088 7.69364e-05 6.07889e-23)
(9.71083e-05 5.63582e-05 0)
(7.35084e-05 4.04561e-05 1.24383e-26)
(5.18008e-05 2.70867e-05 -1.19871e-26)
(3.40017e-05 1.70228e-05 0)
(1.86494e-05 9.10685e-06 0)
(5.45013e-06 2.91548e-06 0)
(-5.18523e-06 -1.59862e-06 0)
(-1.41203e-05 -4.96368e-06 -3.13393e-23)
(-2.13298e-05 -7.33834e-06 0)
(-2.68882e-05 -8.87276e-06 0)
(-3.13232e-05 -9.81977e-06 4.99901e-23)
(-3.44922e-05 -1.02389e-05 -6.03603e-27)
(-3.67192e-05 -1.03037e-05 5.33667e-27)
(-3.81809e-05 -1.00741e-05 2.07033e-23)
(-3.88706e-05 -9.63202e-06 -1.99741e-23)
(-3.90569e-05 -9.06915e-06 -4.83625e-27)
(-3.87498e-05 -8.37834e-06 1.76358e-23)
(-3.8058e-05 -7.66387e-06 4.0776e-27)
(-3.71069e-05 -6.90612e-06 1.5799e-23)
(-3.58935e-05 -6.13404e-06 1.53929e-23)
(-3.4533e-05 -5.40043e-06 -1.46331e-23)
(-3.30359e-05 -4.67962e-06 -1.39416e-23)
(-3.14393e-05 -4.00624e-06 -3.34662e-27)
(-2.98111e-05 -3.3747e-06 3.13822e-27)
(-2.81289e-05 -2.78765e-06 -1.72194e-27)
(-2.64615e-05 -2.25348e-06 0)
(-2.48144e-05 -1.77164e-06 0)
(-2.32184e-05 -1.32886e-06 1.14331e-23)
(-2.16997e-05 -9.51372e-07 3.47475e-27)
(-2.0253e-05 -6.00982e-07 -2.69111e-24)
(-1.88901e-05 -3.03804e-07 0)
(-1.75995e-05 -3.93152e-08 0)
(-1.63657e-05 1.90305e-07 0)
(-1.51787e-05 3.77667e-07 0)
(-1.4126e-05 5.35919e-07 2.93279e-24)
(-1.31356e-05 6.45132e-07 -5.85229e-24)
(-1.22157e-05 7.02331e-07 -5.85337e-24)
(-1.1286e-05 7.52622e-07 -5.86063e-24)
(-1.0327e-05 7.7088e-07 5.84675e-24)
(-9.40871e-06 7.64454e-07 -5.87888e-24)
(-8.47667e-06 7.54554e-07 1.43451e-27)
(-7.54181e-06 7.20211e-07 5.87629e-24)
(-6.61409e-06 6.85773e-07 -5.89341e-24)
(-5.6969e-06 6.18797e-07 1.18112e-23)
(-4.81118e-06 5.61124e-07 1.4465e-27)
(-3.96015e-06 4.83835e-07 4.13864e-30)
(-3.15707e-06 4.1354e-07 -1.45085e-27)
(-2.42326e-06 3.25762e-07 -1.45409e-27)
(-1.75591e-06 2.56309e-07 -3.751e-30)
(-1.17568e-06 1.77212e-07 -2.3967e-23)
(-6.80133e-07 1.1558e-07 -1.1974e-23)