/*--------------------------------*- C++ -*----------------------------------*\
| =========                 |                                                 |
| \\      /  F ield         | OpenFOAM: The Open Source CFD Toolbox           |
|  \\    /   O peration     | Version:  5.x                                   |
|   \\  /    A nd           | Web:      www.OpenFOAM.org                      |
|    \\/     M anipulation  |                                                 |
\*---------------------------------------------------------------------------*/
FoamFile
{
    version     2.0;
    format      ascii;
    class       volVectorField;
    location    "1500";
    object      U;
}
// * * * * * * * * * * * * * * * * * * * * * * * * * * * * * * * * * * * * * //

dimensions      [0 1 -1 0 0 0 0];

internalField   nonuniform List<vector> 
107912
(
(3.60452e-08 1.13134e-06 -1.24128e-30)
(1.52714e-08 7.85442e-07 1.18514e-30)
(4.03781e-08 1.01351e-06 4.1663e-27)
(1.20688e-07 1.10619e-06 1.58406e-26)
(3.91127e-07 1.2857e-06 2.83957e-26)
(4.89747e-07 9.21066e-07 4.15704e-26)
(4.56456e-07 8.00852e-07 -7.0124e-27)
(5.1148e-07 7.56144e-07 2.11677e-30)
(4.95536e-07 6.34226e-07 -4.1873e-30)
(5.02129e-07 5.69374e-07 -5.33153e-30)
(4.77141e-07 4.85363e-07 -5.78472e-30)
(4.64893e-07 4.30358e-07 4.74922e-26)
(4.3917e-07 3.72267e-07 8.95065e-26)
(4.2007e-07 3.2899e-07 4.09191e-29)
(3.97158e-07 2.89046e-07 -8.96119e-26)
(3.7641e-07 2.55256e-07 9.06462e-26)
(3.55949e-07 2.26304e-07 1.06985e-29)
(3.36401e-07 2.00572e-07 0)
(3.17667e-07 1.78204e-07 -1.6544e-25)
(3.007e-07 1.5926e-07 -7.6883e-26)
(2.83708e-07 1.41635e-07 0)
(2.68145e-07 1.26593e-07 0)
(2.53611e-07 1.13266e-07 -6.57247e-26)
(2.39416e-07 1.00999e-07 6.3032e-26)
(2.26339e-07 9.04391e-08 5.99095e-26)
(2.14026e-07 8.08503e-08 1.10232e-25)
(2.02069e-07 7.20796e-08 -5.31967e-26)
(1.91132e-07 6.44965e-08 4.94795e-26)
(1.80555e-07 5.74283e-08 -4.53557e-26)
(1.70513e-07 5.10957e-08 -4.39121e-26)
(1.61291e-07 4.55397e-08 4.01085e-26)
(1.52264e-07 4.03044e-08 0)
(1.43759e-07 3.56611e-08 -3.50845e-26)
(1.35834e-07 3.15002e-08 3.78646e-30)
(1.28107e-07 2.76269e-08 -3.70713e-30)
(1.20898e-07 2.42198e-08 5.40849e-31)
(1.1406e-07 2.1096e-08 2.46263e-26)
(1.07464e-07 1.82394e-08 -2.48666e-31)
(1.01323e-07 1.57212e-08 -2.43155e-30)
(9.53936e-08 1.33876e-08 -1.85441e-26)
(8.97756e-08 1.13074e-08 2.15437e-30)
(8.44869e-08 9.44221e-09 0)
(7.93874e-08 7.73776e-09 0)
(7.45984e-08 6.23567e-09 -5.87687e-27)
(7.00073e-08 4.87254e-09 0)
(6.56642e-08 3.66321e-09 -8.85425e-27)
(6.15453e-08 2.59083e-09 -1.85547e-27)
(5.76218e-08 1.6324e-09 -1.55034e-27)
(5.39077e-08 7.9458e-10 0)
(5.03771e-08 5.51356e-11 0)
(4.70288e-08 -5.89011e-10 -3.50328e-28)
(4.38612e-08 -1.1444e-09 -2.21043e-31)
(4.11494e-08 -1.61194e-09 -3.01236e-28)
(3.87331e-08 -1.91567e-09 -7.83503e-29)
(3.6672e-08 -2.12879e-09 2.67668e-28)
(3.47012e-08 -2.3426e-09 -6.70746e-28)
(3.28371e-08 -2.47691e-09 2.13418e-27)
(3.12195e-08 -2.5658e-09 1.9951e-31)
(2.9708e-08 -2.65756e-09 -1.81307e-27)
(2.83035e-08 -2.72827e-09 2.16818e-27)
(2.70099e-08 -2.79272e-09 0)
(2.57861e-08 -2.84206e-09 5.6832e-27)
(2.46645e-08 -2.88058e-09 -3.66476e-31)
(2.36054e-08 -2.91572e-09 -6.9438e-27)
(2.2615e-08 -2.93772e-09 -4.42644e-31)
(2.16975e-08 -2.95597e-09 8.1253e-27)
(2.08272e-08 -2.97032e-09 2.56921e-31)
(2.00202e-08 -2.97674e-09 0)
(1.92615e-08 -2.98493e-09 9.78056e-27)
(1.85457e-08 -2.98597e-09 0)
(1.78864e-08 -2.98547e-09 1.08182e-26)
(1.72632e-08 -2.98657e-09 2.26948e-26)
(1.66919e-08 -2.98348e-09 0)
(1.61653e-08 -2.98611e-09 -3.82558e-31)
(1.56845e-08 -2.98807e-09 3.85533e-31)
(1.52624e-08 -2.99493e-09 4.11354e-31)
(1.48932e-08 -3.01039e-09 -2.75819e-26)
(1.45963e-08 -3.03165e-09 5.70132e-26)
(1.43761e-08 -3.07077e-09 0)
(1.42483e-08 -3.12298e-09 0)
(1.42367e-08 -3.20336e-09 -3.111e-26)
(1.43513e-08 -3.31091e-09 3.24975e-26)
(1.46468e-08 -3.46252e-09 -3.29175e-26)
(1.51197e-08 -3.66256e-09 -5.23748e-31)
(1.58818e-08 -3.93725e-09 2.62222e-31)
(1.6882e-08 -4.28547e-09 -3.61359e-26)
(1.8369e-08 -4.76779e-09 -2.14415e-30)
(2.01387e-08 -5.34827e-09 -6.50653e-33)
(2.27851e-08 -6.18336e-09 2.88783e-31)
(2.5655e-08 -7.11732e-09 3.9636e-26)
(3.025e-08 -8.57485e-09 0)
(3.46714e-08 -1.00392e-08 3.13345e-31)
(4.28106e-08 -1.26662e-08 -4.66902e-31)
(4.92267e-08 -1.48697e-08 1.54693e-31)
(6.4444e-08 -1.98724e-08 4.69412e-30)
(7.31795e-08 -2.30568e-08 3.71053e-26)
(1.04326e-07 -3.35332e-08 -4.39008e-26)
(1.16191e-07 -3.81543e-08 5.49028e-26)
(1.92404e-07 -6.44491e-08 1.13983e-31)
(2.11764e-07 -7.25258e-08 2.21059e-27)
(5.13093e-07 -1.79059e-07 3.91377e-30)
(5.80537e-07 -5.58655e-07 5.08455e-25)
(1.05326e-07 3.45562e-06 0)
(4.52895e-08 2.42257e-06 0)
(1.28459e-07 3.11044e-06 -3.07884e-29)
(3.74218e-07 3.38991e-06 -5.03924e-26)
(1.19397e-06 3.92973e-06 -2.24806e-26)
(1.49779e-06 2.83118e-06 0)
(1.40088e-06 2.46323e-06 -3.47482e-30)
(1.56853e-06 2.32242e-06 -6.47887e-26)
(1.52105e-06 1.95114e-06 -4.33754e-26)
(1.54149e-06 1.75091e-06 -1.69478e-29)
(1.46575e-06 1.49389e-06 1.66558e-29)
(1.42828e-06 1.32433e-06 -7.56959e-26)
(1.34979e-06 1.14611e-06 -1.42304e-25)
(1.29122e-06 1.01281e-06 7.65531e-26)
(1.22105e-06 8.90026e-07 -1.73996e-29)
(1.15739e-06 7.86006e-07 0)
(1.09459e-06 6.96909e-07 1.38699e-25)
(1.03456e-06 6.17688e-07 -1.30431e-25)
(9.77022e-07 5.48834e-07 1.31844e-25)
(9.24874e-07 4.90492e-07 1.22467e-25)
(8.72667e-07 4.36237e-07 -1.16019e-25)
(8.24823e-07 3.89912e-07 -1.3704e-29)
(7.80132e-07 3.4887e-07 6.25149e-29)
(7.36495e-07 3.11099e-07 -1.24205e-29)
(6.96278e-07 2.78575e-07 -9.55206e-26)
(6.58408e-07 2.49044e-07 -1.75676e-25)
(6.21638e-07 2.22038e-07 -1.05278e-29)
(5.87994e-07 1.98679e-07 0)
(5.55458e-07 1.76913e-07 8.6423e-30)
(5.24572e-07 1.57411e-07 7.00092e-26)
(4.96197e-07 1.40298e-07 -8.245e-30)
(4.6843e-07 1.24177e-07 5.90124e-26)
(4.42264e-07 1.09876e-07 1.1187e-25)
(4.1788e-07 9.70602e-08 0)
(3.94108e-07 8.51329e-08 0)
(3.71926e-07 7.46384e-08 4.35605e-26)
(3.50885e-07 6.50179e-08 -3.01244e-31)
(3.30593e-07 5.6221e-08 -3.65197e-26)
(3.11695e-07 4.84647e-08 3.87693e-30)
(2.93451e-07 4.12779e-08 -3.74768e-30)
(2.76164e-07 3.48714e-08 0)
(2.5989e-07 2.91267e-08 -1.1915e-26)
(2.44198e-07 2.38777e-08 2.52873e-31)
(2.29461e-07 1.92512e-08 2.41237e-30)
(2.15334e-07 1.50531e-08 0)
(2.01969e-07 1.13285e-08 7.05759e-27)
(1.89294e-07 8.02567e-09 2.96081e-27)
(1.77221e-07 5.0739e-09 -6.57238e-31)
(1.65791e-07 2.49345e-09 -9.93338e-28)
(1.54927e-07 2.16044e-10 0)
(1.44623e-07 -1.76789e-09 -1.10858e-31)
(1.34876e-07 -3.47848e-09 7.16918e-28)
(1.26531e-07 -4.91773e-09 9.61183e-28)
(1.19097e-07 -5.8542e-09 1.25006e-28)
(1.12753e-07 -6.51203e-09 -4.26899e-28)
(1.06688e-07 -7.17063e-09 2.13849e-27)
(1.00953e-07 -7.58559e-09 -1.70119e-27)
(9.59727e-08 -7.86064e-09 0)
(9.13204e-08 -8.14372e-09 -2.88939e-27)
(8.69974e-08 -8.36205e-09 3.45597e-27)
(8.30157e-08 -8.56087e-09 -5.21386e-31)
(7.92493e-08 -8.71321e-09 -9.05873e-27)
(7.57969e-08 -8.83214e-09 -5.84294e-31)
(7.25372e-08 -8.9405e-09 0)
(6.94887e-08 -9.00844e-09 -1.20458e-26)
(6.66648e-08 -9.06476e-09 -1.29551e-26)
(6.39861e-08 -9.10898e-09 0)
(6.15025e-08 -9.12883e-09 1.47707e-26)
(5.91674e-08 -9.15399e-09 1.55943e-26)
(5.69644e-08 -9.1572e-09 0)
(5.49351e-08 -9.15561e-09 1.72495e-26)
(5.30174e-08 -9.15891e-09 -1.64408e-30)
(5.12591e-08 -9.14935e-09 1.89256e-26)
(4.96385e-08 -9.15737e-09 -5.86461e-31)
(4.81593e-08 -9.16337e-09 0)
(4.68602e-08 -9.18448e-09 -4.22363e-26)
(4.57241e-08 -9.23211e-09 4.39777e-26)
(4.48107e-08 -9.29771e-09 -9.09086e-26)
(4.41333e-08 -9.41826e-09 0)
(4.37399e-08 -9.57934e-09 4.86945e-26)
(4.37041e-08 -9.82713e-09 2.23168e-30)
(4.40564e-08 -1.01588e-08 -3.28857e-30)
(4.49648e-08 -1.06263e-08 5.24907e-26)
(4.6419e-08 -1.12431e-08 -5.47191e-26)
(4.87619e-08 -1.20897e-08 5.55394e-26)
(5.18376e-08 -1.31635e-08 -4.45241e-31)
(5.64078e-08 -1.46495e-08 -1.16919e-25)
(6.18501e-08 -1.64394e-08 -6.0473e-26)
(6.9982e-08 -1.90113e-08 0)
(7.88077e-08 -2.18917e-08 -4.88686e-31)
(9.2922e-08 -2.63783e-08 9.59286e-31)
(1.06522e-07 -3.08972e-08 6.42659e-26)
(1.31511e-07 -3.89778e-08 4.95156e-31)
(1.51256e-07 -4.57866e-08 -4.93237e-31)
(1.97949e-07 -6.11639e-08 6.87438e-26)
(2.2486e-07 -7.10318e-08 -5.91147e-26)
(3.20365e-07 -1.03212e-07 2.29312e-29)
(3.56967e-07 -1.17634e-07 -4.37561e-26)
(5.9047e-07 -1.98358e-07 -1.13365e-31)
(6.49919e-07 -2.24119e-07 -3.52513e-27)
(1.56839e-06 -5.49367e-07 -2.91614e-29)
(1.52371e-06 -1.75802e-06 -1.22817e-24)
(1.7095e-07 5.93264e-06 -7.26796e-28)
(7.56092e-08 4.19145e-06 -1.70046e-26)
(2.28987e-07 5.35962e-06 -7.07316e-27)
(6.51946e-07 5.83579e-06 2.70343e-26)
(2.04791e-06 6.75032e-06 -2.44843e-26)
(2.57268e-06 4.88692e-06 5.08551e-30)
(2.41377e-06 4.25265e-06 -3.36849e-30)
(2.70049e-06 4.00518e-06 1.39036e-25)
(2.62118e-06 3.36935e-06 9.30229e-26)
(2.65647e-06 3.0226e-06 1.46337e-29)
(2.52751e-06 2.58072e-06 0)
(2.46304e-06 2.28745e-06 1.98266e-29)
(2.32854e-06 1.98033e-06 3.05902e-25)
(2.22766e-06 1.7499e-06 0)
(2.10698e-06 1.53799e-06 -1.89004e-29)
(1.9973e-06 1.35825e-06 1.87599e-29)
(1.88911e-06 1.20434e-06 -1.49216e-25)
(1.78561e-06 1.06746e-06 1.40325e-25)
(1.68641e-06 9.48495e-07 0)
(1.59644e-06 8.4766e-07 -1.31792e-25)
(1.5064e-06 7.53921e-07 1.24855e-25)
(1.42384e-06 6.73853e-07 1.22124e-25)
(1.34671e-06 6.02924e-07 2.25324e-25)
(1.27141e-06 5.37657e-07 2.63416e-29)
(1.20199e-06 4.8144e-07 -2.51054e-29)
(1.13661e-06 4.30405e-07 9.45322e-26)
(1.07315e-06 3.8374e-07 0)
(1.01506e-06 3.43365e-07 1.01761e-29)
(9.58892e-07 3.05753e-07 -9.6761e-30)
(9.05571e-07 2.72051e-07 -9.00376e-30)
(8.56573e-07 2.42473e-07 -2.51246e-30)
(8.08633e-07 2.14618e-07 -1.27001e-25)
(7.63455e-07 1.89903e-07 -6.01832e-26)
(7.21347e-07 1.67756e-07 -6.84435e-30)
(6.80302e-07 1.47148e-07 6.01383e-30)
(6.41998e-07 1.29011e-07 -5.89497e-30)
(6.05661e-07 1.12387e-07 0)
(5.70624e-07 9.71877e-08 4.63754e-30)
(5.37987e-07 8.37844e-08 -8.65194e-30)
(5.06482e-07 7.13674e-08 3.18222e-26)
(4.76631e-07 6.02976e-08 3.40541e-30)
(4.48525e-07 5.03719e-08 1.28166e-26)
(4.21429e-07 4.13033e-08 0)
(3.95978e-07 3.33098e-08 0)
(3.71581e-07 2.60572e-08 -8.73056e-27)
(3.48501e-07 1.96227e-08 1.97983e-30)
(3.26613e-07 1.3917e-08 1.43886e-30)
(3.05762e-07 8.8182e-09 -1.41472e-30)
(2.86025e-07 4.36088e-09 1.06999e-27)
(2.67263e-07 4.27371e-10 -9.13909e-31)
(2.4947e-07 -2.99905e-09 6.01561e-28)
(2.32636e-07 -5.95301e-09 -7.71856e-28)
(2.18226e-07 -8.43711e-09 -5.17066e-28)
(2.05394e-07 -1.00555e-08 1.35052e-28)
(1.94434e-07 -1.11928e-08 -4.58239e-28)
(1.83962e-07 -1.23295e-08 -1.15053e-27)
(1.74058e-07 -1.30472e-08 0)
(1.65456e-07 -1.35232e-08 -2.48914e-27)
(1.57421e-07 -1.40117e-08 3.11008e-27)
(1.49954e-07 -1.43887e-08 -3.72035e-27)
(1.43077e-07 -1.47315e-08 4.31065e-27)
(1.36573e-07 -1.49941e-08 9.7512e-27)
(1.3061e-07 -1.51989e-08 -1.32383e-30)
(1.2498e-07 -1.53852e-08 -1.19143e-26)
(1.19715e-07 -1.55019e-08 2.5928e-26)
(1.14838e-07 -1.55983e-08 1.39429e-26)
(1.10212e-07 -1.56738e-08 0)
(1.05922e-07 -1.57072e-08 -1.58969e-26)
(1.01889e-07 -1.57496e-08 -3.35655e-26)
(9.8085e-08 -1.57543e-08 0)
(9.45805e-08 -1.57506e-08 -1.85648e-26)
(9.12689e-08 -1.57553e-08 -1.94736e-26)
(8.82326e-08 -1.5738e-08 6.44427e-32)
(8.54342e-08 -1.5751e-08 -6.56469e-31)
(8.28802e-08 -1.57606e-08 1.34814e-30)
(8.06372e-08 -1.57964e-08 4.54565e-26)
(7.86759e-08 -1.58781e-08 -4.73329e-26)
(7.7099e-08 -1.59911e-08 4.89204e-26)
(7.59297e-08 -1.61991e-08 5.03873e-26)
(7.5251e-08 -1.64775e-08 -5.24081e-26)
(7.51895e-08 -1.69058e-08 5.33864e-26)
(7.57984e-08 -1.74796e-08 -5.57665e-26)
(7.73666e-08 -1.82879e-08 -8.49825e-31)
(7.98777e-08 -1.93552e-08 5.88922e-26)
(8.39215e-08 -2.08194e-08 -5.97743e-26)
(8.92315e-08 -2.26773e-08 -9.34902e-31)
(9.71176e-08 -2.52466e-08 6.29166e-26)
(1.06513e-07 -2.83442e-08 6.50837e-26)
(1.2054e-07 -3.2789e-08 4.95505e-31)
(1.35776e-07 -3.77755e-08 0)
(1.60115e-07 -4.55243e-08 6.81843e-26)
(1.83595e-07 -5.33533e-08 -1.63971e-29)
(2.26667e-07 -6.72981e-08 0)
(2.60767e-07 -7.91126e-08 0)
(3.41206e-07 -1.05625e-07 0)
(3.8772e-07 -1.22807e-07 6.36233e-26)
(5.52147e-07 -1.78242e-07 7.53199e-26)
(6.15466e-07 -2.03553e-07 0)
(1.01719e-06 -3.42512e-07 0)
(1.11954e-06 -3.88763e-07 4.47698e-27)
(2.69427e-06 -9.4577e-07 -9.8435e-26)
(2.55008e-06 -2.98151e-06 -1.28368e-24)
(2.36334e-07 8.57028e-06 7.95373e-28)
(1.06024e-07 6.10239e-06 1.8272e-26)
(3.43768e-07 7.77108e-06 -3.30041e-29)
(9.56336e-07 8.45399e-06 2.27165e-29)
(2.95543e-06 9.75709e-06 0)
(3.71775e-06 7.09887e-06 7.29419e-26)
(3.49943e-06 6.17853e-06 1.38425e-26)
(3.91205e-06 5.81263e-06 -7.45775e-26)
(3.80078e-06 4.8965e-06 -4.98885e-26)
(3.85204e-06 4.39115e-06 0)
(3.6674e-06 3.75187e-06 0)
(3.57407e-06 3.32498e-06 0)
(3.38016e-06 2.87962e-06 -1.6441e-25)
(3.23398e-06 2.54439e-06 0)
(3.05935e-06 2.2366e-06 -2.03101e-29)
(2.90035e-06 1.97523e-06 2.01593e-29)
(2.74349e-06 1.75148e-06 1.60218e-25)
(2.59334e-06 1.55244e-06 1.83708e-29)
(2.44942e-06 1.37945e-06 -1.52334e-25)
(2.31879e-06 1.23278e-06 0)
(2.1881e-06 1.09648e-06 -1.34214e-25)
(2.06822e-06 9.80014e-07 -1.31374e-25)
(1.95619e-06 8.76853e-07 -1.21209e-25)
(1.84685e-06 7.81944e-07 -1.16199e-25)
(1.74601e-06 7.00169e-07 1.32949e-29)
(1.65103e-06 6.25945e-07 -4.0052e-31)
(1.55886e-06 5.58085e-07 9.80998e-26)
(1.47445e-06 4.99355e-07 0)
(1.39284e-06 4.44658e-07 -8.36705e-26)
(1.31538e-06 3.95645e-07 -1.01037e-29)
(1.24417e-06 3.52625e-07 -1.48074e-25)
(1.17452e-06 3.12122e-07 1.36664e-25)
(1.10887e-06 2.76179e-07 -8.10575e-30)
(1.04767e-06 2.43972e-07 5.87773e-26)
(9.88034e-07 2.14006e-07 -1.33142e-29)
(9.32369e-07 1.87631e-07 6.34321e-30)
(8.7956e-07 1.6346e-07 0)
(8.28646e-07 1.4136e-07 4.99041e-30)
(7.81213e-07 1.2187e-07 -4.82078e-30)
(7.35429e-07 1.03818e-07 -5.80889e-30)
(6.92047e-07 8.77237e-08 3.97803e-30)
(6.51199e-07 7.32935e-08 0)
(6.11822e-07 6.01109e-08 0)
(5.74834e-07 4.84908e-08 2.51197e-30)
(5.39377e-07 3.79491e-08 9.39125e-27)
(5.05835e-07 2.85967e-08 0)
(4.74025e-07 2.03045e-08 0)
(4.43723e-07 1.28951e-08 -1.279e-30)
(4.1504e-07 6.41839e-09 2.34068e-31)
(3.87774e-07 7.03662e-10 9.8365e-31)
(3.61916e-07 -4.27371e-09 -6.4762e-28)
(3.37454e-07 -8.56387e-09 8.30817e-28)
(3.16513e-07 -1.21693e-08 -5.57205e-28)
(2.97873e-07 -1.4521e-08 -1.45505e-28)
(2.81942e-07 -1.61744e-08 9.85683e-28)
(2.66725e-07 -1.78234e-08 -1.2374e-27)
(2.52335e-07 -1.88668e-08 3.90843e-31)
(2.39831e-07 -1.95587e-08 2.67889e-27)
(2.28152e-07 -2.0267e-08 4.48777e-31)
(2.17301e-07 -2.08133e-08 7.889e-32)
(2.07305e-07 -2.13094e-08 -4.63928e-27)
(1.97852e-07 -2.16891e-08 0)
(1.89185e-07 -2.19848e-08 1.168e-26)
(1.81003e-07 -2.2253e-08 1.32517e-30)
(1.73352e-07 -2.24205e-08 -1.32086e-30)
(1.66263e-07 -2.25582e-08 0)
(1.5954e-07 -2.26653e-08 -1.01222e-30)
(1.53306e-07 -2.27116e-08 2.08728e-30)
(1.47446e-07 -2.27705e-08 1.99395e-31)
(1.41918e-07 -2.27749e-08 0)
(1.36825e-07 -2.27671e-08 0)
(1.32013e-07 -2.27715e-08 -2.0956e-26)
(1.27601e-07 -2.2744e-08 -4.38361e-26)
(1.23535e-07 -2.27605e-08 0)
(1.19825e-07 -2.27725e-08 2.37757e-26)
(1.16566e-07 -2.28226e-08 -2.98548e-30)
(1.13717e-07 -2.29396e-08 5.09366e-26)
(1.11427e-07 -2.31026e-08 -5.26434e-26)
(1.0973e-07 -2.34037e-08 -5.42297e-26)
(1.08745e-07 -2.38078e-08 5.6397e-26)
(1.08658e-07 -2.44302e-08 5.74504e-26)
(1.09545e-07 -2.52648e-08 9.0285e-31)
(1.11825e-07 -2.64409e-08 0)
(1.15476e-07 -2.79946e-08 0)
(1.21352e-07 -3.01255e-08 0)
(1.29069e-07 -3.28313e-08 0)
(1.40524e-07 -3.65699e-08 1.04357e-30)
(1.54176e-07 -4.10822e-08 -1.05813e-30)
(1.74544e-07 -4.75472e-08 7.07718e-26)
(1.96682e-07 -5.48139e-08 0)
(2.32007e-07 -6.60775e-08 -7.33841e-26)
(2.66125e-07 -7.74958e-08 -7.4427e-26)
(3.28604e-07 -9.77481e-08 5.7522e-31)
(3.78173e-07 -1.15008e-07 5.78937e-31)
(4.94782e-07 -1.53475e-07 -5.86392e-31)
(5.62447e-07 -1.78665e-07 2.86319e-31)
(8.0065e-07 -2.59018e-07 -8.10024e-26)
(8.92838e-07 -2.96438e-07 5.12786e-31)
(1.47433e-06 -4.97692e-07 -3.39979e-31)
(1.62259e-06 -5.67666e-07 -4.81839e-27)
(3.89421e-06 -1.37026e-06 1.66663e-31)
(3.64271e-06 -4.29058e-06 1.84065e-24)
(3.01451e-07 1.13768e-05 5.01631e-30)
(1.36482e-07 8.16645e-06 9.83957e-27)
(4.7449e-07 1.03555e-05 8.03366e-27)
(1.28982e-06 1.12552e-05 -3.08415e-26)
(3.91909e-06 1.29599e-05 -2.7664e-30)
(4.93669e-06 9.47808e-06 -7.8436e-26)
(4.66255e-06 8.25086e-06 -1.49124e-26)
(5.20818e-06 7.7535e-06 7.68215e-30)
(5.0651e-06 6.54068e-06 -1.79378e-29)
(5.13357e-06 5.86368e-06 3.76561e-29)
(4.8908e-06 5.01375e-06 -2.05252e-29)
(4.76666e-06 4.44256e-06 9.33453e-26)
(4.50981e-06 3.84898e-06 -4.42699e-29)
(4.31513e-06 3.40067e-06 -9.46579e-26)
(4.08291e-06 2.98977e-06 0)
(3.87106e-06 2.6404e-06 -4.35037e-29)
(3.66205e-06 2.34139e-06 -1.72358e-25)
(3.46184e-06 2.07533e-06 3.92366e-29)
(3.26991e-06 1.84411e-06 1.639e-25)
(3.09559e-06 1.648e-06 1.52226e-25)
(2.92124e-06 1.46583e-06 1.44377e-25)
(2.76123e-06 1.3101e-06 0)
(2.61166e-06 1.17218e-06 0)
(2.46572e-06 1.04531e-06 2.50042e-25)
(2.33108e-06 9.35968e-07 -1.18874e-25)
(2.20424e-06 8.36737e-07 0)
(2.08117e-06 7.46027e-07 -2.11116e-25)
(1.96844e-06 6.67498e-07 -9.81728e-26)
(1.85945e-06 5.94384e-07 1.8005e-25)
(1.75599e-06 5.28863e-07 8.71867e-26)
(1.66087e-06 4.71347e-07 7.96779e-26)
(1.56784e-06 4.17211e-07 -7.35356e-26)
(1.48016e-06 3.69164e-07 0)
(1.39841e-06 3.26111e-07 -2.33279e-29)
(1.31875e-06 2.86063e-07 5.8698e-26)
(1.24439e-06 2.50806e-07 7.21563e-30)
(1.17384e-06 2.18502e-07 -4.89138e-26)
(1.10583e-06 1.88968e-07 -4.54978e-26)
(1.04246e-06 1.6292e-07 -4.8312e-30)
(9.81299e-07 1.38798e-07 -3.6839e-26)
(9.23345e-07 1.17292e-07 -4.28083e-30)
(8.68773e-07 9.80108e-08 1.48461e-26)
(8.16172e-07 8.03991e-08 1.32909e-26)
(7.66758e-07 6.48747e-08 0)
(7.19392e-07 5.07932e-08 1.01071e-26)
(6.74584e-07 3.83015e-08 -8.7976e-27)
(6.32088e-07 2.7227e-08 1.66664e-30)
(5.9161e-07 1.73333e-08 -3.01525e-30)
(5.53293e-07 8.68593e-09 -1.23716e-27)
(5.16871e-07 1.05758e-09 0)
(4.82331e-07 -5.58519e-09 1.39408e-27)
(4.49656e-07 -1.13091e-08 -1.78855e-27)
(4.21684e-07 -1.61158e-08 5.99858e-28)
(3.96796e-07 -1.92547e-08 2.63597e-32)
(3.75511e-07 -2.1462e-08 -5.30094e-28)
(3.55186e-07 -2.36587e-08 1.33129e-27)
(3.35969e-07 -2.50513e-08 0)
(3.19262e-07 -2.59743e-08 0)
(3.0366e-07 -2.69165e-08 0)
(2.89164e-07 -2.76426e-08 -1.13437e-30)
(2.7581e-07 -2.83009e-08 2.4349e-30)
(2.63183e-07 -2.88039e-08 -1.29725e-30)
(2.51604e-07 -2.91945e-08 -1.25712e-26)
(2.40675e-07 -2.95479e-08 2.75967e-26)
(2.30454e-07 -2.97672e-08 -1.53511e-30)
(2.20984e-07 -2.99463e-08 0)
(2.12005e-07 -3.00845e-08 0)
(2.03677e-07 -3.01417e-08 0)
(1.95849e-07 -3.02152e-08 1.94375e-26)
(1.88466e-07 -3.02165e-08 0)
(1.81663e-07 -3.02013e-08 0)
(1.75237e-07 -3.02023e-08 4.51049e-26)
(1.69344e-07 -3.01613e-08 2.35879e-26)
(1.63915e-07 -3.01786e-08 0)
(1.58961e-07 -3.01906e-08 -5.11724e-26)
(1.5461e-07 -3.02537e-08 -1.63511e-30)
(1.50807e-07 -3.04064e-08 -3.40291e-30)
(1.47751e-07 -3.06212e-08 1.13316e-25)
(1.45487e-07 -3.10209e-08 5.8357e-26)
(1.44176e-07 -3.15592e-08 -6.06996e-26)
(1.44063e-07 -3.23895e-08 -6.18306e-26)
(1.45253e-07 -3.35048e-08 -6.45858e-26)
(1.48302e-07 -3.5077e-08 9.84245e-31)
(1.53185e-07 -3.71558e-08 0)
(1.61036e-07 -4.00062e-08 0)
(1.7135e-07 -4.36285e-08 0)
(1.86647e-07 -4.86294e-08 0)
(2.04888e-07 -5.46724e-08 0)
(2.32076e-07 -6.33171e-08 -7.61692e-26)
(2.6165e-07 -7.30534e-08 0)
(3.08779e-07 -8.81044e-08 1.20209e-30)
(3.5436e-07 -1.03417e-07 -6.02175e-31)
(4.37665e-07 -1.30453e-07 -6.18944e-31)
(5.03908e-07 -1.5364e-07 0)
(6.59277e-07 -2.04937e-07 -8.56079e-26)
(7.49777e-07 -2.38905e-07 1.22223e-30)
(1.06691e-06 -3.45948e-07 8.71793e-26)
(1.19031e-06 -3.9684e-07 -2.80876e-31)
(1.9638e-06 -6.64695e-07 9.33556e-26)
(2.16118e-06 -7.62056e-07 0)
(5.17184e-06 -1.82451e-06 0)
(4.80504e-06 -5.68988e-06 -9.85747e-25)
(3.65515e-07 1.43605e-05 0)
(1.66897e-07 1.03955e-05 -1.05698e-26)
(6.23164e-07 1.31239e-05 -6.42668e-29)
(1.65518e-06 1.42504e-05 3.31305e-26)
(4.9414e-06 1.6369e-05 3.12959e-26)
(6.23315e-06 1.20364e-05 0)
(5.908e-06 1.04804e-05 8.88408e-30)
(6.59404e-06 9.83711e-06 -8.15826e-30)
(6.41965e-06 8.31062e-06 -1.91915e-29)
(6.50668e-06 7.4479e-06 6.26988e-29)
(6.20339e-06 6.37331e-06 -4.39864e-29)
(6.04638e-06 5.64631e-06 -2.00542e-25)
(5.72294e-06 4.89384e-06 1.89067e-25)
(5.47637e-06 4.32354e-06 1.01831e-25)
(5.18271e-06 3.80175e-06 -1.899e-25)
(4.91427e-06 3.35751e-06 0)
(4.64937e-06 2.97741e-06 0)
(4.39546e-06 2.6391e-06 1.74161e-25)
(4.15203e-06 2.3451e-06 0)
(3.93075e-06 2.09567e-06 -1.63825e-25)
(3.70951e-06 1.86406e-06 -3.74415e-29)
(3.50636e-06 1.66597e-06 3.75379e-29)
(3.31642e-06 1.49055e-06 0)
(3.13113e-06 1.32924e-06 -2.68864e-25)
(2.96012e-06 1.19015e-06 1.27845e-25)
(2.79899e-06 1.06395e-06 2.82398e-29)
(2.64269e-06 9.48605e-07 2.27071e-25)
(2.49946e-06 8.48719e-07 1.05663e-25)
(2.361e-06 7.55749e-07 -9.68959e-26)
(2.22958e-06 6.72429e-07 -9.37946e-26)
(2.1087e-06 5.99281e-07 2.04749e-29)
(1.9905e-06 5.30453e-07 7.90641e-26)
(1.8791e-06 4.69357e-07 0)
(1.7752e-06 4.14613e-07 -6.80643e-26)
(1.67399e-06 3.63701e-07 -6.3149e-26)
(1.5795e-06 3.18871e-07 0)
(1.48984e-06 2.77803e-07 1.05296e-25)
(1.40342e-06 2.40262e-07 4.89495e-26)
(1.32289e-06 2.07149e-07 0)
(1.24517e-06 1.76491e-07 -9.30689e-30)
(1.17152e-06 1.49157e-07 9.21324e-30)
(1.10217e-06 1.24653e-07 -1.59769e-26)
(1.03532e-06 1.02275e-07 -1.43033e-26)
(9.72526e-07 8.25491e-08 0)
(9.12336e-07 6.46601e-08 -1.08797e-26)
(8.55394e-07 4.87924e-08 -1.67229e-31)
(8.01392e-07 3.47271e-08 0)
(7.49955e-07 2.21643e-08 0)
(7.01266e-07 1.11857e-08 1.33404e-27)
(6.54985e-07 1.50355e-09 -1.13951e-30)
(6.11098e-07 -6.92542e-09 -1.50061e-27)
(5.69582e-07 -1.41857e-08 9.62571e-28)
(5.34042e-07 -2.02773e-08 0)
(5.02435e-07 -2.42596e-08 -1.69425e-28)
(4.75382e-07 -2.70605e-08 -5.68609e-28)
(4.49561e-07 -2.98411e-08 -6.97748e-31)
(4.25151e-07 -3.16069e-08 4.52301e-31)
(4.03916e-07 -3.27765e-08 -8.52576e-31)
(3.84091e-07 -3.39665e-08 8.50126e-31)
(3.6567e-07 -3.48826e-08 -4.63369e-27)
(3.487e-07 -3.57113e-08 5.37036e-27)
(3.32656e-07 -3.6343e-08 0)
(3.17942e-07 -3.68318e-08 1.35251e-26)
(3.04055e-07 -3.72725e-08 -1.4849e-26)
(2.91068e-07 -3.75438e-08 -1.61544e-26)
(2.79035e-07 -3.77632e-08 -2.04445e-30)
(2.67627e-07 -3.79307e-08 -1.86122e-26)
(2.57046e-07 -3.79955e-08 0)
(2.471e-07 -3.80805e-08 0)
(2.37721e-07 -3.80744e-08 -2.21309e-26)
(2.29077e-07 -3.80473e-08 1.37857e-30)
(2.20914e-07 -3.80405e-08 -2.42704e-26)
(2.13429e-07 -3.79813e-08 0)
(2.06533e-07 -3.79955e-08 1.63647e-30)
(2.00241e-07 -3.8004e-08 2.75346e-26)
(1.94716e-07 -3.80776e-08 -1.75967e-30)
(1.89889e-07 -3.82654e-08 -5.89938e-26)
(1.8601e-07 -3.85334e-08 -6.09771e-26)
(1.83139e-07 -3.90364e-08 -2.43586e-30)
(1.8148e-07 -3.97173e-08 -2.02349e-30)
(1.81343e-07 -4.07698e-08 6.65399e-26)
(1.82864e-07 -4.21867e-08 6.95077e-26)
(1.86746e-07 -4.41853e-08 -5.94656e-32)
(1.92961e-07 -4.68306e-08 -7.33924e-26)
(2.02943e-07 -5.04574e-08 -1.15068e-30)
(2.1606e-07 -5.50705e-08 2.3595e-30)
(2.35497e-07 -6.14344e-08 -1.18118e-30)
(2.58686e-07 -6.91341e-08 0)
(2.93213e-07 -8.0131e-08 -8.19538e-26)
(3.30803e-07 -9.25432e-08 -8.47283e-26)
(3.90618e-07 -1.11676e-07 -8.49576e-26)
(4.48554e-07 -1.31215e-07 8.6145e-26)
(5.54206e-07 -1.6555e-07 0)
(6.3843e-07 -1.95192e-07 6.70131e-31)
(8.35321e-07 -2.60259e-07 1.84241e-25)
(9.50481e-07 -3.03852e-07 0)
(1.35202e-06 -4.39473e-07 -9.37466e-26)
(1.50918e-06 -5.05366e-07 -5.80664e-26)
(2.48757e-06 -8.44384e-07 -6.8931e-29)
(2.7375e-06 -9.73319e-07 0)
(6.53085e-06 -2.3103e-06 -1.90725e-31)
(6.04181e-06 -7.18064e-06 -5.23164e-25)
(4.27789e-07 1.75302e-05 0)
(1.97191e-07 1.28022e-05 0)
(7.92069e-07 1.60882e-05 -9.20771e-27)
(2.05549e-06 1.74515e-05 4.72025e-29)
(6.02488e-06 1.99948e-05 -6.75997e-26)
(7.61075e-06 1.47863e-05 -5.66924e-30)
(7.24083e-06 1.28785e-05 -1.31559e-30)
(8.07502e-06 1.20734e-05 8.65369e-30)
(7.87019e-06 1.02157e-05 6.03328e-26)
(7.9773e-06 9.15209e-06 0)
(7.61118e-06 7.83805e-06 0)
(7.41918e-06 6.94282e-06 1.07705e-25)
(7.02536e-06 6.02008e-06 -2.03338e-25)
(6.72333e-06 5.31818e-06 -1.0927e-25)
(6.36417e-06 4.67714e-06 2.04344e-25)
(6.03514e-06 4.13063e-06 -2.06675e-25)
(5.71041e-06 3.66315e-06 1.98914e-25)
(5.39889e-06 3.24695e-06 -1.87375e-25)
(5.10021e-06 2.88528e-06 -4.66042e-29)
(4.82848e-06 2.57832e-06 0)
(4.5569e-06 2.29341e-06 4.02591e-29)
(4.30737e-06 2.04962e-06 -7.97951e-29)
(4.07402e-06 1.83377e-06 3.72513e-29)
(3.84642e-06 1.63531e-06 1.4463e-25)
(3.63629e-06 1.46413e-06 3.30893e-29)
(3.43824e-06 1.30885e-06 1.26444e-25)
(3.24621e-06 1.16694e-06 -1.22101e-25)
(3.07015e-06 1.04402e-06 -1.02925e-30)
(2.89996e-06 9.29642e-07 -1.04186e-25)
(2.73843e-06 8.27132e-07 -2.51608e-29)
(2.58982e-06 7.37124e-07 2.20279e-29)
(2.44453e-06 6.52464e-07 -8.51413e-26)
(2.30758e-06 5.77299e-07 8.06731e-26)
(2.17984e-06 5.09953e-07 -7.32217e-26)
(2.05542e-06 4.47336e-07 9.26086e-31)
(1.93924e-06 3.92188e-07 3.07055e-29)
(1.829e-06 3.4168e-07 -5.66603e-26)
(1.72276e-06 2.95514e-07 -5.26925e-26)
(1.62374e-06 2.54789e-07 4.74936e-26)
(1.52818e-06 2.17095e-07 4.26551e-26)
(1.43763e-06 1.83486e-07 -9.13366e-30)
(1.35235e-06 1.53362e-07 7.49456e-31)
(1.27017e-06 1.25856e-07 1.53998e-26)
(1.19296e-06 1.0161e-07 0)
(1.11896e-06 7.9627e-08 5.38032e-30)
(1.04895e-06 6.01306e-08 -5.50022e-30)
(9.8256e-07 4.28521e-08 4.26832e-27)
(9.19322e-07 2.74234e-08 3.57411e-27)
(8.59464e-07 1.39431e-08 -1.25742e-30)
(8.02569e-07 2.0586e-09 2.80223e-31)
(7.4862e-07 -8.2842e-09 8.08485e-28)
(6.97586e-07 -1.71889e-08 0)
(6.539e-07 -2.46526e-08 0)
(6.15069e-07 -2.95374e-08 3.65199e-28)
(5.81804e-07 -3.29732e-08 9.8576e-31)
(5.50069e-07 -3.6375e-08 0)
(5.20072e-07 -3.85389e-08 2.45174e-27)
(4.93961e-07 -3.99706e-08 -7.06802e-31)
(4.69588e-07 -4.1422e-08 1.11813e-30)
(4.46942e-07 -4.25378e-08 9.97154e-27)
(4.26079e-07 -4.35444e-08 -1.15598e-26)
(4.06357e-07 -4.43096e-08 1.50208e-30)
(3.88267e-07 -4.48989e-08 -1.45561e-26)
(3.71197e-07 -4.54279e-08 -2.03541e-30)
(3.55233e-07 -4.57499e-08 2.03702e-30)
(3.40441e-07 -4.60074e-08 -2.36245e-30)
(3.26418e-07 -4.6201e-08 2.0036e-26)
(3.13412e-07 -4.62689e-08 -2.13245e-26)
(3.01187e-07 -4.63606e-08 2.67192e-30)
(2.8966e-07 -4.63414e-08 2.38167e-26)
(2.79036e-07 -4.62964e-08 0)
(2.69005e-07 -4.6276e-08 0)
(2.59807e-07 -4.61921e-08 0)
(2.51333e-07 -4.61981e-08 -1.76111e-30)
(2.43604e-07 -4.61981e-08 1.77482e-30)
(2.36816e-07 -4.62787e-08 0)
(2.3089e-07 -4.65e-08 6.34831e-26)
(2.26129e-07 -4.68216e-08 -6.56134e-26)
(2.22609e-07 -4.74324e-08 -6.75913e-26)
(2.20579e-07 -4.82642e-08 -7.02922e-26)
(2.20421e-07 -4.95538e-08 -8.013e-30)
(2.22304e-07 -5.12942e-08 -7.47955e-26)
(2.2709e-07 -5.37515e-08 0)
(2.34746e-07 -5.70079e-08 7.94827e-30)
(2.47029e-07 -6.14724e-08 0)
(2.63173e-07 -6.71569e-08 8.3157e-26)
(2.87073e-07 -7.49926e-08 0)
(3.156e-07 -8.44861e-08 1.34847e-30)
(3.58027e-07 -9.8022e-08 8.82023e-26)
(4.0426e-07 -1.13335e-07 9.11883e-26)
(4.77709e-07 -1.36868e-07 9.14395e-26)
(5.48965e-07 -1.60998e-07 -9.27161e-26)
(6.78594e-07 -2.03183e-07 0)
(7.82215e-07 -2.39862e-07 0)
(1.02357e-06 -3.19702e-07 -1.98224e-25)
(1.16537e-06 -3.73864e-07 -8.50281e-26)
(1.65714e-06 -5.4007e-07 2.01744e-25)
(1.85082e-06 -6.22685e-07 1.69045e-28)
(3.04771e-06 -1.03768e-06 -2.16049e-25)
(3.35383e-06 -1.20299e-06 -1.1819e-31)
(7.97492e-06 -2.82948e-06 1.31421e-25)
(7.35707e-06 -8.7663e-06 2.25827e-24)
(4.87582e-07 2.08945e-05 0)
(2.27328e-07 1.54e-05 1.22296e-26)
(9.83725e-07 1.92607e-05 -5.25079e-29)
(2.49407e-06 2.08704e-05 5.92169e-29)
(7.17206e-06 2.3848e-05 -2.82282e-28)
(9.07313e-06 1.77412e-05 9.03162e-26)
(8.66629e-06 1.54575e-05 -1.99616e-29)
(9.65671e-06 1.44732e-05 -2.07621e-29)
(9.42281e-06 1.2266e-05 -6.48039e-26)
(9.55166e-06 1.09851e-05 1.02924e-29)
(9.12054e-06 9.41605e-06 9.96051e-26)
(8.89134e-06 8.33921e-06 -1.15104e-25)
(8.42327e-06 7.23407e-06 0)
(8.062e-06 6.3902e-06 1.1743e-25)
(7.63307e-06 5.62094e-06 2.19042e-25)
(7.23921e-06 4.96419e-06 2.22444e-25)
(6.85042e-06 4.40254e-06 -2.1394e-25)
(6.47714e-06 3.90237e-06 2.01092e-25)
(6.11922e-06 3.46774e-06 0)
(5.79329e-06 3.09871e-06 4.5832e-29)
(5.46766e-06 2.75634e-06 -4.41694e-29)
(5.16829e-06 2.46324e-06 0)
(4.88824e-06 2.20377e-06 0)
(4.61517e-06 1.96526e-06 0)
(4.36295e-06 1.75946e-06 0)
(4.12519e-06 1.57281e-06 -1.36116e-25)
(3.89471e-06 1.40227e-06 0)
(3.6833e-06 1.25448e-06 0)
(3.47896e-06 1.11703e-06 2.24204e-25)
(3.28503e-06 9.93825e-07 -2.70664e-29)
(3.10654e-06 8.85636e-07 2.36978e-29)
(2.93209e-06 7.83911e-07 9.15123e-26)
(2.76764e-06 6.93579e-07 -8.67871e-26)
(2.61421e-06 6.12649e-07 1.29827e-29)
(2.4648e-06 5.3742e-07 7.31135e-26)
(2.32526e-06 4.71151e-07 1.60332e-29)
(2.19285e-06 4.10473e-07 6.0914e-26)
(2.06527e-06 3.55019e-07 5.67039e-26)
(1.94633e-06 3.06096e-07 -5.10719e-26)
(1.83156e-06 2.60827e-07 -4.5915e-26)
(1.72281e-06 2.20464e-07 -1.06685e-29)
(1.62038e-06 1.84291e-07 8.63519e-30)
(1.52168e-06 1.51269e-07 -8.94549e-30)
(1.42895e-06 1.22162e-07 0)
(1.34007e-06 9.57789e-08 0)
(1.25599e-06 7.23837e-08 2.19374e-26)
(1.17625e-06 5.16547e-08 4.33477e-30)
(1.10031e-06 3.31505e-08 -3.84641e-27)
(1.02842e-06 1.69871e-08 0)
(9.601e-07 2.74274e-09 0)
(8.95317e-07 -9.64888e-09 0)
(8.34039e-07 -2.03116e-08 0)
(7.81585e-07 -2.92389e-08 7.49455e-28)
(7.34988e-07 -3.50881e-08 -3.94069e-28)
(6.95033e-07 -3.9202e-08 6.57761e-28)
(6.56933e-07 -4.32633e-08 1.6554e-27)
(6.20927e-07 -4.58508e-08 -2.63782e-27)
(5.89565e-07 -4.75603e-08 3.58842e-27)
(5.60296e-07 -4.92867e-08 -1.20305e-30)
(5.33102e-07 -5.06112e-08 -5.36457e-27)
(5.08046e-07 -5.18026e-08 6.22066e-27)
(4.84367e-07 -5.27049e-08 -1.40676e-26)
(4.62642e-07 -5.3396e-08 -2.0059e-30)
(4.42146e-07 -5.40132e-08 -1.85673e-31)
(4.22979e-07 -5.43834e-08 2.19201e-30)
(4.05215e-07 -5.46751e-08 2.54225e-30)
(3.8838e-07 -5.48901e-08 1.70099e-31)
(3.72763e-07 -5.49549e-08 4.58838e-26)
(3.58086e-07 -5.5047e-08 2.42193e-26)
(3.44249e-07 -5.50073e-08 2.56309e-26)
(3.31494e-07 -5.49366e-08 -3.34718e-30)
(3.19454e-07 -5.4895e-08 -1.512e-31)
(3.08413e-07 -5.47788e-08 3.51373e-30)
(2.98242e-07 -5.47696e-08 0)
(2.88969e-07 -5.47549e-08 -3.96429e-30)
(2.80825e-07 -5.48375e-08 3.93313e-30)
(2.73719e-07 -5.50897e-08 -3.1194e-30)
(2.68012e-07 -5.54644e-08 1.41229e-25)
(2.63797e-07 -5.61869e-08 0)
(2.61374e-07 -5.71779e-08 7.56518e-26)