/*--------------------------------*- C++ -*----------------------------------*\
| =========                 |                                                 |
| \\      /  F ield         | OpenFOAM: The Open Source CFD Toolbox           |
|  \\    /   O peration     | Version:  5.x                                   |
|   \\  /    A nd           | Web:      www.OpenFOAM.org                      |
|    \\/     M anipulation  |                                                 |
\*---------------------------------------------------------------------------*/
FoamFile
{
    version     2.0;
    format      ascii;
    class       volVectorField;
    location    "1500";
    object      U;
}
// * * * * * * * * * * * * * * * * * * * * * * * * * * * * * * * * * * * * * //

dimensions      [0 1 -1 0 0 0 0];

internalField   nonuniform List<vector> 
107912
(
(2.93372e-05 7.88745e-05 -3.1335e-28)
(1.33534e-06 6.67437e-05 2.99214e-28)
(3.75698e-06 9.33871e-05 8.1411e-25)
(1.21294e-05 0.000111014 1.06405e-24)
(3.7983e-05 0.000124964 -9.35396e-24)
(4.66239e-05 8.77532e-05 2.48661e-23)
(4.35549e-05 7.64369e-05 1.83578e-23)
(5.05932e-05 7.48547e-05 7.04512e-28)
(4.83042e-05 6.18542e-05 -3.44391e-27)
(4.90072e-05 5.56011e-05 -3.85779e-27)
(4.63126e-05 4.71322e-05 -4.1838e-27)
(4.46167e-05 4.13188e-05 3.2623e-23)
(4.18356e-05 3.54746e-05 6.3377e-23)
(3.93888e-05 3.08565e-05 1.27133e-26)
(3.68377e-05 2.68159e-05 -6.2397e-23)
(3.42679e-05 2.32414e-05 6.24804e-23)
(3.18892e-05 2.0276e-05 7.42264e-27)
(2.95279e-05 1.76056e-05 0)
(2.72559e-05 1.52889e-05 -1.16426e-22)
(2.52211e-05 1.33563e-05 -5.44086e-23)
(2.3128e-05 1.15437e-05 0)
(2.12061e-05 1.00086e-05 0)
(1.94185e-05 8.66942e-06 -4.76709e-23)
(1.76226e-05 7.43067e-06 4.60625e-23)
(1.59854e-05 6.38354e-06 4.43157e-23)
(1.44258e-05 5.44567e-06 8.22737e-23)
(1.28953e-05 4.59593e-06 -4.01362e-23)
(1.15084e-05 3.87954e-06 3.7839e-23)
(1.01565e-05 3.22658e-06 -3.50768e-23)
(8.87748e-06 2.65635e-06 -3.44725e-23)
(7.71933e-06 2.17579e-06 3.19924e-23)
(6.58694e-06 1.73991e-06 0)
(5.54572e-06 1.37213e-06 -2.90022e-23)
(4.59603e-06 1.06246e-06 3.23242e-27)
(3.69258e-06 7.9311e-07 -3.1647e-27)
(2.88561e-06 5.7504e-07 -7.66396e-28)
(2.14875e-06 3.94563e-07 2.25458e-23)
(1.47674e-06 2.48011e-07 6.58341e-28)
(8.92495e-07 1.35984e-07 -2.45118e-27)
(3.66137e-07 4.9068e-08 -1.91271e-23)
(-8.62215e-08 -1.29971e-08 2.27958e-27)
(-4.7082e-07 -5.46098e-08 0)
(-7.99416e-07 -7.97473e-08 0)
(-1.06361e-06 -9.06489e-08 -7.83505e-24)
(-1.27935e-06 -9.04641e-08 0)
(-1.44268e-06 -8.19706e-08 -1.43231e-23)
(-1.56337e-06 -6.69406e-08 -3.38663e-24)
(-1.64516e-06 -4.78339e-08 -3.26941e-24)
(-1.69222e-06 -2.58247e-08 0)
(-1.70992e-06 -2.78022e-09 0)
(-1.7012e-06 2.05063e-08 -1.4475e-24)
(-1.66864e-06 4.26942e-08 -1.35926e-27)
(-1.62724e-06 6.32582e-08 -3.35172e-24)
(-1.58193e-06 7.75741e-08 -3.31107e-24)
(-1.53254e-06 8.84174e-08 -6.57701e-24)
(-1.48203e-06 9.9445e-08 6.5315e-24)
(-1.42432e-06 1.07116e-07 -1.2956e-23)
(-1.36901e-06 1.12018e-07 -7.85781e-28)
(-1.31355e-06 1.17256e-07 6.40483e-24)
(-1.25708e-06 1.20756e-07 -6.36845e-24)
(-1.20305e-06 1.24212e-07 0)
(-1.15083e-06 1.26445e-07 -1.26383e-23)
(-1.10333e-06 1.28767e-07 7.70189e-28)
(-1.06006e-06 1.3061e-07 1.25526e-23)
(-1.0209e-06 1.32538e-07 7.65799e-28)
(-9.86085e-07 1.34025e-07 -1.24728e-23)
(-9.52248e-07 1.35772e-07 -3.8062e-28)
(-9.18289e-07 1.36265e-07 0)
(-8.80782e-07 1.36473e-07 -1.23822e-23)
(-8.36746e-07 1.34437e-07 0)
(-7.85194e-07 1.31072e-07 -1.23338e-23)
(-7.23349e-07 1.24952e-07 -2.46809e-23)
(-6.52396e-07 1.16555e-07 0)
(-5.73098e-07 1.05678e-07 3.74264e-28)
(-4.87668e-07 9.29441e-08 -3.77174e-28)
(-4.00954e-07 7.84601e-08 -3.73346e-28)
(-3.15694e-07 6.38468e-08 2.45923e-23)
(-2.37831e-07 4.92969e-08 -4.91224e-23)
(-1.7e-07 3.63456e-08 0)
(-1.16505e-07 2.54928e-08 0)
(-7.87984e-08 1.78689e-08 2.4354e-23)
(-5.86559e-08 1.35092e-08 -2.46933e-23)
(-5.63585e-08 1.34418e-08 2.42891e-23)
(-7.20137e-08 1.74677e-08 3.75741e-28)
(-1.05323e-07 2.62328e-08 -1.85542e-28)
(-1.56523e-07 3.97428e-08 2.45778e-23)
(-2.25145e-07 5.85183e-08 3.77155e-28)
(-3.12586e-07 8.30306e-08 -2.95433e-31)
(-4.16739e-07 1.13126e-07 -1.84623e-28)
(-5.40035e-07 1.49806e-07 -2.46545e-23)
(-6.74151e-07 1.91078e-07 0)
(-8.23536e-07 2.38412e-07 -1.86059e-28)
(-9.62471e-07 2.84666e-07 2.77349e-28)
(-1.10354e-06 3.33133e-07 -9.19648e-29)
(-1.18495e-06 3.65272e-07 -8.30991e-29)
(-1.25205e-06 3.94111e-07 -2.4221e-23)
(-1.15018e-06 3.6969e-07 2.39023e-23)
(-1.03734e-06 3.39896e-07 -4.81524e-23)
(-4.88283e-07 1.63305e-07 -9.19571e-29)
(6.13699e-10 -1.25611e-09 2.43922e-23)
(2.2527e-06 -7.87343e-07 -4.68719e-28)
(3.97548e-06 -4.82591e-06 5.25899e-23)
(6.49364e-05 0.000240591 0)
(4.24246e-06 0.000205398 0)
(1.20317e-05 0.000284834 -5.7052e-27)
(3.73904e-05 0.000337973 -3.37954e-24)
(0.000115394 0.000380125 7.48146e-24)
(0.000142308 0.000269118 0)
(0.00013342 0.000234464 -4.67642e-27)
(0.000154769 0.000229119 -4.39957e-23)
(0.000148038 0.000189924 -4.52094e-23)
(0.000150214 0.00017063 -1.2288e-26)
(0.000142109 0.000144861 1.20763e-26)
(0.000136949 0.000127005 -5.19957e-23)
(0.000128496 0.000109129 -1.00946e-22)
(0.000121023 9.49502e-05 5.26426e-23)
(0.000113227 8.2552e-05 -1.20461e-26)
(0.000105365 7.15766e-05 0)
(9.80767e-05 6.24621e-05 9.69677e-23)
(9.08393e-05 5.42547e-05 -9.08884e-23)
(8.38721e-05 4.71319e-05 9.27941e-23)
(7.76249e-05 4.1184e-05 8.67268e-23)
(7.1202e-05 3.561e-05 -8.26755e-23)
(6.52989e-05 3.08839e-05 -9.89761e-27)
(5.98057e-05 2.67603e-05 1.849e-26)
(5.42893e-05 2.29475e-05 -9.04419e-27)
(4.92558e-05 1.97209e-05 -7.06574e-23)
(4.44605e-05 1.68314e-05 -1.31144e-22)
(3.97553e-05 1.42136e-05 -7.90139e-27)
(3.54884e-05 1.20044e-05 0)
(3.13299e-05 9.99129e-06 6.73446e-27)
(2.73947e-05 8.23247e-06 5.49596e-23)
(2.38294e-05 6.74906e-06 2.94231e-27)
(2.03442e-05 5.40397e-06 4.78244e-23)
(1.71383e-05 4.26792e-06 9.24828e-23)
(1.42132e-05 3.31082e-06 0)
(1.14307e-05 2.47814e-06 0)
(8.94407e-06 1.80305e-06 3.87104e-23)
(6.6731e-06 1.24402e-06 -1.33265e-28)
(4.60174e-06 7.89594e-07 -3.46212e-23)
(2.7999e-06 4.41521e-07 3.9085e-27)
(1.17638e-06 1.71035e-07 -3.7782e-27)
(-2.19561e-07 -2.28113e-08 0)
(-1.40693e-06 -1.53426e-07 -1.37345e-23)
(-2.4218e-06 -2.33088e-07 7.98172e-29)
(-3.23848e-06 -2.68741e-07 3.08783e-27)
(-3.90574e-06 -2.70023e-07 0)
(-4.41165e-06 -2.45456e-07 1.14165e-23)
(-4.78603e-06 -2.00687e-07 5.40402e-24)
(-5.0405e-06 -1.42968e-07 -1.28461e-27)
(-5.18788e-06 -7.63784e-08 -2.49142e-24)
(-5.24465e-06 -6.23658e-09 0)
(-5.21995e-06 6.47057e-08 -6.35742e-29)
(-5.12172e-06 1.32419e-07 4.43692e-24)
(-4.99578e-06 1.95238e-07 1.06903e-23)
(-4.85764e-06 2.39117e-07 5.28092e-24)
(-4.70675e-06 2.7217e-07 1.04886e-23)
(-4.55221e-06 3.06019e-07 -2.0831e-23)
(-4.37558e-06 3.29408e-07 1.03283e-23)
(-4.20611e-06 3.44489e-07 0)
(-4.03611e-06 3.60413e-07 1.02105e-23)
(-3.86294e-06 3.71241e-07 -1.01538e-23)
(-3.69721e-06 3.81764e-07 1.23412e-27)
(-3.53702e-06 3.88691e-07 2.01492e-23)
(-3.39121e-06 3.95757e-07 1.22813e-27)
(-3.25839e-06 4.01537e-07 0)
(-3.13818e-06 4.07404e-07 1.9981e-23)
(-3.03123e-06 4.12058e-07 1.98897e-23)
(-2.9273e-06 4.17337e-07 0)
(-2.82295e-06 4.18905e-07 -1.98313e-23)
(-2.70775e-06 4.19418e-07 -1.97446e-23)
(-2.57245e-06 4.13142e-07 0)
(-2.41406e-06 4.02656e-07 -1.96681e-23)
(-2.22408e-06 3.8383e-07 4.59051e-28)
(-2.00614e-06 3.57882e-07 -1.96945e-23)
(-1.76254e-06 3.24455e-07 5.97603e-28)
(-1.50019e-06 2.85279e-07 0)
(-1.23382e-06 2.40817e-07 3.90383e-23)
(-9.71911e-07 1.95936e-07 -3.92145e-23)
(-7.32712e-07 1.51362e-07 7.83301e-23)
(-5.24332e-07 1.11689e-07 0)
(-3.59945e-07 7.85059e-08 -3.93229e-23)
(-2.4404e-07 5.52432e-08 7.34418e-28)
(-1.82084e-07 4.20205e-08 -1.11135e-28)
(-1.74937e-07 4.19653e-08 -3.87319e-23)
(-2.2294e-07 5.45063e-08 3.92675e-23)
(-3.2518e-07 8.1603e-08 -3.87554e-23)
(-4.82383e-07 1.23279e-07 2.98802e-28)
(-6.93092e-07 1.81117e-07 7.74116e-23)
(-9.61576e-07 2.56578e-07 3.9187e-23)
(-1.28138e-06 3.49188e-07 0)
(-1.65987e-06 4.61962e-07 2.99654e-28)
(-2.07157e-06 5.88798e-07 -5.84272e-28)
(-2.52997e-06 7.34118e-07 -3.89334e-23)
(-2.95637e-06 8.76051e-07 -2.94438e-28)
(-3.389e-06 1.02449e-06 2.93297e-28)
(-3.63888e-06 1.12272e-06 -3.8791e-23)
(-3.84423e-06 1.21022e-06 3.86238e-23)
(-3.53213e-06 1.13432e-06 8.20007e-29)
(-3.18504e-06 1.04068e-06 3.83925e-23)
(-1.50278e-06 4.97047e-07 7.3235e-29)
(-3.95631e-09 -1.51947e-08 -3.88962e-23)
(6.86221e-06 -2.41714e-06 -1.98482e-27)
(9.77639e-06 -1.46761e-05 -1.25853e-22)
(6.70763e-05 0.000412809 -4.07767e-24)
(7.60742e-06 0.000353853 -2.90035e-24)
(2.1669e-05 0.000488115 -1.38419e-24)
(6.4882e-05 0.000578446 1.80915e-24)
(0.000196984 0.000650224 7.97936e-24)
(0.000243925 0.00046364 8.41214e-27)
(0.000229453 0.000403876 -4.35952e-27)
(0.00026578 0.000394026 9.45964e-23)
(0.000254704 0.000327481 9.72046e-23)
(0.000258457 0.000294098 1.19886e-26)
(0.000244776 0.000249993 0)
(0.000235955 0.000219197 1.38599e-26)
(0.000221529 0.000188467 2.17154e-22)
(0.000208713 0.000164017 0)
(0.000195337 0.000142648 -1.31153e-26)
(0.000181833 0.000123719 1.30178e-26)
(0.000169296 0.000107986 -1.0432e-22)
(0.000156842 9.38212e-05 9.77825e-23)
(0.000144848 8.15227e-05 0)
(0.000134081 7.12463e-05 -9.33296e-23)
(0.000123016 6.16214e-05 8.89712e-23)
(0.000112839 5.3453e-05 8.78969e-23)
(0.000103363 4.6326e-05 1.6352e-22)
(9.3851e-05 3.97376e-05 1.92806e-26)
(8.51649e-05 3.41578e-05 -1.85618e-26)
(7.68886e-05 2.91618e-05 7.0579e-23)
(6.87694e-05 2.46353e-05 0)
(6.14013e-05 2.08127e-05 7.82781e-27)
(5.42211e-05 1.73305e-05 -7.44318e-27)
(4.74257e-05 1.42868e-05 -7.12486e-27)
(4.1266e-05 1.17186e-05 9.80775e-27)
(3.52457e-05 9.39029e-06 -1.02933e-22)
(2.97062e-05 7.42241e-06 -4.97574e-23)
(2.46503e-05 5.764e-06 -5.71661e-27)
(1.98411e-05 4.32096e-06 5.26831e-27)
(1.55415e-05 3.14991e-06 -5.16418e-27)
(1.16142e-05 2.17991e-06 0)
(8.03175e-06 1.3908e-06 4.48311e-27)
(4.91401e-06 7.85627e-07 -8.53718e-27)
(2.10454e-06 3.14878e-07 3.28296e-23)
(-3.12034e-07 -2.32731e-08 3.80752e-27)
(-2.36834e-06 -2.51792e-07 1.47737e-23)
(-4.12641e-06 -3.92014e-07 0)
(-5.5422e-06 -4.55917e-07 0)
(-6.6995e-06 -4.6016e-07 -1.27209e-23)
(-7.57795e-06 -4.19438e-07 3.03303e-27)
(-8.22885e-06 -3.43593e-07 2.81232e-27)
(-8.67234e-06 -2.45086e-07 -2.76514e-27)
(-8.9306e-06 -1.31127e-07 2.68392e-24)
(-9.03199e-06 -1.0765e-08 -2.53507e-27)
(-8.99244e-06 1.11095e-07 2.48532e-24)
(-8.82565e-06 2.2756e-07 -4.77748e-24)
(-8.61032e-06 3.35707e-07 -5.75054e-24)
(-8.37366e-06 4.11362e-07 5.68096e-24)
(-8.11467e-06 4.68338e-07 1.12899e-23)
(-7.8491e-06 5.26714e-07 1.12103e-23)
(-7.5455e-06 5.67047e-07 0)
(-7.25393e-06 5.93154e-07 1.10721e-23)
(-6.96132e-06 6.20636e-07 -1.09903e-23)
(-6.66321e-06 6.39419e-07 1.09306e-23)
(-6.37785e-06 6.57618e-07 -1.09011e-23)
(-6.10196e-06 6.69688e-07 -2.16894e-23)
(-5.85078e-06 6.81964e-07 2.63956e-27)
(-5.62194e-06 6.9208e-07 2.15439e-23)
(-5.41479e-06 7.02273e-07 -4.30103e-23)
(-5.2304e-06 7.10388e-07 -2.14062e-23)
(-5.05119e-06 7.19493e-07 0)
(-4.87118e-06 7.22216e-07 2.13434e-23)
(-4.67247e-06 7.23007e-07 4.25005e-23)
(-4.4391e-06 7.12108e-07 0)
(-4.16591e-06 6.93871e-07 2.11679e-23)
(-3.83836e-06 6.61323e-07 2.11796e-23)
(-3.46265e-06 6.16458e-07 -1.42264e-27)
(-3.04277e-06 5.58785e-07 6.42315e-28)
(-2.59068e-06 4.91227e-07 -1.29386e-27)
(-2.13165e-06 4.14669e-07 -4.20146e-23)
(-1.68034e-06 3.37403e-07 4.22062e-23)
(-1.26818e-06 2.60805e-07 -4.21529e-23)
(-9.09149e-07 1.9267e-07 -4.20043e-23)
(-6.2588e-07 1.35785e-07 4.23218e-23)
(-4.26153e-07 9.59851e-08 -4.17955e-23)
(-3.19376e-07 7.35329e-08 4.23772e-23)
(-3.07045e-07 7.37409e-08 6.36429e-28)
(-3.89765e-07 9.56913e-08 -4.22623e-23)
(-5.65967e-07 1.42697e-07 4.17105e-23)
(-8.36885e-07 2.14852e-07 6.44058e-28)
(-1.19999e-06 3.14839e-07 -4.16586e-23)
(-1.66258e-06 4.45189e-07 -4.21747e-23)
(-2.21352e-06 6.05057e-07 -3.16854e-28)
(-2.86536e-06 7.99568e-07 0)
(-3.57425e-06 1.01821e-06 -4.121e-23)
(-4.36323e-06 1.26842e-06 4.57616e-28)
(-5.09693e-06 1.51264e-06 0)
(-5.84079e-06 1.76747e-06 0)
(-6.27006e-06 1.93571e-06 0)
(-6.62183e-06 2.08429e-06 -4.15696e-23)
(-6.08366e-06 1.95183e-06 -4.10223e-23)
(-5.48382e-06 1.78614e-06 0)
(-2.58899e-06 8.4739e-07 0)
(-1.03543e-08 -4.82603e-08 4.18689e-23)
(1.1765e-05 -4.16781e-06 4.09807e-23)
(1.60564e-05 -2.48775e-05 -1.35233e-22)
(6.92597e-05 0.000594796 4.38824e-24)
(1.15192e-05 0.000512608 3.1149e-24)
(3.28644e-05 0.000703647 -4.52902e-27)
(9.47991e-05 0.000832846 2.52861e-27)
(0.00028285 0.000935685 0)
(0.000351715 0.00067214 4.53554e-23)
(0.000332001 0.000585407 -3.3706e-23)
(0.000383994 0.000570187 -5.08312e-23)
(0.000368723 0.000475182 -5.22611e-23)
(0.000374174 0.000426579 0)
(0.000354768 0.000363074 0)
(0.000342086 0.000318381 0)
(0.000321382 0.000273928 -1.16795e-22)
(0.000302893 0.000238448 0)
(0.000283586 0.000207452 -1.41072e-26)
(0.000264071 0.000179979 1.40025e-26)
(0.000245925 0.000157125 1.1219e-22)
(0.000227894 0.000136549 1.28372e-26)
(0.00021052 0.000118678 -1.07401e-22)
(0.000194903 0.000103735 0)
(0.000178864 8.97468e-05 -9.57361e-23)
(0.000164097 7.78647e-05 -9.45538e-23)
(0.000150342 6.74974e-05 -8.79806e-23)
(0.000136539 5.79159e-05 -8.50181e-23)
(0.000123924 4.97943e-05 9.88488e-27)
(0.000111903 4.2524e-05 -2.06732e-28)
(0.000100112 3.59367e-05 7.40845e-23)
(8.94048e-05 3.03699e-05 0)
(7.89713e-05 2.53001e-05 -6.47614e-23)
(6.90958e-05 2.08671e-05 -7.87698e-27)
(6.01394e-05 1.71248e-05 -1.18171e-22)
(5.13876e-05 1.37327e-05 1.10788e-22)
(4.33319e-05 1.08638e-05 -6.63575e-27)
(3.59772e-05 8.44523e-06 4.96451e-23)
(2.89822e-05 6.34043e-06 -1.15143e-26)
(2.27255e-05 4.63077e-06 5.55776e-27)
(1.70097e-05 3.21422e-06 0)
(1.17954e-05 2.06094e-06 4.82483e-27)
(7.25545e-06 1.17542e-06 -4.66083e-27)
(3.16406e-06 4.85912e-07 -2.11926e-27)
(-3.56502e-07 -1.0517e-08 4.21033e-27)
(-3.35333e-06 -3.46972e-07 0)
(-5.91621e-06 -5.54643e-07 0)
(-7.98159e-06 -6.50908e-07 3.49395e-27)
(-9.67064e-06 -6.60081e-07 1.36835e-23)
(-1.09541e-05 -6.03335e-07 0)
(-1.19064e-05 -4.95326e-07 0)
(-1.25567e-05 -3.538e-07 -2.92504e-27)
(-1.29374e-05 -1.89756e-07 4.44214e-29)
(-1.30896e-05 -1.59257e-08 2.72838e-27)
(-1.30365e-05 1.60227e-07 -2.67493e-24)
(-1.27983e-05 3.28843e-07 5.13945e-24)
(-1.24885e-05 4.85453e-07 -6.18914e-24)
(-1.21473e-05 5.95304e-07 -6.11846e-24)
(-1.17732e-05 6.77938e-07 -2.42982e-23)
(-1.13892e-05 7.62721e-07 1.20682e-23)
(-1.09501e-05 8.21208e-07 -2.92944e-27)
(-1.0528e-05 8.59325e-07 -1.19162e-23)
(-1.01042e-05 8.99178e-07 -1.4408e-27)
(-9.67241e-06 9.26677e-07 5.76405e-30)
(-9.259e-06 9.53136e-07 1.17322e-23)
(-8.85926e-06 9.70926e-07 0)
(-8.49523e-06 9.8882e-07 -2.3272e-23)
(-8.1635e-06 1.00381e-06 2.65852e-28)
(-7.86317e-06 1.01867e-06 -1.65622e-28)
(-7.59564e-06 1.03066e-06 0)
(-7.33556e-06 1.04381e-06 1.40285e-27)
(-7.07417e-06 1.04784e-06 -2.80427e-27)
(-6.78564e-06 1.04878e-06 1.53279e-27)
(-6.44681e-06 1.0329e-06 0)
(-6.05028e-06 1.00613e-06 0)
(-5.57505e-06 9.58809e-07 2.27949e-23)
(-5.03012e-06 8.93515e-07 4.56213e-23)
(-4.4213e-06 8.09844e-07 0)
(-3.76606e-06 7.11829e-07 -2.28161e-23)
(-3.1008e-06 6.01034e-07 2.75997e-27)
(-2.44685e-06 4.89169e-07 -4.54253e-23)
(-1.8497e-06 3.78557e-07 4.53665e-23)
(-1.3296e-06 2.80205e-07 4.52075e-23)
(-9.19249e-07 1.98298e-07 -4.55489e-23)
(-6.29996e-07 1.41099e-07 -4.49832e-23)
(-4.75408e-07 1.09171e-07 -6.96318e-28)
(-4.57707e-07 1.09989e-07 0)
(-5.77771e-07 1.42411e-07 0)
(-8.33355e-07 2.11076e-07 0)
(-1.22619e-06 3.1626e-07 0)
(-1.75259e-06 4.61717e-07 -6.83611e-28)
(-2.42301e-06 6.51183e-07 6.93148e-28)
(-3.22126e-06 8.83344e-07 -4.46603e-23)
(-4.16529e-06 1.16552e-06 0)
(-5.19153e-06 1.48247e-06 4.43527e-23)
(-6.33303e-06 1.84465e-06 4.50993e-23)
(-7.3939e-06 2.19782e-06 -3.41766e-28)
(-8.46841e-06 2.56535e-06 -3.38952e-28)
(-9.08697e-06 2.80712e-06 3.43316e-28)
(-9.592e-06 3.01853e-06 -1.70363e-28)
(-8.80923e-06 2.8232e-06 4.41521e-23)
(-7.93544e-06 2.57575e-06 -3.3869e-28)
(-3.74314e-06 1.21116e-06 2.54713e-28)
(-1.11917e-08 -1.07641e-07 -4.50625e-23)
(1.69796e-05 -6.05314e-06 4.36898e-29)
(2.27291e-05 -3.57755e-05 1.94046e-22)
(7.46625e-05 0.000786672 1.41459e-27)
(1.60546e-05 0.000682251 1.67113e-24)
(4.57965e-05 0.000931821 1.57515e-24)
(0.000127327 0.00110154 -2.03721e-24)
(0.000373074 0.00123687 -7.87336e-27)
(0.000465934 0.000895451 -4.87564e-23)
(0.000441424 0.000779821 3.62176e-23)
(0.000509777 0.00075824 1.06418e-26)
(0.000490535 0.000633711 -1.48068e-26)
(0.000497818 0.000568682 2.91054e-26)
(0.000472565 0.00048468 -1.49985e-26)
(0.000455823 0.000425072 6.45911e-23)
(0.000428532 0.000365982 -3.1026e-26)
(0.00040403 0.000318661 -6.5415e-23)
(0.000378424 0.00027734 0)
(0.00035251 0.000240688 -3.02797e-26)
(0.000328375 0.000210172 -1.2069e-22)
(0.000304382 0.000182701 2.75329e-26)
(0.000281252 0.000158828 1.15555e-22)
(0.000260434 0.000138854 1.07986e-22)
(0.000239064 0.000120167 1.02984e-22)
(0.00021937 0.000104277 0)
(0.000201017 9.04137e-05 0)
(0.000182606 7.76042e-05 1.82983e-22)
(0.000165767 6.67367e-05 -8.80503e-23)
(0.000149716 5.70103e-05 0)
(0.000133977 4.81976e-05 -1.59459e-22)
(0.000119673 4.07444e-05 -7.51645e-23)
(0.000105736 3.39589e-05 1.39379e-22)
(9.25432e-05 2.8023e-05 6.85077e-23)
(8.05718e-05 2.30095e-05 6.35946e-23)
(6.88764e-05 1.84663e-05 -5.96188e-23)
(5.81073e-05 1.46208e-05 0)
(4.82724e-05 1.1378e-05 -9.1679e-27)
(3.89193e-05 8.55553e-06 5.07436e-23)
(3.05496e-05 6.26066e-06 6.15855e-27)
(2.29025e-05 4.35866e-06 -4.4809e-23)
(1.59257e-05 2.8089e-06 -4.31546e-23)
(9.84836e-06 1.61748e-06 -4.87222e-27)
(4.37113e-06 6.88859e-07 -3.80096e-23)
(-3.43713e-07 1.86917e-08 -4.53131e-27)
(-4.35869e-06 -4.36867e-07 1.71176e-23)
(-7.79317e-06 -7.19731e-07 1.63915e-23)
(-1.05629e-05 -8.53059e-07 0)
(-1.2829e-05 -8.6955e-07 1.47276e-23)
(-1.4553e-05 -7.97126e-07 -1.4233e-23)
(-1.58335e-05 -6.55966e-07 3.25755e-27)
(-1.67102e-05 -4.69185e-07 -6.351e-27)
(-1.72259e-05 -2.52256e-07 -3.10286e-24)
(-1.74358e-05 -2.15819e-08 0)
(-1.73711e-05 2.12403e-07 5.75771e-24)
(-1.70584e-05 4.36777e-07 -1.10626e-23)
(-1.6649e-05 6.45145e-07 6.66409e-24)
(-1.6197e-05 7.91772e-07 -3.2026e-27)
(-1.57005e-05 9.01923e-07 1.30784e-23)
(-1.51903e-05 1.01511e-06 -1.29849e-23)
(-1.46065e-05 1.09304e-06 0)
(-1.40449e-05 1.14423e-06 0)
(-1.34809e-05 1.19733e-06 0)
(-1.29061e-05 1.23437e-06 3.08496e-27)
(-1.23557e-05 1.26972e-06 -6.16509e-27)
(-1.18235e-05 1.29389e-06 3.07197e-27)
(-1.13387e-05 1.31785e-06 2.50477e-23)
(-1.08968e-05 1.33831e-06 -4.99105e-23)
(-1.04967e-05 1.35823e-06 -1.88701e-28)
(-1.01399e-05 1.37455e-06 0)
(-9.79293e-06 1.39197e-06 0)
(-9.44395e-06 1.39748e-06 0)
(-9.05877e-06 1.39839e-06 -2.46145e-23)
(-8.60648e-06 1.37713e-06 0)
(-8.07741e-06 1.34095e-06 0)
(-7.44369e-06 1.27774e-06 -4.90647e-23)
(-6.71741e-06 1.19039e-06 -2.45493e-23)
(-5.90629e-06 1.07889e-06 0)
(-5.0338e-06 9.48232e-07 4.91088e-23)
(-4.14813e-06 8.01011e-07 1.48439e-27)
(-3.27778e-06 6.52259e-07 -3.24731e-28)
(-2.48318e-06 5.05636e-07 -9.76552e-23)
(-1.79128e-06 3.753e-07 -4.86547e-23)
(-1.24545e-06 2.67101e-07 4.90238e-23)
(-8.60868e-07 1.91681e-07 4.84128e-23)
(-6.55497e-07 1.50142e-07 4.90897e-23)
(-6.32391e-07 1.52027e-07 -7.37204e-28)
(-7.927e-07 1.96151e-07 0)
(-1.13348e-06 2.88401e-07 0)
(-1.65696e-06 4.29397e-07 0)
(-2.35816e-06 6.23897e-07 0)
(-3.25085e-06 8.76993e-07 0)
(-4.31329e-06 1.18678e-06 4.80663e-23)
(-5.56904e-06 1.56284e-06 0)
(-6.93332e-06 1.98484e-06 -7.27705e-28)
(-8.4497e-06 2.46623e-06 3.7143e-28)
(-9.85756e-06 2.93508e-06 3.67831e-28)
(-1.12818e-05 3.42148e-06 0)
(-1.20984e-05 3.73988e-06 4.83617e-23)
(-1.27621e-05 4.01516e-06 -7.34259e-28)
(-1.17133e-05 3.74942e-06 -4.75189e-23)
(-1.05415e-05 3.40888e-06 1.82101e-28)
(-4.96095e-06 1.5851e-06 -4.77412e-23)
(1.71575e-09 -2.00588e-07 0)
(2.25258e-05 -8.08462e-06 0)
(2.9819e-05 -4.74072e-05 -1.04389e-22)
(8.1055e-05 0.000988674 0)
(2.13095e-05 0.000863339 -1.79555e-24)
(6.06831e-05 0.00117298 -1.05741e-26)
(0.000162681 0.00138483 2.18705e-24)
(0.000467704 0.00155409 -9.75242e-24)
(0.000586809 0.00113442 0)
(0.000558079 0.00098792 1.24443e-26)
(0.000643487 0.000958845 -1.14278e-26)
(0.000620589 0.000803796 -1.5908e-26)
(0.000629853 0.000721055 4.76751e-26)
(0.000598668 0.000615433 -3.22378e-26)
(0.000577667 0.000539827 -1.38916e-22)
(0.000543485 0.000465135 1.34975e-22)
(0.000512615 0.000405109 7.03711e-23)
(0.000480329 0.000352716 -1.33005e-22)
(0.000447611 0.00030621 0)
(0.000417085 0.00026745 0)
(0.000386723 0.00023256 1.21723e-22)
(0.000357438 0.000202227 0)
(0.000331042 0.000176826 -1.16213e-22)
(0.000303962 0.000153078 -2.68542e-26)
(0.000278979 0.000132865 2.69234e-26)
(0.000255685 0.000115227 0)
(0.000232328 9.8936e-05 -1.96841e-22)
(0.000210944 8.51014e-05 9.46949e-23)
(0.000190559 7.27221e-05 2.12216e-26)
(0.000170573 6.15054e-05 1.71567e-22)
(0.000152395 5.20117e-05 8.08992e-23)
(0.000134686 4.3371e-05 -7.50189e-23)
(0.00011792 3.58089e-05 -7.36999e-23)
(0.000102698 2.94187e-05 1.64723e-26)
(8.78296e-05 2.36294e-05 6.41317e-23)
(7.41343e-05 1.87251e-05 0)
(6.16226e-05 1.45883e-05 -5.75006e-23)
(4.97254e-05 1.0987e-05 -5.45918e-23)
(3.90741e-05 8.05599e-06 0)
(2.93408e-05 5.62598e-06 9.64678e-23)
(2.046e-05 3.64435e-06 4.64287e-23)
(1.27205e-05 2.11893e-06 0)
(5.74483e-06 9.28785e-07 -9.8526e-27)
(-2.62237e-07 6.77712e-08 9.75345e-27)
(-5.37961e-06 -5.19315e-07 -1.84214e-23)
(-9.75819e-06 -8.86068e-07 -1.76401e-23)
(-1.32919e-05 -1.06184e-06 0)
(-1.61844e-05 -1.08846e-06 -1.58535e-23)
(-1.83872e-05 -1.00099e-06 -8.19971e-28)
(-2.00257e-05 -8.25774e-07 0)
(-2.115e-05 -5.91529e-07 0)
(-2.18149e-05 -3.18793e-07 3.34585e-24)
(-2.20903e-05 -2.77693e-08 -3.16033e-27)
(-2.20161e-05 2.67769e-07 -6.19675e-24)
(-2.16261e-05 5.51708e-07 5.95297e-24)
(-2.11117e-05 8.15367e-07 0)
(-2.05423e-05 1.00149e-06 -7.08717e-24)
(-1.99157e-05 1.14119e-06 1.40723e-23)
(-1.92709e-05 1.2849e-06 6.82535e-27)
(-1.8533e-05 1.38368e-06 -3.39316e-27)
(-1.78223e-05 1.44907e-06 3.36217e-27)
(-1.71086e-05 1.5164e-06 -3.35251e-27)
(-1.6381e-05 1.56385e-06 1.36249e-23)
(-1.56842e-05 1.60882e-06 -1.35879e-23)
(-1.50103e-05 1.64006e-06 0)
(-1.43964e-05 1.67062e-06 -2.69559e-23)
(-1.38367e-05 1.69721e-06 2.6857e-23)
(-1.33296e-05 1.72265e-06 2.68046e-23)
(-1.28771e-05 1.74378e-06 3.26175e-27)
(-1.24367e-05 1.76573e-06 2.66531e-23)
(-1.19935e-05 1.77286e-06 0)
(-1.15042e-05 1.77358e-06 0)
(-1.09298e-05 1.74648e-06 2.65459e-23)
(-1.02583e-05 1.69994e-06 -1.61205e-27)
(-9.45458e-06 1.61961e-06 2.64021e-23)
(-8.53403e-06 1.50849e-06 0)
(-7.50655e-06 1.36721e-06 -1.60151e-27)
(-6.40202e-06 1.20165e-06 -2.64251e-23)
(-5.28115e-06 1.01572e-06 1.59759e-27)
(-4.18014e-06 8.27767e-07 5.26142e-23)
(-3.1752e-06 6.43109e-07 5.25517e-23)
(-2.30044e-06 4.79057e-07 -1.9476e-27)
(-1.61052e-06 3.43335e-07 1.60932e-27)
(-1.12472e-06 2.48966e-07 -5.21082e-23)
(-8.65624e-07 1.97781e-07 -5.28307e-23)
(-8.37236e-07 2.01344e-07 -1.79569e-30)
(-1.04098e-06 2.58568e-07 5.26858e-23)
(-1.47319e-06 3.76544e-07 7.92937e-28)
(-2.13656e-06 5.56379e-07 -1.60477e-27)
(-3.02472e-06 8.03776e-07 7.93021e-28)
(-4.15479e-06 1.12532e-06 0)
(-5.49902e-06 1.51836e-06 5.17317e-23)
(-7.08668e-06 1.99483e-06 5.27501e-23)
(-8.81023e-06 2.52887e-06 5.13753e-23)
(-1.07241e-05 3.13689e-06 -5.22398e-23)
(-1.24987e-05 3.72813e-06 0)
(-1.42913e-05 4.33935e-06 -3.92626e-28)
(-1.53134e-05 4.73698e-06 -1.04099e-22)
(-1.61395e-05 5.07633e-06 0)
(-1.48e-05 4.7313e-06 5.11442e-23)
(-1.33029e-05 4.28439e-06 5.15217e-23)
(-6.23723e-06 1.96527e-06 -1.63805e-27)
(3.74572e-08 -3.35747e-07 0)
(2.84238e-05 -1.0275e-05 -5.05975e-29)
(3.73582e-05 -5.979e-05 -5.6128e-23)
(8.77258e-05 0.00120094 0)
(2.73988e-05 0.00105641 0)
(7.77696e-05 0.00142742 -1.80902e-24)
(0.000201097 0.00168295 -3.24643e-28)
(0.000566766 0.00188754 2.09085e-23)
(0.000714543 0.00138991 -2.37339e-27)
(0.000682319 0.00121053 -1.8155e-27)
(0.000785476 0.00117268 1.22695e-26)
(0.000759338 0.000986195 6.47225e-23)
(0.000770752 0.000884382 0)
(0.000733596 0.000755992 0)
(0.000708143 0.000663242 7.4688e-23)
(0.000666772 0.000571934 -1.45159e-22)
(0.000629173 0.000498282 -7.57458e-23)
(0.000589812 0.000434021 1.43118e-22)
(0.000549867 0.000376936 -1.43332e-22)
(0.000512525 0.000329309 1.39676e-22)
(0.000475365 0.000286439 -1.30956e-22)
(0.000439501 0.000249149 -3.27531e-26)
(0.000407126 0.000217898 0)
(0.000373931 0.000188698 2.88915e-26)
(0.000343273 0.000163817 -5.75111e-26)
(0.000314671 0.000142106 2.69664e-26)
(0.000286004 0.000122058 1.05909e-22)
(0.000259732 0.000105017 2.46299e-26)
(0.000234683 8.97711e-05 9.45724e-23)
(0.000210131 7.5957e-05 -9.22711e-23)
(0.000187779 6.42549e-05 -5.27713e-28)
(0.000166008 5.36079e-05 -8.07132e-23)
(0.000145393 4.42857e-05 -1.96321e-26)
(0.000126665 3.64038e-05 1.77263e-26)
(0.000108377 2.92648e-05 -6.90608e-23)
(9.15252e-05 2.32122e-05 6.67685e-23)
(7.61244e-05 1.81051e-05 -6.18852e-23)
(6.14817e-05 1.36583e-05 4.35596e-28)
(4.8366e-05 1.00354e-05 2.72993e-26)
(3.6379e-05 7.03075e-06 -5.19139e-23)
(2.5441e-05 4.5784e-06 -4.99951e-23)
(1.59039e-05 2.68806e-06 4.69105e-23)
(7.30756e-06 1.21164e-06 4.40278e-23)
(-9.80627e-08 1.40803e-07 -1.02163e-26)
(-6.40938e-06 -5.91672e-07 2.55043e-28)
(-1.18109e-05 -1.0521e-06 1.89955e-23)
(-1.61734e-05 -1.27648e-06 0)
(-1.9746e-05 -1.31658e-06 8.24385e-27)
(-2.24699e-05 -1.21502e-06 -9.08359e-27)
(-2.44986e-05 -1.00498e-06 7.79031e-24)
(-2.5894e-05 -7.21103e-07 7.53578e-24)
(-2.67237e-05 -3.89556e-07 -3.48711e-27)
(-2.70734e-05 -3.45434e-08 4.8537e-29)
(-2.69924e-05 3.26451e-07 3.33784e-24)
(-2.65225e-05 6.73976e-07 0)
(-2.58976e-05 9.96688e-07 0)
(-2.52041e-05 1.22519e-06 1.52473e-23)
(-2.44392e-05 1.39664e-06 3.475e-28)
(-2.36512e-05 1.5731e-06 0)
(-2.2749e-05 1.69427e-06 -1.49192e-23)
(-2.18792e-05 1.77507e-06 3.63612e-27)
(-2.10055e-05 1.85773e-06 -3.59219e-27)
(-2.01148e-05 1.91651e-06 -2.93235e-23)
(-1.92616e-05 1.97193e-06 2.92509e-23)
(-1.84365e-05 2.01101e-06 -3.55825e-27)
(-1.76846e-05 2.04881e-06 2.90106e-23)
(-1.69989e-05 2.08223e-06 3.52379e-27)
(-1.63774e-05 2.11371e-06 -3.52659e-27)
(-1.58221e-05 2.14018e-06 3.50192e-27)
(-1.52814e-05 2.16697e-06 -2.8692e-23)
(-1.47366e-05 2.17585e-06 2.86436e-23)
(-1.41352e-05 2.17618e-06 -3.48391e-27)
(-1.34295e-05 2.1427e-06 -2.85679e-23)
(-1.26048e-05 2.08479e-06 0)
(-1.16188e-05 1.98598e-06 0)
(-1.04903e-05 1.84927e-06 0)
(-9.23159e-06 1.67615e-06 1.72363e-27)
(-7.87953e-06 1.47333e-06 -1.73704e-27)
(-6.50805e-06 1.24637e-06 0)
(-5.16158e-06 1.01685e-06 -5.66267e-23)
(-3.933e-06 7.92137e-07 5.65561e-23)
(-2.86401e-06 5.92669e-07 5.6358e-23)
(-2.02119e-06 4.28264e-07 5.67845e-23)
(-1.4282e-06 3.14312e-07 1.43091e-27)
(-1.11249e-06 2.53581e-07 5.68596e-23)
(-1.07911e-06 2.59596e-07 0)
(-1.32978e-06 3.31517e-07 6.72743e-29)
(-1.86008e-06 4.7759e-07 0)
(-2.67314e-06 6.99557e-07 -5.65966e-23)
(-3.76104e-06 1.004e-06 0)
(-5.14434e-06 1.39912e-06 -8.62763e-28)
(-6.78863e-06 1.8814e-06 -5.5676e-23)
(-8.72906e-06 2.46508e-06 -5.6772e-23)
(-1.08335e-05 3.11841e-06 -5.52949e-23)
(-1.31679e-05 3.86058e-06 5.62246e-23)
(-1.53285e-05 4.58089e-06 0)
(-1.75075e-05 5.32261e-06 0)
(-1.87409e-05 5.80145e-06 1.12039e-22)
(-1.97311e-05 6.20406e-06 5.57795e-23)
(-1.80729e-05 5.76934e-06 -1.1009e-22)
(-1.622e-05 5.20061e-06 1.65504e-27)
(-7.56583e-06 2.34699e-06 1.10607e-22)
(1.0612e-07 -5.23095e-07 1.06531e-28)
(3.46942e-05 -1.26381e-05 -5.5009e-23)
(4.53747e-05 -7.29526e-05 2.41654e-22)
(9.48252e-05 0.00142352 0)
(3.44553e-05 0.00126196 2.06546e-24)
(9.73231e-05 0.00169536 -5.80253e-27)
(0.000242823 0.00199602 6.54346e-27)
(0.000670258 0.00223732 -5.41582e-26)
(0.000849314 0.00166276 5.9688e-23)
(0.000814493 0.00144851 -2.86766e-26)
(0.000936089 0.00140044 -6.91472e-27)
(0.000907244 0.0011817 -6.95328e-23)
(0.000921004 0.00105938 3.53233e-27)
(0.000877889 0.000907058 7.78604e-23)
(0.000847802 0.000795953 -8.02119e-23)
(0.000798955 0.000686965 0)
(0.000754259 0.000598709 8.13979e-23)
(0.000707417 0.000521732 1.53843e-22)
(0.000659804 0.000453294 1.54264e-22)
(0.000615202 0.000396129 -1.50223e-22)
(0.000570789 0.000344677 1.40803e-22)
(0.000527898 0.000299897 0)
(0.000489117 0.000262335 3.26622e-26)
(0.000449376 0.000227263 -3.14775e-26)
(0.00041263 0.000197343 0)
(0.000378327 0.000171235 0)
(0.000343959 0.000147133 0)
(0.000312432 0.000126625 0)
(0.000282365 0.000108281 -1.01806e-22)
(0.000252901 9.16597e-05 0)
(0.000226054 7.75668e-05 0)
(0.000199908 6.47493e-05 1.73722e-22)
(0.000175147 5.35211e-05 -2.11258e-26)
(0.000152637 4.40222e-05 1.90755e-26)
(0.000130662 3.54208e-05 7.42694e-23)
(0.000110405 2.81221e-05 -7.18287e-23)
(9.1885e-05 2.19612e-05 -5.66394e-27)
(7.42791e-05 1.65962e-05 6.32464e-23)
(5.8501e-05 1.22202e-05 1.44685e-26)
(4.40783e-05 8.58972e-06 5.58327e-23)
(3.0917e-05 5.62393e-06 5.38006e-23)
(1.94353e-05 3.33455e-06 -5.04446e-23)
(9.08565e-06 1.54448e-06 -4.73917e-23)
(1.65895e-07 2.42733e-07 -1.1297e-26)
(-7.43897e-06 -6.50636e-07 1.02874e-26)
(-1.39492e-05 -1.21578e-06 -8.64767e-27)
(-1.92113e-05 -1.49586e-06 0)
(-2.35225e-05 -1.55341e-06 0)
(-2.68137e-05 -1.43915e-06 3.54937e-23)
(-2.92681e-05 -1.19372e-06 8.54677e-27)
(-3.09606e-05 -8.58123e-07 -8.10991e-24)
(-3.19723e-05 -4.64695e-07 0)
(-3.24063e-05 -4.19395e-08 0)
(-3.2322e-05 3.88586e-07 0)
(-3.17699e-05 8.03924e-07 0)
(-3.10289e-05 1.18971e-06 8.30743e-24)
(-3.02042e-05 1.46364e-06 -1.64096e-23)
(-2.92926e-05 1.6692e-06 -1.62991e-23)
(-2.83523e-05 1.88081e-06 -1.61873e-23)
(-2.72752e-05 2.02604e-06 1.60522e-23)
(-2.62358e-05 2.12353e-06 -1.59876e-23)
(-2.51914e-05 2.22271e-06 3.86602e-27)
(-2.41265e-05 2.29383e-06 1.57774e-23)
(-2.31064e-05 2.36063e-06 -1.57422e-23)
(-2.21198e-05 2.40838e-06 3.13209e-23)
(-2.12207e-05 2.45415e-06 3.80561e-27)
(-2.04003e-05 2.49517e-06 -1.07097e-29)
(-1.96564e-05 2.53332e-06 -3.79544e-27)
(-1.8991e-05 2.56568e-06 -3.76889e-27)
(-1.83424e-05 2.59766e-06 8.60116e-30)
(-1.76882e-05 2.6084e-06 -6.16357e-23)
(-1.6966e-05 2.60812e-06 -3.06812e-23)
(-1.61188e-05 2.56763e-06 -3.07501e-23)
(-1.51296e-05 2.49725e-06 3.72806e-27)
(-1.39481e-05 2.3785e-06 -5.9381e-30)
(-1.25971e-05 2.21428e-06 -3.73883e-27)
(-1.10917e-05 2.00714e-06 0)
(-9.47585e-06 1.76463e-06 3.73456e-27)
(-7.83774e-06 1.4942e-06 -3.7052e-27)