/*--------------------------------*- C++ -*----------------------------------*\
| =========                 |                                                 |
| \\      /  F ield         | OpenFOAM: The Open Source CFD Toolbox           |
|  \\    /   O peration     | Version:  5.x                                   |
|   \\  /    A nd           | Web:      www.OpenFOAM.org                      |
|    \\/     M anipulation  |                                                 |
\*---------------------------------------------------------------------------*/
FoamFile
{
    version     2.0;
    format      ascii;
    class       volVectorField;
    location    "1500";
    object      wallShearStress;
}
// * * * * * * * * * * * * * * * * * * * * * * * * * * * * * * * * * * * * * //

dimensions      [0 2 -2 0 0 0 0];

internalField   uniform (0 0 0);

boundaryField
{
    inlet
    {
        type            calculated;
        value           uniform (0 0 0);
    }
    outlet
    {
        type            calculated;
        value           uniform (0 0 0);
    }
    walls
    {
        type            calculated;
        value           nonuniform List<vector> 
204
(
(-1.10897e-05 -2.27164e-05 1.00568e-28)
(-3.9827e-07 -1.91936e-05 -9.5735e-29)
(-1.11096e-06 -2.66361e-05 -2.33439e-25)
(-3.46249e-06 -3.13834e-05 -3.03469e-25)
(-1.07048e-05 -3.52715e-05 2.65023e-24)
(-1.34351e-05 -2.53701e-05 -7.19705e-24)
(-1.25157e-05 -2.19836e-05 -5.28145e-24)
(-1.46657e-05 -2.17228e-05 -1.7324e-28)
(-1.41303e-05 -1.81181e-05 1.02466e-27)
(-1.44615e-05 -1.64267e-05 1.13088e-27)
(-1.37807e-05 -1.40414e-05 1.22227e-27)
(-1.33721e-05 -1.23973e-05 -9.78943e-24)
(-1.26262e-05 -1.07179e-05 -1.91427e-23)
(-1.19588e-05 -9.37768e-06 -1.58841e-27)
(-1.12441e-05 -8.19307e-06 1.90572e-23)
(-1.05148e-05 -7.13798e-06 -1.91816e-23)
(-9.82721e-06 -6.2539e-06 -2.29384e-27)
(-9.14086e-06 -5.45481e-06 -7.63383e-40)
(-8.47192e-06 -4.75614e-06 3.62038e-23)
(-7.8673e-06 -4.16964e-06 1.69776e-23)
(-7.2429e-06 -3.61798e-06 9.75752e-41)
(-6.66359e-06 -3.14741e-06 0)
(-6.1223e-06 -2.73542e-06 1.50345e-23)
(-5.57591e-06 -2.35294e-06 -1.45779e-23)
(-5.07329e-06 -2.02747e-06 -1.40681e-23)
(-4.59314e-06 -1.73523e-06 -2.62015e-23)
(-4.11923e-06 -1.46926e-06 1.28234e-23)
(-3.68662e-06 -1.24376e-06 -1.21235e-23)
(-3.26369e-06 -1.03769e-06 1.12734e-23)
(-2.86104e-06 -8.56807e-07 1.11117e-23)
(-2.49437e-06 -7.03684e-07 -1.03395e-23)
(-2.13466e-06 -5.64385e-07 1.75061e-40)
(-1.8019e-06 -4.46257e-07 9.42467e-24)
(-1.49704e-06 -3.46428e-07 -1.05279e-27)
(-1.20584e-06 -2.5929e-07 1.03376e-27)
(-9.44396e-07 -1.88427e-07 3.22678e-28)
(-7.04804e-07 -1.296e-07 -7.39594e-24)
(-4.85418e-07 -8.16624e-08 -2.57456e-28)
(-2.93908e-07 -4.48724e-08 8.07246e-28)
(-1.20797e-07 -1.62456e-08 6.3112e-24)
(2.84979e-08 4.27139e-09 -7.53388e-28)
(1.55823e-07 1.8078e-08 1.56474e-40)
(2.64941e-07 2.6457e-08 2.69049e-43)
(3.52886e-07 3.01296e-08 2.59966e-24)
(4.24897e-07 3.00945e-08 -6.72623e-44)
(4.79525e-07 2.73303e-08 4.76098e-24)
(5.19952e-07 2.23309e-08 1.12638e-24)
(5.47408e-07 1.60141e-08 1.0879e-24)
(5.63191e-07 8.67054e-09 -2.02263e-41)
(5.69116e-07 1.01738e-09 3.52952e-44)
(5.66135e-07 -6.7328e-09 4.81718e-25)
(5.551e-07 -1.40989e-08 4.52188e-28)
(5.41227e-07 -2.09707e-08 1.11482e-24)
(5.25689e-07 -2.56867e-08 1.10031e-24)
(5.08442e-07 -2.92537e-08 2.18204e-24)
(4.9103e-07 -3.28599e-08 -2.16404e-24)
(4.70964e-07 -3.53604e-08 4.28405e-24)
(4.51542e-07 -3.68701e-08 2.59186e-28)
(4.32233e-07 -3.85338e-08 -2.10757e-24)
(4.12615e-07 -3.9568e-08 2.09034e-24)
(3.93882e-07 -4.06264e-08 -4.48416e-44)
(3.75796e-07 -4.12271e-08 4.12695e-24)
(3.59286e-07 -4.19041e-08 -2.50796e-28)
(3.44252e-07 -4.23647e-08 -4.07641e-24)
(3.30566e-07 -4.28942e-08 -2.47959e-28)
(3.18349e-07 -4.32235e-08 4.02672e-24)
(3.06504e-07 -4.36863e-08 1.22509e-28)
(2.94651e-07 -4.36817e-08 -6.0267e-41)
(2.81738e-07 -4.36364e-08 3.96076e-24)
(2.66797e-07 -4.28157e-08 1.15607e-44)
(2.49531e-07 -4.16309e-08 3.91963e-24)
(2.29131e-07 -3.95303e-08 7.81783e-24)
(2.05948e-07 -3.67531e-08 -7.17465e-43)
(1.8031e-07 -3.31895e-08 -1.17749e-28)
(1.52898e-07 -2.91023e-08 1.1825e-28)
(1.25275e-07 -2.44486e-08 1.1664e-28)
(9.82896e-08 -1.98408e-08 -7.65623e-24)
(7.37827e-08 -1.5246e-08 1.52376e-23)
(5.25513e-08 -1.12077e-08 0)
(3.58841e-08 -7.82408e-09 -1.94792e-40)
(2.41785e-08 -5.48237e-09 -7.47287e-24)
(1.79331e-08 -4.12256e-09 7.54899e-24)
(1.71614e-08 -4.10952e-09 -7.39785e-24)
(2.18483e-08 -5.31619e-09 -1.14018e-28)
(3.18306e-08 -7.96476e-09 5.60901e-29)
(4.71329e-08 -1.20033e-08 -7.40244e-24)
(6.75382e-08 -1.76076e-08 -9.11982e-29)
(9.34226e-08 -2.48735e-08 8.74244e-32)
(1.24078e-07 -3.3752e-08 5.49771e-29)
(1.60187e-07 -4.45122e-08 7.31411e-24)
(1.99219e-07 -5.65478e-08 -3.58732e-43)
(2.42445e-07 -7.02727e-08 5.47823e-29)
(2.82302e-07 -8.35707e-08 -8.13559e-29)
(3.22459e-07 -9.73994e-08 2.68735e-29)
(3.44962e-07 -1.06373e-07 1.08304e-29)
(3.6317e-07 -1.14293e-07 7.02552e-24)
(3.3239e-07 -1.06781e-07 -6.90726e-24)
(2.98732e-07 -9.76585e-08 1.38638e-23)
(1.40165e-07 -4.65708e-08 2.63794e-29)
(8.83532e-11 1.11615e-09 -6.97156e-24)
(-6.39983e-07 2.25174e-07 -2.70927e-28)
(-1.12696e-06 2.29859e-06 -1.37162e-23)
(5.78367e-06 -2.02253e-05 4.03208e-24)
(3.66146e-06 -1.06971e-05 -1.03806e-23)
(4.20494e-06 -8.15843e-06 8.80045e-28)
(1.56105e-06 -2.37759e-06 -1.35359e-23)
(-2.17259e-07 2.2202e-07 1.41279e-23)
(-2.91174e-06 2.88611e-06 -1.26375e-23)
(-4.84811e-06 4.08656e-06 1.51619e-27)
(-6.71412e-06 4.87532e-06 -5.28233e-41)
(-7.99603e-06 5.05776e-06 1.43493e-42)
(-9.02364e-06 5.01512e-06 -8.83061e-24)
(-9.65805e-06 4.75094e-06 -1.56151e-27)
(-1.01124e-05 4.42641e-06 7.07184e-24)
(-1.03161e-05 4.03697e-06 1.19471e-23)
(-1.04186e-05 3.65743e-06 -5.48255e-24)
(-1.03988e-05 3.28213e-06 2.30276e-27)
(-1.02874e-05 2.92332e-06 -4.06975e-24)
(-1.01521e-05 2.59743e-06 7.31838e-24)
(-9.94384e-06 2.29186e-06 4.30479e-42)
(-9.72798e-06 2.01863e-06 -1.36104e-24)
(-9.49994e-06 1.77062e-06 3.32724e-41)
(-9.23061e-06 1.54208e-06 2.03053e-28)
(-8.99337e-06 1.34218e-06 1.72064e-24)
(-8.73281e-06 1.15989e-06 -4.99818e-29)
(-8.46992e-06 9.96711e-07 -4.47414e-29)
(-8.23031e-06 8.50416e-07 -4.85792e-25)
(-7.96979e-06 7.17958e-07 -3.79631e-25)
(-7.73261e-06 6.01874e-07 3.02031e-25)
(-7.50081e-06 4.95423e-07 -1.68156e-44)
(-7.25926e-06 4.00988e-07 6.24641e-29)
(-7.04795e-06 3.1749e-07 -6.13646e-29)
(-6.82971e-06 2.4141e-07 2.19505e-26)
(-6.619e-06 1.75693e-07 -6.83133e-45)
(-6.42806e-06 1.15103e-07 -1.10939e-26)
(-6.22681e-06 6.20523e-08 9.9497e-27)
(-6.04892e-06 1.63883e-08 3.51144e-27)
(-5.87358e-06 -2.63306e-08 -8.78317e-27)
(-5.69872e-06 -6.17289e-08 -7.35125e-29)
(-5.54656e-06 -9.40126e-08 4.73468e-26)
(-5.38665e-06 -1.22203e-07 9.50493e-29)
(-5.24486e-06 -1.44962e-07 -1.11602e-25)
(-5.10911e-06 -1.67139e-07 1.1977e-25)
(-4.97354e-06 -1.83476e-07 -6.26988e-29)
(-4.85912e-06 -1.99016e-07 2.63908e-25)
(-4.73797e-06 -2.11372e-07 -2.70333e-25)
(-4.63686e-06 -2.20624e-07 -5.59996e-25)
(-4.5373e-06 -2.29659e-07 6.8394e-29)
(-4.44659e-06 -2.34532e-07 5.84842e-25)
(-4.36897e-06 -2.40165e-07 -6.02022e-25)
(-4.29197e-06 -2.42099e-07 6.08236e-29)
(-4.23515e-06 -2.44373e-07 -7.4591e-29)
(-4.17551e-06 -2.44196e-07 -7.81413e-29)
(-4.14216e-06 -2.40972e-07 7.71091e-29)
(-4.13205e-06 -2.4272e-07 -8.05395e-25)
(-4.10477e-06 -2.4768e-07 -8.34083e-25)
(-4.0819e-06 -2.51165e-07 1.97701e-29)
(-4.06418e-06 -2.57937e-07 -1.09162e-28)
(-4.02954e-06 -2.66457e-07 2.22643e-28)
(-3.99031e-06 -2.72739e-07 -1.12445e-28)
(-3.95431e-06 -2.77135e-07 -9.55936e-25)
(-3.92031e-06 -2.8175e-07 4.48416e-44)
(-3.88278e-06 -2.85314e-07 -2.00142e-24)
(-3.85118e-06 -2.87829e-07 1.02143e-24)
(-3.82044e-06 -2.90865e-07 -1.28566e-28)
(-3.78861e-06 -2.92574e-07 2.59187e-28)
(-3.76391e-06 -2.94182e-07 1.07988e-24)
(-3.73737e-06 -2.95823e-07 1.35548e-28)
(-3.7146e-06 -2.96464e-07 -2.04245e-28)
(-3.69574e-06 -2.97582e-07 6.85907e-29)
(-3.67573e-06 -2.98111e-07 2.71291e-41)
(-3.66188e-06 -2.98361e-07 -1.17177e-24)
(-3.6483e-06 -2.98941e-07 -7.33283e-29)
(-3.63727e-06 -2.98905e-07 1.2133e-24)
(-3.63027e-06 -2.9914e-07 -1.2233e-24)
(-3.62317e-06 -2.9919e-07 -7.69514e-29)
(-3.62108e-06 -2.99099e-07 7.64384e-29)
(-3.61972e-06 -2.99227e-07 4.48416e-44)
(-3.62164e-06 -2.99163e-07 1.30909e-24)
(-3.62592e-06 -2.99259e-07 -1.31758e-24)
(-3.63222e-06 -2.99364e-07 1.34525e-43)
(-3.64182e-06 -2.99506e-07 1.35804e-24)
(-3.65302e-06 -2.99797e-07 2.78029e-24)
(-3.66773e-06 -3.00158e-07 2.81358e-24)
(-3.68415e-06 -3.00657e-07 1.43059e-24)
(-3.704e-06 -3.01356e-07 -1.45782e-24)
(-3.72595e-06 -3.0216e-07 -1.47401e-24)
(-3.75102e-06 -3.03246e-07 -3.02017e-24)
(-3.77907e-06 -3.04487e-07 -1.81563e-40)
(-3.8096e-06 -3.06011e-07 4.81913e-29)
(-3.84474e-06 -3.07837e-07 -4.76427e-29)
(-3.88116e-06 -3.09927e-07 1.61496e-24)
(-3.92458e-06 -3.12538e-07 1.64409e-24)
(-3.96749e-06 -3.1531e-07 -1.1243e-30)
(-4.02142e-06 -3.18977e-07 5.21806e-29)
(-4.07141e-06 -3.22519e-07 1.71878e-24)
(-4.14379e-06 -3.27983e-07 -1.77286e-24)
(-4.19469e-06 -3.31962e-07 -1.83397e-24)
(-4.3104e-06 -3.41205e-07 -3.68487e-24)
(-4.33985e-06 -3.44129e-07 -2.24208e-44)
(-4.57886e-06 -3.6357e-07 -1.92188e-24)
(-4.51955e-06 -3.60627e-07 7.42241e-30)
(-5.27891e-06 -4.22298e-07 -1.96485e-24)
(-4.96495e-06 -2.32075e-06 -4.45133e-24)
)
;
    }
    frontAndBack
    {
        type            empty;
    }
}


// ************************************************************************* //
