/*--------------------------------*- C++ -*----------------------------------*\
| =========                 |                                                 |
| \\      /  F ield         | OpenFOAM: The Open Source CFD Toolbox           |
|  \\    /   O peration     | Version:  5.x                                   |
|   \\  /    A nd           | Web:      www.OpenFOAM.org                      |
|    \\/     M anipulation  |                                                 |
\*---------------------------------------------------------------------------*/
FoamFile
{
    version     2.0;
    format      ascii;
    class       volScalarField;
    location    "1500";
    object      yPlus;
}
// * * * * * * * * * * * * * * * * * * * * * * * * * * * * * * * * * * * * * //

dimensions      [0 0 0 0 0 0 0];

internalField   uniform 0;

boundaryField
{
    inlet
    {
        type            calculated;
        value           uniform 0;
    }
    outlet
    {
        type            calculated;
        value           uniform 0;
    }
    walls
    {
        type            calculated;
        value           nonuniform List<scalar> 
204
(
0.0170525
0.0152477
0.0180978
0.0198631
0.0214996
0.0185366
0.0174879
0.0176435
0.0163689
0.01584
0.0148949
0.0142386
0.0134765
0.0128337
0.0122146
0.0116138
0.0110714
0.0105362
0.0100254
0.00956372
0.00908394
0.00863752
0.0082119
0.00777383
0.00736382
0.00695844
0.00654593
0.00615679
0.00575835
0.00536179
0.00498164
0.00458476
0.00419295
0.00380537
0.00340064
0.00299825
0.00258067
0.00213425
0.00165566
0.0010581
0.000513648
0.00119669
0.00155691
0.00179366
0.00196508
0.002085
0.00216906
0.00222401
0.002255
0.00226657
0.00226103
0.00223997
0.00221269
0.00218313
0.00215104
0.00211733
0.00207838
0.00204071
0.00200192
0.0019615
0.00192199
0.00188295
0.00184694
0.00181355
0.00178306
0.0017557
0.00172868
0.00170095
0.00166925
0.00163032
0.0015827
0.00152231
0.00144893
0.001361
0.00125836
0.00114356
0.00101713
0.000884878
0.000749946
0.000622305
0.000513151
0.000443724
0.000436154
0.000494165
0.000599203
0.000732246
0.000880522
0.00104018
0.00120421
0.00137445
0.00153977
0.00170644
0.00184976
0.00198612
0.00206377
0.00212728
0.00204467
0.00194715
0.00133969
6.99361e-05
0.00289464
0.00469382
0.0153457
0.0113292
0.0099475
0.00541553
0.00174169
0.0061665
0.00747163
0.00834215
0.00872123
0.0089444
0.0089958
0.00899809
0.00892734
0.00884745
0.00874421
0.00862639
0.00851624
0.00839219
0.00827715
0.00816446
0.00804141
0.00793696
0.00782624
0.00771746
0.00761868
0.00751214
0.00741746
0.00732308
0.00722494
0.00714063
0.00705119
0.0069662
0.00688841
0.00680488
0.00673379
0.00666091
0.00658908
0.00652814
0.00646157
0.00640628
0.00635176
0.00629832
0.00625659
0.00620999
0.00617702
0.00614319
0.0061168
0.00609782
0.0060805
0.00607693
0.00607207
0.00608854
0.00611617
0.0061246
0.00613679
0.00615058
0.00614956
0.00614555
0.00614458
0.0061446
0.00614176
0.00614387
0.00614601
0.00614749
0.00615468
0.00616001
0.00616873
0.0061804
0.00619113
0.00620721
0.00622328
0.00624175
0.00626365
0.0062855
0.0063119
0.00633891
0.006369
0.00640126
0.00643546
0.00647275
0.00651162
0.00655382
0.00659774
0.00664493
0.00669422
0.00674652
0.00680174
0.0068594
0.00692148
0.00698492
0.00705491
0.00712466
0.00720454
0.00728111
0.00737787
0.0074557
0.00759105
0.00765042
0.00789277
0.00787598
0.00855041
0.00847386
)
;
    }
    frontAndBack
    {
        type            empty;
    }
}


// ************************************************************************* //
