/*--------------------------------*- C++ -*----------------------------------*\
| =========                 |                                                 |
| \\      /  F ield         | OpenFOAM: The Open Source CFD Toolbox           |
|  \\    /   O peration     | Version:  5.x                                   |
|   \\  /    A nd           | Web:      www.OpenFOAM.org                      |
|    \\/     M anipulation  |                                                 |
\*---------------------------------------------------------------------------*/
FoamFile
{
    version     2.0;
    format      ascii;
    class       volVectorField;
    location    "2250";
    object      wallShearStress;
}
// * * * * * * * * * * * * * * * * * * * * * * * * * * * * * * * * * * * * * //

dimensions      [0 2 -2 0 0 0 0];

internalField   uniform (0 0 0);

boundaryField
{
    inlet
    {
        type            calculated;
        value           uniform (0 0 0);
    }
    outlet
    {
        type            calculated;
        value           uniform (0 0 0);
    }
    walls
    {
        type            calculated;
        value           nonuniform List<vector> 
82
(
(0.310752 -1.72085 -7.52316e-37)
(0.0100818 -2.40177 1.1382e-20)
(-0.341378 -2.93594 -1.43838e-18)
(-0.84181 -2.92568 -1.54654e-18)
(-1.21468 -2.61321 -3.34989e-18)
(-1.45387 -2.1816 1.60298e-18)
(-1.57325 -1.7339 1.4729e-18)
(-1.59612 -1.32539 -1.31073e-18)
(-1.54546 -0.978825 -2.80929e-18)
(-1.43251 -0.693527 -8.79875e-20)
(-1.22671 -0.437783 -1.04735e-18)
(-0.991262 -0.243215 3.96214e-20)
(-0.811534 -0.136335 -5.31636e-19)
(-0.696743 -0.0882314 -3.30022e-19)
(-0.591432 -0.0574413 -1.27837e-19)
(-0.471496 -0.0299017 2.50527e-20)
(-0.344997 -0.0097797 -1.12211e-19)
(-0.225759 0.00122303 -2.5045e-20)
(-0.121958 0.00507639 2.28775e-20)
(-0.042707 0.00413781 2.25387e-19)
(-0.00342726 0.000979763 1.59592e-19)
(0.0104731 -0.000572977 2.97895e-19)
(0.0252076 -0.00213476 7.60057e-19)
(0.0366416 -0.00354643 5.54245e-20)
(0.0437207 -0.00474791 2.49404e-22)
(0.047233 -0.00568961 -3.1893e-20)
(0.0487219 -0.00651187 2.09984e-18)
(0.0494952 -0.00738209 -3.31291e-20)
(0.0503531 -0.00831256 2.17168e-18)
(0.0517862 -0.00930766 -2.11426e-18)
(0.0541229 -0.0104657 -3.33155e-20)
(0.0576761 -0.0118686 -1.6342e-20)
(0.0626351 -0.0135237 1.59066e-20)
(0.0687082 -0.0152732 3.00927e-36)
(0.0745033 -0.0166654 -3.79564e-18)
(0.0769542 -0.0169474 0)
(0.0725607 -0.0154255 -3.64403e-37)
(0.0611423 -0.0119858 6.35735e-21)
(0.0404709 -0.0055911 -4.30042e-21)
(0.0178487 0.00357218 2.25917e-18)
(0.0172249 0.0197065 2.20426e-18)
(0.380567 -1.19822 -4.56499e-19)
(0.269811 -0.601727 -6.71444e-20)
(0.14175 -0.258527 -3.44945e-18)
(0.0405795 -0.0782064 -1.69119e-18)
(-0.00177342 -0.0116726 -1.13618e-18)
(-0.0288772 0.00514674 -1.96068e-18)
(-0.0788622 0.0286671 -4.59247e-18)
(-0.136618 0.0505076 -2.19725e-18)
(-0.195064 0.0675883 1.97845e-18)
(-0.259546 0.0865272 1.37365e-19)
(-0.334508 0.103543 -4.22514e-18)
(-0.404806 0.106507 1.93904e-18)
(-0.463256 0.0995061 3.84692e-21)
(-0.514764 0.0901689 1.2115e-18)
(-0.561872 0.079569 1.87152e-18)
(-0.603527 0.0670595 -1.14418e-19)
(-0.639222 0.0529806 -1.88079e-37)
(-0.669254 0.0379493 -7.36656e-19)
(-0.694016 0.0224897 -5.16495e-20)
(-0.714042 0.00702644 -3.89356e-19)
(-0.729289 -0.00797343 6.89128e-22)
(-0.740521 -0.0218308 -5.64237e-37)
(-0.747538 -0.0330728 -7.90557e-19)
(-0.752885 -0.0431111 -6.81516e-19)
(-0.757064 -0.0521947 1.41798e-18)
(-0.760436 -0.0604723 1.38253e-18)
(-0.763332 -0.0680336 2.69642e-18)
(-0.765996 -0.0749697 1.3147e-18)
(-0.768618 -0.0813731 3.97422e-20)
(-0.771364 -0.0873409 -1.28753e-18)
(-0.774388 -0.0929751 -1.23536e-18)
(-0.777866 -0.0983817 2.3867e-18)
(-0.781966 -0.103675 2.32044e-18)
(-0.786871 -0.108967 -2.25278e-18)
(-0.792767 -0.114376 1.67879e-20)
(-0.799918 -0.120023 -1.65339e-20)
(-0.808555 -0.126051 -2.35099e-38)
(-0.819943 -0.132734 -2.93874e-39)
(-0.83205 -0.140185 3.59939e-21)
(-0.86094 -0.150082 -1.80211e-18)
(-0.857701 -0.159673 1.63188e-21)
)
;
    }
    frontAndBack
    {
        type            empty;
    }
}


// ************************************************************************* //
