/*--------------------------------*- C++ -*----------------------------------*\
| =========                 |                                                 |
| \\      /  F ield         | OpenFOAM: The Open Source CFD Toolbox           |
|  \\    /   O peration     | Version:  5.x                                   |
|   \\  /    A nd           | Web:      www.OpenFOAM.org                      |
|    \\/     M anipulation  |                                                 |
\*---------------------------------------------------------------------------*/
FoamFile
{
    version     2.0;
    format      ascii;
    class       volScalarField;
    location    "2450";
    object      p;
}
// * * * * * * * * * * * * * * * * * * * * * * * * * * * * * * * * * * * * * //

dimensions      [0 2 -2 0 0 0 0];

internalField   nonuniform List<scalar> 
11040
(
-0.00172914
-99.7326
-337.067
-401.178
-422.363
-435.339
-436.793
-426.495
-407.826
-381.895
-348.211
-296.466
-246.654
-211.176
-186.384
-159.954
-133.11
-107.754
-83.7502
-60.5827
-38.1636
-18.7979
-2.6151
12.53
26.7166
39.9687
52.2815
63.6435
73.9929
83.2301
91.2425
97.9101
103.177
107.112
109.914
111.84
112.63
112.05
111.724
115.213
115.273
36.5766
-59.9093
-212.477
-290.473
-331.382
-361.454
-379.287
-383.469
-376.487
-360.049
-334.364
-291.474
-246.299
-211.466
-186.128
-160.008
-133.472
-108.249
-84.3238
-61.2201
-38.842
-19.5242
-3.31101
11.8637
26.0824
39.3721
51.7301
63.1435
73.5532
82.8618
90.9509
97.6989
103.045
107.04
109.878
111.853
112.712
112.115
111.375
113.838
113.376
61.2551
-32.4991
-142.359
-234.014
-288.794
-325.027
-347.618
-356.285
-353.298
-340.636
-319.322
-283.738
-242.965
-208.957
-183.516
-158.389
-132.618
-107.789
-84.136
-61.2521
-39.0333
-19.7946
-3.62417
11.5199
25.7196
39.0021
51.3651
62.7937
73.2302
82.5788
90.7209
97.5336
102.947
107
109.877
111.891
112.814
112.272
111.388
113.052
112.239
78.6354
-5.1378
-87.3777
-171.033
-229.423
-270.857
-300.449
-317.068
-321.363
-315.17
-300.012
-272.174
-236.922
-204.864
-179.748
-155.733
-130.949
-106.717
-83.49
-60.9499
-38.9866
-19.9144
-3.84248
11.2347
25.388
38.6417
50.9933
62.4253
72.8808
82.2656
90.4613
97.3431
102.833
106.96
109.89
111.927
112.888
112.406
111.476
112.656
112.012
92.3287
20.5667
-43.324
-114.926
-173.762
-218.794
-253.048
-275.639
-286.308
-286.342
-277.335
-257.131
-228.281
-199.188
-174.819
-151.953
-128.39
-104.99
-82.3575
-60.3042
-38.7249
-19.9176
-4.00816
10.9479
25.0091
38.1957
50.505
61.9172
72.3759
81.789
90.0396
97.0028
102.594
106.83
109.847
111.92
112.918
112.525
111.592
112.595
112.455
102.747
42.9584
-8.03293
-67.427
-121.969
-167.091
-203.663
-230.738
-247.184
-253.45
-250.814
-238.176
-216.308
-191.236
-168.358
-146.851
-124.76
-102.456
-80.6046
-59.19
-38.1323
-19.6899
-4.02494
10.7371
24.6427
37.7068
49.9258
61.2779
71.7077
81.1265
89.4207
96.4684
102.18
106.557
109.702
111.848
112.913
112.674
111.83
112.818
113.227
110.636
61.6514
20.2389
-28.3103
-76.0002
-118.36
-154.81
-184.211
-204.945
-216.688
-220.156
-214.755
-200.171
-180.213
-159.875
-140.153
-119.819
-98.9157
-78.0875
-57.4966
-37.1178
-19.1598
-3.83709
10.6472
24.3235
37.1975
49.2647
60.5021
70.8566
80.2448
88.5596
95.6848
101.529
106.077
109.399
111.673
112.867
112.874
112.252
113.296
114.243
116.577
76.7351
42.7967
3.35962
-36.8057
-74.5022
-108.735
-138.272
-161.39
-177.225
-185.907
-186.965
-179.461
-165.367
-148.665
-131.374
-113.181
-94.0545
-74.5683
-55.0425
-35.5447
-18.2256
-3.36446
10.7409
24.098
36.6994
48.5375
59.5886
69.8032
79.1056
87.3993
94.5783
100.553
105.297
108.847
111.33
112.752
113.121
112.875
114.093
115.465
120.996
88.6154
60.6693
28.6908
-4.39261
-36.6102
-67.1704
-94.9787
-118.507
-136.679
-149.184
-155.483
-154.3
-146.252
-134.051
-119.94
-104.369
-87.4571
-69.7103
-51.5612
-33.1983
-16.7095
-2.45632
11.1407
24.0658
36.2943
47.8101
58.587
68.5789
77.7195
85.9259
93.108
99.186
104.127
107.946
110.727
112.505
113.382
113.682
115.24
116.861
124.209
97.8159
74.7312
48.7951
21.8765
-4.90326
-31.1107
-55.9519
-78.2363
-96.9629
-111.608
-121.574
-125.451
-122.978
-115.657
-105.361
-92.9184
-78.6721
-63.1087
-46.7179
-29.8035
-14.3782
-0.910327
12.0187
24.3733
36.1096
47.1967
57.6017
67.2793
76.1712
84.2086
91.3194
97.4402
102.542
106.636
109.781
112.03
113.553
114.562
116.616
118.415
126.478
104.865
85.7433
64.6784
42.9025
21.0251
-0.805243
-22.1117
-42.0525
-59.865
-75.024
-86.9545
-94.3051
-96.3467
-93.6461
-87.4289
-78.4934
-67.3066
-54.3532
-40.1338
-25.0344
-10.9528
1.51717
13.5881
25.2061
36.3089
46.8461
56.7733
66.0426
74.6003
82.3884
89.3508
95.4408
100.642
104.97
108.482
111.245
113.463
115.264
117.895
119.985
128.026
110.236
94.3577
77.2117
59.6281
41.9267
24.0887
6.35284
-10.7436
-26.6899
-41.0843
-53.452
-62.6415
-67.7793
-68.8446
-66.4382
-61.0723
-53.1576
-43.1307
-31.4537
-18.5401
-6.11103
5.11751
16.1129
26.8014
37.1043
46.9495
56.2779
65.0363
73.1725
80.6353
87.3797
93.3724
98.6064
103.108
106.935
110.159
112.991
115.515
118.647
121.206
129.047
114.335
101.12
87.1265
72.9199
58.6594
44.248
29.7772
15.5598
1.91495
-10.9142
-22.5914
-32.2248
-39.007
-42.6413
-43.2859
-41.1225
-36.3794
-29.3698
-20.4604
-10.0274
0.46095
10.2009
19.8945
29.4464
38.764
47.7554
56.3455
64.474
72.0877
79.1392
85.5904
91.4163
96.6156
101.218
105.275
108.854
112.134
115.19
118.615
121.655
129.703
117.487
106.471
95.0192
83.5198
72.0435
60.4679
48.8053
37.226
25.9139
14.9926
4.66346
-4.43203
-11.6516
-16.6368
-19.3116
-19.6204
-17.5947
-13.3846
-7.22052
0.613438
8.96868
17.0196
25.2137
33.4385
41.59
49.5608
57.2628
64.6283
71.6017
78.1366
84.1979
89.7641
94.835
99.4368
103.609
107.402
110.944
114.305
117.806
121.079
130.118
119.946
110.753
101.358
92.0281
82.7859
73.509
64.173
54.8648
45.6815
36.6795
27.9559
19.944
13.1093
7.76291
4.05874
2.16303
2.17617
4.09066
7.81368
13.1777
19.3789
25.65
32.227
38.9912
45.8357
52.6454
59.3232
65.7953
72.0041
77.903
83.4573
88.6447
93.461
97.9245
102.059
105.893
109.508
112.953
116.379
119.616
130.399
121.917
114.242
106.514
98.9239
91.467
84.0317
76.58
69.1529
61.7979
54.5334
47.3967
40.6668
34.6613
29.6103
25.6612
22.9967
21.7679
22.0515
23.8563
27.1197
31.3535
35.9106
40.8796
46.1508
51.6244
57.1891
62.7479
68.2257
73.563
78.7122
83.6372
88.3137
92.7316
96.8987
100.823
104.513
108.015
111.358
114.601
117.661
130.661
123.585
117.176
110.807
104.617
98.5861
92.6164
86.6683
80.7588
74.9091
69.1183
63.3963
57.9158
52.886
48.4639
44.7614
41.9309
40.1185
39.4278
39.9197
41.6005
44.2238
47.2918
50.8086
54.6844
58.8349
63.1633
67.5823
72.0217
76.4246
80.7443
84.944
88.9959
92.8841
96.6067
100.16
103.539
106.766
109.854
112.821
115.627
130.898
124.935
119.527
114.211
109.094
104.147
99.2843
94.4708
89.7118
85.0164
80.377
75.794
71.3762
67.2579
63.5428
60.3087
57.6689
55.741
54.6213
54.3825
55.0615
56.5611
58.5192
60.9037
63.6483
66.6872
69.9428
73.3427
76.8269
80.345
83.8544
87.3198
90.7132
94.015
97.2169
100.307
103.275
106.127
108.868
111.497
113.997
131.094
125.992
121.359
116.846
112.541
108.409
104.374
100.406
96.5045
92.672
88.8988
85.1813
81.5927
78.2226
75.1384
72.3943
70.0712
68.2569
67.029
66.4537
66.5742
67.3715
68.5847
70.1728
72.09
74.2871
76.7041
79.2842
81.9787
84.7454
87.5476
90.3538
93.1377
95.8793
98.5671
101.186
103.723
106.177
108.547
110.824
113.002
131.276
126.856
122.836
118.952
115.276
111.769
108.366
105.04
101.788
98.6084
95.493
92.4364
89.4896
86.7149
84.1569
81.8529
79.8607
78.244
77.062
76.3683
76.2022
76.5811
77.3141
78.3631
79.6978
81.2816
83.069
85.0167
87.0863
89.244
91.4591
93.7049
95.9582
98.2004
100.419
102.6
104.728
106.8
108.812
110.752
112.618
131.453
127.584
124.062
120.682
117.506
114.493
111.585
108.76
106.013
103.341
100.736
98.1934
95.7487
93.4471
91.319
89.3896
87.7009
86.299
85.2275
84.5279
84.2321
84.3714
84.8021
85.493
86.4246
87.5694
88.8932
90.3631
91.9496
93.6259
95.3673
97.1517
98.9597
100.775
102.586
104.378
106.14
107.866
109.551
111.184
112.762
131.627
128.214
125.102
122.135
119.364
116.749
114.239
111.813
109.467
107.197
104.995
102.858
100.811
98.8867
97.1076
95.4903
94.0655
92.8666
91.9255
91.2731
90.9341
90.9423
91.1863
91.642
92.2973
93.1312
94.1175
95.2312
96.4499
97.7524
99.1193
100.533
101.977
103.437
104.905
106.367
107.812
109.237
110.634
111.995
113.318
131.799
128.766
125.999
123.375
120.938
118.649
116.463
114.362
112.34
110.394
108.516
106.704
104.975
103.356
101.86
100.501
99.2998
98.2814
97.4689
96.8852
96.5484
96.4899
96.6206
96.923
97.3896
98.004
98.7456
99.5956
100.537
101.552
102.627
103.747
104.898
106.071
107.256
108.443
109.623
110.792
111.944
113.072
114.171
131.969
129.258
126.782
124.446
122.289
120.272
118.354
116.52
114.764
113.083
111.469
109.92
108.45
107.078
105.815
104.668
103.654
102.792
102.097
101.587
101.275
101.187
101.25
101.453
101.79
102.249
102.814
103.469
104.201
104.997
105.846
106.735
107.655
108.597
109.553
110.516
111.477
112.433
113.379
114.31
115.221
132.134
129.698
127.472
125.382
123.461
121.671
119.978
118.367
116.833
115.371
113.975
112.643
111.385
110.216
109.143
108.172
107.315
106.585
105.995
105.555
105.276
105.18
105.204
105.342
105.591
105.939
106.374
106.885
107.459
108.088
108.763
109.473
110.21
110.969
111.742
112.522
113.305
114.087
114.864
115.63
116.383
132.294
130.095
128.084
126.204
124.485
122.889
121.387
119.964
118.615
117.336
116.122
114.97
113.888
112.887
111.972
111.147
110.421
109.803
109.302
108.927
108.683
108.59
108.593
108.689
108.876
109.145
109.485
109.887
110.343
110.844
111.383
111.954
112.548
113.161
113.788
114.423
115.062
115.702
116.339
116.971
117.593
132.449
130.454
128.63
126.932
125.386
123.957
122.617
121.354
120.162
119.039
117.978
116.976
116.041
115.18
114.396
113.693
113.076
112.553
112.129
111.811
111.601
111.516
111.508
111.577
111.721
111.932
112.202
112.522
112.887
113.291
113.725
114.186
114.668
115.166
115.677
116.195
116.718
117.243
117.768
118.289
118.803
132.597
130.78
129.119
127.58
126.183
124.897
123.697
122.571
121.514
120.523
119.591
118.717
117.906
117.162
116.489
115.888
115.363
114.919
114.56
114.291
114.114
114.039
114.027
114.077
114.19
114.359
114.576
114.835
115.131
115.458
115.811
116.186
116.579
116.986
117.404
117.829
118.259
118.691
119.124
119.556
119.981
132.738
131.077
129.559
128.157
126.891
125.73
124.65
123.643
122.702
121.823
121.003
120.237
119.531
118.886
118.306
117.791
117.343
116.967
116.664
116.437
116.288
116.224
116.211
116.25
116.341
116.478
116.655
116.866
117.108
117.375
117.665
117.972
118.295
118.629
118.973
119.324
119.678
120.036
120.394
120.752
121.105
132.871
131.348
129.955
128.674
127.522
126.469
125.495
124.59
123.749
122.968
122.243
121.571
120.953
120.394
119.893
119.45
119.068
118.748
118.492
118.302
118.177
118.124
118.112
118.143
118.218
118.331
118.477
118.652
118.851
119.072
119.311
119.565
119.831
120.108
120.392
120.683
120.976
121.273
121.571
121.869
122.163
132.997
131.594
130.312
129.138
128.085
127.127
126.245
125.429
124.676
123.98
123.337
122.745
122.204
121.717
121.284
120.903
120.576
120.305
120.089
119.929
119.826
119.782
119.773
119.799
119.862
119.957
120.079
120.224
120.39
120.574
120.772
120.984
121.205
121.435
121.671
121.913
122.158
122.405
122.654
122.903
123.148
133.116
131.818
130.634
129.553
128.588
127.714
126.912
126.175
125.498
124.876
124.305
123.782
123.308
122.883
122.507
122.18
121.901
121.67
121.488
121.355
121.269
121.235
121.228
121.251
121.305
121.385
121.488
121.611
121.75
121.904
122.07
122.247
122.432
122.624
122.822
123.023
123.228
123.435
123.643
123.852
124.058
133.227
132.022
130.924
129.926
129.038
128.237
127.507
126.839
126.228
125.671
125.163
124.7
124.284
123.913
123.587
123.305
123.066
122.871
122.718
122.607
122.538
122.511
122.507
122.528
122.575
122.644
122.731
122.835
122.953
123.083
123.223
123.371
123.527
123.688
123.854
124.023
124.195
124.369
124.544
124.72
124.892
133.33
132.208
131.186
130.261
129.441
128.705
128.036
127.429
126.878
126.377
125.924
125.515
125.148
124.825
124.542
124.299
124.095
123.93
123.802
123.71
123.654
123.635
123.633
123.653
123.694
123.754
123.83
123.919
124.019
124.129
124.248
124.373
124.504
124.64
124.78
124.923
125.068
125.214
125.361
125.509
125.654
133.425
132.375
131.421
130.56
129.8
129.121
128.508
127.955
127.455
127.005
126.601
126.238
125.915
125.633
125.388
125.179
125.005
124.866
124.759
124.684
124.639
124.626
124.627
124.646
124.683
124.736
124.801
124.877
124.963
125.057
125.158
125.265
125.376
125.491
125.609
125.73
125.852
125.976
126.1
126.225
126.348
133.513
132.526
131.631
130.827
130.12
129.492
128.928
128.422
127.969
127.563
127.201
126.879
126.596
126.349
126.137
125.958
125.81
125.693
125.605
125.544
125.509
125.501
125.505
125.523
125.557
125.604
125.661
125.727
125.802
125.882
125.969
126.059
126.154
126.252
126.352
126.454
126.558
126.662
126.767
126.873
126.977
133.594
132.662
131.818
131.065
130.404
129.82
129.3
128.836
128.424
128.058
127.734
127.448
127.199
126.984
126.801
126.648
126.523
126.425
126.353
126.304
126.278
126.275
126.28
126.299
126.33
126.372
126.422
126.48
126.544
126.614
126.688
126.766
126.846
126.93
127.015
127.102
127.189
127.278
127.367
127.457
127.544
133.667
132.783
131.984
131.274
130.655
130.11
129.628
129.201
128.826
128.495
128.205
127.952
127.733
127.546
127.388
127.258
127.154
127.073
127.014
126.977
126.958
126.959
126.967
126.985
127.014
127.052
127.097
127.148
127.204
127.265
127.329
127.396
127.465
127.536
127.609
127.682
127.757
127.832
127.907
127.983
128.057
133.733
132.889
132.13
131.458
130.874
130.363
129.915
129.522
129.179
128.88
128.62
128.396
128.204
128.042
127.907
127.797
127.71
127.645
127.598
127.57
127.558
127.562
127.572
127.59
127.617
127.652
127.692
127.738
127.787
127.839
127.895
127.952
128.012
128.073
128.135
128.198
128.261
128.325
128.389
128.453
128.516
133.792
132.982
132.256
131.616
131.063
130.583
130.165
129.801
129.487
129.216
128.983
128.785
128.617
128.478
128.364
128.272
128.201
128.149
128.113
128.094
128.088
128.095
128.107
128.127
128.153
128.186
128.222
128.263
128.307
128.353
128.401
128.451
128.503
128.555
128.608
128.662
128.716
128.77
128.824
128.879
128.931
133.843
133.062
132.364
131.752
131.225
130.771
130.378
130.041
129.753
129.507
129.299
129.124
128.978
128.859
128.763
128.688
128.631
128.59
128.564
128.552
128.551
128.561
128.574
128.594
128.619
128.649
128.683
128.719
128.758
128.799
128.841
128.885
128.929
128.975
129.02
129.066
129.112
129.158
129.205
129.251
129.295
133.888
133.129
132.454
131.864
131.359
130.927
130.558
130.244
129.979
129.756
129.57
129.416
129.29
129.189
129.11
129.05
129.006
128.977
128.96
128.956
128.96
128.974
128.991
129.012
129.038
129.067
129.099
129.132
129.168
129.204
129.242
129.28
129.319
129.358
129.397
129.437
129.476
129.515
129.554
129.593
129.631
133.925
133.183
132.525
131.953
131.467
131.054
130.705
130.411
130.167
129.964
129.798
129.663
129.556
129.471
129.407
129.36
129.328
129.308
129.299
129.299
129.308
129.324
129.341
129.363
129.388
129.415
129.445
129.476
129.508
129.541
129.574
129.608
129.642
129.677
129.711
129.745
129.779
129.812
129.846
129.879
129.911
133.956
133.224
132.578
132.02
131.548
131.151
130.819
130.543
130.317
130.133
129.985
129.868
129.777
129.709
129.659
129.626
129.606
129.597
129.598
129.607
129.622
129.643
129.665
129.689
129.716
129.745
129.774
129.804
129.834
129.865
129.896
129.926
129.957
129.987
130.016
130.046
130.074
130.103
130.131
130.159
130.185
133.98
133.254
132.617
132.069
131.607
131.222
130.903
130.642
130.431
130.263
130.132
130.031
129.956
129.901
129.864
129.842
129.83
129.828
129.834
129.846
129.864
129.886
129.909
129.934
129.96
129.988
130.016
130.044
130.072
130.101
130.129
130.156
130.184
130.211
130.237
130.263
130.288
130.313
130.338
130.362
130.385
133.997
133.272
132.638
132.096
131.641
131.265
130.958
130.709
130.512
130.358
130.241
130.155
130.095
130.056
130.034
130.027
130.03
130.043
130.062
130.085
130.112
130.141
130.17
130.2
130.23
130.26
130.29
130.319
130.347
130.375
130.402
130.428
130.453
130.477
130.5
130.523
130.545
130.566
130.586
130.605
130.624
134.004
133.268
132.63
132.086
131.635
131.266
130.968
130.732
130.549
130.409
130.307
130.234
130.186
130.157
130.143
130.142
130.15
130.165
130.187
130.213
130.242
130.272
130.302
130.332
130.363
130.393
130.422
130.45
130.478
130.504
130.53
130.554
130.578
130.6
130.622
130.642
130.662
130.681
130.699
130.716
130.733
134.002
133.248
132.596
132.046
131.592
131.225
130.933
130.707
130.536
130.411
130.325
130.272
130.245
130.239
130.25
130.274
130.307
130.345
130.387
130.429
130.47
130.51
130.549
130.587
130.623
130.658
130.69
130.721
130.75
130.777
130.803
130.827
130.85
130.871
130.891
130.91
130.928
130.944
130.96
130.974
130.988
125.738
133.173
139.073
142.366
144.222
145.37
145.93
146.068
145.942
145.644
145.241
144.778
144.285
143.785
143.29
142.809
142.347
141.909
141.494
141.104
140.739
140.397
140.077
139.779
139.501
139.243
139.002
138.778
138.569
138.375
138.193
138.024
137.866
137.718
137.579
137.449
137.326
137.211
137.102
136.999
136.903
136.812
136.726
136.646
136.57
136.498
136.43
136.366
136.306
136.248
136.194
136.142
136.092
136.045
136
135.956
135.915
135.874
135.835
135.798
135.761
135.726
135.691
135.658
135.625
135.593
135.561
135.532
135.502
135.476
135.447
135.43
135.396
135.408
124.728
132.724
138.89
142.416
144.369
145.521
146.055
146.164
146.009
145.686
145.263
144.783
144.277
143.767
143.264
142.777
142.312
141.87
141.454
141.063
140.697
140.355
140.036
139.739
139.462
139.204
138.964
138.741
138.534
138.341
138.161
137.993
137.836
137.69
137.552
137.423
137.301
137.187
137.079
136.977
136.882
136.791
136.707
136.627
136.552
136.481
136.414
136.35
136.29
136.234
136.18
136.128
136.079
136.033
135.988
135.945
135.904
135.864
135.825
135.788
135.752
135.717
135.683
135.649
135.617
135.585
135.554
135.525
135.495
135.469
135.441
135.424
135.39
135.402
123.976
131.534
138.352
142.33
144.464
145.664
146.194
146.276
146.089
145.736
145.288
144.788
144.267
143.745
143.233
142.74
142.27
141.825
141.407
141.015
140.649
140.307
139.988
139.692
139.416
139.16
138.921
138.7
138.494
138.303
138.124
137.958
137.803
137.657
137.521
137.393
137.273
137.16
137.053
136.953
136.858
136.769
136.685
136.606
136.532
136.462
136.396
136.333
136.274
136.218
136.164
136.114
136.065
136.019
135.975
135.933
135.892
135.853
135.815
135.778
135.742
135.707
135.673
135.64
135.608
135.577
135.546
135.517
135.488
135.462
135.434
135.418
135.384
135.396
123.579
130.511
137.651
142.061
144.459
145.754
146.305
146.381
146.171
145.79
145.315
144.793
144.253
143.717
143.195
142.695
142.219
141.772
141.351
140.958
140.592
140.25
139.933
139.637
139.363
139.109
138.872
138.652
138.448
138.259
138.082
137.918
137.765
137.621
137.487
137.36
137.241
137.13
137.024
136.925
136.832
136.744
136.661
136.584
136.51
136.441
136.376
136.314
136.256
136.201
136.148
136.098
136.05
136.005
135.961
135.919
135.879
135.84
135.803
135.767
135.731
135.697
135.664
135.631
135.599
135.568
135.538
135.509
135.48
135.455
135.427
135.411
135.377
135.389
123.696
130.123
137.075
141.658
144.316
145.756
146.358
146.443
146.225
145.829
145.333
144.79
144.232
143.681
143.148
142.639
142.158
141.707
141.285
140.891
140.524
140.184
139.868
139.574
139.302
139.049
138.815
138.598
138.396
138.209
138.035
137.873
137.721
137.58
137.447
137.323
137.206
137.096
136.992
136.895
136.803
136.716
136.635
136.558
136.486
136.418
136.354
136.294
136.236
136.182
136.13
136.081
136.034
135.989
135.946
135.905
135.865
135.827
135.79
135.755
135.72
135.686
135.653
135.621
135.589
135.559
135.529
135.5
135.472
135.447
135.419
135.403
135.37
135.382
124.072
130.228
136.79
141.31
144.083
145.645
146.328
146.444
146.225
145.818
145.315
144.762
144.193
143.63
143.086
142.57
142.083
141.629
141.205
140.81
140.444
140.105
139.791
139.499
139.23
138.98
138.748
138.534
138.335
138.151
137.98
137.82
137.672
137.533
137.403
137.281
137.166
137.058
136.956
136.86
136.77
136.685
136.606
136.53
136.46
136.393
136.33
136.271
136.214
136.161
136.11
136.062
136.016
135.972
135.93
135.889
135.851
135.813
135.777
135.742
135.707
135.674
135.642
135.61
135.579
135.549
135.519
135.491
135.463
135.438
135.411
135.395
135.362
135.375
124.57
130.592
136.743
141.139
143.875
145.456
146.199
146.366
146.164
145.752
145.238
144.679
144.107
143.543
142.998
142.478
141.988
141.531
141.107
140.713
140.348
140.011
139.699
139.411
139.145
138.899
138.671
138.46
138.265
138.084
137.916
137.76
137.615
137.479
137.352
137.233
137.12
137.015
136.915
136.822
136.733
136.651
136.573
136.499
136.43
136.365
136.304
136.245
136.19
136.138
136.089
136.041
135.996
135.953
135.912
135.873
135.834
135.798
135.762
135.728
135.694
135.661
135.629
135.598
135.568
135.538
135.509
135.481
135.454
135.429
135.403
135.387
135.354
135.367
125.249
131.019
136.748
141.055
143.736
145.266
146.008
146.204
146.029
145.629
145.112
144.542
143.961
143.397
142.856
142.343
141.86
141.407
140.984
140.593
140.232
139.898
139.59
139.306
139.044
138.802
138.579
138.373
138.182
138.006
137.843
137.691
137.549
137.417
137.293
137.177
137.068
136.965
136.869
136.778
136.692
136.611
136.535
136.464
136.397
136.334
136.274
136.217
136.164
136.113
136.065
136.019
135.975
135.933
135.893
135.854
135.817
135.781
135.746
135.712
135.68
135.648
135.616
135.586
135.556
135.527
135.498
135.471
135.444
135.42
135.393
135.378
135.346
135.358
126.221
131.451
136.609
140.852
143.548
145.064
145.793
145.989
145.827
145.44
144.932
144.361
143.773
143.2
142.655
142.146
141.672
141.232
140.822
140.441
140.087
139.76
139.458
139.18
138.924
138.688
138.471
138.271
138.086
137.915
137.756
137.61
137.473
137.345
137.226
137.114
137.008
136.909
136.816
136.728
136.645
136.567
136.493
136.425
136.36
136.298
136.241
136.186
136.134
136.085
136.038
135.994
135.951
135.91
135.871
135.834
135.798
135.763
135.729
135.696
135.664
135.633
135.602
135.572
135.543
135.514
135.486
135.46
135.433
135.409
135.383
135.368
135.337
135.349
127.372
131.817
136.243
140.357
143.107
144.673
145.464
145.711
145.574
145.196
144.69
144.124
143.54
142.967
142.418
141.904
141.429
140.996
140.599
140.234
139.897
139.585
139.295
139.026
138.779
138.551
138.342
138.149
137.971
137.807
137.655
137.515
137.384
137.262
137.147
137.04
136.939
136.844
136.755
136.67
136.591
136.516
136.446
136.38
136.317
136.259
136.203
136.151
136.101
136.054
136.009
135.966
135.925
135.885
135.848
135.811
135.776
135.743
135.71
135.678
135.647
135.616
135.587
135.558
135.529
135.501
135.474
135.448
135.421
135.398
135.373
135.358
135.327
135.34
128.187
131.859
135.502
139.364
142.2
143.884
144.8
145.184
145.164
144.865
144.399
143.85
143.27
142.695
142.146
141.63
141.155
140.722
140.327
139.97
139.647
139.352
139.082
138.832
138.6
138.385
138.186
138.003
137.835
137.679
137.536
137.403
137.279
137.164
137.056
136.955
136.859
136.769
136.684
136.604
136.529
136.458
136.391
136.328
136.269
136.214
136.161
136.111
136.063
136.018
135.975
135.935
135.895
135.858
135.822
135.787
135.753
135.721
135.689
135.658
135.628
135.599
135.57
135.542
135.514
135.487
135.46
135.435
135.409
135.387
135.362
135.347
135.317
135.33
128.1
131.231
134.225
137.674
140.506
142.361
143.496
144.121
144.33
144.225
143.91
143.467
142.952
142.407
141.865
141.346
140.864
140.425
140.027
139.671
139.353
139.067
138.811
138.58
138.369
138.174
137.994
137.826
137.671
137.527
137.394
137.271
137.156
137.049
136.949
136.855
136.766
136.682
136.603
136.528
136.457
136.391
136.329
136.27
136.214
136.162
136.113
136.066
136.021
135.979
135.938
135.9
135.863
135.827
135.793
135.76
135.728
135.696
135.666
135.637
135.608
135.58
135.552
135.525
135.498
135.472
135.446
135.421
135.396
135.374
135.35
135.336
135.307
135.319
127.07
129.839
132.404
135.351
137.984
139.922
141.277
142.194
142.73
142.941
142.902
142.687
142.355
141.949
141.504
141.045
140.589
140.152
139.746
139.376
139.046
138.756
138.501
138.278
138.082
137.907
137.748
137.602
137.467
137.341
137.223
137.113
137.01
136.914
136.823
136.737
136.657
136.58
136.508
136.439
136.375
136.314
136.257
136.203
136.152
136.103
136.058
136.015
135.973
135.934
135.896
135.86
135.826
135.792
135.76
135.729
135.699
135.67
135.641
135.613
135.586
135.559
135.532
135.506
135.48
135.455
135.43
135.406
135.382
135.36
135.337
135.323
135.295
135.308
125.303
127.779
130.076
132.599
134.96
136.878
138.368
139.507
140.325
140.853
141.138
141.232
141.18
141.016
140.772
140.476
140.147
139.804
139.458
139.118
138.792
138.49
138.216
137.977
137.771
137.596
137.448
137.321
137.208
137.106
137.011
136.921
136.835
136.752
136.674
136.599
136.528
136.46
136.396
136.336
136.278
136.224
136.173
136.125
136.079
136.036
135.995
135.956
135.919
135.883
135.849
135.816
135.784
135.754
135.724
135.695
135.667
135.64
135.613
135.587
135.561
135.536
135.51
135.486
135.461
135.437
135.413
135.39
135.367
135.346
135.323
135.31
135.283
135.296
123.046
125.276
127.387
129.608
131.724
133.564
135.111
136.39
137.414
138.192
138.753
139.129
139.356
139.461
139.469
139.401
139.275
139.105
138.903
138.68
138.447
138.209
137.973
137.744
137.528
137.332
137.162
137.021
136.906
136.814
136.739
136.673
136.613
136.554
136.495
136.436
136.377
136.32
136.266
136.214
136.165
136.119
136.076
136.035
135.995
135.958
135.923
135.889
135.856
135.825
135.795
135.765
135.737
135.71
135.683
135.657
135.632
135.607
135.582
135.558
135.534
135.51
135.487
135.463
135.44
135.417
135.394
135.372
135.35
135.33
135.309
135.296
135.27
135.284
120.557
122.582
124.531
126.525
128.441
130.182
131.729
133.085
134.247
135.214
135.996
136.611
137.08
137.423
137.662
137.816
137.901
137.93
137.913
137.859
137.774
137.665
137.538
137.398
137.252
137.102
136.952
136.806
136.672
136.555
136.46
136.387
136.332
136.291
136.256
136.223
136.189
136.152
136.113
136.074
136.035
135.998
135.963
135.93
135.898
135.868
135.839
135.811
135.784
135.758
135.733
135.708
135.684
135.66
135.637
135.614
135.591
135.569
135.547
135.525
135.504
135.482
135.46
135.439
135.417
135.396
135.374
135.353
135.332
135.314
135.293
135.281
135.256
135.271
118.105
119.94
121.726
123.526
125.267
126.899
128.405
129.781
131.018
132.108
133.052
133.856
134.529
135.083
135.53
135.884
136.16
136.369
136.523
136.631
136.703
136.742
136.754
136.743
136.711
136.662
136.6
136.528
136.45
136.366
136.28
136.195
136.117
136.052
136.002
135.966
135.942
135.925
135.909
135.892
135.873
135.852
135.83
135.808
135.785
135.763
135.742
135.721
135.701
135.681
135.661
135.642
135.622
135.603
135.584
135.565
135.546
135.527
135.508
135.489
135.47
135.451
135.431
135.412
135.392
135.372
135.352
135.333
135.313
135.296
135.276
135.265
135.241
135.257
116.118
117.758
119.372
120.985
122.559
124.065
125.494
126.836
128.082
129.224
130.257
131.18
131.996
132.707
133.322
133.846
134.289
134.659
134.967
135.219
135.426
135.594
135.728
135.834
135.915
135.973
136.009
136.026
136.026
136.012
135.986
135.953
135.913
135.87
135.824
135.78
135.742
135.714
135.695
135.686
135.681
135.678
135.673
135.666
135.657
135.646
135.634
135.621
135.608
135.595
135.582
135.568
135.555
135.54
135.526
135.511
135.496
135.481
135.465
135.449
135.433
135.416
135.399
135.382
135.364
135.347
135.329
135.311
135.293
135.276
135.258
135.248
135.225
135.242
114.808
116.249
117.68
119.108
120.514
121.883
123.205
124.473
125.677
126.811
127.867
128.843
129.734
130.542
131.268
131.914
132.484
132.984
133.42
133.798
134.123
134.401
134.639
134.841
135.012
135.156
135.275
135.372
135.449
135.507
135.548
135.575
135.589
135.594
135.592
135.583
135.57
135.553
135.535
135.519
135.508
135.504
135.506
135.51
135.514
135.517
135.516
135.514
135.509
135.504
135.497
135.49
135.482
135.473
135.464
135.454
135.443
135.431
135.419
135.407
135.394
135.38
135.366
135.351
135.335
135.32
135.303
135.287
135.271
135.256
135.239
135.23
135.209
135.227
114.147
115.389
116.633
117.878
119.115
120.335
121.532
122.697
123.823
124.905
125.935
126.908
127.821
128.669
129.453
130.171
130.825
131.416
131.946
132.421
132.842
133.215
133.543
133.832
134.084
134.303
134.494
134.66
134.802
134.924
135.027
135.113
135.183
135.239
135.283
135.315
135.338
135.354
135.364
135.367
135.367
135.364
135.361
135.362
135.368
135.377
135.387
135.396
135.402
135.406
135.407
135.406
135.404
135.401
135.397
135.392
135.386
135.379
135.371
135.362
135.352
135.341
135.33
135.317
135.304
135.291
135.277
135.262
135.247
135.234
135.218
135.211
135.191
135.211
114.047
115.095
116.155
117.222
118.291
119.357
120.416
121.461
122.486
123.486
124.454
125.386
126.277
127.123
127.921
128.668
129.364
130.007
130.599
131.141
131.633
132.079
132.481
132.841
133.164
133.451
133.706
133.931
134.131
134.306
134.461
134.597
134.716
134.82
134.91
134.986
135.05
135.101
135.143
135.176
135.2
135.219
135.231
135.238
135.244
135.25
135.259
135.271
135.284
135.298
135.309
135.317
135.322
135.325
135.327
135.327
135.326
135.323
135.319
135.314
135.307
135.3
135.291
135.282
135.271
135.26
135.248
135.236
135.222
135.21
135.196
135.19
135.172
135.195
114.389
115.259
116.145
117.043
117.951
118.867
119.785
120.702
121.613
122.513
123.397
124.261
125.1
125.91
126.687
127.428
128.132
128.794
129.416
129.995
130.532
131.027
131.482
131.898
132.277
132.62
132.93
133.209
133.46
133.685
133.885
134.064
134.224
134.367
134.495
134.609
134.71
134.798
134.875
134.939
134.993
135.037
135.073
135.101
135.123
135.139
135.151
135.161
135.173
135.187
135.203
135.219
135.233
135.244
135.252
135.258
135.262
135.264
135.264
135.263
135.26
135.256
135.251
135.244
135.236
135.228
135.218
135.207
135.196
135.186
135.173
135.169
135.151
135.178
115.059
115.77
116.499
117.244
118.004
118.777
119.559
120.348
121.14
121.932
122.719
123.499
124.266
125.017
125.749
126.458
127.141
127.795
128.418
129.008
129.565
130.087
130.575
131.027
131.446
131.832
132.186
132.509
132.804
133.071
133.313
133.532
133.73
133.908
134.068
134.213
134.344
134.462
134.568
134.663
134.746
134.819
134.88
134.932
134.974
135.009
135.037
135.059
135.076
135.091
135.105
135.12
135.137
135.155
135.17
135.183
135.193
135.201
135.206
135.209
135.21
135.21
135.208