/*--------------------------------*- C++ -*----------------------------------*\
| =========                 |                                                 |
| \\      /  F ield         | OpenFOAM: The Open Source CFD Toolbox           |
|  \\    /   O peration     | Version:  5.x                                   |
|   \\  /    A nd           | Web:      www.OpenFOAM.org                      |
|    \\/     M anipulation  |                                                 |
\*---------------------------------------------------------------------------*/
FoamFile
{
    version     2.0;
    format      ascii;
    class       volScalarField;
    location    "550";
    object      nut;
}
// * * * * * * * * * * * * * * * * * * * * * * * * * * * * * * * * * * * * * //

dimensions      [0 2 -1 0 0 0 0];

internalField   nonuniform List<scalar> 
41860
(
5.37188e-06
8.28598e-06
1.77222e-05
2.07446e-05
1.63663e-05
1.28306e-05
8.69047e-06
5.90899e-06
4.13533e-06
2.96303e-06
2.13459e-06
1.64818e-06
1.21187e-06
1.04338e-06
8.00799e-07
7.35359e-07
6.32654e-07
5.67203e-07
5.28019e-07
9.08263e-07
9.9902e-07
5.51601e-07
1.24556e-06
5.43571e-07
1.34122e-06
5.3091e-07
5.20791e-07
1.36689e-06
5.07831e-07
5.02791e-07
4.9678e-07
1.33679e-06
1.31844e-06
4.82423e-07
1.28341e-06
4.76932e-07
1.2298e-06
1.18942e-06
1.21874e-06
4.73672e-07
1.10681e-06
1.04969e-06
4.27415e-07
4.27838e-07
1.23276e-06
4.24516e-07
4.23261e-07
4.2177e-07
4.20776e-07
4.19958e-07
4.1941e-07
4.19122e-07
4.19027e-07
4.19142e-07
4.19504e-07
1.18497e-06
1.18381e-06
4.20921e-07
1.1779e-06
4.22789e-07
4.24588e-07
4.25249e-07
1.14196e-06
4.26616e-07
1.1268e-06
4.26266e-07
1.1474e-06
1.14637e-06
4.23208e-07
4.24842e-07
1.10648e-06
4.17561e-07
4.15555e-07
1.03425e-06
1.03357e-06
3.9844e-07
9.8353e-07
9.57924e-07
9.33841e-07
3.48327e-07
9.1768e-07
1.11641e-07
0.000181628
0.000217117
0.000283669
0.000300897
0.000276938
0.000255033
0.00022427
0.000197891
0.000176212
0.000157821
0.000141142
0.000128842
0.000115025
0.000108619
9.76784e-05
9.42694e-05
8.78003e-05
8.28796e-05
7.94568e-05
7.29149e-05
7.12076e-05
6.67648e-05
6.46478e-05
6.25865e-05
6.02767e-05
5.94946e-05
5.72401e-05
5.70591e-05
5.55109e-05
5.50894e-05
5.44649e-05
5.43319e-05
5.4216e-05
5.3694e-05
5.43098e-05
5.41159e-05
5.51305e-05
5.55739e-05
5.68238e-05
5.77116e-05
5.95249e-05
6.11794e-05
4.7845e-05
4.77587e-05
4.82783e-05
4.75167e-05
4.74919e-05
4.74133e-05
4.7435e-05
4.74754e-05
4.75593e-05
4.7679e-05
4.78251e-05
4.79971e-05
4.82189e-05
4.89561e-05
4.9269e-05
4.89197e-05
4.98335e-05
4.95016e-05
4.99603e-05
5.01767e-05
5.108e-05
5.08265e-05
5.16046e-05
5.12995e-05
5.19924e-05
5.23177e-05
5.16868e-05
5.24827e-05
5.25717e-05
5.20954e-05
5.24598e-05
5.2514e-05
5.21699e-05
5.1559e-05
5.17381e-05
5.09481e-05
5.01354e-05
4.8241e-05
5.00727e-05
2.36152e-07
0.000234417
0.000273991
0.000361367
0.000385518
0.000355796
0.000328059
0.000289169
0.000256076
0.000229268
0.000207033
0.000187786
0.000173524
0.000160327
0.00015321
0.000147584
0.000145531
0.00014449
0.000143932
0.000143285
0.000142897
0.000141869
0.000143496
0.00014084
0.000142027
0.000139491
0.000140188
0.000139644
0.000136367
0.000137326
0.000136021
0.000134861
0.000131971
0.000130802
0.000131365
0.000128707
0.000129326
0.000127009
0.000126344
0.000125844
0.00012686
0.000125514
0.000125655
0.000124117
0.000123726
0.000121991
0.000122966
0.000122606
0.000122274
0.000121982
0.00012173
0.000121516
0.000121345
0.000121209
0.00012111
0.000121051
0.00011974
0.000119764
0.000121022
0.000119873
0.000121154
0.000121333
0.000121395
0.000120352
0.000121596
0.000120522
0.000121746
0.000120563
0.000120633
0.000121678
0.000121881
0.000120421
0.000121391
0.00012133
0.000119755
0.000119229
0.000119803
0.000118114
0.000117028
0.000115925
0.000114714
0.000115371
4.95875e-07
0.000325041
0.000368885
0.000436084
0.000473802
0.000463542
0.000432993
0.000405233
0.000382463
0.000362191
0.000343464
0.000327035
0.000306491
0.000293827
0.000274902
0.000271611
0.000265072
0.000263842
0.000261661
0.000258753
0.00025714
0.000253572
0.000252991
0.000248685
0.000247442
0.00024365
0.000242017
0.00023995
0.000235571
0.000234644
0.000231945
0.000229508
0.000225849
0.000223502
0.000222562
0.00021926
0.00021851
0.000215624
0.000214071
0.00021274
0.000212551
0.00021073
0.000210111
0.000208521
0.00020743
0.000205577
0.00020581
0.000205048
0.000204347
0.000203707
0.000203135
0.000202627
0.000202183
0.000201797
0.000201473
0.000201202
0.000200015
0.000199867
0.000200644
0.000199678
0.000200499
0.00020057
0.000200516
0.000199702
0.000200503
0.000199665
0.000200469
0.000199515
0.00019948
0.000200064
0.000200094
0.000198862
0.000199331
0.000199084
0.00019761
0.000196845
0.000196825
0.000195104
0.000193594
0.000192045
0.000189826
0.000190645
1.0309e-06
0.000452215
0.000547669
0.000644545
0.000699479
0.000720479
0.000680744
0.000655942
0.000630251
0.000601842
0.000572161
0.000544084
0.000508838
0.000484818
0.000450436
0.00043657
0.000420524
0.000414073
0.000407314
0.000400308
0.000395573
0.000388513
0.000384401
0.000377868
0.00037324
0.000367778
0.000363
0.000358841
0.000353126
0.000349594
0.00034507
0.000340968
0.00033642
0.000332564
0.000329566
0.000325586
0.000322996
0.000319565
0.000316953
0.000314625
0.000312984
0.000310828
0.000309493
0.000306554
0.000304435
0.000302539
0.000301659
0.000300372
0.000299184
0.000298093
0.000297109
0.000296222
0.000295431
0.000294727
0.000294116
0.000293584
0.000292673
0.000292311
0.00029238
0.000291749
0.000291906
0.000291843
0.000291671
0.000291242
0.000291436
0.000290968
0.000291164
0.000290572
0.000290415
0.000290358
0.000290265
0.000289328
0.000289126
0.000288683
0.000287408
0.000286338
0.000285533
0.000283856
0.000281833
0.000279719
0.000276224
0.000276973
2.11029e-06
0.000618832
0.000789297
0.000994958
0.00108237
0.00111542
0.00105255
0.00100896
0.000963699
0.00091518
0.000865639
0.000818556
0.000764268
0.000723733
0.000672253
0.00064412
0.000615512
0.000600903
0.000587461
0.000574755
0.00056515
0.00055343
0.000544896
0.000534795
0.000526283
0.000517929
0.000509703
0.000502742
0.000494758
0.000488399
0.000481562
0.000475321
0.000469129
0.000463392
0.000458289
0.000453024
0.000448592
0.000444102
0.000440208
0.000436707
0.000433728
0.000430883
0.000428794
0.000423836
0.000420287
0.000417886
0.000415985
0.000414031
0.000412222
0.000410562
0.000409054
0.000407691
0.000406463
0.000405363
0.000404392
0.000403537
0.000402606
0.000401983
0.000401536
0.000400969
0.000400662
0.000400445
0.000400125
0.00039984
0.000399636
0.000399298
0.000399096
0.000398613
0.000398321
0.000397824
0.000397605
0.000396703
0.000396019
0.000395359
0.000394025
0.000392588
0.000391151
0.000389252
0.000386633
0.00038383
0.000379189
0.000379029
4.21833e-06
0.000848387
0.00108688
0.00144154
0.00157193
0.00160101
0.00150824
0.00143672
0.00136593
0.00129306
0.00122018
0.00115083
0.00107501
0.00101499
0.000944565
0.000899792
0.000856103
0.000830604
0.000808361
0.000788248
0.000772136
0.000754455
0.000740488
0.000725531
0.000712417
0.000700028
0.000687833
0.000677315
0.000666146
0.000656582
0.000646854
0.000637945
0.000629391
0.000621327
0.000613919
0.000606787
0.000600368
0.000594316
0.000588862
0.000583961
0.000579605
0.000575729
0.0005728
0.000565359
0.000559902
0.000556552
0.000553628
0.000550838
0.000548255
0.000545884
0.000543727
0.000541772
0.000540003
0.000538412
0.000536996
0.000535742
0.000534553
0.000533611
0.000532758
0.000532047
0.000531394
0.000530989
0.000530488
0.00053017
0.000529702
0.000529321
0.000528859
0.000528307
0.000527866
0.000527052
0.000526689
0.000525651
0.000524598
0.000523696
0.000522121
0.000520266
0.000518284
0.000515966
0.000512681
0.000509069
0.000503439
0.000501273
8.13743e-06
0.00118338
0.00144676
0.00197073
0.00215075
0.0021687
0.0020421
0.00193861
0.00183966
0.00174038
0.00164215
0.00154836
0.00144899
0.00136712
0.00127575
0.00121213
0.00115098
0.00111181
0.0010784
0.0010489
0.00102449
0.000999316
0.000978613
0.000957443
0.0009387
0.000921133
0.00090413
0.000889181
0.000873916
0.000860506
0.000847204
0.000834988
0.000823384
0.000812451
0.00080233
0.000792778
0.000784037
0.000775954
0.000768593
0.000761988
0.000756056
0.000750837
0.000746929
0.000736583
0.000728662
0.000723941
0.000719845
0.000716019
0.000712478
0.000709231
0.000706271
0.000703585
0.00070115
0.000698954
0.000696991
0.000695247
0.000693643
0.000692309
0.000691057
0.000690072
0.000689093
0.000688457
0.000687736
0.000687288
0.000686603
0.000686088
0.000685414
0.000684704
0.000684098
0.000683007
0.000682479
0.000681225
0.000679832
0.000678661
0.000676754
0.000674435
0.000671918
0.000669066
0.000665061
0.000660515
0.000654078
0.000648491
1.49271e-05
0.00163103
0.00188479
0.00258785
0.00282303
0.00282546
0.00266151
0.00252329
0.00239447
0.00226733
0.0021422
0.00202217
0.00189731
0.00179139
0.00167693
0.00159222
0.00151117
0.00145542
0.00140817
0.00136692
0.00133214
0.00129759
0.00126851
0.00123957
0.00121385
0.00118981
0.00116687
0.00114643
0.00112604
0.00110792
0.0010902
0.00107389
0.00105848
0.00104401
0.00103059
0.00101802
0.00100646
0.000995834
0.000986131
0.00097743
0.000969601
0.000962697
0.000957612
0.000943977
0.000932943
0.000926384
0.000920849
0.000915741
0.000911018
0.00090669
0.000902741
0.000899158
0.000895903
0.000892964
0.000890329
0.000887982
0.000885837
0.00088402
0.000882315
0.00088096
0.000879618
0.000878695
0.000877709
0.000877073
0.00087617
0.000875471
0.00087459
0.000873674
0.000872885
0.000871519
0.000870803
0.000869298
0.000867562
0.000866094
0.000863812
0.00086099
0.000857916
0.00085446
0.000849697
0.000844089
0.000837117
0.000826254
2.5652e-05
0.00221211
0.00242828
0.00330584
0.00360112
0.00358423
0.00337912
0.00320368
0.00304356
0.0028874
0.00273403
0.00258612
0.00243388
0.00230176
0.00216197
0.00205377
0.00195029
0.00187488
0.00181077
0.00175497
0.00170734
0.00166112
0.00162165
0.00158304
0.00154865
0.00151657
0.00148626
0.00145903
0.00143228
0.00140832
0.00138513
0.00136378
0.00134365
0.00132481
0.00130733
0.00129101
0.00127599
0.00126221
0.00124962
0.00123833
0.00122817
0.00121916
0.00121263
0.00119536
0.00118048
0.0011715
0.00116416
0.00115746
0.00115127
0.00114561
0.00114045
0.00113576
0.00113149
0.00112764
0.00112418
0.00112109
0.00111827
0.00111586
0.00111362
0.00111179
0.00111002
0.00110874
0.00110744
0.00110656
0.00110542
0.0011045
0.0011034
0.00110225
0.00110126
0.00109961
0.00109868
0.00109692
0.00109482
0.00109303
0.00109036
0.00108701
0.00108335
0.00107924
0.00107371
0.00106691
0.00105982
0.0010413
4.08853e-05
0.00295834
0.0031156
0.00414244
0.00450191
0.00446157
0.004211
0.00399584
0.00380316
0.00361702
0.0034343
0.00325702
0.00307559
0.00291518
0.00274768
0.00261348
0.00248487
0.00238661
0.00230226
0.00222866
0.00216523
0.00210455
0.0020522
0.00200161
0.00195642
0.00191437
0.00187489
0.00183924
0.00180459
0.00177341
0.00174345
0.00171583
0.00168988
0.00166562
0.00164312
0.00162216
0.00160286
0.00158516
0.001569
0.00155447
0.00154142
0.0015298
0.00152145
0.00150023
0.00148068
0.00146857
0.00145892
0.00145024
0.00144225
0.00143494
0.00142827
0.00142222
0.00141671
0.00141174
0.00140726
0.00140326
0.00139961
0.00139647
0.00139356
0.00139116
0.00138887
0.00138714
0.00138545
0.00138428
0.00138287
0.0013817
0.00138036
0.00137895
0.00137774
0.0013758
0.00137464
0.00137261
0.00137015
0.00136803
0.00136497
0.00136108
0.00135682
0.00135204
0.00134577
0.00133763
0.00133106
0.00130195
6.04e-05
0.00391039
0.00398398
0.00511974
0.00554618
0.0054773
0.00517637
0.00491891
0.00469256
0.0044758
0.00426286
0.004055
0.0038427
0.00365199
0.00345438
0.00329157
0.00313494
0.00301047
0.00290225
0.00280711
0.0027244
0.00264593
0.00257766
0.00251224
0.00245363
0.00239921
0.00234832
0.00230222
0.00225775
0.00221759
0.00217922
0.00214383
0.00211064
0.00207966
0.00205093
0.0020242
0.00199959
0.00197702
0.00195642
0.00193786
0.0019212
0.00190629
0.00189563
0.00187019
0.00184509
0.00182892
0.00181634
0.00180516
0.00179493
0.00178558
0.00177705
0.00176931
0.00176227
0.00175591
0.00175017
0.00174505
0.00174038
0.00173633
0.00173262
0.0017295
0.00172658
0.00172429
0.00172213
0.00172059
0.00171888
0.00171742
0.00171582
0.00171414
0.0017127
0.00171047
0.00170905
0.00170679
0.00170397
0.00170151
0.00169809
0.00169368
0.00168884
0.00168338
0.00167643
0.00166684
0.00166166
0.00161858
8.34499e-05
0.00511852
0.00506987
0.00626421
0.0067588
0.00665472
0.00629776
0.00599535
0.00573451
0.00548686
0.00524328
0.00500398
0.00475938
0.00453656
0.00430645
0.00411233
0.00392463
0.00377044
0.00363444
0.00351361
0.00340763
0.00330742
0.00321956
0.00313585
0.00306058
0.00299083
0.00292572
0.00286664
0.00280997
0.00275861
0.0027098
0.00266473
0.00262253
0.00258318
0.00254672
0.0025128
0.00248159
0.00245292
0.00242678
0.00240316
0.00238198
0.00236292
0.00234928
0.00231936
0.00228777
0.00226645
0.0022501
0.00223578
0.00222275
0.00221087
0.00220003
0.0021902
0.00218126
0.00217318
0.00216589
0.00215937
0.00215345
0.00214828
0.00214356
0.00213956
0.00213586
0.00213289
0.00213014
0.00212815
0.00212609
0.0021243
0.00212242
0.00212044
0.00211877
0.00211626
0.00211458
0.00211212
0.00210898
0.00210619
0.00210245
0.00209759
0.0020922
0.0020861
0.00207861
0.00206745
0.00206481
0.00200427
0.000109381
0.00664411
0.00642095
0.0076071
0.0081692
0.00802103
0.00760145
0.00725142
0.00695561
0.00667739
0.00640333
0.00613225
0.00585434
0.0055979
0.00533298
0.00510485
0.00488285
0.00469528
0.00452737
0.00437633
0.00424259
0.00411609
0.0040043
0.00389816
0.00380227
0.00371355
0.00363077
0.00355554
0.00348369
0.00341838
0.00335655
0.0032994
0.00324599
0.0031962
0.00315008
0.00310719
0.00306772
0.00303143
0.00299834
0.00296837
0.00294149
0.0029172
0.00289967
0.00286497
0.00282596
0.00279818
0.00277698
0.00275869
0.00274215
0.00272711
0.0027134
0.00270097
0.00268967
0.00267945
0.00267023
0.00266198
0.00265451
0.00264794
0.00264199
0.00263688
0.00263223
0.0026284
0.00262493
0.00262238
0.0026199
0.00261774
0.00261556
0.00261328
0.00261136
0.00260862
0.00260667
0.00260406
0.00260066
0.00259759
0.00259363
0.00258841
0.00258258
0.00257592
0.00256809
0.00255527
0.00255658
0.00247563
0.000137993
0.00856155
0.00809904
0.00918582
0.00980989
0.00960721
0.00911755
0.00871726
0.00838664
0.008079
0.00777545
0.00747302
0.00716136
0.00687021
0.00656841
0.00630361
0.00604398
0.0058192
0.00561509
0.00542903
0.00526261
0.00510473
0.00496397
0.00483055
0.0047093
0.0045972
0.0044925
0.00439723
0.00430652
0.00422382
0.00414577
0.00407354
0.00400614
0.0039433
0.00388511
0.00383099
0.00378118
0.00373531
0.0036935
0.00365552
0.00362145
0.00359052
0.00356787
0.00352804
0.00348068
0.00344492
0.00341754
0.00339421
0.00337326
0.00335427
0.00333696
0.00332129
0.00330705
0.00329416
0.00328254
0.00327212
0.00326272
0.00325441
0.00324694
0.00324044
0.00323461
0.00322971
0.00322534
0.00322208
0.0032191
0.0032165
0.003214
0.00321142
0.00320926
0.00320632
0.00320414
0.00320145
0.0031979
0.00319463
0.00319057
0.00318515
0.00317904
0.00317197
0.00316411
0.00314958
0.00315645
0.00305387
0.000169503
0.0109604
0.0101815
0.0110463
0.0117067
0.0114418
0.010876
0.0104239
0.0100605
0.00972651
0.00939611
0.00906404
0.00871921
0.00839304
0.00805272
0.00774883
0.0074483
0.00718243
0.00693773
0.00671166
0.00650734
0.00631254
0.0061372
0.00597093
0.00581882
0.00567807
0.00554639
0.00542633
0.00531226
0.00520793
0.00510968
0.00501865
0.00493378
0.00485463
0.00478135
0.00471315
0.00465038
0.00459248
0.00453968
0.00449157
0.00444839
0.00440903
0.00437965
0.00433411
0.00427754
0.00423215
0.00419692
0.00416718
0.00414067
0.00411671
0.00409491
0.00407517
0.00405724
0.00404103
0.00402639
0.00401328
0.00400146
0.00399097
0.00398159
0.00397338
0.00396607
0.00395984
0.00395435
0.00395016
0.00394657
0.00394346
0.00394059
0.0039377
0.00393532
0.00393226
0.00392989
0.00392722
0.00392366
0.00392032
0.00391634
0.00391095
0.00390482
0.00389754
0.00389006
0.00387385
0.00388792
0.00376595
0.000204333
0.0139482
0.0127634
0.0132462
0.0138646
0.013522
0.0128817
0.0123841
0.0119986
0.0116489
0.0112999
0.0109438
0.0105691
0.0102095
0.00983034
0.00948579
0.0091416
0.00883103
0.00854152
0.00827052
0.00802304
0.00778559
0.00756963
0.00736441
0.00717523
0.00699981
0.00683519
0.0066847
0.00654188
0.00641078
0.0062875
0.00617308
0.00606645
0.00596695
0.0058748
0.00578898
0.00570996
0.00563693
0.00557028
0.00550938
0.00545464
0.00540457
0.00536632
0.00531422
0.00524762
0.0051908
0.00514575
0.00510787
0.00507434
0.00504413
0.00501669
0.00499186
0.00496931
0.00494892
0.00493051
0.004914
0.00489915
0.00488593
0.00487416
0.00486379
0.00485464
0.00484673
0.00483982
0.00483447
0.00483008
0.00482634
0.00482305
0.00481985
0.00481726
0.00481416
0.00481168
0.00480915
0.00480578
0.00480256
0.00479889
0.00479383
0.00478801
0.00478085
0.00477427
0.00475648
0.00477923
0.00464526
0.000242908
0.0176536
0.0159599
0.0158569
0.016278
0.0158063
0.0150921
0.0145637
0.0141805
0.0138425
0.0134987
0.0131363
0.012744
0.0123587
0.011945
0.0115611
0.0111726
0.010815
0.0104775
0.0101573
0.00986189
0.00957635
0.00931376
0.0090633
0.00883043
0.00861371
0.0084095
0.00822213
0.00804432
0.00788038
0.00772631
0.007583
0.00744941
0.00732463
0.00720899
0.00710119
0.00700183
0.00690983
0.00682576
0.00674873
0.00667932
0.00661568
0.00656578
0.00650576
0.00642833
0.00635829
0.00630114
0.006253
0.00621061
0.00617254
0.00613801
0.00610678
0.00607844
0.0060528
0.00602966
0.00600887
0.00599021
0.00597356
0.00595878
0.00594568
0.00593421
0.00592421
0.00591551
0.00590864
0.0059032
0.00589867
0.00589487
0.00589134
0.00588855
0.00588551
0.00588301
0.00588077
0.00587782
0.00587496
0.00587189
0.00586754
0.00586247
0.00585581
0.00585078
0.00583163
0.00586413
0.00572939
0.000546692
0.0222316
0.0199087
0.0189638
0.0189483
0.0182571
0.0174567
0.0169101
0.0165537
0.0162611
0.0159598
0.0156265
0.0152463
0.014858
0.0144255
0.014012
0.0135848
0.0131822
0.0127965
0.0124253
0.012079
0.0117413
0.011427
0.0111257
0.0108427
0.0105781
0.0103273
0.0100961
0.00987642
0.00967287
0.00948143
0.00930284
0.00913621
0.00898033
0.00883567
0.00870064
0.00857599
0.00846036
0.00835447
0.00825718
0.00816927
0.00808848
0.00802341
0.00795344
0.00786429
0.00777928
0.00770755
0.00764664
0.00759312
0.00754519
0.00750178
0.00746252
0.00742691
0.00739468
0.00736559
0.00733942
0.00731598
0.00729499
0.00727642
0.0072599
0.00724549
0.00723287
0.00722188
0.00721304
0.00720621
0.00720064
0.00719617
0.00719224
0.00718924
0.00718634
0.00718394
0.00718216
0.00717989
0.00717768
0.00717556
0.00717235
0.00716855
0.00716287
0.00716009
0.00713993
0.00718278
0.00705677
0.00115199
0.0278706
0.0247712
0.0226613
0.0218883
0.0208526
0.0199407
0.0193816
0.0190693
0.0188488
0.0186246
0.0183603
0.018034
0.0176816
0.0172638
0.0168466
0.0163995
0.0159643
0.0155383
0.0151202
0.0147249
0.0143348
0.0139666
0.0136109
0.0132732
0.012955
0.0126515
0.0123698
0.0121014
0.0118513
0.0116155
0.0113947
0.0111883
0.0109947
0.0108147
0.0106464
0.0104907
0.010346
0.010213
0.0100906
0.00997947
0.0098772
0.00979264
0.00970982
0.00960784
0.00950625
0.00941738
0.00934087
0.00927355
0.00921333
0.00915885
0.00910956
0.00906487
0.0090244
0.00898786
0.00895494
0.00892548
0.00889905
0.00887569
0.00885487
0.00883675
0.00882081
0.00880694
0.00879555
0.00878683
0.00877985
0.00877447
0.00877
0.00876673
0.00876402
0.00876182
0.00876064
0.00875933
0.0087581
0.00875728
0.00875568
0.0087537
0.00874953
0.00874974
0.00872897
0.00878239
0.00865614
0.00442033
0.0347915
0.03073
0.0270336
0.0251144
0.023581
0.0225199
0.0219486
0.0216911
0.0215603
0.021438
0.0212748
0.021041
0.0207673
0.0204077
0.020027
0.0195954
0.0191561
0.0187118
0.0182628
0.0178302
0.0173956
0.016978
0.0165699
0.0161772
0.0158034
0.0154434
0.0151067
0.0147843
0.0144815
0.014195
0.0139253
0.0136724
0.0134345
0.0132126
0.0130045
0.0128114
0.0126314
0.0124655
0.0123122
0.0121726
0.0120438
0.0119347
0.0118351
0.0117188
0.0115992
0.0114908
0.0113957
0.0113116
0.0112363
0.0111681
0.0111065
0.0110505
0.0109998
0.010954
0.0109127
0.0108757
0.0108425
0.0108131
0.0107869
0.0107641
0.010744
0.0107265
0.0107119
0.0107006
0.0106917
0.010685
0.0106797
0.010676
0.0106735
0.0106715
0.0106711
0.010671
0.010671
0.0106718
0.0106723
0.0106726
0.0106705
0.0106743
0.0106533
0.0107172
0.0105897
0.00703518
0.0430121
0.0379562
0.0321076
0.028631
0.0264294
0.025171
0.0245849
0.0243898
0.0243603
0.0243561
0.0243156
0.0242034
0.0240435
0.023782
0.0234807
0.0231078
0.0227057
0.0222792
0.0218306
0.0213865
0.0209281
0.0204772
0.0200287
0.0195892
0.0191651
0.0187511
0.0183597
0.0179818
0.0176236
0.0172825
0.0169595
0.0166548
0.0163668
0.016097
0.0158431
0.0156065
0.0153852
0.0151805
0.0149905
0.0148166
0.0146558
0.0145165
0.0143956
0.0142628
0.014124
0.0139941
0.0138776
0.0137736
0.0136802
0.0135956
0.0135189
0.0134492
0.013386
0.0133289
0.0132773
0.013231
0.0131894
0.0131526
0.0131197
0.0130911
0.0130658
0.0130438
0.0130249
0.0130103
0.0129987
0.0129902
0.0129837
0.0129793
0.0129768
0.012975
0.0129753
0.0129764
0.0129779
0.0129807
0.0129834
0.0129866
0.0129867
0.0129946
0.0129736
0.0130474
0.0129093
0.0101165
0.0520224
0.0463293
0.0377894
0.0324002
0.0293689
0.027862
0.0272588
0.0271332
0.0272142
0.0273391
0.027436
0.027466
0.0274454
0.0273125
0.0271262
0.0268517
0.0265294
0.026163
0.0257551
0.0253371
0.0248887
0.0244337
0.0239699
0.0235043
0.0230462
0.0225909
0.0221541
0.0217272
0.0213175
0.0209236
0.0205472
0.0201895
0.0198491
0.0195282
0.0192246
0.0189402
0.0186728
0.0184241
0.0181924
0.017979
0.017781
0.0176063
0.017459
0.0173073
0.0171483
0.0169957
0.0168557
0.0167292
0.0166148
0.0165109
0.0164164
0.0163306
0.0162525
0.0161819
0.0161178
0.0160604
0.0160086
0.0159628
0.0159218
0.0158861
0.0158546
0.015827
0.015803
0.015784
0.0157689
0.0157577
0.0157494
0.0157438
0.0157409
0.0157391
0.01574
0.0157423
0.0157453
0.01575
0.0157551
0.0157611
0.0157636
0.0157754
0.0157542
0.0158369
0.0156781
0.0136412
0.0613885
0.0553203
0.0438099
0.0362854
0.0323289
0.0305404
0.0299262
0.0298792
0.0300796
0.0303415
0.030586
0.0307742
0.030912
0.0309305
0.030886
0.0307415
0.0305359
0.030268
0.0299418
0.0295907
0.029192
0.0287706
0.0283267
0.0278674
0.0274037
0.0269317
0.0264704
0.0260118
0.0255645
0.0251288
0.0247072
0.0243023
0.0239134
0.0235437
0.0231911
0.0228586
0.0225439
0.0222493
0.0219731
0.021717
0.0214784
0.0212645
0.0210864
0.0209133
0.0207337
0.0205583
0.0203942
0.0202437
0.0201063
0.0199809
0.0198665
0.0197623
0.0196672
0.0195811
0.0195027
0.0194324
0.0193688
0.0193125
0.0192619
0.0192179
0.019179
0.0191449
0.0191147
0.0190903
0.0190706
0.0190559
0.019045
0.0190375
0.0190337
0.0190314
0.0190325
0.0190357
0.0190399
0.0190463
0.0190535
0.0190621
0.0190664
0.0190815
0.019059
0.0191486
0.0189625
0.017625
0.0708178
0.0644203
0.0496292
0.0399401
0.0351492
0.0331153
0.0325261
0.0325725
0.0329017
0.0333054
0.0337037
0.0340639
0.034375
0.0345625
0.0346811
0.0346921
0.0346338
0.0344967
0.0342882
0.0340418
0.033731
0.033382
0.0329967
0.0325817
0.0321481
0.0316932
0.0312385
0.0307758
0.0303156
0.0298594
0.0294111
0.0289746
0.02855
0.0281417
0.0277486
0.0273743
0.0270171
0.0266799
0.0263613
0.0260636
0.0257846
0.0255308
0.0253201
0.0251245
0.0249248
0.0247284
0.0245415
0.0243675
0.0242069
0.0240595
0.0239242
0.0238005
0.0236873
0.0235844
0.0234905
0.0234061
0.0233295
0.0232616
0.0232005
0.0231472
0.0231002
0.0230588
0.0230216
0.0229911
0.0229659
0.0229467
0.0229323
0.0229221
0.0229168
0.0229134
0.0229141
0.0229177
0.0229225
0.0229299
0.0229386
0.0229488
0.0229539
0.0229708
0.0229456
0.0230387
0.0228237
0.0220646
0.0800328
0.0730021
0.055211
0.0432275
0.0378148
0.0356327
0.0350808
0.0351957
0.0356172
0.0361596
0.0367124
0.037256
0.0377503
0.0381191
0.0384177
0.0386061
0.0387223
0.0387432
0.0386851
0.0385776
0.038389
0.038148
0.0378589
0.0375262
0.03716
0.0367596
0.0363475
0.0359149
0.0354738
0.035027
0.0345793
0.0341359
0.0336977
0.0332705
0.0328539
0.0324526
0.0320655
0.0316964
0.0313445
0.0310124
0.0306989
0.03041
0.0301691
0.0299526
0.0297355
0.0295218
0.0293162
0.0291223
0.0289413
0.0287737
0.0286188
0.0284767
0.0283459
0.0282267
0.0281175
0.0280191
0.0279296
0.02785
0.0277784
0.0277157
0.0276604
0.0276117
0.0275674
0.0275304
0.0274993
0.0274752
0.0274567
0.0274433
0.0274358
0.0274307
0.0274304
0.0274336
0.0274383
0.027446
0.0274551
0.0274657
0.0274702
0.0274869
0.0274567
0.0275489
0.0273087
0.0269383
0.0886901
0.0805736
0.0616819
0.0474309
0.0409838
0.038591
0.0379889
0.0380768
0.0384919
0.039069
0.0396883
0.0403302
0.0409437
0.0414931
0.0419823
0.0423655
0.0426804
0.042881
0.0430047
0.0430682
0.0430325
0.0429329
0.0427763
0.0425621
0.0422992
0.041991
0.0416588
0.0412925
0.0409062
0.0405032
0.0400892
0.0396697
0.0392472
0.0388281
0.0384129
0.0380072
0.0376109
0.0372284
0.0368596
0.0365078
0.0361728
0.03586
0.0355974
0.0353656
0.0351368
0.0349124
0.0346952
0.0344883
0.034293
0.0341107
0.0339408
0.0337841
0.0336391
0.0335065
0.0333846
0.0332744
0.0331738
0.0330843
0.0330036
0.032933
0.0328705
0.0328157
0.0327654
0.0327229
0.0326864
0.0326577
0.0326353
0.0326187
0.032609
0.032602
0.0326004
0.032603
0.032607
0.0326142
0.0326229
0.0326328
0.0326352
0.0326495
0.0326126
0.0326985
0.0324414
0.0322585
0.0963504
0.0871168
0.0691961
0.0541193
0.0463588
0.0432389
0.0421311
0.0418939
0.0420781
0.0424968
0.0430264
0.0436202
0.0442316
0.0448295
0.045405
0.0458969
0.0463723
0.0467584
0.0470953
0.0473577
0.0474998
0.0475729
0.0475854
0.0475239
0.0473988
0.0472213
0.0470066
0.0467434
0.0464487
0.0461263
0.0457819
0.0454213
0.0450479
0.044669
0.0442857
0.0439045
0.0435259
0.0431552
0.0427929
0.0424429
0.042106
0.0417874
0.0415175
0.0412813
0.0410505
0.040825
0.0406063
0.0403966
0.0401968
0.0400087
0.0398321
0.0396682
0.0395157
0.0393758
0.0392465
0.0391295
0.0390224
0.038927
0.0388409
0.0387657
0.0386993
0.0386413
0.0385877
0.0385421
0.0385026
0.0384712
0.0384464
0.0384279
0.038417
0.0384089
0.0384069
0.0384092
0.0384129
0.0384198
0.0384279
0.0384367
0.0384365
0.0384471
0.0384028
0.0384773
0.0382152
0.0380636
0.102545
0.0931435
0.0774898
0.0630384
0.0545837
0.0503382
0.0482162
0.047264
0.0469324
0.0469603
0.047204
0.0475635
0.0480144
0.0484972
0.0490171
0.0494984
0.0499974
0.0504507
0.0508857
0.0512772
0.0516009
0.0518754
0.0520928
0.0522111
0.0522551
0.0522485
0.052188
0.0520639
0.0518992
0.0516961
0.0514592
0.0511947
0.0509074
0.0506047
0.0502881
0.0499647
0.0496358
0.0493073
0.0489804
0.0486596
0.0483465
0.0480462
0.0477892
0.0475643
0.0473456
0.0471324
0.0469253
0.0467258
0.0465344
0.0463531
0.0461813
0.0460212
0.0458713
0.0457334
0.0456054
0.0454896
0.0453834
0.045289
0.0452039
0.04513
0.0450652
0.045009
0.044957
0.044913
0.0448747
0.0448446
0.0448211
0.0448038
0.0447946
0.0447881
0.0447878
0.044792
0.0447973
0.0448055
0.0448145
0.0448234
0.0448217
0.044829
0.0447796
0.0448388
0.0445872
0.0443774
0.107169
0.0993197
0.0862413
0.0731621
0.0643016
0.0588469
0.0556208
0.0538486
0.0529154
0.0524698
0.0523274
0.0523461
0.0525246
0.0527698
0.0531061
0.0534547
0.0538448
0.0542391
0.0546444
0.0550457
0.0554217
0.055782
0.0561055
0.056397
0.0566337
0.0568399
0.0569607
0.0570064
0.0570101
0.0569651
0.0568736
0.056744
0.0565824
0.0563946
0.0561826
0.0559544
0.0557116
0.0554604
0.0552028
0.0549437
0.0546855
0.0544331
0.0542143
0.0540216
0.0538335
0.0536499
0.0534708
0.0532977
0.0531305
0.0529712
0.0528193
0.052677
0.0525432
0.0524199
0.0523053
0.0522019
0.052107
0.0520235
0.0519487
0.0518846
0.0518295
0.0517829
0.0517399
0.0517046
0.0516743
0.0516517
0.0516355
0.0516251
0.0516227
0.0516226
0.0516287
0.051639
0.05165
0.0516636
0.0516772
0.0516898
0.0516907
0.0516979
0.0516492
0.0516921
0.0514689
0.0511691
0.111538
0.105447
0.0949964
0.0833329
0.0733823
0.0666257
0.0627272
0.0604851
0.0591834
0.0584083
0.0579401
0.057658
0.0575751
0.0575731
0.0576814
0.0578314
0.0580374
0.0582844
0.0585613
0.0588684
0.059183
0.0595144
0.05984
0.0601712
0.0604855
0.060791
0.0610683
0.0613008
0.0615084
0.0616509
0.0617345
0.0617752
0.0617774
0.0617423
0.0616734
0.0615792
0.0614613
0.0613257
0.0611748
0.0610141
0.0608465
0.0606766
0.0605263
0.060391
0.0602568
0.0601242
0.0599935
0.0598661
0.059742
0.0596231
0.0595089
0.0594018
0.0593007
0.059208
0.0591219
0.0590452
0.0589756
0.0589158
0.0588635
0.058821
0.0587864
0.0587597
0.0587359
0.058719
0.0587062
0.0587004
0.0587
0.0587049
0.0587171
0.0587312
0.058751
0.0587745
0.0587981
0.0588237
0.0588488
0.0588718
0.0588826
0.0588965
0.0588583
0.0588889
0.0587127
0.0583334
0.116334
0.11163
0.103325
0.0933062
0.0838048
0.0761534
0.0704585
0.0670825
0.0651778
0.0640323
0.0633498
0.0629269
0.0627135
0.0625536
0.062472
0.0624355
0.0624643
0.0625457
0.0626562
0.062811
0.0629906
0.0632081
0.0634484
0.0637174
0.0640035
0.0643044
0.0646131
0.0649135
0.0652136
0.0654941
0.0657536
0.0659885
0.0661797
0.0663217
0.0664254
0.0664988
0.0665402
0.0665555
0.0665479
0.0665227
0.0664828
0.0664324
0.0663834
0.0663337
0.0662799
0.0662231
0.0661642
0.066105
0.0660457
0.0659883
0.0659324
0.0658804
0.0658315
0.0657882
0.0657489
0.0657164
0.0656887
0.0656688
0.0656544
0.0656479
0.0656477
0.0656542
0.0656625
0.0656766
0.0656936
0.0657163
0.0657435
0.0657748
0.0658126
0.0658514
0.0658952
0.065942
0.0659883
0.0660361
0.0660826
0.0661263
0.0661581
0.0661896
0.0661761
0.0662053
0.066093
0.0656767
0.12047
0.117182
0.110864
0.102883
0.0947844
0.0875549
0.0814591
0.0766863
0.0730793
0.0707123
0.0693531
0.0684796
0.0678861
0.06744
0.0671745
0.0670132
0.0669477
0.0668974
0.066847
0.0668373
0.0668568
0.0669222
0.0670259
0.0671694
0.067349
0.0675582
0.0677976
0.0680567
0.0683398
0.0686358
0.068944
0.0692559
0.0695655
0.0698621
0.0701442
0.0703968
0.07061
0.0707942
0.0709534
0.0710903
0.0712069
0.0713066
0.0713879
0.0714496
0.0715009
0.0715439
0.0715802
0.071612
0.0716397
0.0716655
0.0716893
0.0717136
0.0717377
0.0717639
0.0717913
0.0718223
0.0718554
0.0718932
0.0719342
0.0719805
0.072031
0.0720861
0.0721419
0.0722017
0.0722632
0.0723289
0.0723976
0.0724692
0.0725459
0.0726229
0.072704
0.072787
0.0728693
0.0729525
0.073034
0.0731122
0.0731797
0.0732444
0.0732733
0.0733204
0.0732868
0.0728975
0.123927
0.121718
0.117294
0.111473
0.104992
0.0985683
0.092839
0.088017
0.0840357
0.0808002
0.0782521
0.0761081
0.0744417
0.0732451
0.072521
0.0720323
0.0716721
0.0713782
0.0711255
0.070959