/*--------------------------------*- C++ -*----------------------------------*\
| =========                 |                                                 |
| \\      /  F ield         | OpenFOAM: The Open Source CFD Toolbox           |
|  \\    /   O peration     | Version:  5.x                                   |
|   \\  /    A nd           | Web:      www.OpenFOAM.org                      |
|    \\/     M anipulation  |                                                 |
\*---------------------------------------------------------------------------*/
FoamFile
{
    version     2.0;
    format      ascii;
    class       volScalarField;
    location    "550";
    object      nuTilda;
}
// * * * * * * * * * * * * * * * * * * * * * * * * * * * * * * * * * * * * * //

dimensions      [0 2 -1 0 0 0 0];

internalField   nonuniform List<scalar> 
11040
(
0.00332952
0.00390949
0.00420032
0.00424555
0.00406829
0.00380364
0.0035774
0.00338126
0.00317803
0.00294512
0.00265453
0.00237995
0.00216566
0.00199928
0.00182998
0.00164691
0.00143813
0.00108214
0.000776873
0.000632846
0.000548417
0.000468112
0.000406188
0.000443834
0.000546163
0.000551384
0.000502355
0.000435974
0.000418546
0.000417093
0.000424498
0.000440479
0.000465667
0.000498554
0.000533815
0.000558203
0.000541917
0.000458686
0.000442185
0.000528778
0.000892135
0.00771752
0.00824204
0.00749555
0.0067214
0.0059914
0.00536188
0.00528627
0.00531964
0.00528446
0.0051432
0.00495217
0.00480217
0.00469526
0.00457384
0.00439353
0.00419002
0.00398212
0.00373781
0.0034777
0.00327194
0.00298074
0.00256915
0.00215232
0.00192704
0.00170042
0.00148595
0.00132016
0.0011665
0.00105996
0.000980764
0.00093781
0.000932385
0.000969992
0.00105404
0.00118745
0.00137053
0.0015895
0.00182185
0.00211758
0.00273737
0.00433459
0.015742
0.0165418
0.0154626
0.0141354
0.0126556
0.0111912
0.00987798
0.00875151
0.00781791
0.00699405
0.00649449
0.00632025
0.00626145
0.00625602
0.00622518
0.00615159
0.00603708
0.00588282
0.00569973
0.00552136
0.00532037
0.00511823
0.00489353
0.00454265
0.00401871
0.00351693
0.00316081
0.00283817
0.00260523
0.00242266
0.00230335
0.00226902
0.00233582
0.00251467
0.0028088
0.00321313
0.00370405
0.00424333
0.00485116
0.00594892
0.00888848
0.0249222
0.0257889
0.0246122
0.0228875
0.0208851
0.0188207
0.0168216
0.0149365
0.0132071
0.0116129
0.0101144
0.00888071
0.00821147
0.00796786
0.00786134
0.00780157
0.00774603
0.00767011
0.00756441
0.00744489
0.00733158
0.0072768
0.00725351
0.00717051
0.00694794
0.00653301
0.00593928
0.00535478
0.00493396
0.00460088
0.0043676
0.00427301
0.00434938
0.00462287
0.00510382
0.00578369
0.00661578
0.00753773
0.00854735
0.0101889
0.0143317
0.0349318
0.0357492
0.0345731
0.0326166
0.0302358
0.0276745
0.0250946
0.022537
0.020104
0.0178088
0.0155464
0.0135084
0.0119149
0.0106999
0.0100646
0.00970376
0.00948238
0.00933417
0.00921959
0.00912678
0.00907719
0.00913181
0.00929052
0.00948783
0.00961026
0.00955837
0.00929173
0.00885049
0.00830795
0.00777693
0.00737516
0.00717321
0.00722435
0.0075779
0.00825777
0.00925779
0.0104882
0.0118515
0.0132936
0.0154457
0.02043
0.0453878
0.046109
0.0449964
0.0429723
0.0403925
0.0374385
0.0343178
0.0311828
0.0281428
0.0252186
0.022289
0.0195576
0.0172457
0.0153337
0.0137325
0.0124989
0.0118203
0.0113565
0.0110136
0.0107721
0.0106561
0.010721
0.0109833
0.0114153
0.0118958
0.0122685
0.0124257
0.0123497
0.012087
0.0117189
0.0113578
0.0111425
0.0112118
0.0116528
0.0125182
0.0138573
0.0155163
0.0173527
0.019195
0.0217242
0.027061
0.0559765
0.0565643
0.055548
0.0535889
0.050955
0.0478404
0.0444517
0.0409416
0.0374407
0.0339891
0.03047
0.0271009
0.0241399
0.0216049
0.0193201
0.017262
0.0154722
0.0143361
0.01351
0.0128601
0.0124064
0.0122417
0.0124007
0.0128933
0.013643
0.014459
0.0151353
0.0155553
0.0157154
0.0156827
0.0155756
0.0155667
0.0158758
0.0166888
0.0180655
0.0198953
0.0219754
0.0242826
0.0264084
0.0291023
0.0341028
0.066347
0.0668143
0.0659177
0.0641143
0.0615881
0.0585351
0.0551253
0.0514856
0.0477436
0.0439488
0.0399953
0.0361037
0.0325666
0.0294415
0.0265638
0.0238831
0.0213544
0.0190641
0.0174137
0.0160911
0.0149959
0.0142664
0.0139748
0.0141503
0.0148257
0.0158883
0.0170817
0.0181331
0.018897
0.0193745
0.0196663
0.0199648
0.0205604
0.0217696
0.0237994
0.0266207
0.0298822
0.0329568
0.0351686
0.0377272
0.0417179
0.0762589
0.0766098
0.0758328
0.0742342
0.071938
0.0691117
0.0658839
0.0623452
0.0586029
0.054698
0.0505334
0.0463135
0.0423427
0.0387171
0.0353134
0.032095
0.0290218
0.0260301
0.0233284
0.0211411
0.0192285
0.0177034
0.0166407
0.0160426
0.0160573
0.0167545
0.0180353
0.0196115
0.0211286
0.02236
0.0232849
0.0240547
0.0249741
0.0264668
0.0289265
0.0324811
0.0368875
0.0415454
0.0454876
0.0478492
0.050565
0.0854701
0.0857222
0.0850621
0.0836896
0.0816885
0.0791904
0.0762861
0.0730295
0.0695003
0.0657003
0.0615576
0.0572433
0.0530459
0.0490925
0.0453216
0.0416875
0.0381721
0.0347271
0.0313438
0.0283123
0.0255959
0.0232869
0.021396
0.0198198
0.0187363
0.018342
0.0187736
0.0200135
0.0218302
0.0238368
0.0256799
0.0272403
0.0286987
0.0304849
0.0331458
0.0370661
0.0422093
0.0480944
0.0538818
0.0585342
0.0612449
0.0938212
0.0939968
0.0934464
0.0922978
0.0906092
0.0884808
0.0859737
0.083099
0.0799126
0.0764292
0.0725609
0.0684268
0.0642701
0.0602173
0.0562345
0.0523349
0.0485167
0.0447678
0.041009
0.0373729
0.0340331
0.0311423
0.0286363
0.0262714
0.024155
0.0224681
0.0214315
0.0212486
0.0220208
0.0236668
0.0259039
0.0283471
0.0307215
0.0330956
0.0359396
0.0398618
0.045177
0.0516813
0.0586836
0.065179
0.0701677
0.101235
0.101355
0.100902
0.0999573
0.0985652
0.0968013
0.0947069
0.0922698
0.0895319
0.086495
0.0830755
0.0793457
0.0754869
0.0716012
0.0676677
0.0637189
0.0597738
0.0558392
0.0518897
0.0478923
0.0440828
0.0408349
0.0379983
0.0352211
0.0325115
0.0299483
0.027677
0.0259023
0.0248537
0.0247257
0.0256049
0.027415
0.0299269
0.0328794
0.0361969
0.0401381
0.0451679
0.0515555
0.0590025
0.0666675
0.0734788
0.107707
0.107784
0.107408
0.106639
0.105509
0.104076
0.102368
0.100366
0.0981004
0.0955651
0.0926853
0.0894974
0.0861106
0.0826061
0.0789722
0.0752473
0.0714382
0.0675569
0.0636062
0.0595612
0.0554369
0.0517864
0.0487431
0.0458428
0.0429816
0.0401306
0.0373224
0.0346479
0.032257
0.0303478
0.0291359
0.0288062
0.0294602
0.0310897
0.0336208
0.0370157
0.0413915
0.0470156
0.0539923
0.0619251
0.0699507
0.113272
0.11331
0.112996
0.112373
0.111465
0.110316
0.108946
0.107337
0.105512
0.103462
0.101126
0.0985041
0.0956838
0.0927068
0.0895553
0.0862508
0.0828076
0.079244
0.0755485
0.0717144
0.0677214
0.0640035
0.0606739
0.0575553
0.0546567
0.0518394
0.0490268
0.0462014
0.0433942
0.0406832
0.038195
0.036096
0.0345707
0.0337871
0.0338708
0.0349036
0.0369561
0.0401754
0.0447719
0.0508704
0.0583119
0.11798
0.117995
0.117736
0.117233
0.116511
0.115597
0.11451
0.113234
0.111787
0.110164
0.108306
0.106225
0.10397
0.101561
0.0989748
0.0962187
0.0932978
0.0902163
0.0869744
0.0835677
0.0799904
0.0765979
0.0734574
0.0703346
0.0672685
0.0643487
0.0616137
0.0589505
0.0562878
0.0536035
0.0509125
0.048266
0.0457516
0.0434874
0.0416052
0.0402492
0.0395481
0.0396205
0.0406179
0.0427192
0.0462278
0.121947
0.121944
0.121727
0.12132
0.120753
0.120027
0.119165
0.118158
0.117022
0.115752
0.114304
0.112686
0.110931
0.109045
0.107
0.104802
0.10246
0.0999599
0.0972951
0.0944592
0.0914435
0.0885528
0.0858511
0.0831167
0.0803546
0.0775885
0.0748547
0.0721674
0.0695905
0.0671234
0.0646945
0.0622639
0.0598187
0.0573757
0.0549702
0.0526752
0.050582
0.0487708
0.0473426
0.0464108
0.0461193
0.125272
0.125256
0.125073
0.124743
0.124288
0.123711
0.12303
0.122241
0.121354
0.120366
0.119248
0.118006
0.116661
0.115208
0.113636
0.111944
0.110129
0.108185
0.106111
0.103888
0.101506
0.0991963
0.0970183
0.0948034
0.0925519
0.090263
0.0879413
0.0855954
0.0832453
0.0809123
0.0786038
0.0763226
0.074091
0.0719125
0.06976
0.067618
0.0654882
0.0633732
0.061305
0.0593456
0.0574334
0.127923
0.127903
0.127749
0.127479
0.127111
0.126648
0.126104
0.125482
0.124779
0.123998
0.123122
0.122157
0.121118
0.119998
0.118792
0.117497
0.116111
0.114627
0.113038
0.111338
0.109516
0.107741
0.106057
0.104341
0.102595
0.100818
0.099009
0.0971714
0.0953022
0.0934044
0.0914842
0.0895489
0.0876081
0.0856699
0.0837307
0.0817929
0.0798572
0.077906
0.0759396
0.0740587
0.0721125
0.129963
0.129939
0.129808
0.129584
0.12928
0.128907
0.128462
0.127956
0.127387
0.126759
0.126064
0.125298
0.124475
0.123594
0.122648
0.121639
0.120564
0.119418
0.118196
0.116892
0.1155
0.114141
0.112849
0.111535
0.1102
0.108844
0.107466
0.106067
0.104645
0.1032
0.101733
0.100242
0.0987281
0.0971921
0.0956306
0.0940488
0.0924525
0.0908308
0.0891794
0.0875166
0.0857719
0.131561
0.131536
0.131424
0.131236
0.130982
0.13067
0.1303
0.129881
0.129416
0.128901
0.128334
0.127712
0.127049
0.126345
0.12559
0.124787
0.123936
0.123034
0.122078
0.121063
0.119986
0.118934
0.117935
0.116923
0.115898
0.11486
0.11381
0.112747
0.111671
0.110582
0.109478
0.108358
0.107223
0.106072
0.104899
0.103704
0.10249
0.101249
0.0999783
0.0986826
0.0973194
0.132844
0.13282
0.132725
0.132565
0.132349
0.132084
0.131776
0.131423
0.131033
0.130603
0.130132
0.129623
0.129078
0.128502
0.127888
0.127239
0.126554
0.125833
0.125072
0.124269
0.123422
0.122597
0.121814
0.121023
0.120227
0.119424
0.118612
0.117794
0.116973
0.116146
0.115311
0.114469
0.113619
0.112761
0.11189
0.111005
0.110108
0.109192
0.108255
0.107298
0.106301
0.133895
0.133874
0.133792
0.133655
0.133469
0.133242
0.132978
0.13268
0.132349
0.131988
0.131591
0.131164
0.13071
0.130231
0.129728
0.129195
0.128635
0.128049
0.127434
0.12679
0.126114
0.125456
0.124834
0.124208
0.123577
0.122947
0.122313
0.121675
0.121037
0.1204
0.119761
0.119119
0.118475
0.117828
0.117175
0.116515
0.115849
0.115173
0.114483
0.113782
0.113061
0.13477
0.134752
0.134682
0.134563
0.134402
0.134205
0.133976
0.133719
0.133437
0.133128
0.132793
0.132431
0.132049
0.131647
0.131225
0.130784
0.130324
0.129841
0.129338
0.128813
0.128266
0.127734
0.127232
0.126729
0.126225
0.125723
0.12522
0.124717
0.124214
0.123714
0.123217
0.122722
0.122228
0.121733
0.121236
0.120736
0.120235
0.119728
0.119214
0.118694
0.118167
0.135509
0.135494
0.135433
0.135329
0.135188
0.135016
0.134817
0.134593
0.134349
0.134081
0.133793
0.133483
0.133158
0.132819
0.132462
0.132091
0.131706
0.131307
0.130893
0.130461
0.130014
0.129579
0.129169
0.12876
0.128353
0.127949
0.127545
0.127142
0.126742
0.126345
0.125951
0.12556
0.125175
0.124791
0.124407
0.124024
0.123641
0.123255
0.122867
0.122478
0.122088
0.13614
0.136127
0.136073
0.135982
0.135859
0.135708
0.135534
0.135338
0.135124
0.134894
0.134643
0.134378
0.134098
0.133806
0.133503
0.13319
0.132864
0.132527
0.13218
0.131823
0.131455
0.131096
0.130757
0.130421
0.130088
0.129757
0.129429
0.129104
0.128781
0.128463
0.128148
0.127837
0.12753
0.127226
0.126926
0.126628
0.126333
0.126038
0.125742
0.125445
0.125151
0.136683
0.136672
0.136625
0.136545
0.136437
0.136305
0.136152
0.13598
0.135792
0.135589
0.135373
0.135141
0.1349
0.134648
0.134387
0.134118
0.133842
0.133558
0.133265
0.132964
0.132656
0.132358
0.132078
0.131799
0.131523
0.13125
0.130981
0.130714
0.130452
0.130193
0.129939
0.129689
0.129442
0.1292
0.128961
0.128725
0.128493
0.128264
0.128036
0.127808
0.127585
0.137155
0.137145
0.137104
0.137035
0.13694
0.136824
0.136689
0.136537
0.136371
0.136193
0.136002
0.135801
0.135591
0.135373
0.135148
0.134917
0.134679
0.134436
0.134187
0.133934
0.133674
0.133423
0.133187
0.132954
0.132724
0.132498
0.132274
0.132054
0.131839
0.131627
0.131419
0.131216
0.131016
0.130821
0.130629
0.13044
0.130256
0.130073
0.129893
0.129716
0.129545
0.137566
0.137559
0.137524
0.137464
0.137381
0.137278
0.137159
0.137025
0.136878
0.13672
0.136552
0.136375
0.136191
0.136002
0.135807
0.135607
0.135402
0.135193
0.13498
0.134763
0.134544
0.134332
0.134132
0.133935
0.133741
0.133551
0.133364
0.133181
0.133002
0.132828
0.132657
0.13249
0.132327
0.132168
0.132013
0.131861
0.131712
0.131566
0.131423
0.131282
0.131147
0.137927
0.137923
0.137894
0.137842
0.13777
0.13768
0.137574
0.137455
0.137324
0.137184
0.137035
0.136878
0.136716
0.136549
0.136378
0.136204
0.136027
0.135846
0.135663
0.135478
0.135291
0.13511
0.134939
0.134772
0.134608
0.134447
0.13429
0.134137
0.133988
0.133842
0.133701
0.133563
0.133429
0.133299
0.133172
0.133048
0.132928
0.132811
0.132695
0.132583
0.132476
0.138247
0.138245
0.138223
0.138179
0.138115
0.138035
0.137941
0.137835
0.137719
0.137594
0.137461
0.137322
0.137178
0.137031
0.13688
0.136727
0.136572
0.136415
0.136257
0.136098
0.135938
0.135783
0.135636
0.135493
0.135353
0.135216
0.135084
0.134954
0.134829
0.134707
0.134589
0.134474
0.134363
0.134256
0.134152
0.134051
0.133953
0.133857
0.133764
0.133674
0.133589
0.138531
0.138533
0.138516
0.138478
0.138423
0.138352
0.138268
0.138173
0.138069
0.137958
0.137839
0.137716
0.137588
0.137457
0.137324
0.137188
0.137052
0.136915
0.136777
0.136639
0.136502
0.136368
0.136242
0.136118
0.135998
0.135882
0.135769
0.135659
0.135553
0.13545
0.135351
0.135255
0.135163
0.135074
0.134988
0.134904
0.134824
0.134746
0.134671
0.134597
0.134529
0.138784
0.13879
0.138778
0.138746
0.138698
0.138635
0.13856
0.138475
0.138382
0.138282
0.138177
0.138067
0.137953
0.137837
0.137718
0.137599
0.137478
0.137358
0.137237
0.137116
0.136997
0.136881
0.136772
0.136665
0.136562
0.136462
0.136365
0.136271
0.136181
0.136094
0.13601
0.13593
0.135852
0.135778
0.135706
0.135637
0.135571
0.135507
0.135445
0.135386
0.135331
0.139011
0.139022
0.139014
0.138987
0.138944
0.138887
0.138821
0.138745
0.138663
0.138574
0.13848
0.138382
0.138281
0.138178
0.138073
0.137967
0.13786
0.137754
0.137648
0.137542
0.137438
0.137337
0.137241
0.137149
0.137059
0.136973
0.136889
0.136809
0.136732
0.136658
0.136587
0.136519
0.136453
0.136391
0.136331
0.136274
0.136219
0.136166
0.136115
0.136066
0.136022
0.139216
0.13923
0.139225
0.139202
0.139164
0.139115
0.139057
0.13899
0.138918
0.13884
0.138757
0.13867
0.13858
0.138488
0.138395
0.138301
0.138207
0.138113
0.138019
0.137926
0.137835
0.137747
0.137663
0.137582
0.137504
0.137429
0.137357
0.137288
0.137221
0.137158
0.137097
0.137039
0.136984
0.136931
0.136881
0.136833
0.136787
0.136743
0.136701
0.136661
0.136625
0.139402
0.139419
0.139416
0.139396
0.139364
0.139322
0.139272
0.139216
0.139153
0.139085
0.139013
0.138936
0.138857
0.138776
0.138693
0.13861
0.138526
0.138443
0.13836
0.138278
0.138198
0.13812
0.138047
0.137976
0.137908
0.137842
0.13778
0.137719
0.137662
0.137607
0.137555
0.137506
0.137459
0.137414
0.137371
0.137331
0.137293
0.137256
0.137221
0.137188
0.137159
0.13957
0.139588
0.139586
0.13957
0.139545
0.139513
0.139473
0.139427
0.139375
0.139318
0.139255
0.139189
0.139119
0.139048
0.138975
0.138901
0.138827
0.138753
0.138679
0.138607
0.138537
0.138468
0.138403
0.138341
0.138281
0.138223
0.138168
0.138116
0.138066
0.138019
0.137974
0.137931
0.137891
0.137853
0.137816
0.137782
0.13775
0.13772
0.137691
0.137663
0.137639
0.139721
0.139739
0.139739
0.139729
0.139713
0.139691
0.139663
0.139628
0.139588
0.139541
0.13949
0.139434
0.139374
0.139313
0.139249
0.139184
0.139118
0.139052
0.138988
0.138923
0.138861
0.1388
0.138743
0.138688
0.138634
0.138584
0.138535
0.138489
0.138446
0.138404
0.138365
0.138328
0.138294
0.138261
0.13823
0.138202
0.138175
0.138149
0.138125
0.138103
0.138084
0.139856
0.139871
0.139873
0.139871
0.139865
0.139855
0.139839
0.139817
0.13979
0.139757
0.13972
0.139678
0.139632
0.139583
0.139531
0.139477
0.139421
0.139365
0.139309
0.139253
0.1392
0.139147
0.139096
0.139047
0.139
0.138956
0.138914
0.138874
0.138837
0.138802
0.138769
0.138739
0.138711
0.138686
0.138663
0.138642
0.138623
0.138606
0.138591
0.138578
0.138567
0.139961
0.139974
0.139979
0.139982
0.139983
0.13998
0.139974
0.139965
0.139953
0.139937
0.139919
0.139897
0.139873
0.139846
0.139817
0.139786
0.139753
0.139718
0.139682
0.139646
0.13961
0.139574
0.139537
0.139502
0.139468
0.139435
0.139404
0.139375
0.139347
0.139322
0.139298
0.139277
0.139257
0.13924
0.139224
0.13921
0.139198
0.139188
0.139179
0.139172
0.139168
0.140018
0.140027
0.140033
0.140037
0.14004
0.14004
0.140039
0.140037
0.140032
0.140026
0.140019
0.140009
0.139999
0.139986
0.139973
0.139959
0.139943
0.139927
0.13991
0.139893
0.139876
0.139857
0.13984
0.139822
0.139804
0.139786
0.139769
0.139753
0.139738
0.139724
0.13971
0.139698
0.139687
0.139677
0.139668
0.13966
0.139654
0.139648
0.139643
0.139639
0.139637
0.140047
0.140054
0.14006
0.140066
0.14007
0.140073
0.140075
0.140076
0.140076
0.140075
0.140074
0.140071
0.140067
0.140062
0.140056
0.14005
0.140043
0.140036
0.140029
0.140021
0.140013
0.140005
0.139997
0.13999
0.139982
0.139974
0.139967
0.139959
0.139952
0.139946
0.13994
0.139934
0.139929
0.139925
0.139921
0.139917
0.139914
0.139911
0.139909
0.139908
0.139907
0.140061
0.140068
0.140074
0.14008
0.140085
0.14009
0.140094
0.140098
0.140101
0.140104
0.140106
0.140107
0.140107
0.140107
0.140106
0.140105
0.140103
0.140101
0.140098
0.140095
0.140092
0.140089
0.140086
0.140083
0.14008
0.140076
0.140073
0.14007
0.140068
0.140065
0.140063
0.140061
0.140059
0.140057
0.140055
0.140054
0.140053
0.140052
0.140052
0.140052
0.140052
0.140066
0.140073
0.140079
0.140085
0.140091
0.140097
0.140103
0.140109
0.140114
0.140119
0.140124
0.140128
0.140131
0.140134
0.140137
0.140139
0.14014
0.140141
0.140142
0.140142
0.140143
0.140143
0.140142
0.140142
0.140141
0.140141
0.14014
0.14014
0.140139
0.140138
0.140138
0.140137
0.140137
0.140137
0.140137
0.140137
0.140137
0.140137
0.140138
0.140138
0.140139
0.140065
0.140071
0.140077
0.140083
0.140089
0.140096
0.140103
0.14011
0.140117
0.140124
0.14013
0.140137
0.140142
0.140148
0.140153
0.140157
0.140162
0.140165
0.140168
0.140171
0.140174
0.140176
0.140178
0.14018
0.140181
0.140183
0.140184
0.140185
0.140186
0.140187
0.140187
0.140188
0.140189
0.14019
0.140191
0.140191
0.140192
0.140193
0.140194
0.140195
0.140196
0.140058
0.140064
0.140069
0.140074
0.140081
0.140088
0.140095
0.140103
0.140111
0.140119
0.140127
0.140134
0.140142
0.140149
0.140156
0.140163
0.140169
0.140175
0.14018
0.140185
0.14019
0.140194
0.140198
0.140201
0.140204
0.140207
0.14021
0.140212
0.140214
0.140217
0.140218
0.14022
0.140222
0.140223
0.140225
0.140226
0.140228
0.140229
0.14023
0.140232
0.140233
0.140047
0.140051
0.140055
0.14006
0.140066
0.140072
0.140079
0.140087
0.140095
0.140103
0.140112
0.14012
0.140129
0.140138
0.140146
0.140154
0.140162
0.14017
0.140177
0.140184
0.14019
0.140196
0.140201
0.140206
0.140211
0.140215
0.140219
0.140222
0.140226
0.140229
0.140232
0.140234
0.140237
0.140239
0.140241
0.140243
0.140245
0.140246
0.140248
0.14025
0.140251
0.140031
0.140034
0.140037
0.140041
0.140045
0.14005
0.140055
0.140061
0.140068
0.140075
0.140083
0.140091
0.140099
0.140108
0.140117
0.140126
0.140134
0.140143
0.140151
0.14016
0.140168
0.140176
0.140183
0.14019
0.140197
0.140204
0.14021
0.140216
0.140221
0.140226
0.140231
0.140235
0.140239
0.140243
0.140246
0.14025
0.140253
0.140256
0.140258
0.140261
0.140263
0.140011
0.140012
0.140013
0.140015
0.140017
0.140019
0.140021
0.140024
0.140027
0.140031
0.140035
0.140039
0.140044
0.140049
0.140055
0.140061
0.140065
0.140068
0.14007
0.140074
0.140077
0.140081
0.140085
0.14009
0.140094
0.140099
0.140103
0.140108
0.140112
0.140116
0.14012
0.140124
0.140127
0.140131
0.140134
0.140137
0.14014
0.140143
0.140145
0.140148
0.14015
0.00615414
0.00821899
0.0090182
0.0102404
0.0126593
0.0160571
0.0200131
0.0242709
0.0286735
0.03313
0.0375858
0.042004
0.0463569
0.0506241
0.0547912
0.0588486
0.0627901
0.0666117
0.0703111
0.0738871
0.0773391
0.0806669
0.0838707
0.0869507
0.0899076
0.0927419
0.0954546
0.0980468
0.10052
0.102876
0.105116
0.107243
0.109259
0.111168
0.112971
0.114673
0.116277
0.117786
0.119205
0.120537
0.121786
0.122957
0.124055
0.125082
0.126044
0.126945
0.127788
0.128581
0.129332
0.130044
0.130719
0.131358
0.131962
0.132532
0.133069
0.133577
0.134056
0.134508
0.134936
0.135339
0.135721
0.136082
0.136423
0.136746
0.137052
0.137342
0.137617
0.137878
0.138128
0.138366
0.138592
0.138809
0.138996
0.13926
0.0131037
0.0159279
0.0154963
0.0141933
0.0140508
0.0158468
0.0190832
0.0230532
0.0273521
0.0317799
0.0362417
0.0406817
0.0450657
0.0493694
0.0535762
0.0576756
0.0616603
0.0655257
0.0692693
0.0728897
0.076386
0.0797578
0.0830053
0.0861284
0.0891278
0.0920038
0.0947573
0.0973894
0.0999013
0.102295
0.104571
0.106733
0.108783
0.110723
0.112558
0.114288
0.11592
0.117455
0.118898
0.120252
0.121523
0.122714
0.12383
0.124875
0.125853
0.126768
0.127625
0.12843
0.129192
0.129915
0.130599
0.131247
0.131858
0.132435
0.13298
0.133494
0.133979
0.134436
0.134868
0.135276
0.135662
0.136027
0.136372
0.136698
0.137007
0.1373
0.137577
0.137841
0.138092
0.138332
0.138561
0.13878
0.138969
0.139239
0.0203626
0.0249467
0.0247532
0.0220655
0.0191318
0.0178949
0.0190835
0.0220791
0.0259931
0.0302718
0.0346944
0.0391379
0.0435486
0.0478905
0.0521424
0.0562911
0.0603275
0.0642457
0.0680429
0.0717171
0.0752671
0.0786924
0.0819927
0.085168
0.0882186
0.0911448
0.0939474
0.0966272
0.0991854
0.101623
0.103943
0.106146
0.108236
0.110214
0.112084
0.113849
0.115512
0.117078
0.118549
0.119931
0.121226
0.122441
0.123578
0.124642
0.125638
0.12657
0.127442
0.128262
0.129037
0.129771
0.130466
0.131123
0.131744
0.13233
0.132882
0.133403
0.133894
0.134357
0.134795
0.135208
0.135598
0.135967
0.136316
0.136646
0.136958
0.137254
0.137534
0.137801
0.138055
0.138297
0.138527
0.138749
0.138939
0.139216
0.0270945
0.0339102
0.0349607
0.0323613
0.0280531
0.0239561
0.0218306
0.0223868
0.0250352
0.0287865
0.0330071
0.0373778
0.0417864
0.0461559
0.0504522
0.0546553
0.0587509
0.0627312
0.0665923
0.0703313
0.0739463
0.0774361
0.0808004
0.0840388
0.0871513
0.0901382
0.0929999
0.0957371
0.0983508
0.100842
0.103213
0.105466
0.107603
0.109626
0.111538
0.113344
0.115045
0.116646
0.118151
0.119564
0.120888
0.122129
0.123291
0.124379
0.125396
0.126347
0.127237
0.128073
0.128863
0.129611
0.130318
0.130987
0.131617
0.132212
0.132773
0.133302
0.1338
0.134271
0.134714
0.135133
0.135528
0.135902
0.136255
0.136589
0.136905
0.137205
0.137488
0.137757
0.138014
0.138258
0.138491
0.138715
0.138907
0.13919
0.0333899
0.0425141
0.045197
0.0435787
0.0393397
0.0339335
0.0289731
0.0260321
0.025853
0.0279769
0.0314482
0.0355187
0.0398181
0.0441589
0.0484778
0.0527303
0.0568873
0.0609364
0.0648714
0.0686868
0.0723792
0.0759465
0.0793879
0.0827025
0.08589
0.0889503
0.0918834
0.0946898
0.0973704
0.0999264
0.102359
0.104671
0.106864
0.108941
0.110905
0.112758
0.114504
0.116148
0.117692
0.119142
0.120501
0.121774
0.122965
0.124079
0.125121
0.126095
0.127006
0.127861
0.128668
0.129431
0.130153
0.130834
0.131476
0.132082
0.132653
0.133191
0.133697
0.134175
0.134625
0.13505
0.135452
0.135831
0.136189
0.136527
0.136848
0.137151
0.137438
0.13771
0.137969
0.138216
0.138452
0.138678
0.138873
0.139163
0.0393447
0.0505841
0.0549422
0.0547605
0.0515002
0.0462502
0.0401285
0.0344896
0.0307312
0.0296481
0.0310255
0.0340168
0.037833
0.041985
0.046247
0.0505077
0.054705
0.0588179
0.0628315
0.0667328
0.0705145
0.074173
0.0777061
0.0811122
0.08439
0.0875388
0.0905582
0.0934484
0.0962099
0.0988438
0.101352
0.103735
0.105996
0.108137
0.110162
0.112073
0.113874
0.115568
0.11716
0.118653
0.120053
0.121363
0.122589
0.123735
0.124806
0.125807
0.126742
0.12762
0.128447
0.129229
0.129967
0.130663
0.131319
0.131937
0.132519
0.133067
0.133583
0.134069
0.134527
0.134959
0.135367
0.135752
0.136116
0.13646
0.136785
0.137092
0.137383
0.137659
0.137921
0.138171
0.138409
0.138639
0.138836
0.139132
0.044995
0.0577948
0.0637167
0.065189
0.0634273
0.0592765
0.0534948
0.04696
0.04079
0.0362018
0.0340494
0.0343989
0.0366455
0.0400088
0.0439155
0.0480411
0.0522163
0.0563632
0.0604413
0.0644251
0.0683005
0.0720602
0.0756989
0.0792124
0.0825975
0.0858524
0.0889756
0.0919668
0.094826
0.0975541
0.100152
0.102622
0.104966
0.107185
0.109284
0.111264
0.113131
0.114886
0.116535
0.118082
0.11953
0.120886
0.122153
0.123338
0.124443
0.125476
0.12644
0.127344
0.128196
0.128999
0.129756
0.130469
0.131141
0.131773
0.132368
0.132928
0.133455
0.133951
0.134418
0.134859
0.135274
0.135666
0.136036
0.136385
0.136715
0.137028
0.137323
0.137603
0.137869
0.138122
0.138363
0.138596
0.138795
0.139099
0.0501734
0.063695
0.0709977
0.0741688
0.0741735
0.0716801
0.067212
0.0613044
0.054638
0.0481084
0.0427469
0.03942
0.0384718
0.0396218
0.0422387
0.0457023
0.0495776
0.0536168
0.0576902
0.0617273
0.065689
0.0695531
0.0733068
0.0769411
0.0804501
0.0838294
0.0870761
0.0901882
0.093165
0.0960065
0.0987139
0.101288
0.103732
0.106047
0.108236
0.110301
0.112247
0.114077
0.115795
0.117406
0.118915
0.120325
0.121643
0.122873
0.12402
0.125091
0.12609
0.127026
0.127907
0.128735
0.129515
0.130249
0.130939
0.131588
0.132198
0.132772
0.133311
0.133819
0.134297
0.134746
0.13517
0.13557
0.135947
0.136303
0.136639
0.136957
0.137257
0.137542
0.137812
0.138069
0.138313
0.138549
0.138751
0.139062
0.0561454
0.0678765
0.0762158
0.0809723
0.0827913
0.0822466
0.0796723
0.0753654
0.0697087
0.0632169
0.0565764
0.0506185
0.0461598
0.0437414
0.0434383
0.044901
0.0475865
0.0509939
0.054771
0.0587039
0.0626709
0.0666033
0.0704614
0.0742213
0.0778678
0.0813905
0.0847827
0.0880397
0.0911585
0.0941377
0.0969772
0.0996782
0.102243
0.104673
0.106972
0.109142
0.111185
0.113107
0.11491
0.1166
0.118181
0.119659
0.121038
0.122324
0.123523
0.12464
0.125682
0.126657
0.127572
0.128431
0.129238
0.129996
0.130708
0.131377
0.132005
0.132595
0.133149
0.13367
0.13416
0.134621
0.135054
0.135463
0.135848
0.136212
0.136555
0.136879
0.137185
0.137475
0.13775
0.138011
0.138259
0.138499
0.138703
0.139022
0.0637168
0.0704997
0.0789967
0.084962
0.0883507
0.0897837
0.0893796
0.0872152
0.0834944
0.0784811
0.0725282
0.066123
0.0598966
0.0545538
0.0507152
0.0487382
0.0486215
0.0500612
0.052616
0.0558677
0.0595014
0.0633113
0.0671722
0.0710092
0.0747769
0.0784466
0.0819999
0.0854246
0.0887128
0.0918595
0.0948619
0.0977192
0.100432
0.103003
0.105435
0.107732
0.109896
0.11193
0.113839
0.115626
0.117298
0.118859
0.120314
0.121669
0.122931
0.124105
0.125199
0.126221
0.127179
0.128075
0.128916
0.129703
0.130441
0.131134
0.131783
0.132393
0.132965
0.133501
0.134005
0.134479
0.134924
0.135344
0.135738
0.136111
0.136462
0.136793
0.137105
0.137401
0.137681
0.137947
0.138199
0.138443
0.138651
0.138977
0.073627
0.0768463
0.0802088
0.0862956
0.0902819
0.0933029
0.0949884
0.0950797
0.0937355
0.0910365
0.0870855
0.0820794
0.0763418
0.070322
0.0645694
0.0596641
0.0561025
0.0541761
0.0539074
0.0550812
0.057351
0.0603562
0.0637988
0.0674658
0.0712174
0.074965
0.0786529
0.0822453
0.0857192
0.0890597
0.0922573
0.0953067
0.0982053
0.100953
0.103551
0.106004
0.108314
0.110487
0.112527
0.114436
0.11622
0.117885
0.119435
0.120877
0.122218
0.123464
0.124623
0.125703
0.126713
0.127656
0.128537
0.12936
0.130131
0.130852
0.131527
0.13216
0.132753
0.133308
0.133829
0.134318
0.134777
0.135209
0.135615
0.135997
0.136357
0.136697
0.137017
0.13732
0.137606
0.137877
0.138134
0.138383
0.138594
0.138929
0.078419
0.0820773
0.0852233
0.0879657
0.089567
0.0930029
0.0959398
0.0976594
0.0985566
0.0984377
0.0971203
0.0945786
0.0909319
0.086367
0.0811514
0.0756539
0.0703326
0.0656793
0.0621316
0.0599824
0.0593213
0.0600366
0.0618759
0.0645324
0.067719
0.0712077
0.0748354
0.0784924
0.0821073
0.0856336
0.0890415
0.092312
0.0954336
0.0984
0.101209
0.10386
0.106357
0.108703
0.110904
0.112964
0.114889
0.116684
0.118354
0.119906
0.121347
0.122683
0.123924
0.125079
0.126153
0.127154
0.128085
0.128954
0.129764
0.130521
0.131228
0.131889
0.132507
0.133085
0.133626
0.134134
0.134609
0.135056
0.135475
0.135869
0.13624
0.136589
0.136918
0.137229
0.137522
0.1378
0.138062
0.138317
0.138532
0.138875
0.076045
0.0804662
0.084435
0.0878382
0.0905407
0.092945
0.0947022
0.0956948
0.0975995
0.0994588
0.10048
0.100496
0.0996085
0.0977465
0.0948768
0.0910891
0.0865973
0.0817123
0.0768186
0.07234
0.0686827
0.0661651
0.0649581
0.0650614
0.0663255
0.0685094
0.0713464
0.0745954
0.0780654
0.0816185
0.0851603
0.0886285
0.0919829
0.0951981
0.0982592
0.101158
0.103892
0.106462
0.108871
0.111124
0.113227
0.115186
0.117008
0.1187
0.120268
0.121721
0.123066
0.124313
0.125471
0.126544
0.127541
0.128466
0.129327
0.130127
0.130874
0.13157
0.132219
0.132825
0.133391
0.133921
0.134416
0.13488
0.135315
0.135724
0.136107
0.136468
0.136808
0.137128
0.137429
0.137714
0.137984
0.138244
0.138464
0.138816
0.0646006
0.0697364
0.074681
0.0793427
0.0836086
0.0874491
0.0907586
0.0934475
0.0956884
0.0973517
0.0983186
0.0990345
0.100326
0.101204
0.101198
0.100215
0.0983133
0.0955475
0.0920208
0.0879341
0.0835892
0.0793549
0.0756176
0.0727222
0.0709166
0.0703111
0.0708712
0.0724433
0.0748048
0.0777175
0.0809667
0.0843818
0.087838
0.0912496
0.0945602
0.0977344
0.100751
0.1036
0.106275
0.108779
0.111115
0.113289
0.115307
0.117179
0.118911
0.120513
0.121993
0.12336
0.124624
0.125792
0.126872
0.127871
0.128796
0.129653
0.130449
0.131189
0.131877
0.132518
0.133115
0.133672
0.134192
0.134677
0.135132
0.135557
0.135956
0.136331
0.136683
0.137014
0.137325
0.137619
0.137896
0.138164
0.138389
0.138752
0.049492
0.0526685
0.0563302
0.0605178
0.0652017
0.0702947
0.0756266
0.08094
0.0859471
0.0903393
0.0938462
0.0963867
0.0982088
0.0993929
0.099923
0.100381
0.101011
0.101216
0.100601
0.0990667
0.0966906
0.0936172
0.0900575
0.0862975
0.082679
0.0795535
0.0772271
0.075911
0.0756907
0.0765237
0.0782643
0.0807073
0.0836335
0.0868443
0.09018
0.0935232
0.0967931
0.0999379
0.102926
0.105742
0.108377
0.110832
0.113111
0.115221
0.11717
0.118968
0.120624
0.12215
0.123554
0.124846
0.126036
0.127131
0.12814
0.129072
0.129932
0.130729
0.131467
0.132151
0.132787
0.133378
0.133928
0.134441
0.134919
0.135365
0.135783
0.136174
0.136541
0.136885
0.137208
0.137513
0.137799
0.138075
0.138307
0.13868
0.0465898
0.0474011
0.0485296
0.0500042
0.0518866
0.0542521
0.0571805
0.0607403
0.0649635
0.0698092
0.0751227
0.0806242
0.0859568
0.0907293
0.0945878
0.0974268
0.0993654
0.100485
0.100791
0.100912
0.101054
0.100792
0.0998061
0.0980249
0.0955538
0.0925984
0.0894338
0.0863817
0.0837694
0.0818803
0.0809099
0.0809383
0.0819287
0.0837491
0.0862105
0.0891078
0.0922523
0.0954904
0.0987081
0.101828
0.104801
0.107601
0.110215
0.112639