/*--------------------------------*- C++ -*----------------------------------*\
| =========                 |                                                 |
| \\      /  F ield         | OpenFOAM: The Open Source CFD Toolbox           |
|  \\    /   O peration     | Version:  5.x                                   |
|   \\  /    A nd           | Web:      www.OpenFOAM.org                      |
|    \\/     M anipulation  |                                                 |
\*---------------------------------------------------------------------------*/
FoamFile
{
    version     2.0;
    format      ascii;
    class       volScalarField;
    location    "550";
    object      p;
}
// * * * * * * * * * * * * * * * * * * * * * * * * * * * * * * * * * * * * * //

dimensions      [0 2 -2 0 0 0 0];

internalField   nonuniform List<scalar> 
11040
(
-6.50079e-05
-53.7862
-181.631
-216.396
-228.117
-235.298
-236.155
-230.657
-220.658
-206.755
-188.707
-161.045
-134.436
-115.437
-102.081
-87.8498
-73.4156
-59.7862
-46.8836
-34.4371
-22.4075
-12.0361
-3.38551
4.68693
12.2181
19.2139
25.6643
31.5547
36.8524
41.5036
45.4407
48.6169
51.0523
52.8263
54.0889
54.9345
55.1813
54.8693
54.9341
57.0771
56.9536
19.1702
-32.8877
-115.26
-157.442
-179.684
-196.022
-205.664
-207.892
-204.102
-195.237
-181.432
-158.462
-134.295
-115.628
-101.982
-87.9142
-73.6411
-60.0796
-47.2162
-34.8001
-22.7883
-12.4385
-3.76787
4.32412
11.8763
18.8965
25.3762
31.3011
36.6368
41.3268
45.3056
48.5265
51.0008
52.7978
54.0761
54.9491
55.2257
54.8911
54.73
56.3249
55.8962
31.9311
-18.6044
-77.9559
-127.33
-156.856
-176.439
-188.637
-193.305
-191.692
-184.884
-173.446
-154.382
-132.557
-114.331
-100.638
-87.0947
-73.222
-59.8664
-47.145
-34.8429
-22.9127
-12.6019
-3.95114
4.12754
11.6729
18.6932
25.1803
31.1192
36.4741
41.1893
45.2002
48.4578
50.9658
52.7892
54.0831
54.9771
55.2822
54.9656
54.7192
55.878
55.2526
40.7769
-4.41937
-48.9034
-94.0039
-125.448
-147.801
-163.724
-172.599
-174.835
-171.443
-163.261
-148.303
-129.4
-112.204
-98.6876
-85.7337
-72.3807
-59.3373
-46.8382
-34.7144
-22.9156
-12.689
-4.087
3.95989
11.4847
18.4943
24.9806
30.9274
36.2985
41.0387
45.0835
48.3814
50.9304
52.789
54.1013
55.0048
55.329
55.0327
54.7438
55.6159
55.1021
47.6699
8.91601
-25.6436
-64.2586
-95.8798
-120.089
-138.48
-150.554
-156.205
-156.148
-151.253
-140.362
-124.86
-109.239
-96.1253
-83.7867
-71.0803
-58.4757
-46.2885
-34.4188
-22.8187
-12.7278
-4.20751
3.77984
11.2608
18.2407
24.7116
30.656
36.0376
40.8019
44.8853
48.2346
50.8413
52.7544
54.1011
55.0165
55.3617
55.0988
54.7842
55.5186
55.323
52.8725
20.5508
-7.0188
-39.0725
-68.3867
-92.6244
-112.25
-126.722
-135.457
-138.722
-137.219
-130.356
-118.563
-105.074
-92.7544
-81.1433
-69.2187
-57.1942
-45.4208
-33.888
-22.5608
-12.6591
-4.26387
3.62548
11.0296
17.9514
24.3827
30.3052
35.6828
40.463
44.5838
47.9916
50.671
52.6598
54.0631
55.0047
55.386
55.19
54.8875
55.5815
55.7232
56.7859
30.2824
7.90331
-18.3138
-43.9582
-66.7062
-86.2635
-101.992
-113.031
-119.23
-120.987
-117.984
-110.066
-99.2893
-88.3186
-77.66
-66.6694
-55.3872
-44.1565
-33.0608
-22.0919
-12.4441
-4.22676
3.51987
10.808
17.6361
23.9961
29.8694
35.2213
40.002
44.153
47.6217
50.3864
52.4729
53.9615
54.9573
55.405
55.322
55.0955
55.7906
56.2479
59.7278
38.1614
19.8292
-1.47731
-23.0911
-43.3437
-61.7173
-77.5337
-89.8671
-98.2693
-102.825
-103.278
-99.1374
-91.4804
-82.442
-73.08
-63.2298
-52.8897
-42.3706
-31.8403
-21.3386
-12.0285
-4.05395
3.49527
10.6192
17.3096
23.5575
29.3447
34.6387
39.3945
43.5591
47.083
49.9403
52.1451
53.753
54.8479
55.4124
55.5014
55.4255
56.1714
56.8942
61.9237
44.3957
29.3053
12.0219
-5.79431
-23.1164
-39.5305
-54.4382
-67.0147
-76.6896
-83.3083
-86.5807
-85.826
-81.3967
-74.7571
-67.093
-58.6425
-49.4804
-39.8849
-30.0857
-20.1864
-11.3166
-3.66399
3.61787
10.5165
17.0149
23.1006
28.7548
33.9481
38.6411
42.7886
46.3475
49.2914
51.6255
53.3854
54.6349
55.3857
55.7231
55.8834
56.761
57.6529
63.5335
49.252
36.7903
22.768
8.26169
-6.14863
-20.2372
-33.5692
-45.5019
-55.4994
-63.2881
-68.5467
-70.5183
-69.0793
-65.0508
-59.4282
-52.6519
-44.9134
-36.4809
-27.6178
-18.4886
-10.1833
-2.9474
3.98136
10.5803
16.8225
22.6883
28.1566
33.1999
37.7841
41.8724
45.4305
48.4359
50.8905
52.819
54.271
55.2779
55.9452
56.4345
57.531
58.5217
64.6853
52.9982
42.6784
31.2868
19.5449
7.76358
-3.98198
-15.4293
-26.1235
-35.6543
-43.7426
-50.0811
-53.9395
-54.9369
-53.3914
-49.9596
-45.0668
-38.9688
-31.9325
-24.2293
-16.0683
-8.47815
-1.77256
4.70154
10.9121
16.8228
22.4042
27.6299
32.4724
36.9014
40.8866
44.402
47.4315
49.9784
52.0656
53.7368
55.0349
56.0768
56.9594
58.3313
59.4514
65.4856
55.874
47.3057
38.0318
28.546
19.0075
9.40289
-0.135008
-9.31531
-17.8636
-25.5629
-32.1605
-37.0322
-39.7138
-40.2044
-38.8286
-35.8605
-31.5243
-26.0604
-19.7209
-12.7307
-6.02335
0.0203462
5.92277
11.6418
17.1325
22.3542
27.2736
31.861
36.088
39.9285
43.3623
46.3783
48.9825
51.1992
53.0698
54.6415
56.0305
57.2956
58.9286
60.2628
66.0261
58.0836
50.9532
43.3838
35.717
28.029
20.2646
12.4766
4.83417
-2.49084
-9.36574
-15.6117
-20.7453
-24.3338
-26.2238
-26.5031
-25.2693
-22.6481
-18.8126
-13.9639
-8.30769
-2.64126
2.60572
7.81327
12.9286
17.8996
22.6754
27.2147
31.4843
35.4558
39.1055
42.4163
45.3802
48.0038
50.3106
52.3373
54.1271
55.7803
57.3423
59.1422
60.7241
66.3833
59.7932
53.8489
47.6543
41.4469
35.2575
29.0181
22.7376
16.5082
10.429
4.56792
-0.96746
-5.82982
-9.67355
-12.309
-13.6977
-13.8096
-12.664
-10.3454
-6.98122
-2.72781
1.79036
6.13008
10.5343
14.9416
19.2943
23.5336
27.6117
31.4919
35.1448
38.5467
41.6816
44.5423
47.1337
49.4758
51.5964
53.5284
55.3454
57.087
58.9393
60.6638
66.616
61.1317
56.1709
51.089
46.0517
41.0659
36.0636
31.0336
26.0227
21.0835
16.2472
11.5657
7.27346
3.62145
0.775603
-1.18297
-2.16458
-2.11699
-1.04689
0.992957
3.90927
7.26464
10.6457
14.1811
17.8067
21.4635
25.0887
28.6303
32.0488
35.3138
38.4016
41.2953
43.986
46.4751
48.7765
50.9076
52.8886
54.7661
56.5696
58.3884
60.1087
66.7775
62.2055
58.063
53.8836
49.7851
45.7616
41.7513
37.735
33.7347
29.7763
25.8702
22.0359
18.4248
15.2083
12.5093
10.4061
8.99713
8.36274
8.54224
9.53833
11.315
13.606
16.0621
18.7322
21.557
24.4817
27.4461
30.3981
33.2976
36.1134
38.821
41.4028
43.8476
46.1525
48.3242
50.3697
52.2975
54.134
55.8963
57.6218
59.2529
66.9267
63.1125
59.6533
56.2092
52.8664
49.6116
46.3911
43.1841
39.9998
36.8497
33.7337
30.6566
27.7122
25.0137
22.6447
20.6647
19.1561
18.1967
17.8412
18.1207
19.037
20.4557
22.1074
23.9952
26.0708
28.288
30.5943
32.9432
35.2972
37.6264
39.9064
42.1187
44.2498
46.2928
48.2485
50.1163
51.8963
53.601
55.2383
56.8204
58.3185
67.0587
63.8448
60.9252
58.05
55.2865
52.6162
49.9924
47.3963
44.8311
42.3014
39.8037
37.3375
34.9619
32.7496
30.7559
29.022
27.6093
26.5806
25.9867
25.8659
26.2369
27.0465
28.0985
29.3762
30.8442
32.4665
34.2009
36.009
37.8588
39.7236
41.5812
43.4134
45.2061
46.9499
48.6412
50.275
51.8464
53.3605
54.8195
56.2246
57.5628
67.1656
64.416
61.9138
59.4734
57.1485
54.9175
52.74
50.5993
48.4955
46.4298
44.3972
42.3954
40.464
38.6515
36.9941
35.5203
34.2738
33.3016
32.6448
32.3384
32.405
32.8339
33.4837
34.3327
35.3566
36.5284
37.8157
39.1882
40.62
42.0888
43.5753
45.063
46.5385
47.9917
49.4171
50.8073
52.1555
53.4625
54.7272
55.9459
57.1133
67.2633
64.8808
62.7095
60.6092
58.6236
56.73
54.893
53.0981
51.3438
49.6295
47.9505
46.3036
44.7166
43.2229
41.8466
40.6074
39.5363
38.6675
38.0324
37.6595
37.5695
37.7716
38.1623
38.7214
39.4329
40.2766
41.2282
42.2644
43.3649
44.5117
45.6887
46.8818
48.079
49.2707
50.4507
51.6113
52.7451
53.8511
54.9265
55.9661
56.9673
67.3566
65.2712
63.3684
61.5407
59.8249
58.1976
56.6279
55.103
53.6206
52.1795
50.7749
49.4039
48.0864
46.8464
45.7002
44.6611
43.7518
42.9968
42.4195
42.0418
41.8805
41.9528
42.1805
42.5473
43.0429
43.652
44.3564
45.1384
45.9825
46.8742
47.8007
48.7502
49.7126
50.6792
51.6442
52.6003
53.5407
54.4634
55.3651
56.2405
57.0878
67.4479
65.6074
63.9262
62.3218
60.8248
59.4121
58.0566
56.747
55.4807
54.2558
53.0682
51.9152
50.8112
49.774
48.8148
47.9428
47.1745
46.5278
46.0196
45.6664
45.4811
45.4825
45.6098
45.8506
46.1983
46.6414
47.1658
47.7583
48.4069
49.1003
49.8283
50.5814
51.3511
52.1301
52.9133
53.6942
54.4669
55.2293
55.9779
56.7081
57.4181
67.5374
65.9018
64.4064
62.9874
61.6708
60.4343
59.2535
58.1188
57.0273
55.9767
54.9635
53.9852
53.0526
52.1788
51.372
50.6383
49.9898
49.4397
49.0001
48.6834
48.499
48.4645
48.5311
48.6898
48.9367
49.2627
49.6567
50.1089
50.6098
51.1508
51.7237
52.3209
52.9355
53.5617
54.1948
54.8296
55.461
56.0871
56.7047
57.3099
57.9007
67.625
66.1628
64.8249
63.5621
62.3963
61.3062
60.2702
59.2796
58.3315
57.4235
56.5524
55.7161
54.9226
54.1818
53.4995
52.8801
52.3323
51.8658
51.4895
51.2122
51.0409
50.9905
51.0213
51.1269
51.3049
51.5481
51.8477
52.196
52.5858
53.0102
53.4629
53.9377
54.4291
54.9324
55.4438
55.9589
56.4736
56.9862
57.4938
57.9934
58.4827
67.7105
66.3963
65.1932
64.0631
63.0249
62.058
61.1433
60.273
59.4441
58.6542
57.9005
57.1809
56.5015
55.8698
55.2901
54.7653
54.3017
53.9065
53.5861
53.3469
53.1936
53.1389
53.1491
53.2203
53.3511
53.5354
53.7662
54.0375
54.3435
54.679
55.0387
55.4179
55.8122
56.2177
56.6314
57.0495
57.469
57.8883
58.305
58.7168
59.121
67.7932
66.6065
65.5197
64.5034
63.574
62.7119
61.8999
61.131
60.4022
59.7113
59.0554
58.4327
57.848
57.3067
56.8118
56.3657
55.9725
55.6376
55.3656
55.1612
55.0273
54.9742
54.9733
55.0222
55.1203
55.2624
55.4428
55.6565
55.8993
56.1666
56.4545
56.7591
57.077
57.4049
57.7406
58.0808
58.4233
58.7667
59.109
59.4484
59.7821
67.8729
66.7966
65.8107
64.8928
64.0569
63.2846
62.5602
61.8776
61.2338
60.6264
60.0529
59.5116
59.0059
58.54
58.1161
57.7354
57.4013
57.1173
56.8869
56.7131
56.598
56.5496
56.5432
56.5777
56.6529
56.7644
56.9074
57.0778
57.2723
57.4873
57.7195
57.9658
58.2235
58.4901
58.7635
59.0414
59.3218
59.6037
59.8854
60.1655
60.4413
67.9492
66.969
66.0712
65.2388
64.4838
63.7889
63.14
62.5314
61.9602
61.424
60.9204
60.4478
60.0088
59.6063
59.2418
58.9162
58.6316
58.3906
58.1955
58.0485
57.9506
57.9081
57.8996
57.9248
57.9838
58.0728
58.1877
58.3252
58.4826
58.657
58.8458
59.0464
59.2567
59.4745
59.6984
59.9263
60.1568
60.389
60.6214
60.8532
61.0814
68.0219
67.1258
66.3052
65.5474
64.8628
64.2351
63.6515
63.1067
62.598
62.1228
61.6791
61.265
60.8825
60.5337
60.2195
59.9402
59.6974
59.4927
59.3276
59.2036
59.121
59.0848
59.076
59.0952
59.1426
59.2148
59.3084
59.4207
59.5494
59.6921
59.8468
60.0113
60.1839
60.363
60.5472
60.7351
60.9253
61.1173
61.3097
61.5021
61.6915
68.0909
67.2685
66.5157
65.8234
65.2002
64.6311
64.1043
63.615
63.1603
62.7379
62.3456
61.9818
61.6475
61.3444
61.0729
60.8329
60.6254
60.4514
60.3118
60.2075
60.1385
60.1082
60.1003
60.1156
60.1545
60.214
60.2912
60.3839
60.4901
60.6079
60.7355
60.8714
61.014
61.1621
61.3145
61.4701
61.6277
61.7871
61.9471
62.1072
62.2648
68.156
67.3985
66.7055
66.0707
65.5014
64.9836
64.5064
64.0655
63.6579
63.2812
62.9334
62.6128
62.3201
62.0561
61.821
61.6145
61.437
61.2892
61.1712
61.0837
61.0263
61.0017
60.9951
61.0078
61.0405
61.0903
61.1548
61.232
61.3203
61.4183
61.5244
61.6374
61.7559
61.879
62.0057
62.1352
62.2665
62.3993
62.5327
62.6665
62.7981
68.2172
67.5168
66.8766
66.2925
65.7706
65.2978
64.8642
64.4656
64.0991
63.7624
63.4533
63.1702
62.9133
62.6831
62.4793
62.3014
62.1495
62.0238
61.9244
61.8513
61.8039
61.7842
61.7792
61.7904
61.8183
61.8605
61.9149
61.9798
62.054
62.1361
62.2249
62.3193
62.4184
62.5213
62.6272
62.7353
62.8451
62.9562
63.0679
63.18
63.2902
68.2744
67.6243
67.0309
66.4914
66.0113
65.5781
65.1829
64.8215
64.4911
64.1894
63.9142
63.6637
63.4379
63.2369
63.06
62.9068
62.7768
62.6702
62.5865
62.5256
62.4868
62.4715
62.4681
62.4783
62.5026
62.5389
62.5852
62.6403
62.703
62.7722
62.847
62.9264
63.0096
63.0959
63.1848
63.2755
63.3677
63.4609
63.5547
63.649
63.7414
68.3277
67.7219
67.1697
66.6698
66.2264
65.8282
65.4668
65.1382
64.8397
64.5687
64.3232
64.1013
63.9027
63.727
63.5736
63.4415
63.3305
63.2401
63.1699
63.1195
63.0881
63.0766
63.0749
63.0845
63.106
63.1375
63.1774
63.2244
63.2778
63.3365
63.3998
63.4669
63.5371
63.6099
63.6848
63.7612
63.8388
63.9173
63.9962
64.0757
64.1535
68.3771
67.8102
67.2944
66.8293
66.4184
66.0511
65.7195
65.42
65.1496
64.9058
64.6864
64.4897
64.3148
64.1613
64.0282
63.9147
63.82
63.7436
63.685
63.6436
63.6185
63.6104
63.6101
63.6193
63.6386
63.6663
63.7009
63.7414
63.7871
63.8372
63.891
63.948
64.0075
64.069
64.1323
64.1969
64.2623
64.3286
64.3953
64.4624
64.5279
68.4226
67.8899
67.4061
66.9716
66.5894
66.2493
65.9442
65.6704
65.4249
65.2051
65.0089
64.8343
64.6804
64.5463
64.4311
64.3336
64.2531
64.1889
64.1402
64.1066
64.087
64.0818
64.0829
64.0921
64.1096
64.1342
64.1645
64.1996
64.239
64.282
64.328
64.3766
64.4271
64.4794
64.5331
64.5877
64.6431
64.6992
64.7555
64.8123
64.8676
68.4643
67.9613
67.5056
67.0981
66.741
66.425
66.1433
65.8922
65.6689
65.4705
65.2948
65.1399
65.0045
64.8876
64.788
64.7046
64.6364
64.5828
64.5428
64.5159
64.501
64.4982
64.5006
64.5097
64.5259
64.5479
64.5745
64.6052
64.6393
64.6764
64.7159
64.7574
64.8005
64.845
64.8906
64.937
64.984
65.0315
65.0792
65.1272
65.1739
68.5022
68.0249
67.5937
67.2097
66.8746
66.5799
66.3189
66.0881
65.8844
65.7051
65.5477
65.4103
65.2913
65.1895
65.1038
65.0328
64.9755
64.9311
64.8988
64.8777
64.867
64.8665
64.8702
64.8794
64.8946
64.9146
64.9384
64.9654
64.9951
65.0273
65.0613
65.097
65.1339
65.1719
65.2108
65.2502
65.2901
65.3303
65.3707
65.4115
65.4509
68.5363
68.081
67.6709
67.3074
66.9916
66.7154
66.4728
66.2599
66.0738
65.9115
65.7705
65.6486
65.5442
65.456
65.3826
65.3226
65.2749
65.2386
65.2128
65.1968
65.1896
65.1911
65.1958
65.2052
65.2194
65.2376
65.2589
65.2828
65.3089
65.3369
65.3664
65.3971
65.4288
65.4614
65.4945
65.5281
65.562
65.5962
65.6305
65.665
65.6983
68.5667
68.1299
67.7378
67.3919
67.0927
66.8328
66.6063
66.4094
66.2389
66.0918
65.9655
65.8576
65.7664
65.6903
65.6278
65.5777
65.5386
65.5096
65.4899
65.4786
65.4747
65.4782
65.4842
65.494
65.5078
65.5248
65.5442
65.5657
65.5889
65.6135
65.6392
65.6658
65.6932
65.7211
65.7494
65.7781
65.8069
65.8359
65.865
65.8942
65.9222
68.5934
68.1719
67.7949
67.4638
67.1788
66.933
66.7206
66.5379
66.3813
66.2479
66.1347
66.0394
65.9601
65.8949
65.8423
65.8009
65.7694
65.7468
65.7322
65.7248
65.7237
65.7286
65.7355
65.7454
65.7587
65.7745
65.7922
65.8115
65.8321
65.8538
65.8763
65.8995
65.9232
65.9472
65.9716
65.9961
66.0207
66.0454
66.0701
66.0948
66.1185
68.6165
68.207
67.8423
67.5235
67.2505
67.0168
66.8167
66.6464
66.5023
66.3811
66.2799
66.196
66.1273
66.0721
66.0286
65.9953
65.971
65.9546
65.9452
65.9419
65.9439
65.9509
65.9593
65.9702
65.9836
65.999
66.0157
66.0336
66.0524
66.0718
66.0918
66.1122
66.1328
66.1537
66.1746
66.1956
66.2165
66.2375
66.2583
66.2791
66.2991
68.6359
68.2352
67.8799
67.5709
67.3078
67.0843
66.895
66.7357
66.6028
66.4926
66.4021
66.3286
66.2697
66.2234
66.1881
66.1619
66.1437
66.1324
66.1269
66.1266
66.1307
66.1387
66.1479
66.1589
66.172
66.1866
66.2022
66.2185
66.2355
66.253
66.2708
66.2888
66.3069
66.3251
66.3434
66.3615
66.3796
66.3975
66.4153
66.433
66.4499
68.6516
68.2568
67.9082
67.6065
67.351
67.1359
66.9556
66.806
66.6829
66.5827
66.5021
66.4381
66.3884
66.3507
66.3233
66.3046
66.2931
66.2879
66.2877
66.2919
66.2995
66.3102
66.3215
66.3341
66.3482
66.3632
66.3787
66.3946
66.4108
66.427
66.4433
66.4595
66.4757
66.4916
66.5074
66.523
66.5384
66.5535
66.5685
66.5833
66.5973
68.664
68.2726
67.9285
67.632
67.3821
67.1733
67.0003
66.8586
66.7439
66.6525
66.5807
66.5254
66.4839
66.4538
66.4331
66.4201
66.4132
66.4116
66.4142
66.4204
66.4294
66.4409
66.4528
66.4658
66.4797
66.4942
66.509
66.524
66.539
66.5539
66.5688
66.5835
66.598
66.6123
66.6264
66.6401
66.6537
66.667
66.68
66.6928
66.7049
68.6729
68.2816
67.9394
67.6461
67.4003
67.1965
67.0295
66.8945
66.7871
66.7031
66.6391
66.5916
66.5582
66.5363
66.5239
66.5192
66.5205
66.5265
66.5359
66.548
66.5618
66.5771
66.5923
66.6078
66.6237
66.6396
66.6553
66.6707
66.6858
66.7005
66.7147
66.7285
66.7419
66.7548
66.7672
66.7792
66.7908
66.802
66.8128
66.8233
66.8333
68.6768
68.2797
67.9346
67.6409
67.3966
67.1964
67.0348
66.9063
66.8063
66.7301
66.6738
66.6337
66.6067
66.5902
66.5821
66.5806
66.5842
66.592
66.603
66.6167
66.6318
66.6478
66.6636
66.6796
66.6957
66.7115
66.727
66.742
66.7566
66.7706
66.7841
66.7971
66.8096
66.8215
66.8329
66.8438
66.8543
66.8643
66.8739
66.8831
66.8921
68.6756
68.2684
67.9167
67.6189
67.3732
67.174
67.0156
66.8923
66.7989
66.7305
66.6832
66.6532
66.6376
66.6335
66.6386
66.6506
66.6674
66.6873
66.7088
66.731
66.7528
66.7743
66.795
66.8149
66.8341
66.8524
66.8697
66.8861
66.9015
66.9161
66.9297
66.9426
66.9546
66.9659
66.9765
66.9864
66.9958
67.0046
67.0129
67.0206
67.0282
62.3362
66.4094
69.7658
71.7159
72.9005
73.6935
74.1482
74.3557
74.4012
74.3369
74.1998
74.017
73.808
73.5856
73.3588
73.1335
72.914
72.7025
72.5005
72.309
72.1281
71.958
71.7983
71.6488
71.509
71.3785
71.2566
71.1429
71.0368
70.9378
70.8453
70.7587
70.6776
70.6015
70.5299
70.4626
70.3992
70.3395
70.2832
70.2302
70.1802
70.1332
70.089
70.0473
70.0079
69.9708
69.9358
69.9026
69.8712
69.8414
69.8131
69.7861
69.7604
69.7358
69.7123
69.6897
69.668
69.647
69.6268
69.6072
69.5882
69.5697
69.5517
69.5343
69.5172
69.5007
69.4846
69.4694
69.4543
69.4413
69.4268
69.4191
69.4015
69.4098
61.7265
66.1247
69.6244
71.7151
72.9637
73.7656
74.2114
74.4057
74.4377
74.3611
74.2135
74.022
73.8059
73.5781
73.347
73.1186
72.8967
72.6835
72.4804
72.2881
72.1069
71.9367
71.7771
71.6279
71.4885
71.3584
71.2371
71.124
71.0185
70.9201
70.8282
70.7423
70.6619
70.5864
70.5154
70.4487
70.3859
70.3267
70.2709
70.2184
70.1689
70.1224
70.0786
70.0373
69.9984
69.9617
69.927
69.8942
69.8631
69.8336
69.8056
69.7789
69.7535
69.7292
69.7059
69.6836
69.6621
69.6414
69.6214
69.602
69.5832
69.5649
69.5471
69.5298
69.5129
69.4966
69.4807
69.4656
69.4506
69.4377
69.4234
69.4158
69.3983
69.4067
61.2681
65.4341
69.2868
71.6357
72.9955
73.8324
74.2811
74.4645
74.4811
74.3898
74.2294
74.0275
73.8031
73.5688
73.3328
73.1006
72.8761
72.661
72.4567
72.2637
72.0821
71.9118
71.7525
71.6036
71.4647
71.3353
71.2146
71.1023
70.9976
70.9
70.8089
70.7238
70.6441
70.5694
70.4992
70.4331
70.371
70.3124
70.2573
70.2053
70.1564
70.1104
70.0671
70.0263
69.9879
69.9516
69.9174
69.885
69.8543
69.8252
69.7975
69.7712
69.7461
69.7221
69.6991
69.677
69.6558
69.6353
69.6156
69.5964
69.5778
69.5598
69.5422
69.5251
69.5084
69.4922
69.4764
69.4615
69.4467
69.434
69.4198
69.4123
69.395
69.4034
61.0143
64.8315
68.8586
71.4542
72.9685
73.8667
74.3358
74.5207
74.5273
74.4215
74.247
74.0329
73.7989
73.5571
73.3153
73.079
72.8514
72.6342
72.4286
72.2349
72.053
71.8828
71.7238
71.5755
71.4373
71.3086
71.1889
71.0774
70.9737
70.8771
70.787
70.7028
70.624
70.5502
70.4809
70.4157
70.3543
70.2965
70.242
70.1908
70.1425
70.0972
70.0544
70.0142
69.9763
69.9406
69.9068
69.8749
69.8447
69.816
69.7887
69.7628
69.738
69.7143
69.6917
69.6699
69.649
69.6288
69.6093
69.5904
69.5721
69.5543
69.5369
69.52
69.5035
69.4875
69.4719
69.4572
69.4426
69.43
69.416
69.4086
69.3915
69.4
61.0653
64.5874
68.4993
71.1977
72.8663
73.8519
74.3561
74.5522
74.5589
74.4466
74.2615
74.0359
73.7915
73.5414
73.2933
73.0523
72.8214
72.602
72.395
72.2006
72.0187
71.8486
71.6901
71.5426
71.4053
71.2777
71.159
71.0488
70.9462
70.8508
70.7619
70.6789
70.6012
70.5285
70.4602
70.3959
70.3355
70.2786
70.225
70.1745
70.1271
70.0824
70.0404
70.0008
69.9636
69.9284
69.8952
69.8638
69.8341
69.8059
69.7791
69.7536
69.7292
69.706
69.6837
69.6623
69.6417
69.6218
69.6026
69.584
69.5659
69.5483
69.5312
69.5146
69.4983
69.4825
69.4671
69.4526
69.4381
69.4257
69.4119
69.4046
69.3877
69.3963
61.2763
64.6301
68.3133
70.9751
72.7144
73.7762
74.3307
74.548
74.5586
74.4453
74.2575
74.0269
73.7758
73.5187
73.2643
73.0185
72.7843
72.5628
72.3545
72.1596
71.9777
71.8082
71.6505
71.504
71.3679
71.2416
71.1243
71.0155
70.9145
70.8205
70.733
70.6514
70.5751
70.5037
70.4366
70.3736
70.3142
70.2584
70.2058
70.1563
70.1097
70.0659
70.0247
69.9859
69.9494
69.9149
69.8824
69.8516
69.8225
69.7948
69.7686
69.7435
69.7196
69.6968
69.6749
69.6539
69.6337
69.6142
69.5953
69.577
69.5593
69.542
69.5251
69.5087
69.4927
69.4772
69.462
69.4476
69.4334
69.4212
69.4075
69.4004
69.3838
69.3923
61.5571
64.8332
68.2933
70.8683
72.5819
73.6601
74.2532
74.5013
74.5234
74.4099
74.2194
73.9877
73.7367
73.4788
73.2224
72.9738
72.7372
72.514
72.3049
72.1099
71.9284
71.7598
71.6033
71.4582
71.3238
71.1992
71.0838
70.9768
70.8775
70.7854
70.6997
70.6198
70.5452
70.4753
70.4097
70.3481
70.2901
70.2355
70.1841
70.1357
70.0902
70.0474
70.0072
69.9693
69.9336
69.9
69.8682
69.8381
69.8097
69.7827
69.757
69.7325
69.7092
69.6868
69.6654
69.6449
69.6251
69.606
69.5875
69.5695
69.5521
69.5351
69.5186
69.5025
69.4867
69.4715
69.4565
69.4424
69.4284
69.4163
69.4029
69.396
69.3795
69.3882
61.9311
65.0902
68.3409
70.8402
72.5039
73.5506
74.1434
74.4097
74.4485
74.3421
74.15
73.9139
73.6612
73.4053
73.1527
72.9077
72.6733
72.4512
72.2428
72.0487
71.8684
71.7014
71.5467
71.4037
71.2714
71.1491
71.036
70.9313
70.8344
70.7445
70.6609
70.5832
70.5105
70.4426
70.3788
70.3189
70.2625
70.2094
70.1594
70.1123
70.0681
70.0265
69.9874
69.9506
69.9159
69.8832
69.8523
69.8231
69.7954
69.7692
69.7442
69.7204
69.6976
69.6759
69.655
69.635
69.6156
69.597
69.5789
69.5614
69.5444
69.5278
69.5116
69.4958
69.4803
69.4653
69.4507
69.4368
69.423
69.4112
69.398
69.3912
69.3751
69.3838
62.478
65.3768
68.335
70.7818
72.4304
73.4527
74.0276
74.2904
74.3354
74.2376
74.0506
73.814
73.5574
73.2981
73.0457
72.8054
72.5781
72.3632
72.1606
71.9708
71.7939
71.6298
71.4781
71.338
71.2088
71.0895
70.9794
70.8777
70.7836
70.6965
70.6157
70.5405
70.4704
70.4047
70.3431
70.2852
70.2308
70.1795
70.1312
70.0857
70.043
70.0028
69.965
69.9295
69.896
69.8644
69.8346
69.8064
69.7796
69.7542
69.73
69.7069
69.6849
69.6638
69.6436
69.6241
69.6053
69.5872
69.5696
69.5526
69.536
69.5198
69.5039
69.4885
69.4734
69.4587
69.4444
69.4308
69.4173
69.4057
69.3928
69.3862
69.3704
69.3791
63.1845
65.6764
68.2414
70.6039
72.2523
73.2796
73.8741
74.15
74.1995
74.1028
73.9184
73.6853
73.4304
73.1698
72.9141
72.6719
72.4467
72.238
72.0445
71.8645
71.6964
71.5393
71.3932
71.2579
71.133
71.0178
70.9117
70.8139
70.7235
70.64
70.5626
70.4906
70.4234
70.3606
70.3017
70.2463
70.1942
70.145
70.0988
70.0552
70.0143
69.9758
69.9396
69.9056
69.8735
69.8432
69.8146
69.7875
69.7619
69.7374
69.7142
69.692
69.6708
69.6505
69.631
69.6122
69.594
69.5765
69.5595
69.5429
69.5268
69.5111
69.4957
69.4807
69.466
69.4517
69.4377
69.4244
69.4112
69.3998
69.3872
69.3808
69.3653
69.3741
63.8162
65.8781
68.0026
70.2216
71.8791
72.9315
73.5712
73.9058
74.0042
73.9357
73.764
73.5353
73.2808
73.0198
72.7639
72.5209
72.2945
72.0856
71.895
71.7219
71.5638
71.418
71.2826
71.1567
71.0394
70.9306
70.8301
70.7374
70.6519
70.5729
70.4998
70.4318
70.3684
70.3091
70.2534
70.2011
70.1517
70.1052
70.0614
70.0202
69.9814
69.9449
69.9106
69.8784
69.8479
69.8192
69.7921
69.7663
69.7419
69.7187
69.6965
69.6754
69.6551
69.6357
69.617
69.599
69.5816
69.5647
69.5484
69.5324
69.5169
69.5017
69.4868
69.4722
69.4579
69.444
69.4304
69.4175
69.4046
69.3936
69.3813
69.375
69.36
69.3689
64.0343
65.7762
67.5136
69.5041
71.1467
72.2638
72.9887
73.4235
73.6209
73.6372
73.5307
73.346
73.1148
72.8624
72.6071
72.361
72.1309
71.9194
71.7277
71.5557
71.4014
71.2626
71.1374
71.0235
70.9182
70.8203
70.7292
70.6444
70.5656
70.4926
70.425
70.3621
70.3034
70.2485
70.1968
70.1482
70.1022
70.0589
70.0181
69.9796
69.9434
69.9094
69.8773
69.8472
69.8187
69.7919
69.7664
69.7423
69.7194
69.6975
69.6767
69.6567
69.6376
69.6192
69.6015
69.5844
69.5678
69.5518
69.5361
69.5209
69.506
69.4914
69.4771
69.463
69.4492
69.4358
69.4226
69.41
69.3976
69.3868
69.3749
69.3689
69.3543
69.3633
63.7429
65.2729
66.7395
68.4434
69.9712
71.1162
71.9405
72.5166
72.8721
73.0385
73.061
72.9822
72.8345
72.6435
72.4282
72.2027
71.9783
71.7639
71.5654
71.3862
71.2271
71.0872
70.9652
70.8582
70.7632
70.6776
70.5994
70.5268
70.4587
70.3948
70.335
70.2789
70.2262
70.1767
70.1301
70.086
70.0443
70.0048
69.9676
69.9324
69.8994
69.8683
69.839
69.8113
69.7853
69.7606
69.7372
69.715
69.6938
69.6736
69.6543
69.6357
69.6179
69.6008
69.5842
69.5681
69.5526
69.5374
69.5226
69.5082
69.494
69.4801
69.4664
69.453
69.4398
69.4269
69.4142
69.4021
69.39
69.3796
69.3681
69.3624
69.3483
69.3575
63.0267
64.3906
65.6839
67.1286
68.4888
69.6048
70.4864
71.1721
71.6751
72.0097
72.2026
72.2832
72.2764
72.2039
72.0848
71.9355
71.7686
71.5934
71.4164
71.2435
71.0799
70.9302
70.7978
70.6835
70.5866
70.505
70.4359
70.3757
70.3214
70.2711
70.2233
70.1775
70.1333
70.091
70.0508
70.0124
69.976
69.9413
69.9085
69.8775
69.8482
69.8205
69.7945
69.7699
69.7467
69.7246
69.7037
69.6837
69.6647
69.6464
69.6289
69.612
69.5957
69.58
69.5648
69.55
69.5355
69.5215
69.5077
69.4941
69.4808
69.4677
69.4548
69.4421
69.4295
69.4172
69.405
69.3934
69.3819
69.3719
69.3608
69.3554
69.3418
69.3512
62.0133
63.2364
64.4102
65.6644
66.8683
67.9225
68.8173
69.5655
70.1703
70.6364
70.9776
71.2126
71.3593
71.4335
71.4495
71.4196
71.3546
71.264
71.1561
71.0377
70.9142
70.7893
70.6662
70.5487
70.441
70.3466
70.2677
70.2039
70.1532
70.1126
70.0785
70.0474
70.0171
69.9867
69.956
69.9253
69.8953
69.8663
69.8388
69.8127
69.7881
69.7648
69.7428
69.7219
69.7021
69.6832
69.6651
69.6479
69.6313
69.6153
69.5999
69.585
69.5706
69.5566
69.5429
69.5295
69.5165
69.5036
69.491
69.4786
69.4663
69.4541
69.442
69.4301
69.4183
69.4066
69.3951
69.3841
69.3731
69.3636
69.353
69.348
69.335
69.3447
60.8465
61.9511
63.0249
64.1369
65.2117
66.1935
67.0717
67.8463
68.514
69.0731
69.5283
69.8891
70.1667
70.3724
70.5173
70.6119
70.665
70.6842
70.6755
70.6443
70.5954
70.5334
70.4625
70.3861
70.3068
70.2267
70.1482
70.0748
70.01
69.9567
69.9159
69.8859
69.864
69.8469
69.8313
69.8149
69.797
69.7776
69.7575
69.7375
69.7182
69.6998
69.6824
69.6659
69.6502
69.6351
69.6205
69.6065
69.5929
69.5797
69.5668
69.5543
69.542
69.53
69.5181
69.5065
69.495
69.4837
69.4724
69.4612
69.4501
69.439
69.428
69.4169
69.406
69.3951
69.3844
69.374
69.3636
69.3546
69.3446
69.34
69.3277
69.3378
59.6724
60.6682
61.645
62.6373
63.6022
64.5093
65.3511
66.1232
66.8196
67.4358
67.9712
68.4286
68.8126
69.1294
69.386
69.59
69.7489
69.8696
69.9583
70.0201
70.0593
70.0792
70.0826
70.0724
70.0511
70.0213
69.9854
69.9451
69.9015
69.8558
69.8101
69.7675
69.7312
69.7034
69.6842
69.6718
69.6638
69.6575
69.6508
69.6427
69.6332
69.6227
69.6117
69.6007
69.5899
69.5793
69.5689
69.5587
69.5486
69.5387
69.5288
69.519
69.5093
69.4997
69.49
69.4804
69.4708
69.4612
69.4515
69.4418
69.432
69.4222
69.4123
69.4024
69.3925
69.3825
69.3726
69.363
69.3533
69.345
69.3356
69.3315
69.3198
69.3305
58.7143
59.6021
60.4795
61.3613
62.2248
63.0538
63.8424
64.5857
65.2778
65.9135
66.4898
67.006
67.4625
67.8615
68.2062
68.5007
68.7496
68.9579
69.1307
69.2728
69.3885
69.4816
69.5552
69.6117
69.6527
69.68
69.695
69.6993
69.6951
69.6843
69.6687
69.6497
69.6278
69.6044
69.5813
69.5608
69.5454
69.5359
69.5315
69.5306
69.5308
69.5306
69.5289
69.5257
69.5214
69.5163
69.5109
69.5051
69.4991
69.4929
69.4865
69.4798
69.473
69.4661
69.4589
69.4516
69.4441
69.4364
69.4286
69.4205
69.4123
69.4039
69.3953
69.3866
69.3778
69.3689
69.3599
69.3511
69.3422
69.3346
69.3259
69.3224
69.3115
69.3229
58.0892
58.8675
59.6429
60.4193
61.1856
61.9332
62.6573
63.3533
64.016
64.6409
65.2242
65.7634
66.2571
66.7048
67.1071
67.4655
67.7821
68.0597
68.3014
68.5105
68.6903
68.8441
68.975
69.0856
69.1784
69.2553
69.3178
69.3672
69.405
69.4323
69.4508
69.4621
69.4678
69.4692
69.4672
69.4623
69.4549
69.4464
69.4386
69.4335
69.4321
69.4341
69.4382
69.4426
69.446
69.4479
69.4483
69.4476
69.446
69.4438
69.441
69.4378
69.4342
69.4301
69.4256
69.4207
69.4155
69.4099
69.404
69.3978
69.3912
69.3844
69.3772
69.3698
69.3621
69.3543
69.3463
69.3385
69.3305
69.3236
69.3156
69.3128
69.3026
69.3149
57.7912
58.461
59.1336
59.8079
60.4789
61.1421
61.7935
62.4292
63.045
63.637
64.2017
64.736
65.2374
65.7043
66.1356
66.5311
66.8909
67.2163
67.5085
67.7694
68.0011
68.2058
68.3859
68.5435
68.681
68.8005
68.9037
68.9925
69.0683
69.1324
69.1857
69.2292
69.264
69.2913
69.3122
69.328
69.3395
69.3473
69.3518
69.3535
69.3534
69.3533
69.3549
69.359
69.3653
69.3726
69.3795
69.3851
69.389
69.3914
69.3927
69.3931
69.3928
69.3918
69.3901
69.3879
69.3851
69.3817
69.3779
69.3736
69.3688
69.3636
69.3579
69.3519
69.3455
69.3389
69.332
69.3251
69.318
69.3119
69.3047
69.3025
69.2931
69.3066
57.7789
58.3443
58.9163
59.4923
60.0707
60.6486
61.2231
61.7908
62.3486
62.8931
63.4212
63.93
64.4169
64.8796
65.3162
65.7255
66.1066
66.4592
66.7835
67.0799
67.3494
67.5933
67.8128
68.0095
68.1851
68.3413
68.4797
68.602
68.7097
68.8045
68.8877
68.9603
69.0235
69.0778
69.1239
69.1624
69.1941
69.2199
69.2406
69.2571
69.2697
69.2789
69.2851
69.2897
69.2943
69.3002
69.308
69.317
69.3262
69.3342
69.3406
69.3454
69.3488
69.3511
69.3524
69.353
69.3528
69.3518
69.3502
69.3479
69.345
69.3415
69.3374
69.3329
69.3279
69.3225
69.3167
69.3109
69.3047
69.2994
69.2931
69.2917
69.283
69.298
57.994
58.4628
58.9405
59.4248
59.9153
60.4103
60.9073
61.404
61.8978
62.3863
62.8667
63.3365
63.7932
64.2344
64.6581
65.0625
65.4461
65.8078
66.1469
66.4629
66.7559
67.0261
67.274
67.5005
67.7065
67.8931
68.0614
68.2127
68.3485
68.4699
68.5784
68.6753
68.7618
68.8388
68.9073
68.9679
69.0208
69.0665
69.1054
69.138
69.1651
69.1873
69.2055
69.2198
69.2309
69.2394
69.2467
69.2543
69.2631
69.2732
69.2835
69.2931
69.3012
69.3076
69.3124
69.3159
69.3185
69.32
69.3207
69.3206
69.3197
69.318
69.3157
69.3127
69.3092
69.3051
69.3005
69.2958
69.2906
69.2863
69.2807
69.2802
69.2723
69.2891
58.3776
58.7608
59.1534
59.5548
59.9646
60.3817
60.8044
61.2309
61.6595
62.0882
62.515
62.9376
63.354
63.7621
64.1597
64.5451
64.9164
65.2723
65.6114
65.9328
66.2357
66.5197
66.7848
67.0309
67.2584
67.4678
67.6598
67.835
67.9946
68.1393
68.2703
68.3887
68.4955
68.5919
68.6788
68.7572
68.8277
68.891
68.9473
68.997
69.04
69.0769
69.108
69.1342
69.1559
69.1738
69.1883
69.1998
69.2094
69.2184
69.228
69.2385
69.2495
69.26
69.269
69.2763
69.282
69.2863
69.2895
69.2917
69.2929
69.2932
69.2927