/*--------------------------------*- C++ -*----------------------------------*\
| =========                 |                                                 |
| \\      /  F ield         | OpenFOAM: The Open Source CFD Toolbox           |
|  \\    /   O peration     | Version:  5.x                                   |
|   \\  /    A nd           | Web:      www.OpenFOAM.org                      |
|    \\/     M anipulation  |                                                 |
\*---------------------------------------------------------------------------*/
FoamFile
{
    version     2.0;
    format      ascii;
    class       surfaceScalarField;
    location    "550";
    object      phi;
}
// * * * * * * * * * * * * * * * * * * * * * * * * * * * * * * * * * * * * * //

dimensions      [0 3 -1 0 0 0 0];

internalField   nonuniform List<scalar> 
21876
(
0.0302896
-0.0041882
-0.0261008
0.0395658
-0.00927619
0.0396464
-8.06409e-05
0.0400827
-0.00043629
0.038308
0.00177472
0.0354968
0.00281119
0.0324074
0.00308942
0.0293443
0.00306311
0.026375
0.00296928
0.0232225
0.00315252
0.0195713
0.00365122
0.0166983
0.00287302
0.0148983
0.00179991
0.0135686
0.00132994
0.0119764
0.00159264
0.010206
0.00177068
0.00824336
0.00196308
0.00609919
0.00214467
0.00378865
0.0023098
0.00152039
0.00226728
-0.000364227
0.00188395
-0.00148462
0.00111991
-0.00224618
0.000761329
-0.00270062
0.000454097
-0.00295551
0.000254757
-0.00309028
0.000134441
-0.0031698
7.9446e-05
-0.00323953
6.95519e-05
-0.00332515
8.56662e-05
-0.00344291
0.000117755
-0.00360451
0.000161612
-0.00381843
0.000213902
-0.0040791
0.000260626
-0.00435414
0.000274972
-0.00457491
0.000220741
-0.0046181
4.31061e-05
-0.00433634
-0.000281721
-0.00371528
-0.000621115
-0.00314019
-0.000575172
-0.00132518
-0.00181489
-0.00880143
0.00747625
0.036678
-0.0105456
-0.0303206
0.0443521
-0.0169503
0.0464242
-0.00215274
0.0479983
-0.00201041
0.0486528
0.00112024
0.0482436
0.0032204
0.0468572
0.00447575
0.0446391
0.00528128
0.0418275
0.00578089
0.0384331
0.00654686
0.0342672
0.00781712
0.0301826
0.00695758
0.0267221
0.00526045
0.0237887
0.00426355
0.0209925
0.00438913
0.0182573
0.00450658
0.0153982
0.0048234
0.0122914
0.00525291
0.00891795
0.00568275
0.00538673
0.00579678
0.00201124
0.00525802
-0.000135055
0.00326531
-0.0015945
0.00222032
-0.0025342
0.00139346
-0.00311884
0.000839178
-0.00348695
0.000502188
-0.00374931
0.000341641
-0.00397275
0.000292874
-0.00419387
0.000306862
-0.00443295
0.000356896
-0.00469616
0.000424844
-0.0049796
0.000497322
-0.00526364
0.000544588
-0.00550941
0.000520626
-0.00566206
0.000373243
-0.00564393
2.48199e-05
-0.00528918
-0.000636351
-0.00437541
-0.00153466
-0.0027741
-0.00217641
-0.000301745
-0.00428723
-0.0151106
0.00600741
0.0429635
-0.0178624
-0.0356466
0.049773
-0.0237597
0.0539145
-0.00629426
0.0560801
-0.00417604
0.0570028
0.00019761
0.0568658
0.00335737
0.0559421
0.00539941
0.0543706
0.00685278
0.0522295
0.00792197
0.0494617
0.00931466
0.0458474
0.0114314
0.0419175
0.0108875
0.0381553
0.00902263
0.0345533
0.00786568
0.030907
0.00803557
0.0272748
0.00813869
0.0235534
0.00854453
0.0195983
0.00920772
0.0152952
0.0099856
0.0106419
0.0104505
0.00590644
0.00999378
0.00258816
0.00658378
0.000123736
0.00468479
-0.00156078
0.00307788
-0.0026688
0.00194717
-0.00340775
0.00124111
-0.00393245
0.000866424
-0.00433938
0.000699794
-0.0046912
0.000658713
-0.00502556
0.000691246
-0.00536071
0.000760006
-0.00570365
0.000840256
-0.0060477
0.000888642
-0.00636556
0.000838487
-0.00660083
0.000608578
-0.00664703
7.1093e-05
-0.00631211
-0.000971223
-0.00530765
-0.00253917
-0.00334145
-0.00414265
-0.000509014
-0.00711968
-0.0197608
0.00414112
0.0499039
-0.0259783
-0.0417879
0.056632
-0.0304878
0.0618334
-0.0114957
0.0647845
-0.00712713
0.066272
-0.00128982
0.0665333
0.00309604
0.0657952
0.00613757
0.0643194
0.00832853
0.0623047
0.00993669
0.059785
0.0118344
0.0565989
0.0146175
0.0530758
0.0144107
0.0496039
0.0124946
0.0461094
0.0113602
0.0423268
0.0118184
0.0382872
0.0121786
0.0339662
0.0128659
0.0292719
0.0139024
0.0240844
0.015173
0.0183137
0.0162208
0.0120949
0.0162123
0.00730787
0.0113705
0.00338392
0.0086085
0.000515085
0.00594647
-0.00144435
0.00390642
-0.00277169
0.00256828
-0.0036989
0.00179359
-0.00438505
0.00138594
-0.00493346
0.00120716
-0.0054076
0.00116541
-0.00584926
0.00120168
-0.00628679
0.00127777
-0.00673101
0.00133284
-0.00716275
0.00127018
-0.00751906
0.000964884
-0.00767632
0.000228389
-0.00743007
-0.00121733
-0.00645401
-0.00351513
-0.00438938
-0.00620728
-0.00135526
-0.0101538
-0.0233259
0.00220981
0.0575549
-0.0348654
-0.0486679
0.0645739
-0.0375068
0.0706327
-0.0175545
0.0747102
-0.0112046
0.0771393
-0.00371899
0.0781471
0.00208831
0.0778823
0.00640231
0.0765869
0.00962396
0.0745348
0.0119888
0.0718766
0.0144926
0.0686034
0.0178907
0.0650323
0.0179818
0.0615859
0.015941
0.0582368
0.0147093
0.0546734
0.0153819
0.0507739
0.0160782
0.0464401
0.0171995
0.0415247
0.0188175
0.0358568
0.0208409
0.0292516
0.0228262
0.0216693
0.0237948
0.0152647
0.0177753
0.009419
0.0144543
0.00470292
0.0106625
0.0012707
0.00733862
-0.00109312
0.00493211
-0.00272123
0.00342175
-0.00388631
0.00255103
-0.00476547
0.00208634
-0.0054711
0.00187104
-0.00608235
0.00181294
-0.0066583
0.00185371
-0.00723624
0.00191078
-0.00781446
0.00184842
-0.00833415
0.00148463
-0.00866553
0.000559832
-0.00859873
-0.00128413
-0.00779332
-0.00432057
-0.00586558
-0.00813503
-0.00284295
-0.0131765
-0.0261248
-4.39977e-05
0.0660171
-0.0445938
-0.0562886
0.0736231
-0.0451128
0.0805024
-0.0244338
0.0857146
-0.0164169
0.0892365
-0.00724083
0.0912106
0.000114202
0.0917466
0.00586628
0.0909959
0.0103747
0.0892045
0.0137802
0.0865588
0.0171383
0.0831393
0.0213102
0.0792688
0.0218523
0.0754548
0.0197551
0.0718393
0.0183249
0.0682372
0.018984
0.0644872
0.0198283
0.06044
0.0212468
0.0558583
0.0233993
0.0504297
0.0262696
0.0437617
0.0294943
0.0355134
0.0320431
0.0278134
0.0254752
0.0199183
0.0223493
0.012732
0.0178487
0.0069433
0.0131272
0.00270829
0.00916705
-0.000243907
0.00637392
-0.00230982
0.00461693
-0.00380526
0.00358179
-0.00493676
0.00300254
-0.00584663
0.00272281
-0.00664032
0.00264739
-0.0073975
0.00266795
-0.00815512
0.00260603
-0.00888243
0.00221195
-0.00946204
0.00113949
-0.00969114
-0.00105498
-0.00924079
-0.00477089
-0.00772388
-0.00965195
-0.005029
-0.0158713
-0.0282693
-0.00288448
0.0754262
-0.0553378
-0.0646822
0.0839026
-0.0535892
0.0916758
-0.032207
0.0979982
-0.0227392
0.102682
-0.0119246
0.105762
-0.00296592
0.107303
0.0043251
0.107389
0.0102887
0.106198
0.014971
0.103907
0.0194294
0.100619
0.0245984
0.0965993
0.0258722
0.0923721
0.0239824
0.0882358
0.0224613
0.0842065
0.0230133
0.0802148
0.02382
0.0761909
0.0252707
0.0719611
0.027629
0.0671962
0.0310344
0.0613426
0.035348
0.0536776
0.0397082
0.0457583
0.0333945
0.0365631
0.0315445
0.0269326
0.0274792
0.0180373
0.0220225
0.0107706
0.0164338
0.00536929
0.0117753
0.00153758
0.00844865
-0.00118013
0.00629951
-0.00316006
0.00498248
-0.00465891
0.00422165
-0.00585987
0.00384836
-0.00690951
0.00371759
-0.00791219
0.00360873
-0.0088998
0.0031996
-0.00980267
0.00204238
-0.0104594
-0.000398224
-0.0105879
-0.00464243
-0.0098087
-0.0104311
-0.00787991
-0.0178001
-0.0296552
-0.00649403
0.0859456
-0.0673723
-0.073911
0.0955864
-0.06323
0.104409
-0.0410298
0.111857
-0.0301868
0.117732
-0.0177995
0.122006
-0.00724015
0.124684
0.00164671
0.125816
0.00915723
0.125503
0.0152836
0.123898
0.021035
0.1211
0.0273962
0.117282
0.0296904
0.112899
0.0283646
0.108329
0.0270323
0.10376
0.0275814
0.0992448
0.0283357
0.094826
0.0296896
0.0904978
0.0319571
0.0861217
0.0354105
0.0812881
0.0401817
0.0751714
0.045825
0.0684601
0.0401059
0.0597425
0.0402621
0.0491541
0.0380675
0.0376432
0.0335333
0.0266289
0.027448
0.0173204
0.0210837
0.0101903
0.0155788
0.00501432
0.0114755
0.00129144
0.00870535
-0.00143105
0.00694413
-0.00348395
0.00590126
-0.00512019
0.00535383
-0.0065493
0.00503786
-0.00791243
0.00456274
-0.0092385
0.00336847
-0.010462
0.000825296
-0.0114038
-0.0037006
-0.0117232
-0.0101118
-0.0111085
-0.0184148
-0.0299042
-0.0108596
0.0977801
-0.0810657
-0.0840867
0.108915
-0.0743653
0.119013
-0.0511278
0.127672
-0.0388456
0.134765
-0.0248924
0.140263
-0.0127379
0.144153
-0.00224321
0.146461
0.00684863
0.147232
0.0145125
0.146586
0.0216818
0.144608
0.0293738
0.141375
0.0329237
0.137227
0.0325127
0.132539
0.0317205
0.127618
0.0325022
0.122614
0.0333392
0.11765
0.0346534
0.112848
0.03676
0.108279
0.0399795
0.103872
0.0445887
0.0991345
0.0505622
0.0942691
0.0449712
0.0877015
0.0468297
0.0786902
0.0470788
0.0671554
0.0450682
0.0539251
0.0406782
0.0405227
0.0344861
0.0285177
0.0275838
0.01884
0.0211531
0.0115636
0.0159818
0.00623919
0.0122685
0.00233344
0.00980701
-0.000592783
0.00828006
-0.00291537
0.00736045
-0.00495373
0.00660112
-0.00690788
0.00532262
-0.00888252
0.00279993
-0.0108729
-0.00171027
-0.0126444
-0.00834029
-0.013917
-0.0171421
-0.0284051
-0.0154161
0.111188
-0.0968783
-0.0953753
0.124206
-0.0873831
0.135871
-0.0627932
0.145906
-0.0488809
0.154285
-0.0332708
0.161028
-0.019481
0.166158
-0.00737298
0.169696
0.00331006
0.171667
0.0125415
0.172168
0.0211813
0.171269
0.030273
0.168957
0.0352348
0.165445
0.036025
0.161052
0.0361134
0.156135
0.0374197
0.150918
0.0385559
0.145575
0.0399961
0.140288
0.0420477
0.135234
0.0450337
0.130578
0.0492439
0.126269
0.0548714
0.122622
0.0486189
0.118323
0.0511287
0.112374
0.0530278
0.103821
0.0536205
0.0922253
0.0522744
0.0780174
0.048694
0.0625057
0.0430955
0.047429
0.0362298
0.0342713
0.0291395
0.0237519
0.0227879
0.0158033
0.0177557
0.00992868
0.0141546
0.00553045
0.0117587
0.00203019
0.0101014
-0.00105054
0.00840335
-0.00411881
0.0058682
-0.00745318
0.00162409
-0.0110125
-0.004781
-0.0146525
-0.0135021
-0.0244584
-0.0185992
0.126494
-0.115369
-0.108003
0.141859
-0.102748
0.155458
-0.0763926
0.16712
-0.0605433
0.176923
-0.0430736
0.184969
-0.0275272
0.191348
-0.0137521
0.196119
-0.00146044
0.199319
0.00934154
0.20105
0.0194501
0.201382
0.0299412
0.200236
0.0363804
0.197703
0.0385585
0.194019
0.0397969
0.189525
0.0419136
0.184484
0.0435972
0.179109
0.0453714
0.173611
0.0475456
0.168204
0.0504408
0.163122
0.0543254
0.158549
0.0594447
0.1551
0.0520674
0.151873
0.0543556
0.148272
0.0566294
0.143368
0.0585248
0.136105
0.0595371
0.125674
0.0591246
0.111926
0.0568441
0.0955803
0.0525753
0.0780873
0.0466326
0.0611707
0.0397044
0.0462726
0.0326537
0.034161
0.0262662
0.0248433
0.0210764
0.017756
0.0171887
0.0121339
0.0140255
0.00710653
0.0108955
0.00189996
0.00683065
-0.00384581
0.000964767
-0.0102438
-0.00710405
-0.0174404
-0.0172619
0.144105
-0.137211
-0.122263
0.162377
-0.12102
0.178364
-0.0923796
0.191994
-0.074173
0.203446
-0.0545262
0.212918
-0.0369993
0.220585
-0.0214189
0.226583
-0.00745872
0.230986
0.00493843
0.233938
0.0164983
0.235534
0.0283457
0.235668
0.0362465
0.234338
0.0398883
0.231699
0.0424355
0.22803
0.045583
0.22358
0.0480473
0.218582
0.0503689
0.213268
0.0528597
0.20787
0.0558395
0.202626
0.0595688
0.197775
0.0642963
0.194071
0.0557711
0.190875
0.057552
0.188035
0.0594692
0.185152
0.0614075
0.181518
0.0631711
0.176162
0.0644804
0.168082
0.0649246
0.156594
0.0640628
0.141655
0.0615723
0.123974
0.0573855
0.104878
0.0517489
0.0859771
0.0451674
0.0687134
0.0383402
0.0539759
0.0319262
0.0420447
0.0259567
0.0322966
0.0206437
0.023538
0.0155892
0.0147444
0.00975839
0.00512818
0.00251213
-0.00668404
-0.00562816
0.164527
-0.163212
-0.138526
0.186384
-0.142876
0.205317
-0.111313
0.221353
-0.0902094
0.234777
-0.0679498
0.245884
-0.0481065
0.254947
-0.0304822
0.262199
-0.0147102
0.267775
-0.000638161
0.271889
0.0123847
0.274688
0.025547
0.276084
0.0348498
0.276034
0.0399392
0.274633
0.043836
0.272087
0.0481296
0.268593
0.0515413
0.264369
0.054592
0.259648
0.057581
0.25467
0.0608174
0.24968
0.0645588
0.244921
0.0690551
0.241107
0.0595859
0.23775
0.0609091
0.234867
0.0623519
0.232406
0.0638679
0.23018
0.0653976
0.227768
0.0668921
0.224469
0.0682238
0.219368
0.0691638
0.211547
0.0693934
0.200364
0.0685685
0.185689
0.0664235
0.168004
0.0628528
0.148287
0.058057
0.127764
0.0524493
0.107884
0.0458367
0.0895871
0.0389406
0.0729674
0.032209
0.057655
0.0250707
0.0427526
0.0174145
0.00877756
0.027291
0.188386
-0.194346
-0.157251
0.214647
-0.169138
0.237209
-0.133875
0.256204
-0.109204
0.272024
-0.0837698
0.285072
-0.0611544
0.295726
-0.0411362
0.304319
-0.023304
0.311085
-0.00740395
0.316307
0.00716287
0.320211
0.0216433
0.322767
0.0322934
0.323938
0.0387687
0.323805
0.0439689
0.322518
0.0494163
0.320217
0.0538429
0.317077
0.0577315
0.313304
0.0613541
0.309126
0.0649952
0.304787
0.0688984
0.300536
0.0733059
0.296938
0.0631838
0.293697
0.0641495
0.290849
0.0651998
0.288414
0.066303
0.286399
0.0674132
0.284761
0.0685297
0.283339
0.0696458
0.281767
0.0707358
0.279442
0.0717186
0.275579
0.0724312
0.269364
0.0726384
0.26015
0.0720671
0.247605
0.0706023
0.231751
0.0683031
0.213193
0.0643948
0.192722
0.0594115
0.170965
0.0539657
0.14866
0.0473759
0.126015
0.0400593
0.0318045
0.102988
0.216448
-0.231791
-0.179003
0.248109
-0.200799
0.275134
-0.160899
0.297768
-0.131838
0.316526
-0.102528
0.331926
-0.0765544
0.344461
-0.0536715
0.354577
-0.0334197
0.362613
-0.0154401
0.368937
0.000838936
0.373866
0.0167137
0.377456
0.0287043
0.379714
0.0365101
0.38075
0.0429335
0.380695
0.0494708
0.379651
0.0548867
0.377753
0.05963
0.375163
0.063944
0.372076
0.0680822
0.368711
0.0722633
0.365311
0.0767064
0.362207
0.0662874
0.359373
0.0669838
0.356859
0.0677138
0.354688
0.0684736
0.352875
0.0692269
0.351436
0.0699683
0.350392
0.0706903
0.349727
0.0714
0.349338
0.0721081
0.348964
0.0728049
0.348163
0.0734395
0.346333
0.0738968
0.342788
0.0741472
0.336836
0.0742554
0.32801
0.0732205
0.316053
0.0713688
0.300781
0.0692376
0.282428
0.0657292
0.261214
0.0612729
0.0556012
0.237418
0.249652
-0.276971
-0.204472
0.287919
-0.239065
0.32042
-0.193401
0.347531
-0.158949
0.369901
-0.124898
0.388182
-0.094835
0.402994
-0.0684841
0.414906
-0.0453318
0.424376
-0.0249095
0.431872
-0.00665768
0.437806
0.0107805
0.442331
0.0241793
0.445533
0.0333072
0.447576
0.0408906
0.448614
0.0484337
0.448741
0.0547589
0.448073
0.0602986
0.446738
0.065279
0.444891
0.0699293
0.442711
0.0744426
0.440409
0.0790085
0.438001
0.0686953
0.435767
0.0692185
0.433784
0.0696968
0.432097
0.0701607
0.430724
0.0705999
0.42967
0.071022
0.428942
0.0714183
0.428556
0.0717854
0.428537
0.0721277
0.428891
0.0724513
0.42957
0.0727603
0.430429
0.073038
0.431191
0.0733852
0.431432
0.0740141
0.430637
0.0740157
0.428236
0.0737694
0.423599
0.0738745
0.416239
0.0730892
0.405805
0.0717067
0.069606
0.391801
0.289107
-0.331608
-0.234471
0.335446
-0.285404
0.374663
-0.232617
0.407275
-0.19156
0.434093
-0.151716
0.45592
-0.116663
0.473526
-0.08609
0.487616
-0.0594222
0.498781
-0.0360744
0.507605
-0.0154809
0.514596
0.00378931
0.520023
0.0187523
0.524064
0.0292661
0.526955
0.0379992
0.528899
0.0464896
0.530021
0.0536376
0.53044
0.0598797
0.530274
0.0654444
0.529652
0.0705512
0.528717
0.075378
0.527635
0.0800901
0.526045
0.0702855
0.524532
0.0707312
0.52319
0.0710388
0.522084
0.0712667
0.521253
0.071431
0.520714
0.0715613
0.520467
0.0716651
0.520506
0.0717468
0.520824
0.0718092
0.521424
0.0718509
0.522316
0.0718687
0.523505
0.0718494
0.52497
0.0719194
0.52664
0.0723445
0.528366
0.0722893
0.529906
0.0722302
0.530904
0.0728756
0.530923
0.0730705
0.529551
0.0730787
0.073136
0.526021
0.305039
-0.391564
-0.245083
0.355939
-0.336304
0.398907
-0.275586
0.434564
-0.227217
0.463815
-0.180967
0.487552
-0.140399
0.506627
-0.105165
0.521826
-0.0746207
0.533818
-0.0480665
0.543247
-0.0249098
0.550678
-0.00364175
0.556457
0.0129727
0.560839
0.0248845
0.564113
0.034725
0.566524
0.0440785
0.568231
0.0519306
0.569373
0.0587379
0.57007
0.0647473
0.570436
0.0701856
0.570584
0.07523
0.570638
0.0800363
0.569915
0.0710085
0.569202
0.0714437
0.568584
0.0716567
0.568125
0.0717255
0.567871
0.0716853
0.567849
0.0715831
0.568072
0.0714423
0.568537
0.0712813
0.569233
0.0711139
0.570139
0.0709449
0.571235
0.0707726
0.572503
0.0705812
0.57393
0.0704929
0.575501
0.070773
0.577204
0.0705861
0.579006
0.0704286
0.580841
0.0710406
0.582595
0.0713162
0.584149
0.0715251
0.0721062
0.585179
0.317304
-0.456061
-0.252807
0.372095
-0.391095
0.418267
-0.321757
0.456527
-0.265477
0.48786
-0.2123
0.513229
-0.165769
0.533558
-0.125494
0.549696
-0.0907585
0.562378
-0.0607493
0.572297
-0.0348286
0.580062
-0.0114062
0.586076
0.00695812
0.590653
0.0203078
0.594122
0.0312555
0.596763
0.0414377
0.598767
0.0499269
0.600296
0.0572093
0.601482
0.0635607
0.602441
0.0692263
0.603277
0.0743946
0.604089
0.0792243
0.603975
0.0711222
0.603844
0.0715746
0.603767
0.0717337
0.6038
0.0716926
0.603985
0.071501
0.604349
0.0712187
0.60491
0.0708812
0.605674
0.070518
0.606635
0.0701527
0.60778
0.0697995
0.609089
0.0694641
0.610534
0.069136
0.612086
0.0689404
0.613716
0.0691429
0.6154
0.0689022
0.617118
0.0687106
0.618853
0.0693056
0.620594
0.0695759
0.62234
0.0697786
0.0703908
0.624055
0.331937
-0.525506
-0.262491
0.390959
-0.450117
0.440637
-0.371435
0.481762
-0.306603
0.515401
-0.245939
0.542595
-0.192963
0.564341
-0.147239
0.581553
-0.107971
0.595035
-0.074231
0.605526
-0.0453198
0.613681
-0.0195617
0.619959
0.000680484
0.624723
0.015544
0.62834
0.027639
0.631119
0.0386582
0.633284
0.047762
0.63502
0.0554737
0.636476
0.0621045
0.637776
0.0679259
0.639025
0.0731456
0.640315
0.0779346
0.64059
0.0708467
0.640842
0.0713231
0.64113
0.0714451
0.641505
0.0713183
0.642001
0.0710048
0.642645
0.0705747
0.643453
0.0700732
0.644433
0.0695381
0.645585
0.0690009
0.646902
0.0684821
0.648372
0.0679937
0.649978
0.0675302
0.651698
0.067221
0.653506
0.0673347
0.655377
0.0670316
0.657285
0.0668019
0.65921
0.067381
0.661136
0.0676495
0.663062
0.0678525
0.0684635
0.66499
0.348775
-0.600327
-0.273954
0.412389
-0.513731
0.465889
-0.424935
0.510149
-0.350863
0.546323
-0.282113
0.575535
-0.222175
0.598857
-0.170561
0.617278
-0.126391
0.631666
-0.088619
0.642815
-0.0564689
0.651426
-0.0281733
0.65801
-0.00590361
0.662977
0.0105769
0.666728
0.023888
0.669605
0.0357818
0.671858
0.0455088
0.673697
0.0536344
0.675291
0.0605105
0.676776
0.0664407
0.678264
0.071658
0.679847
0.076352
0.680361
0.0703327
0.680855
0.0708283
0.681385
0.0709152
0.681993
0.0707105
0.682711
0.070287
0.683561
0.0697239
0.68456
0.0690746
0.685714
0.0683838
0.687026
0.067689
0.688493
0.0670158
0.690106
0.0663803
0.691856
0.0657806
0.693729
0.065348
0.695711
0.0653526
0.697783
0.0649589
0.69993
0.064655
0.702136
0.0651753
0.704386
0.0653999
0.70667
0.065568
0.0661525
0.708981
0.367756
-0.680982
-0.287101
0.43635
-0.582326
0.494007
-0.482592
0.541687
-0.398543
0.580635
-0.321061
0.612063
-0.253603
0.637127
-0.195625
0.65689
-0.146155
0.672294
-0.104023
0.684188
-0.0683632
0.693325
-0.0373094
0.700264
-0.0128435
0.705463
0.00537858
0.709355
0.0199955
0.712314
0.0328232
0.714618
0.0432042
0.716501
0.0517512
0.718151
0.0588607
0.71972
0.0648725
0.721328
0.0700495
0.723076
0.0746046
0.723719
0.0696891
0.724354
0.0701933
0.725032
0.0702379
0.725791
0.0699513
0.726661
0.0694168
0.727663
0.0687217
0.728811
0.0679267
0.730112
0.0670827
0.731569
0.0662321
0.73318
0.0654048
0.734941
0.0646199
0.736843
0.0638782
0.738879
0.0633119
0.741041
0.0631907
0.743315
0.0626845
0.745692
0.0622781
0.748165
0.0627025
0.750723
0.0628417
0.75336
0.0629313
0.0634444
0.756068
0.388875
-0.767963
-0.301894
0.462871
-0.656322
0.525045
-0.544766
0.576448
-0.449946
0.618424
-0.363037
0.652279
-0.287458
0.679257
-0.222603
0.700504
-0.167402
0.717037
-0.120555
0.729766
-0.0810929
0.739499
-0.0470417
0.746847
-0.020192
0.752312
-8.62762e-05
0.756364
0.0159435
0.759406
0.029781
0.761747
0.0408639
0.763641
0.0498568
0.765297
0.0572044
0.766883
0.0632865
0.768533
0.0683992
0.770356
0.0727825
0.771047
0.0689972
0.771743
0.0694974
0.772494
0.0694877
0.773336
0.0691084
0.7743
0.0684531
0.775405
0.0676173
0.776663
0.0666684
0.778082
0.0656632
0.779666
0.0646484
0.781413
0.0636576
0.78332
0.0627126
0.785382
0.0618164
0.787593
0.0611013
0.789947
0.0608359
0.792435
0.0601974
0.795047
0.0596656
0.797783
0.0599664
0.800634
0.0599909
0.803595
0.0599707
0.0603776
0.806662
0.412176
-0.861805
-0.318334
0.492029
-0.736175
0.559111
-0.611847
0.614565
-0.5054
0.659841
-0.408313
0.696347
-0.323964
0.725424
-0.25168
0.748304
-0.190282
0.766084
-0.138335
0.779744
-0.0947529
0.790147
-0.0574448
0.797961
-0.0280058
0.803732
-0.00585759
0.807968
0.0117078
0.811104
0.0266449
0.813477
0.0384912
0.815366
0.0479679
0.816999
0.0555713
0.818561
0.0617248
0.820199
0.0667604
0.822034
0.0709482
0.822714
0.0683168
0.82341
0.068801
0.824174
0.0687236
0.825045
0.0682376
0.826051
0.0674472
0.827212
0.0664561
0.828542
0.0653389
0.830047
0.0641575
0.831733
0.0629632
0.833597
0.0617929
0.835639
0.0606711
0.837853
0.0596026
0.840234
0.0587196
0.842782
0.0582886
0.845483
0.0574965
0.848331
0.056817
0.851328
0.0569692
0.854465
0.0568541
0.857736
0.0566996
0.0569741
0.86114
0.437737
-0.96309
-0.336452
0.523944
-0.822382
0.596355
-0.684259
0.656215
-0.565259
0.705086
-0.457184
0.744487
-0.363364
0.775859
-0.283053
0.800532
-0.214955
0.819688
-0.157491
0.834379
-0.109444
0.845532
-0.0685978
0.853871
-0.0363448
0.859992
-0.0119785
0.86444
0.00725988
0.867685
0.0233995
0.870094
0.0360827
0.87197
0.0460919
0.873562
0.0539794
0.875072
0.0602149
0.876662
0.0651698
0.878464
0.0691464
0.879088
0.0676924
0.879739
0.0681504
0.88047
0.0679923
0.881324
0.0673844
0.882328
0.0664425
0.883506
0.0652787
0.88487
0.0639749
0.886429
0.0625986
0.888186
0.0612056
0.890143
0.059836
0.892297
0.0585169
0.894645
0.0572552
0.897182
0.0561827
0.899907
0.0555633
0.902808
0.0545953
0.905879
0.0537458
0.909123
0.053725
0.91253
0.0534471
0.916094
0.053136
0.0532551
0.919813
0.465663
-1.07245
-0.356304
0.558765
-0.915483
0.636966
-0.76246
0.701618
-0.629911
0.754405
-0.509972
0.796963
-0.405922
0.830846
-0.316936
0.857484
-0.241593
0.878153
-0.178161
0.893984
-0.125275
0.905972
-0.0805856
0.914901
-0.0452737
0.921418
-0.0184954
0.926109
0.00256838
0.929483
0.0200261
0.931934
0.0336309
0.933795
0.0442315
0.935334
0.0524403
0.936772
0.0587769
0.938287
0.0636547
0.940022
0.067411
0.940556
0.0671589
0.941124
0.0675827
0.941784
0.0673319
0.942581
0.0665872
0.943547
0.0654765
0.944705
0.0641213
0.946069
0.062611
0.947648
0.0610191
0.949448
0.0594059
0.951469
0.0578151
0.953709
0.0562766
0.956165
0.0547994
0.958833
0.0535146
0.961713
0.0526832
0.964792
0.0515169
0.968062
0.0504752
0.971529
0.0502578
0.975181
0.0497952
0.979011
0.0493064
0.049249
0.983017
0.496084
-1.19057
-0.377963
0.596671
-1.01607
0.681165
-0.846954
0.751029
-0.699775
0.808082
-0.567024
0.854084
-0.451924
0.890711
-0.353563
0.919503
-0.270385
0.941836
-0.200493
0.958924
-0.142363
0.971838
-0.0934998
0.981426
-0.0548618
0.98839
-0.0254587
0.993359
-0.0024013
0.996882
0.0165032
0.999387
0.0311257
1.00123
0.0423865
1.00271
0.0509625
1.00406
0.0574269
1.00548
0.0622382
1.00712
0.0657711
1.00753
0.0667465
1.00798
0.0671305
1.00854
0.0667763
1.00924
0.0658805
1.01014
0.0645839
1.01124
0.0630182
1.01257
0.0612808
1.01414
0.0594516
1.01595
0.0575958
1.018
0.0557611
1.0203
0.0539801
1.02283
0.0522643
1.0256
0.0507441
1.02861
0.0496772
1.03184
0.0482902
1.03528
0.0470345
1.03894
0.046598
1.0428
0.0459294
1.04686
0.0452433
0.0449894
1.05112
0.529154
-1.31821
-0.401517
0.637871
-1.12479
0.729206
-0.938289
0.804743
-0.775312
0.866443
-0.628724
0.916204
-0.501685
0.955831
-0.39319
0.986983
-0.301537
1.01114
-0.224652
1.02962
-0.160838
1.04356
-0.10744
1.05388
-0.0651845
1.06134
-0.032923
1.06663
-0.00768675
1.07032
0.0128078
1.07289
0.028556
1.07472
0.040556
1.07613
0.0495538
1.07738
0.0561801
1.07868
0.060942
1.08019
0.0642543
1.08046
0.0664836
1.08076
0.0668246
1.08118
0.0663583
1.08176
0.0652982
1.08255
0.0637994
1.08356
0.0620043
1.08482
0.0600191
1.08634
0.0579308
1.08813
0.0558099
1.09018
0.053708
1.0925
0.0516612
1.09508
0.0496835
1.09792
0.0479049
1.10102
0.046579
1.10436
0.0449494
1.10794
0.0434585
1.11175
0.0427807
1.1158
0.0418858
1.12006
0.0409834
0.0405144
1.12453
0.565047
-1.45618
-0.427073
0.6826
-1.24234
0.781375
-1.03707
0.863089
-0.857026
0.929855
-0.69549
0.983719
-0.555549
1.02663
-0.436097
1.06036
-0.335274
1.08653
-0.250818
1.10653
-0.18084
1.12161
-0.122516
1.13275
-0.0763243
1.14077
-0.0409478
1.14641
-0.0133287
1.15031
0.0089146
1.15295
0.0259096
1.15477
0.0387388
1.1561
0.0482223
1.15723
0.0550528
1.15838
0.0597893
1.15975
0.0628897
1.15983
0.0663992
1.15996
0.0666968
1.16021
0.0661117
1.16063
0.0648757
1.16127
0.0631594
1.16216
0.0611167
1.16331
0.0588637
1.16475
0.0564947
1.16647
0.0540861
1.16848
0.0516942
1.17079
0.0493585
1.17337
0.047096
1.17624
0.0450359
1.17939
0.0434279
1.18281
0.0415342
1.18648
0.0397872
1.19042
0.0388468
1.1946
0.0377058
1.19901
0.0365686
0.0358664
1.20366
0.603958
-1.60539
-0.45475
0.73112
-1.3695
0.837994
-1.14394
0.926437
-0.945468
0.998728
-0.767781
1.05707
-0.613894
1.10357
-0.482593
1.14014
-0.371845
1.16851
-0.279189
1.19019
-0.202524
1.20653
-0.138847
1.21857
-0.0883714
1.22722
-0.0495985
1.23327
-0.0193712
1.23738
0.00479664
1.24012
0.0231742
1.24192
0.0369346
1.24317
0.0469778
1.24416
0.0540635
1.24514
0.0588062
1.24632
0.0617101
1.24619
0.0665252
1.24611
0.0667822
1.24615
0.0660739
1.24637
0.0646522
1.24683
0.0627043
1.24754
0.0603971
1.24855
0.0578569
1.24986
0.0551864
1.25148
0.0524682
1.25341
0.0497637
1.25565
0.0471163
1.2582
0.0445464
1.26105
0.0421824
1.26421
0.0402698
1.26765
0.0380908
1.27137
0.0360673
1.27538
0.0348434
1.27965
0.0334371
1.28417
0.0320473
0.0310942
1.28894
0.646107
-1.76682
-0.484678
0.783723
-1.50712
0.899417
-1.25963
0.995195
-1.04125
1.07352
-0.846102
1.13676
-0.677137
1.18718
-0.533016
1.22686
-0.411524
1.25765
-0.309982
1.28119
-0.226063
1.29891
-0.156566
1.31197
-0.101425
1.32131
-0.0589465
1.32781
-0.0258627
1.33218
0.000424993
1.33502
0.0203367
1.33681
0.0351441
1.33795
0.045833
1.33878
0.0532347
1.33956
0.0580238
1.34052
0.0607542
1.34014
0.0668977
1.33981
0.0671201
1.33959
0.0662871
1.33957
0.0646722
1.3398
0.0624806
1.3403
0.0598932
1.34111
0.0570477
1.34224
0.0540556
1.3437
0.0510067
1.3455
0.0479678
1.34763
0.0449867
1.35009
0.0420874
1.35287
0.0393976
1.35598
0.0371582
1.3594
0.0346732
1.36311
0.0323536
1.36713
0.0308257
1.37143
0.0291354
1.37601
0.0274755
0.0262544
1.38085
0.691733
-1.94154
-0.517006
0.840735
-1.65612
0.96604
-1.38494
1.06982
-1.14503
1.15473
-0.931009
1.22333
-0.745735
1.27805
-0.587742
1.32114
-0.454614
1.3546
-0.343439
1.38018
-0.251646
1.39943
-0.175819
1.4136
-0.115596
1.42373
-0.0690708
1.43072
-0.032856
1.43538
-0.00423155
1.43833
0.0173846
1.4401
0.0333701
1.44113
0.0448037
1.44177
0.0525937
1.44232
0.0574794
1.443
0.0600682
1.44234
0.0675588
1.44171
0.0677568
1.44119
0.0668007
1.44088
0.0649876
1.44082
0.0625422
1.44105
0.0596606
1.4416
0.056493
1.4425
0.0531607
1.44374
0.049761
1.44535
0.0463669
1.4473
0.0430308
1.44961
0.0397807
1.45226
0.0367439
1.45526
0.0341562
1.45859
0.0313454
1.46223
0.0287102
1.4662
0.0268585
1.47047
0.0248659
1.47503
0.022919
0.0214133
1.47987
0.741102
-2.13076
-0.551891
0.902509
-1.81753
1.0383
-1.52073
1.15081
-1.25754
1.24292
-1.02311
1.31738
-0.820195
1.37682
-0.647183
1.42365
-0.501448
1.46004
-0.379827
1.48788
-0.279482
1.50883
-0.196769
1.52424
-0.131005
1.53522
-0.0800584
1.54278
-0.0404089
1.54775
-0.00920656
1.55083
0.0143049
1.55258
0.0316177
1.55348
0.0439101
1.5539
0.0521738
1.55416
0.0572179
1.55452
0.0597074
1.55352
0.068558
1.55253
0.0687462
1.55166
0.0676722
1.55099
0.065659
1.55058
0.0629523
1.55047
0.0597648
1.55071
0.0562602
1.5513
0.0525704
1.55226
0.0488012
1.55359
0.045032
1.5553
0.0413206
1.55738
0.0376994
1.55983
0.0342952
1.56265
0.0313384
1.56581
0.0281825
1.56931
0.0252133
1.57315
0.0230184
1.57731
0.0207058
1.58177
0.0184555
0.0166489
1.58654
0.794504
-2.33575
-0.589508
0.96944
-1.99246
1.11667
-1.66796
1.23873
-1.3796
1.33871
-1.12309
1.41959
-0.901075
1.4842
-0.711798
1.53515
-0.552398
1.57477
-0.419442
1.60509
-0.309806
1.62792
-0.219596
1.6447
-0.147787
1.65665
-0.0920055
1.66482
-0.0485853
1.67015
-0.014536
1.67337
0.0110853
1.6751
0.0298944
1.67583
0.0431773
1.67599
0.0520156
1.67591
0.0572935
1.67588
0.0597382
1.67449
0.0699537
1.67308
0.0701519
1.67178
0.0689698
1.67068
0.0667581
1.66985
0.0637856
1.66933
0.060283
1.66916
0.0564286
1.66937
0.052366
1.66996
0.04821
1.67094
0.0440475
1.67232
0.0399419
1.67409
0.0359303
1.67625
0.0321393
1.67879
0.0287936
1.6817
0.0252741
1.68496
0.0219531
1.68858
0.0193964
1.69254
0.0167468
1.69682
0.0141773
0.0120541
1.70141
0.852256
-2.55797
-0.630042
1.04196
-2.18217
1.20169
-1.82768
1.33418
-1.5121
1.44278
-1.23169
1.5307
-0.988994
1.60099
-0.782093
1.65647
-0.607874
1.69964
-0.462614
1.73271
-0.342877
1.75762
-0.2445
1.77592
-0.166093
1.78893
-0.105019
1.7978
-0.0574551
1.80353
-0.0202588
1.8069
0.00771364
1.80858
0.0282114
1.80912
0.0426367
1.80897
0.0521682
1.80849
0.0577712
1.80799
0.0602403
1.80613
0.0718145
1.80423
0.0720488
1.80243
0.0707735
1.80082
0.0683693
1.79947
0.0651302
1.79845
0.0613064
1.79779
0.057092
1.79751
0.0526436
1.79763
0.0480857
1.79817
0.0435132
1.79911
0.0389959
1.80047
0.0345762
1.80223
0.0303803
1.80439
0.0266268
1.80694
0.0227265
1.80986
0.0190369
1.81315
0.0161005
1.8168
0.0130978
1.82078
0.0101941
0.00773952
1.8251
0.914706
-2.79898
-0.673697
1.12054
-2.388
1.29393
-2.00107
1.43785
-1.65602
1.55589
-1.34973
1.65153
-1.08463
1.72807
-0.85863
1.78853
-0.668333
1.83562
-0.509709
1.87173
-0.378983
1.89893
-0.271703
1.91893
-0.186089
1.93313
-0.119218
1.94277
-0.0670958
1.94893
-0.026417
1.95246
0.00417835
1.95409
0.0265836
1.9544
0.0423267
1.95388
0.0526908
1.95292
0.0587291
1.95185
0.0613089
1.94944
0.074222
1.94696
0.0745255
1.94456
0.0731779
1.94234
0.0705924
1.94038
0.0670902
1.93874
0.0629426
1.93747
0.0583614
1.9366
0.0535168
1.93614
0.0485443
1.93611
0.0435475
1.9365
0.0386029
1.93732
0.033759
1.93855
0.0291416
1.94022
0.024963
1.94228
0.0206658
1.94472
0.0165923
1.94756
0.0132595
1.95077
0.00988854
1.95433
0.00663666
0.00383675
1.95823
0.982235
-3.06052
-0.720689
1.2057
-2.61147
1.39404
-2.18942
1.55047
-1.81245
1.67887
-1.47813
1.783
-1.18876
1.8664
-0.942033
1.93235
-0.734283
1.98378
-0.561134
2.02324
-0.418446
2.05299
-0.301457
2.07486
-0.207961
2.09038