/*--------------------------------*- C++ -*----------------------------------*\
| =========                 |                                                 |
| \\      /  F ield         | OpenFOAM: The Open Source CFD Toolbox           |
|  \\    /   O peration     | Version:  5.x                                   |
|   \\  /    A nd           | Web:      www.OpenFOAM.org                      |
|    \\/     M anipulation  |                                                 |
\*---------------------------------------------------------------------------*/
FoamFile
{
    version     2.0;
    format      ascii;
    class       surfaceScalarField;
    location    "550";
    object      phi;
}
// * * * * * * * * * * * * * * * * * * * * * * * * * * * * * * * * * * * * * //

dimensions      [0 3 -1 0 0 0 0];

internalField   nonuniform List<scalar> 
83317
(
0.00049674
0.000116209
-0.000608517
0.000401853
9.4894e-05
0.000326701
7.51504e-05
0.00029464
3.20611e-05
0.00027701
1.76307e-05
0.000262913
1.40979e-05
0.000252415
1.04986e-05
0.000244567
7.84844e-06
0.000238206
6.3619e-06
0.000232579
5.62654e-06
0.000227608
5.04721e-06
0.000222421
5.11869e-06
0.000218353
4.13031e-06
0.000214313
3.97237e-06
0.000211853
2.51979e-06
0.000210059
1.73514e-06
0.000208221
1.89672e-06
0.000206837
1.32634e-06
0.000204919
1.97937e-06
0.000203375
1.48687e-06
0.000201774
1.59866e-06
0.000200032
1.74142e-06
0.000198755
1.27775e-06
0.000197165
1.58941e-06
0.000195936
1.22919e-06
0.000194728
1.20854e-06
0.000193244
1.48373e-06
0.000192049
1.19538e-06
0.000191062
9.86185e-07
0.000189959
1.10285e-06
0.000188565
1.39462e-06
0.000187296
1.32213e-06
0.000186602
6.50449e-07
0.00018581
8.55984e-07
0.000185062
6.87718e-07
0.000184522
6.04489e-07
0.000183841
6.06733e-07
0.00018365
2.52831e-07
0.000183829
-2.3967e-07
0.000183949
-5.70035e-08
0.000184065
-1.77885e-07
0.000179633
4.48761e-06
0.000175874
3.70127e-06
0.000175434
4.82821e-07
0.000175082
3.09023e-07
0.000175069
7.449e-08
0.000174726
2.83078e-07
0.000174414
3.63799e-07
0.000174156
2.06827e-07
0.00017394
2.71057e-07
0.000173769
1.21409e-07
0.000173644
1.7622e-07
0.000173556
3.20823e-08
0.000173518
1.01941e-07
0.000173159
2.95868e-07
0.000172862
3.39678e-07
0.000173227
-4.08012e-07
0.000173337
-4.34201e-08
0.000173424
-1.52219e-07
0.000173885
-3.82525e-07
0.000174034
-2.2729e-07
0.000173852
2.53189e-07
0.000173883
-1.01624e-07
0.000173885
7.80627e-08
0.00017387
-6.44018e-08
0.000173769
1.95502e-07
0.000173396
2.79316e-07
0.000173331
1.71135e-07
0.000173281
-5.55859e-08
0.000172647
7.60391e-07
0.000171955
5.67587e-07
0.000171563
5.60085e-07
0.000170437
9.58898e-07
0.000168942
1.69402e-06
0.000167765
9.74764e-07
0.000166182
1.88852e-06
0.000163793
2.08235e-06
0.000161199
3.0552e-06
0.000157567
3.19594e-06
0.000156911
1.30071e-06
8.01567e-05
7.62023e-05
-0.000398189
0.000478281
0.000750485
0.000261689
-0.000895929
0.000578126
0.000267256
0.000459038
0.000194237
0.000411547
7.95532e-05
0.000391067
3.81103e-05
0.000376953
2.82123e-05
0.000369358
1.80949e-05
0.000365453
1.17539e-05
0.000363479
8.33593e-06
0.000362724
6.3819e-06
0.000362422
5.38988e-06
0.000362173
5.33098e-06
0.000362343
3.99324e-06
0.0003626
3.6792e-06
0.000364487
6.64365e-07
0.000366177
1.33718e-08
0.000368842
-7.3605e-07
0.000371067
-9.3007e-07
0.000373456
-3.76768e-07
0.000375599
-6.8589e-07
0.000376953
2.42915e-07
0.000378508
1.86513e-07
0.000379129
6.57168e-07
0.000379728
9.8986e-07
0.000379777
1.18004e-06
0.000379349
1.6369e-06
0.000379222
1.61044e-06
0.000378362
2.0552e-06
0.000377264
2.08509e-06
0.000376019
2.34732e-06
0.000374972
2.44188e-06
0.000373718
2.60378e-06
0.000371892
2.45429e-06
0.00037017
2.61235e-06
0.000368359
2.46615e-06
0.000366471
2.52668e-06
0.000364689
2.34924e-06
0.000362663
2.31172e-06
0.000360343
2.04791e-06
0.000358235
2.0844e-06
0.000356147
1.87724e-06
0.000357819
2.84619e-06
0.000360467
1.02158e-06
0.000360739
2.33705e-07
0.000360251
7.74169e-07
0.00035941
9.48755e-07
0.000358797
8.63313e-07
0.000358207
9.82145e-07
0.000357616
7.69655e-07
0.000357052
8.65728e-07
0.000356504
6.42163e-07
0.000355987
7.208e-07
0.000355492
4.9678e-07
0.000355019
6.09472e-07
0.000354813
4.6782e-07
0.000354626
5.49428e-07
0.000353989
2.06229e-07
0.000353609
3.72523e-07
0.000353263
1.58794e-07
0.000352716
2.07071e-07
0.000352415
3.06036e-08
0.000352285
4.22853e-07
0.00035182
3.24763e-07
0.000351301
6.40441e-07
0.000350688
5.05059e-07
0.000350044
8.91484e-07
0.000349487
7.85953e-07
0.000348475
1.24075e-06
0.000347344
1.01667e-06
0.000346371
1.80434e-06
0.000345177
1.69396e-06
0.000343514
2.3158e-06
0.000341929
2.45103e-06
0.000340186
3.54639e-06
0.000337711
3.33892e-06
0.000334906
4.86249e-06
0.000331612
5.2082e-06
0.000327852
7.07298e-06
0.000321851
8.95699e-06
0.000320859
2.65382e-06
0.000173085
0.000223674
-0.000810885
0.000585693
0.000994352
0.000442061
-0.00117478
0.000758616
0.000502995
0.000595709
0.000357143
0.000533259
0.000142004
0.000508559
6.28103e-05
0.000493117
4.36545e-05
0.000486968
2.4244e-05
0.000485655
1.30676e-05
0.000486807
7.18386e-06
0.000489616
3.57317e-06
0.000492757
2.27448e-06
0.000495943
2.12123e-06
0.000499012
9.44898e-07
0.000501643
1.02529e-06
0.00050585
-3.52279e-06
0.000509077
-3.23275e-06
0.000513549
-5.18918e-06
0.000517181
-4.5801e-06
0.000520961
-4.13806e-06
0.000524336
-4.07749e-06
0.000526738
-2.15939e-06
0.000529217
-2.29288e-06
0.000530424
-5.50266e-07
0.000531552
-1.37443e-07
0.00053195
7.81592e-07
0.000531933
1.65403e-06
0.00053184
1.70304e-06
0.000531001
2.89441e-06
0.000530088
2.99865e-06
0.000528735
3.7004e-06
0.000527379
3.7973e-06
0.00052573
4.26864e-06
0.000523787
4.38402e-06
0.000521724
4.69413e-06
0.000519476
4.6965e-06
0.000517101
4.92129e-06
0.00051457
4.85806e-06
0.00051187
5.02981e-06
0.000508875
5.02476e-06
0.000505901
5.07798e-06
0.000502642
5.11693e-06
0.000506005
-4.99419e-07
0.000510695
-3.68534e-06
0.000510927
1.45723e-08
0.000510362
1.32719e-06
0.000509573
1.75504e-06
0.000508826
1.59326e-06
0.000508096
1.72675e-06
0.000507352
1.49868e-06
0.00050663
1.6048e-06
0.000505916
1.34042e-06
0.000505231
1.42171e-06
0.000504565
1.14591e-06
0.000503913
1.2808e-06
0.000503382
9.79497e-07
0.000502864
1.08057e-06
0.000502193
8.63868e-07
0.000501634
9.51671e-07
0.000501107
6.66459e-07
0.000500525
8.13089e-07
0.000500041
4.90604e-07
0.000499575
9.10441e-07
0.000498865
1.01376e-06
0.0004981
1.42993e-06
0.000497195
1.38617e-06
0.000496269
1.84634e-06
0.00049523
1.79637e-06
0.000494028
2.47549e-06
0.000492617
2.39482e-06
0.000491031
3.4292e-06
0.00048943
3.25731e-06
0.000487315
4.48263e-06
0.000484958
4.75577e-06
0.000482474
6.09127e-06
0.000479345
6.40641e-06
0.00047558
8.72124e-06
0.000471038
9.65576e-06
0.000466121
1.21302e-05
0.000458371
1.65747e-05
0.000457174
4.05061e-06
0.000266862
0.00041382
-0.00127188
0.000727769
0.00129026
0.000657596
-0.00150578
0.000985332
0.000807921
0.000768053
0.000574421
0.000685989
0.000224068
0.00065515
9.365e-05
0.000637455
6.13497e-05
0.000631893
2.98061e-05
0.000632384
1.25776e-05
0.000635918
3.64998e-06
0.000641452
-1.96074e-06
0.000647474
-3.72737e-06
0.000653339
-3.76178e-06
0.000658944
-4.64437e-06
0.000663257
-3.30573e-06
0.000668756
-9.00632e-06
0.00067284
-7.33131e-06
0.000678009
-1.03446e-05
0.000682353
-8.93742e-06
0.00068661
-8.38023e-06
0.000690508
-7.98862e-06
0.000693343
-4.99514e-06
0.000696143
-5.0935e-06
0.000697663
-2.07e-06
0.000698953
-1.42703e-06
0.000699527
2.07668e-07
0.000699637
1.54413e-06
0.000699508
1.83132e-06
0.000698652
3.75114e-06
0.000697765
3.88528e-06
0.000696327
5.1383e-06
0.000694751
5.3737e-06
0.000692862
6.1691e-06
0.000690823
6.4142e-06
0.000688566
6.96538e-06
0.000686079
7.17044e-06
0.000683458
7.55603e-06
0.000680552
7.74723e-06
0.000677553
8.04238e-06
0.000674288
8.27537e-06
0.000670941
8.44022e-06
0.000667157
8.88638e-06
0.000670287
-3.61594e-06
0.000675162
-8.57393e-06
0.000675449
-2.62127e-07
0.000674838
1.92873e-06
0.000674066
2.54137e-06
0.000673221
2.42426e-06
0.000672393
2.5662e-06
0.000671549
2.33087e-06
0.000670729
2.43748e-06
0.00066992
2.13819e-06
0.000669142
2.21119e-06
0.000668387
1.88768e-06
0.000667649
2.03411e-06
0.000666935
1.67798e-06
0.000666239
1.78668e-06
0.000665582
1.51108e-06
0.00066495
1.59905e-06
0.000664346
1.25561e-06
0.00066379
1.3878e-06
0.000663237
1.02497e-06
0.000662589
1.5754e-06
0.000661733
1.85242e-06
0.000660805
2.37778e-06
0.000659701
2.47039e-06
0.000658558
3.01329e-06
0.000657171
3.15991e-06
0.00065575
3.92313e-06
0.000654068
4.05038e-06
0.000651969
5.55978e-06
0.000649911
5.28571e-06
0.000647317
7.11793e-06
0.000644209
7.82262e-06
0.0006409
9.44907e-06
0.000636964
1.02928e-05
0.000632135
1.36261e-05
0.000626188
1.55265e-05
0.000619823
1.86138e-05
0.000609897
2.63936e-05
0.000608457
5.65511e-06
0.000388391
0.000633753
-0.00179625
0.000912664
0.00164442
0.000902701
-0.00188959
0.00126204
0.0011903
0.000981056
0.000855408
0.000872921
0.000332203
0.000832876
0.000133695
0.000811221
8.30052e-05
0.000804571
3.64562e-05
0.000805666
1.14825e-05
0.000810791
-1.47464e-06
0.000818488
-9.65845e-06
0.000827199
-1.24257e-05
0.000835704
-1.22778e-05
0.000844161
-1.30915e-05
0.000850726
-9.88189e-06
0.000858044
-1.63147e-05
0.000863569
-1.28654e-05
0.000869905
-1.66719e-05
0.00087542
-1.44612e-05
0.000880621
-1.35719e-05
0.000885478
-1.28547e-05
0.000889073
-8.59012e-06
0.00089255
-8.57058e-06
0.000894657
-4.17704e-06
0.000896373
-3.14296e-06
0.000897326
-7.45531e-07
0.000897657
1.21387e-06
0.000897721
1.76741e-06
0.000896958
4.51393e-06
0.000896108
4.73523e-06
0.000894649
6.59723e-06
0.000892988
7.03503e-06
0.00089098
8.18456e-06
0.000888782
8.60605e-06
0.00088634
9.41719e-06
0.000883621
9.87955e-06
0.000880756
1.04314e-05
0.000877557
1.09346e-05
0.00087426
1.13487e-05
0.000870661
1.18654e-05
0.000866958
1.21528e-05
0.000862746
1.3088e-05
0.000865531
-6.39078e-06
0.000870515
-1.35673e-05
0.000870995
-7.35246e-07
0.00087037
2.54707e-06
0.000869543
3.37773e-06
0.000868615
3.34327e-06
0.000867702
3.48704e-06
0.000866771
3.25347e-06
0.000865865
3.35248e-06
0.000864973
3.02212e-06
0.000864117
3.0753e-06
0.000863287
2.70907e-06
0.000862477
2.85452e-06
0.00086168
2.46445e-06
0.000860908
2.56565e-06
0.000860197
2.21601e-06
0.000859511
2.2954e-06
0.000858849
1.90743e-06
0.000858259
1.9901e-06
0.000857657
1.61429e-06
0.000856923
2.321e-06
0.000855929
2.83445e-06
0.000854834
3.48587e-06
0.000853522
3.76991e-06
0.00085214
4.41047e-06
0.000850457
4.82812e-06
0.000848704
5.69298e-06
0.000846644
6.09381e-06
0.000844046
8.17811e-06
0.000841451
7.86065e-06
0.000838225
1.03713e-05
0.000834319
1.17004e-05
0.000830111
1.36898e-05
0.000825131
1.52401e-05
0.000819034
1.97734e-05
0.000811485
2.30238e-05
0.000803367
2.68075e-05
0.000790734
3.89558e-05
0.000788983
7.51435e-06
0.000546633
0.000876015
-0.00239673
0.00114704
0.0020662
0.00117477
-0.00233827
0.00159397
0.00166254
0.00123704
0.00121233
0.00109695
0.000472293
0.00104504
0.000185602
0.00101826
0.000109787
0.00100999
4.47245e-05
0.00101167
9.80404e-06
0.00101867
-8.47505e-06
0.00102902
-2.00026e-05
0.00104099
-2.43906e-05
0.00105277
-2.40692e-05
0.00106478
-2.50927e-05
0.00107442
-1.95281e-05
0.00108449
-2.63786e-05
0.00109222
-2.05985e-05
0.00110037
-2.48222e-05
0.0011076
-2.16927e-05
0.00111422
-2.01876e-05
0.00112047
-1.91109e-05
0.00112518
-1.33013e-05
0.00112967
-1.306e-05
0.00113264
-7.14459e-06
0.00113502
-5.52569e-06
0.00113656
-2.27964e-06
0.00113726
5.06968e-07
0.00113768
1.3521e-06
0.00113712
5.07601e-06
0.00113639
5.4648e-06
0.00113497
8.01171e-06
0.0011333
8.71163e-06
0.00113122
1.02635e-05
0.00112888
1.0949e-05
0.00112626
1.20397e-05
0.00112332
1.28147e-05
0.00112021
1.35506e-05
0.00111672
1.44073e-05
0.00111312
1.4965e-05
0.00110915
1.58196e-05
0.00110508
1.62328e-05
0.00110043
1.77275e-05
0.00110285
-8.8012e-06
0.00110797
-1.86942e-05
0.00110872
-1.47573e-06
0.00110812
3.14196e-06
0.00110724
4.26591e-06
0.00110624
4.33321e-06
0.00110525
4.48017e-06
0.00110425
4.25403e-06
0.00110327
4.34032e-06
0.0011023
3.98006e-06
0.00110138
4.00668e-06
0.00110048
3.59526e-06
0.00109961
3.73431e-06
0.00109876
3.30426e-06
0.00109794
3.39026e-06
0.00109717
2.98282e-06
0.00109644
3.03309e-06
0.00109574
2.60456e-06
0.00109511
2.62932e-06
0.00109447
2.23957e-06
0.00109368
3.12735e-06
0.00109254
3.95988e-06
0.00109126
4.77401e-06
0.00108972
5.30198e-06
0.00108807
6.07939e-06
0.00108606
6.82093e-06
0.00108391
7.86242e-06
0.00108139
8.59416e-06
0.00107822
1.13652e-05
0.00107498
1.10787e-05
0.00107099
1.43896e-05
0.00106615
1.65142e-05
0.00106087
1.89987e-05
0.00105462
2.14648e-05
0.00104699
2.74465e-05
0.00103752
3.2446e-05
0.00102728
3.71306e-05
0.00101134
5.4823e-05
0.00100918
9.77977e-06
0.000745804
0.00113931
-0.00308658
0.00143558
0.00257059
0.00147094
-0.00286682
0.00199434
0.00223879
0.00154551
0.00166116
0.00136706
0.00065075
0.00130067
0.000251988
0.00126773
0.000142731
0.00125768
5.47676e-05
0.00126022
7.26579e-06
0.00126963
-1.78786e-05
0.00128332
-3.36913e-05
0.00129933
-4.03986e-05
0.00131518
-3.99305e-05
0.00133158
-4.14811e-05
0.00134512
-3.30796e-05
0.00135889
-4.01399e-05
0.00136963
-3.1344e-05
0.00138034
-3.55229e-05
0.00138988
-3.12367e-05
0.00139846
-2.87644e-05
0.00140658
-2.72364e-05
0.00141282
-1.95446e-05
0.0014187
-1.89415e-05
0.00142284
-1.12825e-05
0.00142617
-8.85363e-06
0.00142852
-4.63258e-06
0.0014298
-7.72725e-07
0.00143074
4.16144e-07
0.00143051
5.30406e-06
0.00143001
5.96019e-06
0.00142873
9.29488e-06
0.00142711
1.03377e-05
0.00142502
1.23571e-05
0.00142255
1.34069e-05
0.00141979
1.48066e-05
0.00141663
1.59694e-05
0.00141328
1.69079e-05
0.0014095
1.81788e-05
0.00140558
1.88992e-05
0.00140123
2.01582e-05
0.00139677
2.06954e-05
0.00139166
2.2836e-05
0.0013937
-1.08381e-05
0.00139899
-2.39924e-05
0.00140008
-2.55254e-06
0.00139954
3.66951e-06
0.00139864
5.18033e-06
0.00139759
5.37632e-06
0.00139654
5.52898e-06
0.00139547
5.31867e-06
0.00139443
5.38643e-06
0.00139341
5.0017e-06
0.00139243
4.98901e-06
0.00139148
4.53674e-06
0.00139056
4.65815e-06
0.00138967
4.1886e-06
0.00138882
4.24487e-06
0.001388
3.7999e-06
0.00138725
3.79549e-06
0.00138651
3.33759e-06
0.00138586
3.28436e-06
0.0013852
2.88901e-06
0.00138435
3.98322e-06
0.00138306
5.24244e-06
0.00138159
6.25573e-06
0.00137978
7.10348e-06
0.00137781
8.05859e-06
0.00137542
9.19769e-06
0.0013728
1.04957e-05
0.00136975
1.16366e-05
0.0013659
1.5224e-05
0.0013619
1.50738e-05
0.00135699
1.93164e-05
0.00135102
2.24641e-05
0.00134444
2.55937e-05
0.00133664
2.92443e-05
0.00132717
3.6956e-05
0.00131536
4.42198e-05
0.00130252
5.00157e-05
0.00128257
7.47295e-05
0.00127986
1.25565e-05
0.000991267
0.00142786
-0.00388001
0.00178465
0.00317545
0.00178744
-0.00349194
0.00248049
0.00293375
0.00192053
0.00222112
0.00169568
0.000875597
0.00161146
0.000336206
0.00157101
0.000183186
0.00155893
6.68506e-05
0.0015626
3.58781e-06
0.00157501
-3.02797e-05
0.00159284
-5.15268e-05
0.00161382
-6.13681e-05
0.0016347
-6.08169e-05
0.00165648
-6.32564e-05
0.0016749
-5.15028e-05
0.0016934
-5.86393e-05
0.0017081
-4.6044e-05
0.0017222
-4.9619e-05
0.00173478
-4.38236e-05
0.00174595
-3.99289e-05
0.00175652
-3.78162e-05
0.00176479
-2.78145e-05
0.00177252
-2.66646e-05
0.00177821
-1.69741e-05
0.00178282
-1.34619e-05
0.00178627
-8.09046e-06
0.00178837
-2.86853e-06
0.00179003
-1.24836e-06
0.0017903
5.03367e-06
0.00179019
6.0704e-06
0.00178915
1.03391e-05
0.00178766
1.18277e-05
0.00178562
1.44045e-05
0.0017831
1.59253e-05
0.00178022
1.76864e-05
0.00177687
1.93196e-05
0.00177329
2.04932e-05
0.00176921
2.22465e-05
0.00176496
2.31582e-05
0.00176022
2.4888e-05
0.00175537
2.55575e-05
0.00174976
2.8439e-05
0.00175139
-1.24693e-05
0.00175689
-2.94948e-05
0.00175838
-4.03258e-06
0.00175797
4.06682e-06
0.00175708
6.08396e-06
0.001756
6.44629e-06
0.00175492
6.61228e-06
0.00175381
6.42559e-06
0.00175273
6.475e-06
0.00175166
6.06581e-06
0.00175065
6.00651e-06
0.00174966
5.51163e-06
0.00174872
5.60943e-06
0.0017478
5.10111e-06
0.00174693
5.11609e-06
0.00174609
4.64437e-06
0.00174532
4.56718e-06
0.00174457
4.08307e-06
0.00174392
3.93642e-06
0.00174327
3.53911e-06
0.00174237
4.88615e-06
0.00174092
6.68718e-06
0.00173922
7.95894e-06
0.00173711
9.20679e-06
0.00173478
1.04014e-05
0.00173194
1.20226e-05
0.00172877
1.36831e-05
0.00172508
1.5309e-05
0.00172042
1.99007e-05
0.00171549
1.99967e-05
0.00170947
2.53455e-05
0.00170214
2.97784e-05
0.00169399
3.3769e-05
0.00168431
3.88974e-05
0.00167258
4.87177e-05
0.00165793
5.884e-05
0.00164193
6.60708e-05
0.00161709
9.95224e-05
0.00161363
1.6093e-05
0.00129313
0.00174831
-0.00479223
0.00220529
0.00390201
0.00211943
-0.00423406
0.00307274
0.00376303
0.00237895
0.00291491
0.00209768
0.00115687
0.00199123
0.000442651
0.00194148
0.000232933
0.00192695
8.13856e-05
0.00193204
-1.5003e-06
0.00194811
-4.63565e-05
0.00197104
-7.44526e-05
0.00199808
-8.84106e-05
0.00202513
-8.78646e-05
0.00205351
-9.16348e-05
0.00207795
-7.59455e-05
0.00210242
-8.3104e-05
0.00212218
-6.58113e-05
0.0021407
-6.81355e-05
0.00215722
-6.03426e-05
0.00217175
-5.44597e-05
0.00218549
-5.15564e-05
0.00219639
-3.87189e-05
0.00220651
-3.67819e-05
0.00221423
-2.46955e-05
0.00222053
-1.97614e-05
0.00222546
-1.30176e-05
0.00222867
-6.07817e-06
0.00223133
-3.90678e-06
0.00223231
4.05239e-06
0.00223277
5.6111e-06
0.00223211
1.09972e-05
0.00223087
1.30657e-05
0.00222897
1.63108e-05
0.00222646
1.84345e-05
0.00222353
2.06187e-05
0.00222001
2.28341e-05
0.00221623
2.42762e-05
0.00221187
2.66067e-05
0.00220729
2.7733e-05
0.00220216
3.0014e-05
0.0021969
3.08236e-05
0.00219078
3.45572e-05
0.00219197
-1.36582e-05
0.00219768
-3.52092e-05
0.00219965
-5.99719e-06
0.00219945
4.26085e-06
0.00219862
6.92465e-06
0.00219755
7.5089e-06
0.00219647
7.69632e-06
0.00219534
7.54896e-06
0.00219425
7.57536e-06
0.00219316
7.14691e-06
0.00219214
7.03265e-06
0.00219115
6.49671e-06
0.0021902
6.56024e-06
0.00218928
6.01963e-06
0.00218842
5.97787e-06
0.00218757
5.49247e-06
0.00218683
5.3159e-06
0.00218609
4.8209e-06
0.00218548
4.55023e-06
0.00218484
4.16624e-06
0.00218392
5.81814e-06
0.00218229
8.3063e-06
0.00218035
9.90322e-06
0.0021779
1.16585e-05
0.00217514
1.31643e-05
0.00217178
1.53792e-05
0.00216795
1.75183e-05
0.00216351
1.97376e-05
0.00215787
2.55486e-05
0.00215182
2.60449e-05
0.00214448
3.26947e-05
0.00213549
3.87535e-05
0.00212542
4.38557e-05
0.00211347
5.0837e-05
0.002099
6.32047e-05
0.00208088
7.69392e-05
0.00206102
8.59608e-05
0.00203023
0.000130286
0.00202571
2.06565e-05
0.0016665
0.00210748
-0.00583887
0.00271312
0.00477571
0.00246143
-0.0051177
0.00379521
0.00474354
0.00294103
0.00376909
0.002591
0.0015069
0.00245665
0.000577004
0.00239528
0.000294294
0.00237769
9.89813e-05
0.00238446
-8.27016e-06
0.002405
-6.68932e-05
0.00243412
-0.000103579
0.00246857
-0.000122852
0.00250315
-0.000122446
0.0025396
-0.000128085
0.00257145
-0.000107794
0.00260333
-0.000114988
0.00262951
-9.1989e-05
0.00265369
-9.23186e-05
0.00267525
-8.1899e-05
0.0026941
-7.33081e-05
0.00271188
-6.93424e-05
0.00272617
-5.30102e-05
0.00273937
-4.99829e-05
0.00274971
-3.50359e-05
0.00275822
-2.82722e-05
0.00276507
-1.98668e-05
0.00276978
-1.07815e-05
0.00277377
-7.89724e-06
0.00277573
2.08929e-06
0.002777
4.3429e-06
0.00277692
1.10799e-05
0.00277609
1.38926e-05
0.00277445
1.7954e-05
0.00277205
2.08315e-05
0.00276914
2.3529e-05
0.00276552
2.64521e-05
0.00276159
2.82118e-05
0.00275696
3.12274e-05
0.0027521
3.26033e-05
0.00274659
3.55221e-05
0.00274093
3.64883e-05
0.00273429
4.11909e-05
0.00273498
-1.43479e-05
0.0027409
-4.11317e-05
0.00274344
-8.53096e-06
0.00274354
4.15444e-06
0.00274283
7.63785e-06
0.00274182
8.51137e-06
0.00274078
8.73934e-06
0.00273968
8.646e-06
0.00273861
8.64992e-06
0.00273755
8.20851e-06
0.00273656
8.02808e-06
0.0027356
7.45277e-06
0.00273469
7.47445e-06
0.00273379
6.90877e-06
0.00273298
6.79433e-06
0.00273216
6.30669e-06
0.00273147
6.00849e-06
0.00273078
5.51001e-06
0.00273025
5.08914e-06
0.00272968
4.73034e-06
0.00272874
6.75831e-06
0.00272694
1.01035e-05
0.00272473
1.21169e-05
0.00272188
1.4504e-05
0.00271863
1.64172e-05
0.00271465
1.93559e-05
0.00271005
2.21289e-05
0.00270472
2.50572e-05
0.00269791
3.23707e-05
0.0026905
3.3442e-05
0.00268156
4.16482e-05
0.00267058
4.9727e-05
0.00265817
5.62792e-05
0.00264345
6.55424e-05
0.00262565
8.10259e-05
0.00260331
9.92555e-05
0.00257874
0.000110572
0.00254071
0.000168287
0.00253467
2.67457e-05
0.00213097
0.00251115
-0.00703553
0.00332759
0.00582693
0.00280585
-0.0061714
0.00467687
0.0058936
0.00363143
0.00481453
0.00319772
0.00194061
0.00302815
0.000746574
0.00295215
0.000370297
0.00293066
0.000120474
0.00293937
-1.69797e-05
0.00296527
-9.27932e-05
0.00300191
-0.00014022
0.00304534
-0.000166284
0.00308909
-0.000166197
0.00313539
-0.000174379
0.0031763
-0.000148706
0.00321736
-0.000156048
0.00325156
-0.000126189
0.00328293
-0.000123686
0.00331088
-0.000109849
0.00333524
-9.7667e-05
0.00335816
-9.22638e-05
0.00337677
-7.16268e-05
0.00339391
-6.71219e-05
0.00340761
-4.87378e-05
0.00341898
-3.96406e-05
0.00342833
-2.92135e-05
0.003435
-1.74554e-05
0.00344075
-1.36484e-05
0.00344405
-1.20602e-06
0.00344644
1.95696e-06
0.00344718
1.03389e-05
0.00344697
1.41018e-05
0.00344576
1.91582e-05
0.00344361
2.29819e-05
0.00344084
2.63001e-05
0.0034372
3.00906e-05
0.00343319
3.2226e-05
0.00342835
3.60618e-05
0.00342324
3.7721e-05
0.00341737
4.13861e-05
0.00341134
4.252e-05
0.0034042
4.83272e-05
0.00340435
-1.44867e-05
0.00341045
-4.72347e-05
0.00341364
-1.17233e-05
0.00341416
3.63185e-06
0.00341367
8.13158e-06
0.00341279
9.38635e-06
0.00341186
9.67773e-06
0.00341084
9.66166e-06
0.00340985
9.64247e-06
0.00340886
9.19789e-06
0.00340795
8.93943e-06
0.00340707
8.33087e-06
0.00340625
8.29718e-06
0.00340543
7.72051e-06
0.00340471
7.51418e-06
0.00340398
7.04005e-06
0.0034034
6.58838e-06
0.0034028
6.10734e-06
0.0034024
5.49521e-06
0.00340194
5.18358e-06
0.00340103
7.66992e-06
0.00339905
1.20806e-05
0.00339656
1.4619e-05
0.00339326
1.77992e-05
0.00338944
2.02351e-05
0.00338473
2.40626e-05
0.00337921
2.76526e-05
0.00337282
3.14426e-05
0.00336461
4.05899e-05
0.00335558
4.24693e-05
0.0033447
5.25295e-05
0.0033313
6.31233e-05
0.00331606
7.15272e-05
0.00329797
8.36215e-05
0.00327613
0.000102883
0.00324866
0.000126712
0.00321834
0.000140903
0.00317153
0.000215089
0.00316328
3.50204e-05
0.002711
0.00296341
-0.00839661
0.00407206
0.00709208
0.00314254
-0.00742877
0.00575292
0.00723276
0.0044804
0.00608705
0.00394516
0.00247585
0.00373104
0.000960699
0.00363643
0.000464903
0.00360987
0.000147035
0.00362075
-2.78549e-05
0.00365304
-0.000125085
0.00369873
-0.000185915
0.00375304
-0.000220591
0.00380792
-0.000221072
0.00386618
-0.000232641
0.00391814
-0.000200674
0.00397048
-0.000208383
0.00401465
-0.000170355
0.00405504
-0.00016408
0.00409105
-0.000145863
0.00412239
-0.000128996
0.0041518
-0.000121679
0.0041759
-9.5733e-05
0.00419805
-8.92664e-05
0.00421604
-6.67263e-05
0.00423108
-5.46817e-05
0.00424364
-4.1775e-05
0.00425289
-2.6701e-05
0.00426095
-2.1708e-05
0.00426602
-6.27649e-06
0.00426991
-1.94082e-06
0.0042718
8.45269e-06
0.00427248
1.34186e-05
0.00427194
1.96993e-05
0.00427023
2.46994e-05
0.00426775
2.87758e-05
0.00426421
3.36268e-05
0.00426023
3.62108e-05
0.00425527
4.10239e-05
0.00424997
4.30142e-05
0.00424381
4.75478e-05
0.00423746
4.88696e-05
0.00422987
5.59148e-05
0.00422941
-1.40223e-05
0.00423565
-5.34767e-05
0.00423959
-1.56597e-05
0.00424067
2.54774e-06
0.00424051
8.29237e-06
0.00423986
1.0038e-05
0.00423911
1.04297e-05
0.00423825
1.0515e-05
0.00423742
1.04806e-05
0.00423657
1.00408e-05
0.00423582
9.69513e-06
0.00423509
9.05712e-06
0.00423443
8.95949e-06
0.00423376
8.3857e-06
0.00423321
8.0658e-06
0.00423263
7.62526e-06
0.00423223
6.98642e-06
0.00423179
6.5418e-06
0.00423159
5.70074e-06
0.00423132
5.45413e-06
0.00423049
8.50332e-06
0.00422834
1.42286e-05
0.00422552
1.74354e-05
0.00422172
2.15973e-05
0.00421725
2.47076e-05
0.00421169
2.96184e-05
0.00420509
3.42612e-05
0.00419744
3.90896e-05
0.00418755
5.04871e-05
0.00417656
5.34489e-05
0.00416335
6.57452e-05
0.00414703
7.94361e-05
0.00412836
9.02081e-05
0.00410619
0.000105782
0.00407943
0.000129657
0.00404574
0.000160393
0.00400843
0.000178238
0.00395097
0.00027253
0.00393946
4.65699e-05
0.00343694
0.00346592
-0.00993419
0.00497448
0.0086152
0.00345692
-0.00892962
0.00706653
0.00878144
0.00552521
0.00762837
0.00486729
0.00313377
0.00459671
0.00123128
0.0044783
0.000583316
0.00444505
0.000180286
0.00445823
-4.10415e-05
0.00449807
-0.000164923
0.00455461
-0.000242451
0.00462203
-0.00028801
0.00469034
-0.000289387
0.00476311
-0.000305406
0.0048285
-0.000266064
0.00489462
-0.000274508
0.00495107
-0.000226807
0.00500272
-0.000215725
0.00504883
-0.000191974
0.00508893
-0.000169098
0.00512651
-0.000159258
0.00515754
-0.000126766
0.00518602
-0.00011774
0.00520944
-9.01508e-05
0.00522916
-7.44045e-05
0.00524585
-5.84561e-05
0.00525842
-3.92757e-05
0.00526947
-3.27603e-05
0.00527689
-1.36905e-05
0.0052828
-7.84908e-06
0.00528624
5.00372e-06
0.00528817
1.14888e-05
0.0052886
1.9275e-05
0.00528756
2.57378e-05
0.00528559
3.07448e-05
0.00528233
3.68905e-05
0.00527853
4.00139e-05
0.00527355
4.59966e-05
0.0052682
4.83698e-05
0.00526183
5.39171e-05
0.00525525
5.54425e-05
0.0052473
6.3872e-05
0.0052462
-1.29265e-05
0.00525252
-5.97932e-05
0.00525728
-2.04206e-05
0.00525909
7.35917e-07
0.00525942
7.96603e-06
0.00525911
1.03437e-05
0.00525866
1.08784e-05
0.00525807
1.11061e-05
0.0052575
1.10562e-05
0.00525689
1.06436e-05
0.0052564
1.0193e-05
0.00525591
9.53985e-06
0.00525551
9.36101e-06
0.00525508
8.81381e-06
0.00525479
8.35468e-06
0.00525445
7.97356e-06
0.00525433
7.1053e-06
0.00525414
6.72794e-06
0.00525424
5.6038e-06
0.00525424
5.45444e-06
0.00525356
9.18416e-06
0.00525125
1.65317e-05
0.00524812
2.05737e-05
0.00524375
2.5963e-05
0.00523853
2.99257e-05
0.00523198
3.61678e-05
0.0052241
4.21454e-05
0.00521495
4.82381e-05
0.00520306
6.23778e-05
0.00518973
6.67761e-05
0.00517372
8.17608e-05
0.00515388
9.92712e-05
0.00513106
0.000113033
0.00510394
0.000132898
0.00507122
0.000162379
0.00502998
0.000201631
0.00498417
0.000224052
0.00491388
0.000342822
0.00489752
6.29397e-05
0.00434637
0.00401707
-0.011656
0.00606813
0.0104498
0.00372828
-0.0107212
0.00867074
0.0105605
0.00681184
0.00948727
0.00600644
0.00393916
0.00566433
0.00157338
0.00551527
0.000732382
0.00547307
0.000222485
0.00548855
-5.65282e-05
0.00553721
-0.000213575
0.00560665
-0.000311892
0.00568979
-0.000371152
0.00577427
-0.000373865
0.00586455
-0.000395685
0.00594616
-0.000347681
0.00602908
-0.000357419
0.00610058
-0.000298315
0.00616615
-0.000281291
0.00622482
-0.000250647
0.00627589
-0.000220163
0.00632368
-0.000207046
0.00636341
-0.000166498
0.00639984
-0.000154169
0.00643012
-0.000120432
0.00645578
-0.000100071
0.0064777
-8.03723e-05
0.00649455
-5.61242e-05
0.00650946
-4.76689e-05
0.00651992
-2.41555e-05
0.00652848
-1.64077e-05
0.00653402
-5.32759e-07
0.00653765
7.8541e-06
0.00653943
1.75036e-05
0.00653939
2.57729e-05
0.00653821
3.19277e-05
0.00653545
3.9649e-05
0.00653204
4.34274e-05
0.00652723
5.08032e-05
0.00652197
5.36276e-05
0.00651553
6.03553e-05
0.00650887
6.21077e-05
0.00650068
7.20612e-05
0.00649895
-1.12009e-05
0.00650527
-6.61166e-05
0.00651093
-2.6071e-05
0.00651366
-1.99466e-06
0.00651466
6.96476e-06
0.00651487
1.01342e-05
0.00651487
1.08772e-05
0.00651468
1.12923e-05
0.0065145
1.12353e-05
0.00651427
1.08735e-05
0.00651417
1.0302e-05
0.00651405
9.64994e-06
0.00651404
9.3714e-06
0.00651397
8.88192e-06
0.00651408
8.25169e-06
0.00651409
7.96518e-06
0.00651437
6.81844e-06
0.00651456
6.54462e-06
0.00651508
5.07966e-06
0.00651547
5.06078e-06
0.00651504
9.61845e-06
0.00651262
1.89514e-05
0.00650915
2.40417e-05
0.00650416
3.09521e-05
0.0064981
3.59947e-05
0.00649039
4.38662e-05
0.00648101
5.15308e-05
0.00647009
5.91586e-05
0.00645582
7.66488e-05
0.00643969
8.29063e-05
0.0064203
0.000101153
0.00639623
0.000123334
0.00636841
0.000140864
0.0063353
0.000165996
0.00629538
0.000202311
0.00624501
0.000251996
0.00618889
0.000280194
0.00610315
0.000428551
0.00607962
8.65003e-05
0.00548613
0.00461055
-0.0135627
0.00739283
0.0126612
0.00392642
-0.0128594
0.0106309
0.0125909
0.00839717
0.011721
0.00741546
0.00492088
0.00698286
0.00200598
0.0067941
0.000921144
0.0067398
0.000276787
0.00675732
-7.40523e-05
0.00681613
-0.000272385
0.00690082
-0.000396579
0.00700273
-0.000473067
0.00710656
-0.000477693
0.00721792
-0.000507041
0.00731906
-0.000448827
0.00742232
-0.00046067
0.00751216
-0.000388157
0.00759483
-0.000363963
0.00766902
-0.000324838
0.0077337
-0.00028484
0.00779418
-0.000267531
0.00784477
-0.000217084
0.00789115
-0.000200551
0.00793003
-0.000159315
0.00796318
-0.000133224
0.00799172
-0.00010891
0.00801402
-7.84198e-05
0.00803385
-6.75016e-05
0.00804825
-3.85613e-05
0.00806026
-2.84107e-05
0.00806855
-8.82394e-06
0.00807447
1.9357e-06
0.00807809
1.38852e-05
0.00807947
2.43894e-05
0.00807944
3.19562e-05
0.00807749
4.16002e-05
0.00807475
4.61708e-05
0.00807033
5.52151e-05
0.0080654
5.85606e-05
0.00805909
6.66696e-05
0.00805253
6.8668e-05
0.0080443
8.02862e-05
0.00804201
-8.90595e-06
0.00804827
-7.23754e-05
0.00805485
-3.26563e-05
0.00805871
-5.85325e-06
0.00806063
5.04833e-06
0.00806156
9.2013e-06
0.00806221
1.02266e-05
0.00806261
1.08925e-05
0.00806301
1.08372e-05
0.00806332
1.05587e-05
0.00806378
9.84725e-06
0.00806421
9.22033e-06
0.00806476
8.81776e-06
0.00806521
8.42903e-06
0.00806588
7.5857e-06
0.0080664
7.44293e-06
0.00806726
5.95621e-06
0.00806797
5.83626e-06
0.00806909
3.95855e-06
0.00807004
4.11797e-06
0.00806999
9.66846e-06
0.00806751
2.14299e-05
0.00806373
2.78224e-05
0.00805805
3.66254e-05
0.00805103
4.30201e-05
0.008042
5.28923e-05
0.00803086
6.26695e-05
0.00801785
7.21732e-05
0.00800076
9.37384e-05
0.00798128
0.000102381
0.00795786
0.000124581
0.00792871
0.000152481
0.00789486
0.000174715
0.00785453
0.00020632
0.00780591
0.000250938
0.00774451
0.000313388
0.0076759
0.000348812
0.00757168
0.000532773
0.00753759
0.000120599
0.00691545
0.00523269
-0.0156443
0.00899702
0.0153293
0.00400763
-0.0154105
0.0130277
0.0148925
0.0103518
0.0143969
0.00916049
0.00611219
0.0086137
0.00255276
0.00837331
0.00116154
0.0083025
0.000347593
0.00832136
-9.29175e-05
0.00839169
-0.000342715
0.00849424
-0.000499127
0.00861844
-0.000597261
0.00874531
-0.000604569