/*--------------------------------*- C++ -*----------------------------------*\
| =========                 |                                                 |
| \\      /  F ield         | OpenFOAM: The Open Source CFD Toolbox           |
|  \\    /   O peration     | Version:  5.x                                   |
|   \\  /    A nd           | Web:      www.OpenFOAM.org                      |
|    \\/     M anipulation  |                                                 |
\*---------------------------------------------------------------------------*/
FoamFile
{
    version     2.0;
    format      ascii;
    class       surfaceScalarField;
    location    "550";
    object      phi;
}
// * * * * * * * * * * * * * * * * * * * * * * * * * * * * * * * * * * * * * //

dimensions      [0 3 -1 0 0 0 0];

internalField   nonuniform List<scalar> 
21876
(
0.0202982
-0.00346209
-0.0168369
0.0272315
-0.00693323
0.0278809
-0.00064942
0.0288263
-0.000945377
0.0283342
0.00049204
0.027012
0.00132224
0.0253413
0.00167063
0.0235466
0.00179471
0.02172
0.00182659
0.0197076
0.00201247
0.0173031
0.00240446
0.0154791
0.00182399
0.0144792
0.000999888
0.0138892
0.000590039
0.0131868
0.000702379
0.0124687
0.0007181
0.0117239
0.000744845
0.0109653
0.000758546
0.0101999
0.0007654
0.00942413
0.000775751
0.00863048
0.00079365
0.0079929
0.000637536
0.00734646
0.000646458
0.00668886
0.000657593
0.00601434
0.00067469
0.00531947
0.000694982
0.00460319
0.000716724
0.00386889
0.000734703
0.00310934
0.00075968
0.00232047
0.000789376
0.00151566
0.000804571
0.000746006
0.00076957
5.96188e-05
0.000685993
-0.000519817
0.000579013
-0.000995576
0.000475591
-0.00145928
0.000463433
-0.00211044
0.000651316
-0.00291479
0.000804326
-0.00367664
0.000761362
-0.00273769
-0.000938864
-0.00688006
0.00414228
0.0245215
-0.0083823
-0.0196013
0.0303163
-0.0127281
0.032361
-0.0026941
0.0339155
-0.00249989
0.0346684
-0.000260895
0.0347701
0.00122061
0.0342933
0.00214737
0.0332941
0.00279398
0.0318795
0.0032412
0.0300449
0.00384705
0.0276304
0.00481891
0.0252408
0.0042136
0.0232677
0.00297295
0.0216748
0.00218299
0.02022
0.00215716
0.0189322
0.00200589
0.0177405
0.00193656
0.0165983
0.00190079
0.0154822
0.00188148
0.0143757
0.00188221
0.0132592
0.00191016
0.0123678
0.00152888
0.0114874
0.00152685
0.0106045
0.00154059
0.00970705
0.00157225
0.0087856
0.00161669
0.00782974
0.00167337
0.0068284
0.00173714
0.00578253
0.00180636
0.00470268
0.00186967
0.00360183
0.00190475
0.00249953
0.00187102
0.00143671
0.00174789
0.000480471
0.00153444
-0.00035288
0.00130842
-0.00116767
0.00127783
-0.00203759
0.00152128
-0.0027124
0.0014793
-0.00291484
0.000963793
-0.00213504
-0.00171932
-0.0113909
0.00237548
0.0288043
-0.0139734
-0.0232132
0.0340714
-0.0179952
0.0375117
-0.00613435
0.0396162
-0.00460446
0.040752
-0.00139671
0.0410585
0.000914171
0.040769
0.00243688
0.0400328
0.00353008
0.0389236
0.00435047
0.0374215
0.00534917
0.035384
0.00685639
0.0331988
0.00639877
0.0312
0.00497172
0.0293755
0.0040075
0.0275669
0.0039658
0.0258661
0.0037067
0.0242678
0.00353484
0.0227435
0.00342513
0.0212701
0.00335482
0.0198256
0.00332668
0.0183794
0.00335638
0.0172288
0.0026795
0.0161012
0.00265447
0.014979
0.00266273
0.0138469
0.00270446
0.0126915
0.00277199
0.0114997
0.00286519
0.0102592
0.0029774
0.00896455
0.00310073
0.00761708
0.00321723
0.00622652
0.00329543
0.00481324
0.00328459
0.00341824
0.00314305
0.00210485
0.00284796
0.000919292
0.0024941
-0.000164492
0.00236166
-0.00116935
0.0025262
-0.00190467
0.00221455
-0.00216013
0.0012191
-0.00191228
-0.00196685
-0.0136648
0.000361723
0.0335586
-0.0201398
-0.0273922
0.0388103
-0.0232469
0.0430003
-0.0103243
0.0456907
-0.00729496
0.0473276
-0.00303354
0.0480365
0.0002052
0.0479891
0.0024843
0.0473658
0.00415342
0.0463134
0.00540285
0.04488
0.00678259
0.0429815
0.00875491
0.0409145
0.00846578
0.0390149
0.00687126
0.0372649
0.00575758
0.0354645
0.00576613
0.0336507
0.00552053
0.0318535
0.00533204
0.0300725
0.00520613
0.0283063
0.005121
0.0265489
0.00508404
0.0247781
0.00512723
0.0233612
0.00409642
0.0219704
0.0040452
0.0205874
0.00404585
0.019195
0.00409695
0.0177782
0.00418894
0.0163214
0.00432233
0.0148105
0.00448862
0.0132354
0.00467605
0.0115912
0.00486169
0.00988068
0.00500589
0.00811815
0.00504695
0.00633841
0.00492249
0.00459946
0.00458662
0.00297551
0.00411784
0.001529
0.00380804
0.000279366
0.00377586
-0.000696259
0.00319023
-0.00118921
0.00171208
-0.00153986
-0.00161619
-0.0139004
-0.00130432
0.0388068
-0.0268805
-0.032066
0.0443013
-0.0287415
0.0491171
-0.0151401
0.052616
-0.0107938
0.054973
-0.00539052
0.0562948
-0.00111661
0.0566891
0.00208992
0.0563144
0.00452821
0.0553448
0.00637242
0.0538831
0.0082443
0.0519231
0.0107148
0.0497353
0.0106536
0.0476981
0.0089084
0.0458639
0.00759181
0.0440502
0.00757985
0.0422199
0.00735082
0.0403811
0.00717085
0.0385153
0.0070719
0.0366103
0.00702605
0.0346625
0.00703177
0.0326594
0.00713032
0.0310272
0.00572865
0.0294069
0.00566553
0.0277833
0.00566943
0.0261409
0.0057394
0.0244647
0.00586519
0.0227382
0.00604868
0.0209461
0.00628058
0.0190751
0.00654694
0.0171155
0.00682135
0.0150629
0.00705849
0.0129222
0.00718787
0.0107159
0.00712891
0.00848795
0.00681461
0.0063216
0.00628426
0.00436422
0.00576549
0.00270428
0.0054358
0.0013136
0.00458086
0.000376222
0.00264945
-0.00061786
-0.000621936
-0.0122742
-0.00224393
0.044614
-0.0342639
-0.0372307
0.0505657
-0.0346931
0.0560001
-0.0205745
0.060322
-0.0151157
0.063481
-0.00854953
0.0655483
-0.00318396
0.0665787
0.0010596
0.0666831
0.00442379
0.0660124
0.00704313
0.0646895
0.00956715
0.0627544
0.0126499
0.060437
0.0129711
0.0581446
0.0112008
0.0560377
0.0096987
0.0540232
0.00959428
0.0520434
0.00933062
0.0500984
0.00911587
0.0481592
0.00901114
0.0461878
0.00899745
0.0441588
0.00906081
0.0420484
0.00924066
0.0403
0.00747707
0.0385412
0.00742432
0.0367584
0.00745233
0.0349366
0.0075612
0.0330614
0.00774057
0.0311161
0.0079941
0.0290842
0.00831258
0.0269501
0.00868112
0.0247
0.00907156
0.0223231
0.00943546
0.0198134
0.00969754
0.017178
0.00976429
0.0144389
0.00955363
0.0116633
0.00905979
0.00904807
0.00838063
0.00676752
0.00771633
0.00476272
0.00658565
0.00312274
0.00428944
0.00141615
0.00108474
-0.0091011
-0.00175699
0.0510631
-0.0424288
-0.0428982
0.0576831
-0.0413131
0.063803
-0.0266945
0.0689471
-0.0202597
0.0729661
-0.0125685
0.0758706
-0.00608851
0.0776729
-0.000742743
0.0784398
0.00365689
0.0782793
0.0072037
0.0773145
0.0105319
0.0756072
0.0143572
0.0733251
0.0152532
0.0708549
0.013671
0.0684466
0.012107
0.0661267
0.0119143
0.0638603
0.0115969
0.0616589
0.0113173
0.0595143
0.0111558
0.0573908
0.0111209
0.0552518
0.0111998
0.0530604
0.011432
0.0512512
0.00928628
0.0494345
0.00924102
0.0475896
0.00929724
0.0456962
0.00945465
0.0437353
0.0097016
0.0416865
0.0100428
0.0395296
0.0104695
0.037244
0.0109667
0.0348097
0.0115059
0.0322074
0.0120378
0.029419
0.012486
0.0264337
0.0127497
0.0232477
0.0127396
0.0198916
0.0124159
0.0165549
0.0117173
0.0134667
0.0108046
0.0106168
0.00943548
0.00800706
0.00689921
0.00542658
0.00366528
-0.00467996
0.00100548
0.0582509
-0.0515854
-0.0490944
0.0657625
-0.0488246
0.0726942
-0.0336262
0.0786905
-0.0262559
0.0836018
-0.0174799
0.0874007
-0.00988745
0.0900762
-0.00341822
0.0916503
0.00208284
0.0921869
0.00666708
0.091794
0.0109248
0.0905409
0.0156103
0.0885281
0.0172661
0.0860775
0.0161215
0.0834821
0.0147024
0.0808847
0.0145117
0.0783033
0.0141783
0.0757675
0.0138531
0.0733003
0.013623
0.0708909
0.0135303
0.0685159
0.0135749
0.0661441
0.0138038
0.0642226
0.0112077
0.0623326
0.0111311
0.0604468
0.0111831
0.0585382
0.0113632
0.0565813
0.0116586
0.0545492
0.0120749
0.0524144
0.0126043
0.0501479
0.0132332
0.0477187
0.0139351
0.0450938
0.0146629
0.0422373
0.0153425
0.0391151
0.0158719
0.0356932
0.0161615
0.031954
0.0161552
0.0280261
0.0156451
0.0241152
0.0147155
0.0202713
0.0132793
0.016481
0.0106896
0.0127344
0.00741187
0.00081796
0.00723651
0.0662954
-0.06201
-0.0558707
0.0749504
-0.0574796
0.0828723
-0.0415482
0.0898026
-0.0331862
0.0956432
-0.0233205
0.100371
-0.0146149
0.103975
-0.007023
0.106453
-0.000394473
0.107833
0.0052868
0.108201
0.0105568
0.107621
0.0161904
0.106127
0.0187598
0.103952
0.0182963
0.101383
0.0172718
0.0986474
0.0172473
0.0958319
0.0169937
0.0929932
0.0166918
0.0901832
0.0164331
0.0874224
0.0162911
0.0847108
0.0162865
0.082037
0.0164775
0.0798977
0.0133471
0.0778379
0.0131908
0.0758337
0.0131873
0.0738597
0.0133373
0.0718909
0.0136275
0.0699004
0.0140654
0.067859
0.0146457
0.0657335
0.0153586
0.0634855
0.0161831
0.0610691
0.0170793
0.0584292
0.0179824
0.0555037
0.0187974
0.0522218
0.0194434
0.0485106
0.0198664
0.0444059
0.0197499
0.0400074
0.0191139
0.035344
0.0179427
0.0304088
0.0156248
0.0252792
0.0125415
0.00730849
0.0187887
0.075343
-0.0740457
-0.0633074
0.0854365
-0.067573
0.0945769
-0.0506886
0.102582
-0.0411908
0.109422
-0.0301613
0.115114
-0.0203064
0.119672
-0.0115809
0.123103
-0.00382584
0.125414
0.00297628
0.126678
0.00929194
0.126952
0.015917
0.126208
0.0195041
0.12458
0.0199234
0.122311
0.0195411
0.119664
0.0198947
0.116786
0.0198715
0.113771
0.0197066
0.110699
0.0195052
0.107622
0.0193681
0.104566
0.0193425
0.101543
0.0195008
0.0991152
0.0157746
0.0967987
0.0155074
0.094578
0.015408
0.0924365
0.0154788
0.0903577
0.0157063
0.0883241
0.0160989
0.0863157
0.0166541
0.084308
0.0173663
0.0822695
0.0182216
0.0801575
0.0191913
0.0779139
0.0202261
0.075463
0.0212484
0.0727075
0.0221989
0.0695276
0.0230463
0.0658637
0.0234138
0.0616758
0.0233018
0.0568741
0.0227443
0.0513865
0.0211125
0.0452271
0.0187009
0.0146349
0.0379007
0.0855776
-0.088107
-0.0715163
0.0974613
-0.0794567
0.108104
-0.0613309
0.117385
-0.0504723
0.12535
-0.0381261
0.13207
-0.0270259
0.137606
-0.0171177
0.142007
-0.0082265
0.145277
-0.000293398
0.147503
0.00706534
0.14874
0.0146801
0.148917
0.0193276
0.148078
0.0207625
0.146396
0.0212226
0.14412
0.0221711
0.141426
0.0225656
0.138442
0.0226899
0.135276
0.0226711
0.132011
0.0226335
0.1287
0.0226532
0.125381
0.0228201
0.122672
0.0184833
0.120081
0.0180983
0.117604
0.0178853
0.115233
0.0178494
0.112963
0.0179768
0.110786
0.0182756
0.108696
0.0187438
0.106685
0.0193781
0.104737
0.0201696
0.102829
0.0210987
0.100924
0.0221314
0.0989614
0.0232109
0.0968525
0.0243078
0.0944696
0.0254292
0.0917011
0.0261823
0.0884073
0.0265956
0.084375
0.0267766
0.0794094
0.0260782
0.0733666
0.0247436
0.0220293
0.0659722
0.0972315
-0.104691
-0.0806471
0.111328
-0.0935529
0.12382
-0.0738234
0.134648
-0.0612997
0.143924
-0.047403
0.151786
-0.0348876
0.158356
-0.0236875
0.163734
-0.013605
0.167964
-0.0045232
0.171155
0.00387437
0.173385
0.0124507
0.174564
0.0181478
0.174674
0.0206534
0.173819
0.0220767
0.172198
0.0237925
0.169974
0.0247896
0.167291
0.0253734
0.164273
0.0256892
0.161027
0.0258791
0.157636
0.026044
0.154164
0.0262924
0.151256
0.021391
0.148451
0.0209039
0.145755
0.0205807
0.143173
0.0204314
0.140707
0.0204433
0.138357
0.0206248
0.136128
0.0209731
0.134021
0.0214852
0.132037
0.022154
0.130171
0.0229647
0.128409
0.0238926
0.126724
0.0248966
0.125058
0.0259733
0.123319
0.0271685
0.121407
0.0280944
0.119169
0.0288337
0.116362
0.0295835
0.112721
0.0297187
0.108001
0.0294638
0.0282226
0.101808
0.110598
-0.124396
-0.0908928
0.127416
-0.110371
0.142184
-0.088592
0.1549
-0.0740154
0.165748
-0.0582506
0.17493
-0.0440698
0.182638
-0.0313954
0.189037
-0.0200041
0.194226
-0.00971299
0.198354
-0.000253471
0.201543
0.00926188
0.203719
0.0159716
0.204832
0.0195403
0.204946
0.0219632
0.204197
0.0245416
0.202708
0.0262787
0.200608
0.0274734
0.198021
0.0282757
0.195064
0.0288358
0.191839
0.0292698
0.188432
0.029699
0.18547
0.0243529
0.182572
0.0238019
0.179762
0.0233906
0.177057
0.0231371
0.174466
0.0230341
0.171998
0.0230922
0.169662
0.0233092
0.167466
0.023682
0.165415
0.0242045
0.163515
0.0248643
0.161766
0.025642
0.160158
0.0265049
0.158663
0.0274681
0.157226
0.0286057
0.15579
0.0295302
0.154246
0.0303775
0.15241
0.0314196
0.150054
0.0320745
0.14697
0.0325475
0.0325291
0.142664
0.126043
-0.147941
-0.102499
0.146199
-0.130526
0.163763
-0.106156
0.178794
-0.0890463
0.191549
-0.0710061
0.202303
-0.0548235
0.211318
-0.0404109
0.218833
-0.0275185
0.225012
-0.0158923
0.230062
-0.00530345
0.234155
0.00516874
0.237264
0.0128627
0.239346
0.0174588
0.240451
0.0208577
0.240677
0.0243156
0.240101
0.0268554
0.238818
0.0287563
0.236932
0.0301614
0.23455
0.0312175
0.231776
0.0320443
0.228709
0.032766
0.225888
0.0271732
0.223072
0.0266187
0.220301
0.0261615
0.217607
0.0258306
0.215014
0.0256271
0.212539
0.0255676
0.210194
0.0256536
0.207992
0.0258844
0.205941
0.0262558
0.204047
0.026758
0.202313
0.0273756
0.200736
0.0280822
0.199298
0.028906
0.197962
0.029942
0.196701
0.0307908
0.19545
0.031629
0.194093
0.0327768
0.192491
0.0336764
0.190535
0.0345029
0.0352205
0.187844
0.144026
-0.176195
-0.115772
0.168265
-0.154765
0.189257
-0.127149
0.207129
-0.106918
0.222218
-0.086095
0.234875
-0.0674805
0.245442
-0.0509781
0.254234
-0.03631
0.26149
-0.0231492
0.267485
-0.0112975
0.272445
0.000208014
0.276412
0.00889642
0.279377
0.0144937
0.281411
0.0188238
0.282599
0.0231277
0.28299
0.0264639
0.282651
0.0290954
0.281656
0.0311563
0.280089
0.0327848
0.278038
0.0340956
0.275597
0.0352066
0.273142
0.0296285
0.270613
0.0291469
0.268072
0.0287032
0.265563
0.0283392
0.263124
0.0280664
0.260782
0.0279093
0.25856
0.027876
0.256473
0.0279711
0.254534
0.028195
0.25275
0.0285424
0.251123
0.0290026
0.24965
0.0295546
0.248318
0.0302385
0.247093
0.0311667
0.245963
0.0319211
0.244883
0.0327089
0.243777
0.0338829
0.242576
0.0348774
0.241237
0.035842
0.0368957
0.239561
0.165109
-0.210213
-0.131091
0.194337
-0.183993
0.21953
-0.152341
0.240888
-0.128276
0.258839
-0.104046
0.273823
-0.0824643
0.286268
-0.0634233
0.296574
-0.0466155
0.305064
-0.0316396
0.312081
-0.0183146
0.317924
-0.00563459
0.322701
0.0041194
0.326465
0.0107298
0.329325
0.0159631
0.331385
0.0210676
0.332694
0.0251549
0.333305
0.0284844
0.333273
0.0311886
0.332657
0.0334007
0.331524
0.0352291
0.329949
0.0367815
0.328068
0.0315096
0.326037
0.0311777
0.323927
0.0308132
0.321795
0.0304706
0.319689
0.0301725
0.317647
0.0299522
0.315697
0.0298254
0.313865
0.0298034
0.312167
0.0298931
0.310614
0.0300949
0.309213
0.0304042
0.307961
0.0308057
0.306849
0.0313508
0.305849
0.0321671
0.304954
0.0328155
0.304136
0.0335277
0.303335
0.0346834
0.302521
0.0356917
0.301673
0.0366895
0.037866
0.300703
0.189966
-0.251271
-0.148907
0.225286
-0.219313
0.25562
-0.182676
0.281256
-0.153912
0.302726
-0.125516
0.320569
-0.100308
0.335316
-0.0781696
0.347459
-0.0587591
0.357418
-0.0415982
0.365611
-0.0265079
0.372413
-0.0124364
0.378009
-0.00147663
0.382523
0.00621564
0.38612
0.0123666
0.388939
0.0182481
0.391055
0.0230388
0.392532
0.0270079
0.393421
0.0302993
0.393772
0.0330497
0.393634
0.035367
0.393063
0.0373528
0.391903
0.0326699
0.390534
0.0325463
0.389031
0.0323165
0.387455
0.0320461
0.38586
0.0317677
0.384289
0.0315235
0.382777
0.0313369
0.381355
0.031226
0.380043
0.0312045
0.37886
0.0312788
0.377814
0.0314499
0.376911
0.0317085
0.376146
0.0321156
0.375501
0.0328124
0.374977
0.0333391
0.374557
0.033948
0.374198
0.0350426
0.373887
0.0360024
0.373615
0.0369616
0.0381486
0.373332
0.199166
-0.296255
-0.154183
0.237897
-0.258044
0.271076
-0.215855
0.299053
-0.181889
0.322422
-0.148885
0.341781
-0.119666
0.357714
-0.0941031
0.370771
-0.0718158
0.381425
-0.0522527
0.390138
-0.0352208
0.397321
-0.0196195
0.403219
-0.00737408
0.408008
0.00142622
0.411896
0.00847892
0.415055
0.0150891
0.417589
0.0205042
0.419584
0.0250138
0.421101
0.0287821
0.422192
0.0319587
0.4229
0.0346591
0.423266
0.0369864
0.422878
0.0330574
0.422275
0.0331494
0.421521
0.0330705
0.420673
0.0328945
0.419778
0.0326624
0.418879
0.0324232
0.418009
0.0322069
0.417197
0.0320379
0.416466
0.0319352
0.415834
0.0319105
0.415315
0.0319696
0.414916
0.0321072
0.41464
0.0323919
0.414477
0.0329747
0.414437
0.0333791
0.414513
0.0338727
0.414678
0.0348775
0.414932
0.0357485
0.415272
0.0366213
0.0377503
0.41567
0.205987
-0.34459
-0.157652
0.247627
-0.299684
0.283233
-0.251461
0.31321
-0.211866
0.338201
-0.173876
0.358853
-0.140318
0.375797
-0.111047
0.389627
-0.0856453
0.400862
-0.063488
0.409997
-0.0443552
0.417472
-0.0270944
0.423578
-0.01348
0.428535
-0.0035312
0.43258
0.00443348
0.435914
0.0117553
0.438669
0.0177498
0.44095
0.0227326
0.442838
0.0268935
0.444396
0.0304014
0.445669
0.0333853
0.446699
0.0359564
0.446891
0.0328656
0.446885
0.0331562
0.446735
0.0332202
0.446491
0.0331382
0.446196
0.032958
0.445884
0.0327343
0.445589
0.0325027
0.445334
0.0322924
0.445142
0.0321271
0.44503
0.0320227
0.445011
0.0319886
0.445096
0.0320226
0.445289
0.0321987
0.445588
0.0326753
0.446005
0.0329627
0.446538
0.0333394
0.447174
0.0342413
0.447918
0.0350045
0.448773
0.0357671
0.0368008
0.449722
0.214385
-0.396591
-0.162384
0.259202
-0.344501
0.297476
-0.289735
0.329665
-0.244055
0.356464
-0.200675
0.37857
-0.162425
0.396666
-0.129143
0.411389
-0.100369
0.423307
-0.0754056
0.432947
-0.0539949
0.440781
-0.0349288
0.447141
-0.0198397
0.452286
-0.00867644
0.456479
0.000239971
0.459948
0.0082866
0.46285
0.0148482
0.465312
0.0202698
0.467435
0.0247705
0.469295
0.0285423
0.470948
0.0317324
0.472439
0.0344644
0.473045
0.0322597
0.473476
0.0327252
0.473782
0.0329143
0.474006
0.0329144
0.474184
0.0327795
0.474349
0.0325693
0.474528
0.0323239
0.474744
0.032077
0.475015
0.031856
0.475357
0.0316802
0.475784
0.031562
0.476305
0.0315017
0.476926
0.0315772
0.47765
0.0319518
0.478485
0.0321269
0.479436
0.0323885
0.480495
0.0331823
0.481669
0.0338308
0.482961
0.0344745
0.0353966
0.484366
0.224239
-0.452588
-0.168242
0.272516
-0.392778
0.313708
-0.330927
0.348326
-0.278672
0.37712
-0.229469
0.400842
-0.186147
0.420227
-0.148528
0.435962
-0.116104
0.448662
-0.0881052
0.458891
-0.0642242
0.467155
-0.0431929
0.473823
-0.0265077
0.479191
-0.0140447
0.483549
-0.00411726
0.487146
0.00468962
0.490165
0.0118292
0.492755
0.0176794
0.495034
0.0224912
0.497094
0.0264823
0.499005
0.0298212
0.500822
0.0326479
0.501723
0.0313583
0.502475
0.0319732
0.503124
0.032266
0.503707
0.0323307
0.50426
0.0322272
0.504809
0.0320201
0.505379
0.031754
0.505989
0.0314663
0.506658
0.0311878
0.507397
0.0309407
0.508219
0.0307398
0.509134
0.0305874
0.510147
0.0305643
0.511261
0.0308373
0.512486
0.0309022
0.513824
0.03105
0.515274
0.0317328
0.51684
0.0322645
0.518527
0.0327871
0.0335915
0.520333
0.235492
-0.512933
-0.175146
0.287532
-0.444819
0.331908
-0.375303
0.369183
-0.315947
0.400168
-0.260454
0.425673
-0.211652
0.446488
-0.169344
0.463355
-0.13297
0.476937
-0.101687
0.48784
-0.0751272
0.496605
-0.0519579
0.503638
-0.0335412
0.509271
-0.0196777
0.513819
-0.00866496
0.517555
0.000953609
0.520685
0.00869885
0.52338
0.0149853
0.525773
0.0200977
0.527973
0.024282
0.530065
0.0277299
0.532112
0.0306002
0.533224
0.0302467
0.534209
0.030988
0.535112
0.0313628
0.535971
0.0314723
0.536815
0.0313829
0.537671
0.031164
0.538561
0.0308647
0.539501
0.030526
0.540507
0.0301818
0.541591
0.029857
0.542762
0.0295686
0.544028
0.0293207
0.545397
0.0291959
0.54687
0.0293637
0.548455
0.0293173
0.550155
0.0293502
0.55197
0.0299184
0.553903
0.0303313
0.555958
0.030732
0.0314158
0.558134
0.248129
-0.578006
-0.183056
0.30426
-0.50095
0.352104
-0.423148
0.392281
-0.356123
0.425664
-0.293837
0.453127
-0.239115
0.47552
-0.191737
0.493642
-0.151091
0.508209
-0.116255
0.519872
-0.0867901
0.52921
-0.0612958
0.536668
-0.0409992
0.542611
-0.0256209
0.547381
-0.0134353
0.551277
-0.00294179
0.554526
0.00545
0.557317
0.0121939
0.559804
0.0176105
0.56211
0.021976
0.564333
0.0255074
0.566549
0.028384
0.56781
0.0289858
0.568964
0.0298343
0.570055
0.0302717
0.57112
0.0304069
0.57219
0.0303134
0.573288
0.030066
0.574434
0.0297181
0.575645
0.0293147
0.576935
0.0288927
0.578312
0.0284797
0.579786
0.0280947
0.581363
0.0277434
0.583049
0.0275102
0.584847
0.0275655
0.586761
0.0274031
0.588794
0.0273174
0.590947
0.0277657
0.593221
0.0280565
0.59562
0.0283332
0.0288935
0.598143
0.262169
-0.648217
-0.191958
0.322745
-0.561526
0.374366
-0.474768
0.417706
-0.399464
0.453709
-0.329841
0.483317
-0.268722
0.507445
-0.215865
0.526951
-0.170598
0.542612
-0.131915
0.555124
-0.0993021
0.565109
-0.0712807
0.573052
-0.0489419
0.579353
-0.0319217
0.584381
-0.0184639
0.588461
-0.00702141
0.591842
0.00206881
0.594734
0.009302
0.597307
0.0150375
0.599699
0.0195836
0.602022
0.0231843
0.604365
0.0260412
0.605732
0.0276185
0.607007
0.0285597
0.608235
0.0290434
0.609455
0.0291874
0.610696
0.0290727
0.611982
0.0287799
0.613332
0.0283674
0.614763
0.0278841
0.616285
0.0273703
0.617909
0.0268562
0.619641
0.0263628
0.621487
0.0258978
0.62345
0.0255464
0.625536
0.0254797
0.627745
0.0251942
0.630079
0.0249839
0.632539
0.0253048
0.635128
0.0254684
0.637844
0.0256173
0.0260496
0.640687
0.277653
-0.724011
-0.201858
0.343061
-0.626934
0.39879
-0.530497
0.445578
-0.446252
0.484442
-0.368704
0.516395
-0.300675
0.542425
-0.241896
0.563456
-0.191629
0.580325
-0.148784
0.593781
-0.112757
0.60449
-0.0819901
0.61298
-0.0574321
0.619688
-0.0386296
0.625013
-0.0237884
0.629304
-0.0113125
0.632835
-0.00146239
0.635836
0.00630148
0.638493
0.0123799
0.640962
0.0171152
0.643366
0.0207803
0.645806
0.0236008
0.647248
0.0261762
0.648608
0.0272001
0.649934
0.0277173
0.651266
0.0278556
0.652634
0.0277044
0.654063
0.0273504
0.655573
0.0268576
0.657178
0.0262791
0.65889
0.0256589
0.660716
0.0250297
0.662664
0.0244151
0.664737
0.0238244
0.66694
0.0233437
0.669276
0.0231438
0.671744
0.0227265
0.674344
0.0223835
0.67708
0.0225685
0.679951
0.022598
0.682954
0.0226137
0.0229125
0.686091
0.294642
-0.805874
-0.21278
0.365302
-0.697594
0.425503
-0.590699
0.476048
-0.496796
0.518032
-0.410688
0.552549
-0.335192
0.580662
-0.270009
0.603368
-0.214335
0.621568
-0.166984
0.636067
-0.127257
0.647583
-0.0935061
0.656687
-0.066536
0.663853
-0.0457965
0.669514
-0.0294487
0.674045
-0.0158442
0.677746
-0.00516345
0.680867
0.00318143
0.683611
0.009635
0.68615
0.0145763
0.688621
0.0183092
0.691138
0.0210847
0.692631
0.0246831
0.694047
0.0257837
0.695439
0.0263254
0.696848
0.0264463
0.698308
0.0262451
0.699842
0.0258158
0.701472
0.025228
0.703211
0.0245396
0.705072
0.0237984
0.707061
0.0230402
0.709185
0.0222909
0.711448
0.0215619
0.713852
0.0209399
0.7164
0.020595
0.719091
0.0200359
0.721923
0.0195514
0.724901
0.0195906
0.728021
0.0194781
0.731281
0.019354
0.0195126
0.734681
0.313216
-0.894333
-0.224757
0.389586
-0.773964
0.454654
-0.655766
0.509291
-0.551433
0.554679
-0.456077
0.591997
-0.37251
0.622392
-0.300403
0.646934
-0.238877
0.666598
-0.186648
0.682249
-0.142908
0.694659
-0.105916
0.704447
-0.0763235
0.712128
-0.0534771
0.718165
-0.0354865
0.722968
-0.0206472
0.72686
-0.0090553
0.730112
-7.0229e-05
0.732948
0.00679883
0.735554
0.0119706
0.738081
0.0157817
0.740655
0.0185109
0.742179
0.0231592
0.743628
0.0243349
0.745058
0.024895
0.746515
0.0249897
0.748032
0.0247276
0.749638
0.0242104
0.751351
0.0235142
0.753189
0.0227022
0.755161
0.0218262
0.757276
0.0209252
0.759539
0.0200279
0.761953
0.0191479
0.764521
0.0183723
0.767245
0.0178702
0.770123
0.0171587
0.773151
0.016523
0.776336
0.0164061
0.779671
0.016143
0.783153
0.0158715
0.0158823
0.786783
0.333466
-0.989965
-0.237834
0.416049
-0.856547
0.486416
-0.726133
0.545513
-0.61053
0.594615
-0.505179
0.634994
-0.412888
0.667883
-0.333293
0.69444
-0.265433
0.715712
-0.20792
0.732633
-0.159829
0.746033
-0.119316
0.756579
-0.08687
0.764832
-0.0617299
0.771292
-0.0419462
0.776398
-0.0257538
0.780503
-0.0131597
0.783899
-0.00346627
0.78683
0.003867
0.7895
0.00930115
0.792073
0.0132084
0.794688
0.0158966
0.796224
0.0216232
0.797682
0.022876
0.799125
0.0234519
0.800601
0.0235143
0.802146
0.0231826
0.803789
0.0225669
0.805553
0.0217505
0.807453
0.0208023
0.809501
0.0197784
0.811704
0.0187216
0.814069
0.0176634
0.816597
0.0166198
0.819291
0.0156785
0.822154
0.015007
0.82518
0.0141323
0.828368
0.0133352
0.831723
0.0130517
0.835237
0.0126287
0.838907
0.0122017
0.0120565
0.842733
0.355503
-1.0934
-0.252065
0.444847
-0.94589
0.520985
-0.802272
0.584945
-0.67449
0.638101
-0.558335
0.681823
-0.456611
0.717444
-0.368914
0.746208
-0.294198
0.769248
-0.23096
0.787566
-0.178148
0.802058
-0.133807
0.813445
-0.0982569
0.822332
-0.0706178
0.829261
-0.0488748
0.834705
-0.031198
0.839045
-0.017499
0.842598
-0.00701934
0.845629
0.000835787
0.848358
0.00657224
0.850966
0.0106005
0.853602
0.0132603
0.855131
0.0200939
0.856578
0.0214297
0.858007
0.0220222
0.859473
0.0220488
0.861014
0.021641
0.862663
0.0209182
0.864442
0.0199715
0.866369
0.0188758
0.868455
0.0176921
0.870709
0.0164673
0.873137
0.0152359
0.87574
0.0140167
0.878521
0.0128977
0.881483
0.0120447
0.884619
0.0109961
0.887927
0.0100275
0.891412
0.00956654
0.895067
0.0089742
0.898885
0.00838307
0.00807348
0.902868
0.379448
-1.20534
-0.267513
0.476155
-1.0426
0.558584
-0.884701
0.627847
-0.743754
0.685429
-0.615918
0.732807
-0.503989
0.771418
-0.407524
0.802602
-0.325382
0.827583
-0.25594
0.847439
-0.198005
0.863135
-0.149502
0.875451
-0.110573
0.885041
-0.0802087
0.89249
-0.056323
0.898307
-0.0370155
0.902905
-0.0220966
0.906627
-0.0107415
0.90976
-0.00229747
0.912542
0.00378985
0.915171
0.00797214
0.917808
0.0106229
0.91931
0.0185921
0.920719
0.0200205
0.922108
0.0206335
0.923533
0.0206239
0.925038
0.020136
0.926656
0.0192996
0.928414
0.018214
0.930329
0.0169609
0.932414
0.0156068
0.934679
0.0142027
0.937128
0.0127867
0.939764
0.0113804
0.94259
0.0100722
0.945608
0.00902614
0.948811
0.00779299
0.952196
0.00664278
0.955769
0.00599379
0.95952
0.00522256
0.963445
0.00445865
0.00397603
0.967542
0.40544
-1.32653
-0.284249
0.51017
-1.14733
0.599459
-0.973989
0.674511
-0.818806
0.736929
-0.678335
0.788305
-0.555365
0.830189
-0.449408
0.864029
-0.359222
0.89114
-0.283051
0.91269
-0.219554
0.929712
-0.166525
0.943053
-0.123914
0.953421
-0.0905764
0.961443
-0.064345
0.967672
-0.0432444
0.972552
-0.0269762
0.976455
-0.0146444
0.979691
-0.00553365
0.982518
0.00096276
0.98515
0.00534054
0.987762
0.00801004
0.989213
0.0171412
0.990558
0.0186761
0.991874
0.0193171
0.993224
0.0192737
0.994656
0.0187045
0.996205
0.01775
0.9979
0.0165189
0.999761
0.0151002
1.0018
0.0135662
1.00403
0.0119727
1.00646
0.0103615
1.00908
0.00875744
1.0119
0.0072494
1.01493
0.00599903
1.01815
0.00457119
1.02156
0.00322957
1.02518
0.00238206
1.02898
0.00142255
1.03296
0.000477232
-0.000187076
1.03712
0.433632
-1.45781
-0.302352
0.547112
-1.26081
0.643886
-1.07076
0.72526
-0.900181
0.792964
-0.746038
0.848716
-0.611117
0.894188
-0.49488
0.93094
-0.395974
0.960394
-0.312505
0.983805
-0.242966
1.00229
-0.185011
1.01676
-0.138386
1.02799
-0.101802
1.03664
-0.073
1.04332
-0.0499251
1.04851
-0.0321624
1.05261
-0.0187387
1.05594
-0.00887129
1.0588
-0.00189687
1.06142
0.0027277
1.06397
0.0054525
1.06535
0.0157691
1.06659
0.0174289
1.0678
0.0181091
1.06904
0.0180377
1.07035
0.0173883
1.07179
0.0163138
1.07337
0.0149327
1.07513
0.0133418
1.07708
0.0116201
1.07922
0.00982835
1.08157
0.00801253
1.08413
0.00620094
1.0869
0.00448299
1.08988
0.0030179
1.09306
0.00138573
1.09645
-0.000156646
1.10004
-0.00121273
1.10384
-0.00236964
1.10782
-0.00350477
-0.00435922
1.11199
0.464194
-1.60009
-0.321909
0.587222
-1.38383
0.69217
-1.17571
0.780454
-0.988465
0.853941
-0.819525
0.914485
-0.671662
0.963891
-0.544286
1.00384
-0.435925
1.03587
-0.344534
1.06133
-0.268428
1.08143
-0.205109
1.09715
-0.154107
1.10932
-0.113973
1.11867
-0.0823519
1.12585
-0.057101
1.13137
-0.0376805
1.13566
-0.023034
1.1391
-0.0123062
1.14197
-0.00477261
1.14454
0.000161248
1.147
0.0029881
1.14827
0.0145088
1.14938
0.0163166
1.15043
0.0170517
1.15151
0.0169615
1.15266
0.0162365
1.15393
0.0150426
1.15536
0.0135091
1.15696
0.0117416
1.15875
0.00982599
1.16075
0.00782865
1.16296
0.00580006
1.16539
0.00377231
1.16804
0.00183544
1.17091
0.000146003
1.174
-0.00169938
1.17729
-0.00345121
1.1808
-0.00472538
1.18452
-0.00608829
1.18844
-0.00742125
-0.00847391
1.19255
0.497313
-1.75439
-0.343014
0.630769
-1.51729
0.744651
-1.28959
0.840493
-1.08431
0.920311
-0.899343
0.986108
-0.737459
1.03983
-0.598008
1.0833
-0.47939
1.11816
-0.379395
1.14588
-0.296147
1.16775
-0.226986
1.18485
-0.171205
1.19807
-0.127187
1.20818
-0.0924706
1.2159
-0.0648184
1.22178
-0.0435566
1.22628
-0.0275386
1.22981
-0.0158307
1.23268
-0.00764272
1.23516
-0.00232438
1.23749
0.000663163
1.2386
0.0134
1.23953
0.0153846
1.24038
0.0161947
1.24125
0.0160992
1.24218
0.0153065
1.24322
0.0139968
1.24442
0.0123113
1.2458
0.010365
1.24737
0.00825126
1.24916
0.00604273
1.25116
0.00379475
1.25339
0.00154357
1.25585
-0.000620067
1.25854
-0.00254242
1.26145
-0.00460897
1.26457
-0.00657809
1.26793
-0.0080791
1.27149
-0.00965597
1.27527
-0.0111942
-0.0124526
1.27925
0.533195
-1.92182
-0.36577
0.678049
-1.66214
0.801704
-1.41325
0.90582
-1.18842
0.992576
-0.986099
1.06414
-0.809018
1.1226
-0.656472
1.16993
-0.526719
1.20791
-0.417376
1.23812
-0.326356
1.26195
-0.250823
1.28057
-0.189822
1.29494
-0.141551
1.3059
-0.103433
1.31421
-0.0731273
1.32047
-0.0498174
1.32519
-0.0322589
1.32879
-0.0194334
1.33163
-0.0104794
1.33399
-0.00468665
1.33612
-0.00146616
1.33703
0.01249
1.33773
0.0146865
1.33832
0.0155971
1.33891
0.0155143
1.33955
0.0146659
1.3403
0.0132476
1.3412
0.0114134
1.34227
0.00928873
1.34355
0.00697511
1.34504
0.00455186
1.34676
0.00207973
1.3487
-0.000400497
1.35088
-0.00279726
1.35329
-0.00495978
1.35594
-0.00725421
1.35881
-0.00944736
1.36191
-0.011183
1.36524
-0.0129809
1.36877
-0.0147308
-0.0162018
1.37252
0.572066
-2.1036
-0.390288
0.729391
-1.81947
0.863744
-1.5476
0.976928
-1.30161
1.07129
-1.08046
1.14918
-0.886904
1.21285
-0.720147
1.26444
-0.578301
1.30585
-0.458793
1.33881
-0.35931
1.36481
-0.276826
1.38511
-0.210117
1.40074
-0.157183
1.41263
-0.115321
1.42158
-0.0820815
1.42825
-0.0564904
1.43319
-0.0371992
1.43686
-0.0230977
1.43963
-0.0132474
1.44181
-0.00687309
1.44368
-0.00333149
1.44433
0.0118359
1.44473
0.0142864
1.445
0.0153294
1.44523
0.0152826
1.4455
0.0143951
1.44587
0.0128794
1.44638
0.0109034
1.44707
0.00860387
1.44795
0.00609127
1.44905
0.00345222
1.45038
0.00075335
1.45194
-0.00195957
1.45373
-0.00459404
1.45577
-0.00700241
1.45805
-0.00952995
1.46056
-0.0119525
1.4633
-0.0139294
1.46628
-0.0159542
1.46947
-0.0179214
-0.0196107
1.47287
0.614175
-2.30108
-0.416686
0.785157