/*--------------------------------*- C++ -*----------------------------------*\
| =========                 |                                                 |
| \\      /  F ield         | OpenFOAM: The Open Source CFD Toolbox           |
|  \\    /   O peration     | Version:  5.x                                   |
|   \\  /    A nd           | Web:      www.OpenFOAM.org                      |
|    \\/     M anipulation  |                                                 |
\*---------------------------------------------------------------------------*/
FoamFile
{
    version     2.0;
    format      ascii;
    class       volVectorField;
    location    "550";
    object      U;
}
// * * * * * * * * * * * * * * * * * * * * * * * * * * * * * * * * * * * * * //

dimensions      [0 1 -1 0 0 0 0];

internalField   nonuniform List<vector> 
11040
(
(-2.54688 16.4472 0)
(-0.064512 20.7052 -1.2611e-19)
(4.35056 23.3977 1.22901e-17)
(8.60006 23.0596 1.4413e-17)
(12.0272 21.3136 3.19461e-17)
(14.5527 18.867 -1.57659e-17)
(16.2583 16.1367 -1.57161e-17)
(17.2756 13.3873 1.60544e-17)
(17.7348 10.7865 3.65673e-17)
(17.7042 8.39717 1.19302e-18)
(16.9554 6.03046 1.80828e-17)
(15.7842 4.07082 -9.79669e-19)
(14.8147 2.84338 1.56803e-17)
(14.2745 2.17706 1.48848e-17)
(13.8028 1.64641 1.18917e-17)
(13.1972 1.13248 7.0359e-18)
(12.4789 0.668427 -5.54559e-18)
(11.7141 0.272895 -4.6199e-19)
(10.9221 -0.0579156 4.81715e-19)
(10.1007 -0.328152 2.59865e-18)
(9.24131 -0.539899 1.78233e-18)
(8.45609 -0.674664 1.1063e-18)
(7.74504 -0.75326 6.57209e-19)
(7.02911 -0.798806 -9.25171e-20)
(6.30507 -0.814413 -5.05972e-20)
(5.57149 -0.801604 1.53602e-19)
(4.82695 -0.761217 -1.36522e-17)
(4.07568 -0.693027 3.14475e-19)
(3.32883 -0.606141 -2.41927e-17)
(2.56414 -0.505705 3.04565e-17)
(1.79197 -0.385294 6.15118e-19)
(1.02662 -0.247327 4.58652e-19)
(0.348499 -0.103346 -6.01041e-19)
(-0.251014 0.0315188 0)
(-0.693073 0.144091 1.72905e-16)
(-1.03706 0.258677 0)
(-1.5107 0.41876 0)
(-2.19051 0.582274 -1.94243e-19)
(-2.83016 0.59169 2.14628e-19)
(-2.97921 0.221408 -7.85525e-17)
(-1.88222 -0.346059 -1.02007e-16)
(0.108603 16.0245 0)
(2.94455 19.2423 0)
(8.25703 20.7037 -7.20975e-18)
(12.9108 20.202 7.88026e-18)
(16.3957 18.8612 -1.96933e-17)
(18.9748 17.3033 2.07842e-17)
(20.8144 15.5459 1.00634e-17)
(21.9793 13.6184 1.3301e-18)
(22.5492 11.5927 -7.69716e-19)
(22.6247 9.56396 1.14609e-17)
(22.1387 7.44616 -1.2936e-18)
(20.9772 5.59005 0)
(19.5531 4.24837 0)
(18.312 3.29541 -7.80903e-18)
(17.3045 2.45474 -7.96297e-18)
(16.3493 1.72921 -5.5039e-18)
(15.3958 1.13097 0)
(14.4472 0.635648 2.58987e-19)
(13.4951 0.224096 -7.04031e-19)
(12.5278 -0.111333 -3.47607e-19)
(11.535 -0.375271 -1.09748e-18)
(10.6281 -0.553144 -5.90483e-19)
(9.82352 -0.66612 1.68449e-21)
(9.02485 -0.739876 -4.83819e-19)
(8.22431 -0.778418 1.21547e-18)
(7.41664 -0.78458 1.45654e-19)
(6.59686 -0.761097 6.37528e-18)
(5.75935 -0.710001 -1.42282e-19)
(4.89851 -0.634561 1.05855e-17)
(4.02501 -0.537366 -1.27422e-17)
(3.14592 -0.421203 -1.57007e-17)
(2.27592 -0.292889 1.95485e-17)
(1.43383 -0.15991 1.49987e-20)
(0.660318 -0.0294894 -6.49566e-19)
(0.0159942 0.0874909 -3.27321e-17)
(-0.528242 0.211164 0)
(-1.15329 0.391861 -2.34599e-19)
(-1.77284 0.578364 5.11854e-17)
(-2.07497 0.681673 4.62443e-17)
(-1.75222 0.384089 4.2456e-17)
(-1.36978 -0.588816 7.3006e-17)
(1.50388 15.4868 0)
(4.17232 17.9441 0)
(7.94242 19.3552 1.97798e-18)
(11.5604 19.5517 -5.61628e-18)
(14.5704 18.8291 5.99854e-18)
(17.0895 17.5389 -7.62762e-18)
(19.1549 15.899 -6.19168e-18)
(20.7369 14.0597 0)
(21.8289 12.1258 -1.00348e-17)
(22.4626 10.1743 -5.95229e-18)
(22.6098 8.1524 0)
(22.1286 6.34966 0)
(21.2248 4.95774 -6.24883e-18)
(20.2403 3.89197 -5.68551e-18)
(19.2773 2.94052 -6.0709e-19)
(18.2818 2.1151 6.26955e-19)
(17.254 1.42667 0)
(16.2225 0.853666 0)
(15.1919 0.377872 1.69868e-19)
(14.1528 -0.0101218 -2.13584e-19)
(13.0935 -0.316593 2.17632e-19)
(12.1282 -0.531041 -3.62158e-19)
(11.2735 -0.668595 -7.44549e-20)
(10.4292 -0.760806 -2.63003e-19)
(9.5876 -0.813557 -5.32193e-20)
(8.74279 -0.830568 -9.41527e-20)
(7.88907 -0.815181 -6.60069e-20)
(7.02073 -0.770084 1.55363e-19)
(6.13328 -0.698237 0)
(5.22805 -0.602785 0)
(4.30908 -0.48833 1.90436e-17)
(3.38805 -0.362163 -2.19851e-17)
(2.48291 -0.232113 1.26081e-17)
(1.6254 -0.10741 0)
(0.862448 0.00891466 1.7133e-17)
(0.210043 0.138041 1.95569e-17)
(-0.427362 0.306858 0)
(-0.980699 0.426892 1.81038e-19)
(-1.26101 0.440112 -1.28237e-19)
(-1.05623 0.0992005 0)
(-1.26763 -0.94206 -3.44052e-17)
(2.88014 14.8485 3.47535e-20)
(5.37232 16.7744 -3.1693e-20)
(8.31505 17.9576 5.92165e-19)
(11.4522 18.2654 0)
(14.2706 17.7564 -7.07525e-18)
(16.6426 16.7173 0)
(18.5793 15.335 1.40149e-17)
(20.0788 13.7276 -4.47139e-20)
(21.1551 11.9982 1.40911e-18)
(21.8476 10.2321 9.46807e-18)
(22.1637 8.40659 1.39651e-18)
(22.0123 6.7183 3.864e-18)
(21.493 5.35648 1.10311e-17)
(20.8397 4.29227 4.49546e-18)
(20.1438 3.34317 0)
(19.3554 2.49087 -8.33415e-19)
(18.4665 1.75323 1.42582e-19)
(17.5142 1.12451 -5.73439e-19)
(16.5218 0.593577 -2.30977e-19)
(15.4955 0.154089 2.3527e-19)
(14.4335 -0.197959 5.33965e-19)
(13.4571 -0.447843 3.3406e-19)
(12.5869 -0.612213 0)
(11.7249 -0.726875 5.03377e-19)
(10.8653 -0.798273 -7.35856e-19)
(10.0031 -0.830568 1.13116e-18)
(9.13322 -0.827529 -3.16984e-18)
(8.25035 -0.792332 0)
(7.3502 -0.728194 0)
(6.43105 -0.638891 0)
(5.4939 -0.529659 -6.88728e-18)
(4.5451 -0.408226 8.13299e-18)
(3.59778 -0.283383 -2.82674e-19)
(2.67494 -0.164908 -1.04103e-17)
(1.81313 -0.0530201 -1.10161e-17)
(1.05729 0.0745285 -1.29735e-17)
(0.384266 0.227589 -2.76765e-17)
(-0.173662 0.307943 -2.726e-17)
(-0.542331 0.276033 -1.0426e-19)
(-0.468009 -0.0652114 -2.35924e-17)
(-1.11735 -1.09743 1.4117e-17)
(4.23579 14.1208 0)
(6.43655 15.6314 -4.50554e-20)
(8.78977 16.597 -3.62479e-19)
(11.3701 17.0046 2.17902e-19)
(13.8305 16.7825 5.18388e-18)
(16.0047 16.0629 -5.66277e-18)
(17.8688 14.9614 -1.33583e-18)
(19.3778 13.5764 -7.24092e-18)
(20.5019 12.0159 0)
(21.2576 10.377 -8.73321e-18)
(21.661 8.67053 0)
(21.666 7.04873 -2.20138e-18)
(21.3378 5.69183 -5.82462e-18)
(20.8609 4.61165 0)
(20.3422 3.66551 3.10809e-18)
(19.7503 2.81126 0)
(19.0565 2.05945 0)
(18.2753 1.40711 5.87676e-19)
(17.4225 0.844891 4.82414e-19)
(16.5052 0.36886 0)
(15.5252 -0.0211567 -4.34108e-19)
(14.6037 -0.30462 0)
(13.768 -0.496921 0)
(12.9306 -0.63617 -1.75588e-19)
(12.0889 -0.728855 0)
(11.2401 -0.77939 8.74572e-19)
(10.3808 -0.791791 2.45414e-18)
(9.50687 -0.76962 0)
(8.61453 -0.716465 0)
(7.70129 -0.636576 0)
(6.76644 -0.535722 5.61429e-18)
(5.81225 -0.422157 5.43828e-18)
(4.84577 -0.305307 -6.55989e-18)
(3.88116 -0.195231 -2.30596e-19)
(2.9427 -0.0928666 2.60316e-19)
(2.0834 0.0228361 0)
(1.33555 0.155029 2.03823e-17)
(0.726743 0.209809 -2.15655e-17)
(0.226043 0.1506 2.2679e-17)
(0.138972 -0.153316 2.18656e-17)
(-0.774327 -1.12053 2.56304e-20)
(5.48397 13.3352 -8.93601e-20)
(7.37398 14.516 5.28933e-20)
(9.28791 15.2952 -2.20972e-20)
(11.3862 15.7336 2.27547e-19)
(13.4912 15.7059 -8.38541e-19)
(15.4426 15.2472 5.52884e-18)
(17.1877 14.4262 -6.83131e-18)
(18.668 13.3066 5.89556e-18)
(19.8287 11.9724 2.8985e-18)
(20.6582 10.5113 -1.49203e-18)
(21.1616 8.95201 0)
(21.304 7.41389 0)
(21.1205 6.06114 1.36043e-18)
(20.7542 4.94479 -1.43614e-18)
(20.3225 3.9775 -4.93192e-18)
(19.8335 3.11264 1.0407e-18)
(19.266 2.34945 -1.98347e-18)
(18.6246 1.68389 1.02882e-19)
(17.9168 1.10518 -6.02521e-19)
(17.142 0.607636 1.05419e-18)
(16.296 0.191824 -9.31453e-19)
(15.4837 -0.117922 2.23284e-19)
(14.7327 -0.334374 -7.59135e-20)
(13.9685 -0.496755 6.75299e-20)
(13.1905 -0.611079 -4.8483e-19)
(12.3976 -0.681479 -1.17781e-20)
(11.5879 -0.711761 -2.25655e-18)
(10.7585 -0.7055 -2.22142e-18)
(9.90667 -0.666425 0)
(9.02988 -0.599046 0)
(8.12659 -0.509464 -3.89503e-18)
(7.19655 -0.406211 -9.64911e-18)
(6.24189 -0.299136 -3.33617e-19)
(5.26891 -0.198675 5.81279e-18)
(4.28941 -0.108285 6.83793e-18)
(3.3478 -0.0119704 -7.3614e-18)
(2.50344 0.0921843 2.42933e-19)
(1.80162 0.126228 3.35483e-17)
(1.16661 0.0475343 -3.6207e-17)
(0.856757 -0.205029 7.60715e-20)
(-0.153219 -1.03802 1.31639e-17)
(6.60745 12.5188 0)
(8.20708 13.4377 -1.49434e-19)
(9.77885 14.0636 -1.72278e-20)
(11.481 14.4838 1.41002e-19)
(13.2424 14.5763 1.20637e-18)
(14.9435 14.3236 2.02599e-18)
(16.5281 13.7523 -4.5296e-18)
(17.9364 12.8942 1.71366e-18)
(19.1021 11.8059 0)
(19.9931 10.5566 2.1777e-18)
(20.6009 9.18031 -4.3466e-18)
(20.889 7.76735 4.37547e-18)
(20.8611 6.45569 -1.76665e-19)
(20.6144 5.32065 0)
(20.2594 4.32803 1.06604e-18)
(19.8354 3.44326 1.217e-19)
(19.3397 2.65993 8.43812e-19)
(18.7792 1.97537 6.8117e-19)
(18.1648 1.3797 -2.70097e-19)
(17.498 0.865186 -3.02867e-19)
(16.7726 0.430489 4.34024e-19)
(16.0746 0.101547 2.42154e-19)
(15.4262 -0.133165 0)
(14.762 -0.314133 1.08617e-19)
(14.0809 -0.447168 4.50527e-19)
(13.3814 -0.536133 -6.30332e-19)
(12.6613 -0.584462 6.10269e-19)
(11.9179 -0.595466 2.02968e-18)
(11.1483 -0.57272 -3.25932e-19)
(10.3496 -0.520667 -3.99204e-20)
(9.51911 -0.445349 -2.43355e-18)
(8.65461 -0.355125 -8.78621e-19)
(7.75451 -0.2599 -3.55594e-18)
(6.81906 -0.17025 0)
(5.84984 -0.0924982 -4.92968e-18)
(4.87437 -0.0186001 5.76663e-18)
(3.9493 0.0521639 -6.12269e-18)
(3.13508 0.064344 -2.58218e-17)
(2.36609 -0.0290095 1.39651e-17)
(1.8196 -0.235826 6.2462e-20)
(0.764584 -0.889762 -2.78926e-17)
(7.60068 11.6943 5.87003e-19)
(8.94527 12.4064 -1.59206e-19)
(10.244 12.9071 -1.53632e-19)
(11.6282 13.2829 -3.2954e-19)
(13.0803 13.4357 -8.37996e-19)
(14.5261 13.3295 -2.50031e-18)
(15.921 12.9633 2.6472e-18)
(17.2142 12.3437 3.62756e-18)
(18.341 11.5 -2.5806e-18)
(19.2591 10.479 0)
(19.9499 9.31017 -1.56765e-18)
(20.373 8.05967 2.83578e-20)
(20.5068 6.83522 -6.41088e-20)
(20.4036 5.71818 1.48653e-18)
(20.1511 4.71566 1.3804e-18)
(19.8028 3.81527 -1.43309e-18)
(19.3728 3.01134 0)
(18.8727 2.30329 0)
(18.318 1.68543 9.82741e-19)
(17.7176 1.1507 -8.27901e-19)
(17.0716 0.696731 1.26558e-19)
(16.4562 0.350317 -2.47167e-19)
(15.8901 0.0999084 -4.73021e-20)
(15.3153 -0.0964785 0)
(14.7299 -0.244881 1.78907e-19)
(14.1319 -0.349398 -1.83037e-19)
(13.5183 -0.413504 -6.3828e-19)
(12.8857 -0.440456 0)
(12.2304 -0.433724 0)
(11.5479 -0.397585 2.97954e-19)
(10.8339 -0.337786 2.6189e-18)
(10.0833 -0.262177 2.53886e-18)
(9.29076 -0.180285 5.89983e-18)
(8.45121 -0.102414 4.21033e-19)
(7.55856 -0.036948 0)
(6.6233 0.0161499 -2.56149e-19)
(5.68075 0.0539257 4.71806e-18)
(4.78472 0.0415073 -3.4597e-20)
(3.90088 -0.0627722 1.09358e-17)
(3.14821 -0.243606 1.19559e-17)
(2.02178 -0.711414 1.36063e-17)
(8.46723 10.8807 -3.59581e-19)
(9.59491 11.4307 -3.70495e-21)
(10.6725 11.8294 2.91666e-19)
(11.8026 12.1506 -4.09827e-19)
(12.9901 12.3222 0)
(14.1952 12.3084 8.05104e-19)
(15.3902 12.0953 -1.51959e-18)
(16.5378 11.6744 -2.18719e-18)
(17.5842 11.0541 1.60969e-18)
(18.4868 10.2592 2.08832e-18)
(19.222 9.30915 1.28069e-19)
(19.7484 8.24785 -4.27753e-18)
(20.0278 7.15304 0)
(20.076 6.09805 9.79483e-19)
(19.9507 5.11515 -2.28272e-18)
(19.7028 4.21564 -9.62957e-19)
(19.3561 3.40097 -8.48731e-19)
(18.9266 2.67386 8.78438e-19)
(18.4318 2.03345 -3.2149e-19)
(17.8858 1.47566 0)
(17.2954 0.999434 3.71801e-19)
(16.7348 0.633487 -5.17838e-19)
(16.2229 0.366025 3.93763e-20)
(15.7091 0.153645 -7.8327e-20)
(15.1934 -0.00987324 2.89665e-19)
(14.675 -0.129052 -2.95977e-19)
(14.1519 -0.20768 0)
(13.6213 -0.249218 1.6249e-18)
(13.0799 -0.257245 7.6125e-19)
(12.5233 -0.235995 4.21234e-19)
(11.946 -0.190945 -2.00681e-18)
(11.341 -0.129358 -5.78643e-19)
(10.6995 -0.0601625 5.56947e-19)
(10.0118 0.00681114 -3.36379e-19)
(9.2654 0.0621129 -2.11969e-18)
(8.45679 0.100056 -3.77697e-19)
(7.59633 0.113195 0)
(6.71211 0.0791768 7.31543e-18)
(5.78354 -0.0321116 -8.03087e-18)
(4.90473 -0.204933 -8.81231e-18)
(3.70096 -0.528477 0)
(9.21511 10.0938 0)
(10.1612 10.5174 0)
(11.0585 10.8326 0)
(11.985 11.0986 1.23517e-18)
(12.9534 11.2637 -3.53882e-19)
(13.9447 11.2999 2.23913e-20)
(14.9461 11.1908 -2.02256e-19)
(15.9341 10.9216 -2.93171e-19)
(16.8695 10.4883 9.09463e-19)
(17.7163 9.89906 1.3364e-18)
(18.4519 9.16184 -1.31375e-18)
(19.0374 8.30106 1.74657e-18)
(19.4277 7.36687 -1.53562e-19)
(19.6135 6.41628 1.64658e-18)
(19.623 5.49045 -2.96316e-18)
(19.4935 4.61817 2.35632e-18)
(19.2499 3.81133 1.26344e-18)
(18.9099 3.07779 -1.30499e-18)
(18.4914 2.422 5.01689e-19)
(18.0104 1.84406 0)
(17.4777 1.34531 4.78581e-19)
(16.9656 0.958199 -3.5746e-19)
(16.4957 0.671651 2.81193e-20)
(16.0254 0.441119 -6.72527e-20)
(15.5567 0.260373 3.09576e-19)
(15.0913 0.124626 0)
(14.6296 0.0298416 0)
(14.1711 -0.0276265 -4.79651e-19)
(13.7149 -0.0514609 -3.03373e-18)
(13.2585 -0.0458342 -1.40781e-18)
(12.7984 -0.0158916 1.61992e-18)
(12.3288 0.0317911 4.55518e-19)
(11.8412 0.089116 -2.39541e-18)
(11.3245 0.146949 -5.22485e-19)
(10.7629 0.195601 3.28109e-18)
(10.1441 0.226393 -5.70942e-19)
(9.45951 0.229067 -2.45299e-18)
(8.71008 0.186948 3.28565e-19)
(7.86419 0.0797368 5.33242e-18)
(6.99959 -0.0825143 0)
(5.79799 -0.325272 0)
(9.85474 9.34559 0)
(10.6497 9.67104 0)
(11.3989 9.91808 -1.40222e-19)
(12.1618 10.1329 -1.15576e-18)
(12.9516 10.2786 0)
(13.7611 10.3358 -4.81021e-19)
(14.5869 10.2906 2.50352e-19)
(15.417 10.128 0)
(16.2256 9.83855 -1.23888e-18)
(16.9866 9.42042 1.98294e-19)
(17.6822 8.87345 -2.76263e-19)
(18.2801 8.20664 9.8781e-19)
(18.736 7.44707 -1.22602e-18)
(19.0271 6.63268 0)
(19.159 5.80108 -1.85209e-18)
(19.1509 4.98809 2.15903e-18)
(19.0212 4.21454 0)
(18.7856 3.49429 0)
(18.4603 2.83722 2.78531e-19)
(18.0613 2.24846 -1.13457e-18)
(17.6006 1.73255 4.80609e-19)
(17.146 1.32644 0)
(16.7219 1.02096 2.91969e-20)
(16.2941 0.771369 1.72932e-19)
(15.8664 0.571711 -2.11009e-19)
(15.4422 0.417176 2.42337e-19)
(15.0239 0.303619 0)
(14.6134 0.227291 0)
(14.2118 0.184481 -5.02016e-19)
(13.8198 0.171161 2.26625e-18)
(13.4367 0.182632 -1.2618e-18)
(13.0603 0.213178 1.32544e-18)
(12.6859 0.255878 7.28261e-19)
(12.3056 0.302829 0)
(11.9066 0.34518 1.25325e-18)
(11.4752 0.373789 -1.2339e-20)
(10.9952 0.378143 4.21191e-18)
(10.4534 0.345108 0)
(9.80466 0.259473 -4.16308e-18)
(9.10481 0.128837 4.56224e-18)
(8.07 -0.0656352 0)
(10.3971 8.64505 0)
(11.0662 8.8942 -8.55673e-19)
(11.6935 9.08598 7.49826e-19)
(12.3239 9.25567 0)
(12.9694 9.37714 7.61041e-19)
(13.6283 9.43763 -6.44984e-19)
(14.3026 9.42725 -1.24524e-18)
(14.9877 9.3336 1.7315e-19)
(15.6682 9.14635 4.35288e-19)
(16.3275 8.85979 1.38734e-18)
(16.9539 8.46927 -1.44682e-18)
(17.5234 7.97393 -4.47817e-19)
(17.9986 7.38412 1.15295e-18)
(18.3526 6.72048 -5.55555e-19)
(18.5775 6.01061 2.17573e-18)
(18.6764 5.28772 -1.38756e-18)
(18.6575 4.57612 -5.58969e-19)
(18.5308 3.89399 -2.53672e-19)
(18.3088 3.25574 -7.29497e-19)
(18.005 2.67133 1.4406e-18)
(17.6308 2.14904 -6.41673e-19)
(17.2466 1.73064 -5.95004e-21)
(16.8784 1.40995 -5.22111e-21)
(16.501 1.14329 0)
(16.1196 0.925429 -4.53947e-19)
(15.7384 0.751808 1.36868e-19)
(15.3612 0.618353 8.52192e-19)
(14.9909 0.521336 -5.96494e-19)
(14.6301 0.457085 1.61544e-18)
(14.2809 0.421729 -8.40801e-19)
(13.9448 0.410967 0)
(13.6224 0.419868 -1.63254e-18)
(13.3125 0.442727 -5.74213e-19)
(13.0119 0.473163 6.47279e-19)
(12.7134 0.50403 -4.0061e-18)
(12.4083 0.527713 -7.03983e-19)
(12.0829 0.535611 -1.46869e-18)
(11.7239 0.518711 1.52213e-18)
(11.2884 0.464957 1.59922e-18)
(10.811 0.382662 -3.27228e-18)
(10.0678 0.241318 -1.12207e-19)
(10.8532 7.99801 0)
(11.4172 8.18794 4.86955e-20)
(11.9437 8.33515 6.78952e-19)
(12.4663 8.46654 2.18507e-18)
(12.9953 8.5634 -1.49668e-18)
(13.5316 8.61779 2.13739e-19)
(14.0794 8.62332 -3.74735e-20)
(14.6383 8.57094 -1.60462e-18)
(15.1999 8.45175 -8.9646e-20)
(15.7548 8.2592 -2.32863e-19)
(16.2967 7.98763 8.20768e-19)
(16.8099 7.63156 -7.18448e-19)
(17.2658 7.19113 -4.05957e-19)
(17.64 6.6743 4.76665e-19)
(17.9193 6.0976 0)
(18.0968 5.48604 0)
(18.1711 4.86156 1.92395e-18)
(18.145 4.24307 1.41172e-20)
(18.0254 3.6471 -1.31182e-18)
(17.8215 3.08696 6.921e-20)
(17.5424 2.57406 -1.95639e-19)
(17.2381 2.15436 1.86566e-19)
(16.9348 1.82577 -4.73798e-22)
(16.6166 1.54725 0)
(16.2893 1.31472 -6.3775e-20)
(15.958 1.12432 7.63345e-19)
(15.627 0.972348 -9.93051e-19)
(15.2997 0.855264 1.14343e-18)
(14.9792 0.769528 -8.49095e-19)
(14.6682 0.71149 0)
(14.3688 0.677225 7.87315e-19)
(14.0824 0.662431 1.77778e-18)
(13.8099 0.662367 -9.07159e-19)
(13.5504 0.671936 1.02447e-18)
(13.3009 0.685669 5.73354e-19)
(13.0574 0.69806 -1.09131e-18)
(12.8125 0.703176 1.71977e-18)
(12.5581 0.696051 -1.20612e-18)
(12.2661 0.66854 -9.34649e-19)
(11.9553 0.629342 -1.57214e-19)
(11.4869 0.547592 2.58492e-18)
(11.2336 7.40765 -8.19376e-19)
(11.7096 7.55164 -2.84065e-18)
(12.1521 7.66319 2.76788e-18)
(12.5867 7.76285 0)
(13.0215 7.83717 -1.27517e-19)
(13.4587 7.88138 0)
(13.903 7.89166 -4.16031e-18)
(14.356 7.86189 3.02549e-18)
(14.8136 7.78523 1.37285e-18)
(15.271 7.65593 -1.48317e-18)
(15.7258 7.46918 1.68726e-19)
(16.1686 7.21826 -1.15791e-19)
(16.5794 6.89848 3.52815e-19)
(16.9394 6.51031 5.50742e-19)
(17.2354 6.06157 1.01605e-19)
(17.4567 5.56804 -6.60758e-19)
(17.5961 5.04588 5.71031e-19)
(17.6503 4.51107 -6.92139e-19)
(17.6203 3.97929 0)
(17.5106 3.4647 -2.65204e-19)
(17.3262 2.98023 2.73428e-19)
(17.1048 2.57388 2.32476e-20)
(16.8712 2.24802 3.69166e-21)
(16.6175 1.96598 0)
(16.3501 1.72518 5.20052e-20)
(16.0742 1.52286 7.75379e-20)
(15.7945 1.35614 0)
(15.5149 1.22196 0)
(15.2386 1.11715 2.03653e-21)
(14.9682 1.03841 0)
(14.706 0.982255 -9.52156e-19)
(14.4535 0.944982 0)
(14.2118 0.922676 1.5041e-18)
(13.9809 0.911265 -1.55845e-18)
(13.7595 0.906536 0)
(13.5459 0.904607 8.86254e-19)
(13.3367 0.901647 -9.24293e-19)
(13.1278 0.895103 4.65834e-19)
(12.9051 0.880725 1.47892e-18)
(12.678 0.865299 -1.3137e-19)
(12.3789 0.829292 -3.08413e-18)
(11.5483 6.87496 2.17998e-18)
(11.9503 6.98332 8.08084e-20)
(12.3228 7.06652 -1.2227e-18)
(12.6849 7.14043 -2.22699e-18)
(13.0434 7.1953 -4.82061e-18)
(13.4006 7.22837 5.57835e-18)
(13.7611 7.23756 -2.78025e-19)
(14.1273 7.21888 -2.48192e-18)
(14.4973 7.16749 4.58709e-18)
(14.8692 7.07899 -4.36462e-19)
(15.2426 6.94964 -1.89945e-18)
(15.6126 6.77348 4.58873e-19)
(15.966 6.54455 -4.76574e-19)
(16.2897 6.25984 8.57314e-19)
(16.5732 5.92181 -1.30627e-19)
(16.8061 5.5389 0)
(16.9794 5.12104 2.83377e-19)
(17.0866 4.67955 -1.90547e-19)
(17.1244 4.2269 -3.98812e-21)
(17.0928 3.77567 -1.62452e-19)
(16.9931 3.33813 2.23179e-19)
(16.85 2.96106 -3.62728e-20)
(16.6849 2.65069 -3.04953e-21)
(16.4963 2.37599 -7.83651e-19)
(16.2902 2.13596 1.75755e-18)
(16.0717 1.92914 -1.04575e-18)
(15.8456 1.75371 1.27913e-18)
(15.6159 1.60748 -1.56845e-18)
(15.3861 1.48798 -1.95695e-18)
(15.1586 1.39248 1.77016e-18)
(14.9357 1.31808 5.11441e-19)
(14.7189 1.26176 8.65057e-19)
(14.5093 1.2204 -2.67265e-18)
(14.3072 1.19079 2.52973e-18)
(14.1118 1.16973 -1.30107e-18)
(13.9222 1.15445 -6.96062e-19)
(13.7372 1.14245 0)
(13.554 1.13207 -7.64239e-19)
(13.3666 1.12139 -7.92992e-19)
(13.1795 1.11418 -8.1432e-19)
(12.9631 1.10084 8.4666e-19)
(11.8064 6.39905 3.01107e-21)
(12.146 6.47973 2.95998e-19)
(12.4597 6.54055 1.07543e-18)
(12.762 6.59395 -1.91518e-18)
(13.0583 6.63273 7.56275e-18)
(13.351 6.65536 -6.38375e-18)
(13.6441 6.66088 8.02486e-18)
(13.9399 6.64675 3.88395e-18)
(14.2382 6.60966 -1.99968e-18)
(14.5381 6.54649 -6.06001e-19)
(14.8404 6.45456 -4.35835e-18)
(15.1427 6.32939 1.86562e-19)
(15.4367 6.16542 0)
(15.7139 5.95874 -3.32822e-19)
(15.9669 5.70913 4.34712e-19)
(16.1877 5.42036 -5.65543e-19)
(16.3679 5.09757 0)
(16.5005 4.7476 6.44396e-19)
(16.5803 4.37893 -1.46595e-18)
(16.6047 4.00114 5.24791e-19)
(16.5718 3.6242 -9.77654e-19)
(16.4949 3.29022 1.10519e-18)
(16.391 3.00783 4.67205e-20)
(16.2625 2.75207 -2.14358e-20)
(16.1145 2.52331 1.87484e-18)
(15.9516 2.32132 -1.89494e-18)
(15.7781 2.14533 6.79465e-20)
(15.5978 1.99412 1.54443e-19)
(15.4141 1.86607 -1.47101e-18)
(15.2294 1.75928 1.68058e-18)
(15.0461 1.67163 -2.07935e-19)
(14.8656 1.60086 2.24433e-19)
(14.6891 1.54463 -9.83151e-19)
(14.5172 1.50055 4.60325e-19)
(14.3495 1.46625 2.13467e-18)
(14.1858 1.43981 -5.33214e-19)
(14.0256 1.41953 5.93223e-19)
(13.8674 1.40405 -1.19761e-18)
(13.7084 1.39232 6.2377e-19)
(13.551 1.38589 6.53364e-19)
(13.3816 1.37939 0)
(12.0157 5.97683 -3.34037e-18)
(12.3024 6.03592 5.97985e-18)
(12.5666 6.07933 5.59442e-18)
(12.8191 6.11682 -1.47078e-17)
(13.0644 6.1429 5.44585e-18)
(13.3048 6.15677 -1.11407e-17)
(13.5437 6.15813 8.98688e-18)
(13.7831 6.14538 -1.29866e-17)
(14.0233 6.11629 1.17772e-17)
(14.2643 6.06872 -4.16752e-19)
(14.507 6.00087 -4.75712e-18)
(14.7506 5.90943 -4.37276e-19)
(14.9898 5.79011 -3.51785e-18)
(15.2194 5.63933 3.48223e-18)
(15.4345 5.45596 -2.68627e-18)
(15.6296 5.24132 2.91918e-18)
(15.7982 4.99762 0)
(15.9342 4.72841 -1.99863e-18)
(16.0326 4.43877 2.47609e-18)
(16.0896 4.13508 -2.34869e-18)
(16.1019 3.82446 -1.63104e-19)
(16.0745 3.54203 3.99939e-18)
(16.0196 3.29699 7.89341e-20)
(15.9413 3.07008 -1.58231e-18)
(15.8437 2.86256 -3.04204e-24)
(15.7304 2.67505 0)
(15.6049 2.50765 -2.17969e-18)
(15.4705 2.35997 2.15733e-18)
(15.3302 2.2312 0)
(15.1863 2.12022 -1.60829e-19)
(15.0409 2.02571 0)
(14.8956 1.94618 1.52671e-18)
(14.7516 1.88007 -1.72959e-18)
(14.6097 1.82578 -1.68667e-18)
(14.4701 1.78158 3.45427e-18)
(14.3331 1.74619 -1.9932e-18)
(14.1986 1.71846 -2.33793e-19)
(14.0661 1.69725 4.86869e-19)
(13.9343 1.68178 -5.03337e-19)
(13.8046 1.67247 0)
(13.6708 1.66562 -5.19855e-19)
(12.1768 5.62122 0)
(12.4205 5.66433 -8.14677e-18)
(12.6445 5.69514 3.89286e-19)
(12.8572 5.72112 1.08241e-17)
(13.0623 5.73791 6.57821e-18)
(13.2618 5.74525 -6.75976e-18)
(13.4587 5.74319 6.10224e-18)
(13.6548 5.73069 5.80737e-18)
(13.8504 5.70623 1.08286e-17)
(14.0458 5.66832 -1.36917e-17)
(14.2421 5.61576 1.32991e-18)
(14.4389 5.54616 1.27078e-18)
(14.6329 5.45623 -4.30949e-18)
(14.8207 5.34314 3.13521e-18)
(14.9994 5.20569 4.35212e-18)
(15.1652 5.04417 -3.31194e-18)
(15.3134 4.85935 -3.80874e-18)
(15.4396 4.65296 3.90739e-18)
(15.5395 4.42782 0)
(15.6094 4.18791 4.46715e-19)
(15.6459 3.93792 4.48037e-19)
(15.6492 3.7057 3.40339e-18)
(15.6275 3.49979 -6.91515e-18)
(15.5855 3.30554 3.59243e-18)
(15.5258 3.12448 1.95784e-18)
(15.4511 2.95765 3.74276e-20)
(15.3643 2.80565 -2.07817e-18)
(15.268 2.66865 3.36308e-20)
(15.1644 2.5464 2.40358e-21)
(15.0557 2.43841 2.54302e-18)
(14.9436 2.34394 -2.57164e-18)
(14.8296 2.26213 -1.40567e-18)
(14.715 2.192 1.50062e-18)
(14.6006 2.13254 -1.52407e-18)
(14.4869 2.08257 1.33115e-18)
(14.3745 2.04127 1.22004e-18)
(14.2638 2.00789 -6.10506e-19)
(14.1547 1.9815 2.14158e-19)
(14.0468 1.96146 0)
(13.9409 1.94774 0)
(13.8349 1.93776 4.84858e-21)
(12.2964 5.33485 -3.77235e-18)
(12.5064 5.36659 4.20452e-18)
(12.6989 5.38843 -1.75798e-18)
(12.8809 5.4061 -3.36129e-18)
(13.0551 5.41611 0)
(13.2236 5.41853 6.34327e-18)
(13.3889 5.4136 -1.50492e-17)
(13.5524 5.40065 9.27208e-18)
(13.7146 5.37859 -2.95625e-18)
(13.8759 5.3464 2.64865e-18)
(14.0372 5.30327 -1.27001e-18)
(14.1984 5.24751 -1.13319e-17)
(14.3574 5.17667 1.9883e-17)
(14.5119 5.08859 -8.52787e-18)
(14.66 4.9822 -1.01038e-18)
(14.7992 4.8574 -4.14593e-18)
(14.9262 4.71435 1.25563e-17)
(15.0377 4.55382 -5.47605e-18)
(15.1304 4.37736 -8.21181e-18)
(15.2014 4.1874 3.39454e-18)
(15.2476 3.98694 -9.34053e-19)
(15.2669 3.79769 0)
(15.2649 3.627 0)
(15.2459 3.46361 -4.03923e-18)
(15.2116 3.30902 4.04411e-18)
(15.164 3.16435 6.24759e-20)
(15.1051 3.03042 0)
(15.037 2.90764 2.3265e-18)
(14.9616 2.79613 -2.33241e-18)
(14.8804 2.69577 1.86638e-20)
(14.7949 2.60622 -2.03946e-20)
(14.7064 2.52702 0)
(14.6161 2.45764 1.31311e-18)
(14.5248 2.39741 -1.38729e-18)
(14.4332 2.34555 1.79847e-19)
(14.3417 2.30154 -1.85435e-19)
(14.2512 2.2649 0)
(14.1616 2.23487 -1.95823e-19)
(14.0731 2.21098 -4.05463e-19)
(13.9863 2.19303 1.98143e-19)
(13.9007 2.17935 6.14964e-19)
(12.3872 5.10157 0)
(12.5701 5.12499 0)
(12.7376 5.14028 -6.57356e-18)
(12.8952 5.1519 -1.27121e-17)
(13.0453 5.15699 1.93152e-17)
(13.1896 5.15584 -1.52588e-17)
(13.3304 5.14878 -5.75837e-18)
(13.4688 5.13534 1.20549e-17)
(13.6055 5.11477 -1.15352e-17)
(13.7407 5.08632 1.15071e-17)
(13.8753 5.04944 0)
(14.0092 5.00291 0)
(14.141 4.94493 1.03096e-17)
(14.2691 4.87387 -2.02797e-17)
(14.3924 4.78889 1.93406e-17)
(14.509 4.68981 -9.41405e-18)
(14.6167 4.57655 -1.17631e-18)
(14.7131 4.44942 1.02946e-17)
(14.7957 4.3093 -6.9937e-18)
(14.8622 4.15765 0)
(14.9101 3.99638 4.84163e-19)
(14.9367 3.84234 0)
(14.9455 3.7016 -4.49116e-18)
(14.9403 3.56537 8.76927e-18)
(14.9223 3.43499 -4.27705e-18)
(14.8929 3.31152 0)
(14.8536 3.19574 0)
(14.806 3.08821 2.19125e-18)
(14.7513 2.98918 -2.33972e-18)
(14.6909 2.89874 -2.4638e-18)
(14.6261 2.81682 2.48177e-18)
(14.5578 2.7432 2.59116e-18)
(14.4871 2.67759 -2.59932e-18)
(14.4147 2.61961 0)
(14.3412 2.56872 -2.16905e-20)
(14.2673 2.5246 0)
(14.1936 2.48695 -5.63017e-21)
(14.1202 2.45516 -2.29035e-20)
(14.0476 2.42885 7.95493e-19)
(13.9762 2.40783 -1.12752e-18)
(13.9061 2.39102 3.71922e-19)
(12.4574 4.90806 0)
(12.6182 4.92527 -7.98858e-19)
(12.7653 4.9357 0)
(12.9031 4.94286 6.11372e-18)
(13.0337 4.94435 -6.01389e-18)
(13.1587 4.94061 0)
(13.28 4.932 5.81845e-18)
(13.3987 4.91822 5.58454e-18)
(13.5153 4.89869 -1.46665e-17)
(13.63 4.87289 0)
(13.7437 4.84043 1.09812e-17)
(13.8562 4.80043 -2.1881e-17)
(13.9667 4.75154 1.08714e-17)
(14.0739 4.69257 0)
(14.1771 4.62288 -1.00314e-17)
(14.275 4.5423 1.11696e-17)
(14.366 4.4507 1.05451e-17)
(14.4484 4.3482 -1.16556e-17)
(14.5204 4.23531 -1.07633e-18)
(14.5802 4.11294 0)
(14.6259 3.98233 0)
(14.6546 3.85658 -5.73954e-19)
(14.6687 3.7406 2.6072e-19)
(14.6716 3.62746 4.46511e-18)
(14.6639 3.51824 3.45462e-19)
(14.6466 3.41387 -4.47867e-18)
(14.6208 3.31506 4.61445e-18)
(14.5877 3.22234 -4.46579e-18)
(14.5483 3.13603 -2.6881e-18)
(14.5037 3.05631 2.38114e-18)
(14.4547 2.98322 -2.47129e-18)
(14.4022 2.9167 2.46644e-18)
(14.3472 2.85662 0)
(14.2901 2.80276 -2.76632e-18)
(14.2316 2.75474 2.61662e-18)
(14.1722 2.71238 0)
(14.1125 2.67549 5.23828e-21)
(14.0529 2.6436 7.1212e-19)
(13.9934 2.61642 -7.31824e-19)
(13.9347 2.59377 3.31962e-19)
(13.8771 2.57499 -3.44903e-19)
(12.5127 4.74517 0)
(12.655 4.75767 7.38292e-19)
(12.785 4.76445 -5.90405e-18)
(12.9065 4.76827 1.14965e-17)
(13.021 4.76713 -2.31441e-17)
(13.1303 4.76153 1.16369e-17)
(13.2358 4.75186 0)
(13.3385 4.7379 5.58448e-18)
(13.439 4.71924 3.34661e-17)
(13.5374 4.69549 -2.25344e-17)
(13.6344 4.66637 0)
(13.73 4.63124 -2.78027e-18)
(13.8234 4.5891 7.90584e-18)
(13.9138 4.53906 -2.12506e-19)
(14.0008 4.48067 -1.05043e-17)
(14.0833 4.41379 1.13623e-17)
(14.1602 4.33831 -9.8831e-18)
(14.2304 4.25428 9.45606e-18)
(14.2924 4.16201 -9.48375e-18)
(14.3449 4.06212 -9.30161e-18)
(14.3865 3.95542 8.01544e-18)
(14.4145 3.85219 -4.01174e-18)
(14.4308 3.75635 5.08472e-18)
(14.4379 3.66237 -4.80374e-18)
(14.4364 3.57111 -8.94482e-19)
(14.427 3.48333 4.5388e-18)
(14.4104 3.39963 0)
(14.3876 3.32047 0)
(14.3593 3.24618 -4.43808e-18)
(14.3264 3.17695 4.70956e-18)
(14.2895 3.11288 0)
(14.2494 3.05399 3.08504e-19)
(14.2067 3.00022 3.11693e-19)
(14.162 2.95145 2.65857e-18)
(14.1157 2.90742 -2.65558e-18)
(14.0683 2.86803 -1.28079e-18)
(14.0203 2.83316 1.27611e-18)
(13.972 2.80245 -4.8988e-19)
(13.9237 2.77568 1.30992e-18)
(13.8757 2.7527 -6.358e-19)
(13.8283 2.73315 -8.15307e-20)
(12.5568 4.60636 5.47346e-18)
(12.6835 4.61525 6.67665e-18)
(12.7991 4.61927 -1.2756e-19)
(12.9067 4.62059 0)
(13.0079 4.61753 0)
(13.104 4.61061 0)
(13.1965 4.60024 0)
(13.2861 4.58627 -2.16949e-17)
(13.3734 4.56839 3.83076e-17)
(13.4585 4.54631 -2.19575e-17)
(13.542 4.51985 2.14668e-17)
(13.6238 4.48852 -1.36089e-17)
(13.7035 4.45159 2.37379e-17)
(13.7803 4.4084 -2.90572e-17)
(13.8541 4.35862 1.0527e-17)
(13.9239 4.30217 7.63872e-18)
(13.9892 4.23897 -9.99164e-18)
(14.0488 4.16906 1.17864e-18)
(14.1018 4.09266 -1.2262e-18)
(14.1474 4.01019 1.18767e-17)
(14.1843 3.92221 1.04277e-17)
(14.2103 3.83688 -1.72649e-17)
(14.2268 3.75731 -5.51908e-19)
(14.2359 3.67905 0)
(14.2379 3.60275 5.52329e-19)
(14.2334 3.52902 -5.82896e-19)
(14.223 3.45837 -4.01625e-18)
(14.2074 3.39118 4.58236e-18)
(14.1871 3.32772 -4.65564e-18)
(14.1628 3.26818 4.63748e-18)
(14.1351 3.21268 4.72292e-18)
(14.1044 3.16125 -4.99458e-18)
(14.0714 3.11389 -2.9329e-19)
(14.0364 3.07053 2.41628e-18)
(13.9999 3.03099 -1.95058e-18)
(13.9622 2.9952 0)
(13.9239 2.96311 0)
(13.885 2.93443 -1.53171e-19)
(13.8459 2.90898 3.12766e-19)
(13.8069 2.88667 3.14182e-19)
(13.7681 2.86733 7.60845e-20)
(12.5924 4.48686 0)
(12.7056 4.49295 -1.27104e-18)
(12.8089 4.49487 1.01821e-17)
(12.9048 4.49432 -1.03861e-17)
(12.9946 4.48985 -2.05314e-17)
(13.0797 4.48203 2.10311e-17)
(13.1612 4.47124 1.02298e-17)
(13.2399 4.4574 -2.12004e-17)
(13.3162 4.44026 -2.09048e-17)
(13.3904 4.41963 2.12421e-17)
(13.4627 4.39537 0)
(13.5333 4.36712 -1.04818e-17)
(13.6017 4.33435 2.07388e-17)
(13.6674 4.29656 -2.34234e-17)
(13.7303 4.25353 0)
(13.7898 4.20523 -2.5802e-18)
(13.8452 4.15161 2.52303e-18)
(13.8959 4.09271 0)
(13.9412 4.0287 1.16793e-18)
(13.9805 3.9599 -2.30882e-18)
(14.0127 3.8867 1.05245e-17)
(14.0361 3.81565 -1.03416e-17)
(14.0518 3.74921 1.16046e-18)
(14.0615 3.68377 8.50608e-18)
(14.0654 3.61982 -8.4578e-18)
(14.0639 3.55786 5.52239e-19)
(14.0576 3.49827 -5.09546e-18)
(14.0469 3.44137 4.52044e-18)
(14.0323 3.38738 5.77551e-19)
(14.0143 3.33647 0)
(13.9934 3.28874 0)
(13.9699 3.24424 0)
(13.9443 3.20298 -2.32043e-18)
(13.917 3.16491 2.30949e-18)
(13.8882 3.12991 -2.87823e-19)
(13.8583 3.09795 -2.35063e-18)
(13.8277 3.06897 2.63487e-18)
(13.7965 3.04277 0)
(13.765 3.01921 4.11374e-21)
(13.7333 2.99822 -5.9269e-19)
(13.7017 2.97976 2.87741e-19)
(12.6214 4.38305 4.70616e-18)
(12.723 4.38699 0)
(12.8155 4.3873 -2.3694e-17)
(12.9013 4.38534 1.94397e-17)
(12.9814 4.37987 0)
(13.0571 4.37145 1.95875e-17)
(13.1293 4.36046 -1.60464e-19)
(13.1988 4.34685 1.99487e-17)
(13.2659 4.33044 -3.05371e-17)
(13.3308 4.3111 -2.01648e-17)
(13.3939 4.28872 2.0488e-17)
(13.4551 4.26305 5.02099e-18)
(13.5142 4.2337 0)
(13.5708 4.20029 0)
(13.6246 4.16269 -5.10019e-18)
(13.6755 4.12089 2.23713e-17)
(13.7227 4.07488 -4.40906e-17)
(13.766 4.02472 1.93176e-17)
(13.8047 3.97054 2.40959e-18)
(13.8383 3.9126 2.38478e-18)
(13.8662 3.85118 -1.13173e-18)