/*--------------------------------*- C++ -*----------------------------------*\
| =========                 |                                                 |
| \\      /  F ield         | OpenFOAM: The Open Source CFD Toolbox           |
|  \\    /   O peration     | Version:  5.x                                   |
|   \\  /    A nd           | Web:      www.OpenFOAM.org                      |
|    \\/     M anipulation  |                                                 |
\*---------------------------------------------------------------------------*/
FoamFile
{
    version     2.0;
    format      ascii;
    class       volVectorField;
    location    "550";
    object      U;
}
// * * * * * * * * * * * * * * * * * * * * * * * * * * * * * * * * * * * * * //

dimensions      [0 1 -1 0 0 0 0];

internalField   nonuniform List<vector> 
11040
(
(-3.52963 22.5312 0)
(-0.130564 28.3498 -1.72145e-19)
(5.88825 32.0307 1.67632e-17)
(11.6869 31.5813 1.96512e-17)
(16.369 29.212 4.34504e-17)
(19.8286 25.8821 -2.14032e-17)
(22.1831 22.1551 -2.1302e-17)
(23.6088 18.3939 2.17609e-17)
(24.2747 14.8311 4.95056e-17)
(24.2683 11.5547 1.61509e-18)
(23.2725 8.30514 2.44469e-17)
(21.6983 5.61155 -1.3186e-18)
(20.4052 3.92326 2.10491e-17)
(19.7059 3.00808 1.98928e-17)
(19.1032 2.28091 1.58332e-17)
(18.3169 1.57603 9.32221e-18)
(17.373 0.937012 -7.30631e-18)
(16.3627 0.389204 -6.01381e-19)
(15.3141 -0.0720993 6.25717e-19)
(14.2252 -0.452198 3.29949e-18)
(13.0849 -0.753739 2.18573e-18)
(12.0438 -0.950182 1.23932e-18)
(11.1006 -1.06885 3.81493e-19)
(10.1508 -1.14251 -1.56487e-19)
(9.18978 -1.1756 -6.74073e-20)
(8.21528 -1.17049 2.22428e-19)
(7.22316 -1.13005 -1.9336e-17)
(6.20793 -1.05849 4.3878e-19)
(5.15938 -0.956644 -3.46193e-17)
(4.08231 -0.817316 4.42303e-17)
(3.02282 -0.645166 8.67351e-19)
(1.98702 -0.456593 6.05646e-19)
(1.0183 -0.259983 -7.62254e-19)
(0.141522 -0.0679601 0)
(-0.586083 0.111048 2.80036e-16)
(-1.11086 0.278666 0)
(-1.7642 0.508172 0)
(-2.77119 0.755897 -3.2523e-19)
(-3.80151 0.799344 3.13317e-19)
(-4.14818 0.310278 -1.25995e-16)
(-2.60913 -0.450612 -1.54062e-16)
(0.135622 21.9581 0)
(4.03559 26.3623 0)
(11.3232 28.3535 -9.88629e-18)
(17.7257 27.6557 1.07683e-17)
(22.5234 25.8074 -2.6937e-17)
(26.0742 23.671 2.83931e-17)
(28.6051 21.2719 1.37279e-17)
(30.2077 18.6446 1.80785e-18)
(30.9968 15.8828 -1.06763e-18)
(31.112 13.1152 1.55507e-17)
(30.4619 10.2216 -1.7548e-18)
(28.8884 7.68148 0)
(26.9539 5.84341 0)
(25.2684 4.5366 -1.04912e-17)
(23.9063 3.38124 -1.06703e-17)
(22.6217 2.3823 -7.34954e-18)
(21.3447 1.55737 0)
(20.0782 0.872782 3.40459e-19)
(18.8095 0.301759 -9.19925e-19)
(17.5223 -0.166406 -4.46757e-19)
(16.2023 -0.538162 -1.36868e-18)
(14.9978 -0.792358 -6.71868e-19)
(13.9307 -0.95725 1.95181e-20)
(12.8727 -1.06904 -9.62578e-19)
(11.8134 -1.1332 1.93256e-18)
(10.7453 -1.15354 2.1649e-19)
(9.6614 -1.13395 9.30548e-18)
(8.55437 -1.07745 -2.051e-19)
(7.42151 -0.986618 1.55253e-17)
(6.25996 -0.86247 -1.89138e-17)
(5.06357 -0.707332 -2.30484e-17)
(3.85428 -0.530037 2.78e-17)
(2.66308 -0.34256 2.26239e-20)
(1.536 -0.155205 -8.91348e-19)
(0.532105 0.0249308 -4.62947e-17)
(-0.279282 0.196303 0)
(-1.16989 0.447432 -3.75983e-19)
(-2.14467 0.743809 8.1937e-17)
(-2.6985 0.922957 7.24637e-17)
(-2.34265 0.537821 6.73655e-17)
(-1.8925 -0.782021 1.10558e-16)
(2.04514 21.2219 0)
(5.7091 24.5868 0)
(10.8714 26.5216 2.7247e-18)
(15.8306 26.7992 -7.74092e-18)
(19.955 25.8206 8.26109e-18)
(23.4087 24.0613 -1.04971e-17)
(26.2513 21.819 -8.48317e-18)
(28.4405 19.3005 0)
(29.9631 16.6507 -1.3737e-17)
(30.8604 13.9757 -8.13736e-18)
(31.0939 11.203 0)
(30.466 8.72979 0)
(29.2564 6.81985 -8.45103e-18)
(27.9334 5.35677 -7.66703e-18)
(26.6381 4.04835 -8.15532e-19)
(25.2977 2.91109 8.41923e-19)
(23.9133 1.9609 0)
(22.5258 1.1683 0)
(21.1429 0.508103 2.23376e-19)
(19.7519 -0.0328132 -2.73191e-19)
(18.3374 -0.463288 2.78253e-19)
(17.0509 -0.767817 -4.24975e-19)
(15.9139 -0.96671 -1.02012e-19)
(14.7926 -1.10413 -5.27085e-19)
(13.6766 -1.1881 -8.50376e-20)
(12.5577 -1.2236 -1.43976e-19)
(11.428 -1.21509 -9.0482e-20)
(10.2795 -1.16598 2.2826e-19)
(9.10635 -1.07932 0)
(7.90413 -0.957979 0)
(6.66967 -0.806138 2.76358e-17)
(5.41241 -0.632158 -3.16481e-17)
(4.1533 -0.447097 1.79924e-17)
(2.92942 -0.263147 0)
(1.7871 -0.0876255 2.40993e-17)
(0.806875 0.091961 2.79708e-17)
(-0.128323 0.331406 0)
(-1.0142 0.542772 2.82066e-19)
(-1.52234 0.593136 -1.96294e-19)
(-1.32864 0.143868 0)
(-1.71053 -1.25532 -5.24448e-17)
(3.92898 20.3348 5.32574e-20)
(7.35589 22.9736 -4.93865e-20)
(11.3887 24.5983 7.86375e-19)
(15.6975 25.0248 0)
(19.5745 24.3301 -9.70907e-18)
(22.8387 22.9063 0)
(25.5041 21.0138 1.92986e-17)
(27.5704 18.8145 -6.30297e-20)
(29.0578 16.448 1.93524e-18)
(30.0214 14.0308 1.29701e-17)
(30.4733 11.5317 1.91153e-18)
(30.2899 9.21907 5.26729e-18)
(29.6046 7.35299 1.49974e-17)
(28.7372 5.89464 6.09327e-18)
(27.8135 4.59272 0)
(26.7641 3.42136 -1.11859e-18)
(25.5769 2.40528 1.95809e-19)
(24.3021 1.53675 -7.5791e-19)
(22.9728 0.800693 -3.02449e-19)
(21.5987 0.1886 3.08034e-19)
(20.1788 -0.304964 6.70643e-19)
(18.8754 -0.658512 3.86174e-19)
(17.7158 -0.894487 0)
(16.569 -1.06297 1.02947e-18)
(15.427 -1.1728 -1.1971e-18)
(14.2833 -1.22952 1.72817e-18)
(13.1306 -1.2381 -4.72384e-18)
(11.9614 -1.20251 0)
(10.7688 -1.12635 0)
(9.54784 -1.01344 0)
(8.29525 -0.868949 -9.98028e-18)
(7.0142 -0.701217 1.17455e-17)
(5.71648 -0.521719 -4.12293e-19)
(4.42655 -0.343906 -1.49329e-17)
(3.17732 -0.175559 -1.57657e-17)
(2.0493 0.003306 -1.86175e-17)
(1.04195 0.226944 -4.02103e-17)
(0.163776 0.383008 -4.12034e-17)
(-0.463495 0.366363 -1.61563e-19)
(-0.45119 -0.0808319 -3.71548e-17)
(-1.43606 -1.45726 2.16404e-17)
(5.7903 19.32 0)
(8.8155 21.3897 -4.51595e-20)
(12.04 22.717 -4.73096e-19)
(15.5821 23.283 3.07303e-19)
(18.9644 22.988 7.17027e-18)
(21.9547 22.0104 -7.78265e-18)
(24.5218 20.5078 -1.897e-18)
(26.6049 18.6144 -9.96076e-18)
(28.1617 16.4778 0)
(29.2135 14.2313 -1.20155e-17)
(29.7828 11.8909 0)
(29.8077 9.66584 -3.01797e-18)
(29.3776 7.80382 -7.94597e-18)
(28.7454 6.32176 0)
(28.0595 5.02349 4.20083e-18)
(27.2775 3.85011 0)
(26.3588 2.81576 0)
(25.3221 1.91631 7.86041e-19)
(24.1889 1.13867 6.39347e-19)
(22.9686 0.477252 0)
(21.6643 -0.068115 -5.46516e-19)
(20.4382 -0.46781 0)
(19.3269 -0.742323 0)
(18.2142 -0.944826 -3.69916e-19)
(17.0968 -1.08415 0)
(15.9713 -1.16618 1.34589e-18)
(14.8327 -1.19613 3.6776e-18)
(13.6752 -1.17845 0)
(12.4929 -1.11722 0)
(11.2808 -1.01696 0)
(10.0354 -0.88358 8.1529e-18)
(8.75666 -0.72593 7.8731e-18)
(7.44904 -0.556097 -9.47586e-18)
(6.12546 -0.387916 -3.25393e-19)
(4.80418 -0.230879 3.73653e-19)
(3.55062 -0.0658256 0)
(2.43085 0.132049 2.96003e-17)
(1.48939 0.251167 -3.15684e-17)
(0.695209 0.194225 3.34871e-17)
(0.466094 -0.198664 3.46781e-17)
(-0.871374 -1.47921 4.00243e-20)
(7.50321 18.2219 -1.3621e-19)
(10.0995 19.8391 6.61162e-20)
(12.7214 20.91 3.12135e-20)
(15.5999 21.5179 2.84125e-19)
(18.4933 21.4902 -1.14901e-18)
(21.1784 20.8712 7.6304e-18)
(23.5827 19.7551 -9.46395e-18)
(25.6267 18.2289 8.1534e-18)
(27.2345 16.4067 3.99099e-18)
(28.3891 14.4078 -2.0499e-18)
(29.097 12.2718 0)
(29.3101 10.1622 0)
(29.0763 8.30518 1.85375e-18)
(28.5914 6.77189 -1.95507e-18)
(28.0186 5.44305 -6.67882e-18)
(27.3706 4.25403 1.40109e-18)
(26.6186 3.20348 -2.66096e-18)
(25.7687 2.28596 1.42806e-19)
(24.8313 1.48633 -7.89006e-19)
(23.806 0.796343 1.367e-18)
(22.6865 0.21647 -1.17307e-18)
(21.6118 -0.218699 2.57201e-19)
(20.6186 -0.52605 -7.85797e-20)
(19.6081 -0.760203 1.20197e-19)
(18.5796 -0.929281 -8.08881e-19)
(17.5319 -1.03874 -1.43292e-20)
(16.4623 -1.09344 -3.38535e-18)
(15.3668 -1.09774 -3.2909e-18)
(14.2409 -1.05588 0)
(13.0805 -0.972693 0)
(11.8821 -0.854535 -5.66948e-18)
(10.6437 -0.710632 -1.40053e-17)
(9.36535 -0.553452 -4.83665e-19)
(8.05128 -0.397071 8.3859e-18)
(6.70677 -0.253212 9.82781e-18)
(5.3741 -0.109995 -1.05798e-17)
(4.1355 0.0507557 3.50155e-19)
(3.07487 0.137147 4.86663e-17)
(2.10713 0.0533262 -5.29827e-17)
(1.55864 -0.272895 1.15275e-19)
(0.0991611 -1.35387 2.08646e-17)
(9.04464 17.0799 0)
(11.2398 18.3372 -2.4681e-19)
(13.3918 19.1968 -1.3368e-19)
(15.7247 19.7784 1.61824e-19)
(18.1439 19.9153 1.56551e-18)
(20.4835 19.5798 2.72642e-18)
(22.6658 18.8075 -6.20325e-18)
(24.61 17.6418 2.35352e-18)
(26.2246 16.1592 0)
(27.4643 14.454 2.99519e-18)
(28.3174 12.5724 -5.95977e-18)
(28.7328 10.6376 5.98454e-18)
(28.7143 8.83899 -2.47961e-19)
(28.3942 7.2808 0)
(27.9251 5.91711 1.44933e-18)
(27.3627 4.70036 1.68224e-19)
(26.7038 3.62157 1.13423e-18)
(25.9583 2.67728 9.08228e-19)
(25.1417 1.85391 -3.54834e-19)
(24.2571 1.14054 -3.85804e-19)
(23.2969 0.535111 5.62032e-19)
(22.3748 0.0741543 2.90938e-19)
(21.5195 -0.257738 0)
(20.6446 -0.51693 1.95719e-19)
(19.7482 -0.711305 7.15283e-19)
(18.8283 -0.845971 -9.89839e-19)
(17.8817 -0.925292 9.20041e-19)
(16.9048 -0.953229 3.01437e-18)
(15.893 -0.933761 -4.79439e-19)
(14.8419 -0.871598 -5.77823e-20)
(13.7473 -0.773077 -3.55191e-18)
(12.6053 -0.647281 -1.27728e-18)
(11.4127 -0.506499 -5.15876e-18)
(10.1674 -0.364713 0)
(8.86562 -0.235306 -7.1007e-18)
(7.52743 -0.116288 8.28117e-18)
(6.2157 0.00139845 -8.78081e-18)
(5.025 0.0532991 -3.70865e-17)
(3.88885 -0.0491675 2.01404e-17)
(3.025 -0.314075 9.09898e-20)
(1.48954 -1.14569 -4.40959e-17)
(10.4061 15.9272 8.94741e-19)
(12.249 16.9003 -2.43793e-19)
(14.0255 17.5872 -2.25307e-19)
(15.9207 18.1061 -3.41944e-19)
(17.9129 18.3243 -1.14046e-18)
(19.8996 18.1889 -3.38033e-18)
(21.8192 17.6979 3.65333e-18)
(23.6027 16.8601 4.97096e-18)
(25.1617 15.7148 -3.53123e-18)
(26.4374 14.3248 0)
(27.404 12.7308 -2.14907e-18)
(28.0057 11.0223 3.74069e-20)
(28.211 9.34657 -9.36359e-20)
(28.0901 7.81547 2.01512e-18)
(27.7636 6.43975 1.8653e-18)
(27.3056 5.20259 -1.93327e-18)
(26.7359 4.09607 0)
(26.0706 3.1196 0)
(25.3315 2.26558 1.28383e-18)
(24.5317 1.52418 -1.07725e-18)
(23.6722 0.892103 1.42603e-19)
(22.8553 0.407176 -3.04986e-19)
(22.1055 0.0539138 -2.67218e-20)
(21.346 -0.226123 0)
(20.5744 -0.441166 2.87598e-19)
(19.7878 -0.596709 -2.93911e-19)
(18.9824 -0.69722 -9.66911e-19)
(18.1534 -0.746627 0)
(17.2955 -0.748807 0)
(16.403 -0.708299 4.38048e-19)
(15.4694 -0.631178 3.83624e-18)
(14.4878 -0.526012 3.70964e-18)
(13.4508 -0.404401 8.5937e-18)
(12.3504 -0.27977 6.1026e-19)
(11.1757 -0.1661 0)
(9.92977 -0.0697365 -3.68874e-19)
(8.64373 0.00752429 6.76492e-18)
(7.38707 0.0238139 -3.09642e-20)
(6.12506 -0.09161 1.55825e-17)
(5.00947 -0.32306 1.70982e-17)
(3.37144 -0.904967 2.03084e-17)
(11.5923 14.7919 -5.49665e-19)
(13.1358 15.5424 -5.7948e-21)
(14.6082 16.0883 4.80818e-19)
(16.1537 16.5307 -7.15896e-19)
(17.7809 16.7725 0)
(19.4347 16.762 1.0363e-18)
(21.0771 16.4798 -1.92531e-18)
(22.6578 15.9138 -3.02169e-18)
(24.1032 15.0749 2.1797e-18)
(25.3546 13.9963 2.85893e-18)
(26.3798 12.7041 1.85632e-19)
(27.1216 11.2579 -5.81558e-18)
(27.5266 9.76304 0)
(27.6145 8.32001 1.32018e-18)
(27.4641 6.97367 -3.08684e-18)
(27.1454 5.73984 -1.28961e-18)
(26.6915 4.62037 -1.12996e-18)
(26.1238 3.61905 1.16756e-18)
(25.4664 2.73493 -4.18442e-19)
(24.7392 1.96241 0)
(23.9519 1.30005 4.44964e-19)
(23.2042 0.788396 -5.899e-19)
(22.5222 0.411794 -4.2267e-20)
(21.8387 0.10996 -1.0967e-19)
(21.1539 -0.125569 4.69757e-19)
(20.4669 -0.30088 -4.79552e-19)
(19.7755 -0.420901 0)
(19.0764 -0.48989 2.44256e-18)
(18.3652 -0.511951 1.13499e-18)
(17.6365 -0.491691 6.24039e-19)
(16.8835 -0.43501 -2.95692e-18)
(16.0975 -0.349929 -8.50313e-19)
(15.2677 -0.24717 8.13265e-19)
(14.3807 -0.139383 -4.91685e-19)
(13.4188 -0.0404871 -3.07915e-18)
(12.3716 0.0381452 -5.45816e-19)
(11.2415 0.0861682 0)
(10.0571 0.0743169 1.04769e-17)
(8.78605 -0.0467237 -1.14246e-17)
(7.55261 -0.263473 -1.24804e-17)
(5.8361 -0.664105 0)
(12.6144 13.6968 0)
(13.9075 14.2741 0)
(15.132 14.7048 0)
(16.3978 15.0699 2.12058e-18)
(17.7229 15.3005 -7.33974e-19)
(19.0814 15.3564 1.44395e-19)
(20.4556 15.2147 -1.76978e-19)
(21.8143 14.8548 -4.25431e-19)
(23.1037 14.2713 1.19901e-18)
(24.2748 13.4741 1.81177e-18)
(25.2967 12.4743 -1.7712e-18)
(26.1163 11.3043 2.38544e-18)
(26.6709 10.032 -2.21583e-19)
(26.9461 8.73469 2.22397e-18)
(26.9804 7.46918 -3.97401e-18)
(26.8246 6.27515 3.16201e-18)
(26.5129 5.16879 1.67383e-18)
(26.0691 4.16077 -1.72536e-18)
(25.5174 3.25734 6.51145e-19)
(24.8799 2.45868 0)
(24.1712 1.76668 5.53891e-19)
(23.4884 1.22687 -4.13356e-19)
(22.8612 0.82468 6.61812e-20)
(22.2329 0.498455 -1.51883e-19)
(21.6069 0.239798 5.47202e-19)
(20.9852 0.0422925 0)
(20.3689 -0.0993486 0)
(19.7579 -0.189692 -7.26249e-19)
(19.1511 -0.233086 -4.54412e-18)
(18.5464 -0.234225 -2.09608e-18)
(17.9401 -0.198795 2.39701e-18)
(17.3261 -0.134161 6.72972e-19)
(16.6948 -0.049945 -3.52942e-18)
(16.0328 0.0423099 -7.6865e-19)
(15.3201 0.129312 4.80958e-18)
(14.5383 0.197606 -8.32072e-19)
(13.6701 0.23269 -3.55565e-18)
(12.7105 0.211507 4.73847e-19)
(11.6061 0.10074 7.61728e-18)
(10.4578 -0.0918471 0)
(8.80923 -0.393344 0)
(13.4868 12.6594 0)
(14.5718 13.1021 0)
(15.5933 13.4388 -2.05059e-19)
(16.6343 13.7325 -1.87972e-18)
(17.7136 13.9346 0)
(18.8213 14.017 -8.98447e-19)
(19.9529 13.9605 2.66293e-19)
(21.0923 13.7445 0)
(22.2045 13.356 -1.59741e-18)
(23.2541 12.7919 1.85304e-19)
(24.217 12.0519 -4.01322e-19)
(25.049 11.1477 1.32207e-18)
(25.6894 10.1156 -1.66027e-18)
(26.1059 9.00654 0)
(26.3057 7.87215 -2.44406e-18)
(26.3147 6.76154 2.86999e-18)
(26.158 5.70311 0)
(25.8571 4.71564 0)
(25.4334 3.8127 3.47809e-19)
(24.9086 3.00128 -1.41232e-18)
(24.299 2.28771 5.84208e-19)
(23.6953 1.7235 0)
(23.1305 1.29673 1.34808e-19)
(22.5594 0.945599 2.40595e-19)
(21.9875 0.662165 -3.90905e-19)
(21.4191 0.440029 3.89164e-19)
(20.8579 0.273761 0)
(20.3063 0.158604 0)
(19.7664 0.0900393 -7.59248e-19)
(19.2396 0.0633516 3.38878e-18)
(18.726 0.0731571 -1.88018e-18)
(18.2243 0.112899 1.97048e-18)
(17.7304 0.174361 1.07935e-18)
(17.2361 0.247724 0)
(16.7267 0.321409 1.84775e-18)
(16.1853 0.382607 -1.90002e-20)
(15.5893 0.416787 6.17044e-18)
(14.9195 0.406044 0)
(14.1086 0.325917 -6.03225e-18)
(13.2274 0.184332 6.52855e-18)
(11.8754 -0.0509255 0)
(14.225 11.6915 0)
(15.1372 12.03 -1.34283e-18)
(15.9917 12.2905 1.18452e-18)
(16.851 12.5216 0)
(17.7321 12.6889 1.28566e-18)
(18.6326 12.7738 -9.46162e-19)
(19.5551 12.7629 -2.51543e-18)
(20.4938 12.6391 1.13047e-18)
(21.4278 12.3882 9.87207e-20)
(22.3347 12.0022 1.5877e-18)
(23.1987 11.4747 -1.76058e-18)
(23.9874 10.8041 -5.64764e-19)
(24.6496 10.004 1.49283e-18)
(25.1479 9.10181 -7.14082e-19)
(25.4711 8.13515 2.86806e-18)
(25.6234 7.14933 -1.81238e-18)
(25.6157 6.17748 -7.12484e-19)
(25.4618 5.24424 -3.18843e-19)
(25.1779 4.36921 -8.94117e-19)
(24.7823 3.56596 1.73594e-18)
(24.2905 2.84589 -7.45948e-19)
(23.7827 2.26684 -3.13848e-21)
(23.2942 1.82103 1.26771e-20)
(22.7919 1.4483 0)
(22.2829 1.14165 -7.61242e-19)
(21.7729 0.895106 2.35443e-19)
(21.2667 0.70333 1.32525e-18)
(20.7685 0.561552 -9.23471e-19)
(20.2817 0.465204 2.44504e-18)
(19.8094 0.409589 -1.27039e-18)
(19.3542 0.389571 0)
(18.9177 0.399273 -2.43836e-18)
(18.5 0.431779 -8.55967e-19)
(18.0988 0.479131 9.62831e-19)
(17.7068 0.532158 -5.94728e-18)
(17.3146 0.580711 -1.04126e-18)
(16.9057 0.613151 -2.17159e-18)
(16.464 0.617728 2.23493e-18)
(15.9314 0.57617 2.33459e-18)
(15.3516 0.499751 -4.75926e-18)
(14.4248 0.340007 -1.61726e-19)
(14.8444 10.8007 0)
(15.6126 11.0582 7.61348e-20)
(16.3292 11.2575 1.07263e-18)
(17.0411 11.4356 3.50833e-18)
(17.7625 11.568 -2.34892e-18)
(18.4946 11.6432 4.6318e-19)
(19.243 11.6523 9.48507e-20)
(20.0075 11.5831 -2.9633e-18)
(20.7768 11.4233 2.22971e-20)
(21.5382 11.1639 -3.25848e-20)
(22.2835 10.797 7.53817e-19)
(22.9912 10.3151 -7.52982e-19)
(23.6224 9.7181 -4.44039e-19)
(24.1439 9.0162 6.16883e-19)
(24.5372 8.23174 0)
(24.7927 7.39873 0)
(24.9086 6.54703 2.40249e-18)
(24.8886 5.70219 -6.88647e-21)
(24.7414 4.88666 -1.58305e-18)
(24.4798 4.11849 8.12717e-20)
(24.1156 3.41336 -1.24142e-19)
(23.7153 2.83453 -2.35658e-20)
(23.3143 2.37976 1.41915e-19)
(22.8919 1.9927 0)
(22.4561 1.66794 -1.0815e-19)
(22.0137 1.40042 1.22037e-18)
(21.5703 1.18534 -1.58066e-18)
(21.1306 1.01816 1.76005e-18)
(20.6987 0.894436 -1.30753e-18)
(20.2782 0.809603 0)
(19.8723 0.758832 1.18862e-18)
(19.4833 0.736823 2.66902e-18)
(19.113 0.737659 -1.36018e-18)
(18.7615 0.754849 1.531e-18)
(18.4259 0.78129 8.55791e-19)
(18.1029 0.809688 -1.62164e-18)
(17.7839 0.832013 2.55188e-18)
(17.4603 0.841941 -1.78828e-18)
(17.0967 0.827838 -1.38177e-18)
(16.7168 0.80191 -2.30939e-19)
(16.1468 0.720561 3.76158e-18)
(15.3598 9.99034 -1.27211e-18)
(16.0077 10.1852 -4.44275e-18)
(16.6098 10.3356 4.33325e-18)
(17.2014 10.4699 0)
(17.7939 10.5708 -1.87265e-19)
(18.3902 10.6311 0)
(18.9965 10.6455 -6.90806e-18)
(19.6153 10.6057 5.11066e-18)
(20.2411 10.5025 2.54897e-18)
(20.8675 10.3278 -2.85118e-18)
(21.4912 10.0751 5.10536e-19)
(22.0998 9.73512 -2.96783e-19)
(22.6659 9.3014 3.88475e-19)
(23.164 8.77415 5.51938e-19)
(23.5759 8.16384 1.49995e-19)
(23.8871 7.49187 -7.05689e-19)
(24.0876 6.78014 6.40146e-19)
(24.1729 6.05026 -7.46894e-19)
(24.1442 5.32345 0)
(24.0073 4.61888 -1.39948e-19)
(23.7688 3.95424 3.70042e-19)
(23.4788 3.39535 -2.05071e-19)
(23.1705 2.94599 7.16916e-21)
(22.8341 2.55589 0)
(22.4781 2.22165 8.8729e-20)
(22.1098 1.93973 1.25511e-19)
(21.7352 1.70642 0)
(21.3598 1.51783 0)
(20.9879 1.36994 3.66371e-21)
(20.6229 1.25861 0)
(20.2681 1.17945 -1.44594e-18)
(19.9259 1.1278 0)
(19.598 1.09867 2.26599e-18)
(19.2851 1.08678 -2.34278e-18)
(18.9859 1.08658 0)
(18.6989 1.09284 1.3267e-18)
(18.4207 1.10025 -1.38061e-18)
(18.1466 1.10538 6.91758e-19)
(17.8597 1.10229 2.19104e-18)
(17.5716 1.09999 -1.93765e-19)
(17.2025 1.07309 -4.53896e-18)
(15.7853 9.26096 3.37944e-18)
(16.3322 9.40725 1.25803e-19)
(16.8388 9.51878 -1.91138e-18)
(17.3316 9.61778 -3.50098e-18)
(17.8198 9.69162 -7.65895e-18)
(18.3067 9.73604 8.89303e-18)
(18.7983 9.74817 -4.08659e-19)
(19.2979 9.7226 -4.11166e-18)
(19.8034 9.65276 7.67295e-18)
(20.3117 9.53259 -6.4352e-19)
(20.8228 9.3569 -3.37783e-18)
(21.3299 9.11762 8.98777e-19)
(21.8152 8.80656 -1.13649e-18)
(22.2607 8.4194 1.90245e-18)
(22.6523 7.95929 -2.96988e-19)
(22.9757 7.43766 0)
(23.2185 6.86797 -6.33153e-20)
(23.3721 6.2655 1.48681e-19)
(23.4317 5.64709 4.10108e-19)
(23.3974 5.02975 -1.0153e-18)
(23.2704 4.43027 7.36145e-19)
(23.0836 3.91262 -7.15128e-20)
(22.8657 3.48572 -5.96081e-21)
(22.6153 3.1071 -1.32907e-18)
(22.3405 2.7755 2.92709e-18)
(22.0482 2.48908 -1.71459e-18)
(21.7448 2.24552 2.02106e-18)
(21.4359 2.04209 -2.47282e-18)
(21.1259 1.87567 -3.0277e-18)
(20.8186 1.74283 2.73408e-18)
(20.517 1.63991 7.82155e-19)
(20.2234 1.56304 1.31455e-18)
(19.9395 1.50819 -4.05388e-18)
(19.6661 1.47122 3.82524e-18)
(19.4024 1.44783 -1.96289e-18)
(19.1478 1.43428 -1.04571e-18)
(18.9007 1.42701 0)
(18.6583 1.42364 -1.14411e-18)
(18.4131 1.42136 -1.1836e-18)
(18.1705 1.42482 -1.20796e-18)
(17.8964 1.42164 1.2556e-18)
(16.1334 8.61051 4.16928e-21)
(16.5952 8.71906 4.58649e-19)
(17.0218 8.80002 1.67726e-18)
(17.4331 8.87096 -3.00819e-18)
(17.8365 8.92259 1.18992e-17)
(18.2353 8.95242 -1.0176e-17)
(18.6347 8.95907 1.27955e-17)
(19.0381 8.93914 6.31112e-18)
(19.4451 8.88813 -3.14383e-18)
(19.8545 8.80174 -8.93536e-19)
(20.2676 8.67626 -7.22409e-18)
(20.681 8.50557 2.74723e-19)
(21.0836 8.28213 0)
(21.4638 8.00047 -6.77195e-19)
(21.8115 7.66016 8.21313e-19)
(22.1156 7.26629 -1.00773e-18)
(22.365 6.82582 0)
(22.55 6.34793 1.29564e-18)
(22.6636 5.84411 -2.88718e-18)
(22.7019 5.32729 1.02879e-18)
(22.6623 4.81111 -1.76288e-18)
(22.5625 4.3531 1.98428e-18)
(22.4251 3.9653 7.84069e-20)
(22.2539 3.61359 -3.50332e-20)
(22.0558 3.29858 3.04895e-18)
(21.8368 3.02002 -3.0772e-18)
(21.6029 2.77704 1.08512e-19)
(21.3593 2.5681 2.43603e-19)
(21.1104 2.39119 -2.28842e-18)
(20.86 2.2439 2.60975e-18)
(20.611 2.12357 -3.20336e-19)
(20.3658 2.0273 3.44032e-19)
(20.1262 1.95209 -1.4989e-18)
(19.8931 1.89481 7.03752e-19)
(19.6665 1.85228 3.23604e-18)
(19.4463 1.82187 -8.06759e-19)
(19.2321 1.8012 8.93671e-19)
(19.022 1.78832 -1.80052e-18)
(18.8128 1.78157 9.34329e-19)
(18.6072 1.78273 9.775e-19)
(18.3898 1.78441 0)
(16.415 8.03414 -5.15122e-18)
(16.8048 8.11323 9.23733e-18)
(17.1639 8.17047 8.70287e-18)
(17.5075 8.21977 -2.29006e-17)
(17.8414 8.25395 8.49335e-18)
(18.1688 8.27166 -1.75414e-17)
(18.4942 8.27241 1.4224e-17)
(18.8205 8.25408 -2.06279e-17)
(19.148 8.21361 1.88657e-17)
(19.4767 8.14805 -6.13768e-19)
(19.808 8.05493 -7.69281e-18)
(20.1406 7.92969 -7.30624e-19)
(20.4676 7.76651 -5.85507e-18)
(20.7816 7.56048 5.77588e-18)
(21.0762 7.30992 -4.58364e-18)
(21.3437 7.01663 4.98692e-18)
(21.5753 6.68358 0)
(21.7629 6.31556 -3.4552e-18)
(21.8993 5.91942 4.25758e-18)
(21.9795 5.50379 -3.98149e-18)
(21.9987 5.07839 -2.32668e-19)
(21.9637 4.69123 6.68844e-18)
(21.8907 4.35503 1.03708e-19)
(21.7857 4.04345 -2.59701e-18)
(21.6541 3.75827 -4.97028e-24)
(21.5007 3.5004 0)
(21.3303 3.2701 -3.44939e-18)
(21.1476 3.06693 3.41042e-18)
(20.9564 2.8899 0)
(20.7602 2.73761 -2.50751e-19)
(20.5616 2.60838 0)
(20.3631 2.50029 2.35111e-18)
(20.1665 2.41132 -2.66029e-18)
(19.9732 2.33936 -2.579e-18)
(19.7834 2.28213 5.2701e-18)
(19.5977 2.23787 -3.0339e-18)
(19.4167 2.20499 -3.54312e-19)
(19.2393 2.18184 7.37036e-19)
(19.0643 2.16724 -7.5994e-19)
(18.8932 2.1616 0)
(18.7196 2.15967 -7.80825e-19)
(16.6311 7.54903 0)
(16.9624 7.60633 -1.25327e-17)
(17.2669 7.64644 5.66325e-19)
(17.5563 7.6801 1.67372e-17)
(17.8353 7.7016 1.02433e-17)
(18.107 7.71033 -1.05244e-17)
(18.3751 7.70631 9.5778e-18)
(18.6421 7.68819 9.15898e-18)
(18.9087 7.65385 1.71872e-17)
(19.1751 7.60127 -2.17375e-17)
(19.4427 7.52876 2.11819e-18)
(19.7111 7.43306 2.03209e-18)
(19.9759 7.3097 -7.00456e-18)
(20.2323 7.15478 5.08844e-18)
(20.4765 6.96658 7.08571e-18)
(20.703 6.74548 -5.38497e-18)
(20.9059 6.49255 -6.24344e-18)
(21.0787 6.21006 6.36972e-18)
(21.2157 5.90187 0)
(21.3119 5.57333 7.22295e-19)
(21.3624 5.23085 7.23023e-19)
(21.3676 4.91255 5.5206e-18)
(21.3385 4.63016 -1.11944e-17)
(21.2814 4.36365 5.79771e-18)
(21.2001 4.11515 3.12706e-18)
(21.0982 3.88613 4.56909e-20)
(20.9794 3.67748 -3.29799e-18)
(20.8474 3.48949 5.31859e-20)
(20.7054 3.32191 3.75974e-21)
(20.5562 3.17412 3.96585e-18)
(20.4022 3.0452 -4.00672e-18)
(20.2457 2.93404 -2.17657e-18)
(20.0883 2.83936 2.32101e-18)
(19.9314 2.75979 -2.34535e-18)
(19.7759 2.69377 2.04688e-18)
(19.6224 2.64016 1.86748e-18)
(19.472 2.59793 -9.33201e-19)
(19.3243 2.56575 3.25992e-19)
(19.1793 2.54269 0)
(19.0378 2.52866 0)
(18.8978 2.51999 8.06988e-21)
(16.7912 7.15874 -5.76653e-18)
(17.0765 7.20055 6.42483e-18)
(17.3383 7.22851 -2.69887e-18)
(17.5858 7.25095 -5.1797e-18)
(17.8229 7.26323 0)
(18.0523 7.26525 9.84799e-18)
(18.2772 7.25732 -2.34887e-17)
(18.4998 7.23853 1.44749e-17)
(18.7207 7.20739 -4.6368e-18)
(18.9405 7.1625 4.19307e-18)
(19.1602 7.10272 -2.01993e-18)
(19.3799 7.02574 -1.80508e-17)
(19.5966 6.92826 3.17702e-17)
(19.8073 6.80727 -1.36388e-17)
(20.0092 6.6613 -1.63561e-18)
(20.199 6.49018 -6.67266e-18)
(20.3723 6.29415 2.02042e-17)
(20.5244 6.07421 -8.795e-18)
(20.6509 5.83246 -1.3191e-17)
(20.7478 5.57219 5.43849e-18)
(20.8106 5.2975 -1.49937e-18)
(20.8369 5.03812 0)
(20.8338 4.80412 0)
(20.8073 4.58009 -6.43376e-18)
(20.7599 4.36812 6.43674e-18)
(20.6942 4.16979 9.94821e-20)
(20.613 3.98621 0)
(20.5191 3.81803 3.65758e-18)
(20.4149 3.66544 -3.66433e-18)
(20.3028 3.52832 2.92649e-20)
(20.1848 3.40625 -3.17569e-20)
(20.0628 3.29865 0)
(19.9383 3.20479 2.0353e-18)
(19.8125 3.1238 -2.14888e-18)
(19.6864 3.0546 2.77947e-19)
(19.5609 2.99648 -2.85878e-19)
(19.437 2.94876 0)
(19.3148 2.91037 -3.0044e-19)
(19.1946 2.88059 -6.19797e-19)
(19.0772 2.85919 3.02971e-19)
(18.9625 2.84369 9.39196e-19)
(16.9122 6.84091 0)
(17.1609 6.87139 0)
(17.3887 6.89052 -1.00497e-17)
(17.603 6.90481 -1.95023e-17)
(17.8072 6.91042 2.96773e-17)
(18.0036 6.90761 -2.35759e-17)
(18.1951 6.8968 -8.95145e-18)
(18.3836 6.87737 1.87283e-17)
(18.5696 6.84827 -1.80105e-17)
(18.7537 6.80847 1.80044e-17)
(18.9369 6.7572 0)
(19.1192 6.69278 0)
(19.2987 6.61279 1.63129e-17)
(19.4732 6.51498 -3.21867e-17)
(19.6411 6.39818 3.07626e-17)
(19.7998 6.26212 -1.4958e-17)
(19.9465 6.10671 -1.86398e-18)
(20.0776 5.93237 1.63769e-17)
(20.1899 5.74025 -1.11065e-17)
(20.2803 5.53238 0)
(20.3451 5.31135 7.73089e-19)
(20.3807 5.10024 0)
(20.392 4.90734 -7.12012e-18)
(20.3841 4.72067 1.38882e-17)
(20.3588 4.54204 -6.76717e-18)
(20.3177 4.37291 0)
(20.263 4.21442 0)
(20.1967 4.0673 3.44114e-18)
(20.1208 3.93197 -3.67223e-18)
(20.0371 3.80855 -3.85267e-18)
(19.9473 3.69696 3.87894e-18)
(19.8528 3.59693 4.03561e-18)
(19.7549 3.50809 -4.04623e-18)
(19.6549 3.4299 0)
(19.5536 3.36162 -3.35755e-20)
(19.4517 3.30281 0)
(19.3504 3.25304 -8.68478e-21)
(19.2499 3.21145 -3.5266e-20)
(19.1506 3.1775 1.22274e-18)
(19.0532 3.15091 -1.73118e-18)
(18.9582 3.13008 5.71881e-19)
(17.0057 6.57729 0)
(17.2243 6.59933 -1.21144e-18)
(17.4242 6.61194 0)
(17.6116 6.62024 9.32775e-18)
(17.7892 6.62102 -9.20752e-18)
(17.9593 6.61473 0)
(18.1244 6.60187 8.97438e-18)
(18.2859 6.582 8.65822e-18)
(18.4445 6.55436 -2.27263e-17)
(18.6007 6.51821 0)
(18.7554 6.47299 1.71612e-17)
(18.9085 6.41749 -3.42563e-17)
(19.0588 6.34991 1.70419e-17)
(19.2047 6.2686 0)
(19.3451 6.17267 -1.58616e-17)
(19.4782 6.06189 1.76232e-17)
(19.6019 5.93607 1.66648e-17)
(19.7138 5.79539 -1.83844e-17)
(19.8114 5.64051 -1.7043e-18)
(19.8924 5.47272 0)
(19.954 5.29367 0)
(19.9923 5.12135 -9.01916e-19)
(20.0108 4.96242 4.12737e-19)
(20.0138 4.80745 7.03046e-18)
(20.0023 4.65792 5.3695e-19)
(19.9777 4.51508 -7.04533e-18)
(19.9414 4.37993 7.24288e-18)
(19.8951 4.25321 -7.00756e-18)
(19.8402 4.13537 -4.2074e-18)
(19.778 4.02667 3.72654e-18)
(19.71 3.92717 -3.85781e-18)
(19.6372 3.83681 3.84917e-18)
(19.5609 3.7554 0)
(19.4819 3.68263 -4.30003e-18)
(19.401 3.61801 4.06578e-18)
(19.3191 3.56125 0)
(19.2369 3.51209 8.11882e-21)
(19.1548 3.46987 1.10071e-18)
(19.0733 3.43416 -1.13053e-18)
(18.9929 3.40471 5.11638e-19)
(18.9143 3.38057 -5.33138e-19)
(17.079 6.35539 0)
(17.2725 6.37104 1.11557e-18)
(17.4492 6.37877 -8.9394e-18)
(17.6144 6.38264 1.74689e-17)
(17.7702 6.3799 -3.5251e-17)
(17.9188 6.37114 1.77705e-17)
(18.0623 6.35689 0)
(18.2021 6.33684 8.59764e-18)
(18.3387 6.31043 5.16678e-17)
(18.4726 6.27712 -3.48546e-17)
(18.6045 6.2365 0)
(18.7345 6.1877 -4.32138e-18)
(18.8615 6.12938 1.23441e-17)
(18.9845 6.0603 -3.09872e-19)
(19.1026 5.97984 -1.64728e-17)
(19.2147 5.8878 1.78399e-17)
(19.3192 5.78404 -1.55034e-17)
(19.4143 5.66863 1.4848e-17)
(19.4982 5.542 -1.48597e-17)
(19.5692 5.40499 -1.4569e-17)
(19.6251 5.2587 1.25584e-17)
(19.6625 5.11724 -6.28603e-18)
(19.6839 4.98594 7.9782e-18)
(19.6927 4.85726 -7.53571e-18)
(19.6897 4.73237 -1.39847e-18)
(19.6758 4.6123 7.11502e-18)
(19.6522 4.4979 0)
(19.62 4.3898 0)
(19.5804 4.28845 -6.93613e-18)
(19.5344 4.19411 7.36118e-18)
(19.483 4.10694 0)
(19.4273 4.02693 4.80591e-19)
(19.368 3.95405 4.85149e-19)
(19.306 3.88809 4.13683e-18)
(19.2419 3.82872 -4.13059e-18)
(19.1765 3.77577 -1.98874e-18)
(19.1103 3.72908 1.98101e-18)
(19.0438 3.68814 -7.5911e-19)
(18.9774 3.65262 2.02822e-18)
(18.9116 3.62233 -9.8377e-19)
(18.8467 3.59674 -1.26427e-19)
(17.1373 6.16629 8.23914e-18)
(17.3096 6.17707 1.00667e-17)
(17.4667 6.18113 -1.82063e-19)
(17.6131 6.18168 0)
(17.7507 6.17639 0)
(17.8814 6.16591 0)
(18.0071 6.15077 0)
(18.1291 6.13078 -3.32263e-17)
(18.2477 6.10549 5.88058e-17)
(18.3635 6.07452 -3.37887e-17)
(18.4769 6.03759 3.31599e-17)
(18.5882 5.99403 -2.1044e-17)
(18.6964 5.94287 3.6829e-17)
(18.8008 5.88318 -4.51202e-17)
(18.9009 5.81453 1.63822e-17)
(18.9957 5.73679 1.19362e-17)
(19.0842 5.64987 -1.55979e-17)
(19.1649 5.55382 1.84348e-18)
(19.2366 5.44893 -1.90969e-18)
(19.2981 5.33579 1.85065e-17)
(19.3476 5.21517 1.62681e-17)
(19.3823 5.09825 -2.69462e-17)
(19.404 4.98927 -8.64334e-19)
(19.4155 4.88213 0)
(19.4174 4.77776 8.64758e-19)
(19.4104 4.67697 -9.09346e-19)
(19.3953 4.58045 -6.27239e-18)
(19.373 4.48873 7.15656e-18)
(19.3445 4.4022 -7.26432e-18)
(19.3104 4.3211 7.23701e-18)
(19.2716 4.2456 7.36232e-18)
(19.2289 4.17574 -7.78701e-18)
(19.183 4.11152 -4.57345e-19)
(19.1345 4.05284 3.7601e-18)
(19.084 3.99945 -3.03564e-18)
(19.0319 3.95124 0)
(18.979 3.90814 0)
(18.9254 3.86972 -2.37918e-19)
(18.8716 3.83577 4.8487e-19)
(18.818 3.80612 4.86734e-19)
(18.7648 3.78056 1.18423e-19)
(17.1842 6.00348 0)
(17.3382 6.01051 -1.90732e-18)
(17.4786 6.0118 1.53123e-17)
(17.609 6.00988 -1.56393e-17)
(17.7311 6.00275 -3.10292e-17)
(17.8468 5.9911 3.18427e-17)
(17.9576 5.97547 1.55623e-17)
(18.0647 5.95571 -3.22866e-17)
(18.1684 5.9315 -3.19573e-17)
(18.2691 5.90257 3.2531e-17)
(18.3674 5.8687 0)
(18.4633 5.82941 -1.61396e-17)
(18.5562 5.78399 3.2003e-17)
(18.6455 5.73174 -3.61775e-17)
(18.7307 5.67237 0)
(18.8114 5.60582 -4.00979e-18)
(18.8864 5.53204 3.91861e-18)
(18.9551 5.45108 0)
(19.0162 5.36318 1.8168e-18)
(19.0691 5.26879 -3.58919e-18)
(19.1123 5.16844 1.63428e-17)
(19.1435 5.07108 -1.60778e-17)
(19.1641 4.98011 1.80437e-18)
(19.1766 4.89055 1.32453e-17)
(19.1811 4.80311 -1.31745e-17)
(19.1783 4.71843 8.61466e-19)
(19.1689 4.63705 -7.93715e-18)
(19.1535 4.55942 7.04262e-18)
(19.1328 4.48583 8.98677e-19)
(19.1075 4.4165 0)
(19.0781 4.35158 0)
(19.0454 4.29113 0)
(19.0098 4.23516 -3.61072e-18)
(18.9718 4.18362 3.59429e-18)
(18.9319 4.13631 -4.48026e-19)
(18.8906 4.09318 -3.65376e-18)
(18.8483 4.05417 4.09557e-18)
(18.8053 4.01898 0)
(18.7619 3.98742 5.90843e-21)
(18.7184 3.95938 -9.19879e-19)
(18.675 3.93483 4.48651e-19)
(17.2223 5.86205 7.03641e-18)
(17.3604 5.8662 0)
(17.4863 5.86539 -3.55146e-17)
(17.6029 5.86163 2.91713e-17)
(17.7118 5.8532 0)
(17.8147 5.84081 2.95675e-17)
(17.9128 5.82497 -2.29074e-19)
(18.0073 5.80559 3.02765e-17)
(18.0985 5.78244 -4.64343e-17)
(18.1867 5.75532 -3.07656e-17)
(18.2723 5.72408 3.13117e-17)
(18.3555 5.68838 7.69917e-18)
(18.4357 5.64768 0)
(18.5124 5.60147 0)
(18.5855 5.54957 -7.84532e-18)
(18.6543 5.49196 3.45701e-17)
(18.7183 5.42864 -6.827e-17)
(18.7767 5.35968 2.98902e-17)
(18.8289 5.28528 3.7239e-18)
(18.8741 5.20578 3.68332e-18)
(18.9115 5.12159 -1.75325e-18)
(18.939 5.03995 2.64444e-17)
(18.958 4.96355 -4.53621e-17)
(18.9703 4.88833 8.25848e-19)
(18.9761 4.81481 1.29813e-17)