/*--------------------------------*- C++ -*----------------------------------*\
| =========                 |                                                 |
| \\      /  F ield         | OpenFOAM: The Open Source CFD Toolbox           |
|  \\    /   O peration     | Version:  5.x                                   |
|   \\  /    A nd           | Web:      www.OpenFOAM.org                      |
|    \\/     M anipulation  |                                                 |
\*---------------------------------------------------------------------------*/
FoamFile
{
    version     2.0;
    format      ascii;
    class       volVectorField;
    location    "550";
    object      U;
}
// * * * * * * * * * * * * * * * * * * * * * * * * * * * * * * * * * * * * * //

dimensions      [0 1 -1 0 0 0 0];

internalField   nonuniform List<vector> 
11040
(
(-4.50721 25.0895 0)
(-0.631954 30.5782 -1.5314e-19)
(5.69839 33.7796 1.58421e-17)
(11.5764 32.7431 1.83033e-17)
(16.0359 29.4385 3.799e-17)
(19.104 25.2792 -1.8177e-17)
(21.0032 20.9324 -1.77018e-17)
(21.9293 16.7911 1.7657e-17)
(22.0563 13.0682 3.85931e-17)
(21.474 9.79733 1.24194e-18)
(19.8736 6.69353 1.67324e-17)
(17.694 4.20181 -7.09979e-19)
(15.8085 2.695 1.02726e-17)
(14.4958 1.9154 6.85368e-18)
(13.2018 1.32204 2.8249e-18)
(11.5905 0.756298 -6.14471e-19)
(9.67153 0.287616 3.14966e-18)
(7.54897 -0.0364453 8.32924e-19)
(5.24596 -0.223258 -9.81944e-19)
(2.77184 -0.276293 -1.46386e-17)
(0.47377 -0.155599 -2.23113e-17)
(-1.12272 0.0325771 -3.17469e-17)
(-2.00366 0.149738 -6.02737e-17)
(-2.53745 0.235834 -3.82973e-18)
(-2.83394 0.305391 -1.63581e-20)
(-2.97561 0.360518 2.00878e-18)
(-3.03678 0.40891 -1.30794e-16)
(-3.07022 0.458326 2.0535e-18)
(-3.10673 0.509058 -1.33871e-16)
(-3.16481 0.560821 1.29077e-16)
(-3.25574 0.617352 2.00154e-18)
(-3.38884 0.681218 9.58929e-19)
(-3.56741 0.751836 -9.04665e-19)
(-3.77747 0.823216 0)
(-3.97127 0.881261 2.02214e-16)
(-4.05449 0.903958 0)
(-3.91906 0.867779 0)
(-3.5394 0.759056 -3.6969e-19)
(-2.75367 0.491954 4.4207e-19)
(-1.62272 -0.141854 -2.1641e-16)
(-1.56381 -0.99909 -1.95393e-16)
(-0.27389 24.396 0)
(4.02917 28.5199 0)
(11.713 30.0631 -8.95823e-18)
(18.2456 28.7817 9.33142e-18)
(22.9269 26.6875 -2.24969e-17)
(26.1937 24.3339 2.28349e-17)
(28.3049 21.6617 1.08296e-17)
(29.3784 18.7257 1.38839e-18)
(29.5631 15.6791 -9.00759e-19)
(29.021 12.6895 1.05296e-17)
(27.636 9.65974 -1.17129e-18)
(25.3313 7.05288 0)
(22.7287 5.18351 0)
(20.415 3.88533 -3.14882e-18)
(18.3625 2.82104 -1.49283e-18)
(16.2752 1.96057 5.86422e-19)
(14.0214 1.29965 0)
(11.5469 0.805783 -3.55551e-19)
(8.80945 0.462142 1.3322e-18)
(5.85427 0.260693 1.29671e-18)
(2.84557 0.182798 7.7036e-18)
(0.495744 0.197343 1.11423e-17)
(-0.91869 0.232589 1.6853e-18)
(-1.82199 0.273647 -2.95242e-17)
(-2.3762 0.319384 2.79745e-17)
(-2.70029 0.366203 2.00415e-18)
(-2.90363 0.416628 6.74227e-17)
(-3.0546 0.470371 -1.09226e-18)
(-3.18854 0.527331 7.2566e-17)
(-3.32817 0.589006 -7.21672e-17)
(-3.48119 0.656205 -7.25929e-17)
(-3.64861 0.729117 7.14635e-17)
(-3.8222 0.804675 -1.40656e-21)
(-3.98185 0.875223 -1.45424e-18)
(-4.09019 0.927457 -5.77064e-17)
(-4.09188 0.940004 0)
(-3.93919 0.893473 -3.98693e-19)
(-3.52494 0.777052 9.46478e-17)
(-2.55991 0.554451 9.64716e-17)
(-0.745285 -0.033792 9.00568e-17)
(-0.27713 -1.14701 1.27773e-16)
(1.51382 23.4654 0)
(5.47011 26.6008 0)
(10.883 28.202 2.34353e-18)
(15.9455 28.0857 -6.76636e-18)
(20.0431 26.7069 6.97692e-18)
(23.4052 24.6132 -8.31404e-18)
(26.0919 22.1201 -6.31427e-18)
(28.039 19.4052 0)
(29.2179 16.5975 -9.66845e-18)
(29.6709 13.8089 -5.389e-18)
(29.3388 10.9692 0)
(28.0528 8.44131 0)
(26.134 6.47784 -3.54555e-18)
(24.0548 4.98818 -2.23487e-18)
(21.9275 3.72784 -4.94116e-20)
(19.6749 2.70107 5.18215e-20)
(17.2587 1.91215 0)
(14.6557 1.32852 0)
(11.805 0.919562 -2.91886e-19)
(8.67438 0.648771 8.21604e-19)
(5.35079 0.478805 -9.26833e-19)
(2.54469 0.378929 4.39859e-18)
(0.635128 0.320022 -3.5278e-20)
(-0.683318 0.299881 -1.4046e-17)
(-1.5385 0.311971 -1.14288e-18)
(-2.08486 0.344365 -1.24286e-18)
(-2.45149 0.392045 -1.58731e-21)
(-2.71205 0.448128 1.39021e-18)
(-2.91679 0.509537 0)
(-3.09759 0.575245 0)
(-3.27013 0.644252 9.52732e-17)
(-3.44184 0.715801 -9.29062e-17)
(-3.61338 0.786446 4.42815e-17)
(-3.7767 0.849224 0)
(-3.90678 0.89275 3.9543e-17)
(-3.95018 0.893656 3.72102e-17)
(-3.83935 0.816919 0)
(-3.47998 0.64181 1.321e-19)
(-2.58611 0.335576 -2.19861e-19)
(-0.79215 -0.366245 0)
(-0.210018 -1.70192 -5.49751e-17)
(3.33153 22.4032 1.03332e-19)
(7.03126 24.8599 -1.06689e-19)
(11.2589 26.2147 2.95491e-19)
(15.6867 26.3228 0)
(19.5513 25.2843 -7.23293e-18)
(22.6772 23.558 0)
(25.1473 21.4184 1.40568e-17)
(26.9873 19.0291 1.19377e-20)
(28.2191 16.5292 1.35774e-18)
(28.8937 14.0337 8.25833e-18)
(29.0156 11.5063 1.1877e-18)
(28.4417 9.18789 2.75834e-18)
(27.2848 7.31372 6.28926e-18)
(25.8349 5.848 1.74381e-18)
(24.1785 4.57414 0)
(22.2499 3.48225 1.76919e-19)
(20.0291 2.60189 2.52647e-19)
(17.5321 1.92988 7.03862e-19)
(14.7378 1.44767 4.72151e-19)
(11.6071 1.11387 -5.0206e-19)
(8.15022 0.871345 -2.75312e-18)
(5.00706 0.671873 -3.94159e-18)
(2.59757 0.506109 0)
(0.785911 0.397895 2.5177e-17)
(-0.450871 0.349698 -1.52401e-17)
(-1.26992 0.346802 1.42663e-17)
(-1.82353 0.376705 -2.98431e-17)
(-2.2092 0.42503 0)
(-2.49749 0.483629 0)
(-2.7284 0.548097 0)
(-2.92836 0.616275 -3.39746e-17)
(-3.11529 0.687267 3.47355e-17)
(-3.30003 0.757421 -1.00551e-18)
(-3.48284 0.818472 -3.18276e-17)
(-3.6438 0.856509 -2.7868e-17)
(-3.73101 0.844258 -2.74274e-17)
(-3.67852 0.73922 -4.80611e-17)
(-3.40716 0.513431 -4.20528e-17)
(-2.65978 0.140755 -1.51278e-19)
(-1.0771 -0.602853 -3.49403e-17)
(-0.503976 -2.03246 2.12308e-17)
(5.15182 21.2375 0)
(8.39458 23.1649 1.54005e-19)
(11.7666 24.2814 -5.14835e-20)
(15.4072 24.6029 2.86685e-19)
(18.8018 24.03 5.43191e-18)
(21.7103 22.7731 -5.05256e-18)
(24.1176 21.0227 -1.85308e-18)
(25.9845 18.9274 -6.50611e-18)
(27.2858 16.6438 0)
(28.0566 14.3109 -7.6093e-18)
(28.3351 11.9478 0)
(28.0646 9.74626 -1.68287e-18)
(27.3183 7.92409 -3.39333e-18)
(26.3106 6.48858 0)
(25.1352 5.26079 5.43429e-19)
(23.7149 4.19605 0)
(21.978 3.31397 0)
(19.9009 2.61769 -3.74496e-19)
(17.4506 2.09702 -5.5456e-19)
(14.5787 1.71799 0)
(11.2367 1.41706 2.06259e-18)
(7.96731 1.13218 0)
(5.16131 0.851861 0)
(2.80606 0.618155 -8.3835e-18)
(1.04936 0.468023 0)
(-0.159607 0.399156 1.15179e-17)
(-0.9754 0.390272 2.41237e-17)
(-1.53637 0.416516 0)
(-1.94081 0.463163 0)
(-2.24511 0.520856 0)
(-2.4897 0.585265 2.76343e-17)
(-2.70338 0.654699 2.34484e-17)
(-2.90727 0.724806 -2.43595e-17)
(-3.11095 0.78511 -7.5845e-19)
(-3.30229 0.817952 6.99323e-19)
(-3.43627 0.791952 0)
(-3.4543 0.658925 3.76709e-17)
(-3.2925 0.383302 -3.2828e-17)
(-2.73164 -0.0524527 2.96118e-17)
(-1.4539 -0.814154 2.67282e-17)
(-0.961181 -2.22496 3.60047e-20)
(6.82474 20.0098 -2.30191e-19)
(9.58883 21.5165 -2.76708e-20)
(12.3243 22.4244 7.08493e-19)
(15.2812 22.8468 -1.4046e-19)
(18.1962 22.6038 -6.49214e-19)
(20.8289 21.7589 4.95688e-18)
(23.1118 20.4275 -6.10467e-18)
(24.9772 18.7103 5.31766e-18)
(26.3598 16.7335 2.4055e-18)
(27.2521 14.6263 -1.22243e-18)
(27.6739 12.4368 0)
(27.5962 10.3289 0)
(27.0746 8.51226 6.17662e-19)
(26.2879 7.04814 -6.54847e-19)
(25.3688 5.82402 -8.1766e-19)
(24.2986 4.78523 -2.34484e-19)
(23.0102 3.93323 7.86185e-19)
(21.4528 3.26521 1.50066e-19)
(19.5596 2.76511 1.13523e-18)
(17.2384 2.39645 -2.55794e-18)
(14.3559 2.08749 3.81954e-18)
(11.3 1.7637 -2.06049e-18)
(8.36418 1.39732 1.21882e-18)
(5.57147 1.02734 1.50882e-18)
(3.22369 0.731707 -9.13054e-18)
(1.46505 0.546148 1.19836e-20)
(0.238196 0.460239 -2.28545e-17)
(-0.601322 0.441409 -1.88364e-17)
(-1.19077 0.46165 0)
(-1.61644 0.503341 0)
(-1.93879 0.558419 -1.99548e-17)
(-2.19942 0.623198 -4.34069e-17)
(-2.43069 0.691899 -1.27517e-18)
(-2.65446 0.75136 1.94025e-17)
(-2.87221 0.779846 1.92852e-17)
(-3.05268 0.741753 -1.75624e-17)
(-3.14818 0.583662 4.83907e-19)
(-3.1106 0.262757 5.37889e-17)
(-2.76167 -0.230493 -4.79894e-17)
(-1.84292 -1.00675 8.24368e-20)
(-1.48575 -2.32354 1.5598e-17)
(8.33047 18.758 0)
(10.6514 19.9302 -5.97058e-19)
(12.8887 20.6659 -1.31681e-18)
(15.2808 21.1088 -2.7647e-19)
(17.7221 21.0821 -2.27428e-19)
(20.0312 20.5666 7.72453e-19)
(22.1271 19.6146 -2.80017e-18)
(23.9312 18.2825 1.20374e-18)
(25.3594 16.6576 0)
(26.372 14.8428 1.51286e-18)
(26.9624 12.891 -2.90156e-18)
(27.0937 10.9329 2.60036e-18)
(26.7862 9.15506 -2.81231e-19)
(26.172 7.65698 0)
(25.3925 6.3979 2.79322e-19)
(24.4934 5.3416 2.28988e-19)
(23.4586 4.48576 -2.08634e-19)
(22.2679 3.83066 -5.81533e-19)
(20.8776 3.3624 4.00017e-19)
(19.1988 3.04391 9.7207e-19)
(17.0438 2.79142 -1.0839e-18)
(14.5881 2.50922 -1.49086e-18)
(11.9528 2.1388 0)
(9.08388 1.68253 2.13375e-18)
(6.29224 1.2308 5.15381e-18)
(3.90649 0.873546 -7.78968e-18)
(2.08802 0.648837 5.62642e-18)
(0.796479 0.538171 1.74524e-17)
(-0.104634 0.502816 -2.39832e-18)
(-0.742402 0.510767 -2.38898e-21)
(-1.20668 0.545241 -1.41568e-17)
(-1.55798 0.59827 -4.60099e-18)
(-1.84259 0.661783 -1.54162e-17)
(-2.09704 0.719501 0)
(-2.34109 0.745029 -1.53712e-17)
(-2.56375 0.698461 1.52268e-17)
(-2.73539 0.521916 -1.36953e-17)
(-2.82762 0.16599 -4.57594e-17)
(-2.70351 -0.373324 2.00036e-17)
(-2.16938 -1.16416 6.97696e-20)
(-2.00078 -2.36623 -2.82181e-17)
(9.6604 17.5138 1.40276e-18)
(11.5949 18.4226 -4.01445e-19)
(13.4331 19.0173 -2.80886e-19)
(15.3707 19.434 1.12673e-18)
(17.3801 19.5313 -3.98492e-19)
(19.3472 19.2591 -8.45528e-19)
(21.2051 18.6255 1.79169e-18)
(22.8822 17.6492 1.75748e-18)
(24.2928 16.3799 -1.42906e-18)
(25.3816 14.889 0)
(26.1238 13.2222 -8.51896e-19)
(26.4696 11.4778 1.35513e-19)
(26.4009 9.80698 -9.7867e-21)
(25.9942 8.32173 3.567e-19)
(25.3673 7.03658 -2.37491e-20)
(24.594 5.94584 2.4709e-20)
(23.6986 5.05369 0)
(22.699 4.36875 0)
(21.6035 3.88958 -1.78669e-18)
(20.3905 3.59619 1.57267e-18)
(18.9293 3.41415 -1.05681e-18)
(17.2508 3.23446 1.10045e-18)
(15.3066 2.96562 1.31181e-18)
(12.9034 2.54937 0)
(10.1648 2.02815 1.77619e-18)
(7.39434 1.50274 -2.11759e-18)
(4.93665 1.07468 -5.15112e-18)
(2.99821 0.792489 0)
(1.5823 0.641441 0)
(0.575524 0.578105 2.064e-18)
(-0.144354 0.567855 1.7606e-17)
(-0.669834 0.59275 1.50908e-17)
(-1.0664 0.640589 3.05256e-17)
(-1.38753 0.691944 1.89253e-18)
(-1.67474 0.715593 0)
(-1.9424 0.666318 -7.92269e-19)
(-2.18588 0.481928 1.25275e-17)
(-2.40128 0.107889 6.79613e-20)
(-2.49726 -0.458593 1.79319e-17)
(-2.34363 -1.25654 1.52888e-17)
(-2.41702 -2.34822 1.29921e-17)
(10.82 16.3042 -8.44749e-19)
(12.4283 17.0078 -1.03741e-20)
(13.943 17.4868 1.11848e-18)
(15.5165 17.8559 -2.1118e-18)
(17.1541 18.0108 0)
(18.7926 17.9 -5.22445e-19)
(20.3892 17.5097 1.4032e-18)
(21.8895 16.8349 -1.11507e-18)
(23.2189 15.8945 3.87305e-19)
(24.3204 14.7292 8.33958e-19)
(25.1611 13.3701 3.90972e-20)
(25.6854 11.885 -1.48601e-18)
(25.8479 10.387 0)
(25.675 8.97973 -6.58627e-20)
(25.2459 7.71136 -2.36408e-19)
(24.6323 6.60618 2.65738e-19)
(23.8745 5.67821 6.13965e-19)
(23.0068 4.94368 -6.33426e-19)
(22.0669 4.41171 5.25461e-19)
(21.0893 4.08215 0)
(20.0529 3.91322 -2.00463e-18)
(18.9846 3.81403 3.61247e-18)
(17.7845 3.68664 -3.06612e-18)
(16.1943 3.43112 -2.18109e-20)
(14.1168 3.01265 2.50155e-18)
(11.6181 2.4672 -2.85021e-18)
(8.9428 1.88636 0)
(6.42043 1.37615 1.01957e-17)
(4.31104 1.00691 4.90355e-18)
(2.70061 0.786403 2.87692e-18)
(1.52592 0.678036 -1.32137e-17)
(0.675851 0.641006 -3.66214e-18)
(0.0557068 0.649054 3.89275e-18)
(-0.410262 0.679235 -1.85426e-18)
(-0.788861 0.695831 -1.00234e-17)
(-1.1251 0.64803 -1.50283e-18)
(-1.44565 0.46962 0)
(-1.77413 0.100507 1.97335e-17)
(-2.06821 -0.466444 -1.67333e-17)
(-2.25812 -1.25211 -1.42067e-17)
(-2.61059 -2.24885 0)
(11.8213 15.1512 0)
(13.1585 15.6961 0)
(14.41 16.0801 0)
(15.6919 16.3944 5.83621e-18)
(17.0203 16.5649 -3.33146e-18)
(18.3642 16.5502 1.49217e-18)
(19.7021 16.3307 1.33564e-18)
(20.999 15.8907 -3.47317e-19)
(22.1985 15.2294 -3.45392e-19)
(23.2511 14.3632 1.11961e-19)
(24.1248 13.3074 -1.10191e-19)
(24.7657 12.1024 5.15123e-19)
(25.1155 10.8244 -1.24881e-19)
(25.1652 9.55687 1.26134e-19)
(24.9551 8.36022 6.88551e-19)
(24.538 7.28048 -5.84037e-19)
(23.954 6.3436 -1.07159e-18)
(23.2388 5.5713 1.10446e-18)
(22.434 4.9794 -8.65556e-19)
(21.5889 4.57695 0)
(20.7455 4.35166 -2.91286e-18)
(19.9863 4.25032 2.07671e-18)
(19.2624 4.1984 8.32521e-19)
(18.3753 4.10242 -1.67954e-18)
(17.1631 3.88994 3.64157e-18)
(15.5004 3.52131 0)
(13.3777 3.00732 0)
(10.9401 2.41193 -2.60392e-18)
(8.44901 1.83035 -1.53918e-17)
(6.18043 1.35026 -7.32922e-18)
(4.3146 1.01738 8.61187e-18)
(2.8886 0.826156 2.4899e-18)
(1.83806 0.73969 -1.39315e-17)
(1.06888 0.714288 -2.98875e-18)
(0.488891 0.704004 1.83838e-17)
(0.0187605 0.653392 -2.99183e-18)
(-0.407748 0.492184 -1.09794e-17)
(-0.851394 0.15265 1.2183e-18)
(-1.31799 -0.383068 1.50351e-17)
(-1.78864 -1.12752 0)
(-2.42193 -2.03835 0)
(12.6795 14.0708 0)
(13.7929 14.4935 0)
(14.8295 14.7997 -2.15188e-19)
(15.8773 15.0603 -4.08703e-18)
(16.9538 15.223 0)
(18.046 15.2585 -3.34978e-18)
(19.1465 15.1495 -9.87562e-19)
(20.2368 14.8781 0)
(21.2788 14.4347 1.21427e-18)
(22.2356 13.8205 -1.05661e-18)
(23.0812 13.0389 -2.45931e-19)
(23.7701 12.1079 -1.35111e-19)
(24.2435 11.0721 2.43464e-21)
(24.4724 9.98964 0)
(24.4668 8.91693 1.26308e-18)
(24.2555 7.90863 -1.02988e-18)
(23.8684 7.00076 0)
(23.336 6.22072 0)
(22.6943 5.58929 -8.46109e-19)
(21.9862 5.11891 3.4603e-18)
(21.2627 4.81168 -1.84722e-18)
(20.6334 4.64609 0)
(20.1055 4.57367 2.61211e-18)
(19.5763 4.53039 9.79372e-20)
(18.9536 4.46222 -2.83305e-18)
(18.1059 4.31226 1.50589e-18)
(16.9021 4.0336 0)
(15.2718 3.60935 0)
(13.2523 3.06573 -1.99129e-18)
(10.9941 2.46762 9.03319e-18)
(8.71712 1.89723 -5.24175e-18)
(6.63758 1.42611 6.13757e-18)
(4.90034 1.09285 3.53583e-18)
(3.54761 0.894155 0)
(2.53197 0.788547 6.5288e-18)
(1.76239 0.70624 6.56631e-21)
(1.13358 0.561365 2.08499e-17)
(0.536897 0.272685 0)
(-0.0893956 -0.198364 -1.76214e-17)
(-0.776523 -0.86913 1.43312e-17)
(-1.66506 -1.69094 0)
(13.4107 13.0736 0)
(14.3394 13.4024 -2.34437e-18)
(15.2003 13.6453 2.13578e-18)
(16.0594 13.8571 0)
(16.933 14.0011 3.37177e-18)
(17.8167 14.0576 -9.63365e-19)
(18.7115 14.0141 -1.15043e-17)
(19.6095 13.8555 1.2858e-17)
(20.4878 13.5701 -6.95374e-18)
(21.3219 13.1521 -4.49324e-18)
(22.0941 12.5981 3.01922e-18)
(22.7704 11.9115 7.30261e-19)
(23.2999 11.1128 -1.11106e-18)
(23.6475 10.2366 6.68169e-19)
(23.8043 9.32578 -1.72892e-18)
(23.7778 8.43112 1.29812e-18)
(23.5837 7.59211 9.2303e-19)
(23.2432 6.8402 5.42105e-19)
(22.7843 6.20053 2.34906e-18)
(22.2406 5.68911 -5.41134e-18)
(21.6524 5.31445 3.08234e-18)
(21.1218 5.076 1.19478e-19)
(20.6774 4.93968 5.19329e-19)
(20.272 4.85821 0)
(19.8856 4.80674 -3.47122e-18)
(19.4657 4.7545 1.1579e-18)
(18.9236 4.66136 3.749e-18)
(18.1508 4.48323 -2.59947e-18)
(17.0526 4.18624 5.57363e-18)
(15.5885 3.76216 -2.99846e-18)
(13.797 3.23575 0)
(11.7937 2.65924 -5.54566e-18)
(9.74226 2.09706 -2.09744e-18)
(7.81054 1.60705 2.37779e-18)
(6.12414 1.22369 -1.61296e-17)
(4.74583 0.94418 -3.00427e-18)
(3.65394 0.717394 -6.40464e-18)
(2.7425 0.45405 6.8303e-18)
(1.88995 0.0736334 7.26209e-18)
(1.02138 -0.479588 -1.42388e-17)
(-0.0899531 -1.18875 -4.08283e-19)
(14.0302 12.1653 0)
(14.8065 12.4218 1.28251e-19)
(15.5232 12.6137 1.93985e-18)
(16.2299 12.7834 7.0991e-18)
(16.9406 12.9048 -4.16717e-18)
(17.6552 12.9656 2.38089e-18)
(18.3783 12.9577 2.09279e-18)
(19.1082 12.87 -1.10712e-17)
(19.8325 12.6921 2.11507e-18)
(20.5365 12.4164 4.12338e-18)
(21.2101 12.0371 -5.5534e-18)
(21.8307 11.5505 3.42916e-18)
(22.3591 10.9617 1.73149e-18)
(22.7633 10.287 -5.73802e-19)
(23.0263 9.554 0)
(23.1419 8.80173 0)
(23.1126 8.0656 -4.38761e-18)
(22.9489 7.37675 -8.62517e-19)
(22.6691 6.76212 4.15606e-18)
(22.298 6.2413 -3.05377e-19)
(21.8652 5.82759 3.22071e-18)
(21.4519 5.53642 -6.36692e-18)
(21.0892 5.34308 3.27155e-18)
(20.7513 5.2036 0)
(20.443 5.10443 -4.65126e-19)
(20.1598 5.03397 3.90535e-18)
(19.8797 4.97799 -4.95915e-18)
(19.5564 4.91442 4.14034e-18)
(19.12 4.81213 -3.16583e-18)
(18.4894 4.63684 0)
(17.5957 4.36209 2.32183e-18)
(16.4061 3.97958 4.92154e-18)
(14.9394 3.50357 -2.65292e-18)
(13.2648 2.96679 2.89115e-18)
(11.4825 2.41038 1.56537e-18)
(9.71355 1.87549 -3.58942e-18)
(8.0657 1.38835 5.91055e-18)
(6.58603 0.943109 -4.26876e-18)
(5.25838 0.505935 -3.50112e-18)
(4.04886 0.0136407 -6.40872e-19)
(2.68288 -0.556332 1.04348e-17)
(14.5527 11.3473 -2.03308e-18)
(15.2027 11.5481 -7.57781e-18)
(15.8008 11.6993 7.44971e-18)
(16.3841 11.8335 0)
(16.9642 11.9327 -2.08914e-19)
(17.543 11.9892 0)
(18.1263 11.9983 -1.72377e-17)
(18.7155 11.9525 1.39021e-17)
(19.3044 11.8437 9.9363e-18)
(19.8854 11.6655 -1.18135e-17)
(20.4535 11.4121 4.09243e-18)
(20.9951 11.0774 -2.08093e-18)
(21.4832 10.6586 -1.50711e-18)
(21.8925 10.1607 -3.33549e-18)
(22.2061 9.59863 2.93459e-20)
(22.4118 8.99804 3.34319e-18)
(22.5037 8.38552 -2.638e-18)
(22.483 7.78722 3.6252e-18)
(22.3586 7.22804 0)
(22.1464 6.72852 4.53267e-18)
(21.8665 6.30504 3.18932e-20)
(21.5785 5.98579 -4.95662e-18)
(21.3114 5.75597 4.38456e-20)
(21.0514 5.57436 0)
(20.8054 5.4296 3.83223e-19)
(20.5781 5.31323 3.97905e-19)
(20.3716 5.21964 0)
(20.1813 5.14379 0)
(19.9909 5.07723 2.40497e-21)
(19.7677 5.00461 0)
(19.4632 4.90343 -2.68709e-18)
(19.0209 4.74808 0)
(18.3894 4.51659 3.81917e-18)
(17.5365 4.19679 -3.98239e-18)
(16.4539 3.78812 0)
(15.1685 3.30409 2.20434e-18)
(13.7352 2.76726 -2.36693e-18)
(12.2105 2.19725 1.3326e-18)
(10.6371 1.61491 4.30287e-18)
(9.09956 1.02225 -3.94804e-19)
(7.36355 0.422277 -9.93132e-18)
(14.9918 10.6181 5.39827e-18)
(15.5368 10.7758 2.09314e-19)
(16.0369 10.8944 -3.29769e-18)
(16.5199 10.9996 -6.30531e-18)
(16.9952 11.0788 -1.48245e-17)
(17.4655 11.1271 1.76218e-17)
(17.9365 11.1424 -4.25749e-19)
(18.4109 11.12 -1.02698e-17)
(18.8862 11.054 2.02941e-17)
(19.3587 10.9394 -5.52265e-19)
(19.8269 10.7721 -1.10231e-17)
(20.2834 10.5457 3.98614e-18)
(20.7105 10.255 -7.46275e-18)
(21.0908 9.89903 1.1349e-17)
(21.4107 9.48433 -1.9004e-18)
(21.6579 9.02575 0)
(21.8232 8.54036 -7.91491e-18)
(21.9024 8.04693 7.16349e-18)
(21.897 7.56517 7.69351e-18)
(21.8148 7.11328 -1.48552e-17)
(21.6674 6.70751 8.14295e-18)
(21.4944 6.38347 -4.26518e-19)
(21.3207 6.13613 -3.63892e-20)
(21.143 5.93026 -5.02094e-18)
(20.9675 5.75737 1.01997e-17)
(20.7983 5.60969 -5.5432e-18)
(20.639 5.48106 5.12561e-18)
(20.4924 5.36759 -6.2089e-18)
(20.3602 5.26713 -6.39961e-18)
(20.2406 5.1776 5.73165e-18)
(20.1244 5.09437 1.46402e-18)
(19.9925 5.00818 2.227e-18)
(19.8154 4.90464 -6.75787e-18)
(19.5571 4.76597 6.1027e-18)
(19.1785 4.57346 -3.12564e-18)
(18.6482 4.31295 -1.63253e-18)
(17.9478 3.97818 0)
(17.0725 3.5675 -1.71924e-18)
(16.0118 3.08957 -1.81429e-18)
(14.846 2.56141 -2.0173e-18)
(13.3486 1.97495 2.08004e-18)
(15.359 9.97362 1.45447e-20)
(15.8165 10.0977 7.56503e-19)
(16.2354 10.1904 2.88476e-18)
(16.6366 10.2722 -5.48091e-18)
(17.0275 10.334 2.18508e-17)
(17.4112 10.3732 -2.03474e-17)
(17.7927 10.389 2.57054e-17)
(18.1752 10.3784 1.42914e-17)
(18.5578 10.3376 -5.76427e-18)
(18.9393 10.2631 -7.9084e-19)
(19.3198 10.1522 -1.78445e-17)
(19.6957 9.99967 2.43792e-19)
(20.0561 9.80009 0)
(20.3897 9.55032 -3.41107e-18)
(20.6873 9.25244 3.54945e-18)
(20.939 8.91394 -3.72266e-18)
(21.1361 8.54438 0)
(21.2723 8.15546 7.06045e-18)
(21.3452 7.76069 -1.52397e-17)
(21.3568 7.37387 5.4249e-18)
(21.312 7.00838 -7.63444e-18)
(21.2327 6.70106 8.57849e-18)
(21.1387 6.45399 2.6029e-19)
(21.0337 6.23912 -1.01509e-19)
(20.9235 6.05187 8.7526e-18)
(20.8122 5.88707 -8.81959e-18)
(20.7027 5.7395 2.82671e-19)
(20.5971 5.60449 5.7784e-19)
(20.497 5.47849 -4.77483e-18)
(20.4043 5.35934 5.40896e-18)
(20.3208 5.24599 -6.06156e-19)
(20.2463 5.13758 6.13179e-19)
(20.1772 5.03214 -2.50004e-18)
(20.1042 4.92522 1.23342e-18)
(20.0116 4.80887 5.12248e-18)
(19.8781 4.67279 -1.30834e-18)
(19.6786 4.50599 1.32726e-18)
(19.39 4.29724 -2.71401e-18)
(18.9751 4.03693 1.41097e-18)
(18.461 3.73119 1.40883e-18)
(17.6854 3.34626 0)
(15.6642 9.40727 -8.27194e-18)
(16.0485 9.5048 1.52206e-17)
(16.3997 9.57695 1.50742e-17)
(16.7337 9.64016 -3.99579e-17)
(17.0563 9.68782 1.49713e-17)
(17.3706 9.71847 -3.29394e-17)
(17.681 9.73206 2.76374e-17)
(17.9904 9.727 -4.11119e-17)
(18.2988 9.70069 3.97671e-17)
(18.6062 9.65078 -5.52651e-19)
(18.9134 9.57548 -1.70442e-17)
(19.219 9.47125 -1.87267e-18)
(19.5163 9.33341 -1.49037e-17)
(19.7985 9.15865 1.47495e-17)
(20.0597 8.94701 -1.37683e-17)
(20.2932 8.70186 1.53234e-17)
(20.4921 8.42788 0)
(20.6506 8.13148 -1.17173e-17)
(20.7649 7.82081 1.43019e-17)
(20.834 7.50502 -1.2901e-17)
(20.8586 7.19351 -1.99881e-19)
(20.8473 6.91961 2.08066e-17)
(20.8143 6.68914 -1.06812e-19)
(20.7664 6.48058 -7.41232e-18)
(20.7086 6.29222 -1.40384e-23)
(20.6446 6.12162 0)
(20.5776 5.96586 -7.84464e-18)
(20.5094 5.82172 7.75409e-18)
(20.4412 5.68596 0)
(20.3735 5.5557 -5.04635e-19)
(20.3071 5.42863 0)
(20.2429 5.30328 4.21529e-18)
(20.1816 5.17895 -4.74961e-18)
(20.1237 5.05538 -4.31088e-18)
(20.0676 4.93196 8.6726e-18)
(20.01 4.80783 -4.91978e-18)
(19.9435 4.68108 -5.62716e-19)
(19.8589 4.54829 1.10251e-18)
(19.737 4.40324 -1.11944e-18)
(19.5771 4.24824 0)
(19.3179 4.05849 -1.19924e-18)
(15.9057 8.93394 0)
(16.231 9.01135 -2.06875e-17)
(16.528 9.06826 5.44881e-19)
(16.8088 9.11762 2.86045e-17)
(17.0781 9.15444 1.83151e-17)
(17.3389 9.17809 -1.87136e-17)
(17.5949 9.18897 1.79291e-17)
(17.8486 9.18617 1.76686e-17)
(18.1005 9.16795 3.45777e-17)
(18.351 9.13271 -4.38337e-17)
(18.6011 9.07928 4.35643e-18)
(18.8504 9.00508 4.15953e-18)
(19.0947 8.90653 -1.53854e-17)
(19.33 8.78079 1.1317e-17)
(19.5527 8.6273 1.64614e-17)
(19.7584 8.44742 -1.26481e-17)
(19.9423 8.24328 -1.57077e-17)
(20.0999 8.01814 1.57888e-17)
(20.2275 7.77656 0)
(20.3232 7.5241 1.7685e-18)
(20.3856 7.26679 1.76077e-18)
(20.4157 7.0324 1.39936e-17)
(20.4225 6.82794 -2.79995e-17)
(20.4136 6.63693 1.43153e-17)
(20.3927 6.45919 7.21341e-18)
(20.3627 6.29394 -1.54814e-19)
(20.3263 6.13992 -7.32794e-18)
(20.2854 5.99552 1.14666e-19)
(20.2413 5.85889 7.49073e-21)
(20.1946 5.72812 7.61982e-18)
(20.1456 5.6013 -7.69513e-18)
(20.0943 5.47672 -3.92676e-18)
(20.0404 5.35306 4.18342e-18)
(19.984 5.22943 -4.01244e-18)
(19.9249 5.10526 3.50492e-18)
(19.8633 4.98105 3.06859e-18)
(19.7987 4.85788 -1.54477e-18)
(19.7302 4.73658 5.2799e-19)
(19.6546 4.61752 0)
(19.5698 4.50428 0)
(19.4681 4.39097 -2.55664e-20)
(16.0903 8.55523 -9.27762e-18)
(16.3699 8.61783 1.04154e-17)
(16.6249 8.66341 -4.52008e-18)
(16.8649 8.70231 -8.88771e-18)
(17.0939 8.73067 0)
(17.3144 8.74842 1.75885e-17)
(17.5297 8.75618 -4.32716e-17)
(17.742 8.75346 2.65488e-17)
(17.9519 8.73909 -8.74579e-18)
(18.1599 8.71196 8.4018e-18)
(18.3672 8.67141 -4.17283e-18)
(18.5736 8.61553 -3.68391e-17)
(18.7766 8.54159 6.36255e-17)
(18.9735 8.44727 -2.73028e-17)
(19.1623 8.33186 -3.61296e-18)
(19.3401 8.19582 -1.45022e-17)
(19.5034 8.03999 4.4642e-17)
(19.6491 7.86595 -1.95241e-17)
(19.7741 7.67616 -2.97943e-17)
(19.8766 7.47392 1.2257e-17)
(19.9545 7.26288 -3.43999e-18)
(20.0048 7.06549 0)
(20.0334 6.88857 0)
(20.0474 6.71935 -1.40319e-17)
(20.049 6.55834 1.40427e-17)
(20.0405 6.40557 2.17494e-19)
(20.0239 6.2607 0)
(20.0009 6.1231 7.25595e-18)
(19.9726 5.9919 -7.26796e-18)
(19.9399 5.86614 5.65683e-20)
(19.9031 5.74481 -5.87756e-20)
(19.8625 5.62693 0)
(19.8179 5.51158 3.59053e-18)
(19.7688 5.39796 -3.79413e-18)
(19.7148 5.28529 4.73859e-19)
(19.6555 5.1735 -4.78484e-19)
(19.5909 5.06312 0)
(19.5205 4.95453 -4.88268e-19)
(19.4447 4.8488 -1.00559e-18)
(19.3632 4.74843 4.9689e-19)
(19.2785 4.65374 1.50097e-18)
(16.2346 8.24815 0)
(16.4777 8.29946 0)
(16.6995 8.33633 -1.6823e-17)
(16.9075 8.36718 -3.33611e-17)
(17.105 8.38897 5.09679e-17)
(17.2943 8.40196 -4.17878e-17)
(17.4784 8.40688 -1.64224e-17)
(17.659 8.40348 3.39512e-17)
(17.8369 8.39093 -3.35799e-17)
(18.0126 8.36848 3.38822e-17)
(18.1871 8.33571 0)
(18.3605 8.29125 0)
(18.5312 8.23301 3.1719e-17)
(18.6974 8.15921 -6.18858e-17)
(18.8578 8.06918 6.01935e-17)
(19.0105 7.96299 -2.9587e-17)
(19.1532 7.84088 -3.67834e-18)
(19.2835 7.70353 3.37097e-17)
(19.3992 7.55223 -2.29337e-17)
(19.4985 7.38886 0)
(19.5794 7.21556 1.6824e-18)
(19.6375 7.05027 0)
(19.6763 6.89905 -1.46736e-17)
(19.7021 6.75188 2.84957e-17)
(19.7163 6.60951 -1.38244e-17)
(19.7206 6.47237 0)
(19.7162 6.34062 0)
(19.7046 6.21414 6.60956e-18)
(19.6866 6.09265 -7.05198e-18)
(19.6632 5.97577 -7.14479e-18)
(19.6348 5.86306 7.1948e-18)
(19.6017 5.7541 7.23979e-18)
(19.5642 5.64851 -7.26113e-18)
(19.5221 5.54592 0)
(19.4753 5.44587 -5.81234e-20)
(19.4236 5.34834 0)
(19.3667 5.2536 -1.4733e-20)
(19.3043 5.16152 -5.93262e-20)
(19.2365 5.07247 2.025e-18)
(19.1632 4.98752 -2.86349e-18)
(19.086 4.90674 9.44605e-19)
(16.3494 7.9943 0)
(16.5629 8.03677 -1.96759e-18)
(16.7577 8.06681 0)
(16.9398 8.09135 1.57728e-17)
(17.1121 8.10795 -1.58479e-17)
(17.2766 8.11708 0)
(17.436 8.11952 1.59858e-17)
(17.5917 8.11514 1.58521e-17)
(17.7445 8.10338 -4.10616e-17)
(17.8948 8.08369 0)
(18.0436 8.05581 3.25088e-17)
(18.1911 8.01875 -6.54486e-17)
(18.3361 7.97093 3.1901e-17)
(18.4775 7.91097 0)
(18.6144 7.8383 -2.97561e-17)
(18.7455 7.75286 3.3115e-17)
(18.8693 7.65465 3.2136e-17)
(18.9839 7.54391 -3.54863e-17)
(19.0878 7.42129 -3.42452e-18)
(19.1794 7.28785 0)
(19.2571 7.14481 0)
(19.3159 7.00648 -1.74004e-18)
(19.3582 6.87803 8.32859e-19)
(19.3892 6.75146 1.36329e-17)
(19.4098 6.62754 9.02211e-19)
(19.4211 6.50686 -1.36001e-17)
(19.4241 6.38979 1.36904e-17)
(19.4198 6.2765 -1.32496e-17)
(19.4089 6.16705 -7.76645e-18)
(19.3921 6.06137 6.88534e-18)
(19.37 5.95935 -6.95593e-18)
(19.3429 5.86087 6.94381e-18)
(19.3112 5.76584 0)
(19.2751 5.67415 -7.50184e-18)
(19.2346 5.58558 7.0959e-18)
(19.1899 5.50026 0)
(19.141 5.41846 1.38038e-20)
(19.0878 5.34003 1.85685e-18)
(19.0304 5.26513 -1.90853e-18)
(18.969 5.19425 8.53572e-19)
(18.9041 5.12722 -8.92335e-19)
(16.4424 7.78119 0)
(16.6313 7.81657 1.81272e-18)
(16.8036 7.84113 -1.47348e-17)
(16.9644 7.86063 2.94474e-17)
(17.116 7.87309 -6.00093e-17)
(17.2603 7.8791 3.05357e-17)
(17.3996 7.87943 0)
(17.5352 7.87406 1.53535e-17)
(17.6678 7.86257 9.31732e-17)
(17.7979 7.8446 -6.3139e-17)
(17.9261 7.81995 0)
(18.0528 7.78792 -7.99968e-18)
(18.1771 7.74728 2.315e-17)
(18.2982 7.69699 -2.89215e-19)
(18.4156 7.63659 -2.95792e-17)
(18.5283 7.56599 3.24528e-17)
(18.6353 7.48508 -2.84275e-17)
(18.7352 7.39394 2.77372e-17)
(18.8269 7.29287 -2.76825e-17)
(18.9091 7.18249 -2.73238e-17)
(18.9805 7.06347 2.36298e-17)
(19.0363 6.94734 -1.18088e-17)
(19.0781 6.83839 1.50361e-17)
(19.1104 6.73013 -1.41448e-17)
(19.1336 6.62329 -2.52809e-18)
(19.1483 6.51845 1.32887e-17)
(19.1555 6.41606 0)
(19.1558 6.31644 0)
(19.1498 6.21977 -1.25642e-17)
(19.1381 6.12616 1.33577e-17)
(19.1211 6.0357 0)
(19.0992 5.9484 8.49636e-19)
(19.0729 5.86433 8.51757e-19)
(19.0423 5.78348 7.20883e-18)
(19.0077 5.70576 -7.1978e-18)
(18.9694 5.63132 -3.41718e-18)
(18.9276 5.56042 3.40712e-18)
(18.8824 5.49295 -1.2882e-18)
(18.8341 5.42901 3.43958e-18)
(18.7828 5.36892 -1.66594e-18)
(18.7289 5.31266 -2.1332e-19)
(16.5187 7.59995 1.32006e-17)
(16.6868 7.62957 1.64935e-17)
(16.8401 7.64967 -1.76401e-19)
(16.983 7.66511 0)
(17.1173 7.67423 0)
(17.2448 7.6777 0)
(17.3675 7.67627 0)
(17.4866 7.66998 -5.85736e-17)
(17.6026 7.65854 1.04316e-16)
(17.716 7.64168 -6.04184e-17)
(17.8275 7.61928 6.04102e-17)
(17.9372 7.5908 -3.83911e-17)
(18.0445 7.55532 6.81323e-17)
(18.1489 7.51205 -8.12294e-17)
(18.2501 7.46062 2.88767e-17)
(18.3472 7.40095 2.11268e-17)
(18.4397 7.33292 -2.7787e-17)
(18.5264 7.25653 3.3674e-18)
(18.6064 7.17193 -3.41463e-18)
(18.679 7.07948 3.35218e-17)
(18.7428 6.97957 2.96265e-17)
(18.7938 6.88156 -4.93389e-17)
(18.833 6.78897 -1.60559e-18)
(18.8642 6.69652 0)
(18.8875 6.60482 1.59808e-18)
(18.9034 6.51441 -1.63612e-18)
(18.9126 6.42575 -1.13238e-17)
(18.9156 6.33917 1.29234e-17)
(18.9129 6.25493 -1.29702e-17)
(18.9049 6.17321 1.29339e-17)
(18.892 6.09417 1.29986e-17)
(18.8746 6.01791 -1.37623e-17)
(18.8531 5.94454 -8.04431e-19)
(18.8277 5.87412 6.52966e-18)
(18.7988 5.80659 -5.28072e-18)
(18.7666 5.74212 0)
(18.7314 5.68091 0)
(18.6934 5.62284 -4.06448e-19)
(18.6528 5.56798 8.25455e-19)
(18.61 5.51655 8.26238e-19)
(18.5652 5.46866 2.00119e-19)
(16.5819 7.44415 0)
(16.7322 7.46902 -3.08986e-18)
(16.8693 7.48547 2.52143e-17)
(16.9969 7.49759 -2.59395e-17)
(17.1165 7.50399 -5.2486e-17)
(17.2299 7.5054 5.41019e-17)
(17.3387 7.50252 2.70912e-17)
(17.4439 7.49544 -5.60375e-17)
(17.5461 7.48395 -5.63824e-17)
(17.6457 7.46786 5.75689e-17)
(17.7431 7.4471 0)
(17.8387 7.42126 -2.92038e-17)
(17.932 7.38966 5.85125e-17)
(18.0225 7.35166 -6.45904e-17)
(18.11 7.30702 0)
(18.194 7.25566 -6.897e-18)
(18.2739 7.19749 6.78692e-18)
(18.3489 7.13247 0)
(18.4184 7.06069 3.24642e-18)
(18.4818 6.9824 -6.43693e-18)
(18.5379 6.8978 2.8975e-17)
(18.5834 6.81459 -2.8753e-17)
(18.619 6.73566 3.19673e-18)
(18.6478 6.65664 2.36485e-17)
(18.6698 6.57805 -2.35661e-17)
(18.6855 6.50038 1.55091e-18)
(18.6953 6.42402 -1.4098e-17)
(18.6997 6.34932 1.25095e-17)
(18.699 6.27653 1.5781e-18)
(18.6936 6.20586 0)
(18.6838 6.13747 0)
(18.6701 6.07151 0)
(18.6527 6.00809 -6.26863e-18)
(18.6319 5.94729 6.24596e-18)
(18.6081 5.88908 -7.75827e-19)
(18.5814 5.83359 -6.27523e-18)
(18.5522 5.781 7.03785e-18)
(18.5206 5.73118 0)
(18.4869 5.68418 9.33094e-21)
(18.4515 5.64012 -1.56318e-18)
(18.4144 5.5992 7.6316e-19)
(16.6347 7.30898 1.12061e-17)
(16.7696 7.32991 0)
(16.8927 7.34332 -5.83913e-17)
(17.0071 7.35271 4.82655e-17)
(17.1142 7.3569 0)
(17.2154 7.35663 5.03236e-17)
(17.3123 7.35258 -2.25317e-19)
(17.4057 7.34485 5.25186e-17)
(17.4962 7.33329 -8.07824e-17)
(17.5841 7.31779 -5.42772e-17)
(17.6698 7.2983 5.53977e-17)
(17.7536 7.27453 1.3845e-17)
(17.835 7.24594 0)
(17.9139 7.21207 0)
(17.9898 7.17272 -1.35776e-17)
(18.0626 7.12787 5.93204e-17)
(18.1317 7.07743 -1.17106e-16)
(18.1966 7.02139 5.14888e-17)
(18.2568 6.95981 6.40701e-18)
(18.3117 6.89287 6.35706e-18)
(18.3605 6.82069 -3.08447e-18)
(18.4005 6.74965 4.63515e-17)
(18.4322 6.6821 -7.9642e-17)
(18.458 6.61444 1.50595e-18)
(18.4781 6.54708 2.281e-17)
(18.4927 6.48044 0)
(18.5023 6.41488 1.2111e-17)