/*--------------------------------*- C++ -*----------------------------------*\
| =========                 |                                                 |
| \\      /  F ield         | OpenFOAM: The Open Source CFD Toolbox           |
|  \\    /   O peration     | Version:  5.x                                   |
|   \\  /    A nd           | Web:      www.OpenFOAM.org                      |
|    \\/     M anipulation  |                                                 |
\*---------------------------------------------------------------------------*/
FoamFile
{
    version     2.0;
    format      ascii;
    class       volVectorField;
    location    "550";
    object      U;
}
// * * * * * * * * * * * * * * * * * * * * * * * * * * * * * * * * * * * * * //

dimensions      [0 1 -1 0 0 0 0];

internalField   nonuniform List<vector> 
41860
(
(164.554 251.156 0)
(244.481 188.344 4.43135e-16)
(282.526 114.867 1.46306e-16)
(255.121 85.6843 -3.91986e-16)
(240.729 67.5391 -9.71735e-22)
(224.931 54.4781 -2.75809e-16)
(209.648 44.7168 -3.32797e-16)
(196.608 37.4791 3.90712e-16)
(185.327 31.9091 0)
(175.397 27.4592 -5.03314e-16)
(166.447 23.8433 5.67533e-16)
(158.469 20.8321 6.0531e-16)
(150.927 18.2739 -5.23155e-21)
(145.032 16.1968 6.90385e-16)
(139.236 14.361 -7.8373e-16)
(135.646 12.9454 -7.7686e-16)
(131.808 11.6193 8.23795e-16)
(128.629 10.4823 -8.49804e-16)
(125.899 9.46284 -8.53403e-16)
(122.643 8.49353 9.10141e-16)
(120.622 7.68061 -8.88815e-16)
(117.815 6.87129 -2.54373e-21)
(115.823 6.17316 -5.78178e-21)
(113.9 5.51785 3.52304e-21)
(111.776 4.89807 1.89127e-15)
(110.45 4.34805 -9.15309e-16)
(108.578 3.80687 0)
(107.016 3.31155 -4.5864e-16)
(105.679 2.84787 4.59269e-16)
(104.405 2.40976 0)
(103.063 1.99397 3.40851e-21)
(101.538 1.59414 -3.37519e-21)
(100.412 1.22529 -2.94571e-21)
(99.5684 0.871354 6.50649e-21)
(98.3567 0.536175 2.09344e-16)
(97.6227 0.214527 0)
(96.6281 -0.0892214 -2.50647e-17)
(95.7857 -0.38325 1.97752e-16)
(95.3033 -0.661977 -1.90526e-16)
(94.8475 -0.936034 3.70591e-16)
(94.2897 -1.19279 0)
(93.823 -1.4452 -1.39791e-15)
(89.0634 -1.58419 0)
(88.6687 -1.76701 3.9434e-21)
(87.722 -1.92067 9.51509e-16)
(87.436 -2.08378 -1.81317e-21)
(86.8375 -2.22919 1.81068e-21)
(86.2356 -2.36545 9.58577e-16)
(85.6771 -2.49783 -1.92417e-15)
(85.1391 -2.61922 -9.66696e-16)
(84.6285 -2.7406 -1.85494e-21)
(84.1429 -2.84997 9.74194e-16)
(83.6793 -2.9612 -9.77481e-16)
(83.2382 -3.06174 1.87455e-21)
(82.8222 -3.1649 6.51707e-24)
(82.0814 -3.24474 6.53182e-24)
(81.7265 -3.33977 -1.90022e-21)
(81.619 -3.43798 0)
(81.0158 -3.51487 -2.0012e-15)
(80.8956 -3.6087 -1.90775e-21)
(80.6341 -3.69559 1.98388e-15)
(80.2276 -3.78271 -2.00463e-15)
(79.6583 -3.86821 2.01248e-15)
(79.4581 -3.96558 -4.02286e-15)
(78.8525 -4.04577 2.02376e-15)
(78.6461 -4.14015 -2.01506e-15)
(77.9568 -4.21261 0)
(77.5111 -4.29171 9.72451e-22)
(77.1023 -4.37552 3.50326e-24)
(76.662 -4.45638 -2.01948e-15)
(75.7527 -4.50773 -3.76172e-24)
(75.2567 -4.58532 9.86142e-22)
(74.6154 -4.65228 4.10664e-15)
(73.4959 -4.68842 -5.00727e-22)
(72.5401 -4.73446 4.26807e-15)
(71.706 -4.78851 0)
(70.4145 -4.81051 -8.59318e-15)
(68.9161 -4.81672 -2.59819e-22)
(67.4817 -4.82474 4.4564e-15)
(65.0771 -4.76224 -4.45302e-15)
(66.3173 -4.95645 4.5512e-15)
(-0.362363 -0.205328 -7.63393e-15)
(211.28 311.945 0)
(300.025 231.204 -1.90887e-16)
(329.184 134.075 -6.00616e-17)
(293.938 99.2153 1.59306e-16)
(280.153 78.7533 0)
(264.802 64.2788 4.48816e-22)
(251.775 53.8304 2.78029e-16)
(241.14 46.086 6.17036e-22)
(232.105 40.0734 1.93862e-16)
(224.344 35.2251 2.22541e-16)
(217.752 31.29 -2.56157e-16)
(211.346 27.8749 -5.56488e-16)
(206.402 25.0794 5.20751e-23)
(200.953 22.5239 -2.47032e-21)
(197.832 20.484 0)
(194.415 18.6263 0)
(192.265 17.0175 -3.95053e-16)
(190.389 15.5797 0)
(188.374 14.2184 4.09227e-16)
(187.316 13.03 0)
(185.349 11.8548 8.50254e-16)
(184.13 10.7898 -4.48948e-16)
(182.604 9.7801 -4.42858e-16)
(180.889 8.80753 0)
(179.66 7.91489 -2.00607e-21)
(177.633 7.03105 -4.43625e-16)
(176.313 6.21882 0)
(174.665 5.43921 0)
(172.943 4.69188 -6.55603e-22)
(171.175 3.98065 0)
(169.506 3.30768 0)
(168.022 2.66464 0)
(166.257 2.05278 2.13268e-16)
(164.366 1.46105 0)
(162.747 0.908504 -1.03364e-16)
(160.857 0.373145 1.56885e-21)
(159.191 -0.128228 -1.51464e-21)
(157.456 -0.612827 -4.92095e-17)
(155.573 -1.06508 9.49804e-17)
(153.632 -1.50162 -2.08204e-22)
(151.928 -1.90821 -1.37479e-21)
(150.016 -2.29957 6.979e-16)
(151.387 -2.68044 0)
(150.821 -2.99217 4.75805e-16)
(150.088 -3.27357 -4.79932e-16)
(148.911 -3.53741 1.83933e-21)
(147.907 -3.7856 4.85058e-16)
(146.942 -4.01992 -4.89301e-16)
(145.971 -4.24541 3.10265e-22)
(145.024 -4.45178 4.9428e-16)
(144.089 -4.65684 0)
(143.168 -4.8403 -4.98693e-16)
(142.267 -5.026 1.91297e-21)
(141.377 -5.19212 6.76181e-24)
(140.498 -5.36081 -1.91683e-21)
(139.831 -5.51978 9.70716e-22)
(138.966 -5.67204 -1.93494e-21)
(137.959 -5.80437 9.69062e-22)
(137.294 -5.94998 1.01677e-15)
(136.327 -6.0756 9.76632e-22)
(135.502 -6.20441 -1.01503e-15)
(134.744 -6.34714 1.02525e-15)
(134.046 -6.50358 -9.72053e-22)
(133.047 -6.63456 1.02777e-15)
(132.301 -6.78267 -1.02604e-15)
(131.244 -6.90378 -9.79817e-22)
(130.477 -7.04507 0)
(129.488 -7.16472 1.03149e-15)
(128.4 -7.28175 -1.78918e-24)
(127.308 -7.3951 2.37064e-22)
(126.375 -7.51497 1.05041e-15)
(125.112 -7.61815 0)
(123.844 -7.7163 -2.09806e-15)
(122.673 -7.82003 -2.18296e-24)
(121.291 -7.91111 -2.17221e-15)
(119.607 -7.9818 -2.18288e-15)
(118.015 -8.0564 2.19457e-15)
(116.017 -8.10253 -2.24027e-15)
(114.126 -8.15332 -2.29292e-15)
(110.539 -8.08188 0)
(112.298 -8.37093 -2.34319e-15)
(5.94649 -0.660342 1.22904e-14)
(232.396 341.488 -4.63301e-18)
(329.396 254.041 0)
(354.72 144.601 4.58119e-17)
(315.388 106.569 1.20757e-16)
(301.559 84.8201 0)
(286.28 69.5325 0)
(274.292 58.6761 -1.01118e-16)
(264.824 50.6389 0)
(256.911 44.3791 -1.35832e-16)
(250.247 39.312 -1.18806e-21)
(244.823 35.1978 1.73294e-16)
(239.204 31.5649 7.10922e-21)
(235.352 28.6116 2.11101e-16)
(230.082 25.8014 2.15761e-16)
(227.596 23.5771 0)
(224.027 21.4732 2.36806e-16)
(221.953 19.6538 0)
(220.046 18.0142 2.48465e-16)
(217.915 16.4549 2.46934e-16)
(216.866 15.0917 -2.55397e-16)
(214.737 13.7399 -2.49085e-16)
(213.59 12.5212 2.5841e-16)
(211.801 11.3485 2.52846e-16)
(210.108 10.2344 2.54869e-16)
(208.606 9.194 -1.18682e-21)
(206.595 8.18095 2.50943e-16)
(205.159 7.23977 0)
(203.206 6.33117 -1.23668e-16)
(201.523 5.47011 -3.84702e-22)
(199.619 4.64493 0)
(197.812 3.8628 1.88464e-21)
(196.025 3.11133 1.21213e-16)
(194.109 2.39894 1.19571e-16)
(192.223 1.71094 5.99627e-17)
(190.268 1.06429 0)
(188.346 0.438988 1.79278e-21)
(186.31 -0.148006 -7.10942e-18)
(184.356 -0.715635 -2.8251e-17)
(182.188 -1.24553 -5.51084e-17)
(180.081 -1.75834 -1.09563e-16)
(177.913 -2.23281 -3.24049e-21)
(175.629 -2.69141 2.94632e-21)
(177.921 -3.14979 9.10729e-24)
(177.291 -3.5161 -2.67866e-16)
(176.286 -3.84379 2.67831e-16)
(175.135 -4.15932 -2.72407e-16)
(173.998 -4.45223 -2.73803e-16)
(172.902 -4.72902 0)
(171.795 -4.99536 2.78034e-16)
(170.709 -5.23916 2.79923e-16)
(169.631 -5.48132 1.07641e-21)
(168.567 -5.69796 -9.25643e-22)
(167.519 -5.91714 2.84701e-16)
(166.481 -6.11311 -1.09398e-21)
(165.449 -6.31184 -5.74451e-16)
(164.504 -6.49273 -1.09914e-21)
(163.482 -6.6719 5.75622e-16)
(162.453 -6.83405 0)
(161.5 -6.99817 0)
(160.51 -7.1526 5.88063e-16)
(159.515 -7.30308 0)
(158.61 -7.4705 1.1304e-21)
(157.621 -7.64659 -1.67498e-21)
(156.583 -7.80739 5.66523e-22)
(155.55 -7.97371 0)
(154.441 -8.12318 5.97928e-16)
(153.395 -8.28162 -5.97325e-16)
(152.223 -8.42188 -1.19374e-15)
(151.095 -8.56803 -6.11021e-16)
(149.776 -8.69925 -4.47495e-22)
(148.588 -8.83499 -6.09381e-16)
(147.249 -8.96517 0)
(145.756 -9.08049 -2.93588e-22)
(144.314 -9.19843 1.24275e-15)
(142.745 -9.30941 -1.26178e-15)
(140.932 -9.40368 1.27716e-15)
(139.014 -9.48852 1.2758e-15)
(136.784 -9.55148 1.30009e-15)
(134.675 -9.61966 4.06191e-22)
(130.786 -9.56133 0)
(132.61 -9.85756 0)
(18.7399 -1.6346 -1.34441e-14)
(248.534 365.494 1.07595e-17)
(356.183 274.992 0)
(379.882 155.031 1.24118e-20)
(336.423 113.753 -1.12138e-16)
(321.767 90.5543 0)
(306.387 74.4525 5.85327e-22)
(294.73 63.0748 -6.30791e-22)
(285.598 54.6317 0)
(277.992 48.0367 -1.67075e-21)
(271.622 42.6827 1.77358e-21)
(266.456 38.3187 1.30513e-16)
(261.197 34.4759 1.39783e-16)
(257.442 31.3048 -1.5464e-16)
(252.474 28.319 -3.1965e-16)
(249.547 25.8564 -2.6314e-21)
(245.795 23.5644 -1.7339e-16)
(243.217 21.5402 0)
(240.903 19.725 -1.7977e-16)
(238.479 18.0103 -1.78558e-16)
(236.917 16.4893 1.83559e-16)
(234.635 15.0153 -1.79472e-16)
(233.112 13.6676 -3.69564e-16)
(231.12 12.3857 -1.10768e-21)
(229.268 11.1695 -3.64909e-16)
(227.507 10.0288 -1.82534e-16)
(225.474 8.93023 0)
(223.827 7.90012 0)
(221.775 6.91129 1.78129e-16)
(220.014 5.97353 -9.0383e-17)
(218.06 5.07552 8.90519e-17)
(216.175 4.22279 0)
(214.262 3.40217 -8.76954e-17)
(212.305 2.62516 -8.66725e-17)
(210.423 1.87427 -4.34603e-17)
(208.384 1.16693 0)
(206.468 0.482537 2.61173e-21)
(204.358 -0.161056 -2.52617e-21)
(202.354 -0.784212 2.07458e-17)
(200.178 -1.36721 -4.06911e-17)
(198.071 -1.9327 0)
(195.827 -2.4563 0)
(193.488 -2.96519 -3.12558e-16)
(195.137 -3.45514 0)
(194.466 -3.85614 1.9485e-16)
(193.332 -4.21475 0)
(192.179 -4.56334 -1.35625e-21)
(190.976 -4.88591 1.52006e-21)
(189.81 -5.19071 -2.01699e-16)
(188.635 -5.48428 2.03055e-16)
(187.48 -5.75315 -2.04613e-16)
(186.335 -6.02034 0)
(185.202 -6.25956 2.07411e-16)
(184.086 -6.50161 -2.08707e-16)
(182.98 -6.71822 0)
(181.88 -6.93795 1.92349e-22)
(180.801 -7.13524 1.61761e-21)
(179.713 -7.33361 -8.48277e-16)
(178.671 -7.51557 8.21512e-22)
(177.593 -7.69482 -8.14581e-22)
(176.584 -7.86818 -4.34321e-16)
(175.524 -8.03535 8.27316e-22)
(174.54 -8.22007 -8.34131e-22)
(173.425 -8.41254 0)
(172.354 -8.593 4.41419e-16)
(171.19 -8.7747 -2.82324e-24)
(170.048 -8.94323 -4.44467e-16)
(168.862 -9.11586 4.44929e-16)
(167.601 -9.27188 4.45141e-16)
(166.418 -9.43607 4.5507e-16)
(165.004 -9.58279 8.9849e-16)
(163.66 -9.73027 4.55185e-16)
(162.255 -9.87774 -4.39501e-22)
(160.648 -10.0072 9.18188e-16)
(159.029 -10.1353 -9.29025e-16)
(157.326 -10.2591 1.88589e-15)
(155.411 -10.3685 -4.53641e-22)
(153.297 -10.462 -9.53419e-16)
(150.881 -10.5344 -9.70181e-16)
(148.593 -10.6118 9.89705e-16)
(144.451 -10.5596 1.00381e-15)
(146.377 -10.8453 1.0145e-15)
(36.4471 -3.09134 1.40679e-14)
(260.624 383.803 -5.81984e-18)
(378.515 292.603 -1.06113e-16)
(402.775 164.605 -3.6351e-17)
(355.552 120.321 9.42874e-17)
(339.02 95.474 5.31553e-17)
(323.308 78.6102 5.95111e-17)
(311.207 66.6342 6.71959e-17)
(301.726 57.7419 -1.10653e-21)
(293.902 50.806 8.18321e-17)
(287.417 45.1808 1.33949e-21)
(282.155 40.59 -9.80562e-17)
(277.099 36.586 3.24208e-21)
(273.257 33.238 -3.5023e-21)
(268.705 30.1484 1.20901e-16)
(265.491 27.516 4.08363e-21)
(261.775 25.1034 -8.15639e-21)
(258.914 22.9361 8.43909e-21)
(256.392 20.9984 -4.25876e-21)
(253.841 19.1749 0)
(252 17.5432 0)
(249.675 15.9816 2.85279e-16)
(247.926 14.5395 1.47159e-16)
(245.876 13.1798 -1.45612e-16)
(243.923 11.8865 1.46314e-16)
(242.065 10.6735 -1.47376e-16)
(240.007 9.50856 2.2235e-21)
(238.248 8.41168 -2.25497e-21)
(236.194 7.36315 -2.97692e-22)
(234.361 6.36543 -2.2474e-21)
(232.39 5.41137 -1.4483e-16)
(230.47 4.50418 0)
(228.53 3.63081 7.17554e-17)
(226.558 2.80342 1.40496e-23)
(224.649 2.00296 3.55205e-17)
(222.607 1.24848 3.49004e-17)
(220.667 0.51759 8.73579e-18)
(218.562 -0.170432 4.28146e-18)
(216.538 -0.837384 0)
(214.372 -1.46237 3.35336e-17)
(212.252 -2.06932 -2.04166e-21)
(210.015 -2.63249 1.99165e-21)
(207.667 -3.18201 2.58626e-16)
(208.728 -3.69586 0)
(208.023 -4.12407 0)
(206.85 -4.50833 -1.61593e-16)
(205.654 -4.88218 1.63948e-16)
(204.408 -5.22844 0)
(203.194 -5.55563 1.66818e-16)
(201.974 -5.87101 1.15635e-21)
(200.774 -6.16 -2.58487e-21)
(199.582 -6.44729 -4.8435e-24)
(198.404 -6.7047 -1.71896e-16)
(197.242 -6.9652 -1.31797e-21)
(196.089 -7.19849 0)
(194.943 -7.43524 3.5027e-16)
(193.811 -7.64763 -3.52501e-16)
(192.677 -7.86164 7.06686e-16)
(191.588 -8.05792 3.574e-16)
(190.462 -8.25144 -3.56711e-16)
(189.403 -8.43837 1.38055e-21)
(188.3 -8.61926 4.42545e-24)
(187.26 -8.81813 -3.64733e-16)
(186.093 -9.02603 -1.3827e-21)
(184.963 -9.2206 -3.67867e-16)
(183.742 -9.41696 7.01225e-22)
(182.537 -9.599 3.70666e-16)
(181.284 -9.78532 0)
(179.958 -9.95433 0)
(178.697 -10.1311 0)
(177.219 -10.2909 -3.75184e-16)
(175.785 -10.4499 -3.811e-16)
(174.294 -10.6093 0)
(172.604 -10.7505 -7.67154e-16)
(170.879 -10.889 0)
(169.066 -11.0231 -7.89621e-16)
(167.039 -11.1424 1.80833e-24)
(164.8 -11.245 -7.61316e-22)
(162.232 -11.3248 8.11824e-16)
(159.795 -11.409 8.27759e-16)
(155.412 -11.3598 -8.36394e-16)
(157.455 -11.625 9.78348e-22)
(56.1045 -4.71921 0)
(269.653 397.51 1.06749e-17)
(396.404 306.886 1.7955e-16)
(421.231 172.438 0)
(371.108 125.722 -1.51803e-16)
(352.639 99.3921 -8.50512e-17)
(336.575 81.8946 -9.51532e-17)
(324.008 69.4182 -1.07351e-16)
(314.203 60.163 3.6287e-21)
(306.208 52.9597 -1.31192e-16)
(299.658 47.1264 7.18711e-17)
(294.368 42.3648 2.44631e-21)
(289.493 38.2374 -2.55555e-21)
(285.662 34.7602 0)
(281.473 31.5926 0)
(278.22 28.8458 3.35835e-21)
(274.652 26.3478 -1.10802e-16)
(271.686 24.0757 3.50001e-21)
(269.079 22.0447 -1.18082e-16)
(266.486 20.1364 1.18443e-16)
(264.489 18.4184 -3.78154e-21)
(262.166 16.7864 -1.21422e-16)
(260.285 15.2691 3.85159e-21)
(258.222 13.8462 -3.7895e-21)
(256.217 12.4898 1.2553e-16)
(254.316 11.2177 2.53868e-16)
(252.251 9.99743 1.25036e-16)
(250.429 8.84529 -1.28096e-16)
(248.395 7.74688 -6.26993e-17)
(246.517 6.6988 3.86407e-21)
(244.545 5.69748 6.27768e-17)
(242.61 4.74434 0)
(240.667 3.82644 -6.24297e-17)
(238.693 2.95627 3.76045e-21)
(236.765 2.11358 -3.09134e-17)
(234.736 1.31901 -3.04388e-17)
(232.778 0.54844 -7.60946e-18)
(230.692 -0.177514 0)
(228.661 -0.881936 0)
(226.51 -1.54288 2.93202e-17)
(224.384 -2.18536 -1.77401e-21)
(222.167 -2.78257 0)
(219.825 -3.36732 -1.63009e-22)
(220.401 -3.90217 -2.12132e-21)
(219.663 -4.35358 2.14578e-21)
(218.471 -4.76015 1.41959e-16)
(217.238 -5.15566 1.43906e-16)
(215.96 -5.52241 4.42261e-21)
(214.711 -5.86902 8.81357e-24)
(213.457 -6.20332 -1.47687e-16)
(212.222 -6.50979 -8.60155e-24)
(210.995 -6.81455 4.58193e-21)
(209.782 -7.0878 1.51247e-16)
(208.584 -7.36436 1.52322e-16)
(207.396 -7.6122 0)
(206.214 -7.86378 -3.08503e-16)
(205.048 -8.08971 3.10951e-16)
(203.88 -8.31739 -6.23585e-16)
(202.746 -8.5259 -1.58043e-22)
(201.59 -8.73222 3.14949e-16)
(200.484 -8.93076 0)
(199.348 -9.12366 0)
(198.263 -9.33495 3.21899e-16)
(197.063 -9.55672 2.44826e-21)
(195.878 -9.76333 -1.237e-21)
(194.616 -9.97287 0)
(193.355 -10.1664 -9.26297e-23)
(192.052 -10.3651 0)
(190.673 -10.5455 3.29517e-16)
(189.34 -10.7329 3.35649e-16)
(187.811 -10.9043 3.31662e-16)
(186.306 -11.0737 3.37256e-16)
(184.739 -11.2433 0)
(182.98 -11.3949 -6.48262e-22)
(181.169 -11.5428 6.88654e-16)
(179.263 -11.6858 0)
(177.135 -11.8136 0)
(174.796 -11.9245 0)
(172.097 -12.0108 0)
(169.531 -12.1005 -7.32069e-16)
(164.935 -12.0545 7.38102e-16)
(167.074 -12.2909 -1.50599e-15)
(74.7607 -6.28123 2.5947e-14)
(276.219 407.631 -9.35845e-18)
(411.069 318.804 -1.57596e-16)
(436.277 178.966 -3.80102e-22)
(383.926 130.238 6.34326e-17)
(363.855 102.658 8.08754e-21)
(347.486 84.6228 4.01711e-17)
(334.595 71.7406 9.11033e-17)
(324.574 62.1904 -5.07613e-17)
(316.478 54.7691 5.60599e-17)
(309.91 48.7654 -2.92285e-21)
(304.636 43.8647 6.79633e-17)
(299.917 39.6329 4.50006e-21)
(296.143 36.0518 -4.90124e-21)
(292.246 32.8161 5.21178e-21)
(289.053 29.9818 -1.15264e-20)
(285.669 27.4163 1.4271e-20)
(282.694 25.0614 8.79571e-23)
(280.068 22.9541 1.03721e-16)
(277.479 20.975 -1.04398e-16)
(275.396 19.1851 6.61718e-21)
(273.096 17.4929 -1.07684e-16)
(271.142 15.912 6.78167e-21)
(269.084 14.4342 1.11217e-16)
(267.059 13.0236 -9.28832e-22)
(265.137 11.7 -1.47514e-20)
(263.084 10.4314 -2.2392e-16)
(261.227 9.23104 1.1489e-16)
(259.215 8.08852 3.44988e-21)
(257.315 6.99619 -3.4736e-21)
(255.352 5.95302 0)
(253.413 4.95917 -3.45917e-21)
(251.474 4.00168 5.62923e-17)
(249.505 3.09346 -5.57768e-17)
(247.568 2.2132 2.78968e-17)
(245.554 1.38285 0)
(243.588 0.576884 0)
(241.52 -0.182954 0)
(239.488 -0.920868 -3.30482e-21)
(237.355 -1.61396 -2.65315e-17)
(235.23 -2.28827 3.21097e-21)
(233.033 -2.91594 -3.17624e-21)
(230.703 -3.53248 -1.85866e-22)
(230.88 -4.08696 7.67452e-21)
(230.108 -4.55903 1.27918e-16)
(228.904 -4.98563 1.28987e-16)
(227.641 -5.40069 -1.30752e-16)
(226.338 -5.78595 -4.01155e-21)
(225.061 -6.15011 -1.33253e-16)
(223.78 -6.50152 4.09098e-21)
(222.517 -6.82381 0)
(221.262 -7.14438 0)
(220.02 -7.43198 0)
(218.793 -7.72309 -2.77368e-16)
(217.575 -7.98414 2.79494e-16)
(216.365 -8.24918 5.62037e-16)
(215.169 -8.48736 0)
(213.972 -8.72746 -2.00553e-21)
(212.802 -8.94712 -2.87187e-16)
(211.619 -9.16505 2.87247e-16)
(210.475 -9.37419 -2.90619e-16)
(209.31 -9.57802 -2.90093e-16)
(208.187 -9.80061 2.93634e-16)
(206.958 -10.0349 0)
(205.727 -10.2525 0)
(204.43 -10.474 0)
(203.12 -10.6781 -2.9883e-16)
(201.773 -10.8879 -1.14463e-21)
(200.348 -11.0787 -3.0091e-16)
(198.955 -11.2759 -3.06411e-16)
(197.381 -11.4579 -3.0282e-16)
(195.813 -11.6367 -3.08021e-16)
(194.179 -11.8155 0)
(192.359 -11.9766 0)
(190.473 -12.1331 -6.2896e-16)
(188.483 -12.2841 -1.21736e-21)
(186.267 -12.4197 6.11606e-22)
(183.838 -12.5381 0)
(181.024 -12.6303 6.55503e-16)
(178.343 -12.7249 -6.37095e-22)
(173.559 -12.6832 -6.72608e-16)
(175.767 -12.8826 6.88532e-16)
(91.0321 -7.67984 -2.28658e-14)
(280.759 414.855 1.45778e-17)
(423.377 329.04 7.12487e-17)
(449.226 184.745 2.18884e-22)
(395.136 134.259 -5.57253e-17)
(373.709 105.57 3.1893e-17)
(357.052 87.0435 -3.57427e-17)
(343.918 73.8066 -7.41112e-21)
(333.735 63.9972 4.54279e-17)
(325.566 56.3825 5.01974e-17)
(318.991 50.227 -1.103e-16)
(313.743 45.203 -6.09046e-17)
(309.15 40.8755 0)
(305.443 37.2035 4.48345e-21)
(301.778 33.9036 -4.56468e-21)
(298.679 30.9957 8.46383e-17)
(295.48 28.3719 8.64459e-17)
(292.551 25.9475 9.11031e-17)
(289.945 23.7746 9.38293e-17)
(287.384 21.7335 0)
(285.257 19.8809 9.91983e-17)
(282.991 18.1348 1.4767e-21)
(280.999 16.4979 0)
(278.955 14.9707 -1.01721e-16)
(276.931 13.5114 -1.02645e-16)
(275.003 12.1414 -1.04191e-16)
(272.97 10.829 1.02828e-16)
(271.095 9.5851 6.47223e-21)
(269.108 8.40225 -6.30228e-21)
(267.201 7.26975 0)
(265.249 6.18832 5.20659e-17)
(263.314 5.15727 6.38177e-21)
(261.381 4.1635 -5.19644e-17)
(259.421 3.22038 1.03025e-16)
(257.484 2.30569 -5.15522e-17)
(255.483 1.44247 -2.54082e-17)
(253.516 0.603993 -6.19197e-21)
(251.464 -0.186992 0)
(249.435 -0.955704 0)
(247.319 -1.67837 2.45629e-17)
(245.2 -2.38199 0)
(243.023 -3.03766 -4.80782e-17)
(240.706 -3.68364 -1.77536e-22)
(240.551 -4.25696 0)
(239.741 -4.74795 -1.18717e-16)
(238.526 -5.19298 -2.39579e-16)
(237.242 -5.62617 -3.71422e-21)
(235.918 -6.02857 -1.22387e-16)
(234.618 -6.40901 2.47689e-16)
(233.314 -6.77628 -1.24871e-16)
(232.027 -7.11326 1.26014e-16)
(230.748 -7.4485 -3.87081e-21)
(229.482 -7.74944 -3.91547e-21)
(228.229 -8.05407 1.29043e-16)
(226.986 -8.32739 -2.60108e-16)
(225.75 -8.60494 -2.61562e-16)
(224.528 -8.85447 0)
(223.305 -9.10611 2.64692e-16)
(222.104 -9.33623 -4.08744e-21)
(220.897 -9.56488 -2.67555e-16)
(219.72 -9.78399 2.70705e-16)
(218.53 -9.99796 2.70262e-16)
(217.374 -10.2311 -5.47174e-16)
(216.117 -10.4769 -4.16488e-21)
(214.848 -10.7049 2.10364e-21)
(213.517 -10.9374 -2.11041e-21)
(212.165 -11.1514 2.78519e-16)
(210.778 -11.3715 -2.80181e-16)
(209.311 -11.572 0)
(207.864 -11.7784 0)
(206.249 -11.9702 0)
(204.625 -12.1577 -2.87146e-16)
(202.93 -12.3452 -1.10907e-21)
(201.056 -12.5151 1.09898e-21)
(199.101 -12.6795 -5.86264e-16)
(197.035 -12.8381 0)
(194.74 -12.9809 5.7262e-22)
(192.229 -13.1062 6.0096e-16)
(189.31 -13.2042 4.41714e-22)
(186.524 -13.3029 0)
(181.573 -13.2666 -2.99577e-22)
(183.821 -13.4202 3.05041e-22)
(105.083 -8.9315 -9.68421e-15)
(283.723 419.847 -1.27752e-17)
(433.816 337.994 6.611e-17)
(460.852 190.11 -2.0042e-17)
(405.43 138.028 1.02136e-16)
(382.79 108.299 -1.88893e-21)
(365.84 89.2983 3.30291e-17)
(352.499 75.7309 -3.76399e-17)
(342.174 65.6788 -2.62346e-21)
(333.936 57.882 -4.64198e-17)
(327.349 51.583 5.09427e-17)
(322.12 46.4429 5.61847e-17)
(317.622 42.0232 0)
(313.978 38.2666 -8.24798e-21)
(310.495 34.9035 -6.92891e-17)
(307.495 31.929 -7.77008e-17)
(304.47 29.2518 9.61188e-21)
(301.615 26.7664 -8.39078e-17)
(299.05 24.5346 -8.6644e-17)
(296.534 22.4374 -2.13813e-20)
(294.39 20.5281 9.28931e-21)
(292.164 18.7324 1.61085e-21)
(290.157 17.0445 9.48768e-17)
(288.133 15.4717 0)
(286.12 13.9676 9.57166e-17)
(284.196 12.5546 0)
(282.188 11.2016 1.17757e-20)
(280.307 9.91728 -1.20153e-20)
(278.344 8.69677 0)
(276.439 7.5269 0)
(274.502 6.40973 -9.76028e-17)
(272.574 5.34392 -5.94481e-21)
(270.65 4.31619 0)
(268.7 3.34041 -4.83552e-17)
(266.767 2.39348 2.41972e-17)
(264.78 1.49945 5.90248e-21)
(262.816 0.630503 0)
(260.779 -0.189687 -5.75967e-21)
(258.755 -0.987285 1.17544e-17)
(256.655 -1.73769 -2.31128e-17)
(254.544 -2.46882 5.59566e-21)
(252.384 -3.15073 4.52524e-17)
(250.085 -3.82448 -8.95038e-17)
(249.645 -4.41618 5.48681e-17)
(248.792 -4.92484 6.84342e-21)
(247.569 -5.38712 2.25899e-16)
(246.267 -5.8374 0)
(244.926 -6.25596 1.15471e-16)
(243.606 -6.65177 -7.31095e-21)
(242.282 -7.03401 1.1786e-16)
(240.974 -7.38486 -1.1895e-16)
(239.674 -7.73396 0)
(238.386 -8.04751 0)
(237.111 -8.3649 3.72594e-21)
(235.845 -8.64983 -3.74224e-21)
(234.586 -8.93919 3.77717e-21)
(233.339 -9.19944 1.30358e-23)
(232.093 -9.462 -2.50139e-16)
(230.866 -9.70204 -2.52745e-16)
(229.636 -9.94081 -2.52894e-16)
(228.43 -10.1694 -2.55896e-16)
(227.216 -10.3929 0)
(226.03 -10.636 2.58667e-16)
(224.748 -10.8928 0)
(223.443 -11.1306 0)
(222.082 -11.3734 0)
(220.692 -11.5968 -2.63375e-16)
(219.267 -11.8266 2.64962e-16)
(217.762 -12.0363 -4.04791e-21)
(216.265 -12.2515 2.70086e-16)
(214.614 -12.4524 -2.66968e-16)
(212.936 -12.6482 2.71532e-16)
(211.187 -12.844 8.22239e-24)
(209.262 -13.0222 -2.07824e-21)
(207.242 -13.1941 5.54251e-16)
(205.107 -13.3599 0)
(202.74 -13.5096 -5.66062e-16)
(200.152 -13.6413 -5.67858e-16)
(197.137 -13.7447 -1.25499e-22)
(194.254 -13.847 0)
(189.152 -13.8176 0)
(191.41 -13.9152 1.44993e-22)
(117.63 -10.0936 8.06818e-15)
(285.516 423.194 0)
(442.651 345.893 3.23981e-19)
(471.574 195.256 1.88655e-17)
(415.212 141.695 -4.81405e-17)
(391.442 110.951 -1.61361e-21)
(374.18 91.4727 -3.13058e-17)
(360.643 77.5827 -4.20708e-21)
(350.18 67.2935 0)
(341.866 59.3178 0)
(335.253 52.8775 -4.80636e-17)
(330.03 47.6234 -5.29353e-17)
(325.598 43.1117 6.78753e-21)
(322.002 39.273 -6.27303e-17)
(318.659 35.8459 1.29541e-16)
(315.75 32.8083 0)
(312.88 30.0798 9.11715e-21)
(310.114 27.5385 1.36785e-22)
(307.604 25.2525 -1.98145e-20)
(305.141 23.1031 9.9717e-21)
(302.997 21.1414 -8.64817e-17)
(300.814 19.299 8.57717e-17)
(298.807 17.5636 -8.94281e-17)
(296.808 15.9477 0)
(294.813 14.4014 -9.0396e-17)
(292.899 12.948 -1.11765e-20)
(290.918 11.5565 -1.11415e-20)
(289.04 10.2341 1.13774e-20)
(287.1 8.97781 4.59603e-17)
(285.202 7.77258 -4.67367e-17)
(283.282 6.62146 2.5123e-22)
(281.365 5.52265 1.12846e-20)
(279.45 4.46266 1.13396e-20)
(277.513 3.45583 -1.11782e-20)
(275.586 2.47825 0)
(273.611 1.55491 2.26989e-17)
(271.652 0.656978 5.6953e-18)
(269.63 -0.191004 6.53534e-23)
(267.612 -1.01609 -1.11889e-17)
(265.528 -1.79288 0)
(263.426 -2.5502 0)
(261.283 -3.25706 0)
(259.001 -3.95734 0)
(258.316 -4.56717 -6.51943e-21)
(257.415 -5.09258 1.06599e-16)
(256.184 -5.57123 -2.20847e-22)
(254.867 -6.03782 -6.68123e-21)
(253.511 -6.47181 6.70815e-21)
(252.172 -6.88231 -1.78228e-22)
(250.83 -7.27886 -1.12445e-16)
(249.504 -7.64297 -1.13516e-16)
(248.184 -8.00533 6.97601e-21)
(246.877 -8.33093 0)
(245.582 -8.66054 -7.11387e-21)
(244.295 -8.95657 -2.34563e-16)
(243.014 -9.25725 2.50442e-23)
(241.745 -9.52775 -7.25338e-21)
(240.478 -9.80075 4.7778e-16)
(239.226 -10.0503 -7.18489e-21)
(237.974 -10.2987 2.41581e-16)
(236.741 -10.5364 2.44458e-16)
(235.506 -10.7691 3.73075e-21)
(234.292 -11.0217 1.20097e-23)
(232.986 -11.2889 -3.7568e-21)
(231.649 -11.5361 0)
(230.258 -11.7888 2.49524e-16)
(228.834 -12.0212 2.51663e-16)
(227.373 -12.2603 0)
(225.832 -12.4788 3.87476e-21)
(224.291 -12.7023 -2.58048e-16)
(222.604 -12.9121 5.10163e-16)
(220.877 -13.1158 -2.59412e-16)
(219.076 -13.3195 -7.85465e-24)
(217.104 -13.5056 3.97866e-21)
(215.024 -13.6848 8.64441e-24)
(212.824 -13.8573 5.36865e-16)
(210.389 -14.0136 1.08081e-15)
(207.729 -14.1514 0)
(204.626 -14.2601 -5.50193e-16)
(201.652 -14.3655 0)
(196.414 -14.3446 -5.38112e-22)
(198.647 -14.3745 8.28623e-22)
(129.319 -11.2185 6.75301e-15)
(286.431 425.329 -7.50692e-22)
(450.034 352.877 -5.78668e-17)
(481.614 200.304 1.83022e-17)
(424.726 145.359 0)
(399.883 113.598 -3.46613e-21)
(382.282 93.6244 3.02588e-17)
(368.547 79.4085 3.44514e-17)
(357.94 68.8805 0)
(349.537 60.7238 -1.0491e-20)
(342.88 54.1404 4.60905e-17)
(337.644 48.7711 0)
(333.25 44.1655 -5.36973e-17)
(329.685 40.2446 5.96469e-17)
(326.445 36.7515 -6.1376e-17)
(323.614 33.652 0)
(320.876 30.8725 0)
(318.202 28.2784 -7.42607e-17)
(315.753 25.941 7.68985e-17)
(313.349 23.742 7.79637e-17)
(311.219 21.7309 8.2115e-17)
(309.08 19.8438 0)
(307.082 18.0634 8.50725e-17)
(305.11 16.4061 -1.96399e-22)
(303.138 14.8196 -8.61367e-17)
(301.238 13.3274 8.77093e-17)
(299.285 11.8989 8.68093e-17)
(297.414 10.5401 8.93751e-17)
(295.498 9.24945 -4.39664e-17)
(293.611 8.01031 4.47233e-17)
(291.707 6.82655 -2.13396e-20)
(289.803 5.69603 4.44273e-17)
(287.9 4.60501 -1.08603e-20)
(285.974 3.56831 -6.97072e-23)
(284.055 2.56126 -2.20379e-17)
(282.093 1.6097 0)
(280.14 0.683894 -5.44057e-18)
(278.132 -0.190829 -2.70396e-18)
(276.121 -1.04235 1.07257e-17)
(274.051 -1.84452 1.02754e-20)
(271.959 -2.62704 0)
(269.831 -3.35788 4.13643e-17)
(267.568 -4.08376 9.96512e-21)
(266.67 -4.71164 -5.01431e-17)
(265.716 -5.25313 -1.0238e-16)
(264.475 -5.74746 -1.03458e-16)
(263.146 -6.22973 0)
(261.776 -6.6786 -1.29508e-20)
(260.421 -7.10327 -2.14381e-16)
(259.062 -7.51363 -1.3044e-20)
(257.719 -7.89056 1.09188e-16)
(256.381 -8.26571 0)
(255.055 -8.60296 0)
(253.741 -8.94437 1.1194e-16)
(252.434 -9.25113 2.2572e-16)
(251.134 -9.56273 -2.27073e-16)
(249.844 -9.84313 6.98069e-21)
(248.556 -10.1262 -4.59868e-16)
(247.281 -10.385 7.28703e-21)
(246.009 -10.6427 -2.32556e-16)
(244.751 -10.8892 -7.19318e-21)
(243.495 -11.1308 2.35022e-16)
(242.256 -11.3926 7.25002e-21)
(240.926 -11.6697 7.25837e-21)
(239.56 -11.926 2.40258e-16)
(238.141 -12.1883 -2.40263e-16)
(236.685 -12.4294 -8.0746e-23)
(235.189 -12.6774 -2.43759e-16)
(233.615 -12.9044 0)
(232.031 -13.136 0)
(230.311 -13.3543 -2.45572e-16)
(228.537 -13.5656 2.49701e-16)
(226.688 -13.777 -3.84146e-21)
(224.671 -13.9707 0)
(222.536 -14.1568 0)
(220.273 -14.3358 -5.16437e-16)
(217.775 -14.4985 -5.19725e-16)
(215.048 -14.6421 1.98301e-21)
(211.862 -14.7561 1.01149e-21)
(208.803 -14.8638 5.38321e-16)
(203.442 -14.8533 0)
(205.606 -14.8024 5.58837e-16)
(140.612 -12.3446 -5.75621e-15)
(286.685 426.569 2.37232e-17)
(456.078 359.066 -5.51261e-17)
(491.085 205.335 -1.77879e-17)
(434.129 149.092 -1.8348e-21)
(408.262 116.293 0)
(390.292 95.7968 2.9617e-17)
(376.347 81.2434 -3.37075e-17)
(365.584 70.4692 0)
(357.075 62.1257 0)
(350.355 55.3943 0)
(345.086 49.906 -4.89307e-17)
(340.702 45.2027 5.17512e-17)
(337.149 41.1977 -5.73026e-17)
(333.978 37.6358 -1.44815e-20)
(331.208 34.4737 1.58756e-20)
(328.578 31.6424 0)
(325.991 28.9968 7.08812e-17)
(323.606 26.6097 -7.3442e-17)
(321.262 24.3627 -1.48985e-16)
(319.153 22.3041 -2.38974e-21)
(317.058 20.3735 -3.80993e-20)
(315.076 18.5498 -8.15123e-17)
(313.132 16.8525 8.16445e-17)
(311.185 15.2269 8.26997e-17)
(309.303 13.6972 -8.42466e-17)
(307.377 12.2329 -8.33763e-17)
(305.517 10.8389 -8.59751e-17)
(303.625 9.51476 -4.22546e-17)
(301.751 8.24276 1.51474e-22)
(299.865 7.02731 4.26204e-17)
(297.973 5.86601 -4.2759e-17)
(296.082 4.74487 0)
(294.169 3.67916 -4.24342e-17)
(292.258 2.64352 1.34375e-22)
(290.309 1.66457 -2.09951e-17)
(288.362 0.711699 -5.28116e-18)
(286.367 -0.18898 2.01844e-20)
(284.363 -1.06616 -2.03306e-20)
(282.307 -1.89296 1.98487e-20)
(280.225 -2.69993 -4.05652e-17)
(278.11 -3.454 -4.00204e-17)
(275.866 -4.20476 1.92629e-20)
(274.784 -4.85071 -4.8419e-17)
(273.771 -5.40782 -9.88723e-17)
(272.518 -5.91727 -1.00007e-16)
(271.178 -6.41475 -1.23665e-20)
(269.795 -6.87807 -1.02387e-16)
(268.425 -7.31652 1.03675e-16)
(267.051 -7.74031 1.04597e-16)
(265.691 -8.12969 0)
(264.336 -8.51729 0)
(262.993 -8.86588 0)
(261.661 -9.21876 -1.08322e-16)
(260.336 -9.53597 0)
(259.017 -9.85818 2.19765e-16)
(257.707 -10.1482 0)
(256.4 -10.4411 2.2257e-16)
(255.103 -10.7089 2.22055e-22)
(253.81 -10.9757 1.89287e-22)
(252.53 -11.2307 -2.27842e-16)
(251.253 -11.4809 -2.27547e-16)
(249.989 -11.7517 7.01972e-21)
(248.638 -12.0384 -2.29922e-16)
(247.244 -12.3036 -4.65252e-16)
(245.798 -12.5751 -7.11145e-21)
(244.311 -12.8247 -4.6921e-16)
(242.784 -13.0814 2.36e-16)
(241.178 -13.3166 -2.3627e-16)
(239.554 -13.5561 -2.40469e-16)
(237.8 -13.7825 0)
(235.983 -14.0014 0)
(234.089 -14.2201 0)
(232.029 -14.4211 0)
(229.84 -14.614 3.76738e-21)
(227.52 -14.7994 -7.6218e-21)
(224.962 -14.9682 3.82511e-21)
(222.171 -15.1173 0)
(218.908 -15.2365 -5.10847e-16)
(215.768 -15.346 -5.19899e-16)
(210.297 -15.348 -5.19636e-16)
(212.341 -15.2023 -5.4022e-16)
(151.813 -13.4981 5.01397e-15)
(286.443 427.15 -2.17729e-17)
(460.903 364.583 5.18993e-17)
(500.03 210.407 0)
(443.523 152.95 4.41182e-17)
(416.688 119.084 -2.62262e-17)
(398.317 98.0269 -2.92909e-17)
(384.144 83.1168 3.3244e-17)
(373.211 72.0843 -3.68577e-17)
(364.578 63.5445 0)
(357.773 56.6574 -4.37086e-17)
(352.449 51.0443 3.19654e-20)
(348.048 46.2381 -2.42132e-20)
(344.487 42.1456 5.55026e-17)
(341.354 38.5108 5.67363e-17)
(338.624 35.2843 6.31189e-17)
(336.078 32.3994 -4.95243e-22)
(333.57 29.7023 3.29835e-20)
(331.245 27.2662 3.46508e-20)
(328.958 24.972 7.15651e-17)
(326.875 22.8671 -1.51053e-16)
(324.823 20.8937 -7.50953e-17)
(322.862 19.0277 -7.85058e-17)
(320.945 17.2911 -7.86313e-17)
(319.024 15.6274 -3.8754e-20)
(317.161 14.061 0)
(315.263 12.5616 0)
(313.417 11.1331 4.06892e-20)