/*--------------------------------*- C++ -*----------------------------------*\
| =========                 |                                                 |
| \\      /  F ield         | OpenFOAM: The Open Source CFD Toolbox           |
|  \\    /   O peration     | Version:  5.x                                   |
|   \\  /    A nd           | Web:      www.OpenFOAM.org                      |
|    \\/     M anipulation  |                                                 |
\*---------------------------------------------------------------------------*/
FoamFile
{
    version     2.0;
    format      ascii;
    class       volScalarField;
    location    "1000";
    object      nut;
}
// * * * * * * * * * * * * * * * * * * * * * * * * * * * * * * * * * * * * * //

dimensions      [0 2 -1 0 0 0 0];

internalField   nonuniform List<scalar> 
11040
(
0.00313497
0.00376634
0.0040899
0.00417236
0.00406651
0.00386666
0.00365094
0.00347432
0.00331492
0.00313929
0.00290376
0.00267029
0.00249339
0.00236808
0.00224921
0.00213153
0.0020149
0.00190306
0.00179598
0.00169165
0.00158789
0.0014956
0.00141324
0.0013312
0.00124826
0.00116333
0.00107542
0.000988212
0.000953107
0.00098119
0.000857197
0.000628425
0.000436805
0.000396265
0.000357006
0.000324808
0.000350645
0.000599479
0.000738808
0.000755049
0.000760688
0.00791395
0.00848172
0.00775059
0.00699807
0.00624509
0.00558924
0.00510242
0.00503859
0.00505187
0.00500506
0.00487759
0.00470253
0.00455741
0.00440677
0.00422166
0.00402935
0.00384915
0.00368621
0.00353917
0.00340544
0.00328342
0.00318196
0.00309451
0.00301305
0.00293724
0.00286566
0.00279703
0.00273314
0.00269453
0.00268401
0.00261885
0.00250757
0.0023495
0.00219126
0.00198767
0.00176209
0.00167712
0.00182271
0.00221419
0.00283887
0.00328883
0.0161134
0.0169812
0.0159629
0.0146823
0.0132584
0.0118384
0.0105289
0.0093693
0.00837811
0.00752617
0.00673329
0.00615621
0.00603764
0.00599199
0.00592597
0.00584598
0.00575339
0.00565451
0.00555671
0.0054643
0.00537834
0.00530928
0.00524766
0.00518599
0.00512421
0.00506234
0.00499985
0.00493734
0.00488005
0.00482955
0.00476635
0.00468979
0.00460096
0.00451636
0.00440742
0.00419985
0.00407994
0.00434842
0.00484851
0.00546885
0.00628817
0.0254707
0.0264277
0.0253408
0.023695
0.0217632
0.019764
0.0178267
0.01599
0.0142863
0.0127084
0.0111626
0.00982338
0.00884084
0.00810294
0.00779022
0.00765117
0.0075542
0.00748059
0.0074227
0.00737568
0.00733636
0.00730985
0.00728701
0.00726212
0.00723345
0.00720043
0.00716228
0.00711858
0.00707024
0.0070179
0.00695823
0.00689359
0.00683103
0.00678572
0.00675423
0.00665483
0.00655275
0.00681916
0.0075026
0.0085862
0.00963246
0.0356312
0.0365639
0.0355077
0.0336634
0.0313855
0.0289123
0.0264074
0.023911
0.0215307
0.0192838
0.0170608
0.0150602
0.0134599
0.0121952
0.011145
0.0102721
0.00978227
0.00954214
0.00940301
0.00931828
0.00927025
0.00925142
0.00924499
0.00924202
0.00923874
0.00923297
0.00922252
0.00920545
0.00918043
0.00914676
0.00910429
0.00905688
0.00901462
0.00899609
0.00901886
0.00902793
0.00900374
0.00926333
0.0100897
0.0115948
0.0133298
0.046208
0.0470649
0.0460976
0.0442153
0.0417711
0.0389343
0.0359112
0.0328618
0.0298994
0.0270475
0.0241855
0.0215302
0.0193083
0.0175139
0.0159702
0.0146239
0.0135036
0.0125453
0.0120019
0.0116937
0.0115091
0.0114043
0.0113421
0.011301
0.0112759
0.0112614
0.0112523
0.0112439
0.0112327
0.0112158
0.0111924
0.011165
0.0111433
0.011146
0.0112026
0.0112991
0.0113885
0.011662
0.012504
0.0141577
0.0169234
0.0568798
0.057617
0.0567645
0.05497
0.0524986
0.0495342
0.0462857
0.0429053
0.039524
0.0361834
0.0327664
0.029504
0.0266715
0.0243006
0.0222148
0.0203629
0.0187227
0.0172591
0.015992
0.015042
0.0144991
0.0141616
0.0139224
0.0137458
0.0136195
0.0135252
0.0134535
0.0133976
0.013352
0.0133127
0.0132774
0.0132471
0.0132286
0.013237
0.0133021
0.0134431
0.0136344
0.0139507
0.014715
0.0162392
0.0191225
0.0672919
0.0679156
0.0671922
0.0655673
0.0632233
0.0603507
0.0571216
0.0536581
0.0500868
0.0464558
0.0426577
0.0389219
0.0355572
0.0326362
0.0300044
0.0276227
0.0254683
0.0235151
0.0217364
0.0201351
0.0187836
0.017911
0.0173585
0.0169576
0.0166463
0.0163924
0.0161783
0.0159936
0.015832
0.0156898
0.0155657
0.0154616
0.0153836
0.0153442
0.0153666
0.0154831
0.0157039
0.016052
0.0167127
0.0179477
0.0203593
0.0772039
0.0777105
0.0771068
0.075691
0.0735874
0.070961
0.0679418
0.064618
0.0610932
0.0574053
0.0534568
0.0494549
0.0457145
0.0423456
0.0392374
0.0363681
0.0337252
0.0312907
0.0290426
0.0269593
0.0250317
0.0234761
0.0223681
0.0215531
0.0209272
0.020412
0.019963
0.0195567
0.0191815
0.0188323
0.0185087
0.0182147
0.017959
0.0177557
0.0176254
0.0175999
0.0177122
0.0179869
0.0185095
0.0194223
0.02113
0.086377
0.0867781
0.086284
0.0850891
0.0832799
0.0809877
0.0783045
0.0752857
0.0720051
0.0684614
0.0645857
0.0605486
0.0566425
0.0530059
0.0495925
0.0463654
0.0433268
0.0404768
0.0378046
0.0352956
0.0329318
0.0309273
0.0293187
0.0279987
0.0269369
0.0260541
0.0252842
0.0245834
0.0239257
0.0232966
0.0226907
0.0221096
0.0215618
0.0210628
0.0206336
0.0203069
0.0201237
0.0201228
0.0203612
0.0209036
0.0219312
0.0946601
0.0949736
0.0945757
0.0935918
0.0920841
0.0901545
0.0878661
0.0852306
0.0823026
0.0790973
0.0755305
0.0717199
0.0679073
0.0642264
0.060654
0.057215
0.0539244
0.0508004
0.0478156
0.044965
0.0422427
0.0399046
0.0379434
0.0361867
0.0346922
0.0334224
0.0323085
0.0312942
0.0303407
0.0294225
0.0285244
0.0276398
0.0267705
0.0259259
0.0251215
0.0243874
0.0237645
0.0232949
0.0230375
0.023046
0.0233641
0.101987
0.102231
0.101912
0.101114
0.0998843
0.098302
0.0964108
0.0941995
0.0917129
0.0889536
0.0858445
0.0824578
0.0789718
0.0754932
0.0720104
0.068564
0.0651861
0.0619022
0.058724
0.0556553
0.0526987
0.0501266
0.0479218
0.0458481
0.0439329
0.0422738
0.0408309
0.039533
0.0383247
0.0371674
0.0360353
0.034912
0.0337896
0.0326669
0.0315465
0.0304476
0.0294008
0.0284358
0.0276037
0.0269674
0.0264791
0.108363
0.108546
0.108285
0.107642
0.106653
0.105379
0.103851
0.10205
0.100012
0.0977336
0.0951473
0.0922916
0.0892727
0.0861764
0.0830007
0.0797919
0.0765656
0.073348
0.070162
0.0670243
0.0639463
0.0612315
0.058887
0.056661
0.0545381
0.0525239
0.050651
0.0489977
0.0475335
0.0461843
0.044895
0.0436302
0.0423709
0.0411011
0.0398101
0.0385038
0.0371975
0.0359008
0.034642
0.0334808
0.0322739
0.11383
0.113957
0.11374
0.113223
0.112435
0.111421
0.110204
0.108766
0.107136
0.105308
0.103229
0.100902
0.0984147
0.0958143
0.0930916
0.0902747
0.0873865
0.0844593
0.081495
0.0785087
0.0755158
0.0728253
0.0704673
0.0682081
0.0660352
0.0639373
0.0619076
0.059954
0.0580939
0.0564002
0.0548848
0.0534798
0.0521284
0.0507943
0.0494501
0.0480867
0.0467043
0.045294
0.0438608
0.0424484
0.0408458
0.118445
0.118534
0.118356
0.117942
0.117319
0.116518
0.115556
0.114421
0.113135
0.111695
0.110048
0.108212
0.106238
0.10415
0.101934
0.0996026
0.0971701
0.0946507
0.0920575
0.0894019
0.0867032
0.0842301
0.0820152
0.0798638
0.0777737
0.0757471
0.0737697
0.0718325
0.0699299
0.0680682
0.0662594
0.064523
0.0629294
0.0614688
0.060075
0.0587054
0.0573385
0.055949
0.054525
0.0530915
0.0514299
0.12233
0.122389
0.122239
0.121906
0.121421
0.120785
0.120024
0.119132
0.118124
0.117
0.11572
0.114298
0.112766
0.111136
0.109387
0.107532
0.105586
0.103545
0.101414
0.099198
0.0969042
0.0947673
0.0928279
0.0909229
0.0890526
0.0872164
0.085412
0.0836353
0.0818812
0.0801437
0.078418
0.0767072
0.0750157
0.0733529
0.0717195
0.0701657
0.0687264
0.0673471
0.0659802
0.0646218
0.0630776
0.125585
0.125622
0.125494
0.125225
0.124838
0.124335
0.123735
0.123037
0.122251
0.121377
0.120389
0.119297
0.118123
0.116866
0.11552
0.114088
0.112575
0.11098
0.109312
0.107562
0.105732
0.104
0.102407
0.100828
0.0992643
0.0977155
0.0961814
0.0946609
0.0931522
0.0916523
0.0901576
0.0886644
0.0871688
0.0856671
0.0841519
0.0826309
0.0811188
0.0796119
0.0781097
0.0766758
0.0751553
0.128183
0.128207
0.128101
0.127882
0.12757
0.127168
0.12669
0.126141
0.125518
0.124827
0.124052
0.123201
0.12229
0.121317
0.120278
0.119176
0.118011
0.116783
0.115489
0.114131
0.112707
0.11135
0.110089
0.108833
0.107582
0.106339
0.105101
0.103874
0.102651
0.101432
0.100213
0.0989932
0.0977698
0.0965392
0.0952931
0.0940307
0.092753
0.0914498
0.0901191
0.0887763
0.0873436
0.130183
0.130198
0.130109
0.12993
0.129673
0.12935
0.128959
0.128512
0.128008
0.127452
0.126837
0.12616
0.125437
0.124668
0.123849
0.122984
0.122073
0.121114
0.120106
0.119049
0.117941
0.116878
0.115888
0.114899
0.113913
0.112932
0.111953
0.110979
0.110008
0.109039
0.108074
0.107109
0.106142
0.10517
0.104187
0.103192
0.102187
0.101162
0.100111
0.0990395
0.0978951
0.131752
0.131762
0.131688
0.131538
0.131324
0.131054
0.13073
0.130359
0.129948
0.129491
0.128989
0.128439
0.127854
0.127239
0.126582
0.125891
0.125164
0.124403
0.123605
0.122771
0.121899
0.121061
0.120278
0.119497
0.118719
0.117945
0.117175
0.116407
0.115643
0.114881
0.114121
0.113362
0.112603
0.111845
0.111081
0.110311
0.109535
0.108746
0.107942
0.107123
0.106262
0.133014
0.133023
0.13296
0.132834
0.132652
0.132423
0.132153
0.131841
0.131495
0.131113
0.130695
0.130245
0.129764
0.129259
0.128723
0.128161
0.127574
0.126961
0.126321
0.125654
0.12496
0.124292
0.123667
0.123045
0.122426
0.121812
0.121198
0.120588
0.119985
0.119387
0.118791
0.118197
0.117605
0.117016
0.116424
0.11583
0.115234
0.11463
0.114017
0.113396
0.112754
0.134049
0.134058
0.134005
0.133897
0.13374
0.133544
0.133312
0.13305
0.132756
0.132435
0.132083
0.131705
0.131303
0.130882
0.130442
0.129979
0.129496
0.128995
0.128475
0.127935
0.127376
0.126838
0.126334
0.125833
0.125334
0.124843
0.124352
0.123866
0.123384
0.12291
0.12244
0.121974
0.121511
0.121052
0.120593
0.120133
0.119674
0.119212
0.118745
0.118274
0.117793
0.134913
0.134922
0.134876
0.134782
0.134647
0.134477
0.134276
0.134049
0.133799
0.133524
0.133226
0.132905
0.132567
0.132213
0.131843
0.131459
0.131061
0.130647
0.130218
0.129775
0.129319
0.12888
0.128469
0.128063
0.127658
0.127261
0.126865
0.126474
0.126088
0.125707
0.125333
0.124966
0.124603
0.124243
0.123884
0.123527
0.123172
0.122816
0.122458
0.122099
0.121738
0.135643
0.135651
0.135612
0.13553
0.135412
0.135263
0.135089
0.134891
0.134674
0.134436
0.134179
0.133904
0.133616
0.133317
0.133003
0.132679
0.132345
0.132001
0.131647
0.131281
0.130906
0.130544
0.130206
0.129872
0.129542
0.129218
0.128897
0.12858
0.128267
0.12796
0.127658
0.127363
0.127074
0.12679
0.126508
0.126229
0.125952
0.125676
0.125401
0.125127
0.124855
0.136266
0.136273
0.136239
0.136168
0.136064
0.135934
0.135781
0.135608
0.135418
0.135212
0.13499
0.134754
0.134505
0.134248
0.133981
0.133707
0.133424
0.133133
0.132835
0.132531
0.132221
0.13192
0.131639
0.131362
0.13109
0.130822
0.130558
0.130299
0.130044
0.129795
0.129551
0.129312
0.129078
0.12885
0.128625
0.128406
0.12819
0.127976
0.127763
0.127551
0.127343
0.136802
0.136809
0.13678
0.136717
0.136627
0.136512
0.136377
0.136224
0.136057
0.135876
0.135683
0.135478
0.135264
0.135041
0.134811
0.134576
0.134335
0.134089
0.133837
0.13358
0.13332
0.133069
0.132835
0.132604
0.132378
0.132155
0.131937
0.131723
0.131514
0.131309
0.13111
0.130915
0.130726
0.130541
0.130361
0.130184
0.130012
0.129844
0.129678
0.129514
0.129355
0.137267
0.137274
0.137249
0.137195
0.137115
0.137013
0.136894
0.136759
0.13661
0.136451
0.136281
0.136102
0.135915
0.135722
0.135525
0.135323
0.135115
0.134904
0.13469
0.134473
0.134253
0.134041
0.133844
0.13365
0.13346
0.133274
0.133092
0.132915
0.132741
0.132573
0.132409
0.132249
0.132095
0.131944
0.131798
0.131655
0.131517
0.131382
0.13125
0.131121
0.130998
0.137673
0.137681
0.13766
0.137612
0.137541
0.137451
0.137345
0.137224
0.137093
0.136951
0.136801
0.136643
0.13648
0.136312
0.136141
0.135965
0.135786
0.135606
0.135422
0.135236
0.13505
0.134871
0.134703
0.134539
0.134379
0.134222
0.134069
0.13392
0.133776
0.133636
0.1335
0.133369
0.133242
0.133119
0.132999
0.132884
0.132772
0.132663
0.132556
0.132453
0.132356
0.13803
0.138039
0.138021
0.137979
0.137916
0.137836
0.13774
0.137633
0.137516
0.13739
0.137256
0.137116
0.136972
0.136825
0.136674
0.136521
0.136367
0.13621
0.136052
0.135894
0.135735
0.135582
0.135438
0.135298
0.135162
0.135029
0.1349
0.134775
0.134654
0.134537
0.134424
0.134315
0.13421
0.134109
0.134011
0.133916
0.133825
0.133737
0.133651
0.133568
0.133491
0.138345
0.138355
0.13834
0.138303
0.138247
0.138174
0.138089
0.137993
0.137888
0.137776
0.137657
0.137533
0.137405
0.137275
0.137142
0.137008
0.136873
0.136737
0.136601
0.136464
0.136328
0.136196
0.136073
0.135953
0.135836
0.135723
0.135613
0.135508
0.135406
0.135307
0.135213
0.135122
0.135035
0.134951
0.13487
0.134793
0.134718
0.134646
0.134577
0.13451
0.134448
0.138624
0.138636
0.138624
0.13859
0.13854
0.138475
0.138398
0.138312
0.138219
0.138119
0.138013
0.137903
0.13779
0.137674
0.137557
0.137439
0.13732
0.1372
0.137082
0.136963
0.136847
0.136733
0.136626
0.136523
0.136423
0.136326
0.136233
0.136143
0.136056
0.135973
0.135894
0.135817
0.135744
0.135675
0.135608
0.135544
0.135482
0.135423
0.135367
0.135312
0.135263
0.138874
0.138886
0.138875
0.138845
0.1388
0.138742
0.138673
0.138597
0.138514
0.138425
0.138332
0.138234
0.138134
0.138031
0.137928
0.137823
0.137718
0.137614
0.13751
0.137406
0.137305
0.137206
0.137114
0.137024
0.136938
0.136855
0.136775
0.136698
0.136624
0.136554
0.136486
0.136422
0.136361
0.136303
0.136247
0.136194
0.136143
0.136095
0.136048
0.136004
0.135964
0.139096
0.139109
0.1391
0.139073
0.139032
0.13898
0.138921
0.138854
0.13878
0.138702
0.138619
0.138533
0.138444
0.138354
0.138262
0.13817
0.138077
0.137985
0.137894
0.137804
0.137715
0.13763
0.137549
0.137471
0.137396
0.137324
0.137255
0.137189
0.137126
0.137066
0.137009
0.136955
0.136903
0.136854
0.136808
0.136763
0.136722
0.136682
0.136644
0.136607
0.136575
0.139296
0.139308
0.1393
0.139276
0.13924
0.139196
0.139145
0.139087
0.139023
0.138955
0.138882
0.138806
0.138728
0.138648
0.138567
0.138486
0.138404
0.138323
0.138243
0.138164
0.138087
0.138012
0.137941
0.137874
0.137809
0.137746
0.137687
0.13763
0.137576
0.137525
0.137476
0.13743
0.137386
0.137345
0.137306
0.137269
0.137234
0.137201
0.13717
0.13714
0.137114
0.139475
0.139486
0.139479
0.139458
0.139429
0.139393
0.13935
0.139301
0.139247
0.139188
0.139125
0.139059
0.13899
0.13892
0.138849
0.138777
0.138705
0.138634
0.138563
0.138494
0.138427
0.138361
0.1383
0.138241
0.138184
0.13813
0.138078
0.138029
0.137983
0.137939
0.137897
0.137858
0.137821
0.137786
0.137753
0.137722
0.137693
0.137666
0.13764
0.137616
0.137595
0.139636
0.139645
0.139639
0.139623
0.139601
0.139574
0.13954
0.139501
0.139456
0.139406
0.139352
0.139295
0.139236
0.139175
0.139112
0.139049
0.138986
0.138924
0.138862
0.138801
0.138743
0.138685
0.138632
0.13858
0.138531
0.138484
0.138439
0.138396
0.138356
0.138318
0.138283
0.138249
0.138218
0.138189
0.138161
0.138135
0.138111
0.138088
0.138067
0.138047
0.13803
0.139779
0.139786
0.139782
0.139772
0.139759
0.139741
0.139716
0.139687
0.139652
0.139612
0.139568
0.139521
0.139471
0.139419
0.139366
0.139312
0.139258
0.139203
0.13915
0.139097
0.139046
0.138996
0.13895
0.138904
0.138861
0.138821
0.138782
0.138745
0.138711
0.138678
0.138648
0.13862
0.138593
0.138569
0.138546
0.138525
0.138506
0.138488
0.138472
0.138457
0.138446
0.139902
0.139907
0.139906
0.139904
0.139899
0.139889
0.139875
0.139855
0.139832
0.139804
0.139773
0.139738
0.139701
0.139661
0.13962
0.139577
0.139534
0.13949
0.139446
0.139403
0.139362
0.139321
0.139282
0.139244
0.139208
0.139174
0.139143
0.139113
0.139085
0.13906
0.139037
0.139016
0.138997
0.138981
0.138967
0.138955
0.138945
0.138937
0.13893
0.138926
0.138924
0.139991
0.139996
0.139998
0.14
0.139999
0.139995
0.139988
0.13998
0.139968
0.139955
0.139939
0.139922
0.139902
0.139881
0.139858
0.139834
0.139809
0.139784
0.139759
0.139734
0.139711
0.139686
0.139662
0.13964
0.139618
0.139597
0.139577
0.139559
0.139543
0.139528
0.139515
0.139503
0.139493
0.139484
0.139477
0.139471
0.139467
0.139463
0.139461
0.13946
0.139461
0.140035
0.140039
0.140042
0.140045
0.140045
0.140045
0.140043
0.14004
0.140035
0.14003
0.140023
0.140015
0.140006
0.139996
0.139986
0.139975
0.139963
0.139951
0.139939
0.139927
0.139916
0.139904
0.139893
0.139882
0.139872
0.139861
0.139852
0.139843
0.139834
0.139827
0.13982
0.139814
0.139809
0.139805
0.139801
0.139798
0.139796
0.139795
0.139794
0.139793
0.139794
0.140057
0.140062
0.140065
0.140068
0.14007
0.140072
0.140072
0.140073
0.140072
0.140071
0.140069
0.140066
0.140063
0.140059
0.140055
0.14005
0.140045
0.14004
0.140034
0.140029
0.140024
0.140018
0.140013
0.140008
0.140003
0.139999
0.139994
0.13999
0.139986
0.139983
0.13998
0.139977
0.139975
0.139973
0.139971
0.13997
0.139969
0.139969
0.139969
0.139969
0.13997
0.140068
0.140072
0.140076
0.140079
0.140082
0.140085
0.140088
0.14009
0.140092
0.140093
0.140094
0.140095
0.140095
0.140095
0.140094
0.140093
0.140092
0.140091
0.140089
0.140088
0.140086
0.140084
0.140082
0.14008
0.140079
0.140077
0.140075
0.140074
0.140072
0.140071
0.14007
0.140069
0.140069
0.140068
0.140068
0.140068
0.140068
0.140068
0.140069
0.140069
0.14007
0.140071
0.140075
0.140078
0.140082
0.140086
0.140089
0.140093
0.140097
0.1401
0.140104
0.140107
0.14011
0.140112
0.140114
0.140116
0.140118
0.140119
0.14012
0.140121
0.140122
0.140123
0.140124
0.140124
0.140124
0.140124
0.140125
0.140125
0.140125
0.140125
0.140125
0.140125
0.140126
0.140126
0.140127
0.140127
0.140128
0.140128
0.140129
0.14013
0.140131
0.140132
0.140068
0.140071
0.140075
0.140078
0.140082
0.140086
0.140091
0.140095
0.1401
0.140104
0.140109
0.140113
0.140117
0.140121
0.140125
0.140128
0.140132
0.140135
0.140137
0.14014
0.140142
0.140145
0.140147
0.140148
0.14015
0.140152
0.140153
0.140154
0.140156
0.140157
0.140158
0.140159
0.14016
0.140161
0.140162
0.140164
0.140165
0.140166
0.140167
0.140168
0.140169
0.14006
0.140063
0.140065
0.140069
0.140073
0.140077
0.140082
0.140087
0.140092
0.140097
0.140102
0.140107
0.140112
0.140116
0.140121
0.140126
0.14013
0.140135
0.140139
0.140142
0.140146
0.140149
0.140153
0.140156
0.140158
0.140161
0.140163
0.140166
0.140168
0.14017
0.140172
0.140173
0.140175
0.140177
0.140178
0.14018
0.140181
0.140182
0.140183
0.140185
0.140186
0.140047
0.140049
0.140052
0.140055
0.140058
0.140062
0.140066
0.140071
0.140075
0.14008
0.140085
0.14009
0.140095
0.1401
0.140105
0.140109
0.140114
0.140119
0.140124
0.140128
0.140133
0.140137
0.140141
0.140145
0.140149
0.140152
0.140155
0.140158
0.140161
0.140164
0.140166
0.140169
0.140171
0.140173
0.140175
0.140176
0.140178
0.14018
0.140181
0.140182
0.140184
0.140031
0.140032
0.140034
0.140036
0.140039
0.140042
0.140045
0.140048
0.140051
0.140055
0.140058
0.140062
0.140065
0.140069
0.140072
0.140075
0.140079
0.140082
0.140085
0.140089
0.140093
0.140097
0.140101
0.140105
0.140109
0.140113
0.140117
0.14012
0.140124
0.140128
0.140131
0.140134
0.140137
0.14014
0.140142
0.140145
0.140147
0.140149
0.140151
0.140153
0.140155
0.140011
0.140012
0.140012
0.140013
0.140014
0.140015
0.140016
0.140018
0.140019
0.14002
0.140022
0.140023
0.140023
0.140024
0.140024
0.140023
0.140021
0.140018
0.140003
0.139998
0.139995
0.139993
0.139992
0.139991
0.139991
0.139992
0.139992
0.139993
0.139994
0.139995
0.139996
0.139998
0.139999
0.14
0.140001
0.140003
0.140004
0.140005
0.140006
0.140007
0.140008
0.0036725
0.00451079
0.00520613
0.00652525
0.00843878
0.0107208
0.0132283
0.0158937
0.0186737
0.021551
0.0245089
0.0275302
0.0306142
0.033751
0.0369305
0.0401438
0.0433858
0.0466486
0.0499236
0.0532029
0.0564796
0.0597459
0.0629934
0.0662141
0.0694002
0.0725448
0.0756408
0.0786816
0.0816608
0.0845726
0.0874116
0.0901729
0.0928521
0.0954452
0.0979489
0.10036
0.102677
0.104898
0.107022
0.109048
0.110977
0.11281
0.114548
0.116194
0.11775
0.11922
0.120606
0.121913
0.123143
0.124299
0.125386
0.126406
0.127364
0.128263
0.129105
0.129896
0.130639
0.131336
0.131991
0.132606
0.133186
0.133732
0.134246
0.134732
0.135191
0.135625
0.136037
0.136429
0.136803
0.137161
0.137505
0.137847
0.138135
0.138628
0.00777728
0.00832758
0.00779744
0.00764764
0.00844542
0.0100913
0.012272
0.0147608
0.0174379
0.0202499
0.0231661
0.0261623
0.0292304
0.0323596
0.0355374
0.0387536
0.0420055
0.0452828
0.0485756
0.0518753
0.0551758
0.0584689
0.0617455
0.0649972
0.0682163
0.0713956
0.0745278
0.077606
0.0806237
0.0835748
0.0864537
0.0892554
0.0919753
0.0946092
0.0971537
0.0996057
0.101963
0.104223
0.106386
0.108451
0.110417
0.112286
0.114059
0.115738
0.117326
0.118826
0.12024
0.121574
0.122829
0.124009
0.125117
0.126158
0.127134
0.12805
0.128909
0.129715
0.13047
0.13118
0.131846
0.132472
0.133061
0.133616
0.134138
0.134631
0.135097
0.135537
0.135955
0.136352
0.13673
0.137092
0.137439
0.137783
0.138074
0.138572
0.0118722
0.0130914
0.0123687
0.0111435
0.0104124
0.0106676
0.0119039
0.0138489
0.0162265
0.0188662
0.021679
0.0246135
0.0276439
0.0307526
0.0339231
0.037142
0.0404026
0.0436947
0.0470064
0.0503292
0.053658
0.0569833
0.0602949
0.0635839
0.0668428
0.070064
0.0732399
0.0763631
0.0794269
0.082425
0.0853516
0.0882013
0.0909695
0.0936517
0.0962442
0.0987439
0.101148
0.103455
0.105663
0.107772
0.109781
0.111692
0.113505
0.115223
0.116847
0.118382
0.119829
0.121193
0.122476
0.123683
0.124816
0.12588
0.126878
0.127813
0.12869
0.129513
0.130284
0.131007
0.131686
0.132324
0.132924
0.133488
0.13402
0.134521
0.134994
0.135441
0.135865
0.136267
0.13665
0.137017
0.137367
0.137715
0.138008
0.13851
0.0146511
0.0171586
0.0172356
0.0160566
0.0145675
0.0134777
0.0132354
0.0139683
0.0155311
0.017677
0.0201981
0.0229595
0.0258855
0.0289325
0.0320706
0.0352775
0.0385396
0.041844
0.0451772
0.048528
0.0518894
0.0552514
0.0586035
0.0619361
0.065242
0.0685133
0.0717415
0.0749186
0.0780377
0.0810919
0.0840754
0.0869825
0.0898081
0.0925476
0.0951971
0.0977531
0.100213
0.102574
0.104835
0.106996
0.109056
0.111015
0.112874
0.114637
0.116304
0.117878
0.119363
0.120762
0.122079
0.123316
0.124478
0.125568
0.12659
0.127549
0.128446
0.129288
0.130076
0.130816
0.131509
0.132161
0.132772
0.133348
0.133889
0.1344
0.134881
0.135336
0.135767
0.136175
0.136564
0.136935
0.13729
0.137641
0.137936
0.138444
0.0164247
0.0201187
0.0212232
0.0208186
0.0195999
0.0181145
0.0168472
0.0161971
0.0163923
0.0174458
0.0192116
0.0214921
0.0241213
0.0269868
0.0300172
0.0331651
0.0364
0.0396999
0.043046
0.0464225
0.0498182
0.053222
0.0566222
0.0600079
0.0633703
0.0667008
0.0699907
0.0732318
0.0764164
0.0795376
0.0825889
0.0855643
0.0884583
0.091266
0.093983
0.0966058
0.0991312
0.101557
0.103881
0.106102
0.108221
0.110237
0.112151
0.113965
0.115682
0.117303
0.118832
0.120272
0.121627
0.1229
0.124095
0.125216
0.126266
0.127251
0.128172
0.129036
0.129844
0.130602
0.131312
0.131979
0.132604
0.133192
0.133745
0.134266
0.134757
0.135221
0.135659
0.136075
0.136469
0.136846
0.137206
0.137561
0.137859
0.138373
0.0185736
0.0221251
0.0238679
0.0243911
0.0240294
0.0230504
0.021752
0.0204727
0.0195494
0.0192553
0.0197348
0.0209787
0.022866
0.0252382
0.0279543
0.030909
0.0340309
0.0372718
0.0405967
0.0439792
0.0473998
0.0508426
0.0542931
0.0577377
0.0611654
0.064566
0.0679298
0.0712476
0.074511
0.0777124
0.0808448
0.0839018
0.0868774
0.0897664
0.092564
0.0952663
0.0978698
0.100372
0.10277
0.105064
0.107252
0.109335
0.111314
0.113189
0.114964
0.11664
0.11822
0.119709
0.121109
0.122424
0.123658
0.124814
0.125898
0.126913
0.127862
0.128751
0.129583
0.130362
0.131092
0.131775
0.132417
0.133019
0.133585
0.134118
0.13462
0.135093
0.135541
0.135964
0.136366
0.136749
0.137114
0.137474
0.137775
0.138295
0.0218013
0.0239013
0.0253779
0.0264275
0.0269675
0.0269074
0.0263042
0.0253311
0.0242068
0.0231902
0.0225472
0.0224934
0.0231428
0.024492
0.0264481
0.0288797
0.0316601
0.0346886
0.0378913
0.0412145
0.0446195
0.0480779
0.0515668
0.0550672
0.058563
0.0620411
0.0654893
0.0688967
0.0722535
0.0755507
0.0787805
0.0819355
0.0850093
0.0879959
0.0908903
0.093688
0.0963851
0.0989786
0.101466
0.103846
0.106118
0.108281
0.110336
0.112284
0.114128
0.115869
0.117511
0.119057
0.12051
0.121875
0.123154
0.124354
0.125476
0.126527
0.127509
0.128428
0.129287
0.130091
0.130843
0.131547
0.132207
0.132826
0.133407
0.133954
0.134468
0.134952
0.13541
0.135842
0.136252
0.136643
0.137014
0.137379
0.137685
0.138211
0.0232903
0.0255131
0.0269565
0.027533
0.0284255
0.0290776
0.0293127
0.0291488
0.0285999
0.027786
0.0268888
0.0261201
0.0256977
0.025805
0.02655
0.0279464
0.0299284
0.0323877
0.0352094
0.0382934
0.0415618
0.0449563
0.0484335
0.0519599
0.0555092
0.0590606
0.0625966
0.0661025
0.0695654
0.072974
0.0763186
0.0795905
0.082782
0.0858862
0.0888973
0.0918102
0.0946204
0.0973244
0.0999195
0.102404
0.104776
0.107035
0.109182
0.111218
0.113145
0.114965
0.11668
0.118294
0.119812
0.121236
0.12257
0.12382
0.124989
0.126082
0.127104
0.128058
0.128949
0.129782
0.13056
0.131288
0.13197
0.132608
0.133207
0.133769
0.134298
0.134795
0.135265
0.135708
0.136127
0.136526
0.136904
0.137276
0.137586
0.13812
0.0235546
0.0258213
0.0277647
0.0290871
0.0299367
0.0303145
0.0307412
0.0312144
0.0313668
0.0312455
0.0308809
0.0303202
0.029684
0.0291483
0.0289052
0.0291242
0.0299168
0.0313172
0.0332876
0.035742
0.0385769
0.041694
0.0450114
0.0484645
0.0520035
0.05559
0.0591943
0.0627924
0.0663647
0.069895
0.0733696
0.076777
0.0801072
0.0833516
0.0865029
0.0895548
0.0925019
0.0953401
0.0980658
0.100677
0.103171
0.105547
0.107807
0.109949
0.111977
0.113891
0.115696
0.117393
0.118988
0.120484
0.121885
0.123196
0.124421
0.125565
0.126633
0.12763
0.128559
0.129427
0.130237
0.130993
0.1317
0.132362
0.132981
0.133562
0.134107
0.13462
0.135103
0.135558
0.135988
0.136397
0.136783
0.137163
0.137478
0.13802
0.0235641
0.0253455
0.0272559
0.0290936
0.0306699
0.0317945
0.0324779
0.0328369
0.0326771
0.0329483
0.0332428
0.0333107
0.0331591
0.0328504
0.0324759
0.0321684
0.03209
0.0323985
0.033212
0.0345866
0.0365124
0.0389282
0.041745
0.0448688
0.0482139
0.0517095
0.0552991
0.0589385
0.0625928
0.0662346
0.0698415
0.0733957
0.0768822
0.0802888
0.0836053
0.0868231
0.0899353
0.092936
0.0958207
0.0985861
0.10123
0.10375
0.106146
0.10842
0.110571
0.112602
0.114516
0.116316
0.118006
0.119589
0.121072
0.122457
0.12375
0.124957
0.126082
0.12713
0.128106
0.129016
0.129864
0.130654
0.131391
0.13208
0.132724
0.133327
0.133892
0.134423
0.134921
0.135391
0.135834
0.136253
0.13665
0.137038
0.13736
0.137912
0.0243397
0.0255101
0.026863
0.0283715
0.0299814
0.0315845
0.0330279
0.0341724
0.0348461
0.0351966
0.0353193
0.0351298
0.035188
0.0353288
0.0353786
0.0353066
0.0351747
0.0350869
0.0351729
0.0355709
0.0363999
0.0377341
0.0395915
0.0419381
0.0447041
0.0478036
0.0511509
0.0546697
0.0582964
0.0619801
0.0656799
0.0693638
0.0730059
0.0765859
0.0800872
0.0834965
0.0868031
0.0899983
0.0930754
0.0960291
0.0988558
0.101553
0.104119
0.106554
0.108858
0.111034
0.113084
0.115011
0.116818
0.118511
0.120094
0.121572
0.12295
0.124233
0.125428
0.126539
0.127573
0.128534
0.129428
0.13026
0.131034
0.131756
0.13243
0.133059
0.133647
0.134199
0.134716
0.135203
0.135661
0.136094
0.136502
0.1369
0.137231
0.137793
0.0269178
0.0276149
0.0284342
0.0293472
0.0303685
0.031516
0.0327833
0.0341194
0.0354111
0.0365311
0.0373826
0.0378614
0.0380452
0.0380128
0.037759
0.0376056
0.0376143
0.0376738
0.0377315
0.0378348
0.0380783
0.0385738
0.0394293
0.0407272
0.0425078
0.0447642
0.04745
0.0504935
0.0538138
0.0573323
0.0609794
0.0646967
0.0684367
0.0721615
0.0758409
0.0794509
0.0829726
0.086391
0.0896946
0.0928743
0.0959235
0.0988374
0.101613
0.104249
0.106745
0.109101
0.111321
0.113407
0.115363
0.117193
0.118902
0.120496
0.12198
0.12336
0.124642
0.125832
0.126937
0.127962
0.128913
0.129796
0.130616
0.131378
0.132088
0.132749
0.133366
0.133943
0.134483
0.13499
0.135466
0.135915
0.136337
0.136747
0.137087
0.137663
0.0322642
0.0325935
0.0330114
0.0334632
0.0339431
0.0344657
0.0350582
0.0357514
0.0365653
0.0374892
0.0384754
0.0394359
0.0402663
0.0408794
0.0411931
0.0412244
0.041042
0.0406829
0.0403006
0.0401625
0.0402204
0.0404139
0.0407657
0.0413454
0.0422367
0.0435142
0.0452273
0.0473895
0.0499776
0.0529389
0.0562035
0.0596953
0.063342
0.067079
0.0708518
0.0746157
0.0783348
0.0819806
0.0855305
0.0889672
0.0922777
0.095452
0.0984833
0.101367
0.104101
0.106685
0.10912
0.111407
0.113551
0.115555
0.117425
0.119167
0.120786
0.122289
0.123682
0.124973
0.126168
0.127273
0.128296
0.129243
0.13012
0.130933
0.131688
0.132389
0.133041
0.133649
0.134216
0.134747
0.135245
0.135712
0.136151
0.136577
0.136929
0.137519
0.0405076
0.0405485
0.0406581
0.0407744
0.0408818
0.0409782
0.0410702
0.0411729
0.0413109
0.0415158
0.0418184
0.0422378
0.0427678
0.0433717
0.043982
0.0445102
0.0448722
0.0449942
0.0448446
0.044482
0.0439836
0.0433613
0.0430302
0.0430318
0.043325
0.0438994
0.0447893
0.0460425
0.0476988
0.0497767
0.0522671
0.0551345
0.0583228
0.0617645
0.0653888
0.0691285
0.0729235
0.0767225
0.0804828
0.0841703
0.0877576
0.091224
0.0945537
0.0977354
0.100762
0.103628
0.106333
0.108876
0.11126
0.113488
0.115566
0.117498
0.119291
0.120953
0.12249
0.12391
0.125221
0.126431
0.127546
0.128575
0.129525
0.130401
0.131212
0.131963
0.132659
0.133305
0.133907
0.134468
0.134991
0.135483
0.135941
0.136385
0.136751
0.137361
0.050899
0.050736
0.0506241
0.0505079
0.0503719
0.05021
0.0500193
0.0497997
0.0495549
0.0492946
0.0490363
0.048805
0.0486313
0.0485448
0.048566
0.0486962
0.0489107
0.0491585
0.0493648
0.0494472
0.0493399
0.0489751
0.0483978
0.0476963
0.0469412
0.0463492
0.0461908
0.0464807
0.0471942
0.048328
0.0498886
0.0518757
0.0542744
0.0570524
0.0601615
0.0635421
0.0671288
0.0708559
0.0746611
0.0784884
0.0822893
0.086023
0.0896569
0.0931649
0.0965279
0.0997321
0.102769
0.105632
0.108321
0.110837
0.113183
0.115364
0.117385
0.119255
0.120981
0.122571
0.124035
0.12538
0.126616
0.127752
0.128796
0.129756
0.130639
0.131453
0.132205
0.1329
0.133544
0.134142
0.134699
0.135219
0.135703
0.136168
0.136552
0.137184
0.062454
0.0621594
0.0619023
0.061637
0.0613514
0.0610402
0.060699
0.0603241
0.0599124
0.0594615
0.0589717
0.0584465
0.057895
0.0573329
0.0567831
0.0562736
0.0558331
0.0554842
0.0552356
0.0550735
0.0549606
0.0548353
0.0546196
0.0542453
0.0536578
0.0528544
0.0519186
0.0509696
0.0500813
0.0496726
0.0498495
0.0506013
0.0518952
0.0536968
0.0559641
0.0586455
0.0616817
0.0650084
0.0685597