/*--------------------------------*- C++ -*----------------------------------*\
| =========                 |                                                 |
| \\      /  F ield         | OpenFOAM: The Open Source CFD Toolbox           |
|  \\    /   O peration     | Version:  5.x                                   |
|   \\  /    A nd           | Web:      www.OpenFOAM.org                      |
|    \\/     M anipulation  |                                                 |
\*---------------------------------------------------------------------------*/
FoamFile
{
    version     2.0;
    format      ascii;
    class       volScalarField;
    location    "1000";
    object      nuTilda;
}
// * * * * * * * * * * * * * * * * * * * * * * * * * * * * * * * * * * * * * //

dimensions      [0 2 -1 0 0 0 0];

internalField   nonuniform List<scalar> 
41860
(
4.12585e-05
4.37088e-05
5.5138e-05
5.81296e-05
5.37854e-05
4.98118e-05
4.43137e-05
3.96683e-05
3.59231e-05
3.28218e-05
3.00832e-05
2.8126e-05
2.59718e-05
2.50008e-05
2.33625e-05
2.28592e-05
2.19936e-05
2.13861e-05
2.09955e-05
1.97025e-05
1.95389e-05
2.87483e-05
1.89791e-05
2.98294e-05
1.86025e-05
3.03497e-05
3.06789e-05
1.8284e-05
3.07405e-05
3.06991e-05
3.06787e-05
1.79609e-05
1.79246e-05
3.04087e-05
1.78809e-05
3.01073e-05
1.78988e-05
1.79109e-05
1.79898e-05
2.8947e-05
1.81682e-05
1.828e-05
3.00921e-05
3.01291e-05
1.71592e-05
3.00661e-05
3.00292e-05
2.99956e-05
2.99511e-05
2.99085e-05
2.98633e-05
2.98179e-05
2.9772e-05
2.97254e-05
2.96731e-05
1.71136e-05
1.7134e-05
2.9518e-05
1.71712e-05
2.94229e-05
2.93563e-05
2.93228e-05
1.72567e-05
2.91787e-05
1.7283e-05
2.90191e-05
1.72908e-05
1.73037e-05
2.87845e-05
2.86143e-05
1.72686e-05
2.84447e-05
2.82601e-05
1.7175e-05
1.71041e-05
2.78333e-05
1.69618e-05
1.68184e-05
1.66652e-05
2.67003e-05
1.64498e-05
1.1435e-05
0.000190813
0.000223872
0.000287178
0.000303945
0.000280985
0.000259917
0.000230602
0.000205803
0.0001858
0.000169234
0.000154602
0.00014416
0.000132655
0.000127489
0.000118733
0.000116044
0.000110969
0.000107145
0.000104498
9.82247e-05
9.66861e-05
9.68732e-05
9.11186e-05
9.397e-05
8.75782e-05
9.17491e-05
9.01149e-05
8.50248e-05
8.88003e-05
8.8479e-05
8.79685e-05
8.28685e-05
8.27641e-05
8.73039e-05
8.28236e-05
8.75348e-05
8.34501e-05
8.37914e-05
8.47708e-05
9.00192e-05
8.69418e-05
8.82938e-05
8.27424e-05
8.2675e-05
7.80529e-05
8.24563e-05
8.24247e-05
8.23499e-05
8.23482e-05
8.23587e-05
8.24023e-05
8.24727e-05
8.25621e-05
8.26757e-05
8.28217e-05
7.842e-05
7.86419e-05
8.32612e-05
7.905e-05
8.36444e-05
8.40013e-05
8.40872e-05
7.99581e-05
8.4481e-05
8.03293e-05
8.48554e-05
8.05793e-05
8.08093e-05
8.50447e-05
8.54768e-05
8.09494e-05
8.51739e-05
8.53633e-05
8.08304e-05
8.05164e-05
8.4438e-05
8.00931e-05
7.9413e-05
7.86581e-05
8.14111e-05
7.76798e-05
1.38093e-05
0.000240078
0.000278317
0.000363058
0.000386869
0.00035801
0.000330873
0.000292983
0.00026093
0.000235221
0.000214216
0.000196339
0.000183436
0.00017161
0.000165416
0.000160524
0.000158748
0.000157832
0.000157328
0.000156741
0.000156034
0.000155051
0.000157388
0.000153961
0.000156117
0.000152694
0.000154491
0.000154003
0.000149912
0.000151948
0.000150802
0.000149782
0.000146036
0.000145011
0.000146707
0.000143188
0.000144916
0.000141705
0.000141112
0.000140723
0.000142674
0.000140427
0.000140554
0.000140327
0.00013998
0.000137277
0.000139296
0.000138975
0.000138675
0.000138408
0.000138173
0.000137971
0.000137803
0.000137665
0.000137557
0.000137481
0.000135166
0.000135164
0.000137369
0.000135214
0.000137423
0.000137547
0.000137562
0.000135503
0.000137656
0.000135583
0.000137714
0.000135575
0.000135605
0.000137532
0.000137639
0.000135299
0.000137129
0.000137011
0.000134551
0.000134047
0.00013549
0.000132931
0.000131902
0.000130786
0.000130719
0.000129019
1.66633e-05
0.000327791
0.000371107
0.000436566
0.000473834
0.000463924
0.000433779
0.000406341
0.000383856
0.000363895
0.000345534
0.000329502
0.000309551
0.00029737
0.000279309
0.000276385
0.000270161
0.000268984
0.00026686
0.000264023
0.000262391
0.000258905
0.000258444
0.000254102
0.000253045
0.000249179
0.000247769
0.000245752
0.000241325
0.000240605
0.000237994
0.000235642
0.00023191
0.000229646
0.000228935
0.000225556
0.000225032
0.000222053
0.000220554
0.000219262
0.000219246
0.000217313
0.000216701
0.000215328
0.000214274
0.00021228
0.000212693
0.000211949
0.00021126
0.00021063
0.000210063
0.000209557
0.000209108
0.000208715
0.000208377
0.00020809
0.000206724
0.000206552
0.000207461
0.000206304
0.000207251
0.000207272
0.000207188
0.00020617
0.00020709
0.000206044
0.000206943
0.000205804
0.000205715
0.00020639
0.000206371
0.000204945
0.000205494
0.000205179
0.000203515
0.000202692
0.000202737
0.000200787
0.000199197
0.000197463
0.000195453
0.000194253
2.00945e-05
0.000453233
0.0005482
0.000643224
0.00069776
0.000718998
0.000679595
0.000654916
0.000629348
0.000601119
0.000571688
0.000543916
0.000509107
0.000485513
0.000451797
0.000438543
0.000422912
0.000416584
0.000409884
0.000402915
0.00039819
0.000391158
0.000387063
0.000380537
0.000375938
0.00037047
0.00036573
0.000361576
0.000355864
0.000352363
0.000347858
0.000343775
0.000339222
0.000335386
0.000332424
0.000328438
0.000325883
0.000322442
0.000319837
0.000317499
0.000315877
0.000313697
0.000312344
0.000309396
0.000307283
0.000305356
0.000304489
0.000303191
0.000301988
0.000300883
0.000299879
0.000298972
0.000298157
0.000297428
0.000296786
0.000296223
0.000295253
0.000294855
0.000294909
0.00029421
0.000294348
0.000294233
0.000294015
0.000293507
0.000293672
0.000293118
0.000293267
0.000292592
0.000292363
0.000292254
0.000292091
0.000291043
0.000290769
0.000290226
0.000288824
0.00028763
0.000286704
0.000284831
0.000282612
0.000280161
0.000276578
0.000274961
2.42148e-05
0.00061897
0.000788775
0.000991876
0.0010788
0.00111227
0.00104983
0.00100639
0.000961267
0.000912951
0.000863697
0.000816973
0.000763167
0.000723139
0.000672345
0.000645
0.000616977
0.000602575
0.000589203
0.000576514
0.000566911
0.000555182
0.000546631
0.000536511
0.000527977
0.000519596
0.000511349
0.000504358
0.000496347
0.000489962
0.000483099
0.000476834
0.00047061
0.00046485
0.000459722
0.000454429
0.000449971
0.000445452
0.000441526
0.000437991
0.000434979
0.000432099
0.000429967
0.000424925
0.000421352
0.000418917
0.000416985
0.000414997
0.00041315
0.000411453
0.000409904
0.000408502
0.000407231
0.000406087
0.000405069
0.000404167
0.00040318
0.000402507
0.000402009
0.000401382
0.000401019
0.000400739
0.000400356
0.000399999
0.000399728
0.000399309
0.000399026
0.000398457
0.000398073
0.00039748
0.000397163
0.000396139
0.000395331
0.000394537
0.000393042
0.000391427
0.000389788
0.000387636
0.000384721
0.000381451
0.00037655
0.000373578
2.91556e-05
0.000848446
0.00108554
0.00143665
0.00156637
0.00159615
0.00150398
0.00143267
0.00136207
0.00128946
0.00121695
0.00114806
0.00107285
0.00101349
0.000943885
0.000900099
0.000857231
0.000832087
0.000809966
0.000789882
0.000773776
0.00075607
0.000742074
0.000727078
0.00071392
0.000701482
0.000689236
0.000678663
0.000667441
0.00065782
0.000648037
0.000639072
0.000630457
0.000622341
0.000614874
0.000607688
0.00060121
0.000595105
0.00058959
0.000584634
0.000580217
0.000576286
0.000573293
0.000565721
0.000560212
0.000556813
0.000553834
0.00055099
0.000548349
0.000545924
0.000543707
0.000541696
0.000539866
0.000538216
0.000536737
0.000535421
0.000534164
0.000533158
0.000532235
0.000531454
0.000530725
0.000530246
0.000529664
0.000529264
0.000528707
0.000528233
0.000527669
0.000527014
0.00052646
0.000525523
0.000525036
0.00052385
0.000522636
0.000521565
0.000519785
0.000517702
0.000515454
0.000512815
0.000509142
0.000504945
0.000498884
0.000493549
3.50709e-05
0.00118357
0.0014447
0.00196385
0.00214296
0.00216193
0.00203613
0.00193294
0.00183424
0.00173529
0.00163754
0.00154435
0.00144576
0.00136474
0.0012744
0.00121202
0.00115197
0.00111338
0.0010802
0.00105078
0.00102641
0.00100122
0.000980492
0.000959278
0.000940483
0.000922857
0.000905787
0.000890769
0.000875432
0.000861945
0.000848567
0.000836273
0.000824586
0.000813579
0.000803374
0.000793748
0.000784924
0.000776767
0.000769322
0.000762645
0.000756631
0.00075134
0.000747351
0.000736833
0.000728832
0.000724049
0.000719877
0.000715982
0.000712365
0.000709048
0.000706011
0.000703255
0.000700743
0.000698475
0.000696432
0.000694614
0.000692928
0.000691516
0.000690178
0.000689112
0.000688042
0.00068732
0.000686501
0.000685959
0.000685166
0.000684544
0.00068375
0.000682918
0.000682178
0.00068094
0.000680263
0.000678834
0.000677246
0.000675872
0.000673717
0.000671119
0.000668277
0.000665036
0.000660553
0.000655316
0.000648233
0.000639343
4.21391e-05
0.00163124
0.00188219
0.00257868
0.00281267
0.00281652
0.00265358
0.00251575
0.00238725
0.00226054
0.00213601
0.00201674
0.00189287
0.00178804
0.00167489
0.00159169
0.00151208
0.0014572
0.00141036
0.00136929
0.00133462
0.00130009
0.00127102
0.00124204
0.00121628
0.00119218
0.00116918
0.00114866
0.0011282
0.00110998
0.00109217
0.00107578
0.00106027
0.00104571
0.00103218
0.00101952
0.00100786
0.000997144
0.000987338
0.000978551
0.000970623
0.000963634
0.000958454
0.000944609
0.000933469
0.000926832
0.000921207
0.000916015
0.000911199
0.000906788
0.000902747
0.000899079
0.000895733
0.00089271
0.000889981
0.000887549
0.000885308
0.000883402
0.000881598
0.000880151
0.000878704
0.000877684
0.000876586
0.000875845
0.000874818
0.000873999
0.00087298
0.000871926
0.000870983
0.000869449
0.00086856
0.000866855
0.000864891
0.000863188
0.000860615
0.000857467
0.00085401
0.000850098
0.000844768
0.00083838
0.000830463
0.000816561
5.05657e-05
0.00221232
0.00242551
0.00329403
0.00358778
0.00357276
0.00336892
0.00319398
0.00303426
0.00287862
0.00272599
0.00257902
0.00242801
0.00229727
0.0021591
0.00205276
0.00195108
0.00187691
0.00181346
0.00175802
0.0017106
0.00166449
0.00162508
0.00158648
0.00155208
0.00151996
0.0014896
0.0014623
0.00143547
0.00141143
0.00138815
0.00136669
0.00134646
0.00132752
0.00130992
0.0012935
0.00127837
0.00126449
0.00125178
0.00124039
0.00123012
0.00122102
0.00121439
0.00119687
0.00118185
0.00117279
0.00116534
0.00115854
0.00115225
0.0011465
0.00114122
0.00113644
0.00113207
0.00112813
0.00112456
0.00112138
0.00111845
0.00111594
0.00111359
0.00111166
0.00110978
0.00110839
0.00110696
0.00110597
0.0011047
0.00110365
0.00110239
0.00110109
0.00109993
0.00109809
0.00109697
0.00109498
0.00109263
0.00109058
0.00108757
0.00108385
0.00107976
0.00107513
0.00106894
0.0010613
0.00105284
0.00103218
6.05839e-05
0.00295856
0.003113
0.00412756
0.00448511
0.00444715
0.00419816
0.00398362
0.0037914
0.0036059
0.00342406
0.00324794
0.00306802
0.00290931
0.00274381
0.00261186
0.00248546
0.00238886
0.00230552
0.00223251
0.00216948
0.00210904
0.00205686
0.00200635
0.00196121
0.00191917
0.00187968
0.00184399
0.00180927
0.00177802
0.00174798
0.00172027
0.0016942
0.00166984
0.00164722
0.00162616
0.00160674
0.00158894
0.00157265
0.00155803
0.00154486
0.00153313
0.00152468
0.00150319
0.00148347
0.00147126
0.0014615
0.00145271
0.0014446
0.00143719
0.0014304
0.00142424
0.00141863
0.00141355
0.00140896
0.00140486
0.0014011
0.00139785
0.00139482
0.00139232
0.0013899
0.00138807
0.00138624
0.00138496
0.0013834
0.00138209
0.00138059
0.00137902
0.00137763
0.00137549
0.00137412
0.00137186
0.00136912
0.00136671
0.00136328
0.00135899
0.00135424
0.00134889
0.00134187
0.00133288
0.00132431
0.00129491
7.24551e-05
0.00391059
0.0039813
0.00510126
0.00552535
0.00545946
0.00516043
0.00490371
0.00467792
0.00446189
0.00425001
0.00404354
0.00383306
0.00364445
0.00344927
0.00328915
0.00313518
0.00301285
0.00290606
0.00281185
0.00272981
0.00265177
0.00258383
0.00251862
0.00246016
0.00240584
0.00235499
0.00230891
0.00226442
0.00222422
0.0021858
0.00215033
0.00211704
0.00208598
0.00205714
0.00203032
0.00200559
0.00198292
0.00196219
0.00194354
0.00192677
0.00191176
0.00190101
0.00187527
0.00184997
0.0018337
0.00182099
0.0018097
0.00179934
0.00178989
0.00178123
0.00177339
0.00176623
0.00175977
0.00175391
0.00174869
0.00174391
0.00173976
0.00173592
0.0017327
0.00172965
0.00172726
0.00172496
0.00172331
0.00172146
0.00171986
0.0017181
0.00171625
0.00171462
0.00171219
0.00171056
0.00170805
0.00170494
0.00170217
0.00169836
0.00169352
0.00168815
0.00168208
0.0016743
0.00166391
0.00165583
0.00161577
8.64657e-05
0.00511865
0.00506673
0.00624147
0.0067333
0.0066329
0.00627819
0.00597667
0.00571646
0.00546966
0.00522732
0.00498967
0.00474725
0.00452696
0.00429976
0.00410884
0.00392429
0.00377278
0.00363871
0.00351924
0.00341428
0.0033148
0.00322751
0.00314421
0.00306924
0.00299972
0.00293477
0.00287579
0.00281918
0.00276785
0.00271903
0.00267393
0.00263167
0.00259227
0.00255572
0.00252174
0.00249042
0.00246168
0.00243543
0.00241174
0.00239046
0.00237133
0.00235761
0.00232738
0.00229557
0.00227414
0.00225766
0.00224324
0.00223008
0.00221809
0.00220713
0.00219721
0.00218815
0.00217997
0.00217257
0.00216595
0.00215992
0.00215466
0.00214983
0.00214573
0.00214192
0.00213885
0.00213598
0.00213389
0.00213169
0.00212978
0.00212774
0.00212561
0.00212376
0.00212106
0.00211916
0.00211646
0.00211302
0.00210993
0.0021058
0.00210048
0.00209455
0.00208782
0.00207943
0.00206761
0.00206079
0.00200871
0.000102922
0.00664408
0.00641698
0.00757935
0.00813825
0.00799455
0.00757763
0.00722862
0.00693354
0.00665629
0.00638366
0.00611452
0.00583918
0.00558575
0.00532429
0.00509991
0.0048816
0.00469729
0.00453189
0.00438275
0.00425048
0.00412511
0.00401422
0.00390877
0.00381342
0.00372513
0.00364267
0.0035677
0.00349603
0.00343086
0.00336911
0.00331202
0.00325862
0.00320884
0.00316268
0.00311977
0.00308025
0.00304392
0.00301076
0.00298075
0.00295382
0.00292949
0.00291193
0.00287693
0.00283767
0.00280978
0.00278848
0.0027701
0.00275344
0.00273831
0.00272449
0.00271197
0.00270057
0.00269027
0.00268095
0.00267262
0.00266506
0.00265842
0.00265238
0.00264719
0.00264245
0.00263854
0.00263498
0.00263235
0.00262976
0.0026275
0.00262519
0.00262278
0.00262071
0.00261779
0.00261566
0.00261282
0.00260915
0.00260579
0.00260145
0.00259579
0.00258941
0.00258213
0.00257336
0.00256015
0.00255549
0.00249153
0.000122141
0.00856116
0.00809382
0.00915223
0.00977248
0.00957526
0.0090887
0.0086896
0.00835979
0.00805323
0.00775133
0.00745113
0.00714248
0.00685487
0.00655711
0.00629667
0.00604134
0.00582045
0.00561949
0.00543596
0.00527158
0.00511534
0.00497593
0.00484358
0.00472323
0.00461184
0.00450773
0.00441294
0.00432259
0.0042402
0.00416238
0.00409034
0.00402306
0.00396034
0.00390222
0.00384816
0.00379837
0.00375254
0.00371073
0.00367278
0.00363871
0.00360781
0.00358521
0.00354511
0.0034975
0.00346166
0.0034342
0.0034108
0.00338977
0.00337071
0.00335332
0.0033376
0.00332328
0.00331035
0.00329866
0.0032882
0.00327874
0.00327039
0.00326286
0.00325634
0.00325045
0.00324552
0.00324109
0.00323779
0.00323476
0.0032321
0.00322951
0.00322685
0.00322459
0.00322152
0.0032192
0.00321633
0.00321255
0.00320904
0.00320465
0.00319882
0.0031922
0.00318456
0.00317573
0.00316124
0.00315974
0.00308681
0.000144433
0.0109594
0.0101745
0.0110061
0.0116615
0.0114031
0.0108409
0.0103903
0.0100278
0.00969503
0.00936651
0.00903702
0.00869567
0.00837359
0.00803796
0.00773909
0.00744351
0.00718222
0.0069414
0.00671858
0.00651698
0.00632446
0.00615106
0.00598639
0.00583563
0.00569602
0.00556529
0.00544603
0.00533262
0.00522885
0.00513106
0.00504042
0.00495585
0.00487698
0.00480392
0.00473592
0.00467331
0.00461556
0.00456288
0.00451491
0.00447184
0.00443261
0.00440339
0.00435767
0.00430087
0.00425543
0.00422018
0.00419042
0.00416388
0.00413991
0.00411808
0.00409834
0.00408039
0.00406419
0.00404954
0.00403644
0.00402462
0.00401415
0.00400478
0.00399659
0.0039893
0.0039831
0.00397762
0.00397348
0.00396989
0.0039668
0.00396392
0.00396103
0.00395862
0.00395551
0.00395308
0.00395031
0.0039466
0.0039431
0.00393887
0.00393316
0.00392659
0.00391886
0.00391041
0.00389487
0.0038975
0.00382204
0.000170082
0.0139459
0.0127538
0.0131987
0.0138108
0.0134751
0.0128388
0.0123425
0.0119581
0.01161
0.0112632
0.0109101
0.0105394
0.0101845
0.00981077
0.00947197
0.00913349
0.00882827
0.00854345
0.00827653
0.00803258
0.0077982
0.00758491
0.00738197
0.00719476
0.00702104
0.00685788
0.00670865
0.0065669
0.00643673
0.00631425
0.00620052
0.00609447
0.0059955
0.0059038
0.0058184
0.00573973
0.00566705
0.0056007
0.00554011
0.00548564
0.00543588
0.00539795
0.00534581
0.00527905
0.00522225
0.00517726
0.00513946
0.00510598
0.00507585
0.00504846
0.00502371
0.00500124
0.00498094
0.00496261
0.0049462
0.00493144
0.00491833
0.00490667
0.00489641
0.00488737
0.0048796
0.00487281
0.0048676
0.00486333
0.00485972
0.00485654
0.00485345
0.00485095
0.00484791
0.00484549
0.004843
0.0048396
0.00483634
0.00483256
0.00482732
0.0048212
0.00481375
0.00480625
0.00478998
0.00479766
0.00472674
0.000589478
0.0176492
0.0159467
0.0158015
0.0162154
0.0157504
0.0150397
0.0145124
0.01413
0.0137937
0.0134524
0.0130935
0.0127058
0.0123259
0.0119184
0.0115411
0.0111592
0.0108079
0.010476
0.0101609
0.00986997
0.00958844
0.00932943
0.00908211
0.00885202
0.00863775
0.00843569
0.00825021
0.00807404
0.00791156
0.00775877
0.0076166
0.00748399
0.00736012
0.00724527
0.00713821
0.00703951
0.00694814
0.00686464
0.00678818
0.0067193
0.0066562
0.00660687
0.00654703
0.00646958
0.00639968
0.00634273
0.00629481
0.00625261
0.00621475
0.00618041
0.00614939
0.00612125
0.00609583
0.0060729
0.00605235
0.00603392
0.00601751
0.00600297
0.00599014
0.00597892
0.0059692
0.00596076
0.00595419
0.00594903
0.00594479
0.00594126
0.005938
0.00593547
0.00593267
0.00593041
0.00592839
0.0059256
0.00592289
0.00591992
0.0059156
0.00591043
0.00590374
0.00589787
0.00588132
0.00589488
0.00583145
0.00173782
0.0222234
0.0198902
0.0189
0.0188776
0.018192
0.0173942
0.0168477
0.0164915
0.0162002
0.0159013
0.0155716
0.0151964
0.0148141
0.0143886
0.0139827
0.0135632
0.013168
0.0127891
0.012424
0.0120834
0.0117508
0.0114412
0.0111441
0.010865
0.0106037
0.010356
0.0101275
0.0099103
0.00970893
0.00951945
0.00934263
0.00917756
0.00902312
0.00887976
0.00874594
0.00862239
0.00850781
0.00840289
0.00830655
0.00821953
0.00813963
0.00807549
0.00800604
0.00791711
0.00783244
0.00776112
0.00770064
0.00764753
0.0076
0.00755699
0.00751813
0.00748291
0.0074511
0.00742241
0.00739668
0.00737365
0.00735311
0.00733497
0.00731892
0.00730497
0.00729282
0.00728231
0.00727398
0.00726764
0.00726258
0.00725862
0.00725519
0.00725269
0.00725027
0.00724835
0.00724704
0.0072452
0.00724342
0.00724167
0.00723878
0.00723517
0.00722981
0.00722633
0.00721003
0.0072303
0.00717087
0.00390349
0.027856
0.0247452
0.0225891
0.0218103
0.0207786
0.0198678
0.0193075
0.0189944
0.0187745
0.0185521
0.018291
0.0179693
0.017623
0.0172126
0.0168036
0.0163652
0.0159386
0.0155208
0.0151102
0.0147219
0.0143384
0.0139763
0.0136261
0.0132935
0.01298
0.0126806
0.0124028
0.012138
0.011891
0.011658
0.0114399
0.0112358
0.0110445
0.0108665
0.0107001
0.0105461
0.010403
0.0102716
0.0101506
0.010041
0.0099401
0.00985698
0.00977516
0.00967378
0.00957285
0.00948471
0.00940893
0.00934233
0.00928281
0.00922902
0.00918042
0.0091364
0.00909662
0.00906077
0.00902855
0.00899979
0.00897408
0.00895143
0.00893135
0.00891397
0.00889879
0.00888569
0.0088751
0.00886718
0.008861
0.00885644
0.00885278
0.00885033
0.00884843
0.00884704
0.00884669
0.00884615
0.0088457
0.00884564
0.00884474
0.00884335
0.00883995
0.00883964
0.00882414
0.00885187
0.00879335
0.00601004
0.0347671
0.0306935
0.0269542
0.0250304
0.0234985
0.0224363
0.0218625
0.0216031
0.0214718
0.0213506
0.0211897
0.0209597
0.0206913
0.0203386
0.0199661
0.0195436
0.0191138
0.0186787
0.0182388
0.0178147
0.0173882
0.0169783
0.0165774
0.0161913
0.0158238
0.0154695
0.0151381
0.0148205
0.0145221
0.0142397
0.0139739
0.0137245
0.0134898
0.0132709
0.0130656
0.0128751
0.0126976
0.0125341
0.0123831
0.0122456
0.0121189
0.0120119
0.0119141
0.0117989
0.0116804
0.0115732
0.0114793
0.0113964
0.0113222
0.0112552
0.0111946
0.0111397
0.0110901
0.0110454
0.0110051
0.0109692
0.0109371
0.0109088
0.0108837
0.0108621
0.0108431
0.0108268
0.0108133
0.0108032
0.0107955
0.0107901
0.010786
0.0107836
0.0107823
0.0107816
0.0107824
0.0107835
0.0107848
0.0107868
0.0107885
0.0107899
0.0107891
0.0107927
0.0107783
0.0108142
0.0107497
0.00846095
0.0429857
0.037907
0.0320243
0.028542
0.0263386
0.0250768
0.0244864
0.0242882
0.0242572
0.0242531
0.024214
0.0241044
0.0239485
0.0236927
0.0233987
0.0230344
0.0226418
0.0222251
0.0217864
0.0213521
0.0209033
0.0204617
0.0200221
0.0195911
0.0191749
0.0187684
0.0183841
0.0180127
0.0176606
0.0173253
0.0170075
0.0167078
0.0164245
0.016159
0.0159091
0.0156764
0.0154587
0.0152574
0.0150708
0.0149001
0.0147423
0.0146062
0.0144879
0.0143571
0.0142201
0.0140921
0.0139774
0.0138752
0.0137835
0.0137006
0.0136255
0.0135575
0.013496
0.0134405
0.0133904
0.0133458
0.0133057
0.0132706
0.0132393
0.0132123
0.0131888
0.0131684
0.0131512
0.0131383
0.0131285
0.0131217
0.013117
0.0131144
0.0131136
0.0131137
0.0131158
0.0131188
0.0131221
0.0131267
0.0131313
0.013136
0.0131382
0.013146
0.013133
0.0131771
0.0130987
0.0113086
0.0520049
0.0462757
0.0377047
0.0323068
0.0292701
0.027757
0.0271476
0.0270176
0.0270962
0.0272201
0.0273173
0.0273486
0.0273306
0.027202
0.0270214
0.0267543
0.0264406
0.0260835
0.0256857
0.0252779
0.0248399
0.0243954
0.0239418
0.0234863
0.0230379
0.022592
0.0221641
0.0217457
0.021344
0.0209578
0.0205885
0.0202376
0.0199036
0.0195887
0.0192908
0.0190118
0.0187496
0.0185059
0.0182788
0.01807
0.0178764
0.0177061
0.0175625
0.0174139
0.0172578
0.017108
0.0169708
0.0168469
0.016735
0.0166336
0.0165416
0.0164582
0.0163825
0.0163142
0.0162524
0.0161973
0.0161479
0.0161044
0.0160657
0.0160323
0.0160031
0.0159779
0.0159562
0.0159396
0.0159269
0.0159182
0.0159123
0.0159092
0.0159088
0.0159095
0.0159129
0.0159178
0.0159233
0.0159306
0.0159383
0.0159466
0.0159517
0.0159639
0.0159516
0.0160035
0.015904
0.0145924
0.0613824
0.0552681
0.0437236
0.0361873
0.032222
0.0304242
0.0298021
0.0297496
0.0299466
0.0302066
0.0304503
0.0306385
0.0307772
0.0307983
0.0307579
0.0306191
0.0304205
0.0301608
0.0298437
0.0295023
0.0291139
0.0287034
0.0282704
0.0278222
0.0273694
0.0269083
0.0264577
0.0260093
0.025572
0.0251459
0.0247335
0.0243375
0.023957
0.0235952
0.0232503
0.0229251
0.0226175
0.0223296
0.0220599
0.0218101
0.0215776
0.0213696
0.0211968
0.0210283
0.0208528
0.0206815
0.0205214
0.0203746
0.0202409
0.0201191
0.0200081
0.0199074
0.0198156
0.0197328
0.0196577
0.0195906
0.0195302
0.0194771
0.0194297
0.0193889
0.0193532
0.0193223
0.0192953
0.0192742
0.0192577
0.0192463
0.0192387
0.0192345
0.0192341
0.0192352
0.0192396
0.0192463
0.0192538
0.0192636
0.0192742
0.0192858
0.0192936
0.0193093
0.0192965
0.0193544
0.0192292
0.0183368
0.0708202
0.0643672
0.0495377
0.0398355
0.0350328
0.0329872
0.0323888
0.032429
0.0327541
0.0331549
0.0335513
0.03391
0.0342206
0.0344089
0.0345296
0.0345444
0.0344912
0.0343606
0.0341599
0.033922
0.0336207
0.0332819
0.0329073
0.0325035
0.0320814
0.0316382
0.0311951
0.0307439
0.0302951
0.0298502
0.0294129
0.0289872
0.028573
0.0281748
0.0277914
0.0274265
0.0270784
0.02675
0.02644
0.0261506
0.0258797
0.0256338
0.0254302
0.0252408
0.025047
0.0248561
0.0246747
0.0245059
0.0243504
0.0242079
0.0240774
0.0239584
0.0238497
0.0237514
0.0236619
0.0235819
0.0235097
0.0234461
0.0233894
0.0233404
0.0232976
0.0232605
0.0232276
0.0232014
0.0231805
0.0231656
0.0231555
0.0231497
0.0231488
0.0231498
0.0231549
0.0231629
0.023172
0.0231838
0.0231967
0.0232108
0.0232201
0.0232379
0.0232225
0.0232833
0.0231306
0.0225536
0.0800386
0.0729381
0.0551211
0.0431173
0.0376868
0.0354908
0.03493
0.035039
0.035456
0.0359947
0.0365443
0.037085
0.0375772
0.0379449
0.0382437
0.0384338
0.038553
0.0385785
0.0385262
0.0384255
0.038245
0.0380131
0.0377338
0.0374116
0.0370565
0.0366676
0.0362674
0.0358468
0.035418
0.0349834
0.034548
0.0341167
0.0336905
0.0332751
0.0328701
0.0324801
0.0321042
0.031746
0.0314047
0.0310831
0.0307798
0.0305009
0.0302692
0.0300607
0.0298512
0.0296449
0.0294464
0.0292595
0.0290851
0.0289241
0.0287756
0.0286397
0.0285149
0.0284018
0.0282985
0.0282059
0.0281221
0.0280482
0.0279822
0.0279252
0.0278754
0.0278323
0.0277935
0.0277622
0.0277366
0.027718
0.0277051
0.0276972
0.0276953
0.0276958
0.0277011
0.0277099
0.02772
0.0277331
0.0277474
0.0277628
0.0277722
0.02779
0.0277696
0.0278289
0.0276499
0.0272582
0.0886932
0.080486
0.0615959
0.047344
0.0408476
0.0384344
0.0378246
0.0379077
0.0383186
0.0388914
0.0395064
0.0401442
0.0407539
0.0413003
0.0417876
0.0421703
0.0424859
0.0426888
0.0428161
0.0428843
0.0428549
0.0427627
0.0426144
0.0424095
0.0421567
0.0418593
0.0415383
0.0411839
0.0408097
0.0404192
0.040018
0.0396114
0.0392017
0.0387956
0.0383933
0.0380005
0.0376169
0.037247
0.0368907
0.0365513
0.0362285
0.0359278
0.0356762
0.0354542
0.035235
0.0350198
0.0348115
0.0346133
0.0344264
0.0342524
0.0340906
0.0339418
0.0338045
0.0336796
0.0335651
0.0334624
0.0333691
0.0332868
0.0332133
0.0331498
0.0330944
0.0330466
0.0330033
0.0329678
0.0329383
0.0329166
0.0329011
0.0328914
0.0328887
0.0328885
0.0328939
0.0329033
0.032914
0.0329279
0.0329428
0.0329584
0.0329665
0.0329823
0.0329546
0.0330075
0.0328067
0.0324792
0.0963442
0.0870113
0.0691092
0.0540488
0.0462243
0.0430757
0.0419581
0.041716
0.0418955
0.0423092
0.0428334
0.0434216
0.0440277
0.0446209
0.0451925
0.0456818
0.0461556
0.0465415
0.0468794
0.0471441
0.0472902
0.0473686
0.0473874
0.0473335
0.0472169
0.0470488
0.0468443
0.0465919
0.0463088
0.0459984
0.0456665
0.0453187
0.0449585
0.044593
0.0442232
0.0438557
0.0434908
0.0431338
0.0427853
0.0424492
0.0421261
0.0418213
0.041564
0.0413392
0.0411195
0.040905
0.0406969
0.0404975
0.0403079
0.0401298
0.0399629
0.0398086
0.0396655
0.0395349
0.0394148
0.0393069
0.0392087
0.0391222
0.0390449
0.0389784
0.0389207
0.0388713
0.0388262
0.0387892
0.0387582
0.0387353
0.038719
0.038709
0.0387065
0.0387068
0.0387131
0.0387237
0.0387355
0.0387503
0.0387659
0.0387814
0.0387877
0.0388001
0.0387647
0.0388066
0.0385924
0.0382448
0.102522
0.0930764
0.0774156
0.0629764
0.0544607
0.0501837
0.0480469
0.047086
0.0467474
0.0467682
0.0470046
0.0473567
0.0478005
0.0482768
0.048791
0.0492676
0.0497628
0.0502134
0.0506469
0.0510382
0.0513632
0.0516404
0.0518616
0.0519851
0.0520355
0.0520362
0.0519842
0.0518694
0.0517149
0.0515227
0.0512974
0.0510451
0.0507705
0.0504809
0.0501777
0.0498681
0.0495533
0.0492391
0.0489267
0.0486206
0.0483223
0.0480369
0.0477937
0.0475814
0.047375
0.0471741
0.046979
0.0467913
0.0466115
0.0464416
0.0462811
0.0461321
0.0459932
0.0458662
0.045749
0.0456438
0.0455481
0.0454642
0.0453895
0.0453259
0.0452713
0.0452254
0.0451836
0.0451497
0.0451215
0.0451014
0.045088
0.0450808
0.0450815
0.045085
0.0450946
0.0451085
0.0451233
0.0451409
0.0451587
0.0451754
0.0451813
0.0451912
0.0451503
0.0451784
0.0449641
0.0445531
0.107138
0.0992792
0.0861884
0.0731114
0.0642031
0.0587123
0.0554653
0.0536796
0.0527359
0.0522805
0.0521285
0.0521377
0.0523073
0.0525442
0.052873
0.0532147
0.0535986
0.0539877
0.054389
0.0547876
0.0551623
0.0555226
0.0558472
0.0561409
0.0563811
0.0565919
0.0567187
0.0567715
0.0567834
0.0567474
0.0566659
0.056547
0.0563968
0.0562211
0.0560218
0.0558068
0.0555777
0.0553407
0.0550975
0.0548532
0.0546102
0.0543732
0.0541689
0.0539893
0.0538144
0.0536438
0.0534778
0.0533175
0.0531631
0.0530164
0.0528769
0.0527471
0.0526255
0.0525145
0.052412
0.0523205
0.0522377
0.0521661
0.052103
0.0520508
0.0520074
0.0519725
0.0519412
0.0519175
0.0518988
0.0518879
0.0518832
0.0518845
0.0518936
0.051905
0.0519225
0.0519441
0.0519662
0.0519904
0.0520143
0.0520361
0.0520458
0.0520567
0.0520162
0.0520313
0.051834
0.0513525
0.111533
0.105433
0.0949669
0.0832999
0.0733385
0.0665135
0.0625872
0.0603273
0.0590131
0.0582269
0.0577473
0.0574543
0.0573619
0.0573509
0.0574504
0.0575916
0.0577892
0.0580287
0.0582992
0.0586012
0.0589117
0.0592401
0.0595638
0.059894
0.0602087
0.0605158
0.0607958
0.0610324
0.0612451
0.0613939
0.0614849
0.0615341
0.0615455
0.0615207
0.0614628
0.0613804
0.0612749
0.0611524
0.0610151
0.0608687
0.0607159
0.0605612
0.0604252
0.060303
0.0601822
0.0600629
0.0599456
0.0598317
0.059721
0.0596154
0.0595145
0.0594207
0.0593328
0.0592532
0.0591803
0.0591167
0.0590601
0.0590135
0.0589742
0.0589447
0.058923
0.0589094
0.0588986
0.0588947
0.0588948
0.058902
0.0589147
0.0589326
0.0589578
0.0589848
0.0590175
0.0590538
0.05909
0.0591278
0.0591646
0.0591983
0.0592192
0.0592384
0.0592086
0.0592164
0.0590552
0.0585256
0.116332
0.111627
0.103313
0.093288
0.083786
0.076119
0.0703972
0.0669564
0.0650244
0.0638617
0.0631651
0.0627322
0.0625116
0.0623436
0.0622525
0.0622059
0.062225
0.0622979
0.0624007
0.0625486
0.0627217
0.0629333
0.0631683
0.0634329
0.0637159
0.0640149
0.0643229
0.0646239
0.0649255
0.0652087
0.065472
0.0657118
0.0659091
0.0660582
0.0661703
0.0662529
0.0663045
0.0663309
0.0663351
0.0663225
0.066296
0.0662595
0.066224
0.0661868
0.0661458
0.0661019
0.0660562
0.0660103
0.0659644
0.0659205
0.0658781
0.0658397
0.0658044
0.0657747
0.0657491
0.0657303
0.0657164
0.0657103
0.0657097
0.0657171
0.0657308
0.0657512
0.0657736
0.0658017
0.0658327
0.0658697
0.065911
0.0659565
0.0660085
0.0660616
0.0661196
0.0661805
0.0662409
0.0663024
0.0663621
0.0664181
0.0664614
0.0665004
0.0664959
0.0665091
0.0664035
0.0658721
0.120468
0.117181
0.110861
0.102876
0.0947766
0.0875458
0.0814469
0.0766609
0.0730299
0.0705992
0.069199
0.0683104
0.0677099
0.0672526
0.0669743
0.0668015
0.0667273
0.0666703
0.0666132
0.0665961
0.0666073
0.066664
0.0667596
0.0668958
0.0670693
0.0672734
0.0675086
0.0677643
0.0680449
0.0683393
0.068647
0.0689596
0.0692711
0.0695708
0.0698573
0.0701153
0.0703352
0.070527
0.0706949
0.0708415
0.0709687
0.07108
0.0711728
0.0712453
0.071308
0.0713627
0.071411
0.0714551
0.0714953
0.0715339
0.0715707
0.0716081
0.0716455
0.0716852
0.0717261
0.0717708
0.0718177
0.0718695
0.0719245
0.0719851
0.0720498
0.0721193
0.0721896
0.0722641
0.0723402
0.0724208
0.0725045
0.0725912
0.0726829
0.0727752
0.0728716
0.0729698
0.0730674
0.0731656
0.0732618
0.0733539
0.0734347
0.0735095
0.0735487
0.0735879
0.0735568
0.0730887
0.123925
0.121717
0.117294
0.111472
0.10499
0.0985664
0.0928377
0.0880154
0.0840328
0.0807887
0.0782266
0.0760663
0.074366
0.0731163
0.0723564
0.0718514
0.0714861