/*--------------------------------*- C++ -*----------------------------------*\
| =========                 |                                                 |
| \\      /  F ield         | OpenFOAM: The Open Source CFD Toolbox           |
|  \\    /   O peration     | Version:  5.x                                   |
|   \\  /    A nd           | Web:      www.OpenFOAM.org                      |
|    \\/     M anipulation  |                                                 |
\*---------------------------------------------------------------------------*/
FoamFile
{
    version     2.0;
    format      ascii;
    class       volScalarField;
    location    "1000";
    object      nuTilda;
}
// * * * * * * * * * * * * * * * * * * * * * * * * * * * * * * * * * * * * * //

dimensions      [0 2 -1 0 0 0 0];

internalField   nonuniform List<scalar> 
11040
(
0.00235961
0.00283651
0.00306841
0.00311727
0.00302675
0.00287135
0.00270059
0.00256108
0.0024401
0.0023099
0.00213613
0.00196198
0.0018291
0.00173459
0.00164482
0.00155596
0.00146805
0.0013838
0.00130304
0.00122418
0.00114552
0.00107528
0.00101236
0.000949423
0.000885513
0.000819577
0.000748356
0.000647102
0.000472827
0.000412469
0.000366227
0.000334437
0.000308512
0.000280976
0.000255942
0.000239137
0.000246927
0.000295199
0.000349038
0.000388862
0.000566208
0.00622314
0.00666414
0.00607902
0.00547981
0.00488154
0.00436553
0.0039215
0.00382509
0.00382604
0.00378973
0.00369208
0.00354558
0.003425
0.00330611
0.00316238
0.00301454
0.0028772
0.00275371
0.00264262
0.00254167
0.00244933
0.00237225
0.00230522
0.0022423
0.00218318
0.0021266
0.00206971
0.00199922
0.00188632
0.00180194
0.00173952
0.00171123
0.0016244
0.00152322
0.00138641
0.00126902
0.00122919
0.0013245
0.00151094
0.0018273
0.00245582
0.0128111
0.0134938
0.0126675
0.0116317
0.0104874
0.00935364
0.00830968
0.00738145
0.0065852
0.00589765
0.00526246
0.00474413
0.00463096
0.00459099
0.00452785
0.00445454
0.00437366
0.00429048
0.00421052
0.00413635
0.00406793
0.00401288
0.00396334
0.00391335
0.00386293
0.00381213
0.00376005
0.00370308
0.0036342
0.00356982
0.00351121
0.00346453
0.00340716
0.00334635
0.0032388
0.00306494
0.00301828
0.0032395
0.00353255
0.00387405
0.00470536
0.0204956
0.0212626
0.0203588
0.0189958
0.0174077
0.015774
0.0141982
0.0127085
0.0113303
0.0100564
0.0088151
0.00773371
0.00693694
0.00634301
0.00604916
0.00592162
0.0058295
0.00575855
0.0057028
0.00565754
0.0056196
0.00559308
0.00557002
0.00554502
0.00551671
0.00548471
0.00544841
0.00540654
0.00535731
0.0053049
0.00525196
0.00520453
0.00516365
0.0051385
0.00510364
0.00500425
0.00496022
0.0052144
0.00567897
0.00637737
0.00721035
0.0290438
0.0298098
0.0289083
0.0273403
0.0254187
0.0233445
0.0212547
0.0191822
0.0172181
0.0153743
0.0135629
0.0119416
0.0106479
0.00962841
0.00877651
0.00807095
0.0076389
0.0074317
0.00731033
0.00723249
0.00718398
0.0071598
0.00714599
0.00713431
0.00712187
0.00710709
0.00708832
0.0070639
0.00703245
0.00699474
0.00695316
0.00691405
0.00688664
0.00688698
0.00691178
0.00690484
0.00690796
0.00718201
0.00783106
0.00891942
0.0100005
0.0381962
0.0389207
0.0380704
0.0364205
0.0342946
0.0318439
0.0292533
0.0266618
0.0241642
0.0217769
0.0194002
0.0172108
0.0153892
0.0139248
0.01267
0.0115795
0.0106676
0.00988249
0.00942045
0.00915895
0.00900195
0.00891015
0.00885159
0.00880861
0.00877752
0.00875412
0.00873411
0.00871385
0.00869049
0.00866275
0.00863164
0.00860239
0.00858583
0.00860136
0.00866441
0.00874261
0.00882682
0.00911329
0.0098396
0.011145
0.0131742
0.0477304
0.048375
0.0476007
0.0459715
0.0437462
0.0411005
0.0382306
0.0352753
0.0323492
0.0294844
0.0265824
0.0238353
0.0214677
0.0194975
0.0177737
0.01625
0.0149051
0.0137067
0.0126705
0.0118682
0.0114186
0.0111403
0.0109409
0.0107924
0.0106841
0.0106004
0.0105331
0.0104767
0.0104267
0.0103806
0.0103377
0.0103016
0.0102812
0.0102944
0.0103658
0.010495
0.0106627
0.0109698
0.0116664
0.0129539
0.0152341
0.0573717
0.0579385
0.0572563
0.0557218
0.0535289
0.0508692
0.0479137
0.0447815
0.0415907
0.0383823
0.0350658
0.0318383
0.028958
0.0264762
0.0242557
0.0222577
0.0204594
0.0188354
0.0173625
0.0160365
0.0149036
0.0141693
0.0137117
0.0133844
0.0131319
0.0129255
0.0127498
0.0125959
0.0124585
0.0123347
0.0122243
0.0121305
0.0120611
0.0120307
0.0120632
0.0121803
0.0123819
0.0127038
0.0133157
0.014418
0.0164513
0.0669133
0.0673923
0.0667993
0.0654043
0.063353
0.0608204
0.0579441
0.0548183
0.0515476
0.0481689
0.0446014
0.0410327
0.0377352
0.0347941
0.0321053
0.0296423
0.0273883
0.0253233
0.0234256
0.0216747
0.0200572
0.0187395
0.0177908
0.0171084
0.0165962
0.0161795
0.0158171
0.0154884
0.0151835
0.0148984
0.0146334
0.0143929
0.0141858
0.0140261
0.0139347
0.0139399
0.0140645
0.0143297
0.0148194
0.0156625
0.0171875
0.0761123
0.0765069
0.0759995
0.0747692
0.0729267
0.0706185
0.067949
0.0649843
0.0618061
0.0584215
0.0547779
0.05104
0.0474729
0.0441924
0.041148
0.0382972
0.0356357
0.0331582
0.0308503
0.0286953
0.0266747
0.0249636
0.0235752
0.0224326
0.0215313
0.020797
0.0201642
0.0195908
0.0190529
0.0185386
0.0180441
0.0175719
0.0171309
0.0167356
0.0164056
0.0161701
0.0160633
0.0161161
0.0163778
0.0169104
0.0178789
0.0847695
0.0850893
0.0846616
0.0836032
0.0819999
0.0799695
0.077588
0.0748798
0.071912
0.0687096
0.0652041
0.0615203
0.0578913
0.054437
0.0511296
0.0479839
0.0450064
0.0422067
0.0395538
0.0370388
0.0346526
0.0326143
0.0309078
0.0293709
0.028067
0.0269736
0.0260266
0.0251718
0.0243721
0.0236045
0.0228562
0.0221228
0.0214076
0.0207208
0.0200775
0.0195045
0.0190375
0.018712
0.0185759
0.0186737
0.0190514
0.0927391
0.0929953
0.0926377
0.0917438
0.0903819
0.0886452
0.0865888
0.0842123
0.0815738
0.0786848
0.0754809
0.072048
0.0685712
0.0651544
0.0617851
0.0584979
0.0553179
0.052263
0.049338
0.0465407
0.0438683
0.0415594
0.0395917
0.0377485
0.0360571
0.0346023
0.0333428
0.0322154
0.0311701
0.0301727
0.0292011
0.0282417
0.0272894
0.0263453
0.0254142
0.0245148
0.023675
0.022922
0.0222994
0.0218571
0.0215628
0.0999344
0.100133
0.0998317
0.0990856
0.097949
0.0964955
0.0947649
0.0927468
0.0904874
0.0879901
0.0851952
0.0821549
0.0789911
0.075796
0.0725704
0.06936
0.0661786
0.0630493
0.0599902
0.0570132
0.0541238
0.0515982
0.049434
0.0473923
0.0454571
0.0436345
0.0419744
0.0405276
0.0392417
0.0380526
0.0369155
0.0358019
0.0346977
0.0335911
0.0324758
0.0313594
0.0302579
0.0291823
0.0281599
0.0272389
0.0263125
0.106317
0.106457
0.106199
0.105582
0.104646
0.10345
0.102022
0.100349
0.0984692
0.0963804
0.0940313
0.0914356
0.0887
0.0858793
0.0829697
0.0800037
0.0770075
0.0740141
0.0710247
0.0680534
0.0651129
0.0624985
0.0602293
0.0580731
0.0560144
0.0540402
0.0521462
0.0503419
0.0486714
0.0471913
0.0458563
0.0446034
0.0433916
0.0421949
0.0409932
0.039782
0.0385644
0.0373356
0.0361038
0.0349049
0.0335756
0.111865
0.111965
0.111747
0.111241
0.110481
0.109508
0.108344
0.106981
0.105447
0.103741
0.101808
0.0996748
0.0974062
0.095033
0.0925457
0.0899637
0.0873057
0.0845905
0.0818342
0.0790504
0.0762586
0.0737304
0.0714909
0.0693366
0.0672626
0.065268
0.0633365
0.0614582
0.0596317
0.0578671
0.0561809
0.0546355
0.0532408
0.0519392
0.0506775
0.0494306
0.0481866
0.0469275
0.0456469
0.0443651
0.0429067
0.116647
0.116714
0.116528
0.116113
0.115507
0.114716
0.113773
0.112673
0.111438
0.110066
0.108515
0.106804
0.104977
0.103049
0.101
0.0988497
0.096619
0.0943062
0.0919197
0.0894693
0.086965
0.0846592
0.0825895
0.0805771
0.0786201
0.0767162
0.0748613
0.0730498
0.0712752
0.0695315
0.067815
0.0661367
0.0645024
0.0629213
0.0614362
0.060071
0.0587848
0.0575255
0.0562654
0.0550064
0.0535924
0.120736
0.120777
0.120616
0.120275
0.119782
0.119144
0.118386
0.117506
0.116521
0.115429
0.114201
0.112851
0.111409
0.109873
0.10824
0.106518
0.104711
0.102823
0.100867
0.0988356
0.0967315
0.0947621
0.0929673
0.0912045
0.0894744
0.087776
0.0861082
0.084469
0.0828558
0.0812646
0.0796912
0.0781316
0.0765829
0.0750431
0.073511
0.0719994
0.0705185
0.0690674
0.0676903
0.0664075
0.0650492
0.12405
0.124076
0.123939
0.123657
0.123253
0.122735
0.12212
0.121416
0.12062
0.119741
0.118759
0.117685
0.116542
0.115324
0.114032
0.112668
0.111234
0.10973
0.108159
0.10652
0.104814
0.1032
0.101713
0.100242
0.098788
0.0973525
0.0959348
0.0945389
0.0931586
0.0917915
0.0904355
0.0890879
0.0877461
0.0864062
0.0850597
0.0837068
0.0823507
0.080983
0.0796084
0.0782429
0.0768187
0.126634
0.126649
0.126533
0.126298
0.125962
0.12554
0.125031
0.12445
0.123797
0.123079
0.122287
0.121419
0.120495
0.119515
0.118478
0.117385
0.116239
0.115038
0.113781
0.112469
0.111101
0.109797
0.108588
0.107386
0.106196
0.105016
0.103847
0.10269
0.101542
0.100404
0.0992778
0.0981576
0.0970414
0.0959266
0.0948063
0.0936804
0.0925495
0.0914034
0.0902386
0.0890581
0.0878178
0.12868
0.128689
0.12859
0.128391
0.128107
0.127752
0.127325
0.12684
0.126301
0.125705
0.12505
0.124336
0.12358
0.122784
0.121939
0.121051
0.120122
0.119152
0.118139
0.117083
0.115984
0.114931
0.113952
0.112978
0.112011
0.111053
0.110103
0.109161
0.108226
0.107298
0.106376
0.10546
0.104548
0.103641
0.102732
0.101819
0.100904
0.0999791
0.0990405
0.0980895
0.0970993
0.130337
0.130343
0.130258
0.130088
0.129846
0.129541
0.129183
0.128771
0.128315
0.127812
0.127263
0.126673
0.126044
0.125384
0.124687
0.123957
0.123196
0.122404
0.121579
0.120722
0.119832
0.118978
0.118182
0.117391
0.116607
0.11583
0.115056
0.11429
0.113534
0.112785
0.112042
0.111304
0.110571
0.109843
0.109114
0.108384
0.107655
0.106919
0.106175
0.105424
0.104652
0.131704
0.131709
0.131636
0.131489
0.131279
0.131015
0.130706
0.130356
0.129966
0.12954
0.129074
0.128575
0.128046
0.127492
0.126914
0.126307
0.125677
0.125022
0.124344
0.123642
0.122916
0.122218
0.121567
0.12092
0.120278
0.119645
0.119016
0.118393
0.117778
0.117173
0.116575
0.115983
0.115396
0.114815
0.114235
0.113657
0.11308
0.1125
0.111915
0.111328
0.11073
0.132848
0.132854
0.132789
0.132661
0.132477
0.132247
0.131978
0.131674
0.13134
0.130973
0.130576
0.130149
0.129702
0.129232
0.128743
0.128236
0.127712
0.127166
0.126603
0.126022
0.125424
0.124849
0.124313
0.123781
0.123254
0.122736
0.122222
0.121714
0.121213
0.12072
0.120236
0.119762
0.119293
0.118828
0.118366
0.117907
0.117451
0.116994
0.116536
0.116077
0.115616
0.133819
0.133823
0.133766
0.133653
0.133492
0.13329
0.133054
0.132788
0.132496
0.132177
0.131834
0.131466
0.131082
0.130684
0.130267
0.129837
0.129394
0.128938
0.12847
0.127986
0.12749
0.127012
0.126567
0.126127
0.125694
0.125267
0.124845
0.124429
0.124019
0.123616
0.123221
0.122834
0.122457
0.122085
0.121717
0.121352
0.120991
0.120632
0.120272
0.119916
0.119562
0.13465
0.134653
0.134603
0.134503
0.13436
0.134182
0.133974
0.13374
0.133483
0.133206
0.132907
0.13259
0.132257
0.131913
0.131557
0.131191
0.130813
0.130426
0.130029
0.129625
0.129213
0.128813
0.12844
0.128073
0.127713
0.127358
0.127009
0.126665
0.126329
0.125999
0.125676
0.125361
0.125052
0.124751
0.124455
0.124165
0.12388
0.123597
0.123316
0.123037
0.122762
0.135367
0.13537
0.135325
0.135236
0.13511
0.134952
0.134768
0.13456
0.134333
0.134089
0.133829
0.133552
0.133264
0.132965
0.132656
0.13234
0.132018
0.131689
0.131352
0.131008
0.130661
0.130326
0.130014
0.129706
0.129404
0.129107
0.128816
0.128531
0.128253
0.127981
0.127715
0.127456
0.127204
0.126959
0.126718
0.126484
0.126255
0.126031
0.12581
0.125592
0.125379
0.135991
0.135993
0.135954
0.135875
0.135762
0.135622
0.135458
0.135273
0.135072
0.134855
0.134625
0.134384
0.134131
0.133871
0.133605
0.133333
0.133054
0.13277
0.132483
0.132192
0.131896
0.131612
0.131347
0.131087
0.130833
0.130584
0.13034
0.130102
0.12987
0.129644
0.129424
0.129211
0.129004
0.128803
0.128606
0.128416
0.12823
0.128049
0.127872
0.127698
0.127533
0.136536
0.136539
0.136504
0.136434
0.136334
0.136208
0.136062
0.135897
0.135718
0.135525
0.135321
0.135107
0.134886
0.134659
0.134428
0.13419
0.133949
0.133705
0.133457
0.133207
0.132956
0.132714
0.132488
0.132267
0.132051
0.13184
0.131634
0.131434
0.13124
0.131051
0.130869
0.130692
0.130521
0.130355
0.130194
0.130038
0.129887
0.12974
0.129597
0.129457
0.129325
0.137016
0.13702
0.136989
0.136926
0.136837
0.136724
0.136593
0.136446
0.136286
0.136114
0.135932
0.135742
0.135546
0.135346
0.135142
0.134934
0.134725
0.134513
0.134299
0.134085
0.133869
0.133662
0.133468
0.133279
0.133094
0.132915
0.13274
0.132571
0.132408
0.13225
0.132097
0.13195
0.131807
0.13167
0.131538
0.13141
0.131286
0.131166
0.13105
0.130937
0.130832
0.137441
0.137445
0.137418
0.137362
0.137282
0.137181
0.137063
0.136932
0.136788
0.136634
0.136472
0.136303
0.136129
0.135951
0.13577
0.135588
0.135404
0.135219
0.135034
0.134848
0.134663
0.134485
0.134317
0.134154
0.133996
0.133842
0.133694
0.13355
0.133412
0.133278
0.13315
0.133026
0.132908
0.132794
0.132684
0.132578
0.132477
0.132378
0.132284
0.132192
0.132107
0.137819
0.137823
0.137799
0.137749
0.137677
0.137587
0.137482
0.137363
0.137234
0.137097
0.136952
0.136801
0.136646
0.136488
0.136327
0.136166
0.136003
0.135841
0.135679
0.135518
0.135359
0.135204
0.135059
0.134918
0.134781
0.134649
0.134522
0.134399
0.134282
0.134169
0.13406
0.133956
0.133856
0.133761
0.13367
0.133582
0.133498
0.133417
0.13334
0.133265
0.133197
0.138155
0.13816
0.13814
0.138095
0.13803
0.137949
0.137855
0.137749
0.137633
0.13751
0.13738
0.137246
0.137107
0.136967
0.136824
0.136681
0.136537
0.136394
0.136251
0.13611
0.135972
0.135837
0.13571
0.135588
0.13547
0.135356
0.135247
0.135142
0.135041
0.134945
0.134853
0.134765
0.134681
0.134601
0.134524
0.134451
0.134381
0.134315
0.134251
0.13419
0.134134
0.138456
0.138462
0.138444
0.138404
0.138346
0.138274
0.138189
0.138094
0.137991
0.137881
0.137766
0.137645
0.137522
0.137396
0.13727
0.137142
0.137015
0.136889
0.136763
0.136639
0.136518
0.1364
0.136289
0.136183
0.13608
0.135982
0.135887
0.135797
0.13571
0.135628
0.135549
0.135475
0.135404
0.135336
0.135272
0.135211
0.135153
0.135098
0.135045
0.134995
0.134949
0.138726
0.138732
0.138717
0.138682
0.13863
0.138566
0.138491
0.138407
0.138315
0.138217
0.138114
0.138007
0.137897
0.137785
0.137672
0.137559
0.137446
0.137334
0.137224
0.137115
0.137008
0.136905
0.136808
0.136715
0.136626
0.13654
0.136458
0.13638
0.136305
0.136235
0.136167
0.136104
0.136043
0.135986
0.135932
0.135881
0.135832
0.135786
0.135743
0.135701
0.135664
0.138968
0.138976
0.138962
0.138931
0.138887
0.13883
0.138764
0.13869
0.138609
0.138523
0.138431
0.138336
0.138238
0.138139
0.138039
0.137938
0.137838
0.137739
0.137641
0.137545
0.137452
0.137361
0.137276
0.137195
0.137117
0.137042
0.136971
0.136903
0.136839
0.136778
0.13672
0.136666
0.136614
0.136566
0.13652
0.136477
0.136436
0.136398
0.136361
0.136327
0.136297
0.139187
0.139194
0.139183
0.139157
0.139119
0.139071
0.139014
0.13895
0.13888
0.138804
0.138723
0.138639
0.138552
0.138464
0.138375
0.138286
0.138198
0.13811
0.138024
0.137939
0.137857
0.137777
0.137703
0.137631
0.137563
0.137497
0.137435
0.137377
0.137321
0.137268
0.137219
0.137172
0.137128
0.137087
0.137048
0.137011
0.136977
0.136945
0.136915
0.136887
0.136862
0.139384
0.139392
0.139383
0.139362
0.139331
0.139292
0.139245
0.139191
0.13913
0.139064
0.138994
0.138921
0.138844
0.138767
0.138688
0.13861
0.138531
0.138454
0.138377
0.138303
0.138231
0.138161
0.138096
0.138033
0.137973
0.137916
0.137861
0.13781
0.137762
0.137716
0.137673
0.137633
0.137596
0.13756
0.137527
0.137496
0.137468
0.137441
0.137416
0.137392
0.137372
0.139561
0.139569
0.139563
0.139549
0.139526
0.139496
0.139459
0.139415
0.139364
0.139309
0.139249
0.139186
0.13912
0.139053
0.138984
0.138915
0.138846
0.138778
0.138711
0.138646
0.138582
0.138521
0.138464
0.138408
0.138356
0.138306
0.138258
0.138214
0.138172
0.138132
0.138095
0.138061
0.138028
0.137998
0.13797
0.137944
0.13792
0.137897
0.137877
0.137857
0.137841
0.139719
0.139727
0.139726
0.139718
0.139704
0.139684
0.139657
0.139624
0.139585
0.139542
0.139494
0.139442
0.139388
0.139332
0.139274
0.139215
0.139156
0.139097
0.139039
0.138982
0.138927
0.138874
0.138823
0.138775
0.138729
0.138686
0.138644
0.138606
0.138569
0.138535
0.138504
0.138475
0.138448
0.138423
0.1384
0.13838
0.138361
0.138345
0.13833
0.138317
0.138307
0.139855
0.139863
0.139866
0.139865
0.139859
0.139848
0.139832
0.139812
0.139787
0.139758
0.139725
0.13969
0.139651
0.13961
0.139568
0.139524
0.139479
0.139433
0.139389
0.139344
0.139302
0.139261
0.139221
0.139184
0.139147
0.139113
0.139081
0.139051
0.139023
0.138998
0.138976
0.138955
0.138937
0.138922
0.138908
0.138897
0.138888
0.13888
0.138875
0.138871
0.138869
0.139953
0.139959
0.139962
0.139963
0.139961
0.139956
0.139949
0.139939
0.139928
0.139914
0.139898
0.139881
0.139862
0.139841
0.139819
0.139796
0.139772
0.139748
0.139724
0.139699
0.139677
0.139653
0.13963
0.139608
0.139587
0.139566
0.139547
0.139529
0.139512
0.139497
0.139484
0.139472
0.139461
0.139452
0.139445
0.139438
0.139433
0.139429
0.139427
0.139425
0.139425
0.14
0.140005
0.140008
0.14001
0.14001
0.140008
0.140006
0.140002
0.139997
0.139991
0.139985
0.139977
0.139968
0.139958
0.139948
0.139937
0.139926
0.139914
0.139903
0.139891
0.13988
0.139868
0.139857
0.139847
0.139836
0.139826
0.139817
0.139808
0.1398
0.139792
0.139785
0.139779
0.139774
0.139769
0.139765
0.139761
0.139759
0.139757
0.139755
0.139754
0.139754
0.140025
0.140029
0.140032
0.140034
0.140036
0.140036
0.140037
0.140036
0.140036
0.140034
0.140032
0.140029
0.140026
0.140022
0.140018
0.140013
0.140008
0.140003
0.139998
0.139993
0.139988
0.139982
0.139977
0.139972
0.139968
0.139963
0.139959
0.139955
0.139951
0.139947
0.139944
0.139941
0.139938
0.139936
0.139934
0.139933
0.139932
0.139931
0.13993
0.13993
0.13993
0.140037
0.14004
0.140043
0.140045
0.140048
0.14005
0.140052
0.140054
0.140055
0.140056
0.140057
0.140057
0.140057
0.140057
0.140056
0.140056
0.140054
0.140053
0.140052
0.14005
0.140049
0.140047
0.140045
0.140044
0.140042
0.14004
0.140039
0.140037
0.140036
0.140035
0.140034
0.140032
0.140032
0.140031
0.14003
0.14003
0.14003
0.14003
0.14003
0.14003
0.14003
0.140039
0.140042
0.140044
0.140047
0.14005
0.140053
0.140056
0.140058
0.140061
0.140063
0.140066
0.140068
0.14007
0.140072
0.140074
0.140075
0.140077
0.140078
0.140079
0.14008
0.14008
0.140081
0.140082
0.140082
0.140082
0.140083
0.140083
0.140083
0.140084
0.140084
0.140084
0.140084
0.140084
0.140085
0.140085
0.140085
0.140085
0.140086
0.140086
0.140087
0.140087
0.140035
0.140037
0.140039
0.140041
0.140044
0.140047
0.14005
0.140053
0.140056
0.140059
0.140062
0.140065
0.140067
0.14007
0.140073
0.140075
0.140078
0.14008
0.140083
0.140085
0.140088
0.14009
0.140092
0.140094
0.140096
0.140097
0.140099
0.140101
0.140102
0.140103
0.140104
0.140106
0.140107
0.140108
0.140109
0.140109
0.14011
0.140111
0.140112
0.140113
0.140113
0.140024
0.140026
0.140027
0.140029
0.140031
0.140033
0.140036
0.140038
0.140041
0.140043
0.140045
0.140047
0.140049
0.140051
0.140052
0.140054
0.140055
0.140057
0.140058
0.14006
0.140062
0.140064
0.140067
0.140069
0.140072
0.140075
0.140078
0.140081
0.140083
0.140086
0.140089
0.140091
0.140093
0.140095
0.140097
0.140099
0.140101
0.140103
0.140104
0.140105
0.140107
0.140009
0.14001
0.14001
0.140011
0.140012
0.140013
0.140014
0.140015
0.140016
0.140017
0.140017
0.140018
0.140018
0.140017
0.140015
0.140013
0.140008
0.140001
0.13998
0.139968
0.139959
0.139952
0.139945
0.13994
0.139937
0.139934
0.139931
0.13993
0.139929
0.139929
0.139928
0.139929
0.139929
0.139929
0.13993
0.139931
0.139931
0.139932
0.139933
0.139934
0.139935
0.00280538
0.0035229
0.00420119
0.0054127
0.00710968
0.00910896
0.0113087
0.0136518
0.016106
0.0186544
0.0212797
0.0239741
0.0267336
0.0295492
0.0324116
0.0353176
0.0382611
0.0412349
0.0442318
0.047247
0.0502746
0.0533082
0.0563412
0.0593677
0.0623814
0.0653756
0.0683439
0.0712802
0.0741788
0.0770342
0.079841
0.082594
0.0852887
0.0879207
0.0904858
0.0929806
0.0954016
0.097746
0.100011
0.102196
0.104297
0.106315
0.108249
0.110097
0.111862
0.113543
0.115143
0.116666
0.118114
0.119489
0.120794
0.122031
0.123202
0.124309
0.125355
0.126342
0.127274
0.128152
0.12898
0.129762
0.130498
0.131194
0.13185
0.132469
0.133055
0.133608
0.134131
0.134627
0.135096
0.135542
0.135963
0.136373
0.136715
0.137289
0.00590765
0.0063615
0.00604424
0.00611168
0.00697827
0.00851916
0.0104808
0.0126917
0.0150654
0.0175609
0.0201512
0.0228217
0.0255646
0.0283695
0.0312246
0.03413
0.0370774
0.0400579
0.0430637
0.0460911
0.0491334
0.0521836
0.0552348
0.0582814
0.0613169
0.0643345
0.0673275
0.0702897
0.0732153
0.0760988
0.0789344
0.0817171
0.084442
0.0871046
0.0897009
0.0922271
0.0946796
0.0970557
0.0993526
0.101568
0.103701
0.10575
0.107713
0.109592
0.111386
0.113095
0.114723
0.116273
0.117746
0.119146
0.120474
0.121732
0.122923
0.12405
0.125113
0.126117
0.127064
0.127957
0.128799
0.129592
0.130341
0.131047
0.131713
0.132342
0.132935
0.133497
0.134027
0.134529
0.135005
0.135456
0.135882
0.136297
0.136643
0.137223
0.00904695
0.00998215
0.00945641
0.00861085
0.00825018
0.00873851
0.0100197
0.011848
0.0140086
0.0163782
0.0188911
0.0215122
0.0242229
0.0270086
0.0298546
0.0327565
0.0357058
0.0386922
0.0417073
0.0447491
0.0478094
0.0508799
0.0539532
0.0570245
0.0600869
0.0631332
0.0661563
0.06915
0.0721084
0.0750257
0.077896
0.0807142
0.0834751
0.0861743
0.0888074
0.0913705
0.0938602
0.0962733
0.098607
0.100859
0.103028
0.105112
0.107111
0.109024
0.110851
0.112593
0.114253
0.115833
0.117336
0.118763
0.120117
0.1214
0.122614
0.123761
0.124845
0.125868
0.126832
0.127741
0.128598
0.129406
0.130168
0.130886
0.131563
0.132202
0.132805
0.133375
0.133913
0.134423
0.134905
0.135363
0.135795
0.136216
0.136565
0.137152
0.0112353
0.0131338
0.0132104
0.0123264
0.0112598
0.0106094
0.0107268
0.0116625
0.013251
0.0152801
0.0175909
0.0200888
0.0227224
0.0254607
0.0282803
0.0311687
0.0341148
0.0371068
0.0401341
0.0431919
0.0462721
0.0493654
0.0524642
0.055565
0.0586599
0.0617408
0.0648
0.0678316
0.0708295
0.0737876
0.0766998
0.0795603
0.0823643
0.0851069
0.0877838
0.0903908
0.0929242
0.0953808
0.0977579
0.100053
0.102264
0.10439
0.106429
0.108381
0.110247
0.112028
0.113724
0.115339
0.116875
0.118333
0.119717
0.121027
0.122267
0.12344
0.124546
0.12559
0.126575
0.127503
0.128377
0.129201
0.129977
0.130708
0.131398
0.132048
0.132662
0.133242
0.133789
0.134307
0.134797
0.135261
0.1357
0.136127
0.136481
0.137075
0.0126491
0.0154719
0.0164015
0.0160875
0.0151348
0.0140308
0.0132056
0.0129881
0.0135245
0.0147676
0.0165589
0.0187315
0.0211626
0.0237749
0.0265182
0.0293619
0.0322853
0.0352713
0.038305
0.0413774
0.0444793
0.0476004
0.0507316
0.0538674
0.0570002
0.0601213
0.063223
0.0662996
0.0693448
0.0723517
0.0753137
0.078225
0.0810804
0.0838749
0.0866038
0.0892628
0.0918482
0.0943563
0.0967844
0.0991297
0.10139
0.103565
0.105651
0.10765
0.109562
0.111386
0.113125
0.11478
0.116354
0.117848
0.119266
0.120608
0.121878
0.123079
0.124212
0.12528
0.126288
0.127237
0.12813
0.128972
0.129765
0.130512
0.131216
0.131879
0.132505
0.133095
0.133653
0.13418
0.134679
0.135151
0.135596
0.13603
0.136389
0.136991
0.0141067
0.0170499
0.0186549
0.0190619
0.0187307
0.0179195
0.0169138
0.0160257
0.0155471
0.0156832
0.0165016
0.0179394
0.019866
0.0221483
0.0246815
0.027394
0.0302386
0.0331822
0.0361997
0.039274
0.0423911
0.0455382
0.0487038
0.0518796
0.0550573
0.0582275
0.0613817
0.0645129
0.0676144
0.070679
0.0737001
0.0766715
0.0795879
0.0824441
0.085235
0.087956
0.090603
0.0931723
0.0956608
0.0980657
0.100385
0.102617
0.104759
0.106813
0.108777
0.110652
0.11244
0.114142
0.115761
0.117297
0.118754
0.120134
0.121439
0.122672
0.123835
0.124932
0.125965
0.126939
0.127855
0.128718
0.129529
0.130294
0.131014
0.131692
0.132331
0.132934
0.133503
0.134041
0.134549
0.13503
0.135483
0.135924
0.13629
0.136901
0.0170795
0.0183335
0.0200637
0.0208993
0.0213008
0.0211683
0.0206173
0.0198219
0.018994
0.0183717
0.0181751
0.0185522
0.0195464
0.0211056
0.0231244
0.0254901
0.0281089
0.0309115
0.0338474
0.0368811
0.0399869
0.0431445
0.0463369
0.0495512
0.0527762
0.0560012
0.0592159
0.0624117
0.0655808
0.0687156
0.0718086
0.074853
0.0778431
0.0807731
0.0836378
0.0864325
0.0891528
0.0917948
0.0943552
0.0968309
0.0992195
0.101519
0.103728
0.105846
0.107873
0.109808
0.111654
0.11341
0.115081
0.116666
0.118169
0.119592
0.120938
0.122209
0.123408
0.124537
0.125601
0.126603
0.127545
0.128432
0.129266
0.13005
0.130789
0.131484
0.132139
0.132756
0.133338
0.133887
0.134406
0.134897
0.135359
0.135809
0.136181
0.136802
0.0187092
0.0202847
0.0214376
0.0218505
0.0227334
0.0231825
0.0233025
0.0230897
0.0225974
0.0219565
0.0213426
0.0209503
0.0209589
0.0214919
0.0225913
0.0242213
0.0262983
0.0287247
0.0314123
0.0342908
0.0373079
0.0404248
0.0436116
0.0468454
0.0501086
0.053386
0.0566641
0.0599314
0.0631779
0.0663946
0.0695729
0.0727049
0.0757838
0.0788033
0.0817577
0.0846416
0.0874504
0.0901798
0.0928262
0.0953865
0.097858
0.100238
0.102526
0.104721
0.106821
0.108828
0.110741
0.112563
0.114294
0.115938
0.117495
0.11897
0.120363
0.121679
0.122919
0.124088
0.125188
0.126222
0.127195
0.128109
0.128969
0.129777
0.130537
0.131251
0.131924
0.132557
0.133154
0.133717
0.134248
0.134751
0.135223
0.135682
0.136062
0.136694
0.0192469
0.0210496
0.0225314
0.0234534
0.0240383
0.0242283
0.0247492
0.0251039
0.0251901
0.025039
0.0246944
0.0242483
0.0238426
0.0236423
0.0238027
0.0244369
0.0255936
0.0272564
0.0293613
0.0318239
0.0345606
0.0375007
0.0405876
0.0437781
0.0470391
0.0503448
0.053674
0.0570094
0.0603366
0.0636431
0.0669181
0.0701517
0.0733354
0.0764617
0.0795238
0.0825155
0.0854315
0.0882669
0.0910177
0.0936803
0.0962517
0.0987296
0.101112
0.103398
0.105587
0.107678
0.109673
0.111572
0.113376
0.115089
0.116712
0.118247
0.119698
0.121067
0.122356
0.123571
0.124713
0.125787
0.126795
0.127743
0.128632
0.129468
0.130252
0.13099
0.131683
0.132335
0.13295
0.133528
0.134074
0.134589
0.135073
0.135543
0.135932
0.136577
0.0193686
0.0209423
0.0225545
0.0240048
0.0251559
0.0258778
0.0263034
0.0264561
0.0266464
0.026909
0.0270423
0.0270024
0.0268284
0.0265883
0.0263863
0.0263571
0.0266387
0.0273409
0.028523
0.0301879
0.0322921
0.034765
0.0375291
0.0405127
0.0436557
0.0469103
0.0502385
0.0536103
0.0570014
0.0603924
0.0637668
0.0671109
0.0704129
0.0736625
0.0768512
0.0799711
0.0830157
0.0859792
0.0888565
0.0916434
0.0943364
0.0969326
0.09943
0.101827
0.104122
0.106316
0.108409
0.110401
0.112294
0.11409
0.115791
0.1174
0.11892
0.120352
0.121702
0.122971
0.124164
0.125284
0.126336
0.127322
0.128248
0.129115
0.12993
0.130694
0.131412
0.132086
0.13272
0.133317
0.133879
0.134409
0.134907
0.135389
0.135789
0.136448
0.0199827
0.0210821
0.0223391
0.0237026
0.0250901
0.0263718
0.0274301
0.0281614
0.0285836
0.0287725
0.0287311
0.028766
0.0288923
0.0289713
0.0289601
0.0289053
0.0288898
0.0290187
0.0294082
0.0301628
0.0313513
0.0329959
0.0350738
0.0375308
0.0402977
0.0433042
0.0464873
0.0497939
0.0531809
0.0566134
0.0600636
0.0635088
0.0669303
0.0703127
0.073643
0.0769105
0.080106
0.0832216
0.0862508
0.0891881
0.0920289
0.0947695
0.0974071
0.0999397
0.102366
0.104685
0.106897
0.109003
0.111004
0.112902
0.114699
0.116397
0.118
0.119511
0.120932
0.122268
0.123523
0.124699
0.125802
0.126836
0.127804
0.128711
0.129561
0.130357
0.131103
0.131804
0.132462
0.13308
0.133661
0.134209
0.134722
0.135219
0.13563
0.136306
0.022026
0.0227084
0.0235092
0.0244046
0.0253984
0.0264857
0.0276306
0.0287548
0.0297567
0.0305449
0.0310406
0.0312701
0.0312983
0.0311404
0.0310082
0.0310223
0.031095
0.0311764
0.0313079
0.0315701
0.0320565
0.0328581
0.0340464
0.0356581
0.0376907
0.040108
0.0428527
0.0458592
0.0490631
0.0524071
0.0558429
0.0593303
0.0628369
0.0663361
0.0698064
0.0732301
0.0765928
0.0798825
0.0830894
0.0862055
0.0892241
0.0921399
0.0949487
0.0976476
0.100234
0.102708
0.105067
0.107313
0.109447
0.111471
0.113385
0.115194
0.1169
0.118507
0.120017
0.121435
0.122765
0.12401
0.125177
0.126267
0.127288
0.128242
0.129134
0.129969
0.13075
0.131482
0.132168
0.132811
0.133415
0.133983
0.134516
0.135029
0.135454
0.13615
0.0263765
0.0267283
0.0271659
0.0276452
0.0281634
0.028734
0.0293762
0.0301042
0.0309127
0.031767
0.0326005
0.0333301
0.0338808
0.0341871
0.0342495
0.0341255
0.0338551
0.0335306
0.033417
0.0334785
0.0336662
0.034003
0.0345524
0.0353872
0.036571
0.0381457
0.0401228
0.0424832
0.0451839
0.048167
0.0513707
0.0547353
0.0582078
0.0617429
0.0653028
0.0688564
0.0723786
0.0758487
0.07925
0.082569
0.0857948
0.0889188
0.091934
0.0948355
0.0976193
0.100283
0.102825
0.105246
0.107545
0.109725
0.111787
0.113733
0.115568
0.117294
0.118914
0.120434
0.121858
0.123189
0.124433
0.125595
0.12668
0.127692
0.128637
0.129519
0.130342
0.131112
0.131832
0.132505
0.133137
0.133729
0.134283
0.134817
0.135258
0.135976
0.0333285
0.0334137
0.0335656
0.033731
0.0338975
0.0340653
0.0342423
0.034444
0.0346914
0.0350066
0.0354039
0.0358791
0.0364042
0.0369264
0.0373756
0.0376833
0.0377925
0.0376718
0.0373722
0.0369585
0.0364498
0.0361647
0.0361646
0.0364241
0.0369411
0.0377523
0.0389031
0.0404284
0.0423427
0.0446365
0.0472781
0.0502194
0.0534033
0.0567709
0.0602665
0.0638403
0.0674495
0.071058
0.0746358
0.0781586
0.0816067
0.0849643
0.0882189
0.0913608
0.0943827
0.0972794
0.100047
0.102685
0.105191
0.107567
0.109814
0.111934
0.11393
0.115807
0.117567
0.119215
0.120757
0.122196
0.123539
0.12479
0.125955
0.127039
0.128049
0.128989
0.129865
0.130681
0.131443
0.132154
0.132818
0.13344
0.13402
0.134578
0.135039
0.135783
0.042455
0.0423393
0.0422743
0.0422102
0.0421335
0.0420395
0.0419267
0.0417968
0.0416556
0.0415149
0.041392
0.0413089
0.041287
0.0413411
0.0414711
0.0416569
0.0418576
0.042014
0.0420607
0.041946
0.0416203
0.0411185
0.0405136
0.0398689
0.0393499
0.0392031
0.0394497
0.040077
0.0410924
0.0425088
0.0443296
0.0465412
0.0491134
0.0520017
0.0551528
0.0585098
0.0620163
0.0656198
0.0692733
0.072936
0.076573
0.0801555
0.0836598
0.0870669
0.0903622
0.0935344
0.0965752
0.0994791
0.102243
0.104865
0.107345
0.109686
0.111888
0.113957
0.115895
0.117708
0.1194
0.120977
0.122445
0.12381
0.125077
0.126254
0.127346
0.12836
0.129301
0.130175
0.130988
0.131745
0.13245
0.133108
0.133721
0.134306
0.134791
0.135568
0.0530244
0.0527688
0.0525509
0.0523282
0.0520896
0.0518304
0.0515472
0.0512373
0.0508986
0.0505309
0.0501365
0.0497218
0.0492983
0.0488827
0.0484954
0.0481572
0.0478839
0.0476805
0.0475342
0.047414
0.0472707
0.0470435
0.0466792