/*--------------------------------*- C++ -*----------------------------------*\
| =========                 |                                                 |
| \\      /  F ield         | OpenFOAM: The Open Source CFD Toolbox           |
|  \\    /   O peration     | Version:  5.x                                   |
|   \\  /    A nd           | Web:      www.OpenFOAM.org                      |
|    \\/     M anipulation  |                                                 |
\*---------------------------------------------------------------------------*/
FoamFile
{
    version     2.0;
    format      ascii;
    class       volScalarField;
    location    "1000";
    object      p;
}
// * * * * * * * * * * * * * * * * * * * * * * * * * * * * * * * * * * * * * //

dimensions      [0 2 -2 0 0 0 0];

internalField   nonuniform List<scalar> 
11040
(
-0.00148263
-93.5301
-334.01
-377.794
-376.368
-369.505
-353.421
-326.889
-293.33
-254.187
-209.578
-151.572
-97.3949
-56.1141
-23.6984
9.15945
41.1676
70.3332
95.7499
116.138
130.118
136.892
140.052
141.998
143.368
144.404
145.184
145.738
146.103
146.306
146.367
146.3
146.128
145.909
145.813
146.205
147.35
149.183
152.937
159.34
155.029
52.5078
-41.1085
-191.781
-257.534
-281.959
-296.509
-299.918
-290.006
-269.152
-239.496
-202.166
-151.075
-99.8851
-58.5939
-25.6004
7.25473
39.3136
68.7198
94.4918
115.329
129.752
136.77
140.002
141.966
143.339
144.384
145.175
145.741
146.116
146.328
146.398
146.337
146.166
145.938
145.814
146.158
147.244
148.991
152.52
158.573
151.965
88.1731
-6.10254
-112.546
-196.958
-238.486
-260.068
-268.402
-263.424
-247.349
-222.407
-190.1
-145.95
-98.6783
-58.2425
-25.4235
6.647
38.2291
67.5206
93.3912
114.536
129.37
136.696
140.032
141.995
143.349
144.386
145.18
145.751
146.135
146.355
146.432
146.378
146.212
145.981
145.833
146.117
147.121
148.776
152.082
157.992
149.918
114.911
30.1558
-48.5998
-127.211
-176.066
-205.611
-222.701
-226.735
-218.611
-200.522
-174.393
-137.525
-95.2651
-56.6654
-24.3736
6.6715
37.4801
66.4278
92.2548
113.639
128.896
136.619
140.123
142.09
143.414
144.428
145.209
145.779
146.166
146.392
146.476
146.43
146.268
146.03
145.854
146.06
146.946
148.462
151.485
157.157
148.874
137.023
64.3225
3.26841
-64.7048
-116.737
-152.271
-175.792
-187.149
-186.451
-175.319
-155.697
-126.235
-89.891
-54.087
-22.7366
7.08595
36.7759
65.075
90.6654
112.23
128.003
136.325
140.177
142.23
143.543
144.521
145.274
145.833
146.216
146.443
146.534
146.496
146.338
146.094
145.88
145.991
146.721
148.051
150.744
155.937
148.482
154.779
94.3251
45.5133
-11.2238
-60.9712
-98.9238
-126.735
-144.06
-150.293
-146.232
-133.472
-111.511
-81.7428
-49.7617
-20.0788
8.19241
36.3745
63.6356
88.6763
110.225
126.506
135.632
140.084
142.375
143.732
144.681
145.396
145.927
146.293
146.514
146.608
146.578
146.426
146.175
145.919
145.917
146.456
147.557
149.894
154.387
148.493
169.033
119.683
79.9195
33.3325
-10.9352
-47.9381
-77.4912
-98.7842
-110.669
-113.173
-107.27
-92.8018
-70.1208
-43.0409
-15.9881
10.2803
36.5648
62.3598
86.459
107.664
124.293
134.315
139.634
142.421
143.962
144.925
145.596
146.082
146.417
146.62
146.707
146.681
146.535
146.277
145.978
145.852
146.172
147.015
148.979
152.653
148.745
180.436
140.468
107.795
69.8323
32.1551
-1.59429
-30.5413
-53.5909
-69.293
-77.1214
-77.4118
-69.9881
-54.5118
-33.2234
-9.87066
13.7625
37.7195
61.5965
84.3132
104.745
121.399
132.169
138.475
142.09
144.11
145.246
145.911
146.334
146.614
146.781
146.848
146.818
146.674
146.41
146.068
145.816
145.906
146.483
148.074
150.958
149.059
189.482
157.141
130.192
99.3503
68.1152
38.8045
12.2425
-10.5402
-28.0839
-39.5554
-44.8067
-43.4879
-34.7971
-19.7294
-1.02653
19.1954
40.3093
61.8061
82.6981
101.911
118.163
129.29
136.373
140.967
143.806
145.462
146.343
146.765
146.954
147.037
147.059
147.007
146.857
146.588
146.212
145.847
145.717
146.041
147.281
149.55
149.361
196.561
170.309
148.03
122.998
97.4866
72.8708
49.6584
28.6356
11.0181
-2.29482
-10.9044
-14.3147
-11.4542
-2.42972
11.0696
27.1598
44.8572
63.4869
82.1125
99.6938
115.115
126.163
133.605
138.94
142.629
145.069
146.549
147.306
147.571
147.557
147.436
147.291
147.109
146.834
146.439
145.998
145.698
145.802
146.733
148.605
149.672
202.008
180.59
162.133
141.808
121.127
100.882
81.288
62.8597
46.4633
32.8762
22.5569
16.0285
14.4301
18.1969
26.5282
38.0784
51.8753
67.1652
83.0684
98.5993
112.76
123.376
130.83
136.505
140.723
143.8
145.973
147.381
148.133
148.371
148.263
147.968
147.602
147.213
146.784
146.321
145.938
145.898
146.609
148.25
150.079
206.122
188.55
173.225
156.694
139.979
123.525
107.365
91.783
77.3368
64.5906
53.947
45.852
41.3379
41.0774
44.8823
51.9886
61.6901
73.3174
86.0982
99.1551
111.601
121.428
128.638
134.356
138.783
142.163
144.738
146.663
148.009
148.816
149.144
149.091
148.77
148.272
147.667
147.052
146.572
146.455
147.049
148.629
150.83
209.173
194.676
181.924
168.446
154.934
141.637
128.491
115.623
103.374
92.0979
82.0849
73.6632
67.659
64.7579
65.1032
68.3829
74.2267
82.1751
91.6326
101.889
112.196
120.828
127.491
133
137.437
140.929
143.657
145.787
147.438
148.67
149.507
149.964
150.076
149.905
149.521
149.033
148.551
148.291
148.634
150.029
152.177
211.392
199.375
188.744
177.721
166.78
156.05
145.431
134.958
124.828
115.242
106.376
98.4475
92.054
87.7695
85.8548
86.2665
88.9023
93.5362
99.7878
107.152
115.052
122.121
127.893
132.892
137.11
140.578
143.373
145.603
147.372
148.771
149.867
150.697
151.278
151.627
151.765
151.787
151.818
152.022
152.617
154.085
155.822
212.971
202.973
194.096
185.055
176.17
167.504
158.948
150.49
142.236
134.299
126.761
119.752
113.677
108.96
105.854
104.432
104.742
106.735
110.225
114.909
120.396
125.706
130.316
134.512
138.24
141.47
144.209
146.492
148.374
149.917
151.184
152.236
153.127
153.902
154.591
155.253
155.962
156.838
157.968
159.901
161.546
214.079
205.742
198.322
190.881
183.641
176.624
169.727
162.918
156.248
149.777
143.535
137.587
132.197
127.653
124.151
121.786
120.661
120.821
122.213
124.694
128.038
131.626
134.973
138.196
141.219
143.99
146.477
148.674
150.597
152.273
153.738
155.033
156.209
157.322
158.43
159.601
160.894
162.409
164.152
166.536
168.667
214.894
207.931
201.723
195.58
189.657
183.956
178.381
172.894
167.519
162.283
157.19
152.266
147.68
143.618
140.211
137.541
135.708
134.787
134.794
135.686
137.358
139.479
141.654
143.898
146.142
148.327
150.407
152.357
154.172
155.859
157.434
158.919
160.345
161.75
163.179
164.684
166.318
168.163
170.252
172.776
175.443
215.452
209.575
204.321
199.178
194.263
189.56
184.985
180.502
176.12
171.85
167.688
163.638
159.806
156.314
153.245
150.657
148.629
147.232
146.505
146.451
147.034
148.11
149.384
150.826
152.379
153.996
155.63
157.252
158.845
160.406
161.938
163.45
164.959
166.486
168.059
169.705
171.455
173.352
175.428
177.734
180.265
215.81
210.771
206.256
201.877
197.724
193.772
189.948
186.217
182.581
179.043
175.596
172.235
169.029
166.059
163.381
161.03
159.067
157.546
156.509
155.976
155.943
156.368
157.04
157.912
158.945
160.102
161.345
162.645
163.985
165.354
166.75
168.172
169.627
171.125
172.679
174.302
176.004
177.806
179.719
181.746
183.906
216.056
211.681
207.753
203.971
200.409
197.035
193.785
190.629
187.563
184.588
181.693
178.874
176.175
173.652
171.341
169.267
167.472
165.998
164.88
164.142
163.793
163.844
164.14
164.635
165.304
166.12
167.051
168.076
169.176
170.34
171.56
172.833
174.158
175.535
176.97
178.466
180.023
181.649
183.345
185.107
186.937
216.237
212.4
208.949
205.647
202.555
199.64
196.843
194.139
191.522
188.989
186.532
184.144
181.856
179.707
177.722
175.918
174.323
172.971
171.888
171.097
170.611
170.464
170.539
170.797
171.223
171.796
172.492
173.294
174.186
175.157
176.198
177.302
178.465
179.683
180.957
182.283
183.659
185.085
186.559
188.073
189.625
216.38
212.988
209.932
207.024
204.315
201.771
199.34
196.999
194.742
192.565
190.46
188.42
186.468
184.631
182.928
181.368
179.974
178.769
177.775
177.011
176.489
176.251
176.205
176.321
176.59
176.996
177.52
178.149
178.87
179.672
180.546
181.486
182.484
183.535
184.637
185.784
186.971
188.196
189.455
190.741
192.049
216.5
213.482
210.757
208.178
205.786
203.548
201.418
199.375
197.413
195.527
193.709
191.955
190.28
188.705
187.241
185.897
184.689
183.634
182.749
182.048
181.544
181.277
181.173
181.208
181.378
181.671
182.073
182.57
183.154
183.814
184.543
185.334
186.179
187.072
188.01
188.986
189.995
191.034
192.097
193.179
194.274
216.605
213.904
211.463
209.161
207.036
205.055
203.175
201.38
199.663
198.018
196.44
194.922
193.478
192.122
190.863
189.706
188.664
187.75
186.975
186.354
185.893
185.631
185.505
185.498
185.609
185.826
186.139
186.538
187.013
187.558
188.165
188.826
189.535
190.288
191.078
191.901
192.75
193.623
194.515
195.42
196.332
216.702
214.272
212.074
210.01
208.112
206.347
204.68
203.094
201.582
200.141
198.763
197.444
196.194
195.022
193.937
192.943
192.046
191.259
190.59
190.049
189.643
189.402
189.275
189.25
189.325
189.492
189.741
190.065
190.455
190.906
191.411
191.963
192.557
193.188
193.85
194.539
195.25
195.98
196.725
197.479
198.238
216.792
214.598
212.61
210.75
209.047
207.468
205.982
204.574
203.238
201.968
200.76
199.609
198.523
197.509
196.573
195.717
194.947
194.272
193.699
193.234
192.883
192.672
192.555
192.524
192.578
192.711
192.915
193.181
193.505
193.88
194.301
194.763
195.26
195.787
196.341
196.917
197.51
198.119
198.739
199.367
199.997
216.878
214.888
213.083
211.401
209.866
208.448
207.118
205.863
204.677
203.555
202.492
201.485
200.538
199.659
198.849
198.112
197.453
196.876
196.387
195.992
195.694
195.513
195.411
195.381
195.424
195.534
195.702
195.925
196.196
196.51
196.863
197.249
197.665
198.106
198.569
199.05
199.545
200.053
200.569
201.091
201.614
216.96
215.149
213.505
211.978
210.589
209.311
208.116
206.993
205.937
204.942
204.004
203.12
202.293
201.529
200.828
200.194
199.628
199.137
198.722
198.388
198.138
197.987
197.901
197.875
197.912
198.005
198.148
198.336
198.565
198.829
199.126
199.45
199.799
200.168
200.556
200.958
201.371
201.795
202.225
202.66
203.094
217.039
215.384
213.882
212.491
211.23
210.074
208.997
207.989
207.046
206.161
205.332
204.554
203.83
203.165
202.558
202.012
201.528
201.109
200.758
200.478
200.27
200.146
200.075
200.056
200.09
200.171
200.294
200.454
200.648
200.872
201.122
201.396
201.689
201.999
202.324
202.66
203.006
203.36
203.719
204.082
204.443
217.116
215.598
214.221
212.95
211.801
210.752
209.778
208.872
208.026
207.238
206.503
205.817
205.183
204.603
204.077
203.607
203.192
202.836
202.541
202.306
202.135
202.035
201.978
201.965
201.997
202.069
202.176
202.314
202.479
202.67
202.882
203.114
203.361
203.622
203.895
204.177
204.467
204.763
205.063
205.367
205.668
217.189
215.793
214.526
213.361
212.311
211.355
210.473
209.655
208.896
208.192
207.539
206.934
206.377
205.871
205.416
205.01
204.656
204.354
204.105
203.911
203.77
203.691
203.647
203.64
203.67
203.735
203.829
203.948
204.09
204.253
204.434
204.63
204.839
205.06
205.29
205.527
205.77
206.019
206.27
206.525
206.777
217.259
215.971
214.801
213.729
212.767
211.894
211.092
210.352
209.669
209.039
208.458
207.923
207.435
206.993
206.598
206.249
205.947
205.691
205.483
205.321
205.207
205.145
205.112
205.11
205.14
205.199
205.281
205.385
205.508
205.648
205.803
205.969
206.147
206.333
206.528
206.728
206.932
207.141
207.352
207.566
207.777
217.326
216.132
215.049
214.06
213.175
212.376
211.645
210.974
210.358
209.793
209.276
208.803
208.373
207.988
207.646
207.345
207.087
206.871
206.697
206.565
206.473
206.425
206.401
206.404
206.433
206.486
206.56
206.651
206.757
206.878
207.01
207.152
207.303
207.462
207.626
207.795
207.967
208.143
208.321
208.501
208.678
217.389
216.28
215.273
214.357
213.541
212.806
212.138
211.528
210.972
210.465
210.003
209.584
209.207
208.87
208.574
208.316
208.097
207.915
207.77
207.661
207.588
207.553
207.537
207.543
207.572
207.62
207.686
207.766
207.859
207.963
208.076
208.198
208.327
208.461
208.6
208.743
208.889
209.038
209.188
209.339
209.488
217.449
216.413
215.474
214.623
213.867
213.19
212.578
212.022
211.518
211.063
210.651
210.28
209.948
209.655
209.398
209.177
208.991
208.838
208.718
208.63
208.573
208.547
208.538
208.547
208.575
208.62
208.678
208.749
208.83
208.92
209.017
209.122
209.232
209.346
209.465
209.586
209.709
209.835
209.961
210.089
210.215
217.505
216.534
215.655
214.86
214.158
213.532
212.969
212.462
212.005
211.595
211.227
210.898
210.606
210.351
210.13
209.941
209.783
209.656
209.557
209.486
209.442
209.425
209.421
209.432
209.46
209.501
209.554
209.616
209.687
209.765
209.849
209.939
210.033
210.131
210.231
210.334
210.439
210.545
210.652
210.76
210.866
217.557
216.643
215.816
215.072
214.417
213.836
213.316
212.852
212.437
212.067
211.738
211.447
211.191
210.969
210.778
210.617
210.485
210.379
210.299
210.243
210.21
210.2
210.2
210.213
210.24
210.278
210.325
210.38
210.443
210.511
210.584
210.661
210.741
210.825
210.91
210.998
211.087
211.177
211.267
211.358
211.448
217.605
216.74
215.959
215.258
214.645
214.104
213.623
213.196
212.819
212.485
212.191
211.933
211.708
211.516
211.352
211.216
211.105
211.018
210.954
210.911
210.887
210.883
210.887
210.901
210.928
210.963
211.006
211.055
211.11
211.169
211.233
211.299
211.368
211.44
211.513
211.587
211.663
211.739
211.815
211.892
211.968
217.649
216.826
216.084
215.422
214.844
214.338
213.892
213.499
213.154
212.853
212.59
212.361
212.165
211.999
211.859
211.745
211.653
211.582
211.531
211.499
211.483
211.484
211.491
211.507
211.532
211.565
211.604
211.648
211.696
211.748
211.803
211.861
211.92
211.981
212.044
212.107
212.171
212.236
212.3
212.366
212.429
217.689
216.901
216.192
215.563
215.017
214.541
214.125
213.763
213.447
213.174
212.939
212.737
212.566
212.423
212.305
212.209
212.134
212.078
212.04
212.017
212.008
212.012
212.022
212.04
212.065
212.096
212.131
212.171
212.214
212.26
212.308
212.358
212.409
212.462
212.515
212.569
212.623
212.678
212.733
212.788
212.841
217.724
216.965
216.285
215.684
215.164
214.715
214.325
213.989
213.7
213.453
213.242
213.064
212.916
212.793
212.694
212.615
212.555
212.512
212.483
212.468
212.465
212.473
212.486
212.504
212.528
212.557
212.59
212.626
212.664
212.705
212.747
212.79
212.835
212.88
212.925
212.971
213.017
213.064
213.11
213.156
213.201
217.755
217.019
216.362
215.784
215.287
214.86
214.493
214.18
213.914
213.69
213.502
213.346
213.217
213.113
213.031
212.968
212.921
212.89
212.871
212.863
212.866
212.878
212.893
212.912
212.937
212.965
212.996
213.029
213.064
213.1
213.137
213.175
213.214
213.253
213.292
213.331
213.37
213.409
213.448
213.487
213.525
217.78
217.061
216.422
215.863
215.384
214.977
214.63
214.338
214.092
213.889
213.72
213.583
213.473
213.386
213.319
213.269
213.234
213.212
213.201
213.2
213.207
213.222
213.238
213.259
213.283
213.31
213.339
213.369
213.4
213.433
213.466
213.499
213.533
213.567
213.601
213.634
213.668
213.701
213.734
213.767
213.798
217.801
217.094
216.467
215.922
215.458
215.066
214.736
214.461
214.234
214.049
213.899
213.779
213.686
213.615
213.562
213.526
213.503
213.491
213.489
213.495
213.508
213.526
213.546
213.568
213.594
213.621
213.649
213.678
213.707
213.737
213.767
213.797
213.827
213.856
213.886
213.914
213.943
213.971
213.998
214.026
214.052
217.818
217.117
216.499
215.963
215.51
215.129
214.813
214.553
214.342
214.172
214.038
213.935
213.856
213.799
213.759
213.733
213.719
213.715
213.719
213.729
213.745
213.766
213.787
213.81
213.835
213.862
213.888
213.916
213.943
213.97
213.998
214.024
214.051
214.077
214.103
214.128
214.152
214.177
214.2
214.224
214.246
217.83
217.13
216.515
215.986
215.54
215.169
214.863
214.615
214.417
214.261
214.141
214.052
213.988
213.945
213.919
213.907
213.906
213.914
213.927
213.946
213.969
213.995
214.02
214.047
214.075
214.102
214.13
214.157
214.184
214.21
214.236
214.261
214.285
214.308
214.331
214.353
214.374
214.394
214.414
214.433
214.451
217.834
217.125
216.505
215.975
215.532
215.167
214.872
214.635
214.45
214.308
214.202
214.126
214.073
214.04
214.023
214.018
214.023
214.036
214.054
214.076
214.101
214.128
214.155
214.183
214.211
214.238
214.265
214.292
214.318
214.343
214.367
214.39
214.412
214.433
214.454
214.474
214.492
214.51
214.528
214.544
214.561
217.831
217.104
216.472
215.935
215.489
215.126
214.836
214.609
214.435
214.307
214.217
214.158
214.124
214.112
214.115
214.131
214.156
214.186
214.219
214.252
214.287
214.321
214.355
214.388
214.42
214.45
214.479
214.507
214.533
214.558
214.581
214.603
214.624
214.644
214.662
214.679
214.696
214.711
214.726
214.739
214.753
160.774
165.472
171.699
176.656
181.816
187.24
192.447
197.249
201.571
205.371
208.647
211.428
213.754
215.674
217.237
218.492
219.483
220.252
220.838
221.272
221.582
221.793
221.924
221.991
222.009
221.989
221.939
221.868
221.78
221.681
221.575
221.464
221.352
221.239
221.128
221.02
220.915
220.814
220.718
220.625
220.538
220.455
220.376
220.301
220.23
220.163
220.1
220.04
219.984
219.931
219.881
219.833
219.789
219.746
219.707
219.669
219.633
219.6
219.568
219.538
219.509
219.482
219.457
219.433
219.411
219.39
219.371
219.353
219.337
219.325
219.311
219.307
219.291
219.312
157.103
163.411
170.005
175.532
181.077
186.73
192.107
197.039
201.457
205.325
208.648
211.458
213.802
215.731
217.297
218.549
219.536
220.3
220.879
221.306
221.609
221.814
221.939
222.002
222.015
221.991
221.938
221.864
221.774
221.673
221.565
221.453
221.339
221.226
221.114
221.006
220.901
220.8
220.703
220.611
220.524
220.441
220.362
220.287
220.217
220.151
220.088
220.028
219.972
219.92
219.87
219.823
219.778
219.736
219.697
219.659
219.624
219.591
219.559
219.529
219.501
219.475
219.449
219.426
219.404
219.383
219.364
219.347
219.332
219.319
219.306
219.302
219.286
219.308
153.822
160.174
167.574
174.037
180.139
186.113
191.713
196.805
201.335
205.283
208.66
211.504
213.866
215.804
217.371
218.62
219.601
220.357
220.928
221.346
221.642
221.839
221.957
222.014
222.022
221.994
221.937
221.859
221.767
221.664
221.554
221.44
221.325
221.211
221.099
220.99
220.885
220.784
220.687
220.595
220.508
220.425
220.347
220.273
220.203
220.136
220.074
220.015
219.959
219.907
219.858
219.811
219.767
219.725
219.686
219.649
219.614
219.581
219.55
219.52
219.493
219.466
219.442
219.418
219.397
219.376
219.358
219.341
219.326
219.313
219.301
219.297
219.282
219.303
151.107
156.932
164.72
172.122
178.94
185.352
191.247
196.544
201.213
205.253
208.69
211.57
213.953
215.899
217.466
218.71
219.682
220.428
220.988
221.396
221.681
221.869
221.979
222.029
222.031
221.997
221.936
221.854
221.758
221.653
221.541
221.426
221.31
221.195
221.082
220.972
220.867
220.766
220.669
220.578
220.491
220.408
220.33
220.256
220.187
220.121
220.059
220.001
219.945
219.893
219.844
219.798
219.755
219.714
219.675
219.638
219.603
219.571
219.54
219.511
219.483
219.457
219.433
219.41
219.389
219.369
219.351
219.334
219.319
219.307
219.295
219.292
219.276
219.299
149.468
154.497
161.975
169.921
177.453
184.412
190.686
196.244
201.091
205.244
208.75
211.67
214.072
216.024
217.588
218.823
219.783
220.516
221.062
221.456
221.729
221.906
222.006
222.047
222.041
222.001
221.934
221.849
221.749
221.641
221.526
221.409
221.292
221.176
221.063
220.953
220.847
220.746
220.649
220.558
220.471
220.389
220.312
220.238
220.169
220.104
220.043
219.985
219.93
219.879
219.83
219.784
219.741
219.701
219.662
219.626
219.592
219.56
219.529
219.501
219.474
219.448
219.424
219.401
219.38
219.361
219.343
219.327
219.312
219.301
219.289
219.286
219.271
219.293
148.736
152.963
159.804
167.807
175.803
183.291
190.014
195.892
200.957
205.259
208.853
211.817
214.236
216.19
217.747
218.968
219.911
220.625
221.153
221.531
221.788
221.95
222.038
222.068
222.054
222.006
221.933
221.842
221.739
221.627
221.51
221.391
221.272
221.155
221.04
220.93
220.824
220.723
220.627
220.536
220.45
220.368
220.291
220.218
220.15
220.085
220.024
219.967
219.913
219.862
219.814
219.769
219.727
219.687
219.649
219.613
219.579
219.548
219.518
219.49
219.463
219.438
219.414
219.392
219.371
219.352
219.335
219.319
219.305
219.294
219.282
219.28
219.265
219.288
148.719
152.335
158.522
166.201
174.295
182.117
189.25
195.487
200.809
205.285
208.994
212.021
214.463
216.415
217.955
219.155
220.074
220.763
221.268
221.623
221.86
222.005
222.078
222.095
222.07
222.013
221.932
221.835
221.726
221.61
221.49
221.369
221.248
221.13
221.015
220.904
220.798
220.697
220.601
220.511
220.425
220.344
220.268
220.196
220.128
220.064
220.004
219.948
219.894
219.844
219.797
219.752
219.711
219.671
219.634
219.599
219.566
219.535
219.505
219.478
219.451
219.427
219.404
219.382
219.362
219.343
219.326
219.311
219.297
219.286
219.275
219.273
219.259
219.282
149.367
152.627
158.255
165.434
173.293
181.158
188.522
195.061
200.657
205.329
209.164
212.269
214.751
216.709
218.231
219.399
220.283
220.939
221.412
221.738
221.95
222.073
222.127
222.128
222.089
222.021
221.931
221.827
221.712
221.592
221.468
221.344
221.221
221.102
220.986
220.875
220.769
220.668
220.572
220.482
220.397
220.317
220.242
220.171
220.104
220.041
219.982
219.926
219.873
219.824
219.778
219.734
219.693
219.654
219.618
219.584
219.551
219.521
219.492
219.465
219.439
219.415
219.392
219.371
219.352
219.333
219.317
219.302
219.288
219.278
219.267
219.266
219.253
219.276
150.602
153.79
159
165.667
173.106
180.734
188.073
194.74
200.536
205.402
209.374
212.556
215.079
217.053
218.57
219.71
220.553
221.164
221.594
221.883
222.062
222.157
222.187
222.168
222.113
222.031
221.931
221.817
221.696
221.57
221.442
221.315
221.19
221.069
220.952
220.84
220.734
220.634
220.539
220.45
220.366
220.286
220.212
220.142
220.076
220.014
219.956
219.902
219.85
219.802
219.757
219.714
219.674
219.636
219.6
219.567
219.535
219.505
219.477
219.451
219.426
219.402
219.38
219.36
219.34
219.323
219.307
219.292
219.279
219.27
219.259
219.259
219.246
219.269
152.244
155.633
160.673
166.892
173.866
181.097
188.175
194.742
200.567
205.538
209.626
212.891
215.451
217.433
218.939
220.06
220.872
221.442
221.824
222.066
222.202
222.261
222.261
222.218
222.142
222.044
221.93
221.806
221.677
221.544
221.411
221.281
221.153
221.03
220.913
220.801
220.695
220.595
220.501
220.412
220.329
220.251
220.178
220.11
220.045
219.985
219.928
219.874
219.824
219.777
219.733
219.691
219.652
219.615
219.581
219.548
219.517
219.488
219.461
219.435
219.411
219.388
219.367
219.347
219.328
219.311
219.296
219.282
219.27
219.261
219.251
219.251
219.238
219.262
153.972
157.786
162.964
168.959
175.52
182.306
188.999
195.28
200.935
205.846
209.949
213.258
215.857
217.849
219.336
220.422
221.199
221.735
222.082
222.282
222.375
222.391
222.353
222.278
222.178
222.06
221.93
221.794
221.654
221.514
221.375
221.24
221.11
220.985
220.866
220.754
220.649
220.549
220.456
220.369
220.288
220.211
220.14
220.073
220.01
219.951
219.895
219.844
219.795
219.749
219.706
219.666
219.628
219.592
219.559
219.527
219.498
219.47
219.443
219.418
219.395
219.373
219.353
219.333
219.316
219.299
219.284
219.271
219.259
219.251
219.242
219.242
219.231
219.255
155.602
159.857
165.333
171.402
177.77
184.22
190.513
196.418
201.771
206.464
210.436
213.686
216.275
218.27
219.746
220.798
221.526
222.013
222.318
222.484
222.546
222.531
222.46
222.352
222.221
222.078
221.929
221.777
221.626
221.477
221.332
221.192
221.058
220.931
220.812
220.7
220.595
220.496
220.405
220.319
220.239
220.165
220.095
220.03
219.969
219.912
219.859
219.809
219.762
219.718
219.676
219.638
219.601
219.567
219.535
219.504
219.476
219.449
219.424
219.4
219.378
219.357
219.337
219.319
219.302
219.286
219.272
219.259
219.248
219.241
219.232
219.233
219.222
219.247
157.643
162.056
167.575
173.713
180.05
186.354
192.395
197.989
203.016
207.416
211.157
214.243
216.731
218.672
220.117
221.142
221.837
222.279
222.53
222.646
222.668
222.627
222.537
222.412
222.261
222.097
221.927
221.757
221.591
221.431
221.279
221.133
220.996
220.868
220.747
220.635
220.531
220.434
220.344
220.261
220.183
220.111
220.044
219.981
219.923
219.868
219.817
219.769
219.724
219.682
219.643
219.606
219.571
219.538
219.508
219.479
219.452
219.426
219.402
219.38
219.358
219.338
219.32
219.302
219.286
219.272
219.258
219.247
219.236
219.229
219.222
219.223
219.213
219.239
161.76
165.439
170.285
176.178
182.314
188.374
194.184
199.569
204.384
208.542
212.038
214.916
217.241
219.064
220.432
221.41
222.075
222.49
222.706
222.777
222.752
222.668
222.546
222.401
222.243
222.076
221.902
221.724
221.547
221.376
221.214
221.062
220.921
220.79
220.67
220.558
220.455
220.36
220.273
220.192
220.118
220.048
219.984
219.924
219.869
219.817
219.768
219.723
219.681
219.641
219.604
219.569
219.537
219.506
219.477
219.45
219.425
219.401
219.378
219.357
219.337
219.319
219.301
219.285
219.27
219.256
219.244
219.233
219.224
219.217
219.211
219.213
219.204
219.23
167.701
170.919
175.03
180.367
185.954
191.375
196.553
201.376
205.716
209.508
212.749
215.445
217.614
219.304
220.581
221.507
222.145
222.548
222.761
222.828
222.791
222.683
222.527
222.346
222.159
221.976
221.798
221.626
221.457
221.292
221.13
220.976
220.831
220.697
220.575
220.465
220.364
220.273
220.189
220.111
220.04
219.975
219.914
219.858
219.806
219.758
219.713
219.671
219.631
219.595
219.56
219.528
219.498
219.47
219.443
219.418
219.395
219.373
219.352
219.332
219.314
219.297
219.28
219.265
219.252
219.239
219.228
219.218
219.21
219.205
219.199
219.202
219.194
219.22
173.617
176.522
179.857
184.161
188.845
193.537
198.158
202.61
206.737
210.412
213.565
216.172
218.239
219.798
220.912
221.665
222.145
222.431
222.58
222.631
222.606
222.523
222.389
222.22
222.033
221.839
221.646
221.461
221.289
221.131
220.983
220.844
220.711
220.584
220.465
220.356
220.257
220.167
220.087
220.015
219.949
219.888
219.832
219.781
219.733
219.689
219.648
219.61
219.574
219.541
219.51
219.481
219.454
219.429
219.405
219.382
219.361
219.341
219.322
219.304
219.288
219.272
219.258
219.244
219.232
219.221
219.21
219.202
219.195
219.191
219.186
219.19
219.183
219.21
178.906
181.521
184.289
187.522
191.061
194.719
198.423
202.109
205.68
209.036
212.092
214.783
217.066
218.922
220.361
221.415
222.125
222.536
222.702
222.688
222.558
222.371
222.166
221.965
221.773
221.59
221.409
221.231
221.061
220.901
220.753
220.621
220.503
220.398
220.301
220.211
220.125
220.044
219.97
219.902
219.841
219.785
219.735
219.69
219.647
219.609
219.573
219.539
219.508
219.479
219.452
219.427
219.404
219.381
219.361
219.341
219.322
219.305
219.289
219.273
219.259
219.245
219.232
219.221
219.21
219.2
219.192
219.185
219.179
219.176
219.172
219.177
219.172
219.199
182.739
184.952
187.264
189.755
192.431
195.232
198.106
201.008
203.887
206.688
209.355
211.841
214.105
216.11
217.83
219.246
220.353
221.162
221.703
222.017
222.149
222.139
222.025
221.842
221.623
221.396
221.181
220.985
220.812
220.658
220.519
220.392
220.278
220.177
220.088
220.011
219.943
219.882
219.824
219.769
219.718
219.67
219.626
219.586
219.55
219.518
219.488
219.46
219.434
219.41
219.388
219.367
219.347
219.329
219.312
219.295
219.28
219.266
219.252
219.239
219.227
219.216
219.205
219.195
219.186
219.178
219.171
219.166
219.161
219.16
219.158
219.164
219.16
219.188
185.848
187.675
189.59
191.584
193.683
195.878
198.139
200.434
202.735
205.009
207.221
209.337
211.327
213.165
214.831
216.31
217.595
218.68
219.564
220.25
220.745
221.064
221.23
221.273
221.224
221.111
220.958
220.786
220.611
220.445
220.298
220.171
220.063
219.97
219.889
219.817
219.754
219.699
219.653
219.612
219.575
219.54
219.507
219.475
219.446
219.42
219.396
219.374
219.354
219.335
219.318
219.302
219.287
219.272
219.259
219.246
219.234
219.223
219.212
219.202
219.193
219.184
219.176
219.168
219.161
219.155
219.149
219.146
219.143
219.142
219.142
219.149
219.147
219.176
188.542
190.028
191.582
193.184
194.859
196.605
198.406
200.245
202.102
203.958
205.791
207.577
209.294
210.92
212.437
213.832
215.095
216.219
217.202
218.046
218.753
219.328
219.776
220.103
220.316
220.427
220.453
220.415
220.333
220.225
220.104
219.982
219.867
219.767
219.683
219.616
219.561
219.515
219.476
219.443
219.415
219.391
219.371
219.352
219.333
219.315
219.298
219.282
219.268
219.255
219.243
219.232
219.222
219.212
219.203
219.194
219.186
219.178
219.17
219.163
219.157
219.15
219.144
219.139
219.134
219.13
219.126
219.124
219.123
219.124
219.126
219.134
219.133
219.164
190.963
192.16
193.409
194.697
196.042
197.445
198.893
200.378
201.888
203.411
204.931
206.434
207.903
209.321
210.674
211.948
213.132
214.217
215.199
216.076
216.849
217.522
218.099
218.586
218.986
219.303
219.539
219.699
219.787
219.815
219.797
219.745
219.674
219.594
219.513
219.439
219.377
219.328
219.293
219.267
219.248
219.233
219.221
219.213
219.205
219.199
219.192
219.184
219.177
219.17
219.164
219.158
219.153
219.148
219.143
219.138
219.134
219.13
219.126
219.122
219.118
219.114
219.111
219.108
219.105
219.103
219.102
219.101
219.102
219.105
219.108
219.118
219.119
219.151
193.158
194.118
195.118
196.154
197.237
198.367
199.537
200.741
201.973
203.224
204.486
205.747
206.996
208.222
209.412
210.555
211.641
212.661
213.608
214.476
215.264
215.97
216.596
217.147
217.627
218.041
218.395
218.691
218.931
219.115
219.244
219.321
219.353
219.349
219.321
219.277
219.228
219.179
219.135
219.102
219.08
219.069
219.065
219.065
219.067
219.07
219.073
219.076
219.078
219.079
219.079
219.079
219.079
219.079
219.079
219.079
219.079
219.078
219.078
219.077
219.077
219.076
219.076
219.075
219.075
219.075
219.076
219.077
219.08
219.084
219.089
219.101
219.104
219.137
195.191
195.957
196.755
197.587
198.457
199.367
200.312
201.288
202.292
203.319
204.363
205.416
206.472
207.521
208.555
209.564
210.541
211.477
212.365
213.198
213.972
214.684
215.331
215.915
216.437
216.9
217.308
217.666
217.978
218.249
218.48
218.671
218.821
218.93
218.998
219.031
219.037
219.024
219
218.973
218.946
218.926
218.916
218.915
218.922
218.933
218.945
218.957
218.969
218.979
218.988
218.995
219.001
219.006
219.011
219.016
219.02
219.024
219.027
219.03
219.033
219.036
219.038
219.04
219.042
219.045
219.048
219.052
219.056
219.063
219.069
219.083
219.087
219.122
197.089
197.698
198.331
198.996
199.694
200.425
201.187