/*--------------------------------*- C++ -*----------------------------------*\
| =========                 |                                                 |
| \\      /  F ield         | OpenFOAM: The Open Source CFD Toolbox           |
|  \\    /   O peration     | Version:  5.x                                   |
|   \\  /    A nd           | Web:      www.OpenFOAM.org                      |
|    \\/     M anipulation  |                                                 |
\*---------------------------------------------------------------------------*/
FoamFile
{
    version     2.0;
    format      ascii;
    class       volScalarField;
    location    "1000";
    object      p;
}
// * * * * * * * * * * * * * * * * * * * * * * * * * * * * * * * * * * * * * //

dimensions      [0 2 -2 0 0 0 0];

internalField   nonuniform List<scalar> 
11040
(
-0.000163077
-53.7865
-181.631
-216.397
-228.117
-235.299
-236.155
-230.657
-220.657
-206.755
-188.707
-161.045
-134.436
-115.437
-102.081
-87.8493
-73.4151
-59.7857
-46.8831
-34.4366
-22.407
-12.0356
-3.38498
4.68747
12.2186
19.2144
25.6649
31.5552
36.8529
41.5041
45.4411
48.6174
51.0527
52.8268
54.0893
54.9349
55.1818
54.8698
54.9345
57.0776
56.9541
19.1702
-32.8879
-115.261
-157.442
-179.684
-196.022
-205.664
-207.892
-204.102
-195.236
-181.432
-158.461
-134.295
-115.627
-101.982
-87.9138
-73.6407
-60.0792
-47.2157
-34.7996
-22.7878
-12.438
-3.76734
4.32465
11.8768
18.897
25.3767
31.3017
36.6373
41.3273
45.3061
48.5269
51.0013
52.7983
54.0766
54.9496
55.2262
54.8916
54.7305
56.3254
55.8967
31.9312
-18.6044
-77.956
-127.331
-156.856
-176.439
-188.637
-193.304
-191.692
-184.884
-173.445
-154.382
-132.557
-114.33
-100.637
-87.0943
-73.2215
-59.8659
-47.1445
-34.8424
-22.9122
-12.6014
-3.95061
4.12807
11.6735
18.6938
25.1808
31.1197
36.4746
41.1897
45.2007
48.4583
50.9663
52.7897
54.0836
54.9776
55.2827
54.9661
54.7197
55.8785
55.2531
40.777
-4.41933
-48.9035
-94.004
-125.448
-147.801
-163.724
-172.599
-174.834
-171.443
-163.261
-148.303
-129.4
-112.203
-98.6872
-85.7333
-72.3802
-59.3369
-46.8378
-34.7139
-22.9151
-12.6885
-4.08648
3.96042
11.4852
18.4948
24.9811
30.9279
36.299
41.0392
45.084
48.3819
50.9308
52.7895
54.1018
55.0052
55.3295
55.0332
54.7443
55.6164
55.1026
47.6701
8.91613
-25.6435
-64.2586
-95.8798
-120.089
-138.48
-150.554
-156.204
-156.147
-151.253
-140.362
-124.86
-109.239
-96.1249
-83.7863
-71.0799
-58.4752
-46.288
-34.4183
-22.8182
-12.7273
-4.20698
3.78036
11.2613
18.2413
24.7121
30.6565
36.0381
40.8024
44.8858
48.2351
50.8418
52.7548
54.1016
55.017
55.3622
55.0993
54.7847
55.5191
55.3235
52.8727
20.5511
-7.01863
-39.0724
-68.3866
-92.6243
-112.249
-126.722
-135.457
-138.722
-137.219
-130.356
-118.563
-105.073
-92.754
-81.1429
-69.2183
-57.1938
-45.4203
-33.8875
-22.5603
-12.6585
-4.26335
3.62601
11.0301
17.9519
24.3832
30.3057
35.6833
40.4635
44.5842
47.9921
50.6715
52.6602
54.0636
55.0052
55.3865
55.1905
54.888
55.582
55.7237
56.7862
30.2827
7.90356
-18.3136
-43.9581
-66.706
-86.2633
-101.992
-113.031
-119.229
-120.987
-117.984
-110.066
-99.2889
-88.3182
-77.6596
-66.669
-55.3867
-44.156
-33.0603
-22.0914
-12.4436
-4.22624
3.5204
10.8085
17.6366
23.9966
29.8699
35.2218
40.0024
44.1535
47.6222
50.3869
52.4734
53.962
54.9578
55.4055
55.3225
55.096
55.7911
56.2484
59.7282
38.1618
19.8295
-1.47702
-23.0908
-43.3435
-61.7171
-77.5335
-89.8669
-98.269
-102.824
-103.278
-99.1371
-91.48
-82.4416
-73.0796
-63.2293
-52.8893
-42.3701
-31.8398
-21.3381
-12.028
-4.05344
3.49579
10.6197
17.3101
23.558
29.3452
34.6392
39.395
43.5596
47.0835
49.9408
52.1456
53.7535
54.8484
55.4129
55.5019
55.426
56.1719
56.8947
61.9241
44.396
29.3057
12.0223
-5.79399
-23.1161
-39.5302
-54.4379
-67.0144
-76.6893
-83.308
-86.5804
-85.8257
-81.3964
-74.7568
-67.0926
-58.6421
-49.48
-39.8844
-30.0852
-20.1859
-11.3161
-3.66348
3.61838
10.517
17.0155
23.1011
28.7553
33.9486
38.6416
42.7891
46.348
49.2919
51.6259
53.3859
54.6353
55.3862
55.7236
55.8839
56.7615
57.6534
63.5339
49.2525
36.7907
22.7684
8.26206
-6.14828
-20.2368
-33.5689
-45.5016
-55.4991
-63.2878
-68.5464
-70.518
-69.079
-65.0504
-59.4278
-52.6515
-44.913
-36.4805
-27.6173
-18.4881
-10.1828
-2.94689
3.98188
10.5808
16.823
22.6888
28.1572
33.2004
37.7846
41.8729
45.4309
48.4363
50.891
52.8195
54.2715
55.2784
55.9457
56.435
57.5315
58.5222
64.6857
52.9987
42.6788
31.2872
19.5453
7.76398
-3.98159
-15.429
-26.1231
-35.654
-43.7422
-50.0807
-53.9391
-54.9365
-53.391
-49.9592
-45.0664
-38.9684
-31.932
-24.2288
-16.0678
-8.47765
-1.77206
4.70205
10.9126
16.8234
22.4047
27.6305
32.4729
36.9019
40.8871
44.4025
47.432
49.9789
52.0661
53.7373
55.0354
56.0773
56.9599
58.3319
59.4519
65.4861
55.8745
47.3062
38.0323
28.5464
19.008
9.40332
-0.134591
-9.3149
-17.8632
-25.5625
-32.1601
-37.0318
-39.7134
-40.204
-38.8282
-35.86
-31.5239
-26.06
-19.7204
-12.7302
-6.02286
0.0208481
5.92328
11.6423
17.133
22.3547
27.2742
31.8615
36.0885
39.929
43.3628
46.3788
48.983
51.1997
53.0703
54.642
56.031
57.2961
58.9292
60.2634
66.0266
58.0841
50.9537
43.3843
35.7175
28.0294
20.2651
12.477
4.83461
-2.49041
-9.36531
-15.6113
-20.7449
-24.3333
-26.2234
-26.5027
-25.2689
-22.6477
-18.8121
-13.9634
-8.3072
-2.64076
2.60622
7.81377
12.9291
17.9002
22.676
27.2152
31.4848
35.4563
39.106
42.4169
45.3807
48.0043
50.3111
52.3378
54.1276
55.7808
57.3428
59.1427
60.7247
66.3838
59.7937
53.8494
47.6548
41.4474
35.258
29.0186
22.7381
16.5087
10.4295
4.56838
-0.967005
-5.82937
-9.6731
-12.3086
-13.6973
-13.8091
-12.6636
-10.3449
-6.98073
-2.72732
1.79085
6.13058
10.5348
14.9421
19.2948
23.5341
27.6122
31.4925
35.1453
38.5472
41.6821
44.5428
47.1342
49.4763
51.5969
53.5289
55.3459
57.0875
58.9399
60.6643
66.6165
61.1322
56.1715
51.0895
46.0522
41.0664
36.0641
31.0341
26.0232
21.084
16.2477
11.5661
7.27393
3.62193
0.776077
-1.1825
-2.1641
-2.11651
-1.04641
0.993445
3.90977
7.26514
10.6462
14.1816
17.8072
21.464
25.0892
28.6308
32.0493
35.3144
38.4022
41.2959
43.9865
46.4756
48.777
50.9081
52.8891
54.7667
56.5702
58.3889
60.1092
66.7781
62.206
58.0636
53.8842
49.7857
45.7621
41.7518
37.7355
33.7352
29.7768
25.8707
22.0364
18.4253
15.2088
12.5098
10.4066
8.99762
8.36323
8.54273
9.53883
11.3155
13.6065
16.0626
18.7327
21.5575
24.4823
27.4466
30.3986
33.2981
36.1139
38.8215
41.4033
43.8481
46.1531
48.3247
50.3702
52.2981
54.1345
55.8968
57.6224
59.2534
66.9273
63.113
59.6538
56.2098
52.8669
49.6122
46.3916
43.1846
40.0004
36.8502
33.7343
30.6571
27.7127
25.0142
22.6452
20.6652
19.1566
18.1972
17.8417
18.1212
19.0376
20.4562
22.1079
23.9957
26.0713
28.2885
30.5949
32.9437
35.2978
37.6269
39.907
42.1192
44.2503
46.2933
48.249
50.1169
51.8968
53.6016
55.2388
56.8209
58.3191
67.0593
63.8454
60.9257
58.0506
55.2871
52.6167
49.9929
47.3968
44.8316
42.302
39.8042
37.3381
34.9624
32.7501
30.7564
29.0225
27.6099
26.5811
25.9872
25.8664
26.2374
27.047
28.099
29.3768
30.8447
32.467
34.2014
36.0095
37.8593
39.7241
41.5817
43.414
45.2067
46.9504
48.6417
50.2756
51.8469
53.3611
54.8201
56.2251
57.5633
67.1662
64.4166
61.9144
59.474
57.149
54.918
52.7405
50.5998
48.496
46.4303
44.3977
42.396
40.4646
38.6521
36.9947
35.5208
34.2743
33.3021
32.6454
32.339
32.4055
32.8345
33.4842
34.3333
35.3572
36.5289
37.8162
39.1887
40.6205
42.0893
43.5758
45.0635
46.5391
47.9923
49.4176
50.8079
52.156
53.463
54.7277
55.9464
57.1139
67.2639
64.8814
62.7101
60.6097
58.6242
56.7306
54.8936
53.0987
51.3443
49.6301
47.951
46.3041
44.7171
43.2235
41.8471
40.6079
39.5368
38.668
38.033
37.6601
37.57
37.7722
38.1628
38.722
39.4334
40.2772
41.2287
42.2649
43.3655
44.5122
45.6892
46.8823
48.0795
49.2712
50.4512
51.6118
52.7457
53.8517
54.9271
55.9666
56.9679
67.3572
65.2718
63.3689
61.5413
59.8255
58.1982
56.6284
55.1035
53.6212
52.18
50.7754
49.4045
48.087
46.847
45.7007
44.6617
43.7523
42.9974
42.42
42.0423
41.881
41.9534
42.1811
42.5479
43.0434
43.6526
44.3569
45.139
45.983
46.8748
47.8012
48.7508
49.7131
50.6798
51.6448
52.6009
53.5412
54.464
55.3656
56.241
57.0884
67.4484
65.608
63.9268
62.3224
60.8253
59.4127
58.0571
56.7476
55.4813
54.2564
53.0688
51.9157
50.8118
49.7745
48.8153
47.9434
47.1751
46.5283
46.0201
45.6669
45.4817
45.4831
45.6104
45.8511
46.1988
46.6419
47.1663
47.7588
48.4074
49.1009
49.8289
50.5819
51.3516
52.1307
52.9139
53.6948
54.4675
55.2298
55.9784
56.7087
57.4187
67.538
65.9024
64.407
62.988
61.6714
60.4349
59.2541
58.1194
57.0278
55.9773
54.9641
53.9858
53.0532
52.1793
51.3725
50.6389
49.9904
49.4402
49.0007
48.684
48.4996
48.4651
48.5316
48.6904
48.9373
49.2632
49.6573
50.1094
50.6104
51.1514
51.7242
52.3214
52.9361
53.5622
54.1954
54.8301
55.4615
56.0877
56.7052
57.3104
57.9012
67.6256
66.1634
64.8255
63.5627
62.3969
61.3068
60.2708
59.2802
58.332
57.4241
56.553
55.7167
54.9232
54.1823
53.5001
52.8807
52.3329
51.8663
51.49
51.2128
51.0414
50.9911
51.0218
51.1274
51.3055
51.5486
51.8483
52.1965
52.5863
53.0108
53.4634
53.9382
54.4297
54.933
55.4444
55.9594
56.4741
56.9867
57.4943
57.994
58.4833
67.7111
66.3969
65.1938
64.0637
63.0255
62.0586
61.1439
60.2736
59.4446
58.6548
57.9011
57.1814
56.5021
55.8704
55.2906
54.7659
54.3023
53.907
53.5866
53.3474
53.1942
53.1394
53.1497
53.2208
53.3516
53.5359
53.7668
54.038
54.3441
54.6796
55.0393
55.4185
55.8128
56.2183
56.6319
57.0501
57.4695
57.8889
58.3056
58.7174
59.1216
67.7938
66.6071
65.5202
64.504
63.5746
62.7125
61.9005
61.1315
60.4028
59.7119
59.0559
58.4333
57.8486
57.3072
56.8124
56.3663
55.9731
55.6382
55.3662
55.1617
55.0279
54.9748
54.9739
55.0228
55.1209
55.263
55.4434
55.6571
55.8998
56.1672
56.4551
56.7597
57.0775
57.4055
57.7411
58.0814
58.4238
58.7673
59.1095
59.449
59.7827
67.8735
66.7972
65.8113
64.8934
64.0575
63.2851
62.5608
61.8782
61.2344
60.627
60.0535
59.5122
59.0065
58.5406
58.1166
57.736
57.4019
57.1179
56.8874
56.7137
56.5986
56.5502
56.5438
56.5783
56.6535
56.765
56.9079
57.0784
57.2729
57.4878
57.72
57.9664
58.2241
58.4906
58.7641
59.042
59.3224
59.6043
59.886
60.1661
60.4418
67.9498
66.9696
66.0718
65.2394
64.4844
63.7895
63.1406
62.532
61.9608
61.4246
60.921
60.4484
60.0094
59.6069
59.2424
58.9168
58.6322
58.3912
58.196
58.049
57.9512
57.9087
57.9001
57.9253
57.9843
58.0733
58.1882
58.3258
58.4832
58.6576
58.8464
59.047
59.2572
59.4751
59.699
59.9269
60.1573
60.3895
60.622
60.8538
61.082
68.0225
67.1264
66.3058
65.548
64.8634
64.2356
63.6521
63.1073
62.5986
62.1234
61.6796
61.2656
60.8831
60.5343
60.2201
59.9408
59.698
59.4933
59.3281
59.2041
59.1216
59.0854
59.0766
59.0958
59.1432
59.2154
59.309
59.4213
59.5499
59.6927
59.8473
60.0119
60.1845
60.3636
60.5478
60.7357
60.9259
61.1178
61.3103
61.5027
61.6921
68.0915
67.2691
66.5163
65.824
65.2008
64.6317
64.1049
63.6156
63.1609
62.7385
62.3462
61.9823
61.6481
61.345
61.0734
60.8335
60.626
60.452
60.3124
60.2081
60.139
60.1088
60.1009
60.1161
60.155
60.2146
60.2918
60.3845
60.4906
60.6084
60.7361
60.872
61.0146
61.1626
61.3151
61.4706
61.6283
61.7877
61.9476
62.1078
62.2654
68.1566
67.3991
66.7061
66.0713
65.502
64.9842
64.507
64.0661
63.6585
63.2818
62.934
62.6134
62.3207
62.0567
61.8216
61.6151
61.4376
61.2897
61.1718
61.0843
61.0269
61.0022
60.9956
61.0084
61.041
61.0909
61.1553
61.2325
61.3209
61.4189
61.525
61.638
61.7565
61.8796
62.0063
62.1357
62.267
62.3999
62.5333
62.6671
62.7987
68.2178
67.5174
66.8772
66.2931
65.7712
65.2984
64.8648
64.4662
64.0997
63.763
63.4539
63.1708
62.9139
62.6837
62.4799
62.302
62.1501
62.0244
61.925
61.8518
61.8045
61.7848
61.7798
61.791
61.8188
61.8611
61.9155
61.9804
62.0546
62.1367
62.2255
62.3199
62.419
62.5218
62.6277
62.7359
62.8457
62.9568
63.0685
63.1806
63.2908
68.275
67.6249
67.0315
66.492
66.0119
65.5787
65.1835
64.8221
64.4917
64.19
63.9147
63.6643
63.4385
63.2375
63.0606
62.9074
62.7774
62.6707
62.587
62.5262
62.4874
62.4721
62.4687
62.4789
62.5032
62.5395
62.5858
62.6409
62.7036
62.7728
62.8476
62.927
63.0102
63.0965
63.1854
63.2761
63.3682
63.4615
63.5553
63.6496
63.742
68.3283
67.7225
67.1703
66.6704
66.227
65.8288
65.4674
65.1388
64.8403
64.5693
64.3238
64.1019
63.9033
63.7276
63.5741
63.4421
63.3311
63.2407
63.1705
63.1201
63.0887
63.0772
63.0755
63.0851
63.1066
63.1381
63.178
63.225
63.2784
63.3371
63.4004
63.4675
63.5377
63.6105
63.6854
63.7618
63.8393
63.9179
63.9968
64.0763
64.1541
68.3777
67.8108
67.295
66.8299
66.419
66.0517
65.7201
65.4206
65.1502
64.9064
64.687
64.4903
64.3154
64.1619
64.0288
63.9153
63.8205
63.7442
63.6855
63.6442
63.6191
63.6109
63.6107
63.6199
63.6392
63.6669
63.7015
63.742
63.7877
63.8378
63.8916
63.9485
64.008
64.0696
64.1329
64.1974
64.2629
64.3292
64.3958
64.463
64.5285
68.4232
67.8905
67.4067
66.9722
66.59
66.2499
65.9448
65.671
65.4255
65.2057
65.0095
64.8349
64.681
64.5469
64.4317
64.3342
64.2537
64.1895
64.1408
64.1072
64.0876
64.0824
64.0835
64.0927
64.1102
64.1348
64.1651
64.2002
64.2396
64.2826
64.3286
64.3771
64.4277
64.48
64.5336
64.5883
64.6437
64.6998
64.7561
64.8129
64.8682
68.4649
67.9619
67.5062
67.0987
66.7416
66.4256
66.1439
65.8928
65.6695
65.4711
65.2954
65.1405
65.0051
64.8882
64.7886
64.7052
64.637
64.5834
64.5434
64.5164
64.5015
64.4988
64.5012
64.5103
64.5265
64.5485
64.5751
64.6058
64.6399
64.677
64.7164
64.758
64.8011
64.8456
64.8912
64.9376
64.9846
65.0321
65.0798
65.1278
65.1745
68.5028
68.0255
67.5943
67.2103
66.8752
66.5805
66.3195
66.0887
65.885
65.7057
65.5483
65.4108
65.2918
65.1901
65.1044
65.0334
64.9761
64.9317
64.8994
64.8783
64.8676
64.8671
64.8708
64.88
64.8952
64.9152
64.9389
64.9659
64.9957
65.0279
65.0619
65.0976
65.1345
65.1725
65.2113
65.2508
65.2907
65.3309
65.3713
65.412
65.4515
68.5369
68.0816
67.6715
67.308
66.9922
66.716
66.4734
66.2605
66.0744
65.9121
65.7711
65.6492
65.5448
65.4566
65.3832
65.3231
65.2755
65.2392
65.2134
65.1974
65.1902
65.1917
65.1964
65.2057
65.22
65.2382
65.2595
65.2834
65.3095
65.3375
65.367
65.3977
65.4294
65.4619
65.4951
65.5287
65.5626
65.5968
65.631
65.6655
65.6988
68.5673
68.1305
67.7384
67.3925
67.0933
66.8334
66.6069
66.41
66.2395
66.0924
65.9661
65.8582
65.767
65.6909
65.6284
65.5783
65.5392
65.5102
65.4905
65.4792
65.4753
65.4788
65.4848
65.4946
65.5084
65.5254
65.5448
65.5663
65.5895
65.6141
65.6398
65.6664
65.6938
65.7217
65.75
65.7787
65.8075
65.8365
65.8655
65.8948
65.9228
68.594
68.1725
67.7955
67.4644
67.1794
66.9336
66.7212
66.5385
66.3819
66.2485
66.1353
66.04
65.9607
65.8955
65.8429
65.8015
65.77
65.7474
65.7328
65.7254
65.7243
65.7292
65.736
65.746
65.7593
65.7751
65.7928
65.8121
65.8327
65.8544
65.8769
65.9001
65.9238
65.9478
65.9722
65.9967
66.0213
66.046
66.0707
66.0954
66.1191
68.6171
68.2076
67.8429
67.5241
67.2511
67.0174
66.8173
66.647
66.5029
66.3817
66.2805
66.1966
66.1279
66.0727
66.0292
65.9959
65.9716
65.9552
65.9458
65.9425
65.9445
65.9515
65.9599
65.9708
65.9842
65.9996
66.0163
66.0342
66.053
66.0724
66.0924
66.1128
66.1334
66.1543
66.1752
66.1962
66.2171
66.2381
66.2589
66.2797
66.2997
68.6365
68.2358
67.8805
67.5715
67.3084
67.0849
66.8956
66.7363
66.6034
66.4932
66.4027
66.3292
66.2703
66.224
66.1887
66.1625
66.1443
66.133
66.1275
66.1272
66.1312
66.1393
66.1485
66.1595
66.1726
66.1872
66.2028
66.2191
66.2361
66.2536
66.2714
66.2894
66.3075
66.3257
66.344
66.3621
66.3802
66.3981
66.4159
66.4336
66.4505
68.6522
68.2574
67.9088
67.6071
67.3516
67.1365
66.9562
66.8066
66.6835
66.5833
66.5027
66.4387
66.389
66.3513
66.3239
66.3052
66.2937
66.2885
66.2883
66.2925
66.3001
66.3108
66.3221
66.3347
66.3488
66.3638
66.3793
66.3952
66.4114
66.4276
66.4439
66.4601
66.4763
66.4922
66.508
66.5236
66.539
66.5541
66.5691
66.5839
66.5979
68.6646
68.2732
67.9291
67.6326
67.3827
67.1739
67.0009
66.8592
66.7445
66.6531
66.5813
66.526
66.4845
66.4544
66.4337
66.4207
66.4138
66.4122
66.4148
66.421
66.43
66.4415
66.4534
66.4664
66.4803
66.4948
66.5096
66.5246
66.5396
66.5545
66.5694
66.5841
66.5986
66.6129
66.627
66.6408
66.6543
66.6676
66.6806
66.6934
66.7055
68.6735
68.2822
67.94
67.6467
67.4009
67.1971
67.0301
66.8951
66.7877
66.7037
66.6397
66.5922
66.5588
66.5369
66.5245
66.5198
66.5211
66.5271
66.5365
66.5486
66.5624
66.5777
66.5929
66.6084
66.6243
66.6402
66.6559
66.6713
66.6864
66.7011
66.7153
66.7291
66.7425
66.7554
66.7678
66.7798
66.7914
66.8026
66.8134
66.8239
66.8339
68.6774
68.2803
67.9353
67.6415
67.3972
67.197
67.0354
66.9069
66.8069
66.7307
66.6744
66.6343
66.6073
66.5908
66.5827
66.5812
66.5848
66.5926
66.6037
66.6173
66.6324
66.6484
66.6642
66.6802
66.6963
66.7121
66.7276
66.7426
66.7572
66.7712
66.7847
66.7977
66.8102
66.8221
66.8335
66.8444
66.8549
66.8649
66.8745
66.8837
66.8927
68.6762
68.2691
67.9173
67.6196
67.3738
67.1746
67.0162
66.8929
66.7995
66.7311
66.6838
66.6538
66.6382
66.6341
66.6392
66.6512
66.668
66.6879
66.7094
66.7316
66.7535
66.7749
66.7956
66.8155
66.8347
66.853
66.8703
66.8867
66.9021
66.9167
66.9303
66.9432
66.9552
66.9665
66.9771
66.9871
66.9964
67.0052
67.0135
67.0212
67.0288
62.3368
66.41
69.7664
71.7165
72.901
73.694
74.1488
74.3562
74.4017
74.3375
74.2004
74.0176
73.8085
73.5862
73.3593
73.1341
72.9146
72.703
72.5011
72.3095
72.1287
71.9585
71.7989
71.6494
71.5096
71.379
71.2572
71.1435
71.0374
70.9384
70.8459
70.7593
70.6782
70.6021
70.5305
70.4632
70.3998
70.3401
70.2838
70.2308
70.1809
70.1338
70.0896
70.0479
70.0085
69.9714
69.9364
69.9032
69.8718
69.842
69.8137
69.7867
69.761
69.7364
69.7129
69.6903
69.6686
69.6476
69.6274
69.6078
69.5888
69.5704
69.5524
69.5349
69.5179
69.5014
69.4853
69.47
69.455
69.442
69.4275
69.4198
69.4021
69.4105
61.727
66.1253
69.625
71.7157
72.9643
73.7662
74.2119
74.4063
74.4382
74.3617
74.214
74.0226
73.8065
73.5787
73.3476
73.1191
72.8972
72.6841
72.481
72.2887
72.1075
71.9372
71.7777
71.6284
71.489
71.3589
71.2376
71.1245
71.0191
70.9207
70.8288
70.7429
70.6625
70.587
70.516
70.4493
70.3865
70.3273
70.2715
70.219
70.1696
70.123
70.0792
70.0379
69.999
69.9623
69.9276
69.8948
69.8637
69.8342
69.8062
69.7796
69.7541
69.7298
69.7065
69.6842
69.6627
69.642
69.622
69.6026
69.5838
69.5656
69.5478
69.5305
69.5136
69.4972
69.4813
69.4662
69.4513
69.4384
69.4241
69.4165
69.399
69.4074
61.2686
65.4347
69.2874
71.6363
72.9961
73.8329
74.2817
74.465
74.4816
74.3903
74.23
74.0281
73.8037
73.5694
73.3333
73.1012
72.8766
72.6616
72.4572
72.2642
72.0827
71.9124
71.753
71.6042
71.4653
71.3358
71.2152
71.1029
70.9982
70.9006
70.8095
70.7244
70.6447
70.57
70.4998
70.4337
70.3716
70.313
70.2579
70.2059
70.157
70.111
70.0677
70.0269
69.9885
69.9522
69.918
69.8856
69.8549
69.8258
69.7981
69.7718
69.7467
69.7227
69.6997
69.6776
69.6564
69.636
69.6162
69.597
69.5785
69.5604
69.5428
69.5257
69.509
69.4928
69.4771
69.4621
69.4474
69.4346
69.4205
69.413
69.3957
69.4041
61.0148
64.8321
68.8592
71.4548
72.969
73.8673
74.3364
74.5213
74.5278
74.4221
74.2475
74.0335
73.7994
73.5576
73.3159
73.0795
72.8519
72.6348
72.4291
72.2354
72.0536
71.8834
71.7244
71.576
71.4378
71.3092
71.1894
71.078
70.9743
70.8777
70.7876
70.7034
70.6246
70.5508
70.4815
70.4163
70.3549
70.2971
70.2426
70.1914
70.1432
70.0978
70.0551
70.0148
69.9769
69.9412
69.9074
69.8755
69.8453
69.8166
69.7893
69.7634
69.7386
69.715
69.6923
69.6706
69.6496
69.6295
69.61
69.5911
69.5727
69.5549
69.5375
69.5206
69.5041
69.4882
69.4726
69.4578
69.4432
69.4306
69.4166
69.4093
69.3921
69.4006
61.0659
64.588
68.4999
71.1983
72.8668
73.8525
74.3567
74.5528
74.5595
74.4472
74.2621
74.0365
73.7921
73.542
73.2939
73.0528
72.8219
72.6026
72.3956
72.2012
72.0192
71.8492
71.6907
71.5432
71.4059
71.2782
71.1596
71.0493
70.9468
70.8514
70.7625
70.6795
70.6018
70.5291
70.4608
70.3965
70.3361
70.2792
70.2256
70.1751
70.1277
70.083
70.041
70.0014
69.9642
69.929
69.8958
69.8644
69.8347
69.8065
69.7797
69.7542
69.7298
69.7066
69.6843
69.6629
69.6423
69.6224
69.6032
69.5846
69.5665
69.549
69.5319
69.5152
69.4989
69.4832
69.4678
69.4532
69.4388
69.4264
69.4125
69.4053
69.3884
69.3969
61.2769
64.6307
68.3139
70.9756
72.715
73.7768
74.3313
74.5486
74.5592
74.4459
74.2581
74.0275
73.7764
73.5192
73.2649
73.0191
72.7849
72.5634
72.3551
72.1602
71.9783
71.8087
71.651
71.5045
71.3685
71.2421
71.1249
71.0161
70.915
70.8211
70.7336
70.652
70.5757
70.5043
70.4372
70.3742
70.3148
70.259
70.2064
70.1569
70.1103
70.0665
70.0253
69.9865
69.95
69.9156
69.883
69.8523
69.8231
69.7955
69.7692
69.7441
69.7203
69.6974
69.6756
69.6546
69.6343
69.6148
69.596
69.5777
69.5599
69.5426
69.5258
69.5094
69.4934
69.4778
69.4627
69.4483
69.4341
69.4218
69.4082
69.4011
69.3844
69.393
61.5577
64.8337
68.2939
70.8689
72.5825
73.6607
74.2538
74.5019
74.524
74.4105
74.2199
73.9882
73.7372
73.4794
73.2229
72.9744
72.7378
72.5146
72.3055
72.1105
71.929
71.7604
71.6039
71.4588
71.3243
71.1997
71.0843
70.9774
70.8781
70.786
70.7003
70.6204
70.5457
70.4759
70.4103
70.3487
70.2907
70.2361
70.1847
70.1363
70.0908
70.048
70.0078
69.9699
69.9342
69.9006
69.8688
69.8387
69.8103
69.7833
69.7576
69.7331
69.7098
69.6874
69.666
69.6455
69.6257
69.6066
69.5881
69.5702
69.5527
69.5358
69.5192
69.5031
69.4874
69.4721
69.4572
69.443
69.4291
69.417
69.4036
69.3966
69.3802
69.3888
61.9316
65.0908
68.3414
70.8408
72.5045
73.5512
74.144
74.4103
74.4491
74.3427
74.1506
73.9145
73.6617
73.4059
73.1533
72.9083
72.6739
72.4518
72.2433
72.0492
71.869
71.7019
71.5473
71.4043
71.272
71.1497
71.0365
70.9319
70.8349
70.745
70.6615
70.5838
70.5111
70.4432
70.3794
70.3195
70.2631
70.21
70.16
70.1129
70.0687
70.0271
69.988
69.9512
69.9165
69.8838
69.8529
69.8237
69.7961
69.7698
69.7448
69.721
69.6982
69.6765
69.6556
69.6356
69.6163
69.5976
69.5796
69.562
69.545
69.5284
69.5122
69.4964
69.481
69.466
69.4513
69.4374
69.4237
69.4119
69.3987
69.3919
69.3758
69.3844
62.4785
65.3773
68.3356
70.7824
72.431
73.4533
74.0282
74.291
74.336
74.2382
74.0512
73.8146
73.558
73.2987
73.0463
72.8059
72.5787
72.3638
72.1611
71.9713
71.7945
71.6303
71.4786
71.3386
71.2094
71.09
70.9799
70.8782
70.7842
70.6971
70.6163
70.5411
70.4709
70.4053
70.3437
70.2858
70.2313
70.1801
70.1318
70.0863
70.0436
70.0034
69.9656
69.9301
69.8966
69.865
69.8352
69.807
69.7802
69.7548
69.7306
69.7075
69.6855
69.6644
69.6442
69.6247
69.606
69.5878
69.5703
69.5532
69.5366
69.5204
69.5046
69.4891
69.4741
69.4594
69.4451
69.4314
69.418
69.4064
69.3935
69.3868
69.371
69.3798
63.185
65.6769
68.242
70.6044
72.2529
73.2801
73.8746
74.1506
74.2001
74.1033
73.919
73.6859
73.431
73.1703
72.9147
72.6725
72.4473
72.2386
72.045
71.8651
71.697
71.5398
71.3937
71.2585
71.1336
71.0184
70.9123
70.8145
70.7241
70.6406
70.5631
70.4912
70.424
70.3612
70.3023
70.2469
70.1948
70.1456
70.0994
70.0558
70.0149
69.9764
69.9402
69.9062
69.8741
69.8438
69.8152
69.7882
69.7625
69.7381
69.7148
69.6926
69.6714
69.6511
69.6316
69.6128
69.5947
69.5771
69.5601
69.5436
69.5275
69.5117
69.4964
69.4813
69.4666
69.4523
69.4383
69.425
69.4118
69.4005
69.3879
69.3814
69.366
69.3748
63.8168
65.8786
68.0032
70.2221
71.8796
72.9321
73.5717
73.9064
74.0047
73.9363
73.7646
73.5358
73.2814
73.0204
72.7644
72.5215
72.2951
72.0861
71.8955
71.7225
71.5644
71.4185
71.2832
71.1573
71.04
70.9312
70.8307
70.738
70.6525
70.5735
70.5003
70.4324
70.369
70.3097
70.254
70.2016
70.1523
70.1058
70.062
70.0208
69.982
69.9455
69.9112
69.879
69.8485
69.8198
69.7927
69.7669
69.7425
69.7193
69.6971
69.676
69.6557
69.6363
69.6176
69.5996
69.5822
69.5654
69.549
69.533
69.5175
69.5023
69.4874
69.4729
69.4586
69.4447
69.4311
69.4181
69.4053
69.3942
69.3819
69.3757
69.3607
69.3696
64.0349
65.7767
67.5141
69.5047
71.1473
72.2644
72.9893
73.4241
73.6214
73.6378
73.5313
73.3465
73.1154
72.863
72.6076
72.3616
72.1315
71.9199
71.7283
71.5563
71.4019
71.2631
71.138
71.024
70.9188
70.8209
70.7298
70.645
70.5662
70.4932
70.4256
70.3627
70.304
70.2491
70.1974
70.1487
70.1028
70.0595
70.0187
69.9802
69.944
69.91
69.8779
69.8478
69.8194
69.7925
69.767
69.7429
69.72
69.6981
69.6773
69.6573
69.6382
69.6198
69.6021
69.585
69.5685
69.5524
69.5368
69.5215
69.5066
69.492
69.4777
69.4637
69.4499
69.4364
69.4233
69.4107
69.3982
69.3875
69.3756
69.3696
69.355
69.364
63.7434
65.2734
66.74
68.4439
69.9717
71.1168
71.9411
72.5172
72.8727
73.0391
73.0616
72.9827
72.835
72.644
72.4288
72.2032
71.9789
71.7645
71.5659
71.3868
71.2277
71.0878
70.9657
70.8588
70.7637
70.6781
70.5999
70.5273
70.4593
70.3954
70.3355
70.2794
70.2268
70.1773
70.1307
70.0866
70.0449
70.0054
69.9682
69.933
69.9
69.8689
69.8396
69.8119
69.7859
69.7612
69.7378
69.7156
69.6944
69.6742
69.6549
69.6363
69.6185
69.6014
69.5848
69.5688
69.5532
69.538
69.5233
69.5088
69.4946
69.4807
69.4671
69.4537
69.4404
69.4275
69.4148
69.4027
69.3907
69.3803
69.3688
69.3631
69.3489
69.3581
63.0273
64.3912
65.6844
67.1291
68.4894
69.6054
70.487
71.1726
71.6756
72.0102
72.2031
72.2838
72.277
72.2044
72.0854
71.9361
71.7691
71.5939
71.417
71.2441
71.0805
70.9308
70.7983
70.6841
70.5872
70.5056
70.4365
70.3763
70.322
70.2717
70.2239
70.178
70.1339
70.0916
70.0513
70.013
69.9765
69.9419
69.9091
69.8781
69.8488
69.8211
69.7951
69.7705
69.7473
69.7253
69.7043
69.6843
69.6653
69.647
69.6295
69.6126
69.5963
69.5806
69.5654
69.5506
69.5362
69.5221
69.5083
69.4948
69.4815
69.4684
69.4555
69.4427
69.4302
69.4178
69.4057
69.3941
69.3825
69.3726
69.3615
69.3561
69.3425
69.3519
62.0138
63.237
64.4108
65.665
66.8689
67.923
68.8178
69.566
70.1709
70.6369
70.9781
71.2132
71.3599
71.4341
71.45
71.4202
71.3552
71.2645
71.1566
71.0382
70.9147
70.7899
70.6668
70.5493
70.4416
70.3472
70.2682
70.2044
70.1537
70.1132
70.079
70.0479
70.0177
69.9873
69.9566
69.9259
69.8959
69.8669
69.8394
69.8133
69.7887
69.7654
69.7434
69.7225
69.7027
69.6838
69.6657
69.6485
69.6319
69.6159
69.6005
69.5856
69.5712
69.5572
69.5435
69.5302
69.5171
69.5043
69.4916
69.4792
69.4669
69.4547
69.4427
69.4307
69.4189
69.4073
69.3958
69.3847
69.3738
69.3643
69.3537
69.3487
69.3356
69.3454
60.8471
61.9517
63.0254
64.1375
65.2123
66.194
67.0722
67.8469
68.5146
69.0736
69.5289
69.8897
70.1673
70.3729
70.5179
70.6125
70.6656
70.6847
70.6761
70.6449
70.5959
70.534
70.463
70.3866
70.3074
70.2272
70.1488
70.0753
70.0105
69.9573
69.9164
69.8865
69.8646
69.8475
69.8319
69.8155
69.7976
69.7782
69.7581
69.7381
69.7188
69.7004
69.683
69.6665
69.6508
69.6357
69.6212
69.6071
69.5935
69.5803
69.5674
69.5549
69.5426
69.5306
69.5188
69.5071
69.4956
69.4843
69.473
69.4618
69.4507
69.4396
69.4286
69.4176
69.4066
69.3958
69.385
69.3746
69.3643
69.3553
69.3453
69.3407
69.3283
69.3385
59.6729
60.6688
61.6455
62.6379
63.6027
64.5099
65.3516
66.1237
66.8201
67.4364
67.9718
68.4291
68.8131
69.1299
69.3866
69.5906
69.7495
69.8702
69.9589
70.0207
70.0598
70.0797
70.0832
70.0729
70.0516
70.0219
69.986
69.9457
69.9021
69.8564
69.8106
69.7681
69.7318
69.704
69.6848
69.6724
69.6644
69.6581
69.6514
69.6433
69.6338
69.6233
69.6123
69.6013
69.5905
69.5799
69.5695
69.5593
69.5492
69.5393
69.5294
69.5196
69.5099
69.5003
69.4907
69.481
69.4714
69.4618
69.4521
69.4424
69.4327
69.4229
69.413
69.4031
69.3931
69.3832
69.3732
69.3636
69.354
69.3456
69.3363
69.3322
69.3205
69.3312
58.7148
59.6027
60.48
61.3619
62.2254
63.0544
63.843
64.5863
65.2783
65.914
66.4904
67.0065
67.4631
67.8621
68.2068
68.5012
68.7501
68.9585
69.1313
69.2733
69.3891
69.4822
69.5558
69.6122
69.6533
69.6806
69.6955
69.6999
69.6957
69.6849
69.6693
69.6502
69.6284
69.605
69.5818
69.5614
69.546
69.5364
69.5321
69.5312
69.5314
69.5312
69.5295
69.5263
69.522
69.5169
69.5115
69.5057
69.4997
69.4935
69.4871
69.4805
69.4737
69.4667
69.4595
69.4522
69.4447
69.437
69.4292
69.4212
69.4129
69.4045
69.396
69.3873
69.3784
69.3695
69.3605
69.3518
69.3429
69.3353
69.3266
69.3231
69.3122
69.3235
58.0898
58.8681
59.6435
60.4198
61.1861
61.9337
62.6578
63.3538
64.0166
64.6414
65.2247
65.7639
66.2576
66.7053
67.1076
67.466
67.7826
68.0602
68.3019
68.511
68.6909
68.8447
68.9756
69.0862
69.179
69.2558
69.3183
69.3678
69.4055
69.4329
69.4513
69.4627
69.4684
69.4698
69.4678
69.4629
69.4555
69.447
69.4392
69.4341
69.4327
69.4347
69.4388
69.4432
69.4466
69.4485
69.4489
69.4482
69.4466
69.4444
69.4416
69.4384
69.4348
69.4307
69.4262
69.4213
69.4161
69.4105
69.4046
69.3984
69.3918
69.385
69.3778
69.3704
69.3628
69.355
69.347
69.3391
69.3311
69.3242
69.3163
69.3134
69.3033
69.3156
57.7918
58.4616
59.1342
59.8084
60.4794
61.1426
61.794
62.4297
63.0456
63.6376
64.2023
64.7365
65.238
65.7049
66.1362
66.5316
66.8915
67.2168
67.5091
67.77
68.0017
68.2064
68.3864
68.5441
68.6816
68.801
68.9043
68.9931
69.0689
69.1329
69.1862
69.2298
69.2646
69.2918
69.3128
69.3286
69.3401
69.3479
69.3524
69.3541
69.354
69.3539
69.3554
69.3596
69.3659
69.3732
69.3801
69.3857
69.3896
69.392
69.3933
69.3937
69.3934
69.3924
69.3907
69.3885
69.3857
69.3824
69.3785
69.3742
69.3694
69.3642
69.3585
69.3525
69.3462
69.3395
69.3326
69.3257
69.3186
69.3125
69.3054
69.3032
69.2938
69.3073
57.7795
58.3448
58.9168
59.4929
60.0712
60.6492
61.2237
61.7914
62.3491
62.8936
63.4218
63.9306
64.4175
64.8801
65.3168
65.7261
66.1072
66.4598
66.784
67.0805
67.35
67.5938
67.8133
68.0101
68.1857
68.3419
68.4803
68.6025
68.7103
68.8051
68.8882
68.9609
69.0241
69.0784
69.1245
69.163
69.1947
69.2205
69.2412
69.2577
69.2703
69.2794
69.2857
69.2903
69.2949
69.3008
69.3086
69.3176
69.3268
69.3348
69.3412
69.346
69.3494
69.3517
69.353
69.3536
69.3534
69.3524
69.3508
69.3485
69.3456
69.3421
69.3381
69.3335
69.3285
69.3231
69.3174
69.3115
69.3054
69.3001
69.2938
69.2924
69.2837
69.2987
57.9945
58.4634
58.9411
59.4254
59.9159
60.4108
60.9079
61.4045
61.8984
62.3868
62.8672
63.337
63.7937
64.235
64.6587
65.0631
65.4467
65.8084
66.1474
66.4635
66.7564
67.0266
67.2746
67.5011
67.7071
67.8936
68.0619
68.2133
68.349
68.4705
68.579
68.6759
68.7623
68.8394
68.9079
68.9684
69.0214
69.0671
69.106
69.1386
69.1657
69.1879
69.206
69.2204
69.2315
69.24
69.2473
69.2549
69.2637
69.2738
69.2841
69.2937
69.3018
69.3082
69.313
69.3166
69.3191
69.3206
69.3213
69.3212
69.3203
69.3187
69.3163
69.3134
69.3098
69.3057
69.3012
69.2964
69.2913
69.2869
69.2814
69.2809
69.2729
69.2898
58.3782
58.7614
59.154
59.5553
59.9652
60.3822
60.8049
61.2315
61.6601
62.0888
62.5155
62.9382
63.3546
63.7626
64.1603
64.5456
64.917
65.2729
65.612
65.9333
66.2362
66.5203
66.7854
67.0315
67.259
67.4684
67.6603
67.8356
67.9951
68.1399
68.2709
68.3893
68.4961
68.5925
68.6794
68.7577
68.8283
68.8916
68.9479
68.9975
69.0406
69.0775
69.1086
69.1348
69.1565
69.1744
69.1889
69.2004
69.21
69.219
69.2286
69.2391
69.2501
69.2606
69.2696
69.2769
69.2826
69.287
69.2901
69.2923
69.2935
69.2938
69.2933
69.292
69.29
69.2873