/*--------------------------------*- C++ -*----------------------------------*\
| =========                 |                                                 |
| \\      /  F ield         | OpenFOAM: The Open Source CFD Toolbox           |
|  \\    /   O peration     | Version:  5.x                                   |
|   \\  /    A nd           | Web:      www.OpenFOAM.org                      |
|    \\/     M anipulation  |                                                 |
\*---------------------------------------------------------------------------*/
FoamFile
{
    version     2.0;
    format      ascii;
    class       volScalarField;
    location    "1000";
    object      p;
}
// * * * * * * * * * * * * * * * * * * * * * * * * * * * * * * * * * * * * * //

dimensions      [0 2 -2 0 0 0 0];

internalField   nonuniform List<scalar> 
11040
(
-0.00309364
-99.7371
-337.071
-401.181
-422.366
-435.342
-436.796
-426.498
-407.829
-381.897
-348.214
-296.469
-246.657
-211.179
-186.387
-159.957
-133.113
-107.757
-83.7532
-60.5856
-38.1665
-18.8008
-2.61802
12.527
26.7137
39.9658
52.2786
63.6406
73.99
83.2272
91.2396
97.9072
103.175
107.109
109.911
111.837
112.627
112.047
111.721
115.21
115.27
36.5746
-59.9131
-212.481
-290.476
-331.385
-361.457
-379.29
-383.472
-376.49
-360.052
-334.367
-291.476
-246.302
-211.469
-186.131
-160.011
-133.475
-108.252
-84.3267
-61.223
-38.8449
-19.5271
-3.31392
11.8608
26.0795
39.3692
51.7272
63.1406
73.5503
82.8588
90.948
97.696
103.042
107.037
109.875
111.85
112.709
112.112
111.372
113.835
113.373
61.2528
-32.5024
-142.362
-234.017
-288.797
-325.03
-347.621
-356.288
-353.301
-340.639
-319.325
-283.741
-242.967
-208.96
-183.519
-158.392
-132.621
-107.791
-84.1389
-61.255
-39.0362
-19.7975
-3.62708
11.517
25.7166
38.9992
51.3622
62.7908
73.2273
82.5759
90.7179
97.5307
102.944
106.997
109.874
111.888
112.811
112.269
111.385
113.049
112.236
78.6328
-5.14086
-87.381
-171.036
-229.426
-270.86
-300.452
-317.07
-321.366
-315.173
-300.015
-272.177
-236.925
-204.866
-179.751
-155.736
-130.952
-106.72
-83.493
-60.9528
-38.9895
-19.9173
-3.8454
11.2318
25.3851
38.6388
50.9903
62.4224
72.8779
82.2626
90.4584
97.3402
102.83
106.957
109.887
111.924
112.885
112.403
111.473
112.653
112.009
92.326
20.5637
-43.3271
-114.929
-173.765
-218.797
-253.051
-275.642
-286.311
-286.345
-277.338
-257.134
-228.284
-199.191
-174.822
-151.956
-128.393
-104.993
-82.3604
-60.3071
-38.7278
-19.9205
-4.01107
10.945
25.0061
38.1928
50.5021
61.9143
72.3729
81.786
90.0366
96.9999
102.591
106.827
109.844
111.917
112.915
112.522
111.589
112.592
112.452
102.745
42.9555
-8.03591
-67.43
-121.972
-167.094
-203.666
-230.741
-247.187
-253.453
-250.817
-238.179
-216.311
-191.239
-168.361
-146.854
-124.763
-102.459
-80.6075
-59.1929
-38.1353
-19.6929
-4.02786
10.7342
24.6398
37.7039
49.9229
61.275
71.7048
81.1235
89.4178
96.4655
102.177
106.554
109.699
111.845
112.91
112.671
111.827
112.815
113.224
110.633
61.6485
20.2359
-28.3132
-76.0031
-118.363
-154.813
-184.214
-204.948
-216.691
-220.159
-214.758
-200.174
-180.216
-159.878
-140.155
-119.822
-98.9186
-78.0904
-57.4995
-37.1208
-19.1627
-3.84002
10.6443
24.3206
37.1945
49.2618
60.4992
70.8537
80.2419
88.5566
95.6819
101.526
106.074
109.396
111.67
112.864
112.871
112.249
113.293
114.24
116.574
76.7322
42.7938
3.35669
-36.8087
-74.5051
-108.738
-138.275
-161.393
-177.228
-185.91
-186.968
-179.464
-165.37
-148.668
-131.377
-113.184
-94.0575
-74.5713
-55.0455
-35.5476
-18.2285
-3.36739
10.738
24.0951
36.6965
48.5346
59.5857
69.8002
79.1027
87.3963
94.5753
100.55
105.294
108.844
111.327
112.749
113.118
112.872
114.09
115.462
120.993
88.6125
60.6663
28.6879
-4.39554
-36.6131
-67.1733
-94.9817
-118.51
-136.682
-149.187
-155.486
-154.303
-146.255
-134.054
-119.942
-104.372
-87.46
-69.7132
-51.5641
-33.2012
-16.7124
-2.45924
11.1378
24.0629
36.2914
47.8071
58.5841
68.576
77.7165
85.923
93.105
99.1831
104.124
107.943
110.724
112.502
113.379
113.679
115.237
116.858
124.206
97.813
74.7283
48.7921
21.8736
-4.90619
-31.1136
-55.9548
-78.2393
-96.9659
-111.611
-121.577
-125.454
-122.98
-115.66
-105.364
-92.9213
-78.675
-63.1116
-46.7208
-29.8065
-14.3811
-0.913253
12.0158
24.3703
36.1066
47.1937
57.5988
67.2764
76.1682
84.2056
91.3164
97.4372
102.539
106.633
109.778
112.027
113.55
114.559
116.613
118.412
126.475
104.862
85.7404
64.6755
42.8995
21.0221
-0.808174
-22.1146
-42.0555
-59.8679
-75.0269
-86.9574
-94.3081
-96.3496
-93.649
-87.4318
-78.4963
-67.3096
-54.3562
-40.1367
-25.0373
-10.9557
1.51424
13.5852
25.2031
36.306
46.8432
56.7703
66.0397
74.5973
82.3855
89.3478
95.4379
100.639
104.967
108.479
111.242
113.46
115.261
117.892
119.982
128.023
110.233
94.3547
77.2088
59.6252
41.9238
24.0858
6.34991
-10.7465
-26.6928
-41.0872
-53.4549
-62.6444
-67.7822
-68.8475
-66.4411
-61.0752
-53.1605
-43.1337
-31.4566
-18.543
-6.11396
5.11458
16.11
26.7984
37.1014
46.9466
56.275
65.0334
73.1695
80.6324
87.3768
93.3694
98.6035
103.105
106.932
110.156
112.988
115.512
118.644
121.203
129.044
114.332
101.117
87.1236
72.917
58.6565
44.2451
29.7743
15.5568
1.91201
-10.9171
-22.5944
-32.2277
-39.0099
-42.6443
-43.2889
-41.1255
-36.3823
-29.3727
-20.4633
-10.0304
0.458016
10.198
19.8916
29.4435
38.7611
47.7524
56.3426
64.4711
72.0847
79.1362
85.5875
91.4134
96.6127
101.215
105.272
108.851
112.131
115.187
118.612
121.652
129.7
117.484
106.468
95.0162
83.5168
72.0406
60.4649
48.8024
37.2231
25.9109
14.9896
4.66052
-4.43497
-11.6545
-16.6397
-19.3145
-19.6233
-17.5977
-13.3875
-7.22345
0.610501
8.96574
17.0167
25.2108
33.4355
41.5871
49.5579
57.2598
64.6254
71.5988
78.1336
84.1949
89.7612
94.832
99.4338
103.606
107.399
110.941
114.302
117.803
121.076
130.115
119.943
110.75
101.355
92.0252
82.783
73.506
64.1701
54.8618
45.6785
36.6766
27.953
19.941
13.1063
7.75997
4.0558
2.1601
2.17323
4.08772
7.81074
13.1747
19.376
25.6471
32.224
38.9882
45.8328
52.6425
59.3202
65.7924
72.0011
77.9001
83.4544
88.6418
93.458
97.9215
102.056
105.89
109.505
112.95
116.376
119.613
130.396
121.914
114.239
106.511
98.921
91.4641
84.0287
76.5771
69.1499
61.7949
54.5305
47.3938
40.6638
34.6584
29.6073
25.6583
22.9937
21.7649
22.0485
23.8534
27.1168
31.3506
35.9076
40.8767
46.1479
51.6214
57.1861
62.745
68.2228
73.56
78.7092
83.6343
88.3107
92.7286
96.8957
100.82
104.511
108.012
111.355
114.598
117.658
130.658
123.582
117.173
110.804
104.614
98.5832
92.6135
86.6654
80.7558
74.9061
69.1153
63.3934
57.9128
52.8831
48.461
44.7584
41.928
40.1155
39.4249
39.9167
41.5975
44.2209
47.2889
50.8057
54.6815
58.832
63.1604
67.5793
72.0187
76.4216
80.7414
84.941
88.993
92.8811
96.6038
100.157
103.536
106.763
109.851
112.818
115.624
130.895
124.932
119.524
114.208
109.091
104.144
99.2814
94.4678
89.7089
85.0134
80.374
75.791
71.3732
67.255
63.5398
60.3057
57.666
55.7381
54.6183
54.3796
55.0586
56.5581
58.5163
60.9008
63.6454
66.6843
69.9399
73.3398
76.824
80.3421
83.8515
87.3169
90.7103
94.012
97.2139
100.304
103.272
106.124
108.865
111.494
113.994
131.091
125.989
121.356
116.843
112.538
108.406
104.371
100.403
96.5016
92.669
88.8959
85.1783
81.5898
78.2196
75.1355
72.3913
70.0683
68.2539
67.0261
66.4508
66.5712
67.3686
68.5818
70.1698
72.0871
74.2841
76.7011
79.2812
81.9757
84.7425
87.5447
90.3509
93.1348
95.8763
98.5641
101.183
103.72
106.174
108.544
110.821
112.999
131.273
126.853
122.833
118.949
115.273
111.766
108.363
105.037
101.785
98.6054
95.49
92.4334
89.4867
86.7119
84.1539
81.8499
79.8577
78.241
77.059
76.3653
76.1992
76.5782
77.3112
78.3602
79.6949
81.2786
83.0661
85.0137
87.0834
89.241
91.4561
93.7019
95.9553
98.1975
100.416
102.597
104.725
106.797
108.809
110.749
112.615
131.45
127.581
124.059
120.679
117.503
114.49
111.582
108.757
106.01
103.338
100.733
98.1904
95.7458
93.4442
91.316
89.3866
87.6979
86.296
85.2246
84.525
84.2292
84.3685
84.7992
85.49
86.4216
87.5665
88.8903
90.3602
91.9467
93.6229
95.3643
97.1488
98.9567
100.772
102.583
104.376
106.137
107.863
109.548
111.181
112.759
131.624
128.211
125.099
122.132
119.361
116.746
114.236
111.81
109.464
107.194
104.992
102.855
100.808
98.8838
97.1047
95.4874
94.0625
92.8636
91.9225
91.2702
90.9312
90.9394
91.1833
91.639
92.2944
93.1283
94.1145
95.2283
96.4469
97.7495
99.1164
100.53
101.974
103.434
104.902
106.364
107.809
109.234
110.631
111.992
113.315
131.796
128.764
125.996
123.372
120.935
118.646
116.46
114.359
112.337
110.391
108.513
106.701
104.972
103.353
101.857
100.498
99.2968
98.2784
97.466
96.8823
96.5454
96.4869
96.6176
96.92
97.3867
98.001
98.7426
99.5926
100.534
101.549
102.624
103.744
104.896
106.068
107.253
108.44
109.62
110.789
111.941
113.069
114.168
131.966
129.255
126.779
124.444
122.286
120.269
118.351
116.517
114.761
113.08
111.466
109.917
108.448
107.075
105.812
104.665
103.652
102.789
102.094
101.584
101.272
101.184
101.247
101.45
101.788
102.247
102.811
103.466
104.198
104.994
105.843
106.732
107.653
108.594
109.551
110.513
111.474
112.43
113.376
114.307
115.218
132.131
129.695
127.469
125.379
123.458
121.668
119.975
118.364
116.83
115.368
113.972
112.64
111.382
110.213
109.14
108.169
107.312
106.582
105.992
105.552
105.273
105.177
105.201
105.339
105.588
105.936
106.371
106.882
107.456
108.086
108.76
109.47
110.207
110.966
111.739
112.519
113.302
114.084
114.861
115.627
116.38
132.291
130.092
128.081
126.201
124.482
122.887
121.384
119.961
118.612
117.333
116.119
114.967
113.885
112.884
111.969
111.144
110.418
109.8
109.299
108.924
108.681
108.587
108.59
108.686
108.873
109.142
109.482
109.884
110.34
110.841
111.38
111.951
112.545
113.158
113.785
114.42
115.059
115.699
116.336
116.968
117.59
132.446
130.451
128.627
126.929
125.383
123.954
122.614
121.351
120.16
119.036
117.975
116.973
116.038
115.177
114.393
113.69
113.073
112.55
112.126
111.808
111.599
111.513
111.505
111.574
111.718
111.929
112.199
112.519
112.885
113.288
113.722
114.183
114.665
115.163
115.674
116.192
116.715
117.24
117.765
118.286
118.8
132.594
130.777
129.116
127.577
126.18
124.894
123.694
122.568
121.512
120.52
119.588
118.715
117.903
117.159
116.486
115.885
115.36
114.916
114.557
114.288
114.111
114.036
114.024
114.074
114.187
114.356
114.573
114.832
115.128
115.455
115.808
116.183
116.576
116.983
117.401
117.826
118.256
118.688
119.121
119.553
119.978
132.735
131.074
129.556
128.155
126.888
125.727
124.647
123.64
122.699
121.82
121
120.234
119.528
118.883
118.303
117.788
117.34
116.964
116.661
116.434
116.285
116.221
116.208
116.247
116.338
116.475
116.652
116.863
117.105
117.372
117.662
117.969
118.292
118.626
118.97
119.321
119.675
120.033
120.391
120.749
121.102
132.868
131.345
129.952
128.671
127.519
126.466
125.492
124.587
123.746
122.965
122.24
121.568
120.95
120.391
119.89
119.447
119.065
118.745
118.489
118.299
118.174
118.121
118.109
118.14
118.215
118.328
118.474
118.649
118.848
119.069
119.308
119.562
119.829
120.105
120.389
120.68
120.974
121.27
121.568
121.867
122.16
132.994
131.591
130.309
129.135
128.082
127.124
126.242
125.426
124.673
123.977
123.334
122.742
122.201
121.714
121.281
120.9
120.573
120.302
120.086
119.926
119.823
119.779
119.77
119.796
119.859
119.954
120.076
120.221
120.387
120.571
120.769
120.981
121.202
121.432
121.668
121.91
122.155
122.402
122.651
122.9
123.145
133.113
131.815
130.631
129.55
128.585
127.711
126.909
126.172
125.495
124.873
124.302
123.779
123.305
122.88
122.504
122.177
121.898
121.667
121.485
121.352
121.266
121.232
121.225
121.248
121.302
121.382
121.485
121.608
121.747
121.901
122.067
122.244
122.429
122.621
122.819
123.02
123.225
123.432
123.64
123.849
124.055
133.224
132.019
130.921
129.923
129.035
128.234
127.504
126.836
126.225
125.668
125.16
124.697
124.281
123.91
123.584
123.302
123.063
122.868
122.715
122.604
122.535
122.508
122.504
122.525
122.572
122.641
122.729
122.832
122.95
123.08
123.22
123.368
123.524
123.685
123.851
124.021
124.192
124.366
124.541
124.717
124.889
133.327
132.205
131.183
130.258
129.438
128.702
128.034
127.426
126.875
126.374
125.921
125.512
125.145
124.822
124.539
124.296
124.093
123.927
123.799
123.707
123.651
123.632
123.63
123.65
123.691
123.751
123.827
123.916
124.016
124.126
124.245
124.37
124.502
124.637
124.777
124.92
125.065
125.211
125.358
125.506
125.651
133.422
132.372
131.418
130.557
129.797
129.118
128.505
127.952
127.452
127.002
126.598
126.235
125.912
125.63
125.385
125.176
125.002
124.863
124.756
124.681
124.636
124.623
124.624
124.643
124.68
124.733
124.798
124.874
124.96
125.054
125.155
125.262
125.373
125.488
125.606
125.727
125.849
125.973
126.097
126.222
126.345
133.51
132.523
131.628
130.824
130.117
129.489
128.925
128.419
127.966
127.56
127.198
126.876
126.593
126.346
126.134
125.955
125.808
125.69
125.602
125.541
125.506
125.498
125.502
125.52
125.554
125.601
125.658
125.724
125.799
125.879
125.966
126.056
126.151
126.249
126.349
126.451
126.555
126.659
126.764
126.87
126.974
133.591
132.659
131.815
131.062
130.401
129.817
129.297
128.833
128.421
128.055
127.731
127.445
127.196
126.981
126.798
126.645
126.52
126.422
126.35
126.301
126.275
126.272
126.277
126.296
126.327
126.369
126.419
126.477
126.541
126.611
126.685
126.763
126.843
126.927
127.012
127.099
127.186
127.275
127.364
127.454
127.541
133.664
132.78
131.981
131.271
130.652
130.107
129.625
129.199
128.823
128.492
128.202
127.949
127.73
127.543
127.385
127.255
127.151
127.07
127.011
126.974
126.955
126.956
126.964
126.982
127.011
127.049
127.094
127.145
127.202
127.262
127.326
127.393
127.462
127.533
127.606
127.679
127.754
127.829
127.904
127.98
128.054
133.73
132.886
132.127
131.455
130.871
130.36
129.912
129.519
129.176
128.877
128.617
128.393
128.201
128.039
127.904
127.794
127.708
127.642
127.595
127.567
127.555
127.559
127.569
127.587
127.614
127.649
127.69
127.735
127.784
127.836
127.892
127.95
128.009
128.07
128.132
128.195
128.258
128.322
128.386
128.45
128.513
133.789
132.979
132.253
131.613
131.06
130.58
130.162
129.798
129.484
129.213
128.98
128.782
128.615
128.475
128.361
128.269
128.198
128.146
128.11
128.091
128.085
128.092
128.105
128.124
128.15
128.183
128.219
128.26
128.304
128.35
128.398
128.448
128.5
128.552
128.605
128.659
128.713
128.767
128.821
128.876
128.928
133.84
133.059
132.361
131.749
131.222
130.768
130.376
130.038
129.75
129.504
129.296
129.121
128.975
128.856
128.76
128.685
128.628
128.587
128.561
128.549
128.548
128.558
128.571
128.591
128.616
128.646
128.68
128.716
128.755
128.796
128.838
128.882
128.927
128.972
129.017
129.063
129.109
129.155
129.202
129.248
129.292
133.885
133.126
132.451
131.861
131.356
130.925
130.555
130.241
129.976
129.753
129.567
129.413
129.287
129.186
129.107
129.047
129.003
128.974
128.957
128.953
128.957
128.971
128.988
129.009
129.035
129.064
129.096
129.129
129.165
129.202
129.239
129.277
129.316
129.355
129.394
129.434
129.473
129.512
129.551
129.59
129.628
133.922
133.18
132.522
131.95
131.464
131.051
130.702
130.408
130.164
129.961
129.795
129.66
129.553
129.468
129.404
129.357
129.325
129.305
129.296
129.296
129.305
129.321
129.338
129.36
129.385
129.412
129.442
129.473
129.505
129.538
129.571
129.605
129.639
129.674
129.708
129.742
129.776
129.809
129.843
129.876
129.908
133.953
133.221
132.575
132.017
131.545
131.148
130.816
130.54
130.314
130.13
129.982
129.865
129.774
129.706
129.656
129.623
129.603
129.594
129.595
129.604
129.619
129.64
129.662
129.686
129.713
129.742
129.771
129.801
129.832
129.862
129.893
129.923
129.954
129.984
130.013
130.043
130.071
130.1
130.128
130.156
130.182
133.977
133.251
132.614
132.066
131.604
131.219
130.9
130.639
130.428
130.26
130.129
130.028
129.953
129.898
129.861
129.839
129.827
129.825
129.831
129.843
129.861
129.883
129.906
129.931
129.957
129.985
130.013
130.041
130.069
130.098
130.126
130.153
130.181
130.208
130.234
130.26
130.285
130.31
130.335
130.359
130.382
133.994
133.269
132.635
132.093
131.638
131.262
130.955
130.706
130.509
130.355
130.238
130.152
130.092
130.053
130.031
130.024
130.028
130.04
130.059
130.082
130.109
130.138
130.167
130.197
130.227
130.257
130.287
130.316
130.344
130.372
130.399
130.425
130.45
130.474
130.497
130.52
130.542
130.563
130.583
130.603
130.621
134.001
133.265
132.627
132.083
131.632
131.263
130.965
130.729
130.546
130.406
130.304
130.231
130.183
130.154
130.141
130.139
130.147
130.162
130.184
130.21
130.239
130.269
130.299
130.33
130.36
130.39
130.419
130.448
130.475
130.501
130.527
130.551
130.575
130.597
130.619
130.639
130.659
130.678
130.696
130.713
130.73
133.999
133.245
132.593
132.043
131.589
131.222
130.93
130.704
130.533
130.408
130.322
130.269
130.242
130.236
130.247
130.271
130.304
130.342
130.384
130.426
130.467
130.507
130.546
130.584
130.62
130.655
130.687
130.718
130.747
130.775
130.8
130.824
130.847
130.868
130.888
130.907
130.925
130.941
130.957
130.971
130.985
125.735
133.17
139.07
142.363
144.219
145.367
145.927
146.065
145.939
145.641
145.238
144.775
144.282
143.782
143.287
142.806
142.344
141.906
141.491
141.101
140.736
140.394
140.074
139.776
139.498
139.24
138.999
138.775
138.566
138.372
138.19
138.021
137.863
137.715
137.576
137.446
137.323
137.208
137.099
136.996
136.9
136.809
136.723
136.643
136.567
136.495
136.427
136.363
136.303
136.245
136.191
136.139
136.089
136.042
135.997
135.953
135.912
135.871
135.833
135.795
135.758
135.723
135.688
135.655
135.622
135.59
135.559
135.529
135.499
135.473
135.445
135.427
135.393
135.405
124.725
132.721
138.887
142.413
144.366
145.518
146.052
146.161
146.006
145.683
145.26
144.78
144.274
143.764
143.261
142.774
142.309
141.868
141.451
141.06
140.694
140.352
140.033
139.736
139.459
139.201
138.961
138.738
138.531
138.338
138.158
137.99
137.833
137.687
137.549
137.42
137.298
137.184
137.076
136.974
136.879
136.788
136.704
136.624
136.549
136.478
136.411
136.347
136.287
136.231
136.177
136.125
136.076
136.03
135.985
135.942
135.901
135.861
135.822
135.785
135.749
135.714
135.68
135.646
135.614
135.582
135.551
135.522
135.492
135.466
135.438
135.421
135.387
135.399
123.973
131.531
138.349
142.327
144.461
145.662
146.191
146.273
146.086
145.733
145.285
144.786
144.264
143.742
143.23
142.737
142.267
141.822
141.404
141.012
140.646
140.304
139.985
139.689
139.413
139.157
138.918
138.697
138.491
138.3
138.121
137.955
137.8
137.654
137.518
137.39
137.27
137.157
137.05
136.95
136.855
136.766
136.682
136.603
136.529
136.459
136.393
136.33
136.271
136.215
136.162
136.111
136.062
136.016
135.972
135.93
135.889
135.85
135.812
135.775
135.739
135.704
135.67
135.637
135.605
135.574
135.543
135.514
135.485
135.459
135.431
135.415
135.381
135.393
123.576
130.508
137.648
142.058
144.456
145.751
146.302
146.378
146.168
145.787
145.312
144.79
144.25
143.714
143.192
142.692
142.216
141.769
141.348
140.955
140.589
140.247
139.93
139.634
139.36
139.106
138.869
138.649
138.445
138.256
138.079
137.915
137.762
137.618
137.484
137.357
137.239
137.127
137.021
136.922
136.829
136.741
136.658
136.581
136.507
136.438
136.373
136.311
136.253
136.198
136.145
136.095
136.047
136.002
135.958
135.916
135.876
135.837
135.8
135.764
135.728
135.694
135.661
135.628
135.596
135.565
135.535
135.506
135.477
135.452
135.424
135.408
135.374
135.386
123.693
130.12
137.072
141.655
144.313
145.753
146.355
146.44
146.222
145.826
145.33
144.787
144.229
143.678
143.145
142.636
142.155
141.704
141.282
140.888
140.521
140.181
139.865
139.571
139.299
139.046
138.812
138.595
138.393
138.206
138.032
137.87
137.718
137.577
137.444
137.32
137.203
137.093
136.989
136.892
136.8
136.713
136.632
136.555
136.483
136.415
136.351
136.291
136.233
136.179
136.127
136.078
136.031
135.986
135.943
135.902
135.862
135.824
135.787
135.752
135.717
135.683
135.65
135.618
135.586
135.556
135.526
135.497
135.469
135.444
135.416
135.4
135.367
135.379
124.069
130.225
136.787
141.307
144.08
145.642
146.325
146.441
146.222
145.815
145.312
144.759
144.19
143.627
143.083
142.567
142.08
141.626
141.202
140.807
140.441
140.102
139.788
139.496
139.227
138.977
138.745
138.531
138.332
138.148
137.977
137.817
137.669
137.53
137.4
137.278
137.163
137.055
136.953
136.857
136.767
136.682
136.603
136.527
136.457
136.39
136.327
136.268
136.211
136.158
136.107
136.059
136.013
135.969
135.927
135.887
135.848
135.81
135.774
135.739
135.704
135.671
135.639
135.607
135.576
135.546
135.516
135.488
135.46
135.435
135.408
135.392
135.359
135.372
124.567
130.589
136.74
141.136
143.872
145.453
146.196
146.363
146.161
145.749
145.235
144.676
144.104
143.54
142.995
142.475
141.985
141.528
141.104
140.71
140.345
140.008
139.696
139.408
139.142
138.896
138.668
138.457
138.262
138.081
137.913
137.757
137.612
137.476
137.349
137.23
137.117
137.012
136.912
136.819
136.73
136.648
136.57
136.496
136.427
136.362
136.301
136.242
136.187
136.135
136.086
136.038
135.993
135.95
135.909
135.87
135.831
135.795
135.759
135.725
135.691
135.658
135.626
135.595
135.565
135.535
135.506
135.478
135.451
135.426
135.4
135.384
135.351
135.364
125.245
131.016
136.745
141.052
143.733
145.263
146.005
146.201
146.026
145.626
145.109
144.539
143.958
143.394
142.853
142.34
141.857
141.404
140.981
140.59
140.229
139.895
139.587
139.303
139.041
138.799
138.576
138.37
138.18
138.003
137.84
137.688
137.546
137.414
137.29
137.174
137.065
136.962
136.866
136.775
136.689
136.608
136.532
136.461
136.394
136.331
136.271
136.214
136.161
136.11
136.062
136.016
135.972
135.93
135.89
135.851
135.814
135.778
135.743
135.709
135.677
135.645
135.613
135.583
135.553
135.524
135.495
135.468
135.441
135.417
135.39
135.375
135.343
135.355
126.218
131.448
136.606
140.849
143.545
145.061
145.79
145.986
145.824
145.437
144.929
144.358
143.77
143.197
142.652
142.143
141.669
141.229
140.819
140.438
140.084
139.757
139.455
139.177
138.921
138.685
138.468
138.268
138.083
137.912
137.753
137.607
137.47
137.342
137.223
137.111
137.005
136.906
136.813
136.725
136.642
136.564
136.491
136.422
136.357
136.295
136.238
136.183
136.131
136.082
136.035
135.991
135.948
135.907
135.868
135.831
135.795
135.76
135.726
135.693
135.661
135.63
135.599
135.569
135.54
135.511
135.483
135.457
135.43
135.406
135.381
135.365
135.334
135.346
127.369
131.814
136.24
140.354
143.104
144.67
145.461
145.708
145.571
145.193
144.687
144.121
143.538
142.964
142.415
141.901
141.426
140.993
140.596
140.231
139.894
139.582
139.292
139.023
138.776
138.548
138.339
138.146
137.968
137.804
137.652
137.512
137.381
137.259
137.145
137.037
136.936
136.841
136.752
136.667
136.588
136.513
136.443
136.377
136.314
136.256
136.2
136.148
136.098
136.051
136.006
135.963
135.922
135.882
135.845
135.809
135.774
135.74
135.707
135.675
135.644
135.613
135.584
135.555
135.526
135.498
135.471
135.445
135.418
135.395
135.37
135.355
135.324
135.337
128.184
131.856
135.499
139.361
142.197
143.881
144.797
145.181
145.161
144.862
144.396
143.847
143.267
142.692
142.143
141.627
141.153
140.719
140.324
139.967
139.644
139.349
139.079
138.829
138.597
138.382
138.183
138
137.832
137.676
137.533
137.4
137.276
137.161
137.053
136.952
136.856
136.766
136.681
136.601
136.526
136.455
136.388
136.325
136.266
136.211
136.158
136.108
136.06
136.015
135.973
135.932
135.892
135.855
135.819
135.784
135.75
135.718
135.686
135.655
135.625
135.596
135.567
135.539
135.511
135.484
135.457
135.432
135.406
135.384
135.359
135.344
135.314
135.327
128.097
131.228
134.222
137.671
140.503
142.358
143.493
144.118
144.327
144.222
143.907
143.464
142.949
142.404
141.862
141.343
140.862
140.422
140.024
139.668
139.35
139.065
138.808
138.577
138.366
138.171
137.991
137.823
137.668
137.524
137.391
137.268
137.153
137.046
136.946
136.852
136.763
136.679
136.6
136.525
136.454
136.388
136.326
136.267
136.212
136.159
136.11
136.063
136.018
135.976
135.935
135.897
135.86
135.824
135.79
135.757
135.725
135.693
135.663
135.634
135.605
135.577
135.549
135.522
135.495
135.469
135.443
135.418
135.393
135.371
135.347
135.333
135.304
135.316
127.067
129.836
132.401
135.348
137.982
139.919
141.274
142.191
142.727
142.938
142.899
142.684
142.352
141.946
141.501
141.042
140.586
140.149
139.743
139.373
139.044
138.753
138.498
138.275
138.079
137.904
137.745
137.599
137.464
137.338
137.22
137.11
137.007
136.911
136.82
136.735
136.654
136.577
136.505
136.436
136.372
136.311
136.254
136.2
136.149
136.101
136.055
136.012
135.97
135.931
135.893
135.857
135.823
135.789
135.757
135.726
135.696
135.667
135.638
135.61
135.583
135.556
135.529
135.503
135.477
135.452
135.427
135.403
135.379
135.358
135.334
135.32
135.292
135.305
125.3
127.776
130.073
132.596
134.957
136.875
138.365
139.504
140.322
140.85
141.135
141.229
141.177
141.013
140.769
140.473
140.144
139.801
139.455
139.115
138.789
138.487
138.213
137.974
137.768
137.593
137.445
137.318
137.205
137.103
137.008
136.918
136.832
136.749
136.671
136.596
136.525
136.457
136.393
136.333
136.275
136.221
136.17
136.122
136.076
136.033
135.992
135.953
135.916
135.88
135.846
135.813
135.781
135.751
135.721
135.692
135.664
135.637
135.61
135.584
135.558
135.533
135.507
135.483
135.458
135.434
135.41
135.387
135.364
135.343
135.32
135.307
135.28
135.293
123.043
125.273
127.384
129.605
131.721
133.561
135.108
136.387
137.411
138.189
138.75
139.126
139.353
139.458
139.466
139.399
139.272
139.102
138.9
138.678
138.444
138.206
137.97
137.741
137.525
137.329
137.159
137.018
136.903
136.811
136.736
136.671
136.61
136.551
136.492
136.433
136.374
136.317
136.263
136.211
136.162
136.116
136.073
136.032
135.992
135.955
135.92
135.886
135.853
135.822
135.792
135.762
135.734
135.707
135.68
135.654
135.629
135.604
135.579
135.555
135.531
135.507
135.484
135.46
135.437
135.414
135.391
135.369
135.347
135.327
135.306
135.293
135.267
135.281
120.554
122.579
124.528
126.522
128.438
130.179
131.726
133.082
134.244
135.211
135.993
136.608
137.077
137.42
137.659
137.813
137.898
137.927
137.91
137.856
137.771
137.662
137.535
137.396
137.249
137.099
136.949
136.803
136.669
136.552
136.457
136.384
136.329
136.288
136.253
136.22
136.186
136.149
136.11
136.071
136.032
135.995
135.96
135.927
135.895
135.865
135.836
135.808
135.781
135.755
135.73
135.705
135.681
135.657
135.634
135.611
135.588
135.566
135.544
135.522
135.501
135.479
135.457
135.436
135.414
135.393
135.371
135.35
135.329
135.311
135.29
135.278
135.253
135.268
118.102
119.937
121.723
123.523
125.264
126.896
128.402
129.779
131.015
132.105
133.049
133.853
134.526
135.08
135.527
135.882
136.157
136.366
136.52
136.629
136.7
136.739
136.751
136.74
136.708
136.659
136.597
136.525
136.447
136.363
136.277
136.192
136.114
136.049
135.999
135.964
135.939
135.922
135.906
135.889
135.871
135.85
135.827
135.805
135.782
135.76
135.739
135.718
135.698
135.678
135.658
135.639
135.62
135.6
135.581
135.562
135.543
135.524
135.505
135.486
135.467
135.448
135.428
135.409
135.389
135.369
135.349
135.33
135.31
135.293
135.273
135.262
135.238
135.254
116.115
117.755
119.369
120.982
122.556
124.062
125.491
126.833
128.079
129.221
130.254
131.177
131.993
132.705
133.319
133.843
134.286
134.656
134.964
135.217
135.423
135.591
135.725
135.831
135.912
135.97
136.006
136.023
136.023
136.009
135.983
135.95
135.91
135.867
135.821
135.777
135.739
135.711
135.693
135.683
135.678
135.675
135.67
135.663
135.654
135.643
135.631
135.618
135.605
135.592
135.579
135.565
135.552
135.537
135.523
135.508
135.493
135.478
135.462
135.446
135.43
135.413
135.396
135.379
135.362
135.344
135.326
135.308
135.29
135.273
135.255
135.245
135.222
135.239
114.805
116.246
117.677
119.105
120.511
121.88
123.202
124.47
125.675
126.808
127.865
128.84
129.731
130.539
131.265
131.911
132.481
132.981
133.417
133.795
134.12
134.398
134.636
134.838
135.009
135.153
135.272
135.369
135.446
135.504
135.545
135.572
135.587
135.591
135.589
135.58
135.567
135.55
135.532
135.516
135.506
135.501
135.503
135.507
135.511
135.514
135.513
135.511
135.506
135.501
135.494
135.487
135.479
135.47
135.461
135.451
135.44
135.428
135.416
135.404
135.391
135.377
135.363
135.348
135.332
135.317
135.3
135.284
135.268
135.253
135.236
135.227
135.206
135.224
114.144
115.386
116.63
117.876
119.112
120.332
121.529
122.694
123.82
124.902
125.932
126.905
127.818
128.666
129.45
130.168
130.822
131.413
131.943
132.418
132.839
133.212
133.541
133.829
134.081
134.301
134.491
134.657
134.799
134.921
135.024
135.11
135.18
135.236
135.28
135.312
135.335
135.351
135.361
135.364
135.364
135.361
135.358
135.359
135.365
135.374
135.384
135.393
135.399
135.403
135.404
135.403
135.402
135.398
135.394
135.389
135.383
135.376
135.368
135.359
135.349
135.338
135.327
135.314
135.301
135.288
135.274
135.259
135.244
135.231
135.215
135.208
135.188
135.208
114.044
115.092
116.152
117.219
118.288
119.354
120.413
121.458
122.483
123.483
124.451
125.383
126.274
127.12
127.918
128.665
129.361
130.004
130.596
131.138
131.63
132.076
132.478
132.838
133.161
133.448
133.703
133.929
134.128
134.303
134.458
134.594
134.713
134.817
134.907
134.983
135.047
135.098
135.14
135.173
135.197
135.216
135.228
135.236
135.241
135.247
135.256
135.268
135.282
135.295
135.306
135.314
135.319
135.323
135.324
135.324
135.323
135.32
135.316
135.311
135.304
135.297
135.288
135.279
135.268
135.257
135.245
135.233
135.219
135.207
135.193
135.187
135.169
135.192
114.386
115.256
116.142
117.04
117.948
118.864
119.782
120.699
121.61
122.51
123.394
124.258
125.097
125.907
126.684
127.425
128.129
128.791
129.413
129.992
130.529
131.024
131.479
131.895
132.274
132.617
132.927
133.206
133.457
133.682
133.882
134.061
134.221
134.364
134.492
134.606
134.707
134.795
134.872
134.936
134.99
135.034
135.07
135.098
135.12
135.136
135.148
135.158
135.17
135.184
135.2
135.216
135.23
135.241
135.249
135.255
135.259
135.261
135.261
135.26
135.257
135.253
135.248
135.241
135.234
135.225
135.215
135.205
135.193
135.183
135.17
135.166
135.148
135.175
115.056
115.767
116.496
117.241
118.001
118.774
119.556
120.345
121.137
121.929
122.716
123.496
124.263
125.014
125.746
126.455
127.138
127.792
128.415
129.005
129.562
130.084
130.572
131.024
131.443
131.829
132.183
132.506
132.801
133.068
133.311
133.529
133.727
133.905
134.065
134.21
134.341
134.459
134.565
134.66
134.743
134.816
134.877
134.929
134.971
135.006
135.034
135.056
135.074
135.088
135.102
135.117
135.134
135.152
135.167
135.18
135.19
135.198
135.203
135.206
135.207
135.207
135.205
135.201
135.197
135.19