/*--------------------------------*- C++ -*----------------------------------*\
| =========                 |                                                 |
| \\      /  F ield         | OpenFOAM: The Open Source CFD Toolbox           |
|  \\    /   O peration     | Version:  5.x                                   |
|   \\  /    A nd           | Web:      www.OpenFOAM.org                      |
|    \\/     M anipulation  |                                                 |
\*---------------------------------------------------------------------------*/
FoamFile
{
    version     2.0;
    format      ascii;
    class       surfaceScalarField;
    location    "1000";
    object      phi;
}
// * * * * * * * * * * * * * * * * * * * * * * * * * * * * * * * * * * * * * //

dimensions      [0 3 -1 0 0 0 0];

internalField   nonuniform List<scalar> 
83317
(
0.000496283
0.000109294
-0.000607886
0.000401694
9.45867e-05
0.000326674
7.50199e-05
0.000294818
3.18557e-05
0.000277308
1.75106e-05
0.000263276
1.40315e-05
0.000252809
1.04667e-05
0.000244965
7.8441e-06
0.000238594
6.37081e-06
0.000232954
5.63968e-06
0.000227982
4.96683e-06
0.000222798
5.18754e-06
0.000218738
4.0545e-06
0.000214719
4.02382e-06
0.000212259
2.45384e-06
0.000210436
1.82844e-06
0.000208545
1.88444e-06
0.000207095
1.45459e-06
0.000205105
1.98399e-06
0.000203487
1.62333e-06
0.000201808
1.67798e-06
0.000199989
1.81815e-06
0.000198634
1.35553e-06
0.000196966
1.66759e-06
0.000195658
1.30698e-06
0.00019437
1.28797e-06
0.000192809
1.56066e-06
0.000191539
1.26995e-06
0.000190479
1.05951e-06
0.000189308
1.17017e-06
0.000187848
1.45988e-06
0.000186509
1.32262e-06
0.000185749
7.70547e-07
0.000184888
8.56481e-07
0.000184075
8.13385e-07
0.000183474
5.99776e-07
0.000182742
7.29797e-07
0.000182445
2.91183e-07
0.000182517
-6.93464e-08
0.000182585
-7.12076e-08
0.00018263
-4.68204e-08
0.000178115
4.51462e-06
0.00017429
3.8222e-06
0.000173789
4.88884e-07
0.000173379
4.14499e-07
0.000173311
7.56383e-08
0.000172909
3.90912e-07
0.000172538
3.71994e-07
0.00017222
3.13184e-07
0.000171945
2.75847e-07
0.000171713
2.25355e-07
0.000171527
1.88408e-07
0.000171375
1.42991e-07
0.000171272
1.1622e-07
0.000170841
4.14934e-07
0.000170471
3.59578e-07
0.000170777
-2.98193e-07
0.000170815
-3.04941e-08
0.000170833
-2.86918e-08
0.000171225
-3.74492e-07
0.000171301
-9.67018e-08
0.000171052
2.5623e-07
0.000171007
3.22423e-08
0.000170927
9.72745e-08
0.000170795
1.09147e-07
0.000170571
2.52437e-07
0.00017008
4.59021e-07
0.000169916
1.93163e-07
0.000169797
8.40624e-08
0.000169036
8.00035e-07
0.000168191
8.02146e-07
0.000167676
5.83429e-07
0.000166403
1.19765e-06
0.000164726
1.76082e-06
0.000163349
1.29291e-06
0.000161532
1.9681e-06
0.000158851
2.51904e-06
0.000155856
3.24241e-06
0.000151898
3.70239e-06
0.000149531
2.84399e-06
7.75478e-05
7.16716e-05
-0.000343596
0.000421057
0.000749737
0.00025192
-0.00089238
0.000578021
0.000266302
0.000459162
0.000193879
0.000411914
7.91039e-05
0.000391568
3.78567e-05
0.00037754
2.8059e-05
0.00037
1.80071e-05
0.00036613
1.17141e-05
0.000364173
8.32712e-06
0.000363417
6.39548e-06
0.000363098
5.28332e-06
0.000362817
5.47032e-06
0.000362958
3.90978e-06
0.000363197
3.78779e-06
0.000365063
5.84572e-07
0.000366702
1.921e-07
0.000369289
-7.05727e-07
0.00037142
-6.74278e-07
0.000373705
-3.0428e-07
0.000375742
-4.10947e-07
0.000376986
4.32835e-07
0.000378434
3.70635e-07
0.000378945
8.43547e-07
0.000379437
1.17534e-06
0.000379382
1.36261e-06
0.000378849
1.82052e-06
0.00037862
1.78939e-06
0.000377657
2.23263e-06
0.000376459
2.25687e-06
0.000375112
2.51703e-06
0.000373964
2.60715e-06
0.000372613
2.66609e-06
0.000370686
2.70235e-06
0.000368866
2.67386e-06
0.000366954
2.72514e-06
0.000364966
2.58776e-06
0.000363082
2.61131e-06
0.000360961
2.40931e-06
0.000358546
2.3475e-06
0.000356329
2.14395e-06
0.000354127
2.15348e-06
0.000355712
2.92922e-06
0.000358297
1.23579e-06
0.000358491
2.87809e-07
0.000357923
9.84298e-07
0.000357002
1.00047e-06
0.000356309
1.07821e-06
0.000355638
1.04368e-06
0.000354964
9.84088e-07
0.000354316
9.24044e-07
0.000353684
8.54119e-07
0.00035308
7.92263e-07
0.000352498
7.20191e-07
0.000351938
6.83266e-07
0.000351641
7.04026e-07
0.000351361
6.33126e-07
0.000350627
4.39688e-07
0.000350151
4.50052e-07
0.000349703
4.13231e-07
0.000349055
2.8243e-07
0.000348645
3.02103e-07
0.000348399
5.05491e-07
0.000347816
6.08495e-07
0.000347177
7.44337e-07
0.00034645
8.23786e-07
0.00034568
1.0369e-06
0.000344982
1.1399e-06
0.000343829
1.36099e-06
0.000342535
1.35933e-06
0.000341387
1.9687e-06
0.000340024
2.14207e-06
0.000338166
2.47732e-06
0.000336357
2.96543e-06
0.00033437
3.79239e-06
0.000331625
3.99448e-06
0.000328493
5.17911e-06
0.000324818
6.10678e-06
0.000320513
7.67851e-06
0.000314055
1.00229e-05
0.000310696
6.46769e-06
0.000172276
0.000209937
-0.00069103
0.000519581
0.000993362
0.000429705
-0.00117113
0.000758523
0.00050114
0.000595946
0.000356455
0.000533791
0.000141259
0.000509247
6.24002e-05
0.000493916
4.33905e-05
0.000487846
2.40767e-05
0.000486596
1.29641e-05
0.00048779
7.13322e-06
0.000490611
3.57396e-06
0.000493722
2.17101e-06
0.000496847
2.34632e-06
0.000499855
8.99513e-07
0.000502435
1.21045e-06
0.0005066
-3.5825e-06
0.000509755
-2.96152e-06
0.000514125
-5.07768e-06
0.000517634
-4.18223e-06
0.000521279
-3.95107e-06
0.000524516
-3.64629e-06
0.000526775
-1.8264e-06
0.000529115
-1.96895e-06
0.000530181
-2.22485e-07
0.000531168
1.87873e-07
0.000531429
1.10127e-06
0.000531275
1.97504e-06
0.00053105
2.0144e-06
0.000530076
3.20584e-06
0.000529032
3.30068e-06
0.000527548
4.00168e-06
0.000526063
4.09116e-06
0.000524285
4.43943e-06
0.000522214
4.77689e-06
0.000520024
4.86255e-06
0.000517646
5.10303e-06
0.00051514
5.09355e-06
0.000512475
5.27552e-06
0.000509653
5.22954e-06
0.000506533
5.46858e-06
0.000503416
5.26036e-06
0.000500014
5.55479e-06
0.00050326
-3.17636e-07
0.000507865
-3.36931e-06
0.000507997
1.51956e-07
0.000507328
1.65443e-06
0.000506435
1.89634e-06
0.000505582
1.92717e-06
0.000504748
1.87879e-06
0.000503896
1.83395e-06
0.000503065
1.75521e-06
0.000502243
1.67494e-06
0.000501446
1.59006e-06
0.000500667
1.49612e-06
0.0004999
1.45401e-06
0.000499254
1.34557e-06
0.000498618
1.26624e-06
0.000497821
1.2386e-06
0.000497136
1.1374e-06
0.000496478
1.06789e-06
0.00049576
1.0058e-06
0.000495137
9.19448e-07
0.000494525
1.11989e-06
0.000493663
1.46655e-06
0.000492742
1.67056e-06
0.000491682
1.87648e-06
0.000490594
2.13373e-06
0.000489381
2.34327e-06
0.000487988
2.76346e-06
0.000486364
2.97179e-06
0.000484561
3.78475e-06
0.000482736
3.95358e-06
0.000480362
4.87297e-06
0.000477721
5.58288e-06
0.000474926
6.6134e-06
0.000471445
7.4494e-06
0.000467259
9.41409e-06
0.000462229
1.10854e-05
0.000456609
1.33779e-05
0.000448271
1.82793e-05
0.000444006
1.08865e-05
0.000267292
0.000386549
-0.00107384
0.000649984
0.00128896
0.000642069
-0.00150134
0.000985247
0.000804856
0.000768443
0.000573259
0.000686747
0.000222956
0.000656096
9.30505e-05
0.000638545
6.09421e-05
0.000633094
2.95269e-05
0.000633679
1.23791e-05
0.000637279
3.53403e-06
0.000642835
-1.98256e-06
0.000648816
-3.81147e-06
0.000654592
-3.42865e-06
0.000660094
-4.60464e-06
0.000664305
-2.99933e-06
0.000669727
-9.00601e-06
0.000673711
-6.94381e-06
0.000678748
-1.01164e-05
0.000682934
-8.36754e-06
0.000687018
-8.03588e-06
0.000690739
-7.36688e-06
0.000693391
-4.47818e-06
0.000696011
-4.58967e-06
0.000697349
-1.56019e-06
0.000698458
-9.21231e-07
0.000698854
7.04626e-07
0.000698786
2.04322e-06
0.000698486
2.31453e-06
0.000697456
4.23601e-06
0.0006964
4.35613e-06
0.000694793
5.60895e-06
0.00069305
5.83309e-06
0.000690996
6.48963e-06
0.00068879
6.98498e-06
0.000686369
7.28253e-06
0.000683715
7.75738e-06
0.000680928
7.88017e-06
0.000677852
8.35087e-06
0.000674686
8.39346e-06
0.000671249
8.90576e-06
0.000667724
8.78523e-06
0.000663755
9.52221e-06
0.000666729
-3.29203e-06
0.000671488
-8.1291e-06
0.000671645
-7.20516e-09
0.000670899
2.40106e-06
0.00066999
2.80614e-06
0.000669009
2.90605e-06
0.000668044
2.84357e-06
0.000667061
2.81606e-06
0.000666101
2.71519e-06
0.000665149
2.625e-06
0.000664226
2.51258e-06
0.000663324
2.39583e-06
0.000662437
2.34427e-06
0.000661572
2.20684e-06
0.000660721
2.11418e-06
0.000659902
2.05918e-06
0.000659108
1.9338e-06
0.000658334
1.83877e-06
0.000657604
1.73977e-06
0.00065687
1.64841e-06
0.000656037
1.95452e-06
0.000654986
2.51364e-06
0.000653857
2.80337e-06
0.000652546
3.18201e-06
0.000651185
3.5012e-06
0.000649568
3.95218e-06
0.0006479
4.43787e-06
0.000645953
4.90968e-06
0.000643572
6.17523e-06
0.000641216
6.29891e-06
0.000638292
7.81321e-06
0.000634817
9.03893e-06
0.000631104
1.03461e-05
0.00062671
1.18243e-05
0.000621334
1.48251e-05
0.00061475
1.76298e-05
0.000607468
2.07182e-05
0.000596781
2.89043e-05
0.000591348
1.64419e-05
0.000388799
0.000589036
-0.00150475
0.000819558
0.00164274
0.000883387
-0.00188404
0.00126196
0.00118563
0.000981644
0.000853579
0.000873971
0.000330629
0.000834158
0.000132864
0.000812685
8.24145e-05
0.000806181
3.60308e-05
0.000807398
1.11617e-05
0.000812606
-1.67315e-06
0.00082033
-9.70705e-06
0.000828989
-1.24714e-05
0.000837378
-1.18164e-05
0.00084569
-1.29184e-05
0.000852096
-9.40443e-06
0.000859289
-1.61999e-05
0.000864674
-1.23279e-05
0.000870841
-1.62839e-05
0.000876157
-1.36832e-05
0.00088114
-1.30195e-05
0.000885775
-1.20013e-05
0.000889138
-7.84151e-06
0.000892388
-7.83947e-06
0.000894265
-3.43703e-06
0.000895752
-2.40845e-06
0.00089648
-2.36267e-08
0.000896584
1.93935e-06
0.000896429
2.46961e-06
0.000895445
5.21967e-06
0.00089438
5.42122e-06
0.000892705
7.28349e-06
0.000890832
7.70584e-06
0.000888613
8.7063e-06
0.000886203
9.39721e-06
0.00088355
9.93424e-06
0.000880619
1.06886e-05
0.000877541
1.09577e-05
0.000874128
1.17643e-05
0.000870614
1.19063e-05
0.000866792
1.27283e-05
0.000862863
1.27133e-05
0.000858417
1.39675e-05
0.000860997
-5.87209e-06
0.000865829
-1.2961e-05
0.00086614
-3.20463e-07
0.000865342
3.19961e-06
0.000864341
3.80859e-06
0.000863237
4.00801e-06
0.000862148
3.93304e-06
0.000861039
3.92436e-06
0.000859952
3.80187e-06
0.000858878
3.69834e-06
0.000857836
3.55437e-06
0.000856818
3.41283e-06
0.000855816
3.34824e-06
0.000854825
3.19574e-06
0.000853853
3.08361e-06
0.000852936
2.9774e-06
0.000852041
2.83015e-06
0.000851163
2.71495e-06
0.000850352
2.55449e-06
0.00084952
2.4769e-06
0.000848549
2.92677e-06
0.000847307
3.75297e-06
0.000845956
4.15789e-06
0.000844375
4.75871e-06
0.000842712
5.16907e-06
0.000840732
5.92707e-06
0.000838665
6.50951e-06
0.000836271
7.29825e-06
0.000833311
9.14231e-06
0.000830332
9.27002e-06
0.000826685
1.14727e-05
0.00082231
1.34003e-05
0.000817583
1.50887e-05
0.000812014
1.73783e-05
0.000805216
2.16505e-05
0.000796846
2.5971e-05
0.00078755
3.0058e-05
0.000773941
4.2469e-05
0.00076706
2.34084e-05
0.000546403
0.000809637
-0.00199324
0.00103478
0.00206402
0.00115069
-0.00233133
0.00159387
0.00165578
0.00123785
0.0012096
0.00109834
0.00047014
0.00104671
0.000184489
0.00102016
0.000108968
0.00101208
4.41138e-05
0.00101391
9.32915e-06
0.00102102
-8.77757e-06
0.00103139
-2.00848e-05
0.00104331
-2.43873e-05
0.00105495
-2.34536e-05
0.00106677
-2.4743e-05
0.00107619
-1.88219e-05
0.00108608
-2.60894e-05
0.00109361
-1.98613e-05
0.00110155
-2.42268e-05
0.00110853
-2.06587e-05
0.00111488
-1.9373e-05
0.00112085
-1.79728e-05
0.00112528
-1.22638e-05
0.00112948
-1.20453e-05
0.00113216
-6.11697e-06
0.00113426
-4.50492e-06
0.00113551
-1.2758e-06
0.00113593
1.51666e-06
0.00113607
2.32939e-06
0.00113523
6.05953e-06
0.00113423
6.42182e-06
0.00113254
8.96955e-06
0.0011306
9.64916e-06
0.00112826
1.10424e-05
0.00112565
1.20145e-05
0.00112277
1.28127e-05
0.00111955
1.39006e-05
0.00111618
1.43362e-05
0.00111242
1.55197e-05
0.00110854
1.57876e-05
0.00110429
1.69732e-05
0.00109994
1.70683e-05
0.00109499
1.89106e-05
0.00109715
-8.02854e-06
0.00110207
-1.78818e-05
0.0011026
-8.54423e-07
0.00110178
4.02068e-06
0.00110068
4.90982e-06
0.00109946
5.22785e-06
0.00109825
5.14278e-06
0.00109701
5.1581e-06
0.00109581
5.01001e-06
0.00109461
4.89391e-06
0.00109345
4.71365e-06
0.00109232
4.54468e-06
0.0010912
4.46317e-06
0.00109011
4.29015e-06
0.00108904
4.15277e-06
0.001088
4.01097e-06
0.00108701
3.82367e-06
0.00108603
3.69302e-06
0.00108512
3.46455e-06
0.00108419
3.40198e-06
0.0010831
4.02245e-06
0.00108165
5.20039e-06
0.00108005
5.76039e-06
0.00107816
6.63964e-06
0.00107615
7.18373e-06
0.00107377
8.3053e-06
0.00107122
9.06413e-06
0.00106828
1.02302e-05
0.00106466
1.27741e-05
0.00106093
1.29872e-05
0.00105641
1.60078e-05
0.00105097
1.88224e-05
0.00104503
2.10398e-05
0.00103803
2.43679e-05
0.00102952
3.0188e-05
0.001019
3.64592e-05
0.00100726
4.18376e-05
0.000990087
5.96021e-05
0.000981402
3.21763e-05
0.00074504
0.00104596
-0.00254872
0.00130037
0.00256776
0.0014411
-0.00285815
0.0019942
0.00222934
0.00154657
0.00165723
0.00136884
0.00064787
0.0013028
0.000250528
0.00127014
0.000141627
0.00126033
5.39238e-05
0.00126306
6.59804e-06
0.0012726
-1.83118e-05
0.00128633
-3.38174e-05
0.00130228
-4.03327e-05
0.00131796
-3.91344e-05
0.00133412
-4.09068e-05
0.00134738
-3.20843e-05
0.0013609
-3.96053e-05
0.00137138
-3.03459e-05
0.00138181
-3.46589e-05
0.00139105
-2.98903e-05
0.00139929
-2.76205e-05
0.00140707
-2.57517e-05
0.00141296
-1.81506e-05
0.00141849
-1.75761e-05
0.00142227
-9.89852e-06
0.00142524
-7.4776e-06
0.00142725
-3.27833e-06
0.00142817
5.90807e-07
0.00142877
1.73629e-06
0.00142819
6.63417e-06
0.00142736
7.25578e-06
0.00142574
1.0592e-05
0.00142377
1.16092e-05
0.00142135
1.34641e-05
0.00141855
1.48124e-05
0.00141546
1.59065e-05
0.00141196
1.73977e-05
0.00140828
1.80236e-05
0.00140416
1.96396e-05
0.00139988
2.00598e-05
0.00139519
2.16706e-05
0.00139037
2.18817e-05
0.00138489
2.43942e-05
0.0013866
-9.73649e-06
0.00139163
-2.29205e-05
0.00139244
-1.66555e-06
0.00139164
4.82963e-06
0.00139045
6.09768e-06
0.00138912
6.55634e-06
0.00138779
6.46919e-06
0.00138644
6.5123e-06
0.00138511
6.33878e-06
0.00138379
6.21121e-06
0.00138252
5.98703e-06
0.00138127
5.79091e-06
0.00138005
5.68761e-06
0.00137885
5.49033e-06
0.00137768
5.31963e-06
0.00137653
5.15852e-06
0.00137544
4.91316e-06
0.00137436
4.77408e-06
0.00137336
4.46585e-06
0.00137234
4.42195e-06
0.00137111
5.24829e-06
0.00136943
6.8819e-06
0.00136755
7.64332e-06
0.00136531
8.87447e-06
0.0013629
9.60414e-06
0.00136004
1.11601e-05
0.00135691
1.21898e-05
0.00135333
1.38077e-05
0.00134891
1.72011e-05
0.00134429
1.76031e-05
0.00133871
2.1596e-05
0.00133199
2.55288e-05
0.00132459
2.84554e-05
0.00131585
3.3098e-05
0.00130525
4.08048e-05
0.00129213
4.9562e-05
0.00127741
5.65885e-05
0.0012559
8.10831e-05
0.00124495
4.31794e-05
0.000990032
0.00130085
-0.00318086
0.00162209
0.00317179
0.00175044
-0.00348114
0.00248024
0.00292089
0.00192186
0.00221561
0.00169793
0.000871802
0.00161414
0.00033432
0.00157403
0.000181728
0.00156224
6.57149e-05
0.00156616
2.67877e-06
0.00157873
-3.08783e-05
0.00159662
-5.17123e-05
0.00161752
-6.12335e-05
0.0016382
-5.9809e-05
0.0016597
-6.24075e-05
0.00167776
-5.01467e-05
0.00169594
-5.77807e-05
0.0017103
-4.47064e-05
0.00172405
-4.84147e-05
0.00173626
-4.20931e-05
0.00174701
-3.83796e-05
0.00175717
-3.59083e-05
0.001765
-2.59828e-05
0.0017723
-2.48681e-05
0.00177755
-1.51515e-05
0.00178172
-1.16479e-05
0.00178474
-6.30374e-06
0.0017864
-1.06766e-06
0.00178764
4.95916e-07
0.00178748
6.79311e-06
0.00178695
7.78599e-06
0.00178549
1.20574e-05
0.00178358
1.35144e-05
0.00178112
1.59206e-05
0.00177819
1.77517e-05
0.0017749
1.91943e-05
0.00177112
2.11724e-05
0.00176712
2.2022e-05
0.00176262
2.41403e-05
0.00175794
2.47409e-05
0.00175277
2.68455e-05
0.00174746
2.71819e-05
0.0017414
3.04619e-05
0.00174261
-1.09511e-05
0.00174778
-2.80949e-05
0.00174893
-2.81136e-06
0.00174818
5.5779e-06
0.00174693
7.34434e-06
0.00174551
7.9823e-06
0.00174407
7.90071e-06
0.00174261
7.98026e-06
0.00174116
7.78164e-06
0.00173973
7.64355e-06
0.00173835
7.36946e-06
0.00173699
7.1456e-06
0.00173566
7.01535e-06
0.00173436
6.79638e-06
0.00173309
6.58201e-06
0.00173184
6.41438e-06
0.00173066
6.09398e-06
0.00172948
5.95257e-06
0.00172839
5.55063e-06
0.00172728
5.53337e-06
0.00172592
6.61354e-06
0.00172397
8.82279e-06
0.00172177
9.84797e-06
0.00171912
1.15172e-05
0.00171623
1.24982e-05
0.00171281
1.45799e-05
0.00170901
1.59931e-05
0.00170467
1.81465e-05
0.00169928
2.25877e-05
0.00169358
2.33002e-05
0.00168673
2.84516e-05
0.00167847
3.37863e-05
0.00166927
3.76591e-05
0.00165842
4.39388e-05
0.00164529
5.3951e-05
0.00162899
6.58424e-05
0.00161063
7.49734e-05
0.00158385
0.000107841
0.00157004
5.7044e-05
0.00129091
0.00157997
-0.0039
0.00200993
0.0038973
0.00207384
-0.00422068
0.0030723
0.00374588
0.00238057
0.00290733
0.00210046
0.00115192
0.00199454
0.000440233
0.00194524
0.000231037
0.00193106
7.98861e-05
0.00193645
-2.70977e-06
0.00195274
-4.71634e-05
0.00197574
-7.47187e-05
0.00200271
-8.81995e-05
0.00202952
-8.66144e-05
0.00205756
-9.04548e-05
0.00208157
-7.41513e-05
0.00210562
-8.1829e-05
0.00212495
-6.40413e-05
0.00214304
-6.65002e-05
0.00215909
-5.81428e-05
0.00217312
-5.24112e-05
0.00218634
-4.91353e-05
0.00219671
-3.63528e-05
0.0022063
-3.44584e-05
0.00221349
-2.23361e-05
0.00221925
-1.74107e-05
0.00222365
-1.06999e-05
0.00222632
-3.73953e-06
0.00222846
-1.64029e-06
0.00222891
6.34106e-06
0.00222885
7.8449e-06
0.00222767
1.32357e-05
0.00222592
1.52659e-05
0.0022235
1.83374e-05
0.00222047
2.07797e-05
0.00221703
2.26363e-05
0.00221299
2.52094e-05
0.0022087
2.63202e-05
0.0022038
2.90323e-05
0.0021987
2.98429e-05
0.00219303
3.25188e-05
0.00218721
3.29953e-05
0.00218052
3.7152e-05
0.00218119
-1.16138e-05
0.00218649
-3.3399e-05
0.00218803
-4.35548e-06
0.00218741
6.20662e-06
0.00218613
8.6159e-06
0.00218463
9.48515e-06
0.00218311
9.42164e-06
0.00218154
9.55009e-06
0.00217999
9.32678e-06
0.00217846
9.18051e-06
0.00217697
8.85245e-06
0.00217552
8.5999e-06
0.0021741
8.43761e-06
0.00217269
8.20101e-06
0.00217134
7.9333e-06
0.00216998
7.77033e-06
0.00216872
7.35514e-06
0.00216745
7.22497e-06
0.0021663
6.70629e-06
0.0021651
6.72923e-06
0.00216359
8.12459e-06
0.00216136
1.10545e-05
0.00215879
1.24197e-05
0.00215567
1.46353e-05
0.00215222
1.59507e-05
0.00214812
1.86713e-05
0.00214352
2.05998e-05
0.00213826
2.33985e-05
0.00213173
2.91249e-05
0.00212472
3.03065e-05
0.00211634
3.6837e-05
0.00210619
4.3929e-05
0.00209482
4.90338e-05
0.00208141
5.73481e-05
0.00206519
7.0175e-05
0.00204503
8.59995e-05
0.00202223
9.7788e-05
0.00198902
0.000141036
0.00197158
7.4514e-05
0.00166226
0.00188927
-0.00471637
0.00247859
0.00476966
0.00240534
-0.00510116
0.00379446
0.00472108
0.00294296
0.00375883
0.00259441
0.00150047
0.00246072
0.000573921
0.0023999
0.000291856
0.00238276
9.70292e-05
0.0023899
-9.85331e-06
0.0024107
-6.79634e-05
0.00243994
-0.000103956
0.00247431
-0.000122567
0.00250861
-0.00012092
0.00254467
-0.000126516
0.00257599
-0.000105472
0.00260736
-0.000113194
0.00263299
-8.96735e-05
0.00265664
-9.01454e-05
0.00267762
-7.91243e-05
0.00269586
-7.06517e-05
0.00271302
-6.62988e-05
0.00272666
-4.99942e-05
0.00273922
-4.70184e-05
0.00274891
-3.20225e-05
0.00275676
-2.52665e-05
0.00276296
-1.69006e-05
0.00276701
-7.785e-06
0.00277036
-4.99125e-06
0.00277168
5.02687e-06
0.00277231
7.21295e-06
0.00277158
1.39577e-05
0.00277013
1.67246e-05
0.00276785
2.06087e-05
0.00276482
2.38145e-05
0.00276128
2.61749e-05
0.00275702
2.9471e-05
0.00275245
3.0892e-05
0.00274717
3.43091e-05
0.00274165
3.53637e-05
0.00273546
3.87013e-05
0.00272912
3.93351e-05
0.00272179
4.44901e-05
0.00272182
-1.16475e-05
0.00272723
-3.88081e-05
0.00272924
-6.36718e-06
0.00272881
6.63866e-06
0.00272756
9.86315e-06
0.00272601
1.10328e-05
0.00272443
1.1006e-05
0.00272278
1.11998e-05
0.00272115
1.09522e-05
0.00271952
1.08059e-05
0.00271796
1.04139e-05
0.00271642
1.01365e-05
0.00271493
9.93546e-06
0.00271343
9.69139e-06
0.00271201
9.35569e-06
0.00271057
9.21251e-06
0.00270924
8.68145e-06
0.00270789
8.57469e-06
0.00270669
7.91498e-06
0.00270542
7.99648e-06
0.00270376
9.78037e-06
0.00270121
1.36084e-05
0.00269822
1.5409e-05
0.00269455
1.8304e-05
0.00269044
2.00563e-05
0.00268555
2.35563e-05
0.00267999
2.61646e-05
0.00267365
2.97362e-05
0.00266573
3.70464e-05
0.00265714
3.88892e-05
0.00264691
4.70723e-05
0.00263449
5.63475e-05
0.00262048
6.30541e-05
0.00260394
7.38757e-05
0.00258398
9.01467e-05
0.0025591
0.000110866
0.00253089
0.000126016
0.00248987
0.000182042
0.00246777
9.6654e-05
0.00212321
0.00223383
-0.00563982
0.00304656
0.00581917
0.00273718
-0.00615099
0.00467563
0.00586463
0.00363367
0.00480079
0.00320185
0.00193229
0.00303312
0.00074265
0.00295779
0.000367186
0.00293686
0.000117961
0.00294603
-1.90262e-05
0.00297226
-9.4195e-05
0.00300906
-0.000140748
0.00305242
-0.000165929
0.00309587
-0.000164367
0.00314171
-0.000172357
0.003182
-0.000145762
0.00322242
-0.000153619
0.00325595
-0.000123198
0.00328665
-0.000120845
0.0033139
-0.000106374
0.00333751
-9.42699e-05
0.00335968
-8.84691e-05
0.00337751
-6.78243e-05
0.00339388
-6.33808e-05
0.00340679
-4.49311e-05
0.00341736
-3.58394e-05
0.00342592
-2.54583e-05
0.00343179
-1.36575e-05
0.00343676
-9.96226e-06
0.00343926
2.52421e-06
0.00344087
5.60489e-06
0.00344083
1.3999e-05
0.00343984
1.77086e-05
0.00343787
2.25867e-05
0.00343494
2.6746e-05
0.00343139
2.97205e-05
0.00342696
3.38976e-05
0.00342216
3.56901e-05
0.00341653
3.99461e-05
0.00341061
4.1284e-05
0.00340392
4.53912e-05
0.00339705
4.61998e-05
0.00338905
5.2489e-05
0.00338838
-1.09695e-05
0.00339384
-4.42736e-05
0.00339638
-8.91122e-06
0.00339624
6.77947e-06
0.00339509
1.10192e-05
0.00339354
1.25787e-05
0.00339193
1.26153e-05
0.00339024
1.28954e-05
0.00338856
1.26275e-05
0.00338688
1.24893e-05
0.00338527
1.20256e-05
0.00338367
1.17284e-05
0.00338213
1.14804e-05
0.00338058
1.12423e-05
0.00337911
1.08251e-05
0.0033776
1.07174e-05
0.00337624
1.00456e-05
0.00337483
9.98385e-06
0.00337359
9.14967e-06
0.00337228
9.31309e-06
0.00337048
1.15775e-05
0.00336757
1.65154e-05
0.00336411
1.88706e-05
0.0033598
2.26113e-05
0.00335493
2.49289e-05
0.00334911
2.93797e-05
0.0033424
3.28696e-05
0.00333476
3.73739e-05
0.00332519
4.66268e-05
0.0033147
4.93763e-05
0.00330223
5.95415e-05
0.00328705
7.15237e-05
0.00326983
8.02795e-05
0.0032495
9.41989e-05
0.00322499
0.000114669
0.00319438
0.000141466
0.00315958
0.000160832
0.00310906
0.000232544
0.00308094
0.000124804
0.00269781
0.00261694
-0.00667824
0.00373621
0.00708216
0.00305862
-0.00740361
0.00575096
0.00719583
0.00448293
0.00606882
0.00395011
0.00246511
0.00373705
0.000955705
0.00364328
0.000460957
0.00361742
0.000143826
0.00362887
-3.0476e-05
0.00366158
-0.000126905
0.00370748
-0.000186649
0.00376173
-0.000220186
0.00381628
-0.000218913
0.00387403
-0.000230103
0.00392526
-0.000197001
0.00397684
-0.000205192
0.00402018
-0.000166538
0.00405975
-0.000160419
0.00409491
-0.000141536
0.00412535
-0.000124704
0.00415386
-0.000116979
0.00417701
-9.09818e-05
0.00419822
-8.45883e-05
0.00421525
-6.19614e-05
0.00422933
-4.99182e-05
0.00424094
-3.70642e-05
0.00424921
-2.1931e-05
0.00425632
-1.70745e-05
0.00426043
-1.58245e-06
0.00426338
2.65433e-06
0.00426431
1.30665e-05
0.00426405
1.79709e-05
0.00426256
2.40715e-05
0.00425989
2.94174e-05
0.00425647
3.31429e-05
0.00425197
3.83978e-05
0.00424702
4.06346e-05
0.00424108
4.58912e-05
0.0042348
4.75596e-05
0.00422763
5.25642e-05
0.00422026
5.35688e-05
0.00421161
6.11324e-05
0.00421014
-9.49658e-06
0.00421559
-4.9725e-05
0.00421873
-1.20497e-05
0.004219
6.51163e-06
0.00421802
1.19946e-05
0.00421654
1.40556e-05
0.00421497
1.4192e-05
0.00421328
1.4585e-05
0.0042116
1.43046e-05
0.0042099
1.4185e-05
0.00420829
1.36421e-05
0.00420668
1.33321e-05
0.00420513
1.303e-05
0.00420356
1.28157e-05
0.00420208
1.22974e-05
0.00420055
1.22507e-05
0.00419919
1.14063e-05
0.00419776
1.14153e-05
0.00419654
1.03721e-05
0.0041952
1.06443e-05
0.00419328
1.34974e-05
0.00418999
1.98052e-05
0.004186
2.28646e-05
0.00418096
2.76521e-05
0.00417519
3.06964e-05
0.00416826
3.63073e-05
0.0041602
4.09289e-05
0.00415101
4.65596e-05
0.00413945
5.81956e-05
0.00412667
6.2151e-05
0.00411151
7.47079e-05
0.004093
9.00253e-05
0.00407189
0.000101394
0.00404696
0.000119124
0.00401692
0.000144722
0.00397935
0.000179017
0.00393652
0.000203677
0.00387452
0.000294532
0.0038385
0.000160863
0.00341648
0.00303897
-0.00783665
0.00457482
0.00860256
0.00335472
-0.00889864
0.00706353
0.00873486
0.00552794
0.00760441
0.00487314
0.00311991
0.00460394
0.00122491
0.00448656
0.000578328
0.00445418
0.000176215
0.00446807
-4.43738e-05
0.00450844
-0.00016727
0.00456525
-0.000243466
0.00463265
-0.000287584
0.00470062
-0.000286881
0.00477281
-0.000302291
0.00483736
-0.000261554
0.00490258
-0.000270414
0.00495804
-0.000221994
0.00500869
-0.000211066
0.00505377
-0.000186619
0.00509279
-0.000163726
0.00512929
-0.000153473
0.00515918
-0.000120875
0.00518653
-0.000111935
0.0052088
-8.42329e-05
0.00522736
-6.84816e-05
0.00524289
-5.25924e-05
0.00525429
-3.3331e-05
0.0052642
-2.69804e-05
0.00527044
-7.82857e-06
0.0052752
-2.105e-06
0.00527749
1.07756e-05
0.00527827
1.71912e-05
0.00527754
2.47986e-05
0.00527535
3.16165e-05
0.00527222
3.6268e-05
0.00526778
4.28352e-05
0.00526281
4.56098e-05
0.00525664
5.20603e-05
0.00525008
5.41166e-05
0.00524248
6.01655e-05
0.00523466
6.13888e-05
0.00522542
7.03761e-05
0.00522308
-7.1577e-06
0.00522842
-5.50668e-05
0.0052322
-1.5829e-05
0.00523301
5.69976e-06
0.00523234
1.26696e-05
0.00523102
1.53719e-05
0.00522956
1.56539e-05
0.00522794
1.61995e-05
0.00522634
1.59112e-05
0.00522469
1.58321e-05
0.00522313
1.51964e-05
0.00522158
1.48881e-05
0.00522009
1.45205e-05
0.00521855
1.43548e-05
0.00521713
1.37161e-05
0.00521562
1.37581e-05
0.00521432
1.27068e-05
0.00521292
1.28207e-05
0.00521177
1.15228e-05
0.00521047
1.1941e-05
0.00520845
1.55118e-05
0.00520475
2.35048e-05
0.00520017
2.7448e-05
0.00519428
3.35382e-05
0.00518748
3.75039e-05
0.00517925
4.4535e-05
0.00516958
5.05946e-05
0.00515855
5.75916e-05
0.00514461
7.21394e-05
0.00512908
7.76779e-05
0.00511067
9.31209e-05
0.00508815
0.000112543
0.00506234
0.000127209
0.00503183
0.000149627
0.00499508
0.000181475
0.0049491
0.000225001
0.00489651
0.000256266
0.00482064
0.000370405
0.00477419
0.000207318
0.00431804
0.00349512
-0.00911493
0.00559632
0.0104337
0.00360403
-0.0106831
0.00866626
0.0105023
0.00681463
0.00945604
0.00601325
0.00392128
0.00567294
0.00156523
0.00552518
0.000726087
0.00548405
0.000217345
0.00550041
-6.07415e-05
0.00554973
-0.000216586
0.00561955
-0.000313284
0.00570272
-0.000370759
0.00578685
-0.000371009
0.0058765
-0.000391939
0.00595717
-0.00034222
0.00603903
-0.000352275
0.00610935
-0.000292319
0.00617372
-0.000275436
0.00623116
-0.000244057
0.00628093
-0.000213498
0.00632742
-0.000199964
0.00636579
-0.000159244
0.00640087
-0.000147017
0.00642977
-0.000113132
0.00645405
-9.27571e-05
0.00647458
-7.31231e-05
0.00649001
-4.87659e-05
0.00650354
-4.05077e-05
0.00651259
-1.68843e-05
0.00651976
-9.27529e-06
0.0065239
6.64003e-06
0.00652614
1.495e-05
0.00652652
2.44215e-05
0.00652507
3.30593e-05
0.00652249
3.8854e-05
0.0065183
4.70197e-05
0.00651346
5.04481e-05
0.0065072
5.83228e-05
0.00650048
6.0835e-05
0.00649254
6.81028e-05
0.00648436
6.95703e-05
0.00647461
8.01303e-05
0.00647136
-3.9091e-06
0.00647648
-6.01905e-05
0.00648093
-2.02794e-05
0.00648244
4.19149e-06
0.00648222
1.28918e-05
0.00648119
1.63978e-05
0.00647995
1.68904e-05
0.00647852
1.76368e-05
0.00647708
1.73492e-05
0.00647557
1.73375e-05
0.00647417
1.65958e-05
0.00647275
1.63096e-05
0.00647141
1.58605e-05
0.00646998
1.57802e-05
0.00646871
1.49924e-05
0.0064673
1.51658e-05
0.00646614
1.38617e-05
0.00646484
1.41263e-05
0.00646384
1.2521e-05
0.00646265
1.31307e-05
0.00646059
1.7573e-05
0.00645646
2.76295e-05
0.00645123
3.26797e-05
0.00644438
4.03838e-05
0.00643637
4.55132e-05
0.00642662
5.42836e-05
0.00641506
6.21556e-05
0.00640184
7.08137e-05
0.00638506
8.89178e-05
0.00636624
9.64978e-05
0.00634392
0.000115442
0.00631657
0.000139888
0.00628509
0.0001587
0.00624784
0.000186874
0.00620298
0.000226336
0.0061468
0.000281174
0.0060824
0.00032068
0.00598981
0.000462979
0.00592953
0.000267631
0.00545267
0.00397198
-0.0105059
0.00684356
0.0126408
0.00377581
-0.0128126
0.0106244
0.0125188
0.00839979
0.0116806
0.00742327
0.00489781
0.00699301
0.00199548
0.0068059
0.000913201
0.00675292
0.000270318
0.00677154
-7.93574e-05
0.00683119
-0.000276231
0.00691638
-0.000398477
0.0070184
-0.000472784
0.0071219
-0.000474504
0.00723258
-0.000502619
0.00733267
-0.000442309
0.00743472
-0.000454323
0.00752317
-0.000380776
0.00760443
-0.000356688
0.00767715
-0.000316779
0.00774028
-0.000276633
0.00779922
-0.000258906
0.00784819
-0.000208206
0.00789296
-0.000191792
0.00793019
-0.000150366
0.00796169
-0.000124247
0.00798856
-0.000100002
0.00800917
-6.93668e-05
0.00802734
-5.86821e-05
0.00804005
-2.95958e-05
0.00805038
-1.96072e-05
0.00805699
3.73349e-08
0.00806122
1.07139e-05
0.00806315
2.249e-05
0.00806284
3.33771e-05
0.00806111
4.05821e-05
0.00805743
5.06964e-05
0.00805296
5.49185e-05
0.00804679
6.44966e-05
0.00804008
6.75411e-05
0.00803195
7.62332e-05
0.00802355
7.79719e-05
0.00801343
9.02517e-05
0.00800927
2.485e-07
0.00801406
-6.4979e-05
0.00801918
-2.53994e-05
0.00802155
1.82118e-06
0.00802197
1.24685e-05
0.0080214
1.69696e-05
0.00802054
1.77499e-05
0.00801942
1.87602e-05
0.00801828
1.84873e-05
0.00801704
1.85762e-05
0.00801592
1.77143e-05
0.00801475
1.74759e-05
0.00801369
1.6928e-05
0.00801249
1.6979e-05
0.00801147
1.6008e-05
0.00801027
1.63663e-05
0.00800938
1.47575e-05
0.00800827
1.52298e-05
0.00800754
1.32556e-05
0.00800655
1.41142e-05
0.00800452
1.96067e-05
0.00799997
3.21833e-05
0.00799404
3.8611e-05
0.0079861
4.83172e-05
0.00797671
5.4905e-05
0.00796519
6.58061e-05
0.00795139
7.59491e-05
0.00793558
8.6632e-05
0.00791543
0.000109068
0.00789267
0.000119253
0.00786567
0.000142448
0.00783252
0.000173037
0.0077942
0.000197019
0.00774881
0.000232258
0.00769417
0.000280986
0.00762568
0.000349655
0.00754697
0.000399394
0.00743434
0.00057561
0.00735569
0.000346287
0.00688592
0.00444176
-0.0119914
0.00837147
0.0153034
0.00382541
-0.015353
0.0130184
0.0148038
0.0103539
0.0143452
0.00916925
0.00608243
0.00862554
0.00253919
0.00838724
0.0011515
0.00831809
0.000339467
0.00833831
-9.95786e-05
0.0084097
-0.000347614
0.00851292
-0.000501699
0.00863734
-0.000597203
0.00876392
-0.000601093