/*--------------------------------*- C++ -*----------------------------------*\
| =========                 |                                                 |
| \\      /  F ield         | OpenFOAM: The Open Source CFD Toolbox           |
|  \\    /   O peration     | Version:  5.x                                   |
|   \\  /    A nd           | Web:      www.OpenFOAM.org                      |
|    \\/     M anipulation  |                                                 |
\*---------------------------------------------------------------------------*/
FoamFile
{
    version     2.0;
    format      ascii;
    class       volVectorField;
    location    "1000";
    object      U;
}
// * * * * * * * * * * * * * * * * * * * * * * * * * * * * * * * * * * * * * //

dimensions      [0 1 -1 0 0 0 0];

internalField   nonuniform List<vector> 
11040
(
(-2.54689 16.4472 0)
(-0.0645203 20.7052 -1.26111e-19)
(4.35056 23.3978 1.22901e-17)
(8.60006 23.0597 1.4413e-17)
(12.0273 21.3137 3.19461e-17)
(14.5527 18.8671 -1.57659e-17)
(16.2583 16.1367 -1.57161e-17)
(17.2756 13.3873 1.60544e-17)
(17.7348 10.7865 3.65673e-17)
(17.7042 8.39716 1.19302e-18)
(16.9554 6.03045 1.80828e-17)
(15.7842 4.07082 -9.79668e-19)
(14.8147 2.84337 1.56803e-17)
(14.2745 2.17705 1.48848e-17)
(13.8028 1.6464 1.18917e-17)
(13.1972 1.13248 7.03587e-18)
(12.4789 0.668425 -5.54556e-18)
(11.714 0.272893 -4.61986e-19)
(10.9221 -0.0579163 4.81711e-19)
(10.1007 -0.328152 2.59861e-18)
(9.24129 -0.539899 1.7823e-18)
(8.45606 -0.674663 1.10626e-18)
(7.74502 -0.753258 6.57111e-19)
(7.02909 -0.798803 -9.25243e-20)
(6.30504 -0.81441 -5.05973e-20)
(5.57146 -0.801601 1.53606e-19)
(4.82692 -0.761214 -1.36526e-17)
(4.07565 -0.693023 3.14482e-19)
(3.32881 -0.606136 -2.41932e-17)
(2.56411 -0.505701 3.0457e-17)
(1.79195 -0.38529 6.15128e-19)
(1.0266 -0.247322 4.58658e-19)
(0.348479 -0.103342 -6.0105e-19)
(-0.251033 0.031523 0)
(-0.69309 0.144096 1.72905e-16)
(-1.03708 0.258682 0)
(-1.51072 0.418764 0)
(-2.19053 0.582278 -1.94243e-19)
(-2.83018 0.591693 2.14629e-19)
(-2.97922 0.22141 -7.85529e-17)
(-1.88223 -0.346058 -1.02008e-16)
(0.108593 16.0245 0)
(2.94455 19.2423 0)
(8.25704 20.7037 -7.20976e-18)
(12.9109 20.202 7.88026e-18)
(16.3957 18.8612 -1.96933e-17)
(18.9749 17.3033 2.07842e-17)
(20.8145 15.5459 1.00634e-17)
(21.9793 13.6184 1.3301e-18)
(22.5493 11.5927 -7.69716e-19)
(22.6247 9.56396 1.14609e-17)
(22.1387 7.44616 -1.29359e-18)
(20.9772 5.59005 0)
(19.5531 4.24837 0)
(18.312 3.29541 -7.80901e-18)
(17.3045 2.45474 -7.96294e-18)
(16.3492 1.72921 -5.50388e-18)
(15.3958 1.13096 0)
(14.4472 0.635648 2.58984e-19)
(13.4951 0.224097 -7.04024e-19)
(12.5278 -0.111333 -3.47602e-19)
(11.535 -0.37527 -1.09745e-18)
(10.628 -0.553142 -5.90458e-19)
(9.8235 -0.666117 1.68786e-21)
(9.02483 -0.739873 -4.8388e-19)
(8.22428 -0.778415 1.21552e-18)
(7.41661 -0.784577 1.45658e-19)
(6.59683 -0.761093 6.37543e-18)
(5.75932 -0.709997 -1.42284e-19)
(4.89848 -0.634556 1.05857e-17)
(4.02498 -0.537362 -1.27424e-17)
(3.1459 -0.421199 -1.57009e-17)
(2.2759 -0.292884 1.95488e-17)
(1.43381 -0.159906 1.49987e-20)
(0.660298 -0.0294855 -6.49573e-19)
(0.0159768 0.0874949 -3.27323e-17)
(-0.52826 0.211169 0)
(-1.15331 0.391866 -2.346e-19)
(-1.77285 0.578368 5.11856e-17)
(-2.07499 0.681676 4.62445e-17)
(-1.75224 0.384091 4.24562e-17)
(-1.36978 -0.588815 7.30065e-17)
(1.50387 15.4868 0)
(4.17232 17.9441 0)
(7.94242 19.3552 1.97799e-18)
(11.5604 19.5517 -5.61629e-18)
(14.5704 18.8291 5.99855e-18)
(17.0895 17.539 -7.62762e-18)
(19.1549 15.899 -6.19167e-18)
(20.7369 14.0597 0)
(21.8289 12.1258 -1.00348e-17)
(22.4626 10.1743 -5.95228e-18)
(22.6098 8.15241 0)
(22.1286 6.34967 0)
(21.2248 4.95774 -6.24881e-18)
(20.2403 3.89197 -5.68549e-18)
(19.2773 2.94052 -6.07087e-19)
(18.2818 2.1151 6.26952e-19)
(17.254 1.42667 0)
(16.2225 0.853666 0)
(15.1919 0.377873 1.69866e-19)
(14.1528 -0.0101208 -2.13581e-19)
(13.0935 -0.316592 2.17628e-19)
(12.1282 -0.531039 -3.62145e-19)
(11.2735 -0.668593 -7.44549e-20)
(10.4292 -0.760803 -2.63035e-19)
(9.58757 -0.813554 -5.3222e-20)
(8.74276 -0.830565 -9.41553e-20)
(7.88904 -0.815177 -6.6007e-20)
(7.0207 -0.770079 1.55366e-19)
(6.13325 -0.698233 0)
(5.22802 -0.602781 0)
(4.30906 -0.488326 1.90438e-17)
(3.38802 -0.36216 -2.19854e-17)
(2.48289 -0.23211 1.26082e-17)
(1.62538 -0.107407 0)
(0.862432 0.00891801 1.71331e-17)
(0.210028 0.138045 1.9557e-17)
(-0.427378 0.306862 0)
(-0.980713 0.426896 1.81038e-19)
(-1.26102 0.440115 -1.28238e-19)
(-1.05624 0.0992017 0)
(-1.26764 -0.94206 -3.44055e-17)
(2.88013 14.8485 3.47536e-20)
(5.37232 16.7744 -3.16931e-20)
(8.31506 17.9576 5.92165e-19)
(11.4522 18.2654 0)
(14.2706 17.7565 -7.07525e-18)
(16.6427 16.7173 0)
(18.5793 15.335 1.40149e-17)
(20.0788 13.7276 -4.47135e-20)
(21.1551 11.9982 1.40911e-18)
(21.8476 10.2321 9.46806e-18)
(22.1637 8.4066 1.39651e-18)
(22.0123 6.71831 3.86399e-18)
(21.493 5.35648 1.10311e-17)
(20.8397 4.29228 4.49545e-18)
(20.1438 3.34317 0)
(19.3553 2.49087 -8.3341e-19)
(18.4665 1.75323 1.42582e-19)
(17.5142 1.12451 -5.73433e-19)
(16.5218 0.593578 -2.30974e-19)
(15.4954 0.154091 2.35267e-19)
(14.4334 -0.197957 5.33953e-19)
(13.4571 -0.447841 3.34046e-19)
(12.5869 -0.61221 0)
(11.7249 -0.726872 5.03441e-19)
(10.8652 -0.798269 -7.35891e-19)
(10.0031 -0.830564 1.13119e-18)
(9.13319 -0.827525 -3.16991e-18)
(8.25032 -0.792328 0)
(7.35017 -0.72819 0)
(6.43103 -0.638888 0)
(5.49388 -0.529656 -6.88735e-18)
(4.54508 -0.408223 8.13307e-18)
(3.59776 -0.28338 -2.82676e-19)
(2.67493 -0.164905 -1.04103e-17)
(1.81312 -0.0530174 -1.10162e-17)
(1.05727 0.0745316 -1.29736e-17)
(0.384253 0.227592 -2.76767e-17)
(-0.173674 0.307945 -2.72601e-17)
(-0.542341 0.276035 -1.04261e-19)
(-0.468019 -0.0652111 -2.35926e-17)
(-1.11736 -1.09743 1.41171e-17)
(4.23578 14.1209 0)
(6.43655 15.6314 -4.50548e-20)
(8.78978 16.5971 -3.62478e-19)
(11.3701 17.0046 2.17902e-19)
(13.8305 16.7826 5.18388e-18)
(16.0047 16.0629 -5.66276e-18)
(17.8688 14.9614 -1.33583e-18)
(19.3778 13.5764 -7.24091e-18)
(20.5019 12.016 0)
(21.2576 10.377 -8.7332e-18)
(21.661 8.67054 0)
(21.666 7.04874 -2.20138e-18)
(21.3378 5.69183 -5.82461e-18)
(20.8609 4.61165 0)
(20.3422 3.66551 3.10808e-18)
(19.7503 2.81126 0)
(19.0565 2.05945 0)
(18.2753 1.40711 5.87672e-19)
(17.4225 0.844893 4.82409e-19)
(16.5051 0.368862 0)
(15.5251 -0.0211546 -4.34098e-19)
(14.6037 -0.304618 0)
(13.768 -0.496918 0)
(12.9306 -0.636166 -1.75612e-19)
(12.0888 -0.728851 0)
(11.2401 -0.779387 8.74598e-19)
(10.3808 -0.791787 2.45419e-18)
(9.50684 -0.769616 0)
(8.6145 -0.716461 0)
(7.70127 -0.636572 0)
(6.76641 -0.535719 5.61435e-18)
(5.81223 -0.422154 5.43834e-18)
(4.84575 -0.305305 -6.55995e-18)
(3.88115 -0.195229 -2.30598e-19)
(2.94268 -0.0928645 2.60318e-19)
(2.08339 0.0228385 0)
(1.33554 0.155032 2.03825e-17)
(0.726735 0.209811 -2.15656e-17)
(0.226035 0.150601 2.26791e-17)
(0.138964 -0.153317 2.18657e-17)
(-0.774334 -1.12053 2.56306e-20)
(5.48397 13.3352 -8.93606e-20)
(7.37398 14.5161 5.28929e-20)
(9.28791 15.2952 -2.20938e-20)
(11.3862 15.7336 2.27545e-19)
(13.4912 15.7059 -8.3854e-19)
(15.4426 15.2472 5.52884e-18)
(17.1877 14.4262 -6.8313e-18)
(18.668 13.3066 5.89555e-18)
(19.8287 11.9724 2.89849e-18)
(20.6582 10.5113 -1.49203e-18)
(21.1616 8.95202 0)
(21.304 7.4139 0)
(21.1205 6.06115 1.36043e-18)
(20.7542 4.94479 -1.43614e-18)
(20.3226 3.9775 -4.9319e-18)
(19.8335 3.11265 1.04069e-18)
(19.266 2.34945 -1.98346e-18)
(18.6246 1.6839 1.02882e-19)
(17.9168 1.10519 -6.02514e-19)
(17.142 0.607639 1.05418e-18)
(16.296 0.191826 -9.31433e-19)
(15.4837 -0.11792 2.23275e-19)
(14.7327 -0.334371 -7.59088e-20)
(13.9685 -0.496752 6.75348e-20)
(13.1904 -0.611075 -4.84855e-19)
(12.3976 -0.681475 -1.17782e-20)
(11.5879 -0.711758 -2.2566e-18)
(10.7585 -0.705497 -2.22146e-18)
(9.90664 -0.666422 0)
(9.02986 -0.599044 0)
(8.12657 -0.509462 -3.89507e-18)
(7.19653 -0.40621 -9.64921e-18)
(6.24187 -0.299134 -3.3362e-19)
(5.26889 -0.198674 5.81284e-18)
(4.2894 -0.108284 6.83799e-18)
(3.34778 -0.011969 -7.36146e-18)
(2.50344 0.0921859 2.42935e-19)
(1.80161 0.126229 3.35485e-17)
(1.1666 0.0475343 -3.62072e-17)
(0.856752 -0.205031 7.6072e-20)
(-0.153223 -1.03802 1.3164e-17)
(6.60745 12.5188 0)
(8.20708 13.4377 -1.49436e-19)
(9.77885 14.0636 -1.72339e-20)
(11.481 14.4838 1.40999e-19)
(13.2424 14.5763 1.20636e-18)
(14.9435 14.3236 2.02598e-18)
(16.5281 13.7523 -4.52958e-18)
(17.9364 12.8942 1.71365e-18)
(19.1022 11.8059 0)
(19.9931 10.5566 2.1777e-18)
(20.6009 9.18032 -4.34659e-18)
(20.889 7.76736 4.37545e-18)
(20.8611 6.45569 -1.76665e-19)
(20.6144 5.32065 0)
(20.2594 4.32803 1.06603e-18)
(19.8354 3.44327 1.217e-19)
(19.3397 2.65993 8.43807e-19)
(18.7792 1.97538 6.81164e-19)
(18.1648 1.37971 -2.70094e-19)
(17.498 0.865189 -3.02861e-19)
(16.7726 0.430492 4.34017e-19)
(16.0746 0.10155 2.42147e-19)
(15.4261 -0.133162 0)
(14.762 -0.31413 1.08624e-19)
(14.0809 -0.447165 4.50543e-19)
(13.3814 -0.536129 -6.30353e-19)
(12.6613 -0.584458 6.10281e-19)
(11.9179 -0.595463 2.02971e-18)
(11.1483 -0.572717 -3.25936e-19)
(10.3496 -0.520665 -3.99204e-20)
(9.51909 -0.445347 -2.43358e-18)
(8.65459 -0.355124 -8.78631e-19)
(7.75449 -0.2599 -3.55597e-18)
(6.81904 -0.17025 0)
(5.84983 -0.0924982 -4.92973e-18)
(4.87436 -0.0185998 5.76668e-18)
(3.94929 0.0521643 -6.12274e-18)
(3.13507 0.0643439 -2.5822e-17)
(2.36608 -0.0290104 1.39652e-17)
(1.8196 -0.235828 6.24625e-20)
(0.764582 -0.889765 -2.78928e-17)
(7.60068 11.6943 5.87007e-19)
(8.94527 12.4064 -1.59207e-19)
(10.244 12.9071 -1.53633e-19)
(11.6282 13.2829 -3.29532e-19)
(13.0803 13.4357 -8.37994e-19)
(14.5261 13.3295 -2.5003e-18)
(15.921 12.9633 2.64719e-18)
(17.2142 12.3437 3.62755e-18)
(18.341 11.5 -2.58059e-18)
(19.2591 10.479 0)
(19.9499 9.31018 -1.56764e-18)
(20.373 8.05967 2.83582e-20)
(20.5068 6.83523 -6.41086e-20)
(20.4036 5.71819 1.48652e-18)
(20.1511 4.71566 1.3804e-18)
(19.8028 3.81528 -1.43308e-18)
(19.3728 3.01134 0)
(18.8727 2.30329 0)
(18.318 1.68543 9.82729e-19)
(17.7176 1.15071 -8.2789e-19)
(17.0715 0.696734 1.26553e-19)
(16.4562 0.35032 -2.47161e-19)
(15.8901 0.0999123 -4.72958e-20)
(15.3152 -0.0964746 0)
(14.7299 -0.244877 1.78914e-19)
(14.1319 -0.349394 -1.83044e-19)
(13.5183 -0.413501 -6.38294e-19)
(12.8857 -0.440453 0)
(12.2303 -0.433721 0)
(11.5479 -0.397583 2.97958e-19)
(10.8339 -0.337784 2.61893e-18)
(10.0833 -0.262176 2.53889e-18)
(9.29074 -0.180285 5.89989e-18)
(8.45119 -0.102415 4.21037e-19)
(7.55854 -0.0369493 0)
(6.62329 0.0161487 -2.56151e-19)
(5.68074 0.0539246 4.7181e-18)
(4.78471 0.041506 -3.45973e-20)
(3.90088 -0.0627741 1.09358e-17)
(3.14822 -0.243609 1.1956e-17)
(2.02178 -0.711418 1.36064e-17)
(8.46723 10.8807 -3.59583e-19)
(9.59491 11.4308 -3.70498e-21)
(10.6725 11.8294 2.9167e-19)
(11.8026 12.1506 -4.09836e-19)
(12.9901 12.3222 0)
(14.1952 12.3084 8.05096e-19)
(15.3902 12.0953 -1.51958e-18)
(16.5378 11.6744 -2.18719e-18)
(17.5842 11.0541 1.60968e-18)
(18.4868 10.2592 2.08831e-18)
(19.222 9.30916 1.28069e-19)
(19.7484 8.24786 -4.27751e-18)
(20.0278 7.15305 0)
(20.076 6.09806 9.79477e-19)
(19.9507 5.11515 -2.28271e-18)
(19.7028 4.21564 -9.6295e-19)
(19.3561 3.40098 -8.48724e-19)
(18.9266 2.67387 8.7843e-19)
(18.4318 2.03346 -3.21486e-19)
(17.8858 1.47566 0)
(17.2954 0.999438 3.71789e-19)
(16.7348 0.633491 -5.17819e-19)
(16.2229 0.366029 3.93609e-20)
(15.7091 0.153649 -7.8327e-20)
(15.1934 -0.00986899 2.89676e-19)
(14.675 -0.129048 -2.95988e-19)
(14.1518 -0.207676 0)
(13.6213 -0.249214 1.62493e-18)
(13.0799 -0.257242 7.61262e-19)
(12.5233 -0.235993 4.21239e-19)
(11.946 -0.190943 -2.00683e-18)
(11.3409 -0.129358 -5.7865e-19)
(10.6995 -0.0601634 5.56953e-19)
(10.0118 0.00680935 -3.36382e-19)
(9.26538 0.0621104 -2.11971e-18)
(8.45678 0.100054 -3.77701e-19)
(7.59632 0.113192 0)
(6.71211 0.0791738 7.3155e-18)
(5.78354 -0.0321149 -8.03093e-18)
(4.90473 -0.204937 -8.81238e-18)
(3.70096 -0.528482 0)
(9.21511 10.0938 0)
(10.1612 10.5175 0)
(11.0585 10.8326 0)
(11.985 11.0986 1.23519e-18)
(12.9534 11.2637 -3.53898e-19)
(13.9447 11.2999 2.23993e-20)
(14.9461 11.1908 -2.02248e-19)
(15.9341 10.9216 -2.93171e-19)
(16.8695 10.4884 9.09455e-19)
(17.7163 9.89908 1.33639e-18)
(18.4519 9.16185 -1.31374e-18)
(19.0374 8.30107 1.74656e-18)
(19.4277 7.36688 -1.53562e-19)
(19.6135 6.41629 1.64657e-18)
(19.623 5.49046 -2.96314e-18)
(19.4935 4.61817 2.3563e-18)
(19.2499 3.81134 1.26343e-18)
(18.9099 3.0778 -1.30497e-18)
(18.4914 2.422 5.01682e-19)
(18.0104 1.84407 0)
(17.4777 1.34531 4.78565e-19)
(16.9656 0.958203 -3.57449e-19)
(16.4957 0.671656 2.81235e-20)
(16.0254 0.441124 -6.72613e-20)
(15.5567 0.260377 3.09593e-19)
(15.0913 0.12463 0)
(14.6296 0.0298458 0)
(14.1711 -0.0276227 -4.7966e-19)
(13.7148 -0.0514576 -3.03377e-18)
(13.2585 -0.0458317 -1.40783e-18)
(12.7984 -0.01589 1.61994e-18)
(12.3288 0.0317916 4.55523e-19)
(11.8412 0.0891152 -2.39544e-18)
(11.3245 0.146947 -5.2249e-19)
(10.7629 0.195598 3.28112e-18)
(10.1441 0.226389 -5.70948e-19)
(9.4595 0.229062 -2.45301e-18)
(8.71007 0.186943 3.28568e-19)
(7.86418 0.0797317 5.33247e-18)
(6.99959 -0.0825195 0)
(5.79799 -0.325278 0)
(9.85474 9.3456 0)
(10.6497 9.67105 0)
(11.3989 9.91809 -1.40223e-19)
(12.1618 10.1329 -1.15578e-18)
(12.9516 10.2786 0)
(13.7611 10.3358 -4.81037e-19)
(14.5869 10.2906 2.50345e-19)
(15.417 10.128 0)
(16.2256 9.83856 -1.23887e-18)
(16.9867 9.42043 1.98286e-19)
(17.6822 8.87346 -2.76263e-19)
(18.2801 8.20665 9.87803e-19)
(18.736 7.44708 -1.22601e-18)
(19.0271 6.63269 0)
(19.159 5.80108 -1.85207e-18)
(19.1509 4.98809 2.15902e-18)
(19.0212 4.21455 0)
(18.7856 3.4943 0)
(18.4603 2.83723 2.78526e-19)
(18.0613 2.24846 -1.13455e-18)
(17.6006 1.73255 4.80598e-19)
(17.146 1.32645 0)
(16.7219 1.02097 2.92104e-20)
(16.2941 0.771374 1.72932e-19)
(15.8664 0.571715 -2.11023e-19)
(15.4422 0.417181 2.42344e-19)
(15.0239 0.303623 0)
(14.6134 0.227295 0)
(14.2118 0.184484 -5.02024e-19)
(13.8198 0.171164 2.26628e-18)
(13.4367 0.182634 -1.26182e-18)
(13.0603 0.213179 1.32546e-18)
(12.6859 0.255878 7.28269e-19)
(12.3056 0.302828 0)
(11.9066 0.345177 1.25326e-18)
(11.4752 0.373785 -1.2339e-20)
(10.9952 0.378138 4.21195e-18)
(10.4534 0.345102 0)
(9.80465 0.259466 -4.16312e-18)
(9.10481 0.128831 4.56228e-18)
(8.07 -0.0656421 0)
(10.3971 8.64507 0)
(11.0662 8.89422 -8.5568e-19)
(11.6935 9.08599 7.49832e-19)
(12.3239 9.25569 0)
(12.9694 9.37715 7.61055e-19)
(13.6283 9.43764 -6.44985e-19)
(14.3026 9.42726 -1.2453e-18)
(14.9877 9.33362 1.73221e-19)
(15.6682 9.14636 4.35244e-19)
(16.3275 8.8598 1.3873e-18)
(16.9539 8.46928 -1.44679e-18)
(17.5235 7.97395 -4.4781e-19)
(17.9986 7.38413 1.15294e-18)
(18.3526 6.72049 -5.55548e-19)
(18.5775 6.01062 2.17571e-18)
(18.6764 5.28773 -1.38755e-18)
(18.6575 4.57613 -5.58961e-19)
(18.5309 3.89399 -2.53668e-19)
(18.3088 3.25574 -7.29481e-19)
(18.005 2.67134 1.44056e-18)
(17.6308 2.14905 -6.41654e-19)
(17.2466 1.73064 -5.94938e-21)
(16.8784 1.40996 -5.21839e-21)
(16.501 1.1433 0)
(16.1196 0.925434 -4.53964e-19)
(15.7384 0.751813 1.36873e-19)
(15.3612 0.618357 8.5221e-19)
(14.9909 0.52134 -5.96507e-19)
(14.6301 0.457089 1.61546e-18)
(14.2809 0.421733 -8.40813e-19)
(13.9448 0.41097 0)
(13.6223 0.419869 -1.63256e-18)
(13.3125 0.442728 -5.74219e-19)
(13.0119 0.473162 6.47285e-19)
(12.7134 0.504027 -4.00614e-18)
(12.4083 0.52771 -7.0399e-19)
(12.0829 0.535606 -1.46871e-18)
(11.7239 0.518705 1.52214e-18)
(11.2884 0.46495 1.59923e-18)
(10.811 0.382655 -3.27232e-18)
(10.0678 0.24131 -1.12208e-19)
(10.8532 7.99802 0)
(11.4172 8.18795 4.86959e-20)
(11.9437 8.33516 6.78958e-19)
(12.4663 8.46655 2.1851e-18)
(12.9953 8.56341 -1.49669e-18)
(13.5316 8.6178 2.13751e-19)
(14.0794 8.62333 -3.74614e-20)
(14.6383 8.57095 -1.60467e-18)
(15.1999 8.45176 -8.96334e-20)
(15.7548 8.25922 -2.32837e-19)
(16.2967 7.98764 8.2073e-19)
(16.8099 7.63157 -7.18423e-19)
(17.2658 7.19114 -4.05944e-19)
(17.64 6.67431 4.76658e-19)
(17.9193 6.09761 0)
(18.0968 5.48605 0)
(18.1711 4.86157 1.92392e-18)
(18.1451 4.24307 1.41131e-20)
(18.0254 3.6471 -1.31179e-18)
(17.8215 3.08696 6.92081e-20)
(17.5424 2.57407 -1.95621e-19)
(17.2381 2.15437 1.86531e-19)
(16.9348 1.82577 -4.56251e-22)
(16.6166 1.54725 0)
(16.2893 1.31473 -6.37773e-20)
(15.958 1.12432 7.63364e-19)
(15.627 0.972353 -9.93076e-19)
(15.2997 0.855269 1.14345e-18)
(14.9792 0.769533 -8.4911e-19)
(14.6682 0.711493 0)
(14.3688 0.677227 7.87325e-19)
(14.0824 0.662433 1.7778e-18)
(13.8099 0.662368 -9.0717e-19)
(13.5504 0.671937 1.02448e-18)
(13.3009 0.685668 5.7336e-19)
(13.0574 0.698058 -1.09132e-18)
(12.8125 0.703173 1.71979e-18)
(12.5581 0.696046 -1.20614e-18)
(12.2661 0.668534 -9.34658e-19)
(11.9552 0.629335 -1.57215e-19)
(11.4869 0.547584 2.58494e-18)
(11.2336 7.40766 -8.19382e-19)
(11.7096 7.55165 -2.84067e-18)
(12.1521 7.6632 2.76791e-18)
(12.5867 7.76286 0)
(13.0215 7.83719 -1.27517e-19)
(13.4587 7.88139 0)
(13.903 7.89168 -4.16038e-18)
(14.356 7.8619 3.02555e-18)
(14.8136 7.78524 1.37289e-18)
(15.271 7.65594 -1.48323e-18)
(15.7258 7.46919 1.68749e-19)
(16.1686 7.21827 -1.15803e-19)
(16.5794 6.89849 3.52803e-19)
(16.9394 6.51032 5.50719e-19)
(17.2354 6.06158 1.01605e-19)
(17.4567 5.56805 -6.60735e-19)
(17.5961 5.04588 5.71013e-19)
(17.6503 4.51108 -6.92114e-19)
(17.6204 3.97929 0)
(17.5106 3.46471 -2.65177e-19)
(17.3262 2.98024 2.73427e-19)
(17.1048 2.57388 2.32203e-20)
(16.8713 2.24803 3.69188e-21)
(16.6176 1.96599 0)
(16.3501 1.72518 5.2007e-20)
(16.0742 1.52286 7.75399e-20)
(15.7945 1.35614 0)
(15.5149 1.22197 0)
(15.2386 1.11715 2.03655e-21)
(14.9682 1.03842 0)
(14.706 0.982258 -9.52168e-19)
(14.4535 0.944984 0)
(14.2118 0.922678 1.50412e-18)
(13.9809 0.911266 -1.55846e-18)
(13.7595 0.906536 0)
(13.5459 0.904606 8.86263e-19)
(13.3367 0.901645 -9.24302e-19)
(13.1278 0.8951 4.65838e-19)
(12.9051 0.880721 1.47893e-18)
(12.678 0.865294 -1.31371e-19)
(12.3789 0.829286 -3.08416e-18)
(11.5483 6.87497 2.18e-18)
(11.9503 6.98333 8.0809e-20)
(12.3228 7.06653 -1.22271e-18)
(12.6849 7.14044 -2.22701e-18)
(13.0434 7.19531 -4.82066e-18)
(13.4006 7.22838 5.57842e-18)
(13.7611 7.23757 -2.78026e-19)
(14.1273 7.21889 -2.48196e-18)
(14.4973 7.1675 4.58718e-18)
(14.8692 7.079 -4.36462e-19)
(15.2426 6.94965 -1.89951e-18)
(15.6126 6.77349 4.58894e-19)
(15.9661 6.54456 -4.76616e-19)
(16.2898 6.25985 8.57376e-19)
(16.5732 5.92182 -1.30637e-19)
(16.8061 5.53891 0)
(16.9794 5.12105 2.83329e-19)
(17.0866 4.67956 -1.90504e-19)
(17.1244 4.22691 -3.94432e-21)
(17.0928 3.77568 -1.62535e-19)
(16.9931 3.33814 2.23224e-19)
(16.85 2.96106 -3.6275e-20)
(16.6849 2.65069 -3.04972e-21)
(16.4963 2.376 -7.83675e-19)
(16.2902 2.13597 1.7576e-18)
(16.0717 1.92915 -1.04577e-18)
(15.8456 1.75371 1.27915e-18)
(15.616 1.60749 -1.56848e-18)
(15.3861 1.48799 -1.95697e-18)
(15.1586 1.39248 1.77019e-18)
(14.9357 1.31809 5.11448e-19)
(14.7189 1.26177 8.65067e-19)
(14.5093 1.2204 -2.67268e-18)
(14.3072 1.19079 2.52976e-18)
(14.1118 1.16973 -1.30108e-18)
(13.9223 1.15445 -6.96069e-19)
(13.7372 1.14245 0)
(13.554 1.13207 -7.64246e-19)
(13.3666 1.12138 -7.92999e-19)
(13.1795 1.11417 -8.14328e-19)
(12.9631 1.10083 8.46667e-19)
(11.8064 6.39906 3.01126e-21)
(12.146 6.47974 2.96e-19)
(12.4597 6.54056 1.07544e-18)
(12.762 6.59395 -1.9152e-18)
(13.0583 6.63274 7.56283e-18)
(13.351 6.65537 -6.38383e-18)
(13.6441 6.66089 8.02496e-18)
(13.94 6.64676 3.88401e-18)
(14.2382 6.60967 -1.9997e-18)
(14.5381 6.5465 -6.06001e-19)
(14.8404 6.45457 -4.35842e-18)
(15.1427 6.3294 1.86562e-19)
(15.4367 6.16543 0)
(15.7139 5.95875 -3.3284e-19)
(15.9669 5.70914 4.3473e-19)
(16.1877 5.42037 -5.65562e-19)
(16.3679 5.09758 0)
(16.5005 4.74761 6.44433e-19)
(16.5803 4.37894 -1.46603e-18)
(16.6047 4.00114 5.2482e-19)
(16.5718 3.62421 -9.77692e-19)
(16.4949 3.29023 1.10524e-18)
(16.391 3.00783 4.67218e-20)
(16.2625 2.75207 -2.14363e-20)
(16.1145 2.52332 1.87488e-18)
(15.9516 2.32133 -1.89498e-18)
(15.7781 2.14534 6.79478e-20)
(15.5978 1.99413 1.54445e-19)
(15.4141 1.86607 -1.47103e-18)
(15.2294 1.75928 1.6806e-18)
(15.0461 1.67163 -2.07938e-19)
(14.8656 1.60087 2.24436e-19)
(14.6891 1.54463 -9.83162e-19)
(14.5172 1.50056 4.6033e-19)
(14.3495 1.46626 2.1347e-18)
(14.1858 1.43981 -5.3322e-19)
(14.0256 1.41953 5.93229e-19)
(13.8674 1.40405 -1.19762e-18)
(13.7084 1.39232 6.23776e-19)
(13.551 1.38589 6.5337e-19)
(13.3816 1.37939 0)
(12.0157 5.97683 -3.3404e-18)
(12.3024 6.03593 5.9799e-18)
(12.5666 6.07934 5.59448e-18)
(12.8191 6.11683 -1.47079e-17)
(13.0644 6.1429 5.4459e-18)
(13.3048 6.15678 -1.11408e-17)
(13.5437 6.15814 8.98698e-18)
(13.7831 6.14539 -1.29867e-17)
(14.0234 6.1163 1.17773e-17)
(14.2643 6.06873 -4.16752e-19)
(14.507 6.00088 -4.75719e-18)
(14.7506 5.90944 -4.37284e-19)
(14.9898 5.79011 -3.51792e-18)
(15.2194 5.63934 3.4823e-18)
(15.4345 5.45597 -2.68634e-18)
(15.6296 5.24133 2.91926e-18)
(15.7982 4.99763 0)
(15.9342 4.72841 -1.99868e-18)
(16.0326 4.43878 2.47616e-18)
(16.0896 4.13509 -2.34875e-18)
(16.1019 3.82447 -1.63104e-19)
(16.0745 3.54204 3.99949e-18)
(16.0196 3.29699 7.89332e-20)
(15.9413 3.07009 -1.58235e-18)
(15.8437 2.86257 -3.04211e-24)
(15.7304 2.67505 0)
(15.6049 2.50765 -2.17972e-18)
(15.4705 2.35997 2.15737e-18)
(15.3302 2.2312 0)
(15.1863 2.12023 -1.60832e-19)
(15.0409 2.02571 0)
(14.8956 1.94618 1.52673e-18)
(14.7516 1.88008 -1.72961e-18)
(14.6097 1.82578 -1.68669e-18)
(14.4701 1.78158 3.45431e-18)
(14.3331 1.74619 -1.99322e-18)
(14.1986 1.71846 -2.33796e-19)
(14.0661 1.69725 4.86873e-19)
(13.9343 1.68179 -5.03342e-19)
(13.8046 1.67247 0)
(13.6708 1.66562 -5.1986e-19)
(12.1768 5.62122 0)
(12.4205 5.66434 -8.14684e-18)
(12.6445 5.69515 3.89287e-19)
(12.8572 5.72113 1.08242e-17)
(13.0623 5.73792 6.57827e-18)
(13.2618 5.74526 -6.75982e-18)
(13.4587 5.74319 6.1023e-18)
(13.6548 5.7307 5.80744e-18)
(13.8504 5.70623 1.08287e-17)
(14.0458 5.66833 -1.36919e-17)
(14.2421 5.61577 1.32993e-18)
(14.4389 5.54617 1.2708e-18)
(14.6329 5.45623 -4.30956e-18)
(14.8207 5.34315 3.13526e-18)
(14.9994 5.2057 4.35219e-18)
(15.1652 5.04417 -3.31199e-18)
(15.3134 4.85936 -3.80881e-18)
(15.4396 4.65296 3.90746e-18)
(15.5395 4.42783 0)
(15.6094 4.18792 4.46723e-19)
(15.6459 3.93792 4.48044e-19)
(15.6492 3.7057 3.40345e-18)
(15.6275 3.4998 -6.91527e-18)
(15.5855 3.30555 3.59249e-18)
(15.5258 3.12448 1.95787e-18)
(15.4511 2.95765 3.74266e-20)
(15.3643 2.80566 -2.0782e-18)
(15.268 2.66865 3.36313e-20)
(15.1644 2.54641 2.40361e-21)
(15.0557 2.43842 2.54305e-18)
(14.9436 2.34395 -2.57167e-18)
(14.8296 2.26213 -1.40569e-18)
(14.715 2.19201 1.50064e-18)
(14.6006 2.13254 -1.52409e-18)
(14.487 2.08257 1.33116e-18)
(14.3745 2.04127 1.22005e-18)
(14.2638 2.00789 -6.10512e-19)
(14.1547 1.9815 2.1416e-19)
(14.0468 1.96147 0)
(13.9409 1.94774 0)
(13.8349 1.93777 4.84857e-21)
(12.2964 5.33485 -3.77239e-18)
(12.5064 5.3666 4.20455e-18)
(12.6989 5.38843 -1.758e-18)
(12.8809 5.40611 -3.36132e-18)
(13.0551 5.41611 0)
(13.2236 5.41854 6.34333e-18)
(13.3889 5.41361 -1.50494e-17)
(13.5524 5.40066 9.27218e-18)
(13.7146 5.3786 -2.95628e-18)
(13.8759 5.34641 2.64868e-18)
(14.0372 5.30327 -1.27002e-18)
(14.1984 5.24751 -1.13321e-17)
(14.3574 5.17668 1.98832e-17)
(14.5119 5.0886 -8.52798e-18)
(14.66 4.9822 -1.0104e-18)
(14.7992 4.8574 -4.14599e-18)
(14.9262 4.71436 1.25565e-17)
(15.0377 4.55382 -5.47614e-18)
(15.1304 4.37737 -8.21194e-18)
(15.2014 4.18741 3.3946e-18)
(15.2476 3.98695 -9.34068e-19)
(15.2669 3.7977 0)
(15.2649 3.62701 0)
(15.2459 3.46362 -4.03929e-18)
(15.2116 3.30902 4.04417e-18)
(15.164 3.16436 6.24769e-20)
(15.1051 3.03043 0)
(15.037 2.90765 2.32653e-18)
(14.9616 2.79614 -2.33244e-18)
(14.8804 2.69577 1.86641e-20)
(14.7949 2.60622 -2.03948e-20)
(14.7064 2.52703 0)
(14.6161 2.45764 1.31313e-18)
(14.5248 2.39741 -1.38731e-18)
(14.4332 2.34555 1.79849e-19)
(14.3417 2.30154 -1.85437e-19)
(14.2512 2.2649 0)
(14.1616 2.23488 -1.95825e-19)
(14.0731 2.21098 -4.05467e-19)
(13.9863 2.19304 1.98145e-19)
(13.9007 2.17936 6.14969e-19)
(12.3872 5.10158 0)
(12.5701 5.125 0)
(12.7376 5.14029 -6.57362e-18)
(12.8952 5.15191 -1.27123e-17)
(13.0453 5.157 1.93154e-17)
(13.1896 5.15585 -1.52589e-17)
(13.3304 5.14878 -5.75843e-18)
(13.4688 5.13535 1.2055e-17)
(13.6055 5.11478 -1.15353e-17)
(13.7407 5.08633 1.15072e-17)
(13.8753 5.04945 0)
(14.0092 5.00292 0)
(14.141 4.94494 1.03098e-17)
(14.2691 4.87388 -2.02799e-17)
(14.3924 4.7889 1.93409e-17)
(14.509 4.68982 -9.41417e-18)
(14.6167 4.57656 -1.17632e-18)
(14.7131 4.44943 1.02948e-17)
(14.7957 4.3093 -6.99379e-18)
(14.8622 4.15766 0)
(14.9102 3.99639 4.8417e-19)
(14.9367 3.84235 0)
(14.9455 3.7016 -4.49122e-18)
(14.9403 3.56538 8.76938e-18)
(14.9223 3.435 -4.27711e-18)
(14.8929 3.31152 0)
(14.8537 3.19575 0)
(14.806 3.08821 2.19128e-18)
(14.7513 2.98919 -2.33974e-18)
(14.6909 2.89875 -2.46383e-18)
(14.6261 2.81682 2.4818e-18)
(14.5578 2.7432 2.59119e-18)
(14.4871 2.67759 -2.59935e-18)
(14.4147 2.61962 0)
(14.3412 2.56873 -2.16907e-20)
(14.2673 2.52461 0)
(14.1936 2.48695 -5.63023e-21)
(14.1202 2.45516 -2.29037e-20)
(14.0476 2.42885 7.95501e-19)
(13.9762 2.40783 -1.12753e-18)
(13.9061 2.39103 3.71926e-19)
(12.4574 4.90807 0)
(12.6182 4.92528 -7.98865e-19)
(12.7653 4.93571 0)
(12.9031 4.94286 6.11378e-18)
(13.0337 4.94436 -6.01395e-18)
(13.1587 4.94062 0)
(13.28 4.93201 5.81851e-18)
(13.3987 4.91822 5.5846e-18)
(13.5153 4.8987 -1.46666e-17)
(13.63 4.8729 0)
(13.7437 4.84044 1.09813e-17)
(13.8562 4.80043 -2.18812e-17)
(13.9667 4.75155 1.08715e-17)
(14.0739 4.69258 0)
(14.1771 4.62289 -1.00315e-17)
(14.275 4.54231 1.11697e-17)
(14.366 4.45071 1.05452e-17)
(14.4484 4.34821 -1.16558e-17)
(14.5204 4.23531 -1.07635e-18)
(14.5802 4.11295 0)
(14.6259 3.98233 0)
(14.6546 3.85659 -5.73961e-19)
(14.6687 3.7406 2.60724e-19)
(14.6716 3.62746 4.46517e-18)
(14.6639 3.51825 3.45465e-19)
(14.6466 3.41388 -4.47872e-18)
(14.6208 3.31507 4.6145e-18)
(14.5877 3.22235 -4.46585e-18)
(14.5483 3.13604 -2.68813e-18)
(14.5037 3.05631 2.38117e-18)
(14.4547 2.98322 -2.47131e-18)
(14.4023 2.9167 2.46646e-18)
(14.3472 2.85662 0)
(14.2901 2.80276 -2.76635e-18)
(14.2316 2.75474 2.61665e-18)
(14.1722 2.71239 0)
(14.1126 2.6755 5.23833e-21)
(14.0529 2.64361 7.12126e-19)
(13.9934 2.61642 -7.31831e-19)
(13.9347 2.59377 3.31965e-19)
(13.8771 2.57499 -3.44906e-19)
(12.5127 4.74517 0)
(12.655 4.75767 7.38299e-19)
(12.785 4.76445 -5.9041e-18)
(12.9065 4.76828 1.14966e-17)
(13.021 4.76714 -2.31443e-17)
(13.1303 4.76154 1.1637e-17)
(13.2358 4.75186 0)
(13.3385 4.7379 5.58454e-18)
(13.439 4.71924 3.34664e-17)
(13.5374 4.69549 -2.25347e-17)
(13.6344 4.66637 0)
(13.73 4.63124 -2.7803e-18)
(13.8234 4.5891 7.90593e-18)
(13.9138 4.53907 -2.12506e-19)
(14.0008 4.48068 -1.05044e-17)
(14.0833 4.4138 1.13624e-17)
(14.1602 4.33831 -9.88321e-18)
(14.2304 4.25428 9.45617e-18)
(14.2924 4.16202 -9.48385e-18)
(14.3449 4.06213 -9.30172e-18)
(14.3865 3.95542 8.01553e-18)
(14.4145 3.85219 -4.01179e-18)
(14.4308 3.75635 5.08478e-18)
(14.4379 3.66237 -4.80379e-18)
(14.4364 3.57112 -8.94492e-19)
(14.427 3.48333 4.53885e-18)
(14.4104 3.39963 0)
(14.3876 3.32048 0)
(14.3593 3.24619 -4.43813e-18)
(14.3264 3.17696 4.70961e-18)
(14.2895 3.11289 0)
(14.2494 3.05399 3.08507e-19)
(14.2067 3.00022 3.11696e-19)
(14.162 2.95145 2.65859e-18)
(14.1157 2.90742 -2.6556e-18)
(14.0683 2.86803 -1.2808e-18)
(14.0203 2.83317 1.27612e-18)
(13.972 2.80246 -4.89885e-19)
(13.9237 2.77568 1.30993e-18)
(13.8757 2.7527 -6.35806e-19)
(13.8283 2.73315 -8.15315e-20)
(12.5568 4.60637 5.47351e-18)
(12.6835 4.61525 6.67671e-18)
(12.7991 4.61927 -1.2756e-19)
(12.9067 4.6206 0)
(13.0079 4.61753 0)
(13.104 4.61062 0)
(13.1965 4.60025 0)
(13.2861 4.58627 -2.16951e-17)
(13.3734 4.56839 3.8308e-17)
(13.4585 4.54632 -2.19578e-17)
(13.542 4.51985 2.1467e-17)
(13.6238 4.48852 -1.36091e-17)
(13.7035 4.4516 2.37382e-17)
(13.7804 4.4084 -2.90576e-17)
(13.8541 4.35862 1.05272e-17)
(13.9239 4.30217 7.6388e-18)
(13.9892 4.23897 -9.99174e-18)
(14.0488 4.16907 1.17865e-18)
(14.1019 4.09266 -1.22621e-18)
(14.1474 4.0102 1.18768e-17)
(14.1843 3.92222 1.04278e-17)
(14.2103 3.83689 -1.72651e-17)
(14.2268 3.75732 -5.51914e-19)
(14.2359 3.67905 0)
(14.2379 3.60275 5.52335e-19)
(14.2334 3.52903 -5.82903e-19)
(14.223 3.45838 -4.0163e-18)
(14.2074 3.39118 4.58241e-18)
(14.1871 3.32773 -4.65569e-18)
(14.1628 3.26819 4.63753e-18)
(14.1351 3.21268 4.72297e-18)
(14.1044 3.16125 -4.99464e-18)
(14.0714 3.11389 -2.93293e-19)
(14.0364 3.07053 2.4163e-18)
(13.9999 3.03099 -1.9506e-18)
(13.9622 2.99521 0)
(13.9239 2.96312 0)
(13.885 2.93443 -1.53172e-19)
(13.8459 2.90899 3.12769e-19)
(13.8069 2.88667 3.14185e-19)
(13.7681 2.86733 7.60852e-20)
(12.5924 4.48686 0)
(12.7056 4.49296 -1.27105e-18)
(12.8089 4.49487 1.01821e-17)
(12.9048 4.49432 -1.03862e-17)
(12.9946 4.48985 -2.05316e-17)
(13.0797 4.48203 2.10312e-17)
(13.1612 4.47125 1.02299e-17)
(13.2399 4.4574 -2.12006e-17)
(13.3162 4.44027 -2.0905e-17)
(13.3904 4.41963 2.12423e-17)
(13.4627 4.39537 0)
(13.5333 4.36713 -1.0482e-17)
(13.6017 4.33436 2.0739e-17)
(13.6674 4.29657 -2.34237e-17)
(13.7303 4.25354 0)
(13.7898 4.20523 -2.58023e-18)
(13.8452 4.15161 2.52305e-18)
(13.8959 4.09271 0)
(13.9413 4.0287 1.16794e-18)
(13.9805 3.9599 -2.30885e-18)
(14.0127 3.8867 1.05246e-17)
(14.0361 3.81565 -1.03417e-17)
(14.0518 3.74922 1.16047e-18)
(14.0615 3.68377 8.50617e-18)
(14.0654 3.61983 -8.45789e-18)
(14.0639 3.55786 5.52245e-19)
(14.0576 3.49827 -5.09552e-18)
(14.0469 3.44137 4.52049e-18)
(14.0323 3.38739 5.77557e-19)
(14.0143 3.33648 0)
(13.9934 3.28875 0)
(13.9699 3.24424 0)
(13.9443 3.20298 -2.32045e-18)
(13.917 3.16492 2.30951e-18)
(13.8882 3.12992 -2.87825e-19)
(13.8583 3.09795 -2.35066e-18)
(13.8277 3.06898 2.6349e-18)
(13.7965 3.04278 0)
(13.765 3.01921 4.11375e-21)
(13.7333 2.99822 -5.92696e-19)
(13.7017 2.97976 2.87744e-19)
(12.6214 4.38305 4.7062e-18)
(12.723 4.38699 0)
(12.8155 4.38731 -2.36942e-17)
(12.9013 4.38534 1.94398e-17)
(12.9814 4.37987 0)
(13.0571 4.37145 1.95877e-17)
(13.1293 4.36047 -1.60464e-19)
(13.1988 4.34685 1.99489e-17)
(13.2659 4.33045 -3.05374e-17)
(13.3308 4.3111 -2.0165e-17)
(13.3939 4.28872 2.04882e-17)
(13.4551 4.26306 5.02104e-18)
(13.5142 4.2337 0)
(13.5708 4.20029 0)
(13.6246 4.16269 -5.10024e-18)
(13.6755 4.12089 2.23716e-17)
(13.7227 4.07489 -4.4091e-17)
(13.766 4.02472 1.93178e-17)
(13.8047 3.97054 2.40962e-18)
(13.8383 3.9126 2.3848e-18)
(13.8662 3.85119 -1.13174e-18)
(13.8869 3.79159 1.70732e-17)