/*--------------------------------*- C++ -*----------------------------------*\
| =========                 |                                                 |
| \\      /  F ield         | OpenFOAM: The Open Source CFD Toolbox           |
|  \\    /   O peration     | Version:  5.x                                   |
|   \\  /    A nd           | Web:      www.OpenFOAM.org                      |
|    \\/     M anipulation  |                                                 |
\*---------------------------------------------------------------------------*/
FoamFile
{
    version     2.0;
    format      ascii;
    class       volVectorField;
    location    "1000";
    object      wallShearStress;
}
// * * * * * * * * * * * * * * * * * * * * * * * * * * * * * * * * * * * * * //

dimensions      [0 2 -2 0 0 0 0];

internalField   uniform (0 0 0);

boundaryField
{
    inlet
    {
        type            calculated;
        value           uniform (0 0 0);
    }
    outlet
    {
        type            calculated;
        value           uniform (0 0 0);
    }
    walls
    {
        type            calculated;
        value           nonuniform List<vector> 
82
(
(0.310752 -1.72083 0)
(0.010084 -2.40177 1.13824e-20)
(-0.341377 -2.93594 -1.4384e-18)
(-0.841799 -2.92568 -1.54655e-18)
(-1.21468 -2.61321 -3.3499e-18)
(-1.45387 -2.1816 1.603e-18)
(-1.57325 -1.7339 1.47291e-18)
(-1.59612 -1.32538 -1.31073e-18)
(-1.54546 -0.978826 -2.80932e-18)
(-1.43251 -0.693526 -8.79889e-20)
(-1.22671 -0.437782 -1.04736e-18)
(-0.991262 -0.243215 3.96222e-20)
(-0.811533 -0.136335 -5.31651e-19)
(-0.696742 -0.0882306 -3.30037e-19)
(-0.591431 -0.0574412 -1.2785e-19)
(-0.471494 -0.0299015 2.50437e-20)
(-0.344995 -0.00977962 -1.12203e-19)
(-0.225757 0.00122303 -2.50441e-20)
(-0.121957 0.00507636 2.28766e-20)
(-0.042706 0.00413777 2.25381e-19)
(-0.00342696 0.000979715 1.59586e-19)
(0.0104735 -0.000573001 2.9789e-19)
(0.0252079 -0.00213478 7.60043e-19)
(0.0366416 -0.00354643 5.54232e-20)
(0.0437207 -0.00474791 2.49403e-22)
(0.047233 -0.00568958 -3.18923e-20)
(0.0487217 -0.00651185 2.0998e-18)
(0.049495 -0.00738207 -3.31284e-20)
(0.0503529 -0.00831255 2.17164e-18)
(0.0517861 -0.00930765 -2.11423e-18)
(0.0541226 -0.0104657 -3.33146e-20)
(0.0576761 -0.0118686 -1.63416e-20)
(0.0626351 -0.0135237 1.59062e-20)
(0.0687078 -0.0152732 -6.01853e-36)
(0.0745031 -0.0166654 -3.79554e-18)
(0.0769544 -0.0169475 0)
(0.0725607 -0.0154255 -1.46937e-37)
(0.0611424 -0.0119858 6.35722e-21)
(0.0404711 -0.00559111 -4.30036e-21)
(0.017849 0.0035722 2.25913e-18)
(0.017225 0.0197064 2.20421e-18)
(0.380566 -1.19821 -4.56495e-19)
(0.26981 -0.60172 -6.71438e-20)
(0.141748 -0.258526 -3.44944e-18)
(0.0405788 -0.078206 -1.69117e-18)
(-0.00177359 -0.0116724 -1.13617e-18)
(-0.0288776 0.00514694 -1.96068e-18)
(-0.0788627 0.0286675 -4.59244e-18)
(-0.136619 0.0505081 -2.19723e-18)
(-0.195065 0.0675887 1.97843e-18)
(-0.259547 0.0865276 1.37363e-19)
(-0.334509 0.103543 -4.22511e-18)
(-0.404806 0.106507 1.93902e-18)
(-0.46326 0.0995059 3.84687e-21)
(-0.514764 0.090169 1.21148e-18)
(-0.561872 0.079569 1.8715e-18)
(-0.603528 0.0670595 -1.14417e-19)
(-0.639222 0.0529806 1.88079e-36)
(-0.669255 0.0379493 -7.36647e-19)
(-0.694017 0.0224897 -5.16486e-20)
(-0.714043 0.00702645 -3.89351e-19)
(-0.729289 -0.00797343 6.89128e-22)
(-0.740521 -0.0218308 -1.88079e-37)
(-0.747538 -0.0330728 -7.90547e-19)
(-0.752885 -0.0431111 -6.81507e-19)
(-0.757065 -0.0521948 1.41796e-18)
(-0.760436 -0.0604723 1.38251e-18)
(-0.763332 -0.0680336 2.69638e-18)
(-0.765997 -0.0749698 1.31468e-18)
(-0.768618 -0.0813731 3.97416e-20)
(-0.771364 -0.0873409 -1.28751e-18)
(-0.774388 -0.0929751 -1.23534e-18)
(-0.777866 -0.0983817 2.38666e-18)
(-0.781967 -0.103675 2.32041e-18)
(-0.786871 -0.108967 -2.25274e-18)
(-0.792767 -0.114376 1.67876e-20)
(-0.799919 -0.120023 -1.65337e-20)
(-0.808555 -0.126051 -1.17549e-38)
(-0.819943 -0.132734 -2.93874e-39)
(-0.83205 -0.140185 3.59932e-21)
(-0.86094 -0.150082 -1.80208e-18)
(-0.857701 -0.159673 1.63185e-21)
)
;
    }
    frontAndBack
    {
        type            empty;
    }
}


// ************************************************************************* //
