/*--------------------------------*- C++ -*----------------------------------*\
| =========                 |                                                 |
| \\      /  F ield         | OpenFOAM: The Open Source CFD Toolbox           |
|  \\    /   O peration     | Version:  5.x                                   |
|   \\  /    A nd           | Web:      www.OpenFOAM.org                      |
|    \\/     M anipulation  |                                                 |
\*---------------------------------------------------------------------------*/
FoamFile
{
    version     2.0;
    format      ascii;
    class       volVectorField;
    location    "1000";
    object      wallShearStress;
}
// * * * * * * * * * * * * * * * * * * * * * * * * * * * * * * * * * * * * * //

dimensions      [0 2 -2 0 0 0 0];

internalField   uniform (0 0 0);

boundaryField
{
    inlet
    {
        type            calculated;
        value           uniform (0 0 0);
    }
    outlet
    {
        type            calculated;
        value           uniform (0 0 0);
    }
    walls
    {
        type            calculated;
        value           nonuniform List<vector> 
164
(
(-628.492 -972.314 0)
(-1112.6 -857.335 -1.98475e-15)
(-1621.37 -659.153 -8.13481e-16)
(-1453.11 -487.306 2.20511e-15)
(-1360.34 -381.51 5.42777e-21)
(-1237.26 -299.517 1.49747e-15)
(-1114.37 -237.56 1.74594e-15)
(-1007.36 -191.914 -1.97641e-15)
(-915.298 -157.485 -4.98094e-32)
(-836.273 -130.825 2.37089e-15)
(-767.47 -109.849 -2.5857e-15)
(-708.461 -93.0522 -2.67251e-15)
(-655.469 -79.2871 2.24339e-20)
(-613.705 -68.4693 -2.88287e-15)
(-575.125 -59.2549 3.1936e-15)
(-548.352 -52.2739 3.09835e-15)
(-522.289 -45.9879 -3.22154e-15)
(-500.424 -40.7315 3.26438e-15)
(-481.702 -36.1613 3.22575e-15)
(-461.898 -31.9468 -3.38831e-15)
(-447.968 -28.4869 3.26491e-15)
(-431.725 -25.1444 6.50843e-21)
(-419.321 -22.3167 1.83306e-20)
(-407.76 -19.7241 -1.24988e-20)
(-395.918 -17.3215 -6.64352e-15)
(-387.495 -15.2294 3.18672e-15)
(-377.388 -13.2078 -1.50463e-36)
(-368.737 -11.3886 1.57054e-15)
(-361.182 -9.71346 -1.56088e-15)
(-354.066 -8.15344 -1.4294e-35)
(-346.923 -6.69441 -1.14229e-20)
(-339.272 -5.3101 1.12353e-20)
(-333.192 -4.05111 1.01347e-20)
(-328.216 -2.85837 -2.13924e-20)
(-322.029 -1.74251 -6.84063e-16)
(-317.614 -0.685875 -1.70917e-35)
(-312.336 0.299828 8.09316e-17)
(-307.688 1.24163 -6.34552e-16)
(-304.05 2.12156 6.08868e-16)
(-300.771 2.97734 -1.17694e-15)
(-297.102 3.76689 2.10649e-35)
(-293.735 4.53019 4.38835e-15)
(-276.358 4.92166 6.62038e-35)
(-273.672 5.46166 -1.18614e-20)
(-269.199 5.90126 -2.93599e-15)
(-266.945 6.36839 5.56815e-21)
(-263.69 6.77548 -5.53357e-21)
(-260.458 7.15043 -2.91553e-15)
(-257.394 7.50977 5.82469e-15)
(-254.423 7.83253 2.91244e-15)
(-251.563 8.15172 5.5624e-21)
(-248.801 8.43197 -2.90754e-15)
(-246.13 8.71454 2.90373e-15)
(-243.54 8.96258 -5.54284e-21)
(-241.048 9.21556 -1.94141e-23)
(-237.558 9.39511 -1.93731e-23)
(-235.282 9.61852 5.541e-21)
(-233.809 9.85227 -6.01853e-36)
(-230.767 10.0153 5.78189e-15)
(-229.285 10.2315 5.48453e-21)
(-227.303 10.4208 -5.67814e-15)
(-224.976 10.6107 5.70894e-15)
(-222.124 10.7893 -5.70426e-15)
(-220.418 11.0034 1.13481e-14)
(-217.472 11.1609 -5.68201e-15)
(-215.682 11.3568 5.63375e-15)
(-212.506 11.4861 -6.01853e-36)
(-210.064 11.6335 -2.69485e-21)
(-207.789 11.7943 -9.85267e-24)
(-205.472 11.9467 5.53658e-15)
(-201.652 12.0018 1.05062e-23)
(-199.153 12.1365 -2.6785e-21)
(-196.216 12.2365 -1.11004e-14)
(-191.957 12.2476 1.34657e-21)
(-188.114 12.2798 -1.14277e-14)
(-184.679 12.3352 4.85671e-31)
(-179.901 12.2927 2.27903e-14)
(-174.599 12.2057 6.85813e-22)
(-169.279 12.1053 -1.17178e-14)
(-161.849 11.8472 1.16427e-14)
(-160.675 11.9941 -1.19723e-14)
(-3.35163 0.964147 1.91134e-14)
(539.008 -1012.3 -7.70372e-34)
(-266.363 172.128 -1.24064e-14)
(-493.365 214.974 0)
(-592.64 199.52 1.25787e-33)
(-610.084 169.733 -1.87393e-31)
(-616.911 147.476 5.78049e-15)
(-622.733 130.511 2.18279e-20)
(-613.646 114.505 2.57139e-39)
(-594.815 99.9043 -3.45107e-20)
(-573.654 87.3274 -5.57828e-15)
(-551.36 76.5518 -2.16918e-20)
(-535.724 68.0275 -5.45696e-15)
(-517.728 60.3504 2.15667e-20)
(-507.185 54.3345 -2.00515e-20)
(-491.368 48.4448 -5.52325e-15)
(-481.195 43.7172 5.18335e-15)
(-468.214 39.1384 -1.99242e-20)
(-456.423 35.1146 5.14781e-15)
(-446.402 31.5248 -1.88261e-20)
(-433.517 28.0644 6.08943e-21)
(-425.877 25.2034 4.80009e-15)
(-414.712 22.3504 -1.92593e-34)
(-407.685 19.9379 -4.68946e-15)
(-399.399 17.6122 -4.60467e-15)
(-391.731 15.482 -2.03e-20)
(-386.77 13.5833 -4.29348e-15)
(-378.646 11.6954 -1.31204e-33)
(-373.698 10.0322 2.05825e-15)
(-368.657 8.45234 -4.03304e-15)
(-363.783 6.95967 -1.40226e-20)
(-357.748 5.54222 -1.89782e-15)
(-353.055 4.21566 -9.20038e-16)
(-349.776 2.9867 -1.33876e-20)
(-345.4 1.79177 4.27025e-16)
(-341.763 0.681439 2.04063e-16)
(-336.96 -0.387734 -2.44893e-20)
(-333.859 -1.38436 1.16758e-20)
(-330.362 -2.34679 7.43283e-16)
(-328.235 -3.2567 -1.40967e-15)
(-325.456 -4.13495 -1.03878e-20)
(-323.799 -4.96836 2.57629e-15)
(-321.354 -5.76903 -2.47046e-15)
(-304.747 -6.15073 1.94071e-32)
(-302.982 -6.72623 -3.22475e-15)
(-300.595 -7.22667 -3.19759e-15)
(-298.01 -7.70414 -3.19234e-15)
(-295.577 -8.14622 6.3308e-15)
(-293.141 -8.55668 -3.15466e-15)
(-290.849 -8.95358 -3.13236e-15)
(-288.632 -9.31153 3.11404e-15)
(-286.493 -9.66863 -4.58443e-37)
(-284.47 -9.98572 3.07387e-15)
(-282.483 -10.3066 5.82396e-21)
(-280.525 -10.5884 6.07118e-15)
(-278.683 -10.8776 6.02119e-15)
(-276.8 -11.1315 -1.20371e-35)
(-275.064 -11.3922 9.86305e-32)
(-273.229 -11.622 -5.64823e-21)
(-271.627 -11.8622 1.16896e-14)
(-269.821 -12.067 5.65387e-21)
(-267.672 -12.2606 -1.1631e-14)
(-265.694 -12.4025 -5.8331e-15)
(-265.198 -12.596 -3.61112e-35)
(-262.951 -12.6948 -2.73306e-21)
(-262.387 -12.8741 -5.58886e-15)
(-261.887 -13.0501 -5.53291e-15)
(-260.338 -13.1795 -5.50346e-15)
(-257.819 -13.2437 5.50669e-15)
(-256.794 -13.3911 5.48476e-15)
(-256.533 -13.5785 2.53257e-21)
(-254.819 -13.6863 -8.88167e-32)
(-253.254 -13.8065 -1.27234e-21)
(-251.89 -13.9371 -5.21026e-15)
(-249.891 -14.036 2.49712e-21)
(-247.903 -14.137 5.245e-15)
(-246.322 -14.2666 -2.46756e-21)
(-244.404 -14.3797 1.21588e-21)
(-241.821 -14.4587 6.08735e-22)
(-239.061 -14.5307 -1.02266e-14)
(-234.893 -14.5213 1.01079e-14)
(-235.603 -14.7495 4.55752e-22)
(-27.7264 -2.10833 -1.93803e-14)
)
;
    }
    frontAndBack
    {
        type            empty;
    }
}


// ************************************************************************* //
