/*--------------------------------*- C++ -*----------------------------------*\
| =========                 |                                                 |
| \\      /  F ield         | OpenFOAM: The Open Source CFD Toolbox           |
|  \\    /   O peration     | Version:  5.x                                   |
|   \\  /    A nd           | Web:      www.OpenFOAM.org                      |
|    \\/     M anipulation  |                                                 |
\*---------------------------------------------------------------------------*/
FoamFile
{
    version     2.0;
    format      ascii;
    class       volScalarField;
    location    "950";
    object      nut;
}
// * * * * * * * * * * * * * * * * * * * * * * * * * * * * * * * * * * * * * //

dimensions      [0 2 -1 0 0 0 0];

internalField   nonuniform List<scalar> 
41860
(
5.33385e-06
8.26948e-06
1.75897e-05
2.06022e-05
1.63011e-05
1.27892e-05
8.66908e-06
5.89266e-06
4.12082e-06
2.95211e-06
2.12746e-06
1.64654e-06
1.21215e-06
1.04582e-06
8.03528e-07
7.38007e-07
6.34632e-07
5.68674e-07
5.29015e-07
9.07914e-07
9.98427e-07
5.51325e-07
1.24396e-06
5.42533e-07
1.33768e-06
5.29236e-07
5.18801e-07
1.3574e-06
5.05061e-07
4.99733e-07
4.93116e-07
1.33119e-06
1.31695e-06
4.77719e-07
1.28161e-06
4.71371e-07
1.23838e-06
1.21619e-06
1.18135e-06
4.67863e-07
1.09533e-06
1.03713e-06
4.20156e-07
4.20326e-07
1.21342e-06
4.16513e-07
4.15007e-07
4.13272e-07
4.12025e-07
4.10957e-07
4.10148e-07
4.09602e-07
4.09236e-07
4.09095e-07
4.09187e-07
1.15827e-06
1.15424e-06
4.09703e-07
1.1446e-06
4.10902e-07
4.12608e-07
4.12603e-07
1.12501e-06
4.13082e-07
1.11188e-06
4.12808e-07
1.09694e-06
1.08672e-06
4.0881e-07
4.08864e-07
1.0536e-06
4.01619e-07
3.98983e-07
1.00778e-06
9.91844e-07
3.79683e-07
9.42655e-07
9.14753e-07
8.87437e-07
3.26306e-07
8.46388e-07
5.26644e-08
0.00018131
0.00021697
0.000282917
0.000300142
0.000276547
0.000254747
0.000224081
0.000197705
0.000176001
0.000157617
0.00014097
0.000128787
0.000115027
0.00010871
9.78085e-05
9.4406e-05
8.7922e-05
8.29796e-05
7.95327e-05
7.29646e-05
7.12318e-05
6.67621e-05
6.46203e-05
6.25307e-05
6.01988e-05
5.9396e-05
5.71241e-05
5.69086e-05
5.53414e-05
5.49033e-05
5.42165e-05
5.40863e-05
5.39479e-05
5.3359e-05
5.39963e-05
5.37036e-05
5.47725e-05
5.51951e-05
5.64136e-05
5.7294e-05
5.90671e-05
6.06942e-05
4.73123e-05
4.72082e-05
4.77298e-05
4.69253e-05
4.68811e-05
4.67825e-05
4.67837e-05
4.68012e-05
4.6863e-05
4.69606e-05
4.70838e-05
4.72396e-05
4.74422e-05
4.81816e-05
4.84706e-05
4.80578e-05
4.89867e-05
4.85788e-05
4.9062e-05
4.91839e-05
5.01394e-05
4.97451e-05
5.06061e-05
5.02785e-05
5.09133e-05
5.1199e-05
5.05805e-05
5.11932e-05
5.13322e-05
5.08219e-05
5.1114e-05
5.1123e-05
5.07035e-05
4.99613e-05
5.00948e-05
4.9191e-05
4.81966e-05
4.61333e-05
4.6994e-05
1.11613e-07
0.000234028
0.000273795
0.00036038
0.000384521
0.000355267
0.000327665
0.000288897
0.000255802
0.000228953
0.00020672
0.000187503
0.000173401
0.000160276
0.000153295
0.000147732
0.000145699
0.000144647
0.000144067
0.000143394
0.00014298
0.000141921
0.000143518
0.000140833
0.000141988
0.000139422
0.000140085
0.000139509
0.000136209
0.000137129
0.000135793
0.000134605
0.000131689
0.000130488
0.000131018
0.000128334
0.000128919
0.000126569
0.00012586
0.000125379
0.000126336
0.00012497
0.00012508
0.000123475
0.000123059
0.000121318
0.000122247
0.000121861
0.000121503
0.000121185
0.000120906
0.000120666
0.000120467
0.000120303
0.000120178
0.000120091
0.000118778
0.000118776
0.000119973
0.000118828
0.000120043
0.000120195
0.000120217
0.000119164
0.000120344
0.000119256
0.000120426
0.000119243
0.000119276
0.000120224
0.000120362
0.000118899
0.000119761
0.00011963
0.000117999
0.000117397
0.000117825
0.000116052
0.000114818
0.000113481
0.000112088
0.000111471
2.35236e-07
0.000324516
0.000368561
0.000434715
0.000472283
0.000462316
0.000431941
0.000404248
0.000381509
0.000361282
0.000342632
0.000326308
0.000305924
0.000293435
0.000274826
0.00027178
0.00026533
0.000264107
0.000261904
0.000258962
0.000257317
0.000253708
0.000253087
0.000248738
0.000247454
0.000243618
0.000241943
0.000239831
0.000235412
0.000234441
0.000231701
0.000229229
0.000225529
0.000223144
0.000222167
0.000218825
0.000218043
0.000215116
0.000213526
0.000212152
0.000211922
0.000210071
0.000209414
0.000207736
0.000206612
0.000204732
0.000204926
0.000204132
0.000203396
0.000202723
0.000202117
0.000201576
0.000201097
0.000200676
0.000200316
0.00020001
0.000198793
0.00019861
0.000199342
0.000198344
0.00019912
0.000199144
0.000199056
0.000198202
0.000198956
0.000198068
0.000198804
0.000197813
0.00019772
0.000198219
0.000198203
0.000196898
0.000197268
0.000196935
0.000195372
0.000194493
0.000194328
0.000192456
0.000190754
0.000188903
0.000186504
0.000185617
4.92405e-07
0.000451528
0.000547061
0.000642385
0.000697082
0.000718386
0.000678915
0.000654191
0.000628562
0.00060025
0.000570715
0.000542827
0.00050784
0.000484101
0.000450126
0.00043672
0.000420914
0.00041451
0.000407737
0.000400692
0.000395918
0.000388806
0.000384644
0.000378057
0.000373375
0.000367858
0.000363025
0.00035881
0.00035304
0.000349455
0.000344877
0.000340725
0.000336123
0.000332219
0.00032917
0.00032514
0.000322503
0.000319024
0.000316365
0.000313978
0.000312292
0.000310092
0.000308708
0.000305662
0.000303499
0.000301564
0.00030064
0.000299311
0.000298079
0.000296946
0.000295918
0.000294989
0.000294153
0.000293406
0.000292749
0.000292172
0.000291215
0.000290807
0.000290828
0.000290148
0.000290255
0.000290138
0.000289917
0.000289432
0.000289569
0.000289037
0.000289158
0.000288501
0.000288268
0.000288125
0.000287962
0.000286922
0.000286613
0.00028606
0.000284658
0.000283438
0.000282461
0.000280579
0.00027831
0.000275813
0.000272094
0.000270691
1.02015e-06
0.00061807
0.000788263
0.000991548
0.00107858
0.00111211
0.00104965
0.0010062
0.00096106
0.000912707
0.000863402
0.000816617
0.000762722
0.000722611
0.000671681
0.000644211
0.00061605
0.000601576
0.000588148
0.000575407
0.000565765
0.000553986
0.000545395
0.00053523
0.000526653
0.000518233
0.00050994
0.000502911
0.000494859
0.000488432
0.000481528
0.000475223
0.000468962
0.000463163
0.000457995
0.000452668
0.000448173
0.000443623
0.000439667
0.000436103
0.000433063
0.000430163
0.000428013
0.000422922
0.000419316
0.000416864
0.000414909
0.000412903
0.000411038
0.000409326
0.000407763
0.000406347
0.000405064
0.00040391
0.000402882
0.000401972
0.000400982
0.000400303
0.000399796
0.000399169
0.000398799
0.000398519
0.000398133
0.00039778
0.000397503
0.000397087
0.000396799
0.000396232
0.000395847
0.000395247
0.000394931
0.000393905
0.000393089
0.000392293
0.000390793
0.00038917
0.000387519
0.000385362
0.000382432
0.000379157
0.000374207
0.000371472
2.08058e-06
0.000847966
0.00108531
0.00143653
0.00156635
0.00159619
0.00150403
0.00143273
0.00136213
0.00128951
0.00121697
0.00114804
0.00107278
0.00101336
0.000943672
0.00089978
0.000856788
0.000831571
0.000809404
0.00078928
0.000773144
0.000755407
0.000741384
0.000726358
0.000713173
0.000700709
0.000688436
0.000677839
0.000666591
0.000656946
0.000647138
0.000638149
0.000629511
0.000621373
0.000613883
0.000606677
0.000600178
0.000594054
0.000588521
0.00058355
0.000579117
0.000575174
0.000572171
0.000564569
0.000559038
0.000555628
0.000552637
0.000549783
0.000547132
0.000544698
0.000542472
0.000540454
0.000538617
0.000536961
0.000535477
0.000534157
0.000532897
0.000531887
0.000530961
0.00053018
0.000529449
0.00052897
0.000528387
0.000527989
0.000527431
0.000526959
0.000526395
0.000525742
0.000525189
0.000524251
0.000523767
0.000522583
0.000521369
0.0005203
0.000518523
0.000516441
0.000514196
0.000511563
0.000507896
0.000503717
0.000497652
0.000492585
4.14305e-06
0.00118331
0.00144461
0.00196382
0.00214305
0.0021621
0.00203633
0.00193316
0.00183448
0.00173553
0.00163776
0.00154455
0.00144591
0.00136485
0.00127445
0.00121197
0.00115179
0.00111312
0.0010799
0.00105045
0.00102605
0.00100083
0.000980083
0.000958848
0.000940035
0.00092239
0.000905304
0.000890269
0.000874915
0.000861413
0.000848019
0.00083571
0.000824008
0.000812988
0.000802768
0.00079313
0.000784293
0.000776126
0.00076867
0.000761984
0.00075596
0.000750662
0.000746668
0.000736131
0.000728116
0.000723325
0.000719147
0.000715246
0.000711623
0.000708301
0.00070526
0.000702499
0.000699983
0.000697712
0.000695667
0.000693847
0.000692159
0.000690747
0.000689408
0.000688342
0.000687272
0.000686551
0.000685733
0.000685193
0.000684402
0.000683782
0.00068299
0.000682161
0.000681424
0.000680188
0.000679516
0.00067809
0.000676508
0.000675139
0.000672991
0.000670401
0.000667571
0.000664344
0.00065988
0.000654677
0.000647623
0.000639007
7.96272e-06
0.0016311
0.00188215
0.00257871
0.00281284
0.00281678
0.0026539
0.00251612
0.00238764
0.00226094
0.0021364
0.00201711
0.0018932
0.00178833
0.00167512
0.00159183
0.00151209
0.00145711
0.00141022
0.00136912
0.00133441
0.00129986
0.00127077
0.00124178
0.00121601
0.00119189
0.00116887
0.00114835
0.00112787
0.00110964
0.00109182
0.00107542
0.00105989
0.00104532
0.00103179
0.00101912
0.00100745
0.00099673
0.000986917
0.000978125
0.00097019
0.000963197
0.000958014
0.000944156
0.000933007
0.000926366
0.000920736
0.000915541
0.000910722
0.000906307
0.000902264
0.000898594
0.000895246
0.000892222
0.000889492
0.000887059
0.000884818
0.000882913
0.000881108
0.000879663
0.000878217
0.000877199
0.000876102
0.000875363
0.000874339
0.000873523
0.000872508
0.000871457
0.000870518
0.000868988
0.000868105
0.000866406
0.00086445
0.000862755
0.000860193
0.000857057
0.000853617
0.000849726
0.000844425
0.000838079
0.000830226
0.000816556
1.45599e-05
0.00221224
0.00242548
0.00329409
0.00358802
0.00357312
0.00336936
0.00319448
0.00303479
0.00287917
0.00272654
0.00257956
0.00242852
0.00229774
0.0021595
0.00205305
0.00195124
0.00187696
0.00181345
0.00175796
0.00171052
0.00166438
0.00162495
0.00158634
0.00155192
0.00151979
0.00148941
0.0014621
0.00143526
0.00141121
0.00138792
0.00136646
0.00134621
0.00132726
0.00130966
0.00129324
0.00127809
0.00126421
0.0012515
0.0012401
0.00122982
0.00122072
0.00121409
0.00119656
0.00118154
0.00117247
0.00116502
0.00115822
0.00115193
0.00114617
0.00114089
0.00113611
0.00113174
0.00112779
0.00112423
0.00112105
0.00111812
0.00111561
0.00111326
0.00111133
0.00110945
0.00110807
0.00110664
0.00110565
0.00110438
0.00110333
0.00110208
0.00110078
0.00109963
0.0010978
0.00109668
0.0010947
0.00109236
0.00109032
0.00108733
0.00108362
0.00107955
0.00107495
0.00106879
0.0010612
0.00105285
0.00103229
2.49629e-05
0.0029585
0.00311297
0.00412765
0.00448542
0.00444761
0.00419872
0.00398426
0.0037921
0.00360661
0.00342478
0.00324865
0.00306869
0.00290995
0.00274438
0.00261232
0.00248577
0.00238905
0.00230564
0.00223257
0.0021695
0.00210903
0.00205683
0.0020063
0.00196114
0.00191908
0.00187958
0.00184387
0.00180915
0.00177788
0.00174783
0.00172011
0.00169403
0.00166967
0.00164704
0.00162597
0.00160654
0.00158874
0.00157245
0.00155782
0.00154465
0.00153292
0.00152447
0.00150297
0.00148325
0.00147103
0.00146126
0.00145247
0.00144436
0.00143695
0.00143016
0.001424
0.00141838
0.00141331
0.00140871
0.00140461
0.00140085
0.00139761
0.00139458
0.00139208
0.00138967
0.00138783
0.00138601
0.00138472
0.00138318
0.00138187
0.00138037
0.0013788
0.00137742
0.00137529
0.00137392
0.00137167
0.00136894
0.00136654
0.00136313
0.00135885
0.00135413
0.0013488
0.00134183
0.00133288
0.00132449
0.00129497
3.97339e-05
0.00391054
0.00398127
0.00510138
0.00552573
0.00546003
0.00516112
0.00490451
0.00467879
0.0044628
0.00425093
0.00404445
0.00383394
0.00364527
0.00345002
0.00328978
0.00313567
0.0030132
0.00290632
0.00281204
0.00272995
0.00265188
0.0025839
0.00251866
0.00246018
0.00240584
0.00235497
0.00230887
0.00226437
0.00222415
0.00218572
0.00215025
0.00211694
0.00208587
0.00205702
0.0020302
0.00200546
0.00198279
0.00196205
0.00194339
0.00192661
0.0019116
0.00190085
0.0018751
0.00184979
0.00183352
0.00182081
0.00180952
0.00179916
0.0017897
0.00178105
0.0017732
0.00176604
0.00175957
0.00175372
0.00174849
0.00174371
0.00173956
0.00173573
0.0017325
0.00172946
0.00172707
0.00172477
0.00172313
0.00172127
0.00171968
0.00171792
0.00171607
0.00171446
0.00171203
0.0017104
0.0017079
0.0017048
0.00170205
0.00169825
0.00169343
0.00168808
0.00168204
0.00167432
0.00166395
0.00165614
0.00161555
5.86611e-05
0.00511861
0.00506671
0.00624161
0.00673376
0.00663358
0.00627903
0.00597764
0.00571752
0.00547078
0.00522846
0.0049908
0.00474835
0.00452801
0.00430073
0.00410969
0.00392498
0.00377332
0.00363915
0.0035196
0.00341458
0.00331504
0.00322771
0.00314437
0.00306937
0.00299982
0.00293484
0.00287585
0.00281921
0.00276787
0.00271903
0.00267391
0.00263164
0.00259223
0.00255567
0.00252167
0.00249035
0.0024616
0.00243534
0.00241164
0.00239035
0.00237121
0.00235749
0.00232725
0.00229543
0.002274
0.00225752
0.00224309
0.00222993
0.00221794
0.00220697
0.00219704
0.00218798
0.0021798
0.0021724
0.00216578
0.00215975
0.00215448
0.00214966
0.00214555
0.00214174
0.00213867
0.0021358
0.00213372
0.00213152
0.00212961
0.00212758
0.00212545
0.0021236
0.0021209
0.00211902
0.00211631
0.00211289
0.00210981
0.0021057
0.0021004
0.00209449
0.00208779
0.00207945
0.00206764
0.00206122
0.00200794
8.10025e-05
0.00664404
0.00641697
0.00757951
0.00813879
0.00799537
0.00757864
0.00722979
0.00693483
0.00665765
0.00638506
0.00611592
0.00584055
0.00558707
0.00532552
0.00510101
0.00488254
0.00469807
0.00453255
0.00438331
0.00425097
0.00412553
0.00401458
0.00390908
0.00381369
0.00372536
0.00364287
0.00356787
0.00349617
0.00343097
0.0033692
0.00331209
0.00325867
0.00320887
0.0031627
0.00311978
0.00308023
0.00304389
0.00301072
0.0029807
0.00295376
0.00292941
0.00291184
0.00287683
0.00283756
0.00280967
0.00278836
0.00276997
0.00275331
0.00273817
0.00272435
0.00271183
0.00270042
0.00269012
0.00268079
0.00267246
0.00266489
0.00265825
0.00265221
0.00264702
0.00264227
0.00263837
0.0026348
0.00263217
0.00262959
0.00262732
0.00262501
0.00262261
0.00262054
0.00261762
0.0026155
0.00261266
0.002609
0.00260565
0.00260133
0.00259568
0.00258932
0.00258207
0.00257336
0.00256012
0.00255605
0.00248986
0.000106061
0.00856113
0.00809386
0.00915242
0.00977311
0.00957622
0.0090899
0.008691
0.00836134
0.00805487
0.00775302
0.00745285
0.00714417
0.00685651
0.00655866
0.00629808
0.00604258
0.00582152
0.00562043
0.00543678
0.00527231
0.00511599
0.00497651
0.0048441
0.00472369
0.00461225
0.00450809
0.00441326
0.00432288
0.00424045
0.0041626
0.00409053
0.00402322
0.00396048
0.00390233
0.00384824
0.00379844
0.00375259
0.00371076
0.00367279
0.00363871
0.00360779
0.00358518
0.00354505
0.00349743
0.00346158
0.00343411
0.0034107
0.00338966
0.00337059
0.0033532
0.00333746
0.00332314
0.0033102
0.0032985
0.00328804
0.00327857
0.00327022
0.00326269
0.00325615
0.00325026
0.00324533
0.0032409
0.0032376
0.00323456
0.0032319
0.00322931
0.00322664
0.00322438
0.00322131
0.003219
0.00321613
0.00321235
0.00320885
0.00320447
0.00319866
0.00319206
0.00318444
0.00317567
0.00316112
0.00316044
0.00308378
0.000133542
0.0109593
0.0101746
0.0110064
0.0116623
0.0114043
0.0108424
0.0103919
0.0100296
0.00969701
0.00936857
0.00903911
0.00869774
0.00837562
0.00803989
0.00774089
0.00744513
0.00718366
0.00694269
0.00671974
0.00651804
0.00632542
0.00615193
0.00598718
0.00583635
0.00569668
0.00556588
0.00544657
0.0053331
0.00522928
0.00513145
0.00504077
0.00495616
0.00487726
0.00480416
0.00473613
0.00467348
0.00461571
0.004563
0.00451501
0.00447191
0.00443267
0.00440342
0.00435768
0.00430086
0.00425539
0.00422013
0.00419036
0.00416381
0.00413982
0.00411798
0.00409823
0.00408027
0.00406405
0.0040494
0.00403628
0.00402445
0.00401398
0.0040046
0.0039964
0.0039891
0.00398289
0.0039774
0.00397325
0.00396966
0.00396656
0.00396368
0.00396078
0.00395836
0.00395525
0.00395282
0.00395005
0.00394634
0.00394284
0.00393862
0.00393291
0.00392636
0.00391864
0.00391025
0.00389458
0.00389835
0.00381727
0.000163542
0.0139459
0.012754
0.013199
0.0138116
0.0134764
0.0128404
0.0123445
0.0119603
0.0116123
0.0112657
0.0109126
0.0105419
0.010187
0.00981318
0.00947424
0.00913559
0.00883018
0.0085452
0.00827813
0.00803405
0.00779956
0.00758616
0.00738312
0.00719582
0.00702202
0.00685878
0.00670948
0.00656766
0.00643742
0.00631488
0.0062011
0.00609499
0.00599597
0.00590423
0.00581878
0.00574007
0.00566735
0.00560096
0.00554034
0.00548584
0.00543604
0.00539808
0.0053459
0.00527911
0.00522229
0.00517728
0.00513946
0.00510596
0.00507581
0.0050484
0.00502364
0.00500114
0.00498082
0.00496248
0.00494605
0.00493128
0.00491816
0.00490648
0.00489621
0.00488716
0.00487937
0.00487257
0.00486734
0.00486306
0.00485944
0.00485625
0.00485314
0.00485063
0.00484759
0.00484516
0.00484266
0.00483925
0.00483599
0.00483221
0.00482697
0.00482086
0.00481341
0.00480597
0.0047895
0.00479866
0.00472065
0.000525324
0.0176493
0.015947
0.0158018
0.0162163
0.0157519
0.0150416
0.0145146
0.0141325
0.0137965
0.0134553
0.0130966
0.0127089
0.012329
0.0119214
0.011544
0.0111619
0.0108104
0.0104783
0.010163
0.00987198
0.00959032
0.00933118
0.00908374
0.00885354
0.00863916
0.008437
0.00825142
0.00807516
0.0079126
0.00775973
0.00761748
0.0074848
0.00736086
0.00724596
0.00713884
0.00704007
0.00694866
0.0068651
0.00678859
0.00671966
0.00665652
0.00660715
0.00654727
0.00646977
0.00639983
0.00634285
0.0062949
0.00625268
0.00621479
0.00618042
0.00614938
0.00612121
0.00609577
0.00607282
0.00605224
0.00603379
0.00601736
0.0060028
0.00598995
0.00597871
0.00596897
0.00596051
0.00595391
0.00594874
0.00594448
0.00594093
0.00593765
0.0059351
0.00593228
0.00593
0.00592797
0.00592516
0.00592244
0.00591946
0.00591512
0.00590995
0.00590325
0.00589744
0.00588059
0.00589601
0.00582546
0.00143439
0.0222237
0.0198907
0.0189005
0.0188787
0.0181936
0.0173963
0.0168502
0.0164944
0.0162034
0.0159047
0.0155752
0.0152001
0.0148178
0.0143923
0.0139863
0.0135666
0.0131712
0.0127921
0.0124269
0.0120861
0.0117534
0.0114436
0.0111463
0.0108671
0.0106057
0.0103579
0.0101293
0.00991191
0.00971044
0.00952085
0.00934393
0.00917877
0.00902424
0.0088808
0.0087469
0.00862328
0.00850862
0.00840363
0.00830723
0.00822014
0.00814019
0.00807599
0.00800648
0.00791749
0.00783277
0.0077614
0.00770088
0.00764774
0.00760017
0.00755712
0.00751822
0.00748297
0.00745113
0.00742241
0.00739664
0.00737358
0.00735301
0.00733484
0.00731876
0.00730478
0.0072926
0.00728207
0.0072737
0.00726734
0.00726225
0.00725826
0.0072548
0.00725227
0.00724982
0.00724787
0.00724654
0.00724467
0.00724286
0.00724109
0.00723817
0.00723455
0.00722916
0.00722574
0.00720904
0.00723151
0.00716435
0.00376529
0.0278565
0.024746
0.0225898
0.0218116
0.0207804
0.0198701
0.0193103
0.0189977
0.018778
0.018556
0.0182951
0.0179736
0.0176274
0.017217
0.016808
0.0163694
0.0159427
0.0155246
0.0151139
0.0147255
0.0143417
0.0139794
0.0136291
0.0132964
0.0129827
0.0126832
0.0124052
0.0121402
0.0118931
0.01166
0.0114418
0.0112376
0.0110462
0.0108681
0.0107015
0.0105475
0.0104042
0.0102728
0.0101517
0.010042
0.009941
0.0098578
0.00977591
0.00967444
0.00957344
0.00948524
0.00940941
0.00934276
0.00928319
0.00922935
0.0091807
0.00913664
0.00909681
0.00906091
0.00902865
0.00899984
0.00897409
0.00895141
0.00893128
0.00891386
0.00889864
0.0088855
0.00887486
0.0088669
0.00886069
0.00885608
0.00885238
0.00884989
0.00884795
0.00884653
0.00884613
0.00884555
0.00884506
0.00884496
0.00884402
0.00884259
0.00883914
0.0088389
0.00882289
0.00885312
0.0087872
0.00588126
0.034768
0.0306947
0.0269553
0.0250319
0.0235005
0.0224388
0.0218655
0.0216066
0.0214757
0.0213549
0.0211943
0.0209646
0.0206963
0.0203437
0.0199712
0.0195487
0.0191188
0.0186836
0.0182435
0.0178192
0.0173925
0.0169825
0.0165813
0.0161951
0.0158274
0.0154729
0.0151413
0.0148236
0.0145251
0.0142425
0.0139766
0.013727
0.0134921
0.0132731
0.0130677
0.0128771
0.0126994
0.0125358
0.0123847
0.0122471
0.0121203
0.0120132
0.0119153
0.0118
0.0116814
0.0115741
0.0114802
0.0113971
0.0113229
0.0112558
0.0111951
0.0111402
0.0110905
0.0110458
0.0110055
0.0109695
0.0109373
0.010909
0.0108838
0.0108621
0.0108431
0.0108267
0.0108132
0.0108031
0.0107953
0.0107898
0.0107857
0.0107832
0.0107818
0.0107811
0.0107818
0.0107829
0.0107841
0.0107861
0.0107877
0.0107891
0.0107882
0.0107918
0.0107769
0.0108155
0.0107439
0.00835567
0.0429868
0.0379087
0.0320258
0.0285438
0.0263409
0.0250795
0.0244896
0.0242919
0.0242615
0.0242578
0.0242191
0.0241098
0.0239541
0.0236986
0.0234047
0.0230405
0.0226477
0.022231
0.0217922
0.0213577
0.0209088
0.020467
0.0200272
0.019596
0.0191796
0.018773
0.0183884
0.0180169
0.0176646
0.0173291
0.0170111
0.0167112
0.0164277
0.0161621
0.0159121
0.0156792
0.0154614
0.0152599
0.0150731
0.0149023
0.0147444
0.0146081
0.0144897
0.0143588
0.0142217
0.0140935
0.0139788
0.0138765
0.0137847
0.0137017
0.0136265
0.0135585
0.0134968
0.0134412
0.0133911
0.0133464
0.0133063
0.0132711
0.0132397
0.0132127
0.013189
0.0131686
0.0131513
0.0131384
0.0131285
0.0131216
0.0131168
0.0131141
0.0131133
0.0131133
0.0131153
0.0131182
0.0131215
0.013126
0.0131305
0.0131352
0.0131372
0.0131452
0.0131315
0.0131786
0.0130931
0.0112297
0.0520055
0.0462778
0.0377068
0.032309
0.0292726
0.0277599
0.0271511
0.0270216
0.0271008
0.0272252
0.0273229
0.0273545
0.0273368
0.0272085
0.0270282
0.0267612
0.0264475
0.0260904
0.0256926
0.0252847
0.0248466
0.0244019
0.0239482
0.0234926
0.023044
0.0225978
0.0221698
0.0217511
0.0213493
0.0209628
0.0205934
0.0202422
0.019908
0.019593
0.0192948
0.0190157
0.0187533
0.0185094
0.0182822
0.0180731
0.0178794
0.0177089
0.0175652
0.0174164
0.0172602
0.0171102
0.0169729
0.0168489
0.0167369
0.0166354
0.0165433
0.0164598
0.0163839
0.0163155
0.0162537
0.0161985
0.0161489
0.0161054
0.0160665
0.0160331
0.0160038
0.0159785
0.0159567
0.0159401
0.0159272
0.0159184
0.0159125
0.0159092
0.0159088
0.0159094
0.0159127
0.0159175
0.0159229
0.01593
0.0159376
0.0159459
0.0159509
0.0159632
0.0159502
0.0160053
0.0158985
0.0145412
0.0613824
0.0552704
0.0437263
0.0361899
0.0322247
0.0304274
0.0298058
0.0297539
0.0299515
0.030212
0.0304562
0.0306448
0.030784
0.0308055
0.0307654
0.0306267
0.0304283
0.0301687
0.0298517
0.0295103
0.0291219
0.0287112
0.0282781
0.0278298
0.0273769
0.0269156
0.0264648
0.0260162
0.0255787
0.0251524
0.0247398
0.0243435
0.0239628
0.0236008
0.0232557
0.0229303
0.0226225
0.0223344
0.0220645
0.0218145
0.0215818
0.0213736
0.0212006
0.0210319
0.0208563
0.0206849
0.0205245
0.0203776
0.0202437
0.0201218
0.0200107
0.0199098
0.019818
0.019735
0.0196598
0.0195926
0.019532
0.0194788
0.0194314
0.0193904
0.0193546
0.0193236
0.0192964
0.0192753
0.0192587
0.0192472
0.0192394
0.0192351
0.0192346
0.0192356
0.0192399
0.0192464
0.0192539
0.0192635
0.019274
0.0192856
0.0192932
0.0193091
0.0192956
0.0193568
0.0192242
0.018313
0.0708198
0.0643697
0.0495411
0.0398386
0.0350359
0.0329907
0.0323928
0.0324335
0.0327592
0.0331606
0.0335575
0.0339167
0.0342278
0.0344165
0.0345377
0.0345528
0.0344999
0.0343695
0.0341689
0.0339311
0.0336298
0.033291
0.0329164
0.0325126
0.0320903
0.031647
0.0312037
0.0307524
0.0303035
0.0298584
0.0294209
0.0289949
0.0285805
0.0281821
0.0277985
0.0274333
0.027085
0.0267564
0.0264462
0.0261565
0.0258854
0.0256392
0.0254355
0.0252459
0.0250519
0.0248609
0.0246792
0.0245103
0.0243546
0.024212
0.0240812
0.0239621
0.0238533
0.0237548
0.0236652
0.0235851
0.0235127
0.023449
0.0233921
0.023343
0.0233
0.0232628
0.0232297
0.0232034
0.0231824
0.0231674
0.0231572
0.0231513
0.0231502
0.023151
0.023156
0.0231638
0.0231729
0.0231845
0.0231973
0.0232113
0.0232205
0.0232385
0.0232225
0.0232869
0.0231268
0.0225514
0.080038
0.0729412
0.0551249
0.0431208
0.0376904
0.0354947
0.0349343
0.0350438
0.0354613
0.0360006
0.0365508
0.037092
0.0375847
0.037953
0.0382523
0.0384428
0.0385624
0.0385882
0.0385361
0.0384356
0.0382552
0.0380234
0.0377442
0.037422
0.0370669
0.036678
0.0362776
0.035857
0.035428
0.0349933
0.0345577
0.0341262
0.0336998
0.0332843
0.032879
0.0324888
0.0321127
0.0317542
0.0314127
0.0310908
0.0307874
0.0305082
0.0302763
0.0300675
0.0298579
0.0296514
0.0294527
0.0292655
0.029091
0.0289298
0.0287811
0.028645
0.0285201
0.0284068
0.0283033
0.0282105
0.0281266
0.0280526
0.0279864
0.0279292
0.0278793
0.027836
0.0277971
0.0277656
0.0277399
0.0277212
0.0277081
0.0277001
0.027698
0.0276983
0.0277035
0.0277121
0.0277221
0.0277351
0.0277493
0.0277646
0.0277739
0.0277921
0.0277711
0.0278341
0.0276484
0.027272
0.0886927
0.0804902
0.0616
0.0473474
0.0408516
0.0384388
0.0378293
0.0379127
0.0383241
0.0388974
0.039513
0.0401514
0.0407617
0.0413087
0.0417966
0.0421797
0.0424958
0.0426991
0.0428268
0.0428953
0.0428662
0.0427741
0.042626
0.0424212
0.0421684
0.041871
0.0415501
0.0411956
0.0408214
0.0404308
0.0400295
0.0396228
0.039213
0.0388067
0.0384042
0.0380112
0.0376274
0.0372573
0.0369008
0.0365612
0.0362381
0.0359371
0.0356854
0.0354632
0.0352437
0.0350283
0.0348198
0.0346214
0.0344344
0.0342602
0.0340981
0.0339492
0.0338117
0.0336866
0.033572
0.033469
0.0333756
0.0332931
0.0332194
0.0331557
0.0331002
0.0330523
0.0330087
0.032973
0.0329434
0.0329215
0.0329059
0.0328961
0.0328931
0.0328928
0.0328981
0.0329073
0.0329179
0.0329316
0.0329465
0.0329621
0.0329701
0.0329863
0.0329582
0.033015
0.0328084
0.0325031
0.0963441
0.0870163
0.0691136
0.0540522
0.0462289
0.0430807
0.0419633
0.0417214
0.0419013
0.0423154
0.0428401
0.0434289
0.0440356
0.0446294
0.0452017
0.0456915
0.0461659
0.0465523
0.0468906
0.0471557
0.0473022
0.0473809
0.0474
0.0473463
0.0472299
0.0470619
0.0468574
0.0466052
0.0463221
0.0460117
0.0456797
0.0453319
0.0449716
0.044606
0.0442361
0.0438684
0.0435034
0.0431463
0.0427976
0.0424613
0.042138
0.0418329
0.0415755
0.0413505
0.0411306
0.0409159
0.0407076
0.040508
0.0403182
0.0401399
0.0399728
0.0398184
0.0396751
0.0395443
0.039424
0.0393159
0.0392175
0.0391308
0.0390533
0.0389867
0.0389288
0.0388792
0.038834
0.0387968
0.0387656
0.0387425
0.0387261
0.0387159
0.0387133
0.0387134
0.0387196
0.03873
0.0387416
0.0387563
0.0387719
0.0387874
0.0387937
0.0388067
0.0387711
0.038817
0.0385983
0.0382745
0.102523
0.0930793
0.0774193
0.0629796
0.0544655
0.0501891
0.0480525
0.0470918
0.0467534
0.0467745
0.0470114
0.047364
0.0478084
0.0482853
0.0488001
0.0492773
0.0497731
0.0502243
0.0506583
0.0510501
0.0513757
0.0516533
0.0518748
0.0519986
0.0520493
0.0520503
0.0519985
0.0518839
0.0517295
0.0515374
0.0513122
0.0510599
0.0507853
0.0504957
0.0501924
0.0498828
0.0495679
0.0492537
0.0489411
0.0486349
0.0483365
0.0480509
0.0478075
0.0475951
0.0473885
0.0471874
0.0469922
0.0468044
0.0466244
0.0464543
0.0462937
0.0461445
0.0460054
0.0458782
0.0457609
0.0456555
0.0455596
0.0454756
0.0454006
0.0453369
0.0452822
0.0452361
0.0451941
0.04516
0.0451316
0.0451114
0.0450978
0.0450904
0.045091
0.0450943
0.0451038
0.0451176
0.0451323
0.0451498
0.0451675
0.0451843
0.0451904
0.0452009
0.0451599
0.0451921
0.0449748
0.0445864
0.107139
0.0992808
0.0861909
0.0731141
0.0642073
0.0587174
0.0554709
0.0536855
0.0527419
0.0522869
0.0521352
0.0521448
0.052315
0.0525525
0.0528818
0.0532241
0.0536086
0.0539984
0.0544003
0.0547994
0.0551747
0.0555355
0.0558606
0.0561548
0.0563954
0.0566066
0.0567337
0.0567868
0.056799
0.0567632
0.0566819
0.0565631
0.0564131
0.0562375
0.0560382
0.0558232
0.0555941
0.0553571
0.0551139
0.0548696
0.0546265
0.0543895
0.054185
0.0540054
0.0538303
0.0536597
0.0534935
0.0533332
0.0531786
0.0530318
0.0528922
0.0527622
0.0526405
0.0525293
0.0524267
0.0523351
0.0522521
0.0521803
0.0521171
0.0520647
0.0520211
0.0519861
0.0519547
0.0519308
0.051912
0.0519009
0.0518961
0.0518972
0.0519062
0.0519175
0.0519349
0.0519564
0.0519783
0.0520026
0.0520265
0.0520484
0.0520582
0.0520698
0.0520296
0.0520485
0.0518498
0.0513881
0.111533
0.105434
0.0949682
0.0833017
0.0733407
0.066518
0.0625925
0.060333
0.0590191
0.0582332
0.0577539
0.0574613
0.0573693
0.0573587
0.0574586
0.0576004
0.0577986
0.0580387
0.0583099
0.0586124
0.0589236
0.0592525
0.0595768
0.0599076
0.0602228
0.0605304
0.060811
0.061048
0.0612611
0.0614102
0.0615016
0.061551
0.0615627
0.0615381
0.0614804
0.0613981
0.0612928
0.0611704
0.0610332
0.0608868
0.0607341
0.0605794
0.0604434
0.0603213
0.0602004
0.0600811
0.0599637
0.0598498
0.059739
0.0596334
0.0595324
0.0594385
0.0593505
0.0592708
0.0591978
0.0591341
0.0590774
0.0590307
0.0589912
0.0589616
0.0589399
0.0589261
0.0589152
0.0589112
0.0589112
0.0589183
0.0589308
0.0589486
0.0589737
0.0590007
0.0590333
0.0590694
0.0591056
0.0591435
0.0591803
0.0592142
0.0592353
0.0592552
0.0592259
0.0592372
0.059076
0.058563
0.116332
0.111627
0.103314
0.093289
0.0837872
0.0761207
0.0703997
0.066961
0.0650298
0.0638676
0.0631714
0.0627388
0.0625184
0.0623507
0.06226
0.0622139
0.0622335
0.0623068
0.0624102
0.0625587
0.0627324
0.0629446
0.0631802
0.0634455
0.0637292
0.0640287
0.0643374
0.0646388
0.0649411
0.0652247
0.0654885
0.0657288
0.0659265
0.066076
0.0661884
0.0662713
0.0663232
0.0663498
0.0663543
0.0663419
0.0663155
0.0662792
0.0662438
0.0662067
0.0661658
0.066122
0.0660763
0.0660305
0.0659846
0.0659406
0.0658982
0.0658599
0.0658246
0.0657949
0.0657692
0.0657504
0.0657365
0.0657303
0.0657296
0.065737
0.0657506
0.065771
0.0657933
0.0658213
0.0658523
0.0658891
0.0659304
0.0659759
0.0660278
0.0660808
0.0661388
0.0661997
0.06626
0.0663216
0.0663815
0.0664376
0.0664812
0.066521
0.066517
0.0665334
0.0664288
0.0659107
0.120468
0.117181
0.110861
0.102876
0.0947771
0.0875465
0.0814476
0.076662
0.0730317
0.0706029
0.069204
0.0683158
0.0677156
0.0672586
0.0669807
0.0668083
0.0667346
0.0666779
0.0666213
0.0666046
0.0666163
0.0666736
0.0667698
0.0669067
0.0670808
0.0672855
0.0675214
0.0677777
0.0680589
0.068354
0.0686623
0.0689755
0.0692876
0.0695879
0.0698748
0.0701334
0.0703537
0.0705459
0.0707142
0.0708612
0.0709887
0.0711003
0.0711934
0.0712662
0.071329
0.0713839
0.0714324
0.0714766
0.071517
0.0715557
0.0715926
0.07163
0.0716675
0.0717073
0.0717483
0.071793
0.07184
0.0718918
0.0719469
0.0720075
0.0720722
0.0721417
0.072212
0.0722865
0.0723626
0.0724432
0.0725268
0.0726136
0.0727053
0.0727976
0.072894
0.0729923
0.0730899
0.0731882
0.0732845
0.0733768
0.073458
0.0735334
0.0735734
0.0736151
0.0735857
0.0731276
0.123925
0.121717
0.117294
0.111472
0.10499
0.0985667
0.0928379
0.0880156
0.084033
0.0807891
0.0782274
0.0760675
0.0743681
0.0731199
0.0723611
0.0718566
0.0714916
0.0711965
0.0709382