/*--------------------------------*- C++ -*----------------------------------*\
| =========                 |                                                 |
| \\      /  F ield         | OpenFOAM: The Open Source CFD Toolbox           |
|  \\    /   O peration     | Version:  5.x                                   |
|   \\  /    A nd           | Web:      www.OpenFOAM.org                      |
|    \\/     M anipulation  |                                                 |
\*---------------------------------------------------------------------------*/
FoamFile
{
    version     2.0;
    format      ascii;
    class       volScalarField;
    location    "950";
    object      p;
}
// * * * * * * * * * * * * * * * * * * * * * * * * * * * * * * * * * * * * * //

dimensions      [0 2 -2 0 0 0 0];

internalField   nonuniform List<scalar> 
11040
(
-0.000190395
-53.7866
-181.631
-216.397
-228.117
-235.299
-236.155
-230.658
-220.658
-206.755
-188.707
-161.045
-134.436
-115.437
-102.081
-87.8494
-73.4152
-59.7858
-46.8831
-34.4366
-22.407
-12.0357
-3.38504
4.68741
12.2186
19.2143
25.6648
31.5552
36.8529
41.504
45.4411
48.6173
51.0527
52.8267
54.0893
54.9349
55.1817
54.8697
54.9345
57.0776
56.954
19.1701
-32.8879
-115.261
-157.442
-179.684
-196.022
-205.664
-207.892
-204.102
-195.237
-181.432
-158.461
-134.295
-115.627
-101.982
-87.9138
-73.6407
-60.0792
-47.2157
-34.7997
-22.7879
-12.438
-3.7674
4.3246
11.8767
18.8969
25.3766
31.3016
36.6372
41.3273
45.306
48.5269
51.0013
52.7982
54.0765
54.9495
55.2262
54.8915
54.7305
56.3254
55.8967
31.9311
-18.6045
-77.9561
-127.331
-156.856
-176.439
-188.637
-193.305
-191.692
-184.884
-173.445
-154.382
-132.557
-114.331
-100.637
-87.0944
-73.2216
-59.8659
-47.1446
-34.8424
-22.9123
-12.6014
-3.95067
4.12802
11.6734
18.6937
25.1807
31.1196
36.4745
41.1897
45.2006
48.4582
50.9662
52.7896
54.0835
54.9775
55.2826
54.966
54.7196
55.8785
55.253
40.777
-4.4194
-48.9035
-94.0041
-125.448
-147.801
-163.724
-172.599
-174.835
-171.443
-163.261
-148.303
-129.4
-112.203
-98.6873
-85.7334
-72.3803
-59.3369
-46.8378
-34.714
-22.9152
-12.6885
-4.08653
3.96036
11.4851
18.4947
24.981
30.9279
36.299
41.0391
45.0839
48.3818
50.9308
52.7894
54.1017
55.0052
55.3294
55.0331
54.7442
55.6164
55.1026
47.6701
8.91608
-25.6436
-64.2586
-95.8798
-120.089
-138.48
-150.554
-156.204
-156.147
-151.253
-140.362
-124.86
-109.239
-96.125
-83.7864
-71.0799
-58.4753
-46.2881
-34.4184
-22.8182
-12.7274
-4.20704
3.78031
11.2613
18.2412
24.7121
30.6565
36.038
40.8023
44.8857
48.235
50.8417
52.7548
54.1015
55.0169
55.3622
55.0993
54.7846
55.5191
55.3235
52.8727
20.551
-7.01869
-39.0724
-68.3867
-92.6244
-112.249
-126.722
-135.457
-138.722
-137.219
-130.356
-118.563
-105.073
-92.7541
-81.143
-69.2184
-57.1938
-45.4204
-33.8876
-22.5604
-12.6586
-4.2634
3.62595
11.0301
17.9518
24.3831
30.3056
35.6833
40.4634
44.5842
47.992
50.6714
52.6602
54.0636
55.0051
55.3865
55.1904
54.8879
55.582
55.7236
56.7861
30.2826
7.9035
-18.3136
-43.9581
-66.7061
-86.2634
-101.992
-113.031
-119.229
-120.987
-117.984
-110.066
-99.289
-88.3183
-77.6596
-66.6691
-55.3868
-44.156
-33.0603
-22.0915
-12.4436
-4.2263
3.52034
10.8085
17.6366
23.9966
29.8699
35.2217
40.0024
44.1534
47.6221
50.3868
52.4733
53.9619
54.9578
55.4054
55.3224
55.0959
55.7911
56.2484
59.7281
38.1617
19.8294
-1.47708
-23.0909
-43.3435
-61.7171
-77.5336
-89.8669
-98.2691
-102.824
-103.278
-99.1372
-91.4801
-82.4416
-73.0797
-63.2294
-52.8893
-42.3702
-31.8399
-21.3382
-12.0281
-4.0535
3.49573
10.6196
17.3101
23.558
29.3451
34.6392
39.395
43.5595
47.0835
49.9408
52.1455
53.7535
54.8483
55.4129
55.5019
55.4259
56.1718
56.8946
61.924
44.396
29.3056
12.0222
-5.79405
-23.1161
-39.5302
-54.438
-67.0145
-76.6894
-83.3081
-86.5805
-85.8257
-81.3964
-74.7568
-67.0927
-58.6422
-49.4801
-39.8844
-30.0853
-20.186
-11.3162
-3.66353
3.61832
10.5169
17.0154
23.101
28.7552
33.9485
38.6415
42.789
46.3479
49.2919
51.6259
53.3858
54.6353
55.3862
55.7236
55.8839
56.7614
57.6534
63.5339
49.2524
36.7906
22.7684
8.262
-6.14834
-20.2369
-33.5689
-45.5017
-55.4992
-63.2879
-68.5464
-70.518
-69.079
-65.0504
-59.4279
-52.6515
-44.913
-36.4805
-27.6174
-18.4882
-10.1828
-2.94695
3.98182
10.5807
16.8229
22.6887
28.1571
33.2003
37.7846
41.8728
45.4309
48.4363
50.8909
52.8195
54.2714
55.2784
55.9457
56.435
57.5314
58.5221
64.6857
52.9986
42.6788
31.2872
19.5452
7.76392
-3.98165
-15.429
-26.1232
-35.654
-43.7423
-50.0808
-53.9392
-54.9366
-53.3911
-49.9592
-45.0664
-38.9684
-31.9321
-24.2288
-16.0679
-8.47771
-1.77212
4.70199
10.9126
16.8233
22.4046
27.6304
32.4728
36.9018
40.8871
44.4025
47.4319
49.9788
52.0661
53.7372
55.0354
56.0772
56.9599
58.3318
59.4519
65.486
55.8744
47.3061
38.0322
28.5464
19.0079
9.40326
-0.13465
-9.31496
-17.8633
-25.5626
-32.1601
-37.0319
-39.7135
-40.2041
-38.8283
-35.8601
-31.5239
-26.06
-19.7205
-12.7302
-6.02292
0.0207894
5.92322
11.6422
17.133
22.3547
27.2741
31.8615
36.0884
39.929
43.3627
46.3788
48.983
51.1997
53.0702
54.6419
56.031
57.296
58.9291
60.2633
66.0266
58.084
50.9536
43.3843
35.7175
28.0294
20.265
12.4769
4.83455
-2.49047
-9.36537
-15.6114
-20.745
-24.3334
-26.2234
-26.5028
-25.2689
-22.6477
-18.8122
-13.9635
-8.30726
-2.64082
2.60616
7.81371
12.929
17.9001
22.6759
27.2151
31.4847
35.4562
39.106
42.4168
45.3807
48.0042
50.3111
52.3378
54.1275
55.7808
57.3428
59.1426
60.7246
66.3838
59.7937
53.8493
47.6547
41.4473
35.258
29.0185
22.738
16.5086
10.4295
4.56832
-0.967064
-5.82943
-9.67316
-12.3087
-13.6973
-13.8092
-12.6636
-10.345
-6.98079
-2.72738
1.79079
6.13052
10.5347
14.942
19.2947
23.534
27.6121
31.4924
35.1452
38.5471
41.6821
44.5427
47.1342
49.4763
51.5968
53.5288
55.3458
57.0874
58.9398
60.6643
66.6164
61.1322
56.1714
51.0895
46.0522
41.0663
36.0641
31.034
26.0232
21.0839
16.2477
11.5661
7.27387
3.62187
0.776018
-1.18256
-2.16416
-2.11657
-1.04647
0.993387
3.90971
7.26508
10.6461
14.1816
17.8071
21.4639
25.0892
28.6307
32.0492
35.3143
38.4021
41.2958
43.9864
46.4755
48.7769
50.908
52.889
54.7666
56.5701
58.3889
60.1091
66.778
62.206
58.0635
53.8841
49.7856
45.7621
41.7518
37.7354
33.7352
29.7767
25.8707
22.0363
18.4253
15.2088
12.5098
10.4065
8.99757
8.36317
8.54267
9.53877
11.3154
13.6065
16.0626
18.7326
21.5574
24.4822
27.4466
30.3986
33.2981
36.1138
38.8214
41.4032
43.8481
46.153
48.3246
50.3702
52.298
54.1344
55.8967
57.6223
59.2534
66.9272
63.113
59.6538
56.2097
52.8669
49.6121
46.3916
43.1846
40.0003
36.8502
33.7342
30.657
27.7126
25.0141
22.6452
20.6651
19.1565
18.1972
17.8416
18.1211
19.0375
20.4562
22.1079
23.9956
26.0712
28.2884
30.5948
32.9437
35.2977
37.6269
39.9069
42.1192
44.2503
46.2933
48.2489
50.1168
51.8967
53.6015
55.2388
56.8209
58.319
67.0592
63.8453
60.9257
58.0505
55.287
52.6167
49.9929
47.3968
44.8316
42.3019
39.8042
37.338
34.9624
32.7501
30.7563
29.0225
27.6098
26.581
25.9871
25.8663
26.2373
27.0469
28.0989
29.3767
30.8447
32.4669
34.2014
36.0095
37.8593
39.7241
41.5817
43.4139
45.2066
46.9503
48.6417
50.2755
51.8469
53.361
54.82
56.225
57.5633
67.1662
64.4165
61.9143
59.4739
57.149
54.918
52.7405
50.5998
48.496
46.4302
44.3977
42.3959
40.4645
38.652
36.9946
35.5208
34.2743
33.302
32.6453
32.3389
32.4054
32.8344
33.4841
34.3332
35.3571
36.5289
37.8162
39.1887
40.6205
42.0893
43.5757
45.0635
46.539
47.9922
49.4175
50.8078
52.1559
53.4629
54.7277
55.9464
57.1138
67.2638
64.8813
62.7101
60.6097
58.6242
56.7305
54.8935
53.0986
51.3443
49.63
47.9509
46.3041
44.7171
43.2234
41.8471
40.6078
39.5367
38.6679
38.0329
37.66
37.5699
37.7721
38.1627
38.7219
39.4334
40.2771
41.2287
42.2649
43.3654
44.5122
45.6892
46.8823
48.0795
49.2711
50.4511
51.6118
52.7456
53.8516
54.927
55.9666
56.9678
67.3572
65.2717
63.3689
61.5413
59.8254
58.1981
56.6284
55.1035
53.6211
52.18
50.7754
49.4044
48.0869
46.8469
45.7007
44.6616
43.7523
42.9973
42.42
42.0422
41.881
41.9533
42.181
42.5478
43.0434
43.6525
44.3569
45.1389
45.9829
46.8747
47.8012
48.7507
49.7131
50.6797
51.6447
52.6008
53.5412
54.4639
55.3656
56.2409
57.0883
67.4484
65.6079
63.9268
62.3223
60.8253
59.4126
58.0571
56.7475
55.4812
54.2563
53.0687
51.9157
50.8117
49.7745
48.8153
47.9433
47.175
46.5283
46.0201
45.6668
45.4816
45.483
45.6103
45.8511
46.1988
46.6419
47.1663
47.7588
48.4074
49.1008
49.8288
50.5819
51.3515
52.1306
52.9138
53.6947
54.4674
55.2298
55.9784
56.7086
57.4186
67.5379
65.9024
64.407
62.988
61.6714
60.4348
59.254
58.1193
57.0278
55.9772
54.964
53.9857
53.0531
52.1793
51.3725
50.6388
49.9903
49.4402
49.0006
48.6839
48.4995
48.465
48.5316
48.6903
48.9372
49.2632
49.6572
50.1094
50.6103
51.1513
51.7242
52.3214
52.936
53.5622
54.1953
54.8301
55.4615
56.0876
56.7052
57.3104
57.9012
67.6256
66.1634
64.8255
63.5626
62.3968
61.3068
60.2707
59.2801
58.332
57.424
56.553
55.7166
54.9231
54.1823
53.5
52.8807
52.3328
51.8663
51.49
51.2127
51.0414
50.991
51.0218
51.1274
51.3054
51.5486
51.8482
52.1965
52.5863
53.0107
53.4634
53.9382
54.4296
54.9329
55.4443
55.9594
56.4741
56.9867
57.4943
57.9939
58.4832
67.711
66.3969
65.1937
64.0636
63.0254
62.0586
61.1438
60.2735
59.4446
58.6548
57.901
57.1814
56.502
55.8703
55.2906
54.7658
54.3022
53.907
53.5866
53.3474
53.1941
53.1394
53.1496
53.2208
53.3516
53.5359
53.7667
54.038
54.344
54.6795
55.0392
55.4184
55.8127
56.2182
56.6319
57.05
57.4695
57.8888
58.3055
58.7173
59.1215
67.7937
66.607
65.5202
64.504
63.5745
62.7124
61.9004
61.1315
60.4027
59.7118
59.0559
58.4333
57.8485
57.3072
56.8124
56.3662
55.973
55.6381
55.3662
55.1617
55.0278
54.9747
54.9738
55.0227
55.1208
55.2629
55.4433
55.657
55.8998
56.1671
56.455
56.7596
57.0775
57.4054
57.7411
58.0813
58.4238
58.7672
59.1095
59.4489
59.7826
67.8734
66.7971
65.8112
64.8934
64.0574
63.2851
62.5608
61.8781
61.2343
60.627
60.0534
59.5121
59.0064
58.5405
58.1166
57.736
57.4018
57.1178
56.8874
56.7136
56.5985
56.5501
56.5437
56.5782
56.6534
56.7649
56.9079
57.0783
57.2728
57.4878
57.72
57.9663
58.224
58.4906
58.764
59.0419
59.3223
59.6042
59.8859
60.166
60.4418
67.9497
66.9696
66.0717
65.2394
64.4843
63.7894
63.1405
62.5319
61.9607
61.4245
60.9209
60.4484
60.0093
59.6068
59.2423
58.9167
58.6321
58.3911
58.196
58.049
57.9511
57.9086
57.9001
57.9253
57.9843
58.0733
58.1882
58.3258
58.4831
58.6576
58.8463
59.0469
59.2572
59.475
59.6989
59.9268
60.1573
60.3895
60.6219
60.8537
61.0819
68.0224
67.1264
66.3057
65.548
64.8633
64.2356
63.652
63.1072
62.5985
62.1234
61.6796
61.2656
60.883
60.5342
60.22
59.9407
59.6979
59.4932
59.3281
59.2041
59.1216
59.0853
59.0766
59.0957
59.1431
59.2153
59.3089
59.4212
59.5499
59.6926
59.8473
60.0118
60.1844
60.3635
60.5478
60.7356
60.9258
61.1178
61.3102
61.5026
61.692
68.0914
67.2691
66.5163
65.824
65.2008
64.6316
64.1049
63.6155
63.1609
62.7385
62.3461
61.9823
61.6481
61.3449
61.0734
60.8334
60.6259
60.452
60.3124
60.208
60.139
60.1088
60.1008
60.1161
60.155
60.2146
60.2918
60.3844
60.4906
60.6084
60.736
60.8719
61.0145
61.1626
61.315
61.4706
61.6283
61.7876
61.9476
62.1077
62.2654
68.1565
67.399
66.7061
66.0713
65.502
64.9841
64.507
64.066
63.6584
63.2818
62.9339
62.6134
62.3206
62.0567
61.8216
61.615
61.4376
61.2897
61.1718
61.0843
61.0268
61.0022
60.9956
61.0084
61.041
61.0908
61.1553
61.2325
61.3208
61.4188
61.525
61.6379
61.7564
61.8795
62.0063
62.1357
62.267
62.3998
62.5332
62.667
62.7986
68.2177
67.5173
66.8772
66.293
65.7711
65.2983
64.8647
64.4661
64.0997
63.7629
63.4539
63.1708
62.9139
62.6836
62.4798
62.3019
62.15
62.0244
61.9249
61.8518
61.8044
61.7847
61.7797
61.7909
61.8188
61.8611
61.9154
61.9804
62.0545
62.1366
62.2254
62.3199
62.4189
62.5218
62.6277
62.7358
62.8456
62.9567
63.0684
63.1806
63.2907
68.2749
67.6249
67.0314
66.492
66.0118
65.5786
65.1834
64.822
64.4917
64.1899
63.9147
63.6643
63.4385
63.2374
63.0606
62.9073
62.7774
62.6707
62.587
62.5261
62.4873
62.472
62.4686
62.4789
62.5031
62.5394
62.5858
62.6408
62.7035
62.7727
62.8475
62.9269
63.0101
63.0964
63.1853
63.2761
63.3682
63.4614
63.5552
63.6495
63.742
68.3283
67.7225
67.1703
66.6703
66.2269
65.8287
65.4673
65.1387
64.8402
64.5693
64.3237
64.1019
63.9032
63.7275
63.5741
63.4421
63.331
63.2406
63.1704
63.1201
63.0887
63.0772
63.0754
63.085
63.1065
63.138
63.1779
63.225
63.2783
63.3371
63.4004
63.4674
63.5377
63.6104
63.6853
63.7617
63.8393
63.9178
63.9968
64.0762
64.154
68.3776
67.8108
67.295
66.8298
66.4189
66.0516
65.7201
65.4205
65.1501
64.9063
64.687
64.4902
64.3154
64.1618
64.0288
63.9152
63.8205
63.7441
63.6855
63.6441
63.619
63.6109
63.6106
63.6199
63.6392
63.6668
63.7014
63.7419
63.7876
63.8377
63.8916
63.9485
64.008
64.0696
64.1328
64.1974
64.2629
64.3291
64.3958
64.4629
64.5284
68.4232
67.8904
67.4066
66.9722
66.5899
66.2498
65.9448
65.6709
65.4254
65.2057
65.0095
64.8349
64.681
64.5469
64.4316
64.3341
64.2536
64.1894
64.1408
64.1072
64.0876
64.0823
64.0835
64.0926
64.1102
64.1348
64.165
64.2002
64.2395
64.2825
64.3286
64.3771
64.4277
64.4799
64.5336
64.5882
64.6437
64.6997
64.756
64.8128
64.8681
68.4648
67.9618
67.5061
67.0986
66.7415
66.4255
66.1438
65.8928
65.6694
65.4711
65.2954
65.1404
65.005
64.8881
64.7885
64.7051
64.637
64.5833
64.5433
64.5164
64.5015
64.4988
64.5011
64.5102
64.5264
64.5484
64.5751
64.6057
64.6398
64.6769
64.7164
64.7579
64.8011
64.8456
64.8912
64.9375
64.9845
65.032
65.0797
65.1278
65.1745
68.5027
68.0254
67.5942
67.2102
66.8752
66.5804
66.3194
66.0886
65.8849
65.7056
65.5483
65.4108
65.2918
65.1901
65.1043
65.0333
64.9761
64.9317
64.8993
64.8782
64.8675
64.8671
64.8707
64.88
64.8951
64.9151
64.9389
64.9659
64.9957
65.0278
65.0619
65.0975
65.1345
65.1725
65.2113
65.2507
65.2906
65.3309
65.3713
65.412
65.4514
68.5368
68.0815
67.6714
67.3079
66.9921
66.7159
66.4733
66.2605
66.0743
65.912
65.771
65.6491
65.5448
65.4566
65.3831
65.3231
65.2754
65.2391
65.2134
65.1974
65.1902
65.1916
65.1963
65.2057
65.22
65.2382
65.2595
65.2833
65.3094
65.3374
65.3669
65.3976
65.4294
65.4619
65.495
65.5286
65.5626
65.5967
65.631
65.6655
65.6988
68.5672
68.1305
67.7384
67.3924
67.0932
66.8333
66.6068
66.4099
66.2394
66.0924
65.966
65.8581
65.7669
65.6908
65.6284
65.5782
65.5391
65.5102
65.4904
65.4791
65.4753
65.4787
65.4847
65.4945
65.5083
65.5253
65.5448
65.5662
65.5894
65.614
65.6397
65.6664
65.6937
65.7216
65.75
65.7786
65.8075
65.8365
65.8655
65.8947
65.9228
68.594
68.1724
67.7955
67.4643
67.1794
66.9335
66.7212
66.5384
66.3819
66.2484
66.1353
66.04
65.9606
65.8954
65.8428
65.8014
65.7699
65.7474
65.7327
65.7253
65.7242
65.7291
65.736
65.746
65.7592
65.775
65.7927
65.812
65.8326
65.8543
65.8768
65.9
65.9237
65.9478
65.9721
65.9967
66.0213
66.046
66.0706
66.0953
66.119
68.617
68.2076
67.8428
67.524
67.251
67.0173
66.8173
66.647
66.5029
66.3817
66.2804
66.1965
66.1279
66.0726
66.0291
65.9958
65.9715
65.9552
65.9457
65.9425
65.9445
65.9515
65.9598
65.9707
65.9841
65.9995
66.0163
66.0341
66.0529
66.0724
66.0924
66.1127
66.1334
66.1542
66.1751
66.1961
66.2171
66.238
66.2588
66.2797
66.2996
68.6364
68.2357
67.8804
67.5714
67.3083
67.0848
66.8955
66.7363
66.6033
66.4931
66.4026
66.3291
66.2702
66.224
66.1886
66.1625
66.1443
66.1329
66.1275
66.1272
66.1312
66.1393
66.1484
66.1595
66.1726
66.1871
66.2027
66.2191
66.2361
66.2535
66.2713
66.2893
66.3075
66.3257
66.3439
66.362
66.3801
66.3981
66.4158
66.4336
66.4504
68.6521
68.2573
67.9087
67.607
67.3516
67.1364
66.9562
66.8065
66.6835
66.5833
66.5027
66.4387
66.3889
66.3512
66.3238
66.3051
66.2937
66.2884
66.2883
66.2924
66.3
66.3107
66.322
66.3347
66.3487
66.3637
66.3793
66.3952
66.4113
66.4276
66.4438
66.4601
66.4762
66.4922
66.508
66.5235
66.5389
66.5541
66.569
66.5838
66.5979
68.6645
68.2731
67.929
67.6325
67.3827
67.1739
67.0009
66.8591
66.7445
66.653
66.5812
66.5259
66.4844
66.4544
66.4337
66.4206
66.4138
66.4121
66.4147
66.4209
66.43
66.4415
66.4534
66.4663
66.4802
66.4947
66.5095
66.5245
66.5395
66.5545
66.5694
66.5841
66.5986
66.6129
66.6269
66.6407
66.6542
66.6675
66.6805
66.6933
66.7055
68.6734
68.2822
67.94
67.6467
67.4008
67.197
67.03
66.895
66.7876
66.7037
66.6396
66.5922
66.5587
66.5368
66.5244
66.5197
66.521
66.527
66.5365
66.5485
66.5624
66.5776
66.5928
66.6084
66.6242
66.6402
66.6559
66.6713
66.6864
66.701
66.7153
66.7291
66.7424
66.7553
66.7678
66.7798
66.7914
66.8025
66.8134
66.8238
66.8338
68.6774
68.2802
67.9352
67.6415
67.3971
67.197
67.0353
66.9069
66.8068
66.7307
66.6743
66.6342
66.6072
66.5908
66.5827
66.5811
66.5848
66.5925
66.6036
66.6172
66.6324
66.6484
66.6642
66.6802
66.6962
66.7121
66.7275
66.7426
66.7571
66.7712
66.7847
66.7977
66.8101
66.822
66.8335
66.8444
66.8548
66.8649
66.8745
66.8837
66.8927
68.6761
68.269
67.9172
67.6195
67.3737
67.1746
67.0162
66.8929
66.7994
66.7311
66.6837
66.6538
66.6381
66.6341
66.6392
66.6511
66.668
66.6878
66.7094
66.7315
66.7534
66.7749
66.7955
66.8154
66.8346
66.8529
66.8702
66.8866
66.9021
66.9166
66.9303
66.9431
66.9551
66.9664
66.977
66.987
66.9963
67.0051
67.0134
67.0212
67.0288
62.3367
66.4099
69.7664
71.7164
72.901
73.694
74.1488
74.3562
74.4017
74.3374
74.2003
74.0175
73.8085
73.5861
73.3593
73.134
72.9145
72.703
72.501
72.3095
72.1287
71.9585
71.7988
71.6493
71.5095
71.379
71.2571
71.1434
71.0374
70.9383
70.8458
70.7592
70.6781
70.602
70.5305
70.4632
70.3998
70.34
70.2837
70.2307
70.1808
70.1338
70.0895
70.0478
70.0085
69.9714
69.9363
69.9032
69.8717
69.8419
69.8136
69.7866
69.7609
69.7364
69.7128
69.6902
69.6685
69.6476
69.6274
69.6078
69.5888
69.5703
69.5523
69.5348
69.5178
69.5013
69.4852
69.47
69.4549
69.4419
69.4274
69.4197
69.4021
69.4104
61.727
66.1252
69.6249
71.7157
72.9643
73.7661
74.2119
74.4062
74.4382
74.3616
74.214
74.0225
73.8064
73.5786
73.3475
73.1191
72.8972
72.684
72.4809
72.2886
72.1074
71.9372
71.7776
71.6284
71.489
71.3589
71.2376
71.1245
71.019
70.9206
70.8288
70.7429
70.6624
70.5869
70.516
70.4493
70.3864
70.3272
70.2715
70.2189
70.1695
70.1229
70.0791
70.0378
69.9989
69.9622
69.9275
69.8947
69.8637
69.8342
69.8062
69.7795
69.7541
69.7298
69.7065
69.6841
69.6627
69.642
69.6219
69.6026
69.5838
69.5655
69.5477
69.5304
69.5135
69.4972
69.4812
69.4661
69.4512
69.4383
69.424
69.4164
69.3989
69.4073
61.2686
65.4347
69.2873
71.6362
72.996
73.8329
74.2816
74.465
74.4816
74.3903
74.2299
74.028
73.8036
73.5693
73.3333
73.1012
72.8766
72.6615
72.4572
72.2642
72.0827
71.9124
71.753
71.6041
71.4653
71.3358
71.2152
71.1028
70.9981
70.9005
70.8095
70.7243
70.6447
70.5699
70.4997
70.4337
70.3715
70.313
70.2578
70.2059
70.157
70.111
70.0677
70.0269
69.9884
69.9522
69.9179
69.8855
69.8548
69.8257
69.7981
69.7717
69.7466
69.7226
69.6996
69.6776
69.6564
69.6359
69.6161
69.597
69.5784
69.5603
69.5428
69.5256
69.509
69.4928
69.477
69.4621
69.4473
69.4346
69.4204
69.4129
69.3956
69.4041
61.0148
64.832
68.8591
71.4548
72.969
73.8673
74.3364
74.5212
74.5278
74.422
74.2475
74.0334
73.7994
73.5576
73.3158
73.0795
72.8519
72.6347
72.4291
72.2354
72.0536
71.8833
71.7243
71.576
71.4378
71.3091
71.1894
71.078
70.9742
70.8776
70.7875
70.7033
70.6246
70.5507
70.4814
70.4162
70.3548
70.297
70.2426
70.1913
70.1431
70.0977
70.055
70.0148
69.9769
69.9411
69.9074
69.8755
69.8452
69.8165
69.7893
69.7633
69.7386
69.7149
69.6922
69.6705
69.6496
69.6294
69.6099
69.591
69.5727
69.5548
69.5375
69.5206
69.5041
69.4881
69.4725
69.4578
69.4432
69.4306
69.4166
69.4092
69.3921
69.4006
61.0658
64.5879
68.4998
71.1983
72.8668
73.8524
74.3566
74.5528
74.5594
74.4471
74.262
74.0364
73.792
73.5419
73.2938
73.0528
72.8219
72.6026
72.3955
72.2011
72.0192
71.8492
71.6907
71.5431
71.4058
71.2782
71.1595
71.0493
70.9467
70.8513
70.7624
70.6794
70.6018
70.529
70.4607
70.3965
70.336
70.2791
70.2255
70.1751
70.1276
70.083
70.0409
70.0014
69.9641
69.929
69.8958
69.8644
69.8347
69.8065
69.7797
69.7541
69.7298
69.7065
69.6842
69.6628
69.6422
69.6224
69.6032
69.5846
69.5665
69.5489
69.5318
69.5151
69.4989
69.4831
69.4677
69.4531
69.4387
69.4263
69.4125
69.4053
69.3883
69.3969
61.2768
64.6306
68.3139
70.9756
72.715
73.7767
74.3312
74.5486
74.5592
74.4458
74.258
74.0274
73.7763
73.5192
73.2648
73.019
72.7848
72.5633
72.355
72.1601
71.9782
71.8087
71.651
71.5045
71.3684
71.2421
71.1249
71.0161
70.915
70.821
70.7335
70.6519
70.5757
70.5042
70.4372
70.3741
70.3148
70.2589
70.2063
70.1568
70.1103
70.0665
70.0253
69.9865
69.9499
69.9155
69.883
69.8522
69.823
69.7954
69.7691
69.7441
69.7202
69.6974
69.6755
69.6545
69.6343
69.6148
69.5959
69.5776
69.5598
69.5426
69.5257
69.5093
69.4933
69.4778
69.4626
69.4482
69.434
69.4218
69.4082
69.401
69.3844
69.3929
61.5576
64.8337
68.2938
70.8688
72.5825
73.6606
74.2537
74.5018
74.524
74.4104
74.2199
73.9882
73.7372
73.4793
73.2229
72.9743
72.7377
72.5146
72.3054
72.1104
71.929
71.7603
71.6038
71.4587
71.3243
71.1997
71.0843
70.9773
70.8781
70.7859
70.7002
70.6203
70.5457
70.4758
70.4102
70.3486
70.2906
70.236
70.1846
70.1362
70.0907
70.0479
70.0077
69.9698
69.9342
69.9005
69.8687
69.8387
69.8102
69.7832
69.7575
69.7331
69.7097
69.6874
69.666
69.6454
69.6256
69.6065
69.588
69.5701
69.5527
69.5357
69.5192
69.5031
69.4873
69.472
69.4571
69.443
69.429
69.4169
69.4035
69.3966
69.3802
69.3888
61.9316
65.0907
68.3414
70.8408
72.5044
73.5511
74.1439
74.4102
74.449
74.3426
74.1505
73.9144
73.6617
73.4058
73.1532
72.9082
72.6738
72.4517
72.2433
72.0492
71.8689
71.7019
71.5472
71.4042
71.2719
71.1496
71.0365
70.9318
70.8349
70.745
70.6615
70.5837
70.5111
70.4431
70.3793
70.3194
70.263
70.2099
70.1599
70.1129
70.0686
70.0271
69.9879
69.9511
69.9165
69.8838
69.8529
69.8237
69.796
69.7697
69.7447
69.7209
69.6982
69.6764
69.6556
69.6355
69.6162
69.5976
69.5795
69.562
69.5449
69.5283
69.5121
69.4963
69.4809
69.4659
69.4513
69.4374
69.4236
69.4118
69.3986
69.3918
69.3757
69.3844
62.4785
65.3773
68.3355
70.7823
72.4309
73.4533
74.0281
74.2909
74.3359
74.2381
74.0512
73.8145
73.5579
73.2986
73.0462
72.8059
72.5786
72.3637
72.1611
71.9713
71.7944
71.6303
71.4786
71.3385
71.2093
71.09
70.9799
70.8782
70.7841
70.697
70.6162
70.541
70.4709
70.4052
70.3437
70.2858
70.2313
70.18
70.1317
70.0863
70.0435
70.0034
69.9656
69.93
69.8966
69.865
69.8351
69.8069
69.7801
69.7547
69.7305
69.7075
69.6855
69.6644
69.6441
69.6247
69.6059
69.5878
69.5702
69.5531
69.5365
69.5203
69.5045
69.4891
69.474
69.4593
69.445
69.4314
69.4179
69.4063
69.3934
69.3868
69.371
69.3797
63.185
65.6769
68.2419
70.6044
72.2528
73.2801
73.8746
74.1505
74.2
74.1033
73.9189
73.6858
73.4309
73.1703
72.9146
72.6724
72.4472
72.2385
72.045
71.865
71.6969
71.5398
71.3937
71.2584
71.1335
71.0183
70.9122
70.8144
70.7241
70.6405
70.5631
70.4911
70.424
70.3612
70.3022
70.2469
70.1947
70.1456
70.0993
70.0558
70.0149
69.9764
69.9402
69.9061
69.8741
69.8438
69.8152
69.7881
69.7624
69.738
69.7147
69.6926
69.6714
69.651
69.6315
69.6127
69.5946
69.5771
69.5601
69.5435
69.5274
69.5117
69.4963
69.4813
69.4666
69.4523
69.4383
69.425
69.4118
69.4004
69.3878
69.3814
69.3659
69.3747
63.8167
65.8786
68.0031
70.2221
71.8796
72.932
73.5717
73.9063
74.0047
73.9362
73.7645
73.5358
73.2813
73.0203
72.7644
72.5214
72.295
72.0861
71.8955
71.7224
71.5643
71.4185
71.2832
71.1572
71.0399
70.9311
70.8306
70.7379
70.6524
70.5734
70.5003
70.4323
70.3689
70.3096
70.254
70.2016
70.1522
70.1057
70.0619
70.0207
69.9819
69.9455
69.9112
69.8789
69.8485
69.8198
69.7926
69.7669
69.7425
69.7192
69.6971
69.6759
69.6557
69.6363
69.6176
69.5996
69.5822
69.5653
69.5489
69.533
69.5174
69.5022
69.4874
69.4728
69.4585
69.4446
69.431
69.4181
69.4052
69.3942
69.3819
69.3756
69.3606
69.3695
64.0348
65.7767
67.5141
69.5046
71.1472
72.2643
72.9892
73.424
73.6214
73.6377
73.5312
73.3465
73.1153
72.8629
72.6076
72.3615
72.1314
71.9199
71.7282
71.5562
71.4019
71.2631
71.1379
71.024
70.9187
70.8208
70.7297
70.6449
70.5661
70.4931
70.4255
70.3626
70.304
70.249
70.1974
70.1487
70.1028
70.0594
70.0186
69.9801
69.9439
69.9099
69.8779
69.8477
69.8193
69.7924
69.767
69.7429
69.7199
69.6981
69.6772
69.6573
69.6382
69.6198
69.6021
69.585
69.5684
69.5523
69.5367
69.5214
69.5065
69.4919
69.4776
69.4636
69.4498
69.4364
69.4232
69.4106
69.3982
69.3874
69.3755
69.3695
69.3549
69.3639
63.7434
65.2734
66.74
68.4439
69.9717
71.1167
71.941
72.5171
72.8726
73.039
73.0615
72.9827
72.835
72.644
72.4287
72.2032
71.9788
71.7644
71.5659
71.3867
71.2276
71.0877
70.9657
70.8587
70.7637
70.6781
70.5999
70.5273
70.4592
70.3953
70.3355
70.2794
70.2267
70.1773
70.1306
70.0866
70.0448
70.0054
69.9681
69.933
69.8999
69.8688
69.8395
69.8119
69.7858
69.7611
69.7378
69.7155
69.6944
69.6741
69.6548
69.6363
69.6185
69.6013
69.5847
69.5687
69.5531
69.538
69.5232
69.5087
69.4946
69.4807
69.467
69.4536
69.4404
69.4275
69.4148
69.4026
69.3906
69.3802
69.3687
69.363
69.3489
69.3581
63.0272
64.3911
65.6844
67.1291
68.4893
69.6053
70.4869
71.1726
71.6756
72.0102
72.2031
72.2837
72.2769
72.2044
72.0853
71.936
71.7691
71.5939
71.4169
71.244
71.0804
70.9307
70.7983
70.684
70.5871
70.5055
70.4364
70.3762
70.3219
70.2716
70.2239
70.178
70.1338
70.0916
70.0513
70.0129
69.9765
69.9419
69.909
69.878
69.8487
69.8211
69.795
69.7705
69.7472
69.7252
69.7042
69.6843
69.6652
69.6469
69.6294
69.6125
69.5963
69.5806
69.5653
69.5505
69.5361
69.522
69.5082
69.4947
69.4814
69.4683
69.4554
69.4427
69.4301
69.4178
69.4056
69.394
69.3825
69.3725
69.3614
69.356
69.3424
69.3519
62.0137
63.2369
64.4107
65.6649
66.8688
67.923
68.8178
69.566
70.1708
70.6369
70.978
71.2131
71.3598
71.434
71.45
71.4201
71.3551
71.2645
71.1566
71.0382
70.9147
70.7898
70.6667
70.5493
70.4415
70.3471
70.2682
70.2044
70.1537
70.1131
70.079
70.0479
70.0176
69.9873
69.9566
69.9259
69.8958
69.8668
69.8393
69.8132
69.7886
69.7653
69.7433
69.7224
69.7026
69.6837
69.6657
69.6484
69.6318
69.6159
69.6005
69.5856
69.5711
69.5571
69.5434
69.5301
69.517
69.5042
69.4916
69.4791
69.4668
69.4547
69.4426
69.4307
69.4189
69.4072
69.3957
69.3847
69.3737
69.3642
69.3536
69.3486
69.3356
69.3453
60.847
61.9516
63.0254
64.1374
65.2122
66.194
67.0722
67.8468
68.5145
69.0736
69.5288
69.8896
70.1672
70.3729
70.5178
70.6124
70.6655
70.6847
70.676
70.6448
70.5959
70.5339
70.463
70.3866
70.3073
70.2272
70.1487
70.0753
70.0105
69.9573
69.9164
69.8864
69.8645
69.8474
69.8318
69.8155
69.7975
69.7782
69.7581
69.738
69.7187
69.7003
69.683
69.6665
69.6507
69.6356
69.6211
69.607
69.5934
69.5802
69.5674
69.5548
69.5425
69.5305
69.5187
69.5071
69.4956
69.4842
69.473
69.4618
69.4507
69.4396
69.4285
69.4175
69.4066
69.3957
69.3849
69.3746
69.3642
69.3552
69.3452
69.3406
69.3283
69.3384
59.6729
60.6687
61.6455
62.6378
63.6027
64.5098
65.3516
66.1237
66.8201
67.4363
67.9717
68.4291
68.8131
69.1299
69.3865
69.5905
69.7494
69.8701
69.9588
70.0206
70.0597
70.0797
70.0831
70.0729
70.0516
70.0218
69.9859
69.9456
69.9021
69.8563
69.8106
69.768
69.7317
69.704
69.6847
69.6723
69.6644
69.658
69.6513
69.6433
69.6338
69.6233
69.6123
69.6013
69.5904
69.5798
69.5695
69.5592
69.5492
69.5392
69.5294
69.5196
69.5099
69.5002
69.4906
69.481
69.4714
69.4617
69.4521
69.4424
69.4326
69.4228
69.4129
69.403
69.393
69.3831
69.3732
69.3636
69.3539
69.3456
69.3362
69.3321
69.3204
69.3311
58.7148
59.6026
60.48
61.3618
62.2253
63.0543
63.8429
64.5862
65.2783
65.914
66.4903
67.0065
67.463
67.862
68.2067
68.5012
68.75
68.9584
69.1312
69.2733
69.389
69.4821
69.5557
69.6122
69.6532
69.6805
69.6955
69.6998
69.6956
69.6848
69.6692
69.6502
69.6284
69.6049
69.5818
69.5614
69.5459
69.5364
69.532
69.5311
69.5314
69.5311
69.5294
69.5263
69.5219
69.5169
69.5114
69.5056
69.4996
69.4934
69.487
69.4804
69.4736
69.4666
69.4595
69.4522
69.4447
69.437
69.4291
69.4211
69.4129
69.4045
69.3959
69.3872
69.3784
69.3694
69.3605
69.3517
69.3428
69.3352
69.3265
69.323
69.3121
69.3235
58.0897
58.868
59.6434
60.4198
61.1861
61.9337
62.6578
63.3538
64.0165
64.6414
65.2247
65.7639
66.2575
66.7053
67.1076
67.466
67.7826
68.0602
68.3019
68.511
68.6908
68.8446
68.9755
69.0861
69.1789
69.2558
69.3183
69.3677
69.4055
69.4328
69.4513
69.4626
69.4683
69.4698
69.4678
69.4628
69.4554
69.4469
69.4392
69.4341
69.4327
69.4346
69.4387
69.4431
69.4466
69.4485
69.4489
69.4481
69.4465
69.4443
69.4416
69.4384
69.4347
69.4306
69.4261
69.4213
69.4161
69.4105
69.4046
69.3983
69.3918
69.3849
69.3778
69.3704
69.3627
69.3549
69.3469
69.3391
69.3311
69.3242
69.3162
69.3134
69.3032
69.3155
57.7917
58.4615
59.1341
59.8083
60.4793
61.1425
61.794
62.4297
63.0455
63.6375
64.2022
64.7365
65.2379
65.7048
66.1361
66.5315
66.8914
67.2168
67.509
67.7699
68.0016
68.2063
68.3864
68.544
68.6815
68.801
68.9042
68.993
69.0688
69.1329
69.1862
69.2297
69.2645
69.2918
69.3127
69.3285
69.34
69.3479
69.3524
69.354
69.3539
69.3538
69.3554
69.3595
69.3658
69.3732
69.3801
69.3856
69.3895
69.392
69.3933
69.3937
69.3933
69.3923
69.3907
69.3884
69.3856
69.3823
69.3785
69.3741
69.3694
69.3641
69.3585
69.3525
69.3461
69.3395
69.3326
69.3257
69.3186
69.3125
69.3053
69.3031
69.2937
69.3072
57.7794
58.3448
58.9168
59.4928
60.0712
60.6491
61.2236
61.7913
62.3491
62.8936
63.4217
63.9305
64.4174
64.8801
65.3167
65.726
66.1071
66.4597
66.784
67.0804
67.3499
67.5938
67.8133
68.01
68.1857
68.3418
68.4802
68.6025
68.7103
68.805
68.8882
68.9609
69.024
69.0783
69.1244
69.163
69.1946
69.2204
69.2412
69.2576
69.2702
69.2794
69.2857
69.2903
69.2948
69.3007
69.3085
69.3176
69.3267
69.3348
69.3412
69.3459
69.3493
69.3516
69.353
69.3535
69.3533
69.3524
69.3507
69.3484
69.3455
69.342
69.338
69.3335
69.3285
69.3231
69.3173
69.3115
69.3053
69.3
69.2937
69.2923
69.2837
69.2986
57.9944
58.4633
58.941
59.4253
59.9158
60.4108
60.9078
61.4045
61.8983
62.3868
62.8672
63.337
63.7937
64.2349
64.6586
65.063
65.4466
65.8083
66.1474
66.4634
66.7564
67.0266
67.2745
67.501
67.707
67.8936
68.0619
68.2132
68.349
68.4704
68.5789
68.6758
68.7623
68.8393
68.9078
68.9684
69.0214
69.0671
69.1059
69.1385
69.1656
69.1879
69.206
69.2204
69.2314
69.24
69.2473
69.2549
69.2637
69.2737
69.2841
69.2937
69.3018
69.3081
69.3129
69.3165
69.319
69.3206
69.3213
69.3212
69.3202
69.3186
69.3163
69.3133
69.3097
69.3057
69.3011
69.2964
69.2912
69.2869
69.2813
69.2808
69.2729
69.2897
58.3781
58.7613
59.1539
59.5553
59.9651
60.3822
60.8049
61.2314
61.66
62.0887
62.5155
62.9381
63.3545
63.7626
64.1602
64.5456
64.9169
65.2728
65.6119
65.9333
66.2362
66.5202
66.7853
67.0314
67.2589
67.4683
67.6603
67.8356
67.9951
68.1398
68.2708
68.3892
68.4961
68.5924
68.6793
68.7577
68.8282
68.8915
68.9479
68.9975
69.0406
69.0774
69.1086
69.1347
69.1565
69.1744
69.1888
69.2004
69.21
69.219
69.2285
69.2391
69.2501
69.2605
69.2695
69.2769
69.2826
69.2869
69.2901
69.2922
69.2935
69.2938
69.2932
69.2919
69.2899
69.2872
69.284