/*--------------------------------*- C++ -*----------------------------------*\
| =========                 |                                                 |
| \\      /  F ield         | OpenFOAM: The Open Source CFD Toolbox           |
|  \\    /   O peration     | Version:  5.x                                   |
|   \\  /    A nd           | Web:      www.OpenFOAM.org                      |
|    \\/     M anipulation  |                                                 |
\*---------------------------------------------------------------------------*/
FoamFile
{
    version     2.0;
    format      ascii;
    class       surfaceScalarField;
    location    "950";
    object      phi;
}
// * * * * * * * * * * * * * * * * * * * * * * * * * * * * * * * * * * * * * //

dimensions      [0 3 -1 0 0 0 0];

internalField   nonuniform List<scalar> 
83317
(
0.00049634
0.000107174
-0.000606742
0.000401749
9.45879e-05
0.000326707
7.50427e-05
0.00029484
3.18671e-05
0.00027732
1.75194e-05
0.000263281
1.40391e-05
0.000252808
1.04727e-05
0.00024496
7.84818e-06
0.000238586
6.37377e-06
0.000232944
5.64189e-06
0.000227968
4.96348e-06
0.000222781
5.19762e-06
0.000218716
4.05266e-06
0.00021469
4.03872e-06
0.000212223
2.45399e-06
0.000210394
1.84052e-06
0.0002085
1.88083e-06
0.000207049
1.46319e-06
0.000205058
1.97867e-06
0.000203439
1.6303e-06
0.00020176
1.67857e-06
0.000199941
1.81841e-06
0.000198586
1.35548e-06
0.000196918
1.66741e-06
0.000195611
1.3066e-06
0.000194324
1.2873e-06
0.000192764
1.5602e-06
0.000191494
1.26924e-06
0.000190435
1.05856e-06
0.000189266
1.16928e-06
0.000187806
1.45902e-06
0.000186469
1.31411e-06
0.00018571
7.76295e-07
0.00018485
8.48492e-07
0.000184039
8.19325e-07
0.000183439
5.92923e-07
0.000182708
7.37136e-07
0.000182413
2.82867e-07
0.000182487
-6.43437e-08
0.000182557
-7.87128e-08
0.000182603
-4.11452e-08
0.000178089
4.50788e-06
0.000174266
3.82722e-06
0.000173766
4.84123e-07
0.000173358
4.18223e-07
0.000173291
7.09416e-08
0.00017289
3.93529e-07
0.000172521
3.67019e-07
0.000172205
3.16024e-07
0.000171932
2.705e-07
0.000171701
2.27798e-07
0.000171517
1.83779e-07
0.000171367
1.46456e-07
0.000171265
1.11657e-07
0.000170836
4.1655e-07
0.000170468
3.54215e-07
0.000170776
-2.95872e-07
0.000170816
-3.29439e-08
0.000170836
-2.93371e-08
0.000171231
-3.77821e-07
0.000171309
-9.69741e-08
0.000171063
2.5369e-07
0.000171021
3.18679e-08
0.000170944
9.47133e-08
0.000170815
1.07768e-07
0.000170594
2.49583e-07
0.000170107
4.56497e-07
0.000169947
1.87991e-07
0.000169832
8.32322e-08
0.000169077
7.95932e-07
0.000168238
7.96344e-07
0.000167729
5.80228e-07
0.000166464
1.19041e-06
0.000164797
1.75302e-06
0.000163432
1.27938e-06
0.00016163
1.96248e-06
0.000158968
2.49654e-06
0.000156003
3.22098e-06
0.00015207
3.67239e-06
0.000149866
2.64841e-06
7.76067e-05
7.19419e-05
-0.000348965
0.000426511
0.000749866
0.000250834
-0.000893556
0.000578092
0.000266359
0.000459205
0.00019393
0.000411939
7.91327e-05
0.000391581
3.78779e-05
0.000377542
2.80776e-05
0.000369992
1.80224e-05
0.000366115
1.17258e-05
0.000364152
8.33647e-06
0.000363391
6.40292e-06
0.000363067
5.28097e-06
0.000362782
5.48759e-06
0.000362919
3.90878e-06
0.000363151
3.8133e-06
0.00036501
5.88603e-07
0.000366643
2.14059e-07
0.000369226
-7.08977e-07
0.000371355
-6.59871e-07
0.000373639
-3.11799e-07
0.000375675
-4.00196e-07
0.000376919
4.33746e-07
0.000378367
3.70748e-07
0.000378879
8.43064e-07
0.000379372
1.17448e-06
0.000379317
1.3614e-06
0.000378785
1.81886e-06
0.000378558
1.78782e-06
0.000377596
2.23069e-06
0.0003764
2.25461e-06
0.000375054
2.51475e-06
0.000373908
2.60473e-06
0.000372558
2.65208e-06
0.000370633
2.70997e-06
0.000368814
2.66067e-06
0.000366905
2.73297e-06
0.000364918
2.57627e-06
0.000363037
2.62099e-06
0.000360917
2.39567e-06
0.000358504
2.3544e-06
0.000356289
2.13105e-06
0.00035409
2.16071e-06
0.000355677
2.91714e-06
0.000358264
1.24187e-06
0.000358461
2.79313e-07
0.000357895
9.88755e-07
0.000356976
9.92104e-07
0.000356284
1.08094e-06
0.000355615
1.03484e-06
0.000354944
9.87132e-07
0.000354298
9.14518e-07
0.000353668
8.56435e-07
0.000353067
7.83862e-07
0.000352487
7.24075e-07
0.000351929
6.74826e-07
0.000351634
7.0493e-07
0.000351358
6.23384e-07
0.000350626
4.41546e-07
0.000350152
4.44623e-07
0.000349708
4.10413e-07
0.000349063
2.75457e-07
0.000348656
2.9963e-07
0.000348414
4.9958e-07
0.000347835
6.05645e-07
0.0003472
7.38022e-07
0.000346478
8.19049e-07
0.000345712
1.02974e-06
0.00034502
1.13299e-06
0.000343873
1.34967e-06
0.000342585
1.35419e-06
0.000341444
1.95811e-06
0.000340089
2.12831e-06
0.00033824
2.46689e-06
0.000336443
2.94796e-06
0.000334469
3.77251e-06
0.000331739
3.96397e-06
0.000328628
5.15844e-06
0.000324979
6.05731e-06
0.000320715
7.62047e-06
0.000314291
9.95646e-06
0.000311156
6.03002e-06
0.00017206
0.000210879
-0.000702834
0.000525839
0.000993534
0.000429049
-0.00117172
0.000758614
0.000501278
0.000596001
0.000356544
0.000533822
0.000141311
0.000509262
6.24375e-05
0.000493916
4.34238e-05
0.000487834
2.41046e-05
0.000486573
1.29869e-05
0.000487757
7.15227e-06
0.00049057
3.5896e-06
0.000493675
2.17233e-06
0.000496796
2.37018e-06
0.0004998
9.00452e-07
0.000502373
1.24466e-06
0.00050653
-3.5725e-06
0.000509678
-2.9299e-06
0.000514043
-5.07831e-06
0.00051755
-4.1628e-06
0.000521193
-3.95908e-06
0.000524429
-3.63277e-06
0.000526688
-1.82529e-06
0.000529028
-1.96912e-06
0.000530094
-2.23594e-07
0.000531083
1.86083e-07
0.000531345
1.09892e-06
0.000531192
1.97203e-06
0.000530968
2.0113e-06
0.000529997
3.20223e-06
0.000528955
3.29668e-06
0.000527472
3.9975e-06
0.00052599
4.08663e-06
0.000524214
4.42112e-06
0.000522145
4.7845e-06
0.000519957
4.84508e-06
0.000517582
5.11071e-06
0.000515078
5.0779e-06
0.000512416
5.28503e-06
0.000509596
5.21139e-06
0.000506479
5.47529e-06
0.000503364
5.24268e-06
0.000499965
5.56143e-06
0.000503215
-3.34731e-07
0.000507822
-3.36416e-06
0.000507957
1.39838e-07
0.000507291
1.65788e-06
0.0005064
1.8844e-06
0.00050555
1.92854e-06
0.000504718
1.86619e-06
0.00050387
1.83561e-06
0.000503042
1.74171e-06
0.000502222
1.67568e-06
0.000501428
1.57777e-06
0.000500652
1.49858e-06
0.000499889
1.44152e-06
0.000499246
1.3443e-06
0.000498613
1.25202e-06
0.00049782
1.23824e-06
0.000497139
1.12811e-06
0.000496485
1.06166e-06
0.000495771
9.94333e-07
0.000495152
9.13312e-07
0.000494544
1.10934e-06
0.000493687
1.4595e-06
0.000492772
1.65902e-06
0.000491718
1.86661e-06
0.000490636
2.1205e-06
0.000489429
2.33005e-06
0.000488044
2.74421e-06
0.000486429
2.95952e-06
0.000484635
3.76509e-06
0.00048282
3.92935e-06
0.000480459
4.85127e-06
0.000477832
5.55142e-06
0.000475054
6.57707e-06
0.000471593
7.39773e-06
0.000467434
9.36956e-06
0.000462437
1.10019e-05
0.000456871
1.32684e-05
0.000448577
1.81673e-05
0.000444602
1.01472e-05
0.000266812
0.000388565
-0.00109339
0.000657289
0.00128918
0.000641713
-0.00150186
0.000985363
0.000805093
0.000768512
0.000573396
0.000686784
0.000223038
0.000656113
9.3109e-05
0.000638542
6.09948e-05
0.000633075
2.95717e-05
0.000633644
1.24171e-05
0.00063723
3.56662e-06
0.000642775
-1.95542e-06
0.000648748
-3.80367e-06
0.000654518
-3.39741e-06
0.000660016
-4.60106e-06
0.000664222
-2.95824e-06
0.000669636
-8.98954e-06
0.000673611
-6.90228e-06
0.000678643
-1.01129e-05
0.000682825
-8.343e-06
0.000686907
-8.04343e-06
0.000690627
-7.35092e-06
0.000693279
-4.47679e-06
0.0006959
-4.59014e-06
0.000697238
-1.56206e-06
0.000698348
-9.24166e-07
0.000698746
7.00863e-07
0.00069868
2.03848e-06
0.000698381
2.30953e-06
0.000697353
4.23026e-06
0.0006963
4.34988e-06
0.000694695
5.60236e-06
0.000692955
5.82589e-06
0.000690904
6.46696e-06
0.000688701
6.99127e-06
0.000686283
7.26065e-06
0.000683631
7.76362e-06
0.000680847
7.86026e-06
0.000677775
8.35903e-06
0.000674613
8.3705e-06
0.000671179
8.91076e-06
0.000667657
8.76248e-06
0.000663693
9.52682e-06
0.000666671
-3.31465e-06
0.000671434
-8.12621e-06
0.000671593
-2.34288e-08
0.000670851
2.40236e-06
0.000669946
2.79012e-06
0.000668967
2.90492e-06
0.000668006
2.8267e-06
0.000667026
2.81515e-06
0.00066607
2.69715e-06
0.000665122
2.62289e-06
0.000664203
2.49584e-06
0.000663305
2.39557e-06
0.000662422
2.32704e-06
0.000661561
2.20212e-06
0.000660715
2.0948e-06
0.000659901
2.0552e-06
0.000659111
1.91966e-06
0.000658342
1.82786e-06
0.000657618
1.72277e-06
0.000656889
1.63715e-06
0.000656062
1.93813e-06
0.000655018
2.50081e-06
0.000653896
2.78515e-06
0.000652592
3.16524e-06
0.000651239
3.48018e-06
0.000649631
3.93064e-06
0.000647973
4.40876e-06
0.000646037
4.88773e-06
0.000643668
6.14375e-06
0.000641326
6.26116e-06
0.000638417
7.7768e-06
0.000634961
8.98954e-06
0.00063127
1.02882e-05
0.000626902
1.17457e-05
0.000621561
1.47487e-05
0.000615019
1.75032e-05
0.000607808
2.05408e-05
0.000597178
2.8735e-05
0.000592122
1.5316e-05
0.000388117
0.000592505
-0.0015336
0.000828217
0.00164301
0.000883357
-0.00188462
0.00126211
0.00118599
0.00098173
0.000853777
0.000874016
0.000330752
0.000834175
0.00013295
0.000812677
8.24926e-05
0.000806151
3.60981e-05
0.000807348
1.12197e-05
0.000812538
-1.62296e-06
0.000820247
-9.66494e-06
0.000828895
-1.24536e-05
0.000837276
-1.17762e-05
0.000845584
-1.29108e-05
0.000851985
-9.35788e-06
0.000859171
-1.61772e-05
0.000864547
-1.22767e-05
0.000870707
-1.62748e-05
0.000876019
-1.36533e-05
0.000881
-1.30256e-05
0.000885633
-1.19829e-05
0.000888996
-7.83982e-06
0.000892246
-7.8403e-06
0.000894124
-3.4398e-06
0.000895613
-2.41278e-06
0.000896343
-2.91268e-08
0.000896449
1.93247e-06
0.000896296
2.46227e-06
0.000895315
5.21129e-06
0.000894253
5.41214e-06
0.000892581
7.27386e-06
0.000890712
7.6953e-06
0.000888496
8.67914e-06
0.000886089
9.40113e-06
0.00088344
9.90764e-06
0.000880513
1.06922e-05
0.000877439
1.09329e-05
0.000874029
1.17697e-05
0.00087052
1.1878e-05
0.000866702
1.27301e-05
0.000862778
1.26849e-05
0.000858337
1.39686e-05
0.000860922
-5.90098e-06
0.000865759
-1.29616e-05
0.000866074
-3.41493e-07
0.000865281
3.19751e-06
0.000864284
3.78775e-06
0.000863184
4.00324e-06
0.000862099
3.91114e-06
0.000860995
3.91965e-06
0.000859913
3.77853e-06
0.000858843
3.6922e-06
0.000857807
3.53223e-06
0.000856794
3.40843e-06
0.000855797
3.32526e-06
0.000854811
3.1862e-06
0.000853845
3.05799e-06
0.000852934
2.96824e-06
0.000852046
2.80974e-06
0.000851174
2.69785e-06
0.000850369
2.53042e-06
0.000849544
2.45882e-06
0.000848581
2.90269e-06
0.000847348
3.73237e-06
0.000846005
4.1309e-06
0.000844434
4.7328e-06
0.000842782
5.13777e-06
0.000840812
5.89458e-06
0.000838758
6.46767e-06
0.000836377
7.26331e-06
0.000833433
9.09533e-06
0.000830472
9.21488e-06
0.000826845
1.14165e-05
0.000822494
1.33275e-05
0.000817795
1.50026e-05
0.00081226
1.72654e-05
0.000805506
2.15313e-05
0.000797191
2.57891e-05
0.000787985
2.97919e-05
0.000774448
4.22268e-05
0.000768052
2.17898e-05
0.000545529
0.000814971
-0.00203328
0.00104513
0.00206435
0.00115099
-0.002332
0.00159406
0.00165628
0.00123796
0.00120988
0.00109839
0.000470316
0.00104673
0.000184611
0.00102015
0.000109078
0.00101204
4.42097e-05
0.00101384
9.41248e-06
0.00102093
-8.70503e-06
0.00103128
-2.00237e-05
0.00104319
-2.4356e-05
0.00105481
-2.34018e-05
0.00106663
-2.47293e-05
0.00107604
-1.87699e-05
0.00108592
-2.60611e-05
0.00109345
-1.98005e-05
0.00110138
-2.42112e-05
0.00110836
-2.06229e-05
0.00111471
-1.9377e-05
0.00112068
-1.79519e-05
0.0011251
-1.22617e-05
0.0011293
-1.20465e-05
0.00113198
-6.12078e-06
0.00113408
-4.51089e-06
0.00113534
-1.28337e-06
0.00113576
1.50719e-06
0.00113591
2.31921e-06
0.00113507
6.04791e-06
0.00113407
6.40928e-06
0.00113239
8.95618e-06
0.00113045
9.63453e-06
0.00112811
1.101e-05
0.0011255
1.2015e-05
0.00112263
1.27806e-05
0.00111942
1.39005e-05
0.00111605
1.43059e-05
0.0011123
1.55212e-05
0.00110842
1.57531e-05
0.00110418
1.69706e-05
0.00109983
1.70333e-05
0.00109489
1.89069e-05
0.00109706
-8.06491e-06
0.00110198
-1.78873e-05
0.00110252
-8.81279e-07
0.0011017
4.01399e-06
0.00110061
4.88311e-06
0.00109939
5.21817e-06
0.00109819
5.11479e-06
0.00109696
5.14829e-06
0.00109576
4.9802e-06
0.00109457
4.8823e-06
0.00109341
4.68494e-06
0.00109229
4.5347e-06
0.00109118
4.43315e-06
0.00109009
4.27427e-06
0.00108903
4.11956e-06
0.001088
3.99497e-06
0.00108702
3.79546e-06
0.00108604
3.66799e-06
0.00108514
3.43174e-06
0.00108423
3.37511e-06
0.00108314
3.98884e-06
0.0010817
5.16988e-06
0.00108011
5.72245e-06
0.00107824
6.60212e-06
0.00107624
7.13958e-06
0.00107387
8.25897e-06
0.00107134
9.00652e-06
0.00106842
1.01787e-05
0.00106481
1.27076e-05
0.00106111
1.29101e-05
0.00105661
1.59269e-05
0.0010512
1.87201e-05
0.0010453
2.09181e-05
0.00103834
2.42118e-05
0.00102988
3.00146e-05
0.00101944
3.62079e-05
0.00100781
4.14592e-05
0.000990728
5.92686e-05
0.00098266
2.99341e-05
0.000743914
0.00105368
-0.00260223
0.00131276
0.00256817
0.00144181
-0.00285896
0.00199443
0.00223001
0.0015467
0.0016576
0.00136891
0.000648111
0.00130282
0.000250695
0.00127012
0.000141778
0.00126028
5.40558e-05
0.00126298
6.7133e-06
0.00127248
-1.82112e-05
0.00128619
-3.37323e-05
0.00130212
-4.02834e-05
0.00131779
-3.9068e-05
0.00133394
-4.08843e-05
0.0013472
-3.20263e-05
0.00136071
-3.95714e-05
0.00137118
-3.02762e-05
0.00138161
-3.4636e-05
0.00139083
-2.9848e-05
0.00139908
-2.76215e-05
0.00140685
-2.5728e-05
0.00141274
-1.81479e-05
0.00141827
-1.75776e-05
0.00142205
-9.90352e-06
0.00142503
-7.48549e-06
0.00142703
-3.28838e-06
0.00142796
5.78232e-07
0.00142856
1.72267e-06
0.00142799
6.61863e-06
0.00142716
7.23902e-06
0.00142554
1.05741e-05
0.00142359
1.15896e-05
0.00142117
1.3426e-05
0.00141838
1.48082e-05
0.00141529
1.58681e-05
0.0014118
1.73925e-05
0.00140811
1.79866e-05
0.001404
1.96356e-05
0.00139973
2.0018e-05
0.00139504
2.16619e-05
0.00139024
2.18389e-05
0.00138476
2.43838e-05
0.00138648
-9.78168e-06
0.00139152
-2.29324e-05
0.00139234
-1.69941e-06
0.00139154
4.81683e-06
0.00139036
6.06388e-06
0.00138903
6.54027e-06
0.00138772
6.43381e-06
0.00138637
6.4958e-06
0.00138505
6.30121e-06
0.00138374
6.19254e-06
0.00138247
5.95026e-06
0.00138123
5.77352e-06
0.00138002
5.64895e-06
0.00137882
5.46626e-06
0.00137766
5.2771e-06
0.00137653
5.13362e-06
0.00137545
4.8751e-06
0.00137438
4.73897e-06
0.00137339
4.42204e-06
0.00137238
4.38389e-06
0.00137116
5.2025e-06
0.00136949
6.83866e-06
0.00136763
7.59143e-06
0.0013654
8.82214e-06
0.001363
9.54362e-06
0.00136016
1.10961e-05
0.00135706
1.21122e-05
0.0013535
1.37351e-05
0.0013491
1.71099e-05
0.00134451
1.74984e-05
0.00133896
2.14832e-05
0.00133229
2.5389e-05
0.00132492
2.82887e-05
0.00131624
3.28877e-05
0.00130571
4.05619e-05
0.00129268
4.92233e-05
0.0012781
5.60678e-05
0.0012567
8.06353e-05
0.00124653
4.01526e-05
0.000988578
0.0013116
-0.00325061
0.00163691
0.00317229
0.00175163
-0.00348213
0.00248053
0.00292178
0.00192202
0.00221611
0.00169801
0.000872125
0.00161416
0.000334542
0.00157401
0.00018193
0.00156217
6.58918e-05
0.00156605
2.83381e-06
0.00157858
-3.07427e-05
0.00159645
-5.15973e-05
0.00161733
-6.11613e-05
0.00163798
-5.9724e-05
0.00165947
-6.23731e-05
0.00167753
-5.00811e-05
0.0016957
-5.77412e-05
0.00171005
-4.4628e-05
0.00172379
-4.8384e-05
0.00173599
-4.20437e-05
0.00174675
-3.8377e-05
0.0017569
-3.58815e-05
0.00176473
-2.59791e-05
0.00177202
-2.48699e-05
0.00177728
-1.51579e-05
0.00178145
-1.16581e-05
0.00178448
-6.3167e-06
0.00178614
-1.08392e-06
0.00178739
4.78198e-07
0.00178723
6.77284e-06
0.00178671
7.76414e-06
0.00178525
1.2034e-05
0.00178335
1.34886e-05
0.00178089
1.58755e-05
0.00177796
1.77415e-05
0.00177468
1.91485e-05
0.00177091
2.11606e-05
0.00176692
2.19772e-05
0.00176243
2.41294e-05
0.00175775
2.46903e-05
0.00175259
2.6829e-05
0.0017473
2.71296e-05
0.00174124
3.04431e-05
0.00174246
-1.1007e-05
0.00174764
-2.81148e-05
0.0017488
-2.85382e-06
0.00174806
5.55735e-06
0.00174682
7.30184e-06
0.0017454
7.95811e-06
0.00174398
7.85629e-06
0.00174252
7.95529e-06
0.00174108
7.73449e-06
0.00173966
7.61589e-06
0.00173829
7.32282e-06
0.00173694
7.11885e-06
0.00173562
6.96607e-06
0.00173433
6.76197e-06
0.00173308
6.52804e-06
0.00173183
6.37825e-06
0.00173066
6.04376e-06
0.0017295
5.90486e-06
0.00172843
5.49328e-06
0.00172733
5.48128e-06
0.00172598
6.55278e-06
0.00172405
8.76369e-06
0.00172187
9.77884e-06
0.00171924
1.14464e-05
0.00171637
1.24174e-05
0.00171297
1.4494e-05
0.00170919
1.58909e-05
0.00170487
1.80474e-05
0.00169952
2.24657e-05
0.00169386
2.31609e-05
0.00168705
2.82995e-05
0.00167883
3.36e-05
0.00166969
3.74363e-05
0.00165891
4.3661e-05
0.00164586
5.3622e-05
0.00162967
6.53951e-05
0.00161149
7.42756e-05
0.00158485
0.000107251
0.00157202
5.30347e-05
0.00128908
0.00159452
-0.00398928
0.00202766
0.00389791
0.00207563
-0.00422187
0.00307266
0.00374703
0.00238078
0.00290799
0.00210056
0.00115234
0.00199458
0.000440525
0.0019452
0.000231302
0.00193098
8.01188e-05
0.00193632
-2.50547e-06
0.00195256
-4.69846e-05
0.00197553
-7.45666e-05
0.00200246
-8.80979e-05
0.00202925
-8.65059e-05
0.00205728
-9.04044e-05
0.00208127
-7.4076e-05
0.00210531
-8.1783e-05
0.00212464
-6.39545e-05
0.00214272
-6.6461e-05
0.00215876
-5.80857e-05
0.00217279
-5.24039e-05
0.00218601
-4.9105e-05
0.00219638
-3.6348e-05
0.00220597
-3.44605e-05
0.00221316
-2.23439e-05
0.00221892
-1.74234e-05
0.00222332
-1.07162e-05
0.002226
-3.76014e-06
0.00222814
-1.6629e-06
0.0022286
6.31514e-06
0.00222854
7.81693e-06
0.00222737
1.32056e-05
0.00222563
1.52328e-05
0.00222322
1.82844e-05
0.0022202
2.07619e-05
0.00221676
2.25817e-05
0.00221274
2.51894e-05
0.00220845
2.62659e-05
0.00220356
2.90124e-05
0.00219847
2.9782e-05
0.00219281
3.24923e-05
0.00218701
3.29318e-05
0.00218033
3.71224e-05
0.002181
-1.16824e-05
0.00218632
-3.34292e-05
0.00218787
-4.40832e-06
0.00218725
6.17622e-06
0.00218599
8.56285e-06
0.0021845
9.45076e-06
0.00218299
9.36624e-06
0.00218143
9.5144e-06
0.0021799
9.26807e-06
0.00217837
9.14159e-06
0.0021769
8.79369e-06
0.00217546
8.56122e-06
0.00217405
8.37532e-06
0.00217265
8.15361e-06
0.00217132
7.8653e-06
0.00216998
7.72003e-06
0.00216873
7.28977e-06
0.00216747
7.16152e-06
0.00216634
6.63209e-06
0.00216516
6.6596e-06
0.00216366
8.04503e-06
0.00216145
1.09754e-05
0.0021589
1.2329e-05
0.00215581
1.45414e-05
0.00215238
1.58446e-05
0.00214832
1.8558e-05
0.00214374
2.04668e-05
0.00213852
2.32662e-05
0.00213202
2.89645e-05
0.00212506
3.01243e-05
0.00211673
3.66354e-05
0.00210664
4.36845e-05
0.00209534
4.87413e-05
0.00208201
5.69865e-05
0.0020659
6.97375e-05
0.00204587
8.54169e-05
0.00202329
9.68691e-05
0.00199026
0.000140271
0.00197404
6.928e-05
0.00166003
0.00190851
-0.00482905
0.00249978
0.0047704
0.00240781
-0.0051026
0.0037949
0.00472253
0.00294321
0.00375968
0.00259453
0.00150102
0.00246076
0.000574297
0.00239987
0.000292197
0.00238265
9.73304e-05
0.00238974
-9.58837e-06
0.00241048
-6.77313e-05
0.00243967
-0.000103758
0.002474
-0.000122428
0.00250828
-0.000120782
0.00254432
-0.000126445
0.00257563
-0.000105384
0.00260699
-0.00011314
0.00263261
-8.95779e-05
0.00265625
-9.00975e-05
0.00267722
-7.90588e-05
0.00269545
-7.06392e-05
0.00271261
-6.62643e-05
0.00272625
-4.9988e-05
0.00273881
-4.70205e-05
0.0027485
-3.2032e-05
0.00275636
-2.52821e-05
0.00276256
-1.69209e-05
0.00276661
-7.81072e-06
0.00276997
-5.01961e-06
0.00277129
4.99422e-06
0.00277193
7.17769e-06
0.00277122
1.39195e-05
0.00276977
1.66828e-05
0.0027675
2.05461e-05
0.00276448
2.37875e-05
0.00276095
2.61098e-05
0.0027567
2.94407e-05
0.00275214
3.08265e-05
0.00274687
3.42783e-05
0.00274136
3.52902e-05
0.00273519
3.86626e-05
0.00272887
3.92579e-05
0.00272154
4.44472e-05
0.00272159
-1.17316e-05
0.00272701
-3.88507e-05
0.00272903
-6.43273e-06
0.00272861
6.59614e-06
0.00272738
9.7972e-06
0.00272584
1.09857e-05
0.00272427
1.09372e-05
0.00272264
1.11509e-05
0.00272102
1.08792e-05
0.00271941
1.07529e-05
0.00271787
1.03403e-05
0.00271634
1.00831e-05
0.00271486
9.85721e-06
0.00271339
9.62792e-06
0.00271198
9.27049e-06
0.00271056
9.14472e-06
0.00270925
8.59752e-06
0.00270792
8.49181e-06
0.00270673
7.82016e-06
0.00270548
7.90518e-06
0.00270385
9.67782e-06
0.00270132
1.35048e-05
0.00269836
1.52919e-05
0.00269472
1.81816e-05
0.00269064
1.99191e-05
0.00268579
2.34092e-05
0.00268026
2.5994e-05
0.00267397
2.95629e-05
0.00266609
3.68387e-05
0.00265756
3.86539e-05
0.00264739
4.681e-05
0.00263504
5.60311e-05
0.00262111
6.26754e-05
0.00260468
7.34103e-05
0.00258485
8.9576e-05
0.00256014
0.000110116
0.00253221
0.000124825
0.0024914
0.000181061
0.00247082
8.98987e-05
0.00212057
0.00225874
-0.00578035
0.00307181
0.00582007
0.00274049
-0.00615272
0.00467617
0.00586643
0.00363398
0.00480187
0.00320201
0.00193299
0.00303317
0.00074313
0.00295775
0.000367622
0.00293673
0.000118346
0.00294583
-1.86869e-05
0.002972
-9.38975e-05
0.00300874
-0.000140494
0.00305205
-0.000165745
0.00309546
-0.000164192
0.00314128
-0.000172259
0.00318155
-0.000145656
0.00322196
-0.000153555
0.00325548
-0.000123094
0.00328617
-0.000120787
0.00331341
-0.000106299
0.00333702
-9.4251e-05
0.00335919
-8.84299e-05
0.00337701
-6.78163e-05
0.00339338
-6.3383e-05
0.00340629
-4.49424e-05
0.00341686
-3.58583e-05
0.00342543
-2.54832e-05
0.0034313
-1.36892e-05
0.00343628
-9.99739e-06
0.00343879
2.48363e-06
0.00344041
5.56097e-06
0.00344038
1.39513e-05
0.0034394
1.76562e-05
0.00343744
2.25129e-05
0.00343452
2.67076e-05
0.00343098
2.9643e-05
0.00342657
3.38548e-05
0.00342179
3.5611e-05
0.00341616
3.99014e-05
0.00341026
4.11955e-05
0.00340358
4.53374e-05
0.00339673
4.61063e-05
0.00338875
5.24295e-05
0.00338809
-1.1072e-05
0.00339357
-4.43317e-05
0.00339613
-8.99211e-06
0.00339601
6.72189e-06
0.00339487
1.09377e-05
0.00339333
1.25161e-05
0.00339174
1.25301e-05
0.00339006
1.28302e-05
0.0033884
1.25374e-05
0.00338674
1.24191e-05
0.00338514
1.19339e-05
0.00338357
1.16566e-05
0.00338205
1.13827e-05
0.00338051
1.11589e-05
0.00337907
1.07189e-05
0.00337758
1.0628e-05
0.00337624
9.93876e-06
0.00337486
9.877e-06
0.00337365
9.02944e-06
0.00337236
9.19502e-06
0.00337059
1.14465e-05
0.00336771
1.63814e-05
0.00336428
1.87207e-05
0.00336001
2.24536e-05
0.00335518
2.47533e-05
0.00334939
2.91908e-05
0.00334274
3.26523e-05
0.00333515
3.71498e-05
0.00332563
4.63606e-05
0.00331521
4.90756e-05
0.00330282
5.92036e-05
0.00328773
7.11184e-05
0.00327061
7.97943e-05
0.00325041
9.36058e-05
0.00322606
0.000113933
0.00319566
0.000140511
0.00316119
0.000159304
0.00311094
0.000231298
0.0030847
0.000116167
0.00269476
0.00264866
-0.00685174
0.00376614
0.00708325
0.0030629
-0.00740568
0.00575162
0.00719805
0.00448331
0.00607018
0.0039503
0.002466
0.00373712
0.000956311
0.00364324
0.000461506
0.00361727
0.000144313
0.00362863
-3.00459e-05
0.00366126
-0.000126528
0.00370709
-0.000186325
0.00376129
-0.000219945
0.00381579
-0.000218691
0.0038735
-0.000229971
0.00392472
-0.000196872
0.00397628
-0.000205114
0.0040196
-0.000166422
0.00405917
-0.00016035
0.00409432
-0.000141451
0.00412475
-0.000124678
0.00415325
-0.000116934
0.00417641
-9.09713e-05
0.00419761
-8.45902e-05
0.00421464
-6.19745e-05
0.00422873
-4.99408e-05
0.00424034
-3.70942e-05
0.00424862
-2.19696e-05
0.00425574
-1.71175e-05
0.00425985
-1.63234e-06
0.00426281
2.60023e-06
0.00426376
1.30075e-05
0.00426351
1.79061e-05
0.00426204
2.39844e-05
0.00425938
2.93654e-05
0.00425597
3.30505e-05
0.00425148
3.83398e-05
0.00424656
4.05392e-05
0.00424063
4.58301e-05
0.00423437
4.74531e-05
0.00422722
5.2492e-05
0.00421987
5.34555e-05
0.00421124
6.10529e-05
0.00420979
-9.62145e-06
0.00421526
-4.98016e-05
0.00421842
-1.21493e-05
0.0042187
6.43577e-06
0.00421775
1.1894e-05
0.00421629
1.3974e-05
0.00421473
1.4087e-05
0.00421306
1.44997e-05
0.0042114
1.41935e-05
0.00420973
1.40937e-05
0.00420813
1.35283e-05
0.00420655
1.32379e-05
0.00420503
1.29085e-05
0.00420348
1.27081e-05
0.00420203
1.21656e-05
0.00420052
1.21347e-05
0.00419919
1.12716e-05
0.00419779
1.12791e-05
0.0041966
1.02209e-05
0.0041953
1.04934e-05
0.00419341
1.33317e-05
0.00419016
1.9634e-05
0.00418621
2.26748e-05
0.00418121
2.74513e-05
0.00417549
3.04738e-05
0.00416861
3.60671e-05
0.00416061
4.06548e-05
0.00415148
4.62733e-05
0.00413999
5.78579e-05
0.00412729
6.17699e-05
0.00411222
7.42779e-05
0.00409382
8.95111e-05
0.00407284
0.000100779
0.00404807
0.000118374
0.00401823
0.000143784
0.00398092
0.000177808
0.0039385
0.000201737
0.00387682
0.000292961
0.00384312
0.000149905
0.00341296
0.00307882
-0.00804893
0.00461011
0.00860386
0.00336018
-0.0089011
0.00706434
0.00873757
0.00552841
0.00760611
0.00487339
0.00312102
0.00460403
0.00122567
0.00448652
0.000579014
0.00445401
0.000176826
0.0044678
-4.38333e-05
0.00450806
-0.000166795
0.00456479
-0.000243057
0.00463212
-0.000287273
0.00470003
-0.000286601
0.00477218
-0.000302114
0.0048367
-0.000261394
0.0049019
-0.000270318
0.00495735
-0.000221865
0.00500798
-0.000210986
0.00505305
-0.000186523
0.00509207
-0.000163691
0.00512855
-0.000153422
0.00515844
-0.000120862
0.00518579
-0.000111937
0.00520806
-8.42478e-05
0.00522663
-6.85081e-05
0.00524216
-5.26282e-05
0.00525357
-3.33774e-05
0.00526349
-2.70325e-05
0.00526974
-7.88929e-06
0.00527452
-2.17103e-06
0.00527682
1.07033e-05
0.00527761
1.71118e-05
0.0052769
2.46959e-05
0.00527472
3.15481e-05
0.00527161
3.61582e-05
0.00526719
4.27589e-05
0.00526224
4.54951e-05
0.00525609
5.19789e-05
0.00524955
5.39886e-05
0.00524197
6.0071e-05
0.00523418
6.12519e-05
0.00522496
7.0272e-05
0.00522265
-7.30919e-06
0.00522801
-5.51659e-05
0.00523181
-1.59509e-05
0.00523265
5.60156e-06
0.00523199
1.25462e-05
0.0052307
1.52671e-05
0.00522926
1.5525e-05
0.00522767
1.60899e-05
0.00522609
1.57748e-05
0.00522447
1.5715e-05
0.00522294
1.50558e-05
0.00522141
1.47664e-05
0.00521995
1.43702e-05
0.00521844
1.42175e-05
0.00521705
1.35531e-05
0.00521558
1.36097e-05
0.00521431
1.25379e-05
0.00521294
1.26487e-05
0.00521183
1.13337e-05
0.00521057
1.175e-05
0.0052086
1.53035e-05
0.00520495
2.3288e-05
0.00520042
2.72093e-05
0.00519458
3.32843e-05
0.00518783
3.72237e-05
0.00517967
4.42321e-05
0.00517007
5.02505e-05
0.00515912
5.72287e-05
0.00514526
7.17139e-05
0.00512983
7.71984e-05
0.00511153
9.25773e-05
0.00508915
0.000111895
0.0050635
0.000126433
0.00503318
0.000148685
0.00499668
0.000180287
0.00495101
0.000223482
0.00489893
0.00025382
0.00482345
0.000368436
0.00477985
0.000193514
0.00431377
0.00354489
-0.00937261
0.00563745
0.0104353
0.00361086
-0.010686
0.00866725
0.0105056
0.00681521
0.00945815
0.00601357
0.00392266
0.00567306
0.00156617
0.00552514
0.000726939
0.00548386
0.000218105
0.00550009
-6.00671e-05
0.00554929
-0.000215992
0.00561901
-0.000312773
0.00570209
-0.000370362
0.00578615
-0.000370657
0.00587574
-0.000391707
0.00595637
-0.000342021
0.0060382
-0.000352154
0.00610851
-0.000292172
0.00617287
-0.000275341
0.00623029
-0.000243947
0.00628005
-0.000213452
0.00632653
-0.000199904
0.0063649
-0.000159226
0.00639998
-0.000147017
0.00642888
-0.000113149
0.00645316
-9.27879e-05
0.0064737
-7.31654e-05
0.00648914
-4.88211e-05
0.00650268
-4.057e-05
0.00651175
-1.69576e-05
0.00651893
-9.35514e-06
0.00652308
6.55226e-06
0.00652534
1.48535e-05
0.00652573
2.43003e-05
0.00652431
3.29716e-05
0.00652175
3.87233e-05
0.00651758
4.69217e-05
0.00651277
5.03104e-05
0.00650653
5.82174e-05
0.00649983
6.06814e-05
0.00649192
6.79816e-05
0.00648377
6.94049e-05
0.00647405
7.99969e-05
0.00647083
-4.09255e-06
0.00647598
-6.03166e-05
0.00648046
-2.04284e-05
0.00648199
4.06641e-06
0.0064818
1.27408e-05
0.0064808
1.62651e-05
0.00647959
1.67326e-05
0.00647818
1.74978e-05
0.00647677
1.71821e-05
0.0064753
1.71892e-05
0.00647393
1.64228e-05
0.00647254
1.61547e-05
0.00647124
1.56753e-05
0.00646985
1.56067e-05
0.00646861
1.47915e-05
0.00646724
1.49779e-05
0.00646613
1.36516e-05
0.00646486
1.39107e-05
0.00646391
1.22861e-05
0.00646277
1.2891e-05
0.00646076
1.7313e-05
0.00645669
2.73572e-05
0.00645152
3.23815e-05
0.00644474
4.00655e-05
0.0064368
4.5163e-05
0.00642712
5.39041e-05
0.00641565
6.17267e-05
0.00640252
7.03577e-05
0.00638585
8.83854e-05
0.00636715
9.58981e-05
0.00634497
0.000114761
0.00631778
0.000139076
0.00628649
0.000157729
0.00624947
0.000185697
0.00620492
0.000224846
0.00614912
0.000279276
0.00608533
0.00031762
0.00599324
0.000460522
0.00593643
0.000250349
0.00544685
0.00403447
-0.0108163
0.00689053
0.0126427
0.00378428
-0.0128161
0.0106256
0.0125227
0.00840051
0.0116832
0.00742367
0.0048995
0.00699319
0.00199665
0.00680587
0.000914251
0.00675272
0.000271258
0.00677118
-7.85215e-05
0.00683068
-0.000275494
0.00691575
-0.00039784
0.00701766
-0.000472281
0.00712107
-0.000474063
0.00723168
-0.000502317
0.00733172
-0.000442058
0.00743373
-0.000454168
0.00752217
-0.000380607
0.0076034
-0.000356574
0.00767611
-0.000316653
0.00773923
-0.000276574
0.00779816
-0.000258837
0.00784712
-0.000208182
0.00789189
-0.000191789
0.00792912
-0.000150383
0.00796062
-0.000124282
0.0079875
-0.000100052
0.00800811
-6.94318e-05
0.0080263
-5.87562e-05
0.00803903
-2.96832e-05
0.00804937
-1.97029e-05
0.008056
-6.83925e-08
0.00806025
1.05976e-05
0.0080622
2.23476e-05
0.00806191
3.32667e-05
0.0080602
4.04272e-05
0.00805655
5.05727e-05
0.00805211
5.47536e-05
0.00804597
6.43624e-05
0.00803929
6.73572e-05
0.00803119
7.60801e-05
0.00802282
7.77729e-05
0.00801274
9.0083e-05
0.00800862
2.71478e-08
0.00801344
-6.51375e-05
0.00801859
-2.55806e-05
0.00802099
1.66365e-06
0.00802145
1.22845e-05
0.00802091
1.68031e-05
0.00802009
1.75574e-05
0.008019
1.85856e-05
0.0080179
1.82835e-05
0.0080167
1.83902e-05
0.00801562
1.75022e-05
0.00801449
1.72807e-05
0.00801347
1.67007e-05
0.00801231
1.67619e-05
0.00801134
1.57614e-05
0.00801019
1.61306e-05
0.00800934
1.44973e-05
0.00800829
1.49614e-05
0.00800761
1.2965e-05
0.00800669
1.38152e-05
0.00800472
1.92839e-05
0.00800023
3.18435e-05
0.00799437
3.82405e-05
0.00798652
4.79205e-05
0.00797721
5.44695e-05
0.00796578
6.53335e-05
0.00795209
7.54167e-05
0.00793639
8.60625e-05
0.00791637
0.000108405
0.00789376
0.000118507
0.00786692
0.000141598
0.00783397
0.000172026
0.00779589
0.000195811
0.00775079
0.000230794
0.00769652
0.000279126
0.0076285
0.000347295
0.00755053
0.000395586
0.0074385
0.000572553
0.00736406
0.000324798
0.00687671
0.00452182
-0.0123629
0.00842325
0.0153057
0.00383579
-0.0153572
0.0130199
0.0148085
0.0103548
0.0143483
0.00916976
0.0060845
0.00862578
0.00254063
0.00838724
0.00115279
0.00831788
0.000340622
0.00833791
-9.85484e-05
0.00840912
-0.000346703
0.00851219
-0.000500909
0.00863647
-0.00059657
0.00876295
-0.000600542
0.00889878
-0.00063814