/*--------------------------------*- C++ -*----------------------------------*\
| =========                 |                                                 |
| \\      /  F ield         | OpenFOAM: The Open Source CFD Toolbox           |
|  \\    /   O peration     | Version:  5.x                                   |
|   \\  /    A nd           | Web:      www.OpenFOAM.org                      |
|    \\/     M anipulation  |                                                 |
\*---------------------------------------------------------------------------*/
FoamFile
{
    version     2.0;
    format      ascii;
    class       volVectorField;
    location    "950";
    object      wallShearStress;
}
// * * * * * * * * * * * * * * * * * * * * * * * * * * * * * * * * * * * * * //

dimensions      [0 2 -2 0 0 0 0];

internalField   uniform (0 0 0);

boundaryField
{
    inlet
    {
        type            calculated;
        value           uniform (0 0 0);
    }
    outlet
    {
        type            calculated;
        value           uniform (0 0 0);
    }
    walls
    {
        type            calculated;
        value           nonuniform List<vector> 
82
(
(0.205648 -1.42245 -7.52316e-37)
(-0.0439451 -2.10089 1.23777e-20)
(-0.370359 -2.67201 -1.4526e-18)
(-0.856063 -2.74693 -1.63672e-18)
(-1.25997 -2.58251 -3.81238e-18)
(-1.55578 -2.27777 1.90674e-18)
(-1.73997 -1.91427 1.83402e-18)
(-1.82801 -1.54675 -1.71786e-18)
(-1.83985 -1.20775 -3.89077e-18)
(-1.7851 -0.908484 -1.26231e-19)
(-1.62502 -0.619869 -1.72954e-18)
(-1.42141 -0.385154 8.69389e-20)
(-1.27055 -0.246929 -1.31827e-18)
(-1.19251 -0.180321 -1.20799e-18)
(-1.12731 -0.134703 -9.38403e-19)
(-1.0458 -0.0907188 -5.34328e-19)
(-0.952549 -0.0520464 4.0169e-19)
(-0.857506 -0.0208151 3.13763e-20)
(-0.76377 0.00345244 -3.1325e-20)
(-0.671602 0.0214659 -1.56138e-19)
(-0.580732 0.0338081 -9.72329e-20)
(-0.502804 0.0400531 -5.19039e-20)
(-0.436438 0.0423457 -1.53267e-20)
(-0.37377 0.042337 5.76325e-21)
(-0.314722 0.0404737 2.33503e-21)
(-0.259422 0.037114 -7.00965e-21)
(-0.207977 0.0326205 5.56813e-19)
(-0.160556 0.0274036 -1.13774e-20)
(-0.117308 0.0217453 7.87354e-19)
(-0.0791476 0.0157834 -8.57538e-19)
(-0.0481138 0.0101202 -1.38089e-20)
(-0.0244631 0.00544642 -7.44958e-21)
(-0.00883024 0.0020972 6.58685e-21)
(-0.00082284 0.00028125 -1.50463e-36)
(0.00397836 -0.000882429 -1.91967e-18)
(0.00973809 -0.00272391 0)
(0.019783 -0.00640467 1.17549e-38)
(0.0408663 -0.0120442 4.81148e-21)
(0.0687829 -0.013765 -4.83537e-21)
(0.0795594 -0.000670816 2.3648e-18)
(0.0360361 0.0158665 2.16107e-18)
(0.250121 -0.923928 -3.97017e-19)
(0.153526 -0.415408 -5.5855e-20)
(0.0576849 -0.146464 -2.66826e-18)
(0.00073593 -0.0266749 -1.09623e-18)
(-0.0246802 0.00169354 -1.29581e-18)
(-0.0801185 0.0325733 -1.76717e-18)
(-0.146863 0.0617757 -3.64327e-18)
(-0.212986 0.0823336 -1.66029e-18)
(-0.275115 0.096828 1.47535e-18)
(-0.343442 0.115366 1.01279e-19)
(-0.422703 0.131867 -3.02435e-18)
(-0.493149 0.130664 1.36081e-18)
(-0.547492 0.11804 3.55278e-21)
(-0.593239 0.103892 8.26366e-19)
(-0.633941 0.0894272 1.2618e-18)
(-0.668442 0.0736898 -7.66024e-20)
(-0.696255 0.0569525 -3.76158e-37)
(-0.71787 0.0398268 -4.83859e-19)
(-0.733855 0.022816 -3.38095e-20)
(-0.744835 0.00630648 -2.529e-19)
(-0.750831 -0.00928151 5.95077e-22)
(-0.753699 -0.0232392 -2.82119e-37)
(-0.75346 -0.0343147 -5.09734e-19)
(-0.75188 -0.0440292 -4.38919e-19)
(-0.749356 -0.0526438 9.1338e-19)
(-0.746107 -0.0603031 8.92234e-19)
(-0.742386 -0.0671087 1.74517e-18)
(-0.738392 -0.0731673 8.53869e-19)
(-0.734259 -0.0785853 2.5954e-20)
(-0.730096 -0.0834718 -8.43228e-19)
(-0.726039 -0.0879318 -8.1295e-19)
(-0.722191 -0.0920707 1.57861e-18)
(-0.718605 -0.0959837 1.544e-18)
(-0.715315 -0.0997501 -1.50959e-18)
(-0.712291 -0.103442 1.13904e-20)
(-0.709568 -0.107126 -1.12359e-20)
(-0.70697 -0.110862 0)
(-0.705294 -0.114788 -4.4081e-39)
(-0.701625 -0.118875 2.59323e-21)
(-0.709745 -0.12383 -1.3196e-18)
(-0.678045 -0.128931 1.21005e-21)
)
;
    }
    frontAndBack
    {
        type            empty;
    }
}


// ************************************************************************* //
