/*--------------------------------*- C++ -*----------------------------------*\
| =========                 |                                                 |
| \\      /  F ield         | OpenFOAM: The Open Source CFD Toolbox           |
|  \\    /   O peration     | Version:  5.x                                   |
|   \\  /    A nd           | Web:      www.OpenFOAM.org                      |
|    \\/     M anipulation  |                                                 |
\*---------------------------------------------------------------------------*/
FoamFile
{
    version     2.0;
    format      ascii;
    class       volTensorField;
    location    "0";
    object      grad(U);
}
// * * * * * * * * * * * * * * * * * * * * * * * * * * * * * * * * * * * * * //

dimensions      [0 0 -1 0 0 0 0];

internalField   nonuniform List<tensor> 
11040
(
(-3233.67 -410.867 0 641.128 81.4609 0 0 0 0)
(-2888.61 -367.024 0 2166.44 275.265 0 -1.96799e-15 -2.50051e-16 0)
(-2472.14 -314.108 0 3021.54 383.913 0 0 0 0)
(-2105.56 -267.531 0 3448.94 438.218 0 0 0 0)
(-1803.54 -229.156 0 3662.54 465.358 0 0 0 0)
(-1557.63 -197.91 0 3770.04 479.017 0 -3.66857e-15 -4.66124e-16 0)
(-1354.94 -172.157 0 3825.49 486.062 0 3.62606e-15 4.60723e-16 0)
(-1184.39 -150.488 0 3855.58 489.885 0 -1.87784e-16 -2.38596e-17 0)
(-1037.55 -131.829 0 3873.45 492.156 0 0 0 0)
(-908.329 -115.411 0 3885.21 493.65 0 0 0 0)
(-792.372 -100.678 0 3893.76 494.737 0 0 0 0)
(-686.231 -87.1917 0 3900.75 495.625 0 0 0 0)
(-587.149 -74.6024 0 3906.39 496.341 0 -1.34937e-16 -1.71449e-17 0)
(-493.416 -62.6929 0 3910.3 496.838 0 -1.76872e-15 -2.24732e-16 0)
(-403.796 -51.3058 0 3911.93 497.045 0 -2.36711e-16 -3.00762e-17 0)
(-317.406 -40.3292 0 3910.66 496.884 0 9.98117e-16 1.2682e-16 0)
(-233.64 -29.686 0 3905.87 496.275 0 -8.31223e-16 -1.05614e-16 0)
(-152.095 -19.3251 0 3896.98 495.146 0 7.78385e-16 9.89007e-17 0)
(-72.5189 -9.21417 0 3883.5 493.433 0 9.10411e-17 1.15676e-17 0)
(5.24783 0.666783 0 3865.01 491.084 0 -1.71516e-16 -2.17926e-17 0)
(81.7295 10.3844 0 3841.36 488.079 0 -3.17693e-16 -4.03656e-17 0)
(148.591 18.8799 0 3811.39 484.27 0 8.08773e-17 1.02762e-17 0)
(198.883 25.2698 0 3775.96 479.769 0 6.46804e-16 8.21821e-17 0)
(241.292 30.6583 0 3738.41 474.998 0 1.29161e-15 1.64111e-16 0)
(279.853 35.5578 0 3700.25 470.149 0 1.28986e-15 1.63889e-16 0)
(314.803 39.9984 0 3661.64 465.243 0 -1.32815e-15 -1.68753e-16 0)
(346.67 44.0474 0 3622.8 460.308 0 4.01803e-17 5.10527e-18 0)
(375.913 47.763 0 3583.9 455.367 0 4.01107e-17 5.09642e-18 0)
(402.932 51.1961 0 3545.09 450.435 0 -4.004e-17 -5.08743e-18 0)
(428.08 54.3914 0 3506.47 445.528 0 0 0 0)
(451.667 57.3883 0 3468.12 440.655 0 0 0 0)
(473.962 60.2211 0 3430.11 435.825 0 0 0 0)
(495.197 62.9191 0 3392.47 431.043 0 0 0 0)
(515.686 65.5224 0 3355.28 426.318 0 2.51391e-15 3.19415e-16 0)
(535.679 68.0628 0 3318.54 421.649 0 0 0 0)
(555.211 70.5444 0 3282.24 417.038 0 -2.51075e-15 -3.19013e-16 0)
(574.242 72.9625 0 3246.4 412.484 0 -9.91938e-18 -1.26034e-18 0)
(593.403 75.3971 0 3211.1 407.998 0 2.52816e-15 3.21225e-16 0)
(612.484 77.8214 0 3176.21 403.566 0 -9.8439e-18 -1.25075e-18 0)
(631.77 80.2719 0 3141.82 399.196 0 0 0 0)
(651.027 82.7188 0 3107.86 394.882 0 -2.5336e-15 -3.21916e-16 0)
(0 0 0 2.44929e-13 0 0 -9.53018e-17 -1.21089e-17 0)
(-4.9747e-13 0 0 2.48735e-13 3.10919e-14 0 9.67825e-17 1.22971e-17 0)
(0 -6.3789e-14 0 0 0 0 -1.98562e-16 -2.5229e-17 0)
(0 0 0 0 6.1859e-14 0 1.92554e-16 2.44657e-17 0)
(-2.35618e-13 2.94523e-14 0 9.42473e-13 0 0 0 0 0)
(0 0 0 4.44025e-13 5.55031e-14 0 -3.45539e-16 -4.39038e-17 0)
(-2.08098e-13 0 0 0 0 0 3.23882e-16 4.11521e-17 0)
(0 2.43329e-14 0 3.89327e-13 9.73317e-14 0 0 0 0)
(0 0 0 -3.64121e-13 0 0 0 0 0)
(1.70996e-13 2.13744e-14 0 0 0 0 0 0 0)
(0 1.00774e-14 0 6.44955e-13 8.06193e-14 0 -2.50951e-16 -3.18856e-17 0)
(0 0 0 0 -7.54583e-14 0 2.34886e-16 2.98443e-17 0)
(1.41382e-13 1.76727e-14 0 -5.65526e-13 0 0 -2.20046e-16 -2.79587e-17 0)
(-6.62696e-14 -8.2837e-15 0 -5.30157e-13 0 0 1.85655e-15 2.35891e-16 0)
(-6.21491e-14 0 0 -4.97193e-13 -1.24298e-13 0 9.67286e-16 1.22902e-16 0)
(-1.16577e-13 -1.45721e-14 0 9.32613e-13 0 0 -1.81439e-16 -2.30535e-17 0)
(2.73262e-14 6.83154e-15 0 -4.37219e-13 5.46523e-14 0 6.80485e-16 8.64617e-17 0)
(5.12126e-14 9.60236e-15 0 0 -1.02425e-13 0 -7.17364e-16 -9.11474e-17 0)
(-3.59602e-14 -4.49503e-15 0 0 0 0 7.46245e-17 9.4817e-18 0)
(-5.32439e-14 -1.00708e-14 0 3.58696e-13 0 0 1.09038e-18 1.38542e-19 0)
(1.3607e-13 1.83172e-14 0 0 0 0 0 0 0)
(-6.39637e-14 -5.33031e-15 0 0 0 0 0 0 0)
(-2.13189e-14 2.66486e-15 0 -6.82204e-13 8.52755e-14 0 -5.3089e-16 -6.74543e-17 0)
(-2.12905e-14 -5.32262e-15 0 0 0 0 -2.187e-15 -2.77878e-16 0)
(0 -1.06329e-14 0 -3.40253e-13 -8.50632e-14 0 6.6196e-17 8.41079e-18 0)
(0 1.06186e-14 0 -3.39795e-13 -8.49488e-14 0 1.12382e-15 1.42791e-16 0)
(0 -1.06029e-14 0 0 0 0 0 0 0)
(-1.27034e-13 -5.29307e-15 0 0 0 0 -1.08743e-15 -1.38168e-16 0)
(0 0 0 0 0 0 -1.08567e-15 -1.37944e-16 0)
(1.26626e-13 2.11043e-14 0 -3.37668e-13 -8.4417e-14 0 3.28466e-17 4.17345e-18 0)
(-4.21454e-14 -1.58045e-14 0 0 0 0 1.01672e-15 1.29184e-16 0)
(0 -1.05232e-14 0 -3.36742e-13 -4.20928e-14 0 2.09642e-15 2.66369e-16 0)
(0 -2.10304e-14 0 0 0 0 3.27316e-17 4.15884e-18 0)
(-8.36509e-14 1.04564e-14 0 -3.34603e-13 -4.18254e-14 0 -4.19875e-15 -5.33489e-16 0)
(0 0 0 -3.34054e-13 0 0 2.07968e-15 2.64242e-16 0)
(8.3561e-14 -1.04451e-14 0 3.34244e-13 4.17805e-14 0 2.08087e-15 2.64392e-16 0)
(-1.67718e-13 0 0 0 4.19296e-14 0 2.1046e-15 2.67409e-16 0)
(0 1.03563e-14 0 -3.31402e-13 -4.14253e-14 0 -4.14246e-15 -5.26337e-16 0)
(-8.32348e-14 -1.04043e-14 0 -3.32939e-13 0 0 0 0 0)
(-8.31308e-14 0 0 -3.32523e-13 -8.31308e-14 0 0 0 0)
(0 1.04616e-14 0 -3.34771e-13 -4.18464e-14 0 0 0 0)
(0 -4.76601e-14 0 0 0 0 0 0 0)
(0 0 0 1.94325e-13 0 0 3.78059e-15 4.80357e-16 0)
(0 0 0 0 0 0 2.64525e-15 3.36102e-16 0)
(0 2.43709e-14 0 -3.89934e-13 0 0 -6.06892e-16 -7.7111e-17 0)
(0 -2.33375e-14 0 0 0 0 -2.03406e-15 -2.58445e-16 0)
(1.76847e-13 2.21058e-14 0 7.07387e-13 0 0 2.47719e-15 3.14749e-16 0)
(0 0 0 -3.33081e-13 0 0 -2.33283e-15 -2.96406e-16 0)
(0 0 0 -9.38525e-13 -3.91052e-14 0 -4.86906e-16 -6.18657e-17 0)
(1.46798e-13 0 0 2.93597e-13 0 0 4.56953e-16 5.80599e-17 0)
(0 -1.72836e-14 0 0 -6.91343e-14 0 2.15201e-15 2.73432e-16 0)
(-6.53429e-14 8.16786e-15 0 -5.22743e-13 -6.53429e-14 0 -4.06798e-16 -5.16872e-17 0)
(6.1289e-14 0 0 -4.90312e-13 6.1289e-14 0 0 0 0)
(-5.75189e-14 0 0 4.60152e-13 -5.75189e-14 0 -1.43236e-15 -1.81994e-16 0)
(5.40027e-14 -6.75034e-15 0 0 0 0 -1.34479e-15 -1.70868e-16 0)
(0 6.3387e-15 0 4.05677e-13 5.07096e-14 0 -6.31394e-16 -8.02242e-17 0)
(-9.52224e-14 -5.9514e-15 0 -3.8089e-13 0 0 -5.92815e-16 -7.53224e-17 0)
(8.93658e-14 2.79268e-15 0 3.57463e-13 4.46829e-14 0 0 0 0)
(-2.09521e-14 -2.61901e-15 0 3.35234e-13 0 0 0 0 0)
(1.96297e-14 4.90743e-15 0 0 3.92594e-14 0 1.22206e-16 1.55274e-17 0)
(-5.05109e-14 -1.14797e-15 0 0 7.34704e-14 0 -1.14349e-16 -1.45291e-17 0)
(-8.58018e-15 -3.21757e-15 0 0 0 0 0 0 0)
(3.49637e-14 0 0 5.59419e-13 6.99274e-14 0 -4.35339e-16 -5.53137e-17 0)
(-5.24537e-14 0 0 0 -6.99383e-14 0 -1.08852e-16 -1.38306e-17 0)
(5.2397e-14 2.18321e-15 0 5.58902e-13 0 0 9.78607e-16 1.24341e-16 0)
(-6.97981e-14 -8.72476e-15 0 0 6.97981e-14 0 -8.69068e-16 -1.10423e-16 0)
(3.48597e-14 0 0 0 0 0 0 0 0)
(3.48151e-14 -8.70377e-15 0 2.78521e-13 0 0 8.66977e-16 1.10157e-16 0)
(-6.95337e-14 0 0 0 0 0 8.65776e-16 1.10004e-16 0)
(1.0415e-13 4.33959e-15 0 0 -3.47167e-14 0 9.18561e-16 1.16711e-16 0)
(-3.4667e-14 -4.33337e-15 0 0 3.4667e-14 0 -1.07911e-16 -1.37111e-17 0)
(-3.46205e-14 -1.29827e-14 0 -2.76964e-13 0 0 -8.08248e-16 -1.02695e-16 0)
(1.03747e-13 8.64554e-15 0 2.76657e-13 0 0 -3.44471e-15 -4.37681e-16 0)
(6.91209e-14 8.64011e-15 0 0 0 0 1.72127e-15 2.18703e-16 0)
(-1.37487e-13 0 0 2.74974e-13 3.43718e-14 0 0 0 0)
(0 0 0 2.74555e-13 3.43193e-14 0 -1.68256e-15 -2.13784e-16 0)
(6.8685e-14 0 0 0 -3.43425e-14 0 1.68369e-15 2.13928e-16 0)
(-6.89362e-14 8.61703e-15 0 0 -3.44681e-14 0 -3.44676e-15 -4.37941e-16 0)
(0 8.51445e-15 0 0 3.40578e-14 0 1.32519e-17 1.68377e-18 0)
(6.84367e-14 8.55458e-15 0 0 -3.42183e-14 0 0 0 0)
(-6.8357e-14 0 0 2.73428e-13 3.41785e-14 0 -1.70225e-15 -2.16286e-16 0)
(6.88233e-14 0 0 0 0 0 1.71386e-15 2.17761e-16 0)
(0 0 0 1.47189e-13 0 0 0 0 0)
(3.01278e-13 0 0 -3.01278e-13 -1.88299e-14 0 -1.87563e-15 -2.38316e-16 0)
(3.11035e-13 0 0 3.11035e-13 3.88794e-14 0 -2.17842e-15 -2.76788e-16 0)
(0 0 0 0 -3.81382e-14 0 2.13689e-15 2.71511e-16 0)
(0 0 0 -2.93992e-13 0 0 1.83027e-15 2.32552e-16 0)
(-1.40062e-13 -1.75078e-14 0 0 3.50155e-14 0 0 0 0)
(0 0 0 0 6.63008e-14 0 -1.23828e-15 -1.57335e-16 0)
(0 -1.56403e-14 0 0 3.12806e-14 0 -3.8948e-16 -4.94869e-17 0)
(0 1.47366e-14 0 0 0 0 -1.83488e-15 -2.33137e-16 0)
(-1.11409e-13 -1.39262e-14 0 0 0 0 -1.38718e-15 -1.76253e-16 0)
(1.05589e-13 1.31986e-14 0 0 -5.27945e-14 0 3.28677e-16 4.17613e-17 0)
(4.9642e-14 0 0 3.97136e-13 0 0 -9.27151e-16 -1.17803e-16 0)
(-4.66861e-14 -5.83577e-15 0 -3.73489e-13 4.66861e-14 0 8.71946e-16 1.10788e-16 0)
(0 5.48877e-15 0 3.51281e-13 -4.39102e-14 0 0 0 0)
(4.1295e-14 5.16188e-15 0 -3.3036e-13 0 0 -2.57086e-16 -3.2665e-17 0)
(-3.88221e-14 -4.85276e-15 0 0 3.88221e-14 0 7.25071e-16 9.21267e-17 0)
(0 0 0 -5.83598e-13 -3.64749e-14 0 0 0 0)
(3.42395e-14 -2.13997e-15 0 0 3.42395e-14 0 0 0 0)
(3.21052e-14 -5.01643e-15 0 2.56841e-13 -3.21052e-14 0 0 0 0)
(2.06681e-14 3.05324e-15 0 0 -6.01254e-14 0 9.3579e-17 1.189e-17 0)
(-5.62093e-14 -7.90443e-15 0 0 0 0 2.62452e-16 3.33468e-17 0)
(-4.29585e-14 7.15975e-15 0 0 0 0 3.56589e-16 4.53078e-17 0)
(7.16317e-14 -3.58158e-15 0 -4.58443e-13 -5.73053e-14 0 2.67569e-16 3.39971e-17 0)
(-5.72608e-14 -8.947e-15 0 -4.58086e-13 5.72608e-14 0 8.02085e-16 1.01912e-16 0)
(5.72239e-14 1.4306e-14 0 4.57791e-13 -5.72239e-14 0 0 0 0)
(-5.71744e-14 0 0 0 0 0 0 0 0)
(-5.71152e-14 0 0 -4.56922e-13 0 0 -7.11151e-16 -9.03581e-17 0)
(-2.85245e-14 0 0 -2.28196e-13 0 0 0 0 0)
(0 0 0 -2.27916e-13 -2.84895e-14 0 0 0 0)
(5.69086e-14 0 0 0 0 0 0 0 0)
(2.84214e-14 3.55268e-15 0 0 0 0 7.0776e-16 8.99272e-17 0)
(-2.83949e-14 3.54936e-15 0 0 0 0 2.8284e-15 3.59373e-16 0)
(1.13526e-13 7.09539e-15 0 2.27052e-13 2.83816e-14 0 -1.41353e-15 -1.79602e-16 0)
(0 7.05783e-15 0 2.25851e-13 0 0 1.38408e-15 1.7586e-16 0)
(0 -2.11442e-14 0 -2.25538e-13 -2.81923e-14 0 -1.40411e-15 -1.78404e-16 0)
(-5.64297e-14 0 0 0 0 0 -1.38327e-15 -1.75757e-16 0)
(1.13284e-13 1.41606e-14 0 2.26569e-13 2.83211e-14 0 0 0 0)
(5.59763e-14 0 0 -2.23905e-13 0 0 1.40483e-15 1.78496e-16 0)
(-5.62453e-14 0 0 2.24981e-13 5.62453e-14 0 -1.41158e-15 -1.79354e-16 0)
(5.61856e-14 -7.0232e-15 0 0 0 0 1.39369e-15 1.7708e-16 0)
(-5.65731e-14 -1.41433e-14 0 2.26292e-13 2.82866e-14 0 5.50314e-18 6.99222e-19 0)
(0 0 0 0 0 0 0 0 0)
(2.316e-13 0 0 0 -1.4475e-14 0 3.60461e-16 4.57998e-17 0)
(-2.39952e-13 0 0 0 0 0 -3.7346e-16 -4.74514e-17 0)
(2.36908e-13 0 0 2.36908e-13 -2.96135e-14 0 -5.16211e-15 -6.55892e-16 0)
(-1.14919e-13 0 0 0 0 0 2.14631e-15 2.72707e-16 0)
(1.10216e-13 1.3777e-14 0 4.40864e-13 2.7554e-14 0 0 0 0)
(0 0 0 -2.09936e-13 -5.24839e-14 0 1.30697e-15 1.66062e-16 0)
(0 0 0 -1.99137e-13 -2.48921e-14 0 -1.23974e-15 -1.5752e-16 0)
(9.42421e-14 -1.17803e-14 0 0 0 0 1.17342e-15 1.49094e-16 0)
(0 0 0 0 0 0 0 0 0)
(0 0 0 0 4.24992e-14 0 0 0 0)
(1.20231e-13 1.00193e-14 0 0 -4.00771e-14 0 9.98013e-16 1.26806e-16 0)
(-1.51134e-13 -9.44589e-15 0 0 0 0 0 0 0)
(0 0 0 -2.84892e-13 0 0 8.86809e-16 1.12677e-16 0)
(-3.35505e-14 -8.38764e-15 0 2.68404e-13 0 0 0 0 0)
(9.47696e-14 1.18462e-14 0 2.52719e-13 0 0 -3.93331e-16 -4.99761e-17 0)
(0 -1.85745e-15 0 0 0 0 0 0 0)
(6.98243e-14 3.49121e-15 0 2.23438e-13 2.79297e-14 0 3.47758e-16 4.41857e-17 0)
(-2.62147e-14 4.91526e-15 0 0 0 0 0 0 0)
(9.21311e-15 0 0 -3.93093e-13 4.91366e-14 0 0 0 0)
(0 -2.1549e-15 0 0 -4.59712e-14 0 -1.43099e-16 -1.8182e-17 0)
(-4.68607e-14 -1.31796e-14 0 0 0 0 1.45868e-16 1.85338e-17 0)
(1.17252e-14 -2.93131e-15 0 0 0 0 -4.37979e-16 -5.56491e-17 0)
(3.51612e-14 7.32526e-15 0 0 0 0 -4.37799e-16 -5.56262e-17 0)
(-9.37345e-14 -8.78761e-15 0 3.74938e-13 0 0 4.37664e-16 5.56091e-17 0)
(9.36831e-14 2.9276e-15 0 -3.74732e-13 -4.68415e-14 0 5.83232e-16 7.41048e-17 0)
(2.34034e-14 5.85085e-15 0 1.87227e-13 4.68068e-14 0 0 0 0)
(-7.01482e-14 -1.46142e-14 0 -1.87062e-13 -2.33827e-14 0 7.27856e-17 9.24805e-18 0)
(9.344e-14 8.76e-15 0 1.8688e-13 2.336e-14 0 4.36289e-16 5.54344e-17 0)
(-7.00102e-14 -8.75127e-15 0 0 0 0 1.45285e-16 1.84597e-17 0)
(2.3315e-14 2.91437e-15 0 0 0 0 -6.53172e-16 -8.29913e-17 0)
(9.31921e-14 -5.8245e-15 0 0 0 0 -1.74053e-15 -2.21149e-16 0)
(0 1.16458e-14 0 -3.72665e-13 -2.32916e-14 0 3.62509e-17 4.606e-18 0)
(-4.63458e-14 5.79323e-15 0 -3.70767e-13 -4.63458e-14 0 -3.60663e-17 -4.58254e-18 0)
(4.62896e-14 -5.78621e-15 0 1.85159e-13 4.62896e-14 0 1.15272e-15 1.46463e-16 0)
(4.63337e-14 1.15834e-14 0 0 -2.31669e-14 0 0 0 0)
(-9.30287e-14 -1.74429e-14 0 0 0 0 1.15832e-15 1.47174e-16 0)
(0 -5.74698e-15 0 1.83904e-13 2.29879e-14 0 -1.12702e-15 -1.43198e-16 0)
(0 -5.77524e-15 0 0 0 0 -8.98856e-18 -1.14208e-18 0)
(0 -5.76982e-15 0 -1.84634e-13 -2.30793e-14 0 -8.98013e-18 -1.141e-18 0)
(9.29621e-14 -1.16203e-14 0 -3.71848e-13 -2.32405e-14 0 1.15749e-15 1.47069e-16 0)
(0 0 0 0 -2.13659e-14 0 -1.33015e-16 -1.69007e-17 0)
(-1.76467e-13 2.20584e-14 0 -2.64701e-13 -2.20584e-14 0 1.37326e-16 1.74485e-17 0)
(0 0 0 -1.83516e-13 0 0 -1.14249e-15 -1.45164e-16 0)
(-1.82439e-13 -2.28049e-14 0 -1.82439e-13 -2.28049e-14 0 3.40737e-15 4.32937e-16 0)
(0 0 0 0 0 0 -2.775e-15 -3.52588e-16 0)
(0 1.07641e-14 0 -1.72225e-13 0 0 0 0 0)
(8.25538e-14 1.03192e-14 0 0 2.06385e-14 0 0 0 0)
(-1.57537e-13 -9.84606e-15 0 1.57537e-13 0 0 2.4519e-15 3.11536e-16 0)
(-7.4939e-14 0 0 0 -3.74695e-14 0 9.33079e-16 1.18556e-16 0)
(7.13968e-14 0 0 -2.85587e-13 3.56984e-14 0 8.88974e-16 1.12952e-16 0)
(0 0 0 2.72526e-13 0 0 0 0 0)
(-6.44641e-14 -8.05801e-15 0 0 -3.2232e-14 0 0 0 0)
(-3.04746e-14 3.80933e-15 0 0 0 0 0 0 0)
(-2.87932e-14 -3.59915e-15 0 0 -2.87932e-14 0 -3.58509e-16 -4.55518e-17 0)
(2.7184e-14 1.0194e-14 0 0 -2.7184e-14 0 3.38473e-16 4.3006e-17 0)
(-2.56418e-14 -1.28209e-14 0 0 0 0 0 0 0)
(4.83222e-14 0 0 -1.93289e-13 0 0 -3.00834e-16 -3.82236e-17 0)
(-5.68429e-14 9.9475e-15 0 -1.81897e-13 -6.82114e-14 0 -2.83104e-16 -3.59709e-17 0)
(2.13662e-14 -8.01234e-15 0 -1.7093e-13 0 0 2.66035e-16 3.3802e-17 0)
(-3.00675e-14 7.20368e-15 0 0 0 0 0 0 0)
(1.05586e-14 -6.15916e-15 0 3.00333e-13 3.75416e-14 0 5.84296e-17 7.42399e-18 0)
(1.43561e-14 5.98172e-15 0 3.06264e-13 0 0 -3.57501e-16 -4.54237e-17 0)
(-9.58339e-15 2.39585e-15 0 3.06668e-13 0 0 5.96622e-16 7.58061e-17 0)
(3.83345e-14 -8.38567e-15 0 0 0 0 -1.19327e-16 -1.51616e-17 0)
(-3.83382e-14 -2.39614e-15 0 -3.06706e-13 0 0 -8.35373e-16 -1.06142e-16 0)
(9.58292e-14 -2.39573e-15 0 0 0 0 -3.57956e-16 -4.54814e-17 0)
(3.83168e-14 7.1844e-15 0 0 0 0 -5.96361e-16 -7.57729e-17 0)
(-7.65911e-14 -7.18042e-15 0 3.06365e-13 3.82956e-14 0 0 0 0)
(0 7.17566e-15 0 0 1.91351e-14 0 -4.76508e-16 -6.05446e-17 0)
(5.73646e-14 -2.39019e-15 0 1.52972e-13 0 0 0 0 0)
(-5.73265e-14 4.7772e-15 0 1.52871e-13 0 0 -4.16373e-16 -5.29038e-17 0)
(0 -2.38746e-15 0 1.52798e-13 1.90997e-14 0 8.32348e-16 1.05757e-16 0)
(-1.90988e-14 -2.38735e-15 0 1.52791e-13 0 0 1.01066e-15 1.28413e-16 0)
(3.80122e-14 -4.75153e-15 0 0 1.90061e-14 0 -8.87432e-16 -1.12756e-16 0)
(7.5948e-14 -9.4935e-15 0 1.51896e-13 1.8987e-14 0 8.86539e-16 1.12643e-16 0)
(-3.80171e-14 1.42564e-14 0 1.52068e-13 1.90086e-14 0 -9.46715e-16 -1.20289e-16 0)
(3.81713e-14 9.54284e-15 0 -1.52685e-13 0 0 9.80261e-16 1.24551e-16 0)
(-3.77377e-14 -4.71721e-15 0 0 0 0 9.1039e-16 1.15673e-16 0)
(7.58565e-14 -4.74103e-15 0 -1.51713e-13 -3.79283e-14 0 9.44502e-16 1.20007e-16 0)
(-3.78984e-14 9.47459e-15 0 0 3.78984e-14 0 -9.43758e-16 -1.19913e-16 0)
(0 -9.54181e-15 0 1.52669e-13 0 0 -9.50454e-16 -1.20764e-16 0)
(0 0 0 -1.28457e-13 0 0 0 0 0)
(0 0 0 3.33069e-13 1.66534e-14 0 -4.1471e-16 -5.26925e-17 0)
(0 0 0 0 -1.73857e-14 0 4.32944e-16 5.50094e-17 0)
(1.39267e-13 3.48168e-14 0 0 1.74084e-14 0 -4.33509e-16 -5.50812e-17 0)
(0 0 0 -2.74331e-13 -3.42913e-14 0 -4.26967e-16 -5.425e-17 0)
(0 1.66894e-14 0 -1.33515e-13 -1.66894e-14 0 0 0 0)
(0 -8.05749e-15 0 1.2892e-13 -1.6115e-14 0 -8.02602e-16 -1.01978e-16 0)
(0 0 0 -2.47619e-13 3.09524e-14 0 -1.54157e-15 -1.95871e-16 0)
(0 -7.40431e-15 0 0 -2.96172e-14 0 -7.37539e-16 -9.37108e-17 0)
(0 -7.08899e-15 0 0 0 0 -7.0613e-16 -8.972e-17 0)
(-5.43445e-14 0 0 2.17378e-13 0 0 6.76653e-16 8.59747e-17 0)
(0 6.45214e-15 0 0 0 0 -1.28539e-15 -1.6332e-16 0)
(0 0 0 -1.95858e-13 -2.44823e-14 0 -6.09666e-16 -7.74634e-17 0)
(0 -5.79938e-15 0 1.8558e-13 0 0 1.73302e-15 2.20195e-16 0)
(-2.1955e-14 0 0 0 0 0 -5.46731e-16 -6.9467e-17 0)
(0 0 0 0 0 0 1.03362e-15 1.31331e-16 0)
(-5.87734e-14 -7.34668e-15 0 1.56729e-13 0 0 -4.87865e-16 -6.19876e-17 0)
(6.46313e-14 1.15413e-15 0 0 1.84661e-14 0 0 0 0)
(-1.7377e-14 -6.51638e-15 0 1.39016e-13 0 0 0 0 0)
(-5.30483e-14 -4.08064e-15 0 0 0 0 2.03235e-16 2.58228e-17 0)
(6.74222e-14 9.38411e-15 0 -2.44824e-13 0 0 1.42891e-16 1.81556e-17 0)
(3.90275e-15 -7.80549e-15 0 0 0 0 -9.71875e-17 -1.23485e-17 0)
(7.82009e-15 3.91004e-15 0 -2.50243e-13 0 0 -3.89477e-16 -4.94865e-17 0)
(-7.82436e-14 -9.78045e-16 0 -2.5038e-13 0 0 1.94845e-16 2.47568e-17 0)
(9.3947e-14 0 0 0 0 0 7.79833e-16 9.90847e-17 0)
(0 -1.95778e-15 0 0 3.13245e-14 0 2.9252e-16 3.71672e-17 0)
(4.69883e-14 1.95785e-15 0 0 3.13255e-14 0 8.77589e-16 1.11505e-16 0)
(-3.13206e-14 -5.87261e-15 0 -1.25282e-13 0 0 -4.87472e-16 -6.19377e-17 0)
(1.56557e-14 -1.95696e-15 0 0 -1.56557e-14 0 9.74658e-17 1.23839e-17 0)
(-3.13e-14 0 0 0 -1.565e-14 0 -3.89722e-16 -4.95176e-17 0)
(3.12893e-14 0 0 0 -1.56446e-14 0 7.79176e-16 9.90012e-17 0)
(0 0 0 0 -1.56419e-14 0 -4.86899e-16 -6.18648e-17 0)
(-6.25819e-14 9.77843e-15 0 -1.25164e-13 1.56455e-14 0 -6.81816e-16 -8.66308e-17 0)
(0 -3.89352e-15 0 0 -1.55741e-14 0 7.75662e-16 9.85547e-17 0)
(6.2249e-14 -3.89057e-15 0 -1.24498e-13 -1.55623e-14 0 -1.55015e-15 -1.9696e-16 0)
(0 0 0 -1.24667e-13 -1.55834e-14 0 0 0 0)
(9.38974e-14 7.82478e-15 0 -1.25196e-13 0 0 -7.79421e-16 -9.90324e-17 0)
(6.19034e-14 1.16069e-14 0 0 -3.09517e-14 0 2.40865e-17 3.06041e-18 0)
(-6.22259e-14 -1.55565e-14 0 1.24452e-13 1.55565e-14 0 -2.4212e-17 -3.07635e-18 0)
(3.1094e-14 7.77351e-15 0 0 -1.5547e-14 0 0 0 0)
(0 -7.82968e-15 0 1.25275e-13 1.56594e-14 0 7.7991e-16 9.90944e-17 0)
(1.91268e-13 0 0 -9.56342e-14 -1.19543e-14 0 -7.44224e-17 -9.45602e-18 0)
(0 0 0 1.49465e-13 1.86831e-14 0 9.30508e-16 1.18229e-16 0)
(0 0 0 -1.04433e-13 0 0 -9.75237e-16 -1.23912e-16 0)
(1.05343e-13 -1.31679e-14 0 0 -1.31679e-14 0 6.55822e-16 8.33279e-17 0)
(2.0919e-13 2.61488e-14 0 1.04595e-13 1.30744e-14 0 1.9535e-15 2.48209e-16 0)
(-1.02641e-13 -1.28302e-14 0 1.02641e-13 -1.28302e-14 0 1.278e-15 1.62382e-16 0)
(-9.98756e-14 0 0 -9.98756e-14 2.49689e-14 0 1.24357e-15 1.58006e-16 0)
(4.82986e-14 0 0 1.93194e-13 0 0 1.20275e-15 1.5282e-16 0)
(0 1.16273e-14 0 0 2.32545e-14 0 5.79092e-16 7.35788e-17 0)
(-4.47727e-14 -1.11932e-14 0 -1.79091e-13 0 0 -5.57472e-16 -7.08318e-17 0)
(0 5.38823e-15 0 -1.72423e-13 0 0 -5.36718e-16 -6.81948e-17 0)
(0 5.14021e-15 0 0 0 0 5.12013e-16 6.50558e-17 0)
(7.83133e-14 0 0 1.56627e-13 -1.95783e-14 0 0 0 0)
(0 0 0 1.48896e-13 0 0 -4.63484e-16 -5.88897e-17 0)
(-3.53309e-14 -4.41636e-15 0 0 0 0 -4.39911e-16 -5.58946e-17 0)
(-5.02204e-14 2.09251e-15 0 2.67842e-13 0 0 -4.16868e-16 -5.29668e-17 0)
(6.33468e-14 3.95917e-15 0 0 1.58367e-14 0 7.88742e-16 1.00217e-16 0)
(7.47771e-15 -3.73886e-15 0 1.19643e-13 1.49554e-14 0 -1.86213e-16 -2.36599e-17 0)
(-4.229e-14 2.64313e-15 0 -2.25547e-13 0 0 -3.5104e-16 -4.46027e-17 0)
(3.64664e-14 0 0 0 -2.6521e-14 0 6.60435e-16 8.39141e-17 0)
(-3.46181e-14 9.23798e-16 0 0 0 0 -3.19645e-16 -4.06137e-17 0)
(2.8588e-14 -4.36762e-15 0 4.06585e-13 0 0 7.9101e-17 1.00505e-17 0)
(2.22912e-14 9.55339e-15 0 2.03806e-13 0 0 -1.58601e-16 -2.01517e-17 0)
(-1.91291e-14 -3.18818e-15 0 0 0 0 -1.58786e-16 -2.01752e-17 0)
(9.57563e-14 3.19188e-15 0 0 0 0 -1.5897e-16 -2.01986e-17 0)
(-6.389e-14 -4.79175e-15 0 0 0 0 -4.77303e-16 -6.06456e-17 0)
(3.83547e-14 6.39245e-15 0 0 -2.55698e-14 0 -9.55121e-16 -1.21357e-16 0)
(-1.27889e-14 -7.99307e-15 0 0 -2.55778e-14 0 4.77711e-16 6.06974e-17 0)
(7.67448e-14 1.43897e-14 0 0 2.55816e-14 0 -1.5926e-16 -2.02354e-17 0)
(-7.67486e-14 -4.79679e-15 0 1.02331e-13 -1.27914e-14 0 2.38903e-16 3.03547e-17 0)
(1.2792e-14 -6.396e-15 0 -2.04672e-13 0 0 -7.96377e-17 -1.01187e-17 0)
(-2.55886e-14 -3.19858e-15 0 0 1.27943e-14 0 7.96521e-17 1.01205e-17 0)
(8.96108e-14 6.40077e-15 0 0 -1.28015e-14 0 3.18788e-16 4.05049e-17 0)
(-2.54951e-14 -6.37378e-15 0 0 1.27476e-14 0 -7.9361e-17 -1.00835e-17 0)
(-5.09667e-14 -3.18542e-15 0 0 -1.27417e-14 0 6.34595e-16 8.06309e-17 0)
(7.6574e-14 1.59529e-14 0 0 1.27623e-14 0 6.35624e-16 8.07616e-17 0)
(-7.69168e-14 -9.6146e-15 0 0 0 0 -6.3847e-16 -8.11232e-17 0)
(5.07247e-14 -3.17029e-15 0 1.01449e-13 1.26812e-14 0 0 0 0)
(5.09988e-14 3.18742e-15 0 0 0 0 0 0 0)
(-5.09788e-14 -3.18618e-15 0 0 1.27447e-14 0 1.26949e-15 1.613e-16 0)
(5.13553e-14 6.41941e-15 0 -1.02711e-13 -1.28388e-14 0 -1.27887e-15 -1.62491e-16 0)
(0 0 0 1.41072e-13 1.7634e-14 0 5.4891e-17 6.97439e-18 0)
(-1.47656e-13 -1.8457e-14 0 -2.21484e-13 -1.8457e-14 0 0 0 0)
(0 0 0 0 -9.70992e-15 0 0 0 0)
(0 0 0 0 0 0 0 0 0)
(-7.9029e-14 0 0 0 0 0 -1.96801e-15 -2.50053e-16 0)
(0 0 0 -1.56419e-13 -9.77617e-15 0 -9.73798e-16 -1.2373e-16 0)
(0 -9.59051e-15 0 0 -1.9181e-14 0 0 0 0)
(0 0 0 0 1.86926e-14 0 -9.30978e-16 -1.18289e-16 0)
(0 4.53113e-15 0 2.89992e-13 5.43735e-14 0 9.02685e-16 1.14694e-16 0)
(0 -4.38831e-15 0 0 0 0 8.74234e-16 1.11079e-16 0)
(1.01931e-13 1.69884e-14 0 -1.35907e-13 0 0 -4.23052e-16 -5.37525e-17 0)
(-1.95435e-13 -2.44293e-14 0 -1.3029e-13 0 0 0 0 0)
(1.55748e-13 1.55748e-14 0 -1.24598e-13 3.11496e-14 0 3.87849e-16 4.92797e-17 0)
(-1.48619e-13 -1.85773e-14 0 -2.3779e-13 -1.48619e-14 0 7.4019e-16 9.40477e-17 0)
(-2.83047e-14 -5.30714e-15 0 0 0 0 0 0 0)
(6.72479e-14 6.72479e-15 0 0 -1.34496e-14 0 -6.69852e-16 -8.51106e-17 0)
(-2.55114e-14 -1.59447e-15 0 -2.04092e-13 0 0 0 0 0)
(1.20725e-14 6.03624e-15 0 -9.65798e-14 -1.20725e-14 0 1.50316e-16 1.9099e-17 0)
(6.27073e-14 2.85033e-15 0 9.12107e-14 0 0 -4.2588e-16 -5.41118e-17 0)
(-4.29736e-14 -4.70024e-15 0 0 2.14868e-14 0 2.67536e-16 3.39928e-17 0)
(1.64118e-14 5.0498e-15 0 0 0 0 -2.43644e-16 -3.09571e-17 0)
(2.45014e-14 -1.28955e-15 0 -1.65062e-13 2.06328e-14 0 -2.56902e-16 -3.26417e-17 0)
(-4.91644e-14 -6.46901e-15 0 0 0 0 2.57749e-16 3.27493e-17 0)
(6.74059e-14 6.48133e-16 0 0 2.07403e-14 0 0 0 0)
(-7.79195e-14 -9.09061e-15 0 -1.66228e-13 -2.07785e-14 0 0 0 0)
(7.80335e-14 3.2514e-15 0 0 0 0 2.59096e-16 3.29204e-17 0)
(-3.1249e-14 -2.60409e-15 0 0 0 0 7.78174e-16 9.88739e-17 0)
(-2.0851e-14 0 0 0 0 0 0 0 0)
(4.17301e-14 -5.21626e-15 0 0 0 0 3.89692e-16 4.95137e-17 0)
(-2.08764e-14 -7.82864e-15 0 8.35055e-14 2.08764e-14 0 -1.29968e-16 -1.65135e-17 0)
(7.31042e-14 6.52716e-15 0 8.35476e-14 0 0 -1.30033e-16 -1.65219e-17 0)
(-4.17994e-14 -1.30623e-15 0 -8.35987e-14 1.04498e-14 0 -2.60226e-16 -3.3064e-17 0)
(6.27595e-14 -7.84493e-15 0 -8.36793e-14 -1.04599e-14 0 -6.51191e-17 -8.27395e-18 0)
(-2.08403e-14 2.60503e-15 0 8.33611e-14 0 0 -2.59486e-16 -3.297e-17 0)
(2.08381e-14 -3.90714e-15 0 0 0 0 -6.48647e-17 -8.24163e-18 0)
(0 -2.60981e-15 0 0 0 0 4.54933e-16 5.78032e-17 0)
(2.09777e-14 5.24443e-15 0 0 -1.04889e-14 0 5.55044e-16 7.05232e-17 0)
(2.07593e-14 -5.18982e-15 0 -8.30371e-14 1.03796e-14 0 3.23097e-17 4.10523e-18 0)
(-1.04381e-13 0 0 0 -1.04381e-14 0 -5.19868e-16 -6.60538e-17 0)
(0 -2.60919e-15 0 0 0 0 -5.19799e-16 -6.60451e-17 0)
(0 -1.05158e-14 0 8.41264e-14 1.05158e-14 0 1.04747e-15 1.33091e-16 0)
(-1.03105e-13 -1.28882e-14 0 1.03105e-13 1.28882e-14 0 0 0 0)
(1.08394e-13 1.35493e-14 0 -1.08394e-13 3.38733e-15 0 0 0 0)
(1.14485e-13 0 0 1.14485e-13 7.15532e-15 0 -7.12737e-16 -9.05595e-17 0)
(5.85989e-14 7.32486e-15 0 -1.75797e-13 -1.46497e-14 0 1.45925e-15 1.8541e-16 0)
(1.18307e-13 7.39418e-15 0 1.18307e-13 1.47884e-14 0 -7.3653e-16 -9.35826e-17 0)
(-5.90456e-14 0 0 0 1.47614e-14 0 7.35187e-16 9.3412e-17 0)
(5.84155e-14 7.30194e-15 0 1.16831e-13 0 0 -7.27341e-16 -9.24151e-17 0)
(-5.73848e-14 -7.1731e-15 0 -1.1477e-13 -1.43462e-14 0 7.14508e-16 9.07845e-17 0)
(0 -7.00661e-15 0 -1.12106e-13 -2.80264e-14 0 -6.97924e-16 -8.86774e-17 0)
(-2.7321e-14 0 0 0 -1.36605e-14 0 -2.04107e-15 -2.59336e-16 0)
(7.97829e-14 9.97287e-15 0 0 0 0 6.62261e-16 8.41461e-17 0)
(5.12687e-14 6.40859e-15 0 0 2.56344e-14 0 -6.38355e-16 -8.11087e-17 0)
(-7.38992e-14 -3.07913e-15 0 -9.85323e-14 0 0 3.06711e-16 3.89703e-17 0)
(-4.72112e-14 -2.9507e-15 0 9.44224e-14 2.36056e-14 0 5.87835e-16 7.46896e-17 0)
(6.76888e-14 2.82037e-15 0 0 1.12815e-14 0 0 0 0)
(-8.60527e-14 2.68915e-15 0 -8.60527e-14 -1.07566e-14 0 5.35729e-16 6.80691e-17 0)
(-1.02313e-14 -8.95237e-15 0 0 1.02313e-14 0 -5.09566e-16 -6.47448e-17 0)
(1.94161e-14 1.2135e-15 0 7.76642e-14 9.70803e-15 0 -2.41753e-16 -3.07168e-17 0)
(1.83781e-14 -1.14863e-15 0 0 0 0 0 0 0)
(-6.94093e-14 2.16904e-15 0 1.38819e-13 0 0 0 0 0)
(-1.22561e-14 -1.27668e-15 0 1.30732e-13 0 0 -4.06942e-16 -5.17056e-17 0)
(3.9936e-14 7.21066e-15 0 -1.33642e-13 0 0 0 0 0)
(-2.30664e-14 5.24237e-16 0 0 0 0 4.6997e-16 5.97139e-17 0)
(-3.36443e-14 -4.20554e-15 0 0 0 0 -1.04728e-16 -1.33066e-17 0)
(4.63839e-14 7.37925e-15 0 1.34935e-13 0 0 -1.05006e-16 -1.33419e-17 0)
(-6.76175e-14 -6.33914e-15 0 0 1.69044e-14 0 -3.15719e-16 -4.01149e-17 0)
(3.38714e-14 6.88014e-15 0 0 0 0 0 0 0)
(-6.78477e-14 0 0 1.35695e-13 0 0 -2.11196e-16 -2.68343e-17 0)
(8.492e-15 -9.5535e-15 0 -1.35872e-13 0 0 2.11471e-16 2.68692e-17 0)
(-4.2508e-14 2.1254e-15 0 0 1.70032e-14 0 2.1171e-16 2.68996e-17 0)
(-4.25528e-14 -2.12764e-15 0 -6.80845e-14 0 0 -2.11933e-16 -2.69279e-17 0)
(1.19282e-13 3.19505e-15 0 0 -8.52012e-15 0 0 0 0)
(-1.02389e-13 1.06655e-15 0 1.36518e-13 0 0 1.06238e-16 1.34985e-17 0)
(-4.25208e-14 -7.44114e-15 0 -6.80333e-14 -8.50416e-15 0 2.11774e-16 2.69077e-17 0)
(5.10414e-14 0 0 0 8.5069e-15 0 -3.17763e-16 -4.03746e-17 0)
(2.55799e-14 4.26331e-15 0 -6.8213e-14 0 0 -2.12333e-16 -2.69788e-17 0)
(1.71399e-14 4.28497e-15 0 0 -8.56995e-15 0 0 0 0)
(1.69691e-14 0 0 0 0 0 -5.28213e-17 -6.71141e-18 0)
(0 -6.40105e-15 0 6.82778e-14 0 0 4.78203e-16 6.07599e-17 0)
(3.4145e-14 0 0 0 0 0 0 0 0)
(0 8.60286e-15 0 -6.88228e-14 -8.60286e-15 0 -4.28463e-16 -5.44399e-17 0)
(0 9.33771e-15 0 0 0 0 0 0 0)
(0 0 0 -7.88649e-14 -2.21808e-14 0 0 0 0)
(0 0 0 1.67204e-13 2.61256e-14 0 0 0 0)
(0 1.07741e-14 0 -8.61931e-14 -1.07741e-14 0 -5.36603e-16 -6.81801e-17 0)
(-8.77214e-14 -1.09652e-14 0 -4.38607e-14 0 0 0 0 0)
(8.83186e-14 5.51991e-15 0 -8.83186e-14 1.10398e-14 0 0 0 0)
(0 5.50818e-15 0 -8.81308e-14 2.20327e-14 0 5.48666e-16 6.97129e-17 0)
(-4.36477e-14 0 0 1.74591e-13 -1.09119e-14 0 -1.08693e-15 -1.38104e-16 0)
(4.29669e-14 0 0 -8.59338e-14 -1.07417e-14 0 5.34988e-16 6.7975e-17 0)
(-4.21787e-14 5.27234e-15 0 8.43575e-14 0 0 2.62587e-15 3.3364e-16 0)
(0 -7.74615e-15 0 0 0 0 0 0 0)
(-2.00299e-14 5.00748e-15 0 0 1.0015e-14 0 9.97583e-16 1.26752e-16 0)
(0 -2.41882e-15 0 0 0 0 -2.40937e-15 -3.06131e-16 0)
(0 -2.32896e-15 0 -7.45268e-14 -9.31585e-15 0 9.27946e-16 1.17904e-16 0)
(0 -6.7065e-15 0 0 0 0 -4.45354e-16 -5.65861e-17 0)
(8.55792e-15 -4.27896e-15 0 0 8.55792e-15 0 0 0 0)
(-2.45011e-14 1.02088e-15 0 1.30672e-13 8.16702e-15 0 0 0 0)
(2.33165e-14 1.94304e-15 0 0 0 0 0 0 0)
(4.42557e-14 0 0 0 0 0 0 0 0)
(-2.44317e-14 -2.61768e-15 0 -1.11688e-13 -1.39609e-14 0 0 0 0)
(0 2.0586e-15 0 0 0 0 0 0 0)
(-8.00404e-15 -1.47443e-15 0 0 0 0 2.0981e-17 2.66582e-18 0)
(-3.30323e-14 6.35236e-16 0 0 1.35517e-14 0 2.95285e-16 3.75186e-17 0)
(-1.7004e-14 -3.8259e-15 0 0 0 0 -2.54064e-16 -3.22811e-17 0)
(-6.14356e-14 -1.27991e-15 0 -1.09219e-13 0 0 -2.54982e-16 -3.23977e-17 0)
(6.84748e-15 0 0 1.0956e-13 0 0 1.70518e-16 2.16659e-17 0)
(-3.08968e-14 -4.29122e-16 0 0 0 0 2.56467e-16 3.25865e-17 0)
(1.3764e-14 0 0 0 0 0 -1.71378e-16 -2.17751e-17 0)
(-6.89607e-15 8.62009e-16 0 1.10337e-13 0 0 -3.43457e-16 -4.36392e-17 0)
(4.83607e-14 -2.59075e-15 0 -1.10539e-13 0 0 1.72042e-16 2.18595e-17 0)
(4.84431e-14 5.19034e-15 0 0 0 0 3.44671e-16 4.37935e-17 0)
(-4.85271e-14 -8.66555e-16 0 5.54595e-14 1.38649e-14 0 -1.72634e-16 -2.19347e-17 0)
(-6.94633e-15 1.73658e-15 0 0 -6.94633e-15 0 -1.7298e-16 -2.19786e-17 0)
(4.15647e-14 3.46373e-15 0 -5.54196e-14 -1.38549e-14 0 -1.7251e-16 -2.19189e-17 0)
(3.4666e-14 6.06655e-15 0 0 -6.93321e-15 0 3.45306e-16 4.38742e-17 0)
(-1.39048e-14 -8.69051e-15 0 0 6.95241e-15 0 -3.46263e-16 -4.39957e-17 0)
(-4.19428e-14 1.74762e-15 0 -5.59238e-14 -6.99047e-15 0 8.70396e-17 1.10591e-17 0)
(8.30946e-14 1.73114e-15 0 -5.53964e-14 0 0 -1.29328e-16 -1.64323e-17 0)
(-6.9678e-14 1.74195e-15 0 0 0 0 4.33787e-17 5.51164e-18 0)
(-1.39433e-14 6.97165e-15 0 -5.57732e-14 -6.97165e-15 0 3.47221e-16 4.41175e-17 0)
(5.62235e-14 7.02793e-15 0 -5.62235e-14 0 0 -3.50024e-16 -4.44736e-17 0)
(0 0 0 0 0 0 0 0 0)
(0 -7.1119e-15 0 4.26714e-14 2.13357e-14 0 -3.54206e-16 -4.5005e-17 0)
(6.05216e-14 7.5652e-15 0 3.02608e-14 -7.5652e-15 0 1.13035e-15 1.43621e-16 0)
(-6.28209e-14 -7.85262e-15 0 -1.57052e-13 -2.74842e-14 0 1.17329e-15 1.49077e-16 0)
(6.44408e-14 0 0 6.44408e-14 -8.0551e-15 0 0 0 0)
(3.27152e-14 4.0894e-15 0 6.54305e-14 1.63576e-14 0 0 0 0)
(0 -4.11594e-15 0 0 0 0 -1.22996e-15 -1.56277e-16 0)
(0 0 0 0 0 0 3.27626e-15 4.16277e-16 0)
(-3.26388e-14 0 0 -6.52777e-14 0 0 -1.21918e-15 -1.54907e-16 0)
(0 -4.03445e-15 0 -1.29102e-13 -8.0689e-15 0 -8.03738e-16 -1.02122e-16 0)
(3.18228e-14 0 0 6.36455e-14 7.95569e-15 0 -7.92462e-16 -1.00689e-16 0)
(-3.10567e-14 -3.88209e-15 0 -1.24227e-13 0 0 -1.16008e-15 -1.47398e-16 0)
(0 0 0 1.20714e-13 0 0 1.50303e-15 1.90973e-16 0)
(-1.46051e-14 5.4769e-15 0 0 0 0 0 0 0)
(2.817e-14 3.52125e-15 0 5.634e-14 0 0 -3.50749e-16 -4.45658e-17 0)
(-4.06103e-14 -1.01526e-14 0 0 6.76839e-15 0 6.74195e-16 8.56625e-17 0)
(5.18682e-14 2.43132e-15 0 -5.18682e-14 0 0 -1.13019e-15 -1.436e-16 0)