/*--------------------------------*- C++ -*----------------------------------*\
| =========                 |                                                 |
| \\      /  F ield         | OpenFOAM: The Open Source CFD Toolbox           |
|  \\    /   O peration     | Version:  5.x                                   |
|   \\  /    A nd           | Web:      www.OpenFOAM.org                      |
|    \\/     M anipulation  |                                                 |
\*---------------------------------------------------------------------------*/
FoamFile
{
    version     2.0;
    format      ascii;
    class       volVectorField;
    location    "0";
    object      wallShearStress;
}
// * * * * * * * * * * * * * * * * * * * * * * * * * * * * * * * * * * * * * //

dimensions      [0 2 -2 0 0 0 0];

internalField   uniform (0 0 0);

boundaryField
{
    inlet
    {
        type            calculated;
        value           uniform (0 0 0);
    }
    outlet
    {
        type            calculated;
        value           uniform (0 0 0);
    }
    walls
    {
        type            calculated;
        value           nonuniform List<vector> 
204
(
(-0.00515908 -0.00102008 9.69334e-27)
(-0.00512307 -0.00102541 -9.13925e-27)
(-0.00508272 -0.000993653 -3.81977e-23)
(-0.00500549 -0.000903368 -8.26602e-23)
(-0.00484559 -0.000710912 -4.85372e-22)
(-0.0047357 -0.000599605 1.60115e-22)
(-0.00467381 -0.000585169 1.44603e-22)
(-0.00461417 -0.000570755 0)
(-0.00456408 -0.000571744 -4.31084e-26)
(-0.0045217 -0.000583269 -3.76425e-26)
(-0.00448606 -0.000602566 -3.4462e-26)
(-0.00445522 -0.000625962 2.55144e-22)
(-0.00442945 -0.000653344 1.48568e-22)
(-0.00440692 -0.00068185 -1.40222e-22)
(-0.00438756 -0.000711238 -1.20822e-22)
(-0.00437172 -0.000742073 1.10414e-22)
(-0.00435744 -0.000771621 3.62364e-26)
(-0.00434652 -0.000802604 0)
(-0.00433726 -0.000832789 -3.18109e-22)
(-0.00432922 -0.000861685 -6.81211e-23)
(-0.0043242 -0.000892091 0)
(-0.00431977 -0.000920743 0)
(-0.00431694 -0.000949261 -1.33216e-22)
(-0.00431624 -0.000978602 3.80694e-23)
(-0.00431556 -0.00100597 9.66775e-23)
(-0.0043167 -0.00103406 1.02558e-22)
(-0.00431912 -0.00106227 -2.07396e-23)
(-0.00432133 -0.00108873 1.56096e-23)
(-0.00432543 -0.00111642 -1.05114e-23)
(-0.00432985 -0.00114337 -1.90815e-23)
(-0.00433422 -0.0011692 6.49394e-24)
(-0.0043403 -0.00119635 0)
(-0.00434609 -0.00122229 1.67064e-23)
(-0.00435216 -0.00124787 -3.24209e-27)
(-0.00435924 -0.0012741 4.47039e-27)
(-0.00436564 -0.00129893 3.05663e-23)
(-0.00437278 -0.00132418 -1.78559e-23)
(-0.00438025 -0.00134941 -4.18694e-23)
(-0.00438706 -0.00137348 8.50159e-27)
(-0.00439468 -0.0013982 2.54133e-23)
(-0.00440185 -0.0014221 -1.02659e-26)
(-0.00440888 -0.00144559 0)
(-0.00441625 -0.00146925 0)
(-0.00442292 -0.00149193 1.67916e-23)
(-0.00442983 -0.00151469 0)
(-0.00443634 -0.00153686 7.39897e-23)
(-0.00444251 -0.00155851 2.8497e-23)
(-0.00444869 -0.00158 9.91016e-24)
(-0.00445428 -0.00160075 0)
(-0.00445975 -0.00162121 0)
(-0.00446487 -0.00164115 1.60785e-23)
(-0.00446952 -0.00166048 1.5988e-26)
(-0.00447523 -0.00167919 4.15348e-23)
(-0.00447671 -0.00169249 4.26372e-23)
(-0.00447417 -0.00170197 8.72308e-23)
(-0.00447371 -0.00171305 -8.93979e-23)
(-0.00446954 -0.00172069 1.21103e-22)
(-0.00446254 -0.00172571 1.12523e-26)
(-0.00445675 -0.00173163 -3.11097e-23)
(-0.00445012 -0.00173668 3.14744e-23)
(-0.0044436 -0.00174169 -0)
(-0.0044366 -0.00174615 6.45143e-23)
(-0.00442897 -0.00174995 -1.1939e-26)
(-0.00442163 -0.00175387 -6.58548e-23)
(-0.00441342 -0.00175694 -1.21837e-26)
(-0.00440504 -0.00175975 6.6987e-23)
(-0.00439671 -0.00176248 6.19322e-27)
(-0.00438758 -0.00176446 -0)
(-0.00437889 -0.00176666 6.85448e-23)
(-0.00436957 -0.00176825 -0)
(-0.00435988 -0.00176945 6.93923e-23)
(-0.00435056 -0.00177082 2.79951e-22)
(-0.00434036 -0.0017714 -0)
(-0.00433068 -0.00177227 -6.45649e-27)
(-0.0043205 -0.00177265 6.5365e-27)
(-0.0043101 -0.00177276 6.51194e-27)
(-0.00430008 -0.00177304 -1.43689e-22)
(-0.00428924 -0.00177262 5.76502e-22)
(-0.00427912 -0.00177261 -0)
(-0.00426822 -0.00177193 -0)
(-0.00425785 -0.00177152 -4.34355e-22)
(-0.00424714 -0.00177076 4.42069e-22)
(-0.00423641 -0.00176988 -4.36417e-22)
(-0.00422595 -0.00176908 -6.77705e-27)
(-0.00421511 -0.00176791 3.3555e-27)
(-0.00420482 -0.00176701 -1.48818e-22)
(-0.00419402 -0.00176565 2.949e-22)
(-0.00418386 -0.0017646 -0)
(-0.00417325 -0.00176315 3.38579e-27)
(-0.00416311 -0.00176188 1.51384e-22)
(-0.00415303 -0.00176054 -0)
(-0.00414291 -0.00175906 3.45656e-27)
(-0.00413345 -0.00175788 -5.16695e-27)
(-0.00412348 -0.00175625 1.71812e-27)
(-0.00411407 -0.00175486 -3.0468e-22)
(-0.00410506 -0.00175358 1.5212e-22)
(-0.0040959 -0.00175208 -4.52768e-22)
(-0.00408716 -0.00175071 6.08104e-22)
(-0.00407878 -0.00174942 1.74831e-27)
(-0.00407052 -0.00174806 -4.6178e-22)
(-0.00406253 -0.00174672 3.05701e-22)
(-0.00405505 -0.00174553 -1.25228e-21)
(-0.00534199 -0.00148185 2.17236e-22)
(-0.00527479 -0.00153564 -4.24097e-22)
(-0.00530399 -0.00175287 4.36061e-26)
(-0.00530911 -0.00190323 -6.77695e-22)
(-0.00531777 -0.00203105 6.69874e-22)
(-0.00533103 -0.00213571 -6.21015e-22)
(-0.00534507 -0.00221503 7.4149e-26)
(-0.00535901 -0.00227203 0)
(-0.00536943 -0.00230862 0)
(-0.00537667 -0.00232916 -1.6804e-22)
(-0.00537888 -0.00233617 -3.09137e-22)
(-0.0053768 -0.00233295 1.50096e-22)
(-0.00536981 -0.00232158 5.3846e-22)
(-0.00535863 -0.00230421 -3.93843e-22)
(-0.00534417 -0.00228257 1.76132e-25)
(-0.00532696 -0.00225792 -1.11302e-22)
(-0.00530819 -0.00223138 4.29087e-22)
(-0.00528718 -0.00220345 0)
(-0.00526475 -0.00217482 -1.39688e-22)
(-0.00524217 -0.00214609 0)
(-0.00521876 -0.0021174 7.91214e-23)
(-0.00519518 -0.00208907 1.55446e-22)
(-0.00517128 -0.00206124 0)
(-0.00514701 -0.00203402 0)
(-0.0051239 -0.00200757 -9.55316e-23)
(-0.00510033 -0.00198184 -2.92379e-23)
(-0.00507655 -0.0019569 2.79691e-23)
(-0.00505411 -0.00193276 0)
(-0.00503096 -0.00190941 3.55015e-26)
(-0.00500819 -0.00188684 -3.45728e-26)
(-0.00498599 -0.00186499 1.09365e-23)
(-0.00496285 -0.00184395 0)
(-0.00494101 -0.00182352 4.93925e-24)
(-0.00491858 -0.00180382 -6.87945e-24)
(-0.00489552 -0.00178485 -5.49539e-25)
(-0.00487367 -0.00176634 3.09238e-24)
(-0.0048504 -0.0017486 2.27924e-26)
(-0.00482767 -0.00173134 -1.12966e-23)
(-0.00480472 -0.00171463 -2.06718e-26)
(-0.00478053 -0.00169864 2.02769e-23)
(-0.00475742 -0.00168289 -1.93235e-23)
(-0.00473271 -0.0016679 8.89434e-27)
(-0.00470829 -0.00165325 -1.17763e-23)
(-0.00468341 -0.00163908 1.11079e-23)
(-0.00465739 -0.00162558 4.28817e-23)
(-0.00463202 -0.0016122 -7.49375e-27)
(-0.00460497 -0.00159966 -5.88679e-23)
(-0.00457853 -0.0015872 1.89307e-23)
(-0.00455076 -0.00157547 -3.62281e-23)
(-0.00452305 -0.00156399 6.45708e-27)
(-0.0044946 -0.00155305 6.17655e-27)
(-0.00446454 -0.00154309 -6.06325e-27)
(-0.0044389 -0.00153343 3.94676e-23)
(-0.00441798 -0.00152389 5.84214e-23)
(-0.0043968 -0.00151491 3.84579e-23)
(-0.00437727 -0.0015054 6.88168e-27)
(-0.00435912 -0.00149538 -1.35863e-26)
(-0.00434057 -0.00148587 6.65677e-27)
(-0.00432156 -0.00147691 5.36035e-23)
(-0.00430286 -0.001468 0)
(-0.00428416 -0.00145936 6.92805e-23)
(-0.00426521 -0.00145115 -5.12697e-23)
(-0.00424665 -0.00144288 6.16664e-27)
(-0.0042279 -0.001435 -1.21759e-26)
(-0.00420917 -0.00142734 -1.64e-23)
(-0.00419069 -0.00141971 -5.93515e-27)
(-0.004172 -0.00141247 8.81392e-27)
(-0.00415355 -0.00140525 -2.89776e-27)
(-0.00413511 -0.00139823 0)
(-0.00411664 -0.00139147 1.55191e-23)
(-0.00409839 -0.00138468 2.81383e-27)
(-0.00408009 -0.00137818 -4.58799e-23)
(-0.00406192 -0.00137174 4.51527e-23)
(-0.00404384 -0.0013654 2.74937e-27)
(-0.00402576 -0.00135928 -2.71855e-27)
(-0.00400786 -0.00135314 0)
(-0.00398998 -0.00134719 -1.4699e-23)
(-0.00397222 -0.00134129 1.44628e-23)
(-0.00395454 -0.00133547 0)
(-0.00393694 -0.00132977 -4.27866e-23)
(-0.00391945 -0.00132409 -5.71192e-23)
(-0.00390204 -0.0013185 -5.65351e-23)
(-0.00388473 -0.00131296 -1.40565e-23)
(-0.00386752 -0.00130746 1.40074e-23)
(-0.00385039 -0.00130201 1.38429e-23)
(-0.00383337 -0.00129658 5.54499e-23)
(-0.00381644 -0.0012912 0)
(-0.0037996 -0.00128581 -1.25356e-27)
(-0.00378285 -0.00128047 1.23558e-27)
(-0.00376621 -0.0012751 -4.04451e-23)
(-0.00374964 -0.00126977 -1.33921e-23)
(-0.00373317 -0.0012644 0)
(-0.00371678 -0.00125904 -1.22471e-27)
(-0.00370049 -0.00125365 -1.29399e-23)
(-0.00368427 -0.00124824 3.90169e-23)
(-0.00366814 -0.00124281 1.30453e-23)
(-0.00365209 -0.00123733 5.1142e-23)
(-0.00363611 -0.00123181 0)
(-0.00362021 -0.00122625 1.2603e-23)
(-0.00360438 -0.00122063 -1.44077e-28)
(-0.00358862 -0.00121495 3.67629e-23)
(-0.00357293 -0.00120921 7.50274e-23)
)
;
    }
    frontAndBack
    {
        type            empty;
    }
}


// ************************************************************************* //
