/*--------------------------------*- C++ -*----------------------------------*\
| =========                 |                                                 |
| \\      /  F ield         | OpenFOAM: The Open Source CFD Toolbox           |
|  \\    /   O peration     | Version:  5.x                                   |
|   \\  /    A nd           | Web:      www.OpenFOAM.org                      |
|    \\/     M anipulation  |                                                 |
\*---------------------------------------------------------------------------*/
FoamFile
{
    version     2.0;
    format      ascii;
    class       volVectorField;
    location    "0";
    object      wallShearStress;
}
// * * * * * * * * * * * * * * * * * * * * * * * * * * * * * * * * * * * * * //

dimensions      [0 2 -2 0 0 0 0];

internalField   uniform (0 0 0);

boundaryField
{
    inlet
    {
        type            calculated;
        value           uniform (0 0 0);
    }
    outlet
    {
        type            calculated;
        value           uniform (0 0 0);
    }
    walls
    {
        type            calculated;
        value           nonuniform List<vector> 
204
(
(-0.000447535 -0.000165595 8.36518e-28)
(-0.00044468 -0.000165444 -7.90638e-28)
(-0.000440665 -0.00016224 -3.28885e-24)
(-0.000432261 -0.000154035 -6.99919e-24)
(-0.000414084 -0.000139013 -3.89801e-23)
(-0.00040088 -0.000134641 1.19349e-23)
(-0.000395166 -0.00013357 1.06291e-23)
(-0.000389012 -0.000134831 0)
(-0.000384005 -0.000137387 -2.89643e-27)
(-0.000379929 -0.000140667 -2.40317e-27)
(-0.000376623 -0.00014451 -2.0758e-27)
(-0.000373888 -0.000148447 1.44139e-23)
(-0.000371699 -0.000152635 7.78035e-24)
(-0.000369874 -0.000156696 -6.73135e-24)
(-0.000368384 -0.000160682 -5.22808e-24)
(-0.000367247 -0.000164725 4.18756e-24)
(-0.000366273 -0.000168462 1.16726e-27)
(-0.000365623 -0.000172313 0)
(-0.000365133 -0.00017598 -5.73119e-24)
(-0.000364754 -0.000179417 -6.54388e-25)
(-0.000364661 -0.000183012 0)
(-0.000364616 -0.000186337 0)
(-0.000364717 -0.000189615 3.63985e-24)
(-0.000365019 -0.000192972 -1.76289e-24)
(-0.00036531 -0.000196053 -6.74136e-24)
(-0.000365773 -0.000199206 -1.04932e-23)
(-0.000366353 -0.000202352 3.10737e-24)
(-0.000366903 -0.000205264 -3.44141e-24)
(-0.000367633 -0.000208309 3.70336e-24)
(-0.00036839 -0.000211246 1.2485e-23)
(-0.000369135 -0.000214031 -1.30622e-23)
(-0.000370048 -0.000216957 0)
(-0.000370926 -0.00021972 1.48032e-23)
(-0.00037183 -0.000222425 -1.85114e-27)
(-0.000372833 -0.000225186 1.93821e-27)
(-0.000373767 -0.000227765 1.10147e-23)
(-0.000374775 -0.000230375 -5.5806e-24)
(-0.000375817 -0.000232962 -1.16909e-23)
(-0.000376792 -0.000235396 2.17154e-27)
(-0.000377853 -0.000237884 6.01239e-24)
(-0.000378868 -0.000240258 -2.27829e-27)
(-0.000379873 -0.000242566 0)
(-0.000380915 -0.00024487 0)
(-0.000381889 -0.000247042 3.21911e-24)
(-0.000382891 -0.000249201 0)
(-0.000383858 -0.000251272 1.31914e-23)
(-0.000384794 -0.000253263 4.92615e-24)
(-0.000385734 -0.000255213 1.66517e-24)
(-0.00038662 -0.000257059 0)
(-0.000387498 -0.00025885 0)
(-0.000388344 -0.000260562 2.51489e-24)
(-0.000389147 -0.000262183 2.45031e-27)
(-0.000390028 -0.000263762 6.25004e-24)
(-0.000390456 -0.000264786 6.32944e-24)
(-0.000390483 -0.000265389 1.28099e-23)
(-0.000390716 -0.000266161 -1.29792e-23)
(-0.000390578 -0.000266556 1.74217e-23)
(-0.000390157 -0.000266668 1.60655e-27)
(-0.000389856 -0.000266874 -4.40683e-24)
(-0.00038947 -0.000266984 4.42612e-24)
(-0.000389094 -0.000267086 -0)
(-0.000388669 -0.000267128 8.94731e-24)
(-0.000388179 -0.000267097 -1.64535e-27)
(-0.000387718 -0.000267077 -9.01876e-24)
(-0.000387169 -0.000266965 -1.65889e-27)
(-0.000386601 -0.000266823 9.06961e-24)
(-0.000386038 -0.000266672 8.33908e-28)
(-0.000385394 -0.000266439 -0)
(-0.000384792 -0.000266229 9.13497e-24)
(-0.000384126 -0.000265954 -0)
(-0.000383424 -0.000265636 9.16054e-24)
(-0.000382756 -0.000265335 3.67842e-23)
(-0.000381999 -0.000264951 -0)
(-0.000381293 -0.000264596 -8.40992e-28)
(-0.000380536 -0.000264189 8.47876e-28)
(-0.000379755 -0.000263754 8.41294e-28)
(-0.000379011 -0.000263336 -1.8488e-23)
(-0.000378185 -0.000262845 7.3898e-23)
(-0.000377428 -0.000262396 -0)
(-0.000376593 -0.000261878 -0)
(-0.000375807 -0.000261388 -5.50542e-23)
(-0.000374987 -0.000260862 5.58328e-23)
(-0.000374163 -0.000260323 -5.49267e-23)
(-0.000373364 -0.000259793 -8.49958e-28)
(-0.000372526 -0.000259225 4.19429e-28)
(-0.000371741 -0.000258685 -1.8538e-23)
(-0.000370903 -0.000258098 3.66159e-23)
(-0.000370125 -0.000257544 -0)
(-0.000369303 -0.000256949 4.17651e-28)
(-0.000368523 -0.000256374 1.86133e-23)
(-0.000367748 -0.000255792 -0)
(-0.000366966 -0.000255197 4.22309e-28)
(-0.000366247 -0.000254632 -6.29237e-28)
(-0.000365475 -0.000254025 2.08595e-28)
(-0.000364756 -0.000253441 -3.68751e-23)
(-0.000364074 -0.00025287 1.83528e-23)
(-0.000363374 -0.000252279 -5.44574e-23)
(-0.000362712 -0.000251701 7.29142e-23)
(-0.000362083 -0.000251132 2.08977e-28)
(-0.000361463 -0.000250559 -5.5027e-23)
(-0.000360865 -0.000249989 3.63163e-23)
(-0.000360314 -0.000249436 -1.48304e-22)
(-0.00047131 -0.000210413 2.00384e-23)
(-0.000466505 -0.000215203 -3.95196e-23)
(-0.000471979 -0.000239109 4.18508e-27)
(-0.000474133 -0.000256843 -6.65404e-23)
(-0.000476021 -0.00027308 6.72335e-23)
(-0.000477793 -0.000287515 -6.36798e-23)
(-0.000479181 -0.000299554 7.76168e-27)
(-0.000480212 -0.000309311 0)
(-0.000480682 -0.000316748 0)
(-0.0004807 -0.000322266 -1.86345e-23)
(-0.00048017 -0.000326027 -3.49009e-23)
(-0.000479206 -0.000328388 1.72434e-23)
(-0.000477789 -0.000329539 6.29116e-23)
(-0.000476007 -0.000329736 -4.67758e-23)
(-0.000473954 -0.000329202 2.12564e-26)
(-0.000471687 -0.000328094 -1.36445e-23)
(-0.000469313 -0.000326582 5.34208e-23)
(-0.000466782 -0.000324709 0)
(-0.000464166 -0.000322584 -1.79186e-23)
(-0.000461569 -0.000320324 0)
(-0.000458938 -0.000317932 1.04498e-23)
(-0.000456327 -0.000315472 2.08264e-23)
(-0.000453723 -0.000312963 0)
(-0.000451122 -0.000310422 0)
(-0.000448643 -0.000307926 -1.33471e-23)
(-0.000446158 -0.000305422 -4.14114e-24)
(-0.000443685 -0.000302932 4.01481e-24)
(-0.000441344 -0.000300513 0)
(-0.000438973 -0.000298102 5.23427e-27)
(-0.000436656 -0.000295739 -5.16435e-27)
(-0.000434405 -0.00029343 1.65512e-24)
(-0.000432104 -0.000291137 0)
(-0.000429923 -0.000288916 7.66558e-25)
(-0.000427715 -0.000286721 -1.08083e-24)
(-0.000425476 -0.000284555 -8.73511e-26)
(-0.000423345 -0.000282452 4.97522e-25)
(-0.000421121 -0.000280361 3.70761e-27)
(-0.000418952 -0.000278318 -1.8581e-24)
(-0.000416779 -0.000276307 -3.43676e-27)
(-0.000414524 -0.000274315 3.40355e-24)
(-0.000412361 -0.000272368 -3.27647e-24)
(-0.000410088 -0.000270438 1.52113e-27)
(-0.000407846 -0.00026854 -2.03134e-24)
(-0.000405578 -0.000266667 1.93122e-24)
(-0.000403234 -0.000264817 7.50425e-24)
(-0.000400944 -0.000262994 -1.32044e-27)
(-0.000398538 -0.000261194 -1.04232e-23)
(-0.000396183 -0.000259417 3.36931e-24)
(-0.000393737 -0.000257666 -6.46964e-24)
(-0.000391301 -0.000255936 1.15667e-27)
(-0.000388818 -0.000254232 1.10844e-27)
(-0.000386225 -0.000252568 -1.08732e-27)
(-0.000383991 -0.00025105 7.0872e-24)
(-0.000382134 -0.00024967 1.05318e-23)
(-0.000380269 -0.00024833 6.95292e-24)
(-0.000378524 -0.00024699 1.25017e-27)
(-0.000376878 -0.000245642 -2.48473e-27)
(-0.000375211 -0.000244326 1.22436e-27)
(-0.000373518 -0.000243045 9.90353e-24)
(-0.000371852 -0.000241776 0)
(-0.00037019 -0.00024053 1.29153e-23)
(-0.000368518 -0.000239314 -9.58995e-24)
(-0.000366876 -0.000238103 1.15784e-27)
(-0.000365226 -0.000236921 -2.29296e-27)
(-0.000363582 -0.000235758 -3.0964e-24)
(-0.000361958 -0.000234604 -1.12368e-27)
(-0.000360326 -0.000233479 1.67176e-27)
(-0.000358713 -0.000232362 -5.50725e-28)
(-0.000357106 -0.000231262 0)
(-0.0003555 -0.000230184 2.95739e-24)
(-0.000353913 -0.00022911 5.36915e-28)
(-0.000352325 -0.000228058 -8.76038e-24)
(-0.00035075 -0.000227016 8.62702e-24)
(-0.000349185 -0.000225986 5.25563e-28)
(-0.000347623 -0.000224974 -5.197e-28)
(-0.000346076 -0.000223965 0)
(-0.000344533 -0.000222974 -2.80999e-24)
(-0.000343001 -0.000221989 2.76425e-24)
(-0.000341478 -0.000221015 0)
(-0.000339963 -0.000220052 -8.17078e-24)
(-0.000338457 -0.000219094 -1.09024e-23)
(-0.000336959 -0.000218147 -1.07838e-23)
(-0.000335471 -0.000217206 -2.67941e-24)
(-0.000333991 -0.000216271 2.66817e-24)
(-0.000332519 -0.000215343 2.63484e-24)
(-0.000331055 -0.000214419 1.05466e-23)
(-0.000329599 -0.000213502 0)
(-0.000328152 -0.000212588 -2.38078e-28)
(-0.000326712 -0.000211679 2.34489e-28)
(-0.000325279 -0.000210771 -7.67108e-24)
(-0.000323854 -0.000209868 -2.53844e-24)
(-0.000322436 -0.000208964 0)
(-0.000321024 -0.000208063 -2.31933e-28)
(-0.000319619 -0.000207163 -2.44977e-24)
(-0.00031822 -0.000206262 7.38531e-24)
(-0.000316827 -0.000205362 2.46908e-24)
(-0.00031544 -0.00020446 9.68048e-24)
(-0.000314058 -0.000203556 0)
(-0.000312681 -0.00020265 2.38716e-24)
(-0.000311309 -0.000201742 -2.73065e-29)
(-0.000309941 -0.00020083 6.97313e-24)
(-0.000308578 -0.000199915 1.42457e-23)
)
;
    }
    frontAndBack
    {
        type            empty;
    }
}


// ************************************************************************* //
