/*--------------------------------*- C++ -*----------------------------------*\
| =========                 |                                                 |
| \\      /  F ield         | OpenFOAM: The Open Source CFD Toolbox           |
|  \\    /   O peration     | Version:  5.x                                   |
|   \\  /    A nd           | Web:      www.OpenFOAM.org                      |
|    \\/     M anipulation  |                                                 |
\*---------------------------------------------------------------------------*/
FoamFile
{
    version     2.0;
    format      ascii;
    class       volVectorField;
    location    "0";
    object      wallShearStress;
}
// * * * * * * * * * * * * * * * * * * * * * * * * * * * * * * * * * * * * * //

dimensions      [0 2 -2 0 0 0 0];

internalField   uniform (0 0 0);

boundaryField
{
    inlet
    {
        type            calculated;
        value           uniform (0 0 0);
    }
    outlet
    {
        type            calculated;
        value           uniform (0 0 0);
    }
    walls
    {
        type            calculated;
        value           nonuniform List<vector> 
204
(
(-0.000161604 -3.88405e-06 3.05221e-28)
(-0.000160379 -4.27479e-06 -2.87069e-28)
(-0.000159302 -3.44305e-06 -1.2055e-24)
(-0.000157504 -7.50822e-07 -2.65164e-24)
(-0.000154062 5.88657e-06 -1.63414e-23)
(-0.000151956 1.12965e-05 5.72702e-24)
(-0.000150143 1.18148e-05 5.2266e-24)
(-0.000148632 1.31805e-05 0)
(-0.000147304 1.4049e-05 -1.65726e-27)
(-0.000146122 1.45178e-05 -1.493e-27)
(-0.000145083 1.4703e-05 -1.4121e-27)
(-0.000144139 1.46644e-05 1.08022e-23)
(-0.000143315 1.44665e-05 6.51309e-24)
(-0.000142562 1.41519e-05 -6.36996e-24)
(-0.000141887 1.37543e-05 -5.69685e-24)
(-0.000141304 1.32865e-05 5.42093e-24)
(-0.000140761 1.27882e-05 1.85446e-27)
(-0.000140311 1.22411e-05 0)
(-0.000139907 1.16773e-05 -1.79236e-23)
(-0.000139539 1.11109e-05 -4.04679e-24)
(-0.000139257 1.0507e-05 0)
(-0.000138994 9.91515e-06 0)
(-0.000138779 9.31461e-06 -9.70467e-24)
(-0.000138626 8.6909e-06 3.03642e-24)
(-0.000138477 8.09119e-06 8.53536e-24)
(-0.00013838 7.47174e-06 1.0271e-23)
(-0.000138321 6.84275e-06 -2.43576e-24)
(-0.00013826 6.23824e-06 2.23467e-24)
(-0.000138252 5.60512e-06 -2.00934e-24)
(-0.000138254 4.97899e-06 -5.74521e-24)
(-0.000138258 4.36802e-06 5.16355e-24)
(-0.000138309 3.72525e-06 0)
(-0.000138353 3.09959e-06 -4.33794e-24)
(-0.000138406 2.47459e-06 4.69935e-28)
(-0.000138486 1.83002e-06 -4.24368e-28)
(-0.000138548 1.20718e-06 -2.087e-24)
(-0.000138631 5.68692e-07 9.08323e-25)
(-0.000138721 -7.63778e-08 1.62215e-24)
(-0.000138794 -7.04297e-07 -2.55735e-28)
(-0.000138888 -1.35343e-06 -5.90131e-25)
(-0.000138969 -1.99251e-06 1.83613e-28)
(-0.000139046 -2.6306e-06 0)
(-0.00013913 -3.28002e-06 0)
(-0.000139195 -3.91588e-06 -1.15615e-25)
(-0.000139264 -4.56151e-06 0)
(-0.000139322 -5.20216e-06 -1.47906e-25)
(-0.00013937 -5.8392e-06 -7.24025e-28)
(-0.000139416 -6.48107e-06 1.72057e-26)
(-0.000139446 -7.11437e-06 0)
(-0.00013947 -7.74929e-06 0)
(-0.000139484 -8.38071e-06 9.58852e-26)
(-0.000139484 -9.00621e-06 1.13704e-28)
(-0.000139523 -9.60855e-06 3.37453e-25)
(-0.00013946 -1.00726e-05 3.7789e-25)
(-0.00013929 -1.04489e-05 8.23865e-25)
(-0.000139177 -1.08652e-05 -8.98544e-25)
(-0.000138965 -1.12015e-05 1.27565e-24)
(-0.000138677 -1.14767e-05 1.22966e-28)
(-0.000138423 -1.17743e-05 -3.52668e-25)
(-0.000138146 -1.20521e-05 3.68588e-25)
(-0.000137873 -1.23299e-05 -0)
(-0.000137588 -1.25953e-05 8.01038e-25)
(-0.000137286 -1.28454e-05 -1.52038e-28)
(-0.000136992 -1.30993e-05 -8.59347e-25)
(-0.000136676 -1.33333e-05 -1.62505e-28)
(-0.000136355 -1.35615e-05 9.12059e-25)
(-0.000136036 -1.37885e-05 8.6003e-29)
(-0.000135696 -1.39973e-05 -0)
(-0.000135369 -1.42125e-05 9.86252e-25)
(-0.000135024 -1.44129e-05 -0)
(-0.000134671 -1.46039e-05 1.03026e-24)
(-0.000134328 -1.47996e-05 4.21915e-24)
(-0.000133962 -1.4976e-05 -0)
(-0.00013361 -1.516e-05 -9.99843e-29)
(-0.000133245 -1.53318e-05 1.02511e-28)
(-0.000132875 -1.54971e-05 1.03363e-28)
(-0.000132515 -1.56671e-05 -2.30823e-24)
(-0.000132134 -1.58191e-05 9.36245e-24)
(-0.000131774 -1.5982e-05 -0)
(-0.000131392 -1.61278e-05 -0)
(-0.000131026 -1.62805e-05 -7.28074e-24)
(-0.00013065 -1.64244e-05 7.48253e-24)
(-0.000130275 -1.6565e-05 -7.45687e-24)
(-0.000129908 -1.67078e-05 -1.16885e-28)
(-0.000129531 -1.68408e-05 5.83852e-29)
(-0.00012917 -1.69807e-05 -2.61267e-24)
(-0.000128796 -1.71086e-05 5.22071e-24)
(-0.00012844 -1.72444e-05 -0)
(-0.000128072 -1.73695e-05 6.09384e-29)
(-0.000127718 -1.74993e-05 2.74669e-24)
(-0.000127366 -1.76269e-05 -0)
(-0.000127014 -1.77504e-05 6.3694e-29)
(-0.000126681 -1.78814e-05 -9.59541e-29)
(-0.000126334 -1.80006e-05 3.21399e-29)
(-0.000126004 -1.81253e-05 -5.74158e-24)
(-0.000125686 -1.82527e-05 2.88781e-24)
(-0.000125365 -1.83739e-05 -8.65622e-24)
(-0.000125056 -1.84978e-05 1.17085e-23)
(-0.000124758 -1.86234e-05 3.38997e-29)
(-0.000124464 -1.87468e-05 -9.01575e-24)
(-0.000124179 -1.88699e-05 6.00919e-24)
(-0.000123909 -1.89964e-05 -2.47845e-23)
(-0.000164455 -1.6616e-05 6.37017e-24)
(-0.000161977 -1.82557e-05 -1.22906e-23)
(-0.000161821 -2.32174e-05 1.21945e-27)
(-0.000161359 -2.62199e-05 -1.84062e-23)
(-0.000161216 -2.83491e-05 1.76619e-23)
(-0.000161406 -2.96784e-05 -1.58822e-23)
(-0.000161783 -3.02846e-05 1.83869e-27)
(-0.000162285 -3.03186e-05 0)
(-0.000162769 -2.99127e-05 0)
(-0.000163219 -2.9196e-05 -3.78666e-24)
(-0.00016355 -2.82679e-05 -6.74058e-24)
(-0.000163771 -2.72062e-05 3.16435e-24)
(-0.000163847 -2.60719e-05 1.09689e-23)
(-0.000163792 -2.49071e-05 -7.74604e-24)
(-0.00016363 -2.37409e-05 3.34124e-27)
(-0.000163372 -2.25935e-05 -2.03424e-24)
(-0.000163056 -2.14739e-05 7.54403e-24)
(-0.000162656 -2.03992e-05 0)
(-0.000162197 -1.93718e-05 -2.26387e-24)
(-0.000161722 -1.8387e-05 0)
(-0.000161207 -1.74535e-05 1.17291e-24)
(-0.000160675 -1.65668e-05 2.19658e-24)
(-0.000160119 -1.57296e-05 0)
(-0.00015954 -1.49421e-05 0)
(-0.000158988 -1.41871e-05 -1.15045e-24)
(-0.00015841 -1.34805e-05 -3.31645e-25)
(-0.000157815 -1.28184e-05 2.97822e-25)
(-0.000157255 -1.21804e-05 0)
(-0.000156662 -1.15892e-05 3.27714e-28)
(-0.000156074 -1.1029e-05 -2.94746e-28)
(-0.000155496 -1.04958e-05 8.54238e-26)
(-0.000154878 -1.00071e-05 0)
(-0.000154299 -9.53043e-06 3.16421e-26)
(-0.000153692 -9.09007e-06 -3.92811e-26)
(-0.000153056 -8.68521e-06 -2.76912e-27)
(-0.000152457 -8.28648e-06 1.34063e-26)
(-0.000151803 -7.93211e-06 8.40247e-29)
(-0.000151163 -7.59016e-06 -3.41837e-26)
(-0.000150511 -7.27097e-06 -4.92255e-29)
(-0.00014981 -6.99034e-06 3.64804e-26)
(-0.000149144 -6.70775e-06 -2.27693e-26)
(-0.000148416 -6.4683e-06 5.73961e-30)
(-0.000147697 -6.23748e-06 -1.2969e-27)
(-0.000146957 -6.02793e-06 -4.30102e-27)
(-0.000146174 -5.85208e-06 -3.43962e-26)
(-0.000145411 -5.67426e-06 9.30252e-30)
(-0.000144585 -5.54056e-06 9.14179e-26)
(-0.00014378 -5.40343e-06 -3.57356e-26)
(-0.000142923 -5.30354e-06 7.62969e-26)
(-0.000142067 -5.21075e-06 -1.4893e-29)
(-0.000141182 -5.14256e-06 -1.49827e-29)
(-0.000140234 -5.12195e-06 1.44239e-29)
(-0.000139435 -5.06699e-06 -9.73382e-26)
(-0.000138795 -4.96937e-06 -1.59043e-25)
(-0.000138142 -4.89209e-06 -1.11965e-25)
(-0.000137549 -4.78216e-06 -2.22232e-29)
(-0.000137006 -4.64257e-06 4.98982e-29)
(-0.000136446 -4.52309e-06 -2.69759e-29)
(-0.000135866 -4.42601e-06 -2.33378e-25)
(-0.000135297 -4.32759e-06 0)
(-0.000134725 -4.2376e-06 -3.43622e-25)
(-0.000134142 -4.16372e-06 2.66028e-25)
(-0.000133572 -4.08444e-06 -3.35921e-29)
(-0.000132994 -4.01905e-06 6.88074e-29)
(-0.000132414 -3.9607e-06 9.55814e-26)
(-0.000131842 -3.90053e-06 3.57157e-29)
(-0.000131261 -3.855e-06 -5.41528e-29)
(-0.000130687 -3.80758e-06 1.82035e-29)
(-0.000130113 -3.76608e-06 0)
(-0.000129535 -3.73338e-06 -1.00386e-25)
(-0.000128966 -3.69751e-06 -1.84559e-29)
(-0.000128392 -3.67108e-06 3.03071e-25)
(-0.000127822 -3.64542e-06 -3.00266e-25)
(-0.000127255 -3.62202e-06 -1.83776e-29)
(-0.000126686 -3.605e-06 1.81824e-29)
(-0.000126124 -3.5863e-06 0)
(-0.00012556 -3.57294e-06 9.8312e-26)
(-0.000125001 -3.56003e-06 -9.65215e-26)
(-0.000124443 -3.54893e-06 0)
(-0.000123888 -3.54045e-06 2.83021e-25)
(-0.000123336 -3.53182e-06 3.75834e-25)
(-0.000122786 -3.52541e-06 3.69408e-25)
(-0.000122239 -3.51918e-06 9.1194e-26)
(-0.000121695 -3.51349e-06 -9.01896e-26)
(-0.000121154 -3.50853e-06 -8.84039e-26)
(-0.000120616 -3.50309e-06 -3.51345e-25)
(-0.00012008 -3.49845e-06 0)
(-0.000119549 -3.49268e-06 7.81515e-30)
(-0.000119019 -3.48757e-06 -7.63964e-30)
(-0.000118494 -3.48052e-06 2.48398e-25)
(-0.00011797 -3.47381e-06 8.16721e-26)
(-0.000117451 -3.46492e-06 0)
(-0.000116934 -3.45571e-06 7.39288e-30)
(-0.00011642 -3.44481e-06 7.78328e-26)
(-0.000115909 -3.43215e-06 -2.34204e-25)
(-0.000115402 -3.41816e-06 -7.82368e-26)
(-0.000114897 -3.40204e-06 -3.07019e-25)
(-0.000114395 -3.38373e-06 0)
(-0.000113896 -3.36346e-06 -7.62372e-26)
(-0.0001134 -3.34077e-06 8.77512e-31)
(-0.000112907 -3.31558e-06 -2.25943e-25)
(-0.000112416 -3.28765e-06 -4.66428e-25)
)
;
    }
    frontAndBack
    {
        type            empty;
    }
}


// ************************************************************************* //
