/*--------------------------------*- C++ -*----------------------------------*\
| =========                 |                                                 |
| \\      /  F ield         | OpenFOAM: The Open Source CFD Toolbox           |
|  \\    /   O peration     | Version:  5.x                                   |
|   \\  /    A nd           | Web:      www.OpenFOAM.org                      |
|    \\/     M anipulation  |                                                 |
\*---------------------------------------------------------------------------*/
FoamFile
{
    version     2.0;
    format      ascii;
    class       volVectorField;
    location    "0";
    object      wallShearStress;
}
// * * * * * * * * * * * * * * * * * * * * * * * * * * * * * * * * * * * * * //

dimensions      [0 2 -2 0 0 0 0];

internalField   uniform (0 0 0);

boundaryField
{
    inlet
    {
        type            calculated;
        value           uniform (0 0 0);
    }
    outlet
    {
        type            calculated;
        value           uniform (0 0 0);
    }
    walls
    {
        type            calculated;
        value           nonuniform List<vector> 
204
(
(-0.00426245 -0.000157261 8.04734e-27)
(-0.00423031 -0.000167131 -7.57012e-27)
(-0.00420155 -0.000144874 -3.17785e-23)
(-0.00415289 -7.35991e-05 -6.98174e-23)
(-0.00405907 0.000100278 -4.28795e-22)
(-0.00400091 0.000239214 1.49665e-22)
(-0.00395285 0.000252755 1.36495e-22)
(-0.00391229 0.000286991 0)
(-0.00387679 0.000308142 -4.31121e-26)
(-0.00384533 0.000318887 -3.8766e-26)
(-0.00381778 0.000322229 -3.65958e-26)
(-0.00379283 0.000319856 2.79429e-22)
(-0.00377114 0.000313347 1.68157e-22)
(-0.00375137 0.00030392 -1.64151e-22)
(-0.00373369 0.00029241 -1.46525e-22)
(-0.0037185 0.0002791 1.39149e-22)
(-0.00370434 0.000265121 4.75079e-26)
(-0.00369268 0.000249866 0)
(-0.00368226 0.000234248 -4.57207e-22)
(-0.00367277 0.000218647 -1.03002e-22)
(-0.00366558 0.000202039 0)
(-0.0036589 0.000185832 0)
(-0.00365347 0.00016942 -2.45165e-22)
(-0.00364968 0.000152393 7.6487e-23)
(-0.003646 0.000136072 2.14372e-22)
(-0.00364371 0.000119225 2.57122e-22)
(-0.00364242 0.000102137 -6.0757e-23)
(-0.00364106 8.57548e-05 5.5532e-23)
(-0.00364111 6.85986e-05 -4.97169e-23)
(-0.00364145 5.16581e-05 -1.41482e-22)
(-0.0036418 3.51564e-05 1.26506e-22)
(-0.00364341 1.77971e-05 0)
(-0.00364485 9.29712e-07 -1.04923e-22)
(-0.00364651 -1.58997e-05 1.12788e-26)
(-0.00364889 -3.32464e-05 -1.00908e-26)
(-0.00365082 -4.99765e-05 -4.91008e-23)
(-0.00365326 -6.71154e-05 2.10916e-23)
(-0.00365593 -8.4413e-05 3.70564e-23)
(-0.00365813 -0.000101221 -5.72572e-27)
(-0.00366089 -0.000118587 -1.28581e-23)
(-0.00366331 -0.000135657 3.85636e-27)
(-0.00366561 -0.000152678 0)
(-0.00366812 -0.000169986 0)
(-0.00367011 -0.000186903 -1.79645e-24)
(-0.00367223 -0.000204064 0)
(-0.00367404 -0.000221066 9.1388e-25)
(-0.00367558 -0.000237949 1.72557e-24)
(-0.00367708 -0.00025494 1.02645e-24)
(-0.00367815 -0.000271677 0)
(-0.00367908 -0.000288435 0)
(-0.00367973 -0.000305076 3.32537e-24)
(-0.00368002 -0.000321534 3.75503e-27)
(-0.00368132 -0.00033739 1.07824e-23)
(-0.00367987 -0.000349537 1.18374e-23)
(-0.00367557 -0.000359308 2.54573e-23)
(-0.00367277 -0.000370152 -2.74138e-23)
(-0.00366734 -0.000378832 3.85633e-23)
(-0.00365988 -0.000385862 3.69152e-27)
(-0.00365331 -0.000393492 -1.05163e-23)
(-0.00364615 -0.000400586 1.09274e-23)
(-0.00363909 -0.000407677 -0)
(-0.00363169 -0.00041443 2.35102e-23)
(-0.00362385 -0.000420771 -4.44354e-27)
(-0.00361623 -0.000427213 -2.50163e-23)
(-0.003608 -0.000433116 -4.71417e-27)
(-0.00359965 -0.000438861 2.63729e-23)
(-0.00359135 -0.000444571 2.4793e-27)
(-0.00358249 -0.000449791 -0)
(-0.00357396 -0.000455184 2.82802e-23)
(-0.00356499 -0.000460174 -0)
(-0.00355576 -0.000464912 2.94068e-23)
(-0.00354681 -0.000469775 1.20169e-22)
(-0.00353724 -0.000474119 -0)
(-0.00352806 -0.000478667 -2.83687e-27)
(-0.00351853 -0.000482886 2.90348e-27)
(-0.00350885 -0.00048693 2.92277e-27)
(-0.00349946 -0.000491098 -6.51635e-23)
(-0.00348949 -0.000494784 2.63925e-22)
(-0.00348006 -0.000498762 -0)
(-0.00347008 -0.000502282 -0)
(-0.00346049 -0.000505985 -2.04388e-22)
(-0.00345067 -0.000509454 2.09788e-22)
(-0.00344085 -0.000512836 -2.08815e-22)
(-0.00343125 -0.000516274 -3.26924e-27)
(-0.00342138 -0.000519449 1.6312e-27)
(-0.00341194 -0.000522812 -7.29126e-23)
(-0.00340213 -0.000525851 1.45545e-22)
(-0.00339281 -0.000529104 -0)
(-0.00338318 -0.000532072 1.69541e-27)
(-0.00337391 -0.000535163 7.63427e-23)
(-0.0033647 -0.000538197 -0)
(-0.00335548 -0.000541122 1.76704e-27)
(-0.00334677 -0.000544252 -2.65956e-27)
(-0.0033377 -0.000547062 8.90051e-28)
(-0.00332906 -0.000550022 -1.58864e-22)
(-0.00332074 -0.000553056 7.98345e-23)
(-0.00331232 -0.000555925 -2.39107e-22)
(-0.00330424 -0.000558867 3.23155e-22)
(-0.00329645 -0.000561854 9.3488e-28)
(-0.00328878 -0.000564785 -2.48439e-22)
(-0.00328132 -0.000567711 1.65462e-22)
(-0.00327427 -0.000570726 -6.81916e-22)
(-0.00434326 -0.000496461 1.68867e-22)
(-0.00427862 -0.000539798 -3.26115e-22)
(-0.0042766 -0.000674265 3.24501e-26)
(-0.00426563 -0.000756793 -4.9099e-22)
(-0.00426268 -0.000816612 4.72334e-22)
(-0.00426811 -0.000855481 -4.25879e-22)
(-0.0042782 -0.000875137 4.94422e-26)
(-0.00429129 -0.000879455 0)
(-0.00430376 -0.00087178 0)
(-0.00431518 -0.000855532 -1.02761e-22)
(-0.0043234 -0.000833296 -1.83535e-22)
(-0.00432867 -0.000807167 8.64645e-23)
(-0.0043301 -0.00077877 3.00832e-22)
(-0.00432808 -0.00074926 -2.13273e-22)
(-0.00432323 -0.000719453 9.23774e-26)
(-0.00431589 -0.000689922 -5.64906e-23)
(-0.00430702 -0.000660955 2.10496e-22)
(-0.00429596 -0.000633 0)
(-0.00428339 -0.000606157 -6.38354e-23)
(-0.00427041 -0.000580346 0)
(-0.00425639 -0.000555793 3.34859e-23)
(-0.00424195 -0.000532405 6.3156e-23)
(-0.00422692 -0.000510256 0)
(-0.00421128 -0.000489358 0)
(-0.0041964 -0.000469299 -3.39414e-23)
(-0.00418084 -0.00045047 -9.8883e-24)
(-0.00416484 -0.000432772 8.98462e-24)
(-0.00414981 -0.000415713 0)
(-0.0041339 -0.000399845 1.01755e-26)
(-0.00411813 -0.000384785 -9.31348e-27)
(-0.00410267 -0.000370425 2.75532e-24)
(-0.00408617 -0.000357203 0)
(-0.00407068 -0.000344311 1.07494e-24)
(-0.00405448 -0.000332351 -1.3802e-24)
(-0.00403755 -0.000321303 -1.01247e-25)
(-0.00402159 -0.000310432 5.16593e-25)
(-0.00400419 -0.000300693 3.44641e-27)
(-0.00398716 -0.000291285 -1.52591e-24)
(-0.00396982 -0.000282468 -2.46679e-27)
(-0.00395123 -0.000274636 2.13136e-24)
(-0.00393354 -0.00026677 -1.73817e-24)
(-0.00391427 -0.000260005 6.84272e-28)
(-0.0038952 -0.000253472 -7.5207e-25)
(-0.00387562 -0.000247487 5.74464e-25)
(-0.00385489 -0.000242367 1.78315e-24)
(-0.00383472 -0.000237205 -2.31222e-28)
(-0.0038129 -0.000233173 -1.36844e-24)
(-0.0037916 -0.000229061 2.85283e-25)
(-0.00376899 -0.000225904 -3.52793e-25)
(-0.00374638 -0.000222936 3.12687e-29)
(-0.00372302 -0.000220601 1.19172e-29)
(-0.00369804 -0.000219488 -1.86343e-29)
(-0.00367694 -0.000217555 3.70721e-26)
(-0.00366003 -0.000214587 -3.10469e-25)
(-0.00364279 -0.000212151 -3.81918e-25)
(-0.00362711 -0.000208884 -1.21781e-28)
(-0.00361275 -0.000204862 3.8754e-28)
(-0.00359793 -0.000201362 -2.51615e-28)
(-0.00358261 -0.000198443 -2.42068e-24)
(-0.00356756 -0.000195495 0)
(-0.00355246 -0.000192768 -4.15413e-24)
(-0.00353705 -0.000190461 3.36084e-24)
(-0.00352201 -0.000188019 -4.43185e-28)
(-0.00350673 -0.00018594 9.35637e-28)
(-0.00349142 -0.000184047 1.33114e-24)
(-0.00347633 -0.00018211 5.09209e-28)
(-0.00346099 -0.000180556 -7.83394e-28)
(-0.00344585 -0.000178956 2.67317e-28)
(-0.0034307 -0.000177512 0)
(-0.00341546 -0.000176301 -1.50237e-24)
(-0.00340043 -0.000175009 -2.78615e-28)
(-0.0033853 -0.000173966 4.59527e-24)
(-0.00337027 -0.000172945 -4.57122e-24)
(-0.00335531 -0.000171986 -2.80647e-28)
(-0.00334032 -0.000171196 2.77764e-28)
(-0.00332548 -0.000170364 0)
(-0.00331063 -0.000169674 1.50188e-24)
(-0.00329587 -0.000168997 -1.4726e-24)
(-0.00328118 -0.00016837 0)
(-0.00326653 -0.000167814 4.2948e-24)
(-0.00325198 -0.000167256 5.68478e-24)
(-0.00323748 -0.000166758 5.56358e-24)
(-0.00322307 -0.000166266 1.36734e-24)
(-0.00320873 -0.000165791 -1.34581e-24)
(-0.00319447 -0.000165336 -1.31226e-24)
(-0.00318029 -0.000164871 -5.18882e-24)
(-0.00316618 -0.000164429 0)
(-0.00315216 -0.000163958 1.14184e-28)
(-0.0031382 -0.000163507 -1.10998e-28)
(-0.00312435 -0.000163006 3.59244e-24)
(-0.00311055 -0.000162516 1.17544e-24)
(-0.00309686 -0.000161971 0)
(-0.00308323 -0.000161418 1.05636e-28)
(-0.00306969 -0.000160822 1.10933e-24)
(-0.00305622 -0.000160182 -3.33315e-24)
(-0.00304283 -0.000159508 -1.11275e-24)
(-0.00302952 -0.000158779 -4.36977e-24)
(-0.00301629 -0.000157994 0)
(-0.00300313 -0.000157159 -1.09097e-24)
(-0.00299005 -0.000156261 1.26177e-29)
(-0.00297703 -0.000155299 -3.26928e-24)
(-0.00296409 -0.000154265 -6.80186e-24)
)
;
    }
    frontAndBack
    {
        type            empty;
    }
}


// ************************************************************************* //
