/*--------------------------------*- C++ -*----------------------------------*\
| =========                 |                                                 |
| \\      /  F ield         | OpenFOAM: The Open Source CFD Toolbox           |
|  \\    /   O peration     | Version:  5.x                                   |
|   \\  /    A nd           | Web:      www.OpenFOAM.org                      |
|    \\/     M anipulation  |                                                 |
\*---------------------------------------------------------------------------*/
FoamFile
{
    version     2.0;
    format      ascii;
    class       volScalarField;
    location    "0";
    object      yPlus;
}
// * * * * * * * * * * * * * * * * * * * * * * * * * * * * * * * * * * * * * //

dimensions      [0 0 0 0 0 0 0];

internalField   uniform 0;

boundaryField
{
    inlet
    {
        type            calculated;
        value           uniform 0;
    }
    outlet
    {
        type            calculated;
        value           uniform 0;
    }
    walls
    {
        type            calculated;
        value           nonuniform List<scalar> 
204
(
0.219083
0.219945
0.220631
0.221527
0.221718
0.219159
0.219743
0.218767
0.217768
0.216848
0.215957
0.215197
0.214458
0.213831
0.213268
0.212716
0.212264
0.211788
0.211362
0.210991
0.210578
0.210224
0.209875
0.209503
0.209187
0.20885
0.208512
0.208218
0.207895
0.207593
0.20732
0.207019
0.206751
0.206496
0.206232
0.206006
0.205777
0.205557
0.205369
0.205177
0.205011
0.204862
0.20472
0.204608
0.204504
0.204422
0.204361
0.204314
0.204292
0.204286
0.204301
0.204338
0.204357
0.204448
0.204616
0.204753
0.204958
0.205216
0.205457
0.205715
0.205975
0.206247
0.206533
0.206817
0.207118
0.207426
0.207737
0.208063
0.208386
0.208722
0.209067
0.209409
0.209768
0.210122
0.210487
0.210859
0.211227
0.211612
0.211988
0.212379
0.212765
0.213159
0.213556
0.213952
0.214356
0.214755
0.215164
0.215566
0.215977
0.216384
0.216793
0.217205
0.217608
0.218022
0.21843
0.218834
0.219242
0.219646
0.220046
0.220447
0.220845
0.221237
0.215413
0.216288
0.213519
0.211129
0.208454
0.205655
0.202992
0.200547
0.198436
0.196627
0.195148
0.193946
0.193012
0.192304
0.191779
0.191411
0.191156
0.191023
0.190983
0.190998
0.19108
0.191206
0.191377
0.19159
0.191806
0.192059
0.192341
0.192614
0.192923
0.19324
0.193561
0.193917
0.194257
0.194623
0.195014
0.195387
0.195802
0.196214
0.196638
0.197099
0.197542
0.198029
0.198516
0.19902
0.199558
0.200086
0.200661
0.201227
0.201832
0.202443
0.203078
0.203763
0.204347
0.204822
0.205309
0.205757
0.206172
0.206601
0.207047
0.207489
0.207934
0.20839
0.208839
0.209297
0.209759
0.210217
0.210685
0.211149
0.211617
0.21209
0.21256
0.213035
0.213511
0.213987
0.214466
0.214945
0.215426
0.215908
0.21639
0.216874
0.217358
0.217843
0.218329
0.218815
0.219302
0.219789
0.220278
0.220766
0.221255
0.221745
0.222235
0.222725
0.223216
0.223708
0.2242
0.224692
0.225186
0.225679
0.226174
0.226669
0.227165
0.227662
)
;
    }
    frontAndBack
    {
        type            empty;
    }
}


// ************************************************************************* //
