/*--------------------------------*- C++ -*----------------------------------*\
| =========                 |                                                 |
| \\      /  F ield         | OpenFOAM: The Open Source CFD Toolbox           |
|  \\    /   O peration     | Version:  5.x                                   |
|   \\  /    A nd           | Web:      www.OpenFOAM.org                      |
|    \\/     M anipulation  |                                                 |
\*---------------------------------------------------------------------------*/
FoamFile
{
    version     2.0;
    format      ascii;
    class       volScalarField;
    location    "0";
    object      yPlus;
}
// * * * * * * * * * * * * * * * * * * * * * * * * * * * * * * * * * * * * * //

dimensions      [0 0 0 0 0 0 0];

internalField   uniform 0;

boundaryField
{
    inlet
    {
        type            calculated;
        value           uniform 0;
    }
    outlet
    {
        type            calculated;
        value           uniform 0;
    }
    walls
    {
        type            calculated;
        value           nonuniform List<scalar> 
204
(
0.195607
0.196377
0.196989
0.197789
0.19796
0.195675
0.196197
0.195325
0.194433
0.193612
0.192816
0.192137
0.191478
0.190918
0.190415
0.189923
0.189518
0.189093
0.188713
0.188382
0.188013
0.187697
0.187386
0.187054
0.186771
0.186471
0.186169
0.185907
0.185618
0.185348
0.185104
0.184836
0.184596
0.184368
0.184133
0.183931
0.183727
0.18353
0.183363
0.183191
0.183043
0.18291
0.182783
0.182683
0.18259
0.182517
0.182463
0.182421
0.182401
0.182396
0.182409
0.182442
0.182459
0.182541
0.182691
0.182813
0.182996
0.183226
0.183441
0.183672
0.183904
0.184146
0.184402
0.184655
0.184925
0.185199
0.185477
0.185768
0.186056
0.186356
0.186664
0.18697
0.18729
0.187606
0.187932
0.188264
0.188593
0.188936
0.189272
0.189621
0.189966
0.190318
0.190672
0.191026
0.191387
0.191742
0.192108
0.192467
0.192834
0.193198
0.193562
0.19393
0.19429
0.19466
0.195024
0.195385
0.195749
0.19611
0.196467
0.196825
0.19718
0.19753
0.19233
0.193112
0.190639
0.188505
0.186117
0.183618
0.18124
0.179058
0.177172
0.175557
0.174237
0.173163
0.17233
0.171697
0.171229
0.1709
0.170673
0.170554
0.170518
0.170532
0.170604
0.170717
0.17087
0.17106
0.171253
0.171479
0.17173
0.171974
0.17225
0.172533
0.17282
0.173138
0.173442
0.173768
0.174117
0.17445
0.174821
0.175188
0.175567
0.175979
0.176374
0.176809
0.177244
0.177694
0.178174
0.178645
0.179159
0.179664
0.180205
0.18075
0.181317
0.181928
0.18245
0.182874
0.183309
0.183709
0.184079
0.184463
0.184861
0.185255
0.185653
0.18606
0.186461
0.18687
0.187282
0.187691
0.188109
0.188524
0.188941
0.189364
0.189783
0.190208
0.190632
0.191057
0.191485
0.191912
0.192342
0.192772
0.193203
0.193635
0.194067
0.1945
0.194934
0.195368
0.195803
0.196238
0.196674
0.19711
0.197547
0.197984
0.198421
0.198859
0.199297
0.199736
0.200176
0.200615
0.201056
0.201496
0.201938
0.20238
0.202823
0.203266
)
;
    }
    frontAndBack
    {
        type            empty;
    }
}


// ************************************************************************* //
