/*--------------------------------*- C++ -*----------------------------------*\
| =========                 |                                                 |
| \\      /  F ield         | OpenFOAM: The Open Source CFD Toolbox           |
|  \\    /   O peration     | Version:  5.x                                   |
|   \\  /    A nd           | Web:      www.OpenFOAM.org                      |
|    \\/     M anipulation  |                                                 |
\*---------------------------------------------------------------------------*/
FoamFile
{
    version     2.0;
    format      ascii;
    class       volScalarField;
    location    "0";
    object      yPlus;
}
// * * * * * * * * * * * * * * * * * * * * * * * * * * * * * * * * * * * * * //

dimensions      [0 0 0 0 0 0 0];

internalField   uniform 0;

boundaryField
{
    inlet
    {
        type            calculated;
        value           uniform 0;
    }
    outlet
    {
        type            calculated;
        value           uniform 0;
    }
    walls
    {
        type            calculated;
        value           nonuniform List<scalar> 
204
(
0.0670872
0.0673512
0.0675611
0.0678357
0.0678942
0.0671105
0.0672893
0.0669905
0.0666845
0.0664029
0.0661299
0.0658972
0.065671
0.0654788
0.0653065
0.0651376
0.064999
0.0648532
0.0647228
0.0646091
0.0644826
0.0643743
0.0642674
0.0641536
0.0640568
0.0639538
0.0638501
0.0637602
0.0636613
0.0635687
0.063485
0.0633929
0.0633108
0.0632327
0.063152
0.0630827
0.0630126
0.0629452
0.0628878
0.0628289
0.062778
0.0627324
0.0626889
0.0626545
0.0626228
0.0625978
0.0625791
0.0625647
0.0625579
0.0625561
0.0625606
0.0625719
0.0625778
0.0626058
0.0626572
0.062699
0.062762
0.0628409
0.0629146
0.0629937
0.0630733
0.0631565
0.063244
0.063331
0.0634234
0.0635177
0.0636127
0.0637127
0.0638115
0.0639144
0.0640199
0.0641248
0.0642347
0.0643432
0.064455
0.0645688
0.0646816
0.0647993
0.0649145
0.0650342
0.0651524
0.065273
0.0653947
0.0655158
0.0656397
0.0657617
0.065887
0.0660102
0.0661362
0.0662608
0.0663859
0.0665119
0.0666356
0.0667624
0.0668873
0.0670109
0.0671359
0.0672596
0.0673822
0.0675048
0.0676267
0.0677466
0.0659633
0.0662313
0.0653834
0.0646515
0.0638323
0.0629753
0.0621598
0.0614112
0.0607646
0.0602108
0.0597577
0.0593896
0.0591037
0.0588869
0.0587263
0.0586134
0.0585355
0.0584948
0.0584824
0.058487
0.058512
0.0585507
0.0586031
0.0586683
0.0587344
0.0588119
0.0588982
0.0589818
0.0590763
0.0591736
0.0592718
0.059381
0.0594851
0.059597
0.0597167
0.059831
0.0599582
0.0600842
0.0602141
0.0603553
0.0604909
0.0606401
0.0607891
0.0609435
0.0611081
0.0612698
0.0614459
0.0616193
0.0618047
0.0619916
0.0621863
0.0623958
0.0625748
0.0627202
0.0628692
0.0630064
0.0631334
0.063265
0.0634016
0.0635368
0.0636732
0.0638129
0.0639503
0.0640906
0.0642319
0.0643722
0.0645154
0.0646578
0.064801
0.0649459
0.0650897
0.0652353
0.0653808
0.0655266
0.0656735
0.06582
0.0659674
0.0661148
0.0662625
0.0664107
0.0665589
0.0667075
0.0668562
0.0670051
0.0671543
0.0673035
0.067453
0.0676025
0.0677524
0.0679022
0.0680523
0.0682025
0.0683529
0.0685034
0.068654
0.0688049
0.0689559
0.0691071
0.0692585
0.0694101
0.069562
0.0697141
)
;
    }
    frontAndBack
    {
        type            empty;
    }
}


// ************************************************************************* //
