/*--------------------------------*- C++ -*----------------------------------*\
| =========                 |                                                 |
| \\      /  F ield         | OpenFOAM: The Open Source CFD Toolbox           |
|  \\    /   O peration     | Version:  5.x                                   |
|   \\  /    A nd           | Web:      www.OpenFOAM.org                      |
|    \\/     M anipulation  |                                                 |
\*---------------------------------------------------------------------------*/
FoamFile
{
    version     2.0;
    format      ascii;
    class       volScalarField;
    location    "0";
    object      yPlus;
}
// * * * * * * * * * * * * * * * * * * * * * * * * * * * * * * * * * * * * * //

dimensions      [0 0 0 0 0 0 0];

internalField   uniform 0;

boundaryField
{
    inlet
    {
        type            calculated;
        value           uniform 0;
    }
    outlet
    {
        type            calculated;
        value           uniform 0;
    }
    walls
    {
        type            calculated;
        value           nonuniform List<scalar> 
204
(
0.0380686
0.0382184
0.0383375
0.0384933
0.0385265
0.0380818
0.0381833
0.0380137
0.0378401
0.0376803
0.0375254
0.0373933
0.037265
0.0371559
0.0370582
0.0369623
0.0368836
0.0368009
0.0367269
0.0366624
0.0365906
0.0365292
0.0364685
0.0364039
0.036349
0.0362905
0.0362317
0.0361807
0.0361246
0.036072
0.0360245
0.0359723
0.0359257
0.0358813
0.0358356
0.0357962
0.0357565
0.0357182
0.0356856
0.0356522
0.0356233
0.0355975
0.0355728
0.0355533
0.0355353
0.0355211
0.0355105
0.0355023
0.0354984
0.0354974
0.0355
0.0355064
0.0355097
0.0355256
0.0355548
0.0355785
0.0356142
0.035659
0.0357008
0.0357457
0.0357909
0.0358381
0.0358878
0.0359371
0.0359896
0.0360431
0.036097
0.0361537
0.0362098
0.0362682
0.0363281
0.0363876
0.03645
0.0365115
0.0365749
0.0366395
0.0367036
0.0367703
0.0368357
0.0369036
0.0369707
0.0370391
0.0371082
0.0371769
0.0372472
0.0373165
0.0373876
0.0374574
0.0375289
0.0375997
0.0376706
0.0377422
0.0378123
0.0378843
0.0379551
0.0380253
0.0380962
0.0381664
0.038236
0.0383055
0.0383747
0.0384428
0.0374308
0.0375829
0.0371017
0.0366864
0.0362216
0.0357353
0.0352726
0.0348478
0.0344809
0.0341666
0.0339095
0.0337006
0.0335384
0.0334153
0.0333242
0.0332601
0.033216
0.0331928
0.0331858
0.0331884
0.0332026
0.0332246
0.0332543
0.0332913
0.0333288
0.0333728
0.0334218
0.0334692
0.0335228
0.033578
0.0336338
0.0336957
0.0337548
0.0338183
0.0338862
0.0339511
0.0340232
0.0340947
0.0341685
0.0342486
0.0343255
0.0344102
0.0344947
0.0345823
0.0346758
0.0347675
0.0348674
0.0349658
0.035071
0.0351771
0.0352876
0.0354064
0.035508
0.0355906
0.0356751
0.0357529
0.035825
0.0358997
0.0359772
0.0360539
0.0361313
0.0362106
0.0362886
0.0363682
0.0364484
0.036528
0.0366092
0.03669
0.0367713
0.0368535
0.0369351
0.0370177
0.0371003
0.037183
0.0372664
0.0373495
0.0374331
0.0375168
0.0376006
0.0376847
0.0377688
0.0378531
0.0379375
0.038022
0.0381066
0.0381913
0.0382762
0.038361
0.0384461
0.0385311
0.0386163
0.0387014
0.0387868
0.0388722
0.0389577
0.0390433
0.039129
0.0392148
0.0393007
0.0393867
0.0394729
0.0395592
)
;
    }
    frontAndBack
    {
        type            empty;
    }
}


// ************************************************************************* //
