/*--------------------------------*- C++ -*----------------------------------*\
| =========                 |                                                 |
| \\      /  F ield         | OpenFOAM: The Open Source CFD Toolbox           |
|  \\    /   O peration     | Version:  5.x                                   |
|   \\  /    A nd           | Web:      www.OpenFOAM.org                      |
|    \\/     M anipulation  |                                                 |
\*---------------------------------------------------------------------------*/
FoamFile
{
    version     2.0;
    format      ascii;
    class       volScalarField;
    location    "450";
    object      nut;
}
// * * * * * * * * * * * * * * * * * * * * * * * * * * * * * * * * * * * * * //

dimensions      [0 2 -1 0 0 0 0];

internalField   nonuniform List<scalar> 
11040
(
0.00245544
0.00118051
0.000429941
0.000574459
0.000495781
0.000486732
0.000447487
0.000414251
0.000386484
0.000363372
0.000348141
0.000338933
0.000335188
0.000335165
0.000337519
0.000341952
0.000348359
0.00035662
0.000366625
0.000378304
0.000392113
0.000408418
0.000426115
0.000443905
0.000460564
0.000475038
0.000486418
0.000495088
0.000503261
0.00051653
0.000544443
0.000572872
0.00050313
0.000375422
0.000391677
0.000415205
0.000452632
0.00050107
0.000586945
0.000713961
0.000840168
0.00516267
0.00378512
0.00281666
0.00273446
0.00205006
0.00170661
0.00126915
0.00103565
0.000887803
0.000767252
0.000687452
0.000636417
0.000612733
0.000606791
0.000609705
0.000617047
0.000627497
0.00064019
0.000654601
0.000670931
0.000694336
0.000734149
0.000787467
0.000848698
0.000916889
0.000991795
0.00107394
0.0011627
0.00125838
0.0013632
0.00147916
0.00160376
0.00172333
0.00184779
0.00199243
0.00215123
0.00232671
0.00253388
0.00279098
0.00312715
0.00375352
0.0103948
0.00766435
0.0055228
0.00466842
0.00461051
0.00399502
0.00303124
0.00241176
0.00206261
0.00177383
0.00157345
0.00142957
0.00133348
0.00127837
0.00125036
0.00124825
0.00126747
0.00130611
0.00136484
0.00144457
0.00154694
0.00166787
0.00180255
0.00195488
0.00212363
0.00230636
0.00250132
0.00270799
0.0029266
0.00315836
0.00340513
0.00366827
0.00394678
0.00424631
0.00457657
0.00493996
0.00534409
0.00583288
0.00643071
0.00727474
0.00892851
0.0175013
0.0131367
0.00949122
0.00719187
0.0064966
0.00647061
0.00577172
0.004585
0.00391281
0.00334696
0.00294434
0.00265273
0.00244467
0.00232533
0.00225888
0.00224519
0.00227598
0.00234486
0.00245248
0.00259955
0.00278717
0.0030085
0.00325629
0.00353515
0.00384213
0.00417338
0.00452677
0.00490066
0.00529329
0.00570645
0.00614327
0.0066073
0.00710337
0.00763979
0.00822617
0.0088718
0.00959565
0.0104771
0.0115576
0.0131162
0.0158772
0.0256041
0.0207495
0.0154152
0.0114096
0.00909665
0.00850999
0.00863508
0.00814047
0.00696347
0.00588177
0.00506157
0.00451884
0.00411043
0.00387
0.00372318
0.00367127
0.00370387
0.00380405
0.00397066
0.00420454
0.00450435
0.00485981
0.00526027
0.0057106
0.00620514
0.00673766
0.00730445
0.00790219
0.00852559
0.00917768
0.00986366
0.0105888
0.0113637
0.0122012
0.0131157
0.0141253
0.0152668
0.0166609
0.018388
0.0208766
0.0248754
0.034372
0.0297268
0.0234579
0.018028
0.0138185
0.0114169
0.010874
0.0111967
0.0109987
0.010017
0.0085331
0.00752345
0.00668098
0.00615053
0.00580615
0.00566153
0.00567005
0.00579387
0.00602457
0.00636597
0.0068092
0.0073379
0.00793887
0.00861668
0.00936082
0.0101612
0.0110096
0.0118966
0.0128144
0.0137679
0.0147658
0.0158135
0.0169301
0.0181355
0.0194514
0.0209076
0.0225664
0.0245958
0.027148
0.0307851
0.0362064
0.0436693
0.0394286
0.0333254
0.0266692
0.0210745
0.0167066
0.014167
0.013597
0.0141074
0.0142713
0.0135417
0.0122565
0.0107446
0.00972938
0.00897448
0.00854848
0.0083931
0.00846179
0.00874344
0.00920812
0.00982797
0.0105711
0.0114245
0.0123934
0.0134583
0.0146033
0.0158158
0.0170798
0.0183778
0.0197153
0.0210918
0.0225216
0.0240381
0.0256728
0.027457
0.0294349
0.0317007
0.0344775
0.0380302
0.0430311
0.050134
0.0533123
0.0495214
0.044057
0.0374096
0.0305262
0.0247672
0.020181
0.0173975
0.0166855
0.0173368
0.0178998
0.0175493
0.0165272
0.0151958
0.0138211
0.0129009
0.0124054
0.0122568
0.0124574
0.012958
0.0137376
0.0147322
0.0158891
0.0172184
0.0186854
0.0202632
0.0219338
0.0236757
0.0254468
0.0272592
0.0291062
0.030992
0.032953
0.0350606
0.0373601
0.039912
0.0428453
0.0464474
0.0511305
0.0576881
0.0668542
0.0630683
0.0597647
0.0550187
0.0490737
0.042229
0.035221
0.0292479
0.0243479
0.0211846
0.0201766
0.0208537
0.0218472
0.0220121
0.0214204
0.02041
0.0193081
0.0183323
0.0177647
0.0177309
0.0181546
0.0190152
0.0202391
0.0217231
0.0234534
0.0253798
0.0274564
0.0296551
0.031946
0.0342932
0.0366787
0.0390893
0.0415162
0.0439791
0.0465699
0.0493928
0.0525247
0.056127
0.0605582
0.0663899
0.0745767
0.0863583
0.0726837
0.0698935
0.0658602
0.0607694
0.0547248
0.0478633
0.040784
0.0345834
0.0293037
0.0256355
0.0241481
0.0246594
0.026037
0.0269271
0.0269289
0.0264644
0.0258723
0.0253883
0.0251891
0.0254231
0.0262485
0.027648
0.0294574
0.0316265
0.034082
0.0367433
0.0395674
0.0425109
0.0455179
0.0485539
0.0515993
0.0546285
0.0576357
0.0606941
0.0639719
0.0676079
0.0717829
0.0769151
0.0837229
0.0933186
0.106973
0.081908
0.0796178
0.0762834
0.0720305
0.0669435
0.0610065
0.0542854
0.0472278
0.0408256
0.0351543
0.0308955
0.0287328
0.0288134
0.0303999
0.0321125
0.0330367
0.0333807
0.033597
0.0339997
0.0347355
0.0359337
0.0376088
0.0397221
0.0423245
0.0453536
0.0486653
0.052196
0.055889
0.0596449
0.0634081
0.0671582
0.0708478
0.0744302
0.0779508
0.0815608
0.0855168
0.0900263
0.0955288
0.102822
0.113141
0.127026
0.0905178
0.0886872
0.08601
0.0825508
0.0783776
0.0734987
0.0678271
0.0613722
0.0544557
0.0479158
0.0419291
0.0370652
0.0340836
0.0334511
0.0348907
0.0373236
0.0395038
0.0410658
0.0425053
0.0442317
0.0465107
0.0493165
0.052536
0.0561101
0.0599322
0.0639487
0.0682168
0.0727331
0.0773061
0.081838
0.0863329
0.0907249
0.0948854
0.0988284
0.102695
0.106683
0.11113
0.116431
0.123312
0.132853
0.145751
0.0983436
0.0969131
0.0948159
0.0920793
0.0887445
0.0848345
0.0802833
0.0750102
0.0689699
0.0623921
0.0555699
0.049415
0.0440735
0.0402732
0.0387064
0.0395698
0.0423141
0.0458159
0.0491485
0.052358
0.0560092
0.0602802
0.0651073
0.0704504
0.0761787
0.0821385
0.0881036
0.0939198
0.0994354
0.104676
0.109879
0.115016
0.119735
0.12399
0.128
0.13192
0.135857
0.140286
0.145805
0.153102
0.163199
0.105283
0.104184
0.102571
0.100455
0.0978582
0.0947988
0.0912322
0.0871176
0.0823468
0.0768725
0.0707213
0.0641276
0.0578834
0.0521405
0.0475402
0.0448696
0.0446987
0.0470676
0.0513976
0.0567394
0.0624587
0.0685335
0.0751333
0.0823812
0.0901954
0.0984036
0.106798
0.115183
0.123365
0.131156
0.13836
0.144756
0.150038
0.154334
0.158331
0.162237
0.165658
0.168822
0.172407
0.177009
0.183034
0.111301
0.110467
0.109243
0.107631
0.105647
0.103305
0.100569
0.0974123
0.0937874
0.0896155
0.0848128
0.0793153
0.0732724
0.06688
0.0609918
0.0558297
0.0521085
0.0506081
0.051875
0.0560254
0.0627263
0.0709674
0.079805
0.0891894
0.099185
0.109679
0.120492
0.131429
0.142275
0.152815
0.16284
0.172141
0.180518
0.18784
0.193969
0.198692
0.20183
0.203708
0.205915
0.208618
0.211811
0.116434
0.115804
0.114882
0.113664
0.112164
0.110396
0.108332
0.105953
0.103236
0.100143
0.0966124
0.0925341
0.0878353
0.0824708
0.0765994
0.0707454
0.0652581
0.060665
0.0577554
0.0573552
0.0601672
0.0663129
0.0753268
0.0865309
0.0989878
0.112043
0.12544
0.138997
0.152487
0.165694
0.178426
0.190499
0.20174
0.212019
0.221213
0.229214
0.235969
0.241527
0.245968
0.249316
0.251891
0.120763
0.12029
0.119596
0.118678
0.117547
0.116219
0.114675
0.112902
0.110888
0.108612
0.106048
0.103138
0.0997947
0.0959263
0.0914574
0.0864355
0.0809119
0.0754878
0.0704473
0.0664034
0.0642178
0.0647394
0.0684605
0.0756353
0.0862582
0.0998944
0.115559
0.132077
0.148635
0.164851
0.180526
0.195493
0.209594
0.222729
0.234808
0.245731
0.255438
0.263961
0.271295
0.277445
0.282557
0.124227
0.12387
0.123334
0.122624
0.121754
0.120736
0.119562
0.118233
0.116728
0.115041
0.113159
0.111054
0.108686
0.105995
0.102893
0.0993124
0.0951682
0.0907263
0.0855774
0.080484
0.0758103
0.0723006
0.0706728
0.0714839
0.0752871
0.0825442
0.0934724
0.107853
0.124902
0.143405
0.162167
0.180387
0.197673
0.213902
0.228996
0.242861
0.255443
0.266797
0.276902
0.28576
0.293435
0.12689
0.126602
0.126176
0.125612
0.124931
0.12413
0.12321
0.122176
0.121016
0.119729
0.118306
0.116732
0.114987
0.113047
0.110869
0.108395
0.105535
0.102284
0.0987281
0.0946802
0.0899727
0.0853157
0.0812724
0.0782498
0.0767337
0.0772498
0.0803485
0.0865393
0.0961543
0.109184
0.125168
0.143224
0.162251
0.181265
0.199538
0.216618
0.232309
0.246667
0.259658
0.271258
0.281506
0.128967
0.128728
0.128379
0.127922
0.127371
0.126724
0.12599
0.125163
0.124246
0.123232
0.12212
0.120902
0.119567
0.118102
0.116492
0.114712
0.112717
0.110446
0.107902
0.105046
0.101907
0.0983626
0.0945607
0.0904857
0.0869496
0.0841519
0.0824403
0.0822294
0.0839714
0.0881068
0.0949783
0.104725
0.117202
0.132008
0.148475
0.165771
0.183095
0.19994
0.215809
0.230347
0.243351
0.130625
0.130423
0.130132
0.129759
0.129303
0.12877
0.128166
0.12749
0.126745
0.125931
0.12504
0.124072
0.123021
0.121879
0.120638
0.119288
0.117814
0.116187
0.114378
0.112343
0.110085
0.107759
0.105287
0.102487
0.0994387
0.0962552
0.0931204
0.0904027
0.0883491
0.08724
0.0873771
0.0890658
0.0925727
0.0980942
0.105686
0.11522
0.126394
0.138918
0.152288
0.165952
0.179301
0.131976
0.131803
0.131559
0.131245
0.130862
0.130419
0.129915
0.129356
0.128739
0.128067
0.127341
0.126558
0.125711
0.124798
0.123815
0.12276
0.121622
0.120391
0.119053
0.117583
0.115956
0.114229
0.11245
0.110669
0.108802
0.106752
0.104487
0.102058
0.0995584
0.0969874
0.0948016
0.0930887
0.0920018
0.0917149
0.0924001
0.0941961
0.0971799
0.101415
0.106845
0.113356
0.120867
0.133097
0.132947
0.132742
0.132473
0.13215
0.131773
0.131349
0.130876
0.130359
0.1298
0.129196
0.128548
0.127854
0.127114
0.126322
0.125477
0.124574
0.123608
0.122574
0.121462
0.120259
0.118986
0.117675
0.116338
0.114974
0.113576
0.112241
0.110828
0.109289
0.107589
0.105778
0.103909
0.102042
0.100153
0.0985479
0.0972696
0.0963885
0.0959689
0.0960801
0.0967717
0.0981405
0.134041
0.133911
0.133734
0.133502
0.133223
0.132902
0.132538
0.132136
0.131696
0.131221
0.130713
0.130171
0.129596
0.128985
0.128336
0.127647
0.126918
0.126145
0.125325
0.124454
0.123528
0.122565
0.121586
0.120586
0.119569
0.11854
0.117519
0.1165
0.115479
0.114509
0.11351
0.112447
0.111313
0.11009
0.108807
0.107497
0.106192
0.104903
0.103661
0.102483
0.10148
0.134847
0.134734
0.134578
0.134378
0.134138
0.133857
0.133543
0.133194
0.132816
0.13241
0.131977
0.131516
0.13103
0.130517
0.129978
0.129411
0.128815
0.128188
0.127528
0.126833
0.126101
0.125347
0.12459
0.123827
0.12306
0.122292
0.121547
0.120827
0.120109
0.119378
0.118645
0.117912
0.117181
0.116454
0.115762
0.115059
0.114332
0.113568
0.112771
0.111945
0.111035
0.135544
0.135443
0.135306
0.135129
0.134916
0.134672
0.134396
0.134093
0.133765
0.133415
0.133041
0.132646
0.132231
0.131796
0.131341
0.130867
0.130373
0.129855
0.129316
0.128753
0.128164
0.127563
0.126963
0.126364
0.125768
0.125177
0.1246
0.12407
0.123574
0.123094
0.12262
0.122147
0.121676
0.121205
0.12074
0.120273
0.119784
0.119286
0.118786
0.118286
0.117752
0.13615
0.136061
0.135938
0.135781
0.135592
0.135375
0.135132
0.134866
0.13458
0.134275
0.133949
0.133607
0.133249
0.132877
0.132489
0.132086
0.131668
0.131237
0.13079
0.130327
0.129848
0.129362
0.128881
0.128402
0.127928
0.127462
0.127007
0.126586
0.126202
0.125846
0.12551
0.12519
0.12488
0.124579
0.124283
0.123994
0.12371
0.123427
0.123145
0.122865
0.122579
0.136681
0.136603
0.136493
0.136353
0.136185
0.135991
0.135774
0.135537
0.135283
0.135012
0.134727
0.134429
0.134118
0.133796
0.133461
0.133116
0.132761
0.132396
0.132021
0.131636
0.131239
0.13084
0.130446
0.130059
0.129679
0.129311
0.128963
0.128639
0.128335
0.128051
0.127783
0.127531
0.127293
0.127067
0.126852
0.126648
0.126454
0.126267
0.126089
0.125917
0.12575
0.13715
0.137082
0.136986
0.136861
0.13671
0.136536
0.136342
0.13613
0.135901
0.135659
0.135405
0.13514
0.134866
0.134583
0.134292
0.133994
0.133689
0.133378
0.133059
0.132733
0.132402
0.13207
0.131744
0.131427
0.131121
0.130836
0.130572
0.130324
0.13009
0.129867
0.129654
0.12945
0.129257
0.129072
0.128896
0.12873
0.128572
0.128422
0.128279
0.128145
0.128017
0.137567
0.13751
0.137426
0.137315
0.13718
0.137024
0.136849
0.136658
0.136452
0.136234
0.136006
0.135768
0.135523
0.135271
0.135014
0.134752
0.134486
0.134216
0.133942
0.133664
0.133384
0.133105
0.132832
0.13257
0.132326
0.132103
0.131897
0.131704
0.131521
0.131346
0.131179
0.131018
0.130864
0.130715
0.130572
0.130434
0.130303
0.130176
0.130055
0.129939
0.129829
0.137941
0.137894
0.137822
0.137726
0.137606
0.137466
0.137308
0.137135
0.136949
0.136751
0.136544
0.13633
0.136109
0.135883
0.135652
0.135419
0.135183
0.134945
0.134705
0.134465
0.134223
0.133984
0.133753
0.133536
0.133339
0.133161
0.132996
0.132841
0.132695
0.132555
0.132421
0.132292
0.132167
0.132047
0.131931
0.131819
0.131711
0.131605
0.131503
0.131404
0.131309
0.138279
0.138241
0.138181
0.138097
0.137992
0.137868
0.137727
0.137571
0.137401
0.137221
0.137033
0.136837
0.136637
0.136432
0.136224
0.136014
0.135803
0.135591
0.135378
0.135166
0.134954
0.134746
0.134547
0.134365
0.134202
0.134055
0.133919
0.133791
0.13367
0.133555
0.133444
0.133337
0.133235
0.133135
0.133039
0.132945
0.132854
0.132764
0.132677
0.132591
0.132508
0.138585
0.138557
0.138508
0.138438
0.138347
0.138237
0.138111
0.137971
0.137818
0.137654
0.137481
0.137302
0.137118
0.136931
0.136742
0.136551
0.13636
0.13617
0.135979
0.13579
0.135602
0.135418
0.135244
0.135087
0.134948
0.134822
0.134706
0.134598
0.134495
0.134397
0.134303
0.134212
0.134125
0.134039
0.133956
0.133875
0.133796
0.133717
0.13364
0.133563
0.133488
0.138864
0.138846
0.13881
0.138753
0.138675
0.138579
0.138466
0.13834
0.138201
0.138053
0.137895
0.13773
0.137561
0.137389
0.137216
0.137041
0.136867
0.136694
0.136522
0.136352
0.136184
0.136019
0.135863
0.135724
0.135601
0.13549
0.135389
0.135294
0.135205
0.135119
0.135037
0.134958
0.134881
0.134805
0.134732
0.13466
0.134588
0.134517
0.134446
0.134376
0.134305
0.139119
0.139115
0.139092
0.139046
0.13898
0.138896
0.138795
0.138682
0.138556
0.138422
0.138278
0.138127
0.137971
0.137812
0.137652
0.137492
0.137332
0.137174
0.137017
0.136862
0.13671
0.136562
0.136421
0.136292
0.13618
0.13608
0.135988
0.135904
0.135823
0.135747
0.135673
0.135602
0.135533
0.135465
0.135399
0.135333
0.135267
0.135202
0.135136
0.13507
0.135001
0.139356
0.139366
0.139355
0.13932
0.139264
0.13919
0.139101
0.138999
0.138886
0.138764
0.138634
0.138496
0.138353
0.138206
0.138058
0.13791
0.137762
0.137616
0.137472
0.13733
0.137192
0.137057
0.136928
0.136807
0.1367
0.136606
0.136521
0.136443
0.13637
0.1363
0.136233
0.136168
0.136104
0.136042
0.13598
0.135919
0.135858
0.135797
0.135735
0.135673
0.135604
0.139577
0.139601
0.139598
0.139572
0.139526
0.139464
0.139388
0.139299
0.139198
0.139087
0.138969
0.138843
0.138712
0.138577
0.13844
0.138301
0.138164
0.138028
0.137895
0.137764
0.137636
0.137513
0.137395
0.137282
0.137178
0.137085
0.137003
0.136929
0.136859
0.136794
0.136731
0.13667
0.136611
0.136553
0.136495
0.136438
0.13638
0.136322
0.136263
0.136204
0.136138
0.139784
0.139815
0.139818
0.139801
0.13977
0.139725
0.139666
0.139592
0.139505
0.139405
0.139297
0.139181
0.139059
0.138934
0.138806
0.138677
0.138548
0.13842
0.138295
0.138172
0.138053
0.137939
0.137829
0.137725
0.137626
0.137534
0.13745
0.137375
0.137307
0.137243
0.137183
0.137125
0.137069
0.137014
0.136959
0.136904
0.136849
0.136795
0.136742
0.136694
0.136651
0.13996
0.139991
0.139999
0.139997
0.139987
0.139966
0.139933
0.139884
0.139817
0.139733
0.139633
0.139525
0.13941
0.139291
0.13917
0.139048
0.138926
0.138805
0.138686
0.138569
0.138456
0.138347
0.138244
0.138146
0.138053
0.137965
0.137882
0.137805
0.137733
0.137668
0.137607
0.13755
0.137494
0.13744
0.137388
0.137338
0.137292
0.137254
0.137224
0.137206
0.137211
0.140058
0.140078
0.14009
0.140096
0.140098
0.140095
0.140087
0.140072
0.140049
0.140016
0.13997
0.139901
0.139808
0.139697
0.139579
0.139459
0.139339
0.139219
0.139102
0.138987
0.138875
0.138768
0.138666
0.13857
0.138479
0.138393
0.138313
0.138237
0.138167
0.138101
0.138039
0.137982
0.137929
0.13788
0.137838
0.137805
0.137781
0.137771
0.137776
0.137797
0.137844
0.1401
0.140117
0.140131
0.140142
0.14015
0.140155
0.140156
0.140154
0.140147
0.140135
0.140117
0.140092
0.140057
0.140008
0.139941
0.139856
0.139755
0.139647
0.139538
0.13943
0.139324
0.13922
0.139121
0.139027
0.138937
0.138853
0.138774
0.1387
0.138632
0.13857
0.138513
0.138464
0.138423
0.138392
0.138373
0.138368
0.138378
0.138403
0.13844
0.138483
0.138541
0.140122
0.14014
0.140156
0.14017
0.140182
0.140192
0.1402
0.140204
0.140206
0.140204
0.140198
0.140189
0.140175
0.140156
0.140131
0.140097
0.140053
0.139998
0.139932
0.139856
0.139772
0.139684
0.139598
0.139515
0.139435
0.13936
0.13929
0.139227
0.13917
0.139121
0.139081
0.139051
0.139033
0.139027
0.139034
0.139049
0.139071
0.139099
0.139132
0.139169
0.139219
0.140131
0.140149
0.140166
0.140182
0.140197
0.140211
0.140223
0.140234
0.140241
0.140247
0.140249
0.140248
0.140244
0.140236
0.140226
0.140213
0.140196
0.140175
0.140149
0.140118
0.140081
0.140039
0.139993
0.139945
0.139896
0.139847
0.139802
0.13976
0.139724
0.139695
0.139671
0.139655
0.139644
0.13964
0.139642
0.139649
0.139661
0.139678
0.139699
0.139725
0.139761
0.140128
0.140146
0.140164
0.140182
0.140199
0.140215
0.140231
0.140246
0.140259
0.140269
0.140278
0.140284
0.140287
0.140287
0.140285
0.14028
0.140273
0.140264
0.140254
0.140241
0.140227
0.140211
0.140193
0.140173
0.140153
0.140132
0.140111
0.140092
0.140074
0.140059
0.140046
0.140037
0.140031
0.140028
0.140029
0.140033
0.140041
0.140052
0.140067
0.140086
0.140114
0.140117
0.140133
0.14015
0.140168
0.140186
0.140205
0.140223
0.140241
0.140258
0.140273
0.140287
0.140299
0.140308
0.140315
0.14032
0.140322
0.140322
0.14032
0.140317
0.140312
0.140306
0.1403
0.140293
0.140285
0.140277
0.140269
0.140261
0.140254
0.140247
0.140242
0.140238
0.140235
0.140235
0.140236
0.14024
0.140246
0.140255
0.140266
0.140281
0.140298
0.140324
0.140096
0.14011
0.140125
0.140141
0.140159
0.140177
0.140196
0.140215
0.140235
0.140253
0.140272
0.140288
0.140303
0.140317
0.140328
0.140336
0.140343
0.140347
0.14035
0.140351
0.14035
0.140349
0.140346
0.140344
0.14034
0.140337
0.140335
0.140332
0.140331
0.14033
0.14033
0.140332
0.140335
0.14034
0.140347
0.140356
0.140367
0.14038
0.140396
0.140415
0.140442
0.140065
0.140075
0.140087
0.140099
0.140114
0.140129
0.140145
0.140163
0.140179
0.140196
0.140214
0.140232
0.140251
0.140271
0.14029
0.140309
0.140328
0.140345
0.14036
0.140374
0.140386
0.140396
0.140404
0.140411
0.140417
0.140421
0.140426
0.140429
0.140433
0.140437
0.140442
0.140447
0.140453
0.140461
0.14047
0.140481
0.140494
0.140509
0.140526
0.140546
0.140575
0.140025
0.140029
0.140033
0.140039
0.140045
0.140053
0.140061
0.140069
0.140076
0.140083
0.140081
0.140082
0.140083
0.140086
0.140093
0.140103
0.140115
0.140129
0.140144
0.14016
0.140177
0.140194
0.140211
0.140227
0.140244
0.14026
0.140276
0.140291
0.140307
0.140323
0.140339
0.140356
0.140373
0.140391
0.14041
0.140431
0.140454
0.140479
0.140506
0.140536
0.140574
0.0232912
0.0533987
0.0769936
0.0975543
0.121295
0.148309
0.175039
0.198375
0.216967
0.230824
0.240588
0.247061
0.250988
0.252969
0.25345
0.252727
0.250992
0.248372
0.244966
0.240863
0.236161
0.230964
0.225388
0.219557
0.213597
0.207633
0.201787
0.196168
0.190875
0.185988
0.181566
0.177636
0.174203
0.171246
0.168728
0.166601
0.164814
0.163318
0.16207
0.161033
0.160181
0.159491
0.158944
0.158521
0.158207
0.157987
0.157846
0.157771
0.15775
0.157772
0.157826
0.157902
0.157992
0.158089
0.158188
0.158283
0.158375
0.158463
0.158547
0.158631
0.158718
0.158813
0.158921
0.159047
0.159193
0.15936
0.159545
0.159742
0.159939
0.160112
0.160203
0.160248
0.159945
0.15941
0.0284851
0.0594891
0.0830161
0.103498
0.127177
0.153854
0.17999
0.202685
0.220734
0.234187
0.243674
0.249965
0.253776
0.255686
0.256126
0.255381
0.253636
0.251016
0.247616
0.243529
0.238848
0.233679
0.228134
0.222334
0.216402
0.210459
0.204621
0.198996
0.193678
0.188746
0.184256
0.180238
0.176696
0.173612
0.170954
0.168678
0.166738
0.165088
0.16369
0.162511
0.161525
0.160711
0.160052
0.159531
0.15913
0.158834
0.15863
0.158501
0.158435
0.15842
0.158442
0.158491
0.158558
0.158635
0.158714
0.158793
0.158869
0.158941
0.159012
0.159082
0.159156
0.159239
0.159335
0.15945
0.159586
0.159743
0.159919
0.16011
0.160303
0.160481
0.160603
0.160724
0.160536
0.159868
0.0340177
0.0664276
0.0900122
0.110329
0.133691
0.159776
0.18518
0.207214
0.224775
0.237915
0.247225
0.253431
0.257211
0.259125
0.259588
0.258879
0.257177
0.254607
0.251265
0.247245
0.242642
0.237558
0.232102
0.226391
0.220542
0.214669
0.208882
0.203281
0.197956
0.19298
0.188408
0.184268
0.180569
0.177296
0.174425
0.171917
0.169735
0.16784
0.166199
0.164784
0.163573
0.162548
0.161695
0.160997
0.160439
0.160006
0.159683
0.159454
0.159304
0.159218
0.159182
0.159184
0.159212
0.159256
0.159309
0.159364
0.15942
0.159475
0.15953
0.159586
0.159647
0.159718
0.159803
0.159908
0.160034
0.160182
0.160352
0.160537
0.160727
0.16091
0.161055
0.16123
0.161113
0.160208
0.0404754
0.0743873
0.09802
0.118105
0.140935
0.166196
0.190732
0.212071
0.22918
0.242079
0.251296
0.2575
0.261328
0.263315
0.263863
0.263247
0.261641
0.259172
0.255939
0.252039
0.247566
0.242623
0.237314
0.231747
0.226033
0.220279
0.214585
0.209041
0.203729
0.198717
0.194054
0.18977
0.185877
0.182365
0.179217
0.176406
0.173902
0.171675
0.1697
0.167956
0.166426
0.165097
0.163959
0.163
0.162205
0.161562
0.161055
0.160668
0.160385
0.160188
0.160062
0.159991
0.159959
0.159956
0.15997
0.159995
0.160025
0.160059
0.160096
0.160136
0.160183
0.160241
0.160314
0.160408
0.160525
0.160665
0.160828
0.161008
0.161194
0.161377
0.161539
0.161747
0.161657
0.160442
0.0487093
0.0835716
0.107073
0.126873
0.149005
0.17324
0.196776
0.21737
0.234037
0.24674
0.255924
0.26219
0.26613
0.268251
0.268943
0.268472
0.267013
0.264691
0.261614
0.257881
0.253589
0.248837
0.243724
0.238352
0.232822
0.227231
0.221669
0.216216
0.210944
0.20591
0.201161
0.196726
0.19262
0.188839
0.185373
0.182205
0.179316
0.176686
0.174299
0.172142
0.170204
0.168479
0.166962
0.165648
0.164528
0.16359
0.162822
0.162208
0.161731
0.161372
0.161112
0.160932
0.160815
0.160743
0.160704
0.160687
0.160684
0.160691
0.160705
0.160726
0.160756
0.160799
0.160859
0.16094
0.161047
0.161179
0.161335
0.161508
0.161689
0.161868
0.162037
0.162258
0.162148
0.160585
0.0595976
0.0941327
0.117192
0.136665
0.15798
0.181028
0.203442
0.223226
0.239429
0.251944
0.261124
0.267492
0.271588
0.273891
0.274774
0.274494
0.273223
0.271091
0.268209
0.264683
0.260612
0.256092
0.251217
0.24608
0.240774
0.235384
0.229991
0.224664
0.219461
0.21443
0.209614
0.20504
0.200725
0.196671
0.192874
0.189326
0.186019
0.182942
0.180088
0.177451
0.17503
0.172826
0.170841
0.169079
0.167537
0.16621
0.165091
0.164166
0.163419
0.162831
0.162381
0.162046
0.161805
0.161636
0.161522
0.161446
0.161397
0.161369
0.161354
0.161352
0.161361
0.161387
0.16143
0.161497
0.16159
0.161712
0.16186
0.162025
0.162199
0.16237
0.162539
0.162752
0.162578
0.160654
0.073331
0.106083
0.128382
0.147485
0.167904
0.189658
0.210846
0.229738
0.245422
0.257719
0.266884
0.273361
0.277634
0.280148
0.281254
0.281199
0.280147
0.278233
0.275575
0.272284
0.268461
0.264201
0.259593
0.254721
0.249667
0.244508
0.239315
0.234148
0.22905
0.224059
0.219209
0.214528
0.210035
0.205734
0.201628
0.197713
0.193989
0.190456
0.187114
0.183965
0.181013
0.178268
0.17574
0.173444
0.171387
0.169573
0.168002
0.166668
0.165558
0.164658
0.163944
0.163391
0.162975
0.162667
0.162445
0.162286
0.162175
0.162098
0.162046
0.162012
0.161996
0.161999
0.162022
0.16207
0.162148
0.162256
0.162393
0.16255
0.162714
0.162874
0.163035
0.163216
0.162943
0.160667
0.0894388
0.119294
0.140623
0.159286
0.17877
0.199182
0.219068
0.236976
0.252053
0.264059
0.273159
0.279716
0.284158
0.286889
0.288232
0.288415
0.287596
0.285913
0.283491
0.280447
0.276885
0.272899
0.26857
0.263977
0.259192
0.254283
0.249315
0.24434
0.239387
0.234481
0.229647
0.224912
0.220296
0.215807
0.211447
0.207218
0.203122
0.199168
0.19536
0.191706
0.188216
0.184904
0.181789
0.178897
0.176245
0.173851
0.171725
0.169875
0.168296
0.166979
0.165906
0.165052
0.164389
0.163885
0.16351
0.163234
0.163033
0.162889
0.162785
0.16271
0.162661
0.162635
0.162632
0.162657
0.162715
0.162805
0.162929
0.163074
0.163227
0.163372
0.163518
0.163638
0.163249
0.16064
0.10705
0.133574
0.15382
0.171959
0.190497
0.209568
0.228109
0.244942
0.259298
0.270905
0.279852
0.286428
0.291003
0.293932
0.2955
0.295911
0.295316
0.293855
0.291662
0.288858
0.285551
0.281831
0.277779
0.273463
0.26895
0.2643
0.259572
0.254816
0.250051
0.245283
0.240529
0.235812
0.231152
0.226561
0.222041
0.217589
0.213209
0.208915
0.204713
0.200612
0.196626
0.192771
0.189071
0.185558
0.182265
0.17922
0.17645
0.173976
0.171812
0.16996
0.168413
0.167151
0.166147
0.165366
0.164772
0.164328
0.164
0.163759
0.163583
0.163453
0.163359
0.163295
0.16326
0.163256
0.163287
0.163356
0.163462
0.163594
0.163734
0.163862
0.163975
0.164016
0.163503
0.16059
0.125254
0.148669
0.16778
0.185304
0.202898
0.220664
0.237845
0.25352
0.267034
0.278114
0.286799
0.293313
0.297963
0.301045
0.302798
0.303398
0.30299
0.301716
0.29972
0.297127
0.294047
0.290569
0.286768
0.282711
0.278456
0.27406
0.269575
0.265058
0.260524
0.255955
0.251355
0.246744
0.24214
0.237558
0.233
0.228455
0.223922
0.219413
0.214939
0.210505
0.206122
0.201807
0.197581
0.193483
0.189553
0.18583
0.182358
0.179175
0.176316
0.173805
0.171651
0.169851
0.168384
0.16722
0.166317
0.165631
0.165119
0.16474
0.16446
0.164253
0.164099
0.163986
0.163909
0.163868
0.163866
0.163905
0.163989
0.164105
0.164232
0.164332
0.164401
0.16435
0.163714
0.160531
0.143355
0.164178
0.182168
0.198988
0.215634
0.232141
0.247968
0.262426
0.274993
0.285435
0.293761
0.300134
0.304789
0.307956
0.309822
0.310537
0.310246
0.309099
0.307242
0.304806
0.301901
0.298615
0.295021
0.291181
0.287152
0.282985
0.278733
0.274462
0.270198
0.265892
0.261527
0.257119
0.252685
0.248243
0.243797
0.239322
0.234803
0.23025
0.225673
0.221072
0.21645
0.211819
0.207197
0.202618
0.198124
0.193763
0.189587
0.185654
0.182021
0.178739
0.175845
0.17336
0.171284
0.169598
0.168264
0.167235
0.166457
0.165879
0.16545
0.165133
0.164895
0.164717
0.164586
0.164497
0.164453
0.164454
0.164508
0.164605
0.164713
0.164777
0.164792
0.164645
0.163892
0.160478
0.160768
0.179541
0.196453
0.21248
0.228153
0.243437
0.257941
0.271172
0.282755
0.292514
0.30044
0.306625
0.311219
0.314379
0.316251
0.316975
0.316702
0.31559
0.313789
0.311432
0.308624
0.305454
0.301995
0.298306
0.294445
0.290462
0.286408
0.282366
0.278401
0.274415
0.270365
0.266261
0.262118
0.257955
0.253787
0.249571
0.245265
0.240872
0.236404
0.23185
0.227201
0.222461
0.21764
0.212761
0.207859
0.202981
0.198182
0.193532
0.189106
0.184984
0.181238
0.177924
0.175077
0.172703
0.170782
0.169272
0.168116
0.167248
0.166604
0.166128
0.165773
0.165505
0.165302
0.165153
0.165054
0.165008
0.165022
0.165094
0.165174
0.165194
0.16515
0.164904
0.164049
0.160442
0.177076
0.194139
0.209929
0.225029
0.239673
0.253767
0.267024
0.279122
0.289822
0.299
0.306608
0.312625
0.317092
0.320121
0.321852
0.322443
0.32206
0.320869
0.319019
0.316635
0.313819
0.31066
0.30723
0.303592
0.299804
0.295922
0.291996
0.288122
0.284463
0.280837
0.277163
0.273448
0.269707
0.265958
0.262234
0.258477
0.254604
0.2506
0.246482
0.24223
0.237811
0.233222
0.228461
0.223534
0.218464
0.213283
0.20804
0.202802
0.197656
0.192704
0.188052
0.183799
0.180026
0.176785
0.174092
0.171926
0.170236
0.168953
0.167997
0.167291
0.166767
0.166375
0.166076
0.165848
0.165681
0.165573
0.165534
0.165569
0.165611
0.165583
0.165477
0.165136
0.164193
0.160433
0.193469
0.208067
0.222249
0.236105
0.249573
0.262487
0.274654
0.285911
0.296104
0.30505
0.312555
0.318427
0.32263
0.325329
0.326726
0.327016
0.326378
0.324973
0.322941
0.320394
0.317429
0.314131
0.310575
0.30683
0.302962
0.299033
0.295101
0.291248
0.28787
0.284593
0.281303
0.278018
0.274751
0.271513
0.268373
0.265267
0.262043
0.25866
0.255142
0.251469
0.247571
0.243429
0.239035
0.234375
0.22945
0.22427
0.218861
0.213278
0.207601
0.201941
0.196427
0.191201
0.186397
0.182126
0.178463
0.175432
0.173014
0.171145
0.16974
0.1687
0.167934
0.167366
0.166934
0.166602
0.166347
0.166162
0.166052
0.166032
0.166028
0.165947
0.165778
0.165347
0.164334
0.160459
0.219249
0.231656
0.243764
0.255617
0.267113
0.278092
0.288389
0.297881
0.306484
0.314125
0.320751
0.325922
0.329341
0.331293
0.332037
0.331773
0.330662
0.32884
0.32642
0.3235
0.320162
0.316487
0.312554
0.308445
0.304239
0.300014
0.295835
0.291707
0.288539
0.28548
0.282472
0.279558
0.276744
0.274031
0.271544
0.269234
0.266835
0.264268
0.261576
0.258757
0.255675
0.252288
0.248592
0.24455
0.240136
0.235332
0.230128
0.224549
0.218653
0.21254
0.206344
0.200233
0.194388
0.188988
0.184183
0.180074
0.176698
0.174028
0.171988
0.170469
0.169352
0.168531
0.167916
0.167443
0.167074
0.16679
0.16659
0.166491
0.166428
0.166291
0.166059
0.165545
0.164479
0.160528
0.257674
0.267629
0.277275
0.286554
0.295375
0.303631
0.311214
0.318028
0.323987
0.328991
0.332947
0.335786
0.337508
0.338188
0.337927
0.336826
0.33498
0.33248
0.32941
0.32585
0.321881
0.31759
0.313074
0.308432
0.303765
0.299173
0.294766
0.290671
0.287142
0.283906
0.280915
0.278165
0.275642
0.273337
0.271424
0.269955
0.268444
0.26679
0.265059
0.263326
0.261315
0.25896
0.256282
0.25321
0.249693
0.245677
0.241109
0.235969
0.230275
0.224094
0.217544
0.210791
0.204044
0.197538
0.191505
0.18614
0.181574
0.177855
0.174948
0.172753
0.171134
0.16995
0.169076
0.168412
0.167893
0.167482
0.167167
0.16696
0.166822
0.166622
0.166327
0.165737
0.164636
0.160644
0.288414
0.295992
0.303111
0.309779
0.315965
0.321612
0.326655
0.331028
0.334673
0.33754
0.339582
0.34077
0.3411
0.340594
0.33929
0.337233
0.334476
0.331087
0.327145
0.322736
0.317955
0.312911
0.30772