/*--------------------------------*- C++ -*----------------------------------*\
| =========                 |                                                 |
| \\      /  F ield         | OpenFOAM: The Open Source CFD Toolbox           |
|  \\    /   O peration     | Version:  5.x                                   |
|   \\  /    A nd           | Web:      www.OpenFOAM.org                      |
|    \\/     M anipulation  |                                                 |
\*---------------------------------------------------------------------------*/
FoamFile
{
    version     2.0;
    format      ascii;
    class       volScalarField;
    location    "450";
    object      nut;
}
// * * * * * * * * * * * * * * * * * * * * * * * * * * * * * * * * * * * * * //

dimensions      [0 2 -1 0 0 0 0];

internalField   nonuniform List<scalar> 
11040
(
0.00235953
0.00283648
0.00306839
0.00311725
0.00302672
0.00287132
0.00270055
0.00256103
0.00244005
0.00230984
0.00213606
0.00196189
0.001829
0.00173447
0.00164468
0.0015558
0.00146788
0.0013836
0.00130282
0.00122393
0.00114524
0.00107496
0.001012
0.000949016
0.000885045
0.000818999
0.000747259
0.000642545
0.00047179
0.000411988
0.00036538
0.000331521
0.000304866
0.000276644
0.000250653
0.000233338
0.000244552
0.0002942
0.00034827
0.000388074
0.000565099
0.00622304
0.00666405
0.00607896
0.00547977
0.00488151
0.0043655
0.00392149
0.00382511
0.00382606
0.00378974
0.00369208
0.00354558
0.003425
0.0033061
0.00316237
0.00301452
0.00287718
0.00275369
0.00264259
0.00254163
0.00244928
0.00237219
0.00230516
0.00224224
0.00218311
0.00212649
0.00206932
0.0019973
0.00188521
0.00180129
0.00173909
0.00171086
0.00162341
0.00152115
0.0013862
0.00126885
0.00122884
0.00132412
0.00151085
0.00182748
0.00245574
0.012811
0.0134937
0.0126674
0.0116317
0.0104873
0.0093536
0.00830964
0.00738142
0.00658517
0.00589763
0.00526244
0.00474414
0.00463098
0.00459101
0.00452787
0.00445456
0.00437368
0.0042905
0.00421055
0.00413637
0.00406795
0.0040129
0.00396336
0.00391337
0.00386295
0.00381214
0.00375997
0.00370263
0.00363392
0.00356965
0.0035111
0.00346443
0.0034068
0.00334553
0.00323876
0.00306498
0.00301801
0.00323916
0.00353273
0.00387425
0.00470529
0.0204955
0.0212626
0.0203587
0.0189957
0.0174076
0.0157739
0.0141981
0.0127085
0.0113303
0.0100564
0.00881506
0.00773367
0.00693692
0.00634298
0.00604919
0.00592165
0.00582953
0.00575859
0.00570285
0.00565759
0.00561965
0.00559314
0.00557008
0.00554508
0.00551677
0.00548478
0.00544846
0.00540651
0.00535732
0.00530496
0.00525206
0.00520464
0.00516366
0.00513833
0.00510373
0.00500445
0.00496014
0.00521406
0.00567897
0.00637754
0.00721026
0.0290438
0.0298097
0.0289083
0.0273403
0.0254187
0.0233444
0.0212546
0.0191822
0.017218
0.0153742
0.0135629
0.0119415
0.0106479
0.00962836
0.00877647
0.00807091
0.00763893
0.00743175
0.00731039
0.00723255
0.00718405
0.00715988
0.00714608
0.0071344
0.00712197
0.0071072
0.00708843
0.007064
0.00703258
0.0069949
0.00695336
0.0069143
0.00688687
0.00688713
0.00691199
0.00690515
0.00690808
0.00718175
0.00783085
0.00891939
0.0100004
0.0381962
0.0389206
0.0380703
0.0364205
0.0342946
0.0318439
0.0292533
0.0266617
0.0241641
0.0217768
0.0194002
0.0172107
0.0153891
0.0139248
0.0126699
0.0115794
0.0106675
0.00988245
0.00942048
0.00915901
0.00900203
0.00891024
0.00885169
0.00880872
0.00877765
0.00875426
0.00873427
0.00871402
0.00869068
0.00866298
0.0086319
0.00860272
0.00858619
0.00860169
0.00866475
0.00874301
0.00882713
0.00911322
0.00983935
0.0111448
0.013174
0.0477304
0.048375
0.0476006
0.0459715
0.0437462
0.0411005
0.0382305
0.0352753
0.0323492
0.0294844
0.0265823
0.0238353
0.0214676
0.0194975
0.0177736
0.0162499
0.014905
0.0137066
0.0126705
0.0118682
0.0114187
0.0111404
0.010941
0.0107925
0.0106842
0.0106006
0.0105333
0.0104769
0.010427
0.0103809
0.010338
0.0103019
0.0102816
0.0102949
0.0103663
0.0104955
0.0106632
0.01097
0.0116663
0.0129536
0.0152337
0.0573716
0.0579385
0.0572563
0.0557218
0.0535289
0.0508692
0.0479136
0.0447815
0.0415906
0.0383823
0.0350657
0.0318383
0.0289579
0.0264761
0.0242556
0.0222577
0.0204593
0.0188353
0.0173624
0.0160365
0.0149036
0.0141693
0.0137118
0.0133845
0.013132
0.0129257
0.01275
0.0125962
0.0124588
0.012335
0.0122247
0.0121309
0.0120615
0.0120312
0.0120637
0.0121809
0.0123824
0.0127042
0.0133158
0.0144179
0.0164509
0.0669133
0.0673923
0.0667993
0.0654043
0.063353
0.0608203
0.0579441
0.0548183
0.0515475
0.0481688
0.0446014
0.0410326
0.0377351
0.034794
0.0321053
0.0296423
0.0273882
0.0253232
0.0234255
0.0216746
0.0200571
0.0187394
0.0177909
0.0171085
0.0165964
0.0161797
0.0158174
0.0154887
0.0151838
0.0148988
0.0146339
0.0143934
0.0141863
0.0140267
0.0139353
0.0139405
0.0140651
0.0143303
0.0148198
0.0156626
0.0171873
0.0761123
0.0765069
0.0759995
0.0747691
0.0729266
0.0706185
0.067949
0.0649842
0.0618061
0.0584215
0.0547778
0.0510399
0.0474728
0.0441923
0.0411479
0.0382971
0.0356356
0.0331581
0.0308502
0.0286952
0.0266746
0.0249635
0.0235752
0.0224327
0.0215315
0.0207973
0.0201645
0.0195912
0.0190533
0.0185391
0.0180446
0.0175725
0.0171315
0.0167362
0.0164063
0.0161708
0.0160641
0.0161169
0.0163784
0.0169109
0.0178791
0.0847695
0.0850893
0.0846616
0.0836032
0.0819999
0.0799695
0.077588
0.0748798
0.071912
0.0687095
0.0652041
0.0615202
0.0578912
0.0544369
0.0511295
0.0479838
0.0450063
0.0422066
0.0395537
0.0370386
0.0346525
0.0326142
0.0309077
0.0293709
0.0280672
0.0269739
0.0260269
0.0251721
0.0243726
0.023605
0.0228567
0.0221234
0.0214083
0.0207216
0.0200783
0.0195054
0.0190384
0.018713
0.0185768
0.0186745
0.019052
0.0927391
0.0929953
0.0926377
0.0917438
0.0903819
0.0886452
0.0865888
0.0842123
0.0815737
0.0786848
0.0754808
0.072048
0.0685711
0.0651543
0.061785
0.0584978
0.0553178
0.0522629
0.0493379
0.0465406
0.0438682
0.0415593
0.0395916
0.0377484
0.0360571
0.0346025
0.0333431
0.0322157
0.0311705
0.0301733
0.0292016
0.0282423
0.0272901
0.0263461
0.0254151
0.0245157
0.023676
0.022923
0.0223005
0.0218581
0.0215639
0.0999344
0.100133
0.0998317
0.0990856
0.0979491
0.0964956
0.094765
0.0927468
0.0904874
0.0879901
0.0851952
0.0821549
0.0789911
0.0757959
0.0725703
0.0693599
0.0661785
0.0630492
0.0599902
0.0570131
0.0541237
0.0515981
0.0494339
0.0473922
0.0454571
0.0436344
0.0419746
0.0405279
0.0392421
0.0380531
0.036916
0.0358025
0.0346984
0.0335919
0.0324767
0.0313603
0.0302589
0.0291834
0.0281611
0.0272402
0.0263138
0.106317
0.106457
0.106199
0.105582
0.104646
0.10345
0.102022
0.100349
0.0984692
0.0963805
0.0940313
0.0914356
0.0887
0.0858793
0.0829697
0.0800036
0.0770074
0.074014
0.0710246
0.0680533
0.0651128
0.0624984
0.0602292
0.058073
0.0560143
0.0540402
0.0521462
0.0503419
0.0486715
0.0471917
0.0458567
0.044604
0.0433923
0.0421956
0.040994
0.0397829
0.0385654
0.0373367
0.036105
0.0349062
0.0335769
0.111865
0.111965
0.111747
0.111241
0.110481
0.109508
0.108344
0.106981
0.105447
0.103741
0.101808
0.0996748
0.0974062
0.095033
0.0925457
0.0899636
0.0873057
0.0845905
0.0818342
0.0790503
0.0762585
0.0737303
0.0714908
0.0693366
0.0672625
0.065268
0.0633364
0.0614582
0.0596317
0.0578672
0.0561811
0.0546359
0.0532412
0.0519398
0.0506782
0.0494313
0.0481875
0.0469284
0.0456479
0.0443662
0.0429079
0.116647
0.116714
0.116528
0.116113
0.115507
0.114716
0.113773
0.112673
0.111438
0.110066
0.108515
0.106804
0.104977
0.103049
0.101
0.0988497
0.096619
0.0943061
0.0919197
0.0894693
0.0869649
0.0846592
0.0825895
0.080577
0.0786201
0.0767162
0.0748613
0.0730498
0.0712752
0.0695315
0.0678151
0.0661367
0.0645026
0.0629215
0.0614365
0.0600715
0.0587855
0.0575263
0.0562663
0.0550073
0.0535934
0.120736
0.120777
0.120617
0.120275
0.119782
0.119144
0.118386
0.117506
0.116521
0.115429
0.114201
0.112851
0.111409
0.109873
0.10824
0.106518
0.104711
0.102823
0.100867
0.0988356
0.0967315
0.094762
0.0929673
0.0912044
0.0894744
0.087776
0.0861081
0.084469
0.0828557
0.0812646
0.0796912
0.0781316
0.076583
0.0750432
0.0735111
0.0719995
0.0705187
0.0690677
0.0676909
0.0664081
0.06505
0.12405
0.124076
0.123939
0.123657
0.123253
0.122735
0.12212
0.121416
0.12062
0.119741
0.118759
0.117685
0.116542
0.115324
0.114032
0.112668
0.111234
0.10973
0.108159
0.10652
0.104814
0.1032
0.101713
0.100242
0.098788
0.0973525
0.0959348
0.0945389
0.0931586
0.0917915
0.0904355
0.0890879
0.0877461
0.0864063
0.0850597
0.0837068
0.0823508
0.0809831
0.0796086
0.0782431
0.076819
0.126634
0.126649
0.126533
0.126298
0.125962
0.12554
0.125031
0.12445
0.123797
0.123079
0.122287
0.121419
0.120495
0.119515
0.118478
0.117385
0.116239
0.115038
0.113781
0.112469
0.111101
0.109797
0.108588
0.107386
0.106196
0.105016
0.103847
0.10269
0.101542
0.100404
0.0992778
0.0981576
0.0970415
0.0959266
0.0948064
0.0936804
0.0925495
0.0914034
0.0902387
0.0890582
0.0878179
0.12868
0.128689
0.12859
0.128391
0.128108
0.127752
0.127326
0.12684
0.126301
0.125705
0.12505
0.124337
0.12358
0.122784
0.121939
0.121051
0.120122
0.119152
0.118139
0.117083
0.115984
0.114931
0.113952
0.112978
0.112011
0.111053
0.110103
0.109161
0.108226
0.107298
0.106376
0.10546
0.104548
0.103641
0.102732
0.101819
0.100904
0.0999791
0.0990405
0.0980895
0.0970993
0.130337
0.130344
0.130259
0.130088
0.129846
0.129541
0.129183
0.128771
0.128315
0.127812
0.127263
0.126673
0.126044
0.125385
0.124687
0.123958
0.123196
0.122404
0.121579
0.120722
0.119832
0.118978
0.118182
0.117391
0.116607
0.11583
0.115056
0.11429
0.113534
0.112785
0.112042
0.111304
0.110571
0.109843
0.109114
0.108384
0.107655
0.106919
0.106175
0.105424
0.104652
0.131704
0.13171
0.131636
0.131489
0.131279
0.131015
0.130706
0.130356
0.129966
0.129541
0.129075
0.128575
0.128046
0.127492
0.126914
0.126307
0.125677
0.125022
0.124344
0.123642
0.122916
0.122218
0.121567
0.12092
0.120278
0.119645
0.119016
0.118393
0.117778
0.117173
0.116575
0.115983
0.115396
0.114815
0.114235
0.113657
0.11308
0.1125
0.111915
0.111328
0.11073
0.132849
0.132854
0.132789
0.132661
0.132477
0.132248
0.131978
0.131674
0.13134
0.130973
0.130576
0.130149
0.129702
0.129232
0.128743
0.128236
0.127712
0.127166
0.126603
0.126022
0.125424
0.12485
0.124313
0.123781
0.123254
0.122736
0.122222
0.121714
0.121213
0.12072
0.120236
0.119762
0.119293
0.118828
0.118366
0.117907
0.117451
0.116994
0.116536
0.116077
0.115616
0.133819
0.133823
0.133767
0.133653
0.133492
0.13329
0.133054
0.132788
0.132496
0.132177
0.131834
0.131466
0.131082
0.130684
0.130268
0.129837
0.129394
0.128938
0.12847
0.127986
0.12749
0.127012
0.126567
0.126127
0.125694
0.125268
0.124845
0.124429
0.124019
0.123616
0.123221
0.122834
0.122457
0.122085
0.121717
0.121352
0.120991
0.120632
0.120272
0.119916
0.119562
0.13465
0.134653
0.134603
0.134503
0.13436
0.134182
0.133974
0.13374
0.133483
0.133206
0.132907
0.13259
0.132257
0.131913
0.131557
0.131191
0.130813
0.130426
0.13003
0.129625
0.129213
0.128814
0.12844
0.128073
0.127713
0.127358
0.127009
0.126666
0.126329
0.125999
0.125676
0.125361
0.125052
0.124751
0.124455
0.124165
0.12388
0.123597
0.123316
0.123037
0.122762
0.135367
0.13537
0.135325
0.135236
0.13511
0.134952
0.134768
0.13456
0.134333
0.134089
0.133829
0.133552
0.133264
0.132965
0.132656
0.132341
0.132018
0.131689
0.131352
0.131009
0.130661
0.130326
0.130014
0.129706
0.129404
0.129107
0.128816
0.128531
0.128253
0.127981
0.127715
0.127457
0.127204
0.126959
0.126718
0.126484
0.126255
0.126031
0.12581
0.125592
0.125379
0.135991
0.135993
0.135954
0.135875
0.135762
0.135622
0.135458
0.135273
0.135072
0.134856
0.134625
0.134384
0.134131
0.133871
0.133605
0.133333
0.133054
0.13277
0.132483
0.132192
0.131896
0.131612
0.131347
0.131088
0.130833
0.130584
0.13034
0.130102
0.12987
0.129644
0.129425
0.129211
0.129004
0.128803
0.128606
0.128416
0.12823
0.128049
0.127872
0.127698
0.127533
0.136536
0.136539
0.136504
0.136434
0.136334
0.136208
0.136062
0.135897
0.135718
0.135525
0.135321
0.135107
0.134886
0.134659
0.134428
0.13419
0.133949
0.133705
0.133457
0.133207
0.132956
0.132715
0.132488
0.132267
0.132051
0.13184
0.131634
0.131434
0.13124
0.131051
0.130869
0.130692
0.130521
0.130355
0.130194
0.130038
0.129887
0.12974
0.129597
0.129457
0.129325
0.137017
0.13702
0.136989
0.136926
0.136837
0.136724
0.136593
0.136446
0.136286
0.136114
0.135932
0.135742
0.135546
0.135346
0.135142
0.134935
0.134725
0.134513
0.134299
0.134085
0.13387
0.133662
0.133468
0.133279
0.133094
0.132915
0.13274
0.132572
0.132408
0.13225
0.132097
0.13195
0.131808
0.13167
0.131538
0.13141
0.131286
0.131166
0.13105
0.130938
0.130832
0.137441
0.137445
0.137418
0.137362
0.137282
0.137181
0.137064
0.136932
0.136788
0.136635
0.136472
0.136303
0.136129
0.135951
0.13577
0.135588
0.135404
0.135219
0.135034
0.134848
0.134663
0.134485
0.134317
0.134154
0.133996
0.133842
0.133694
0.13355
0.133412
0.133278
0.13315
0.133027
0.132908
0.132794
0.132684
0.132578
0.132477
0.132379
0.132284
0.132192
0.132107
0.137819
0.137823
0.137799
0.13775
0.137678
0.137587
0.137482
0.137363
0.137235
0.137097
0.136952
0.136801
0.136646
0.136488
0.136328
0.136166
0.136003
0.135841
0.135679
0.135518
0.135359
0.135204
0.135059
0.134918
0.134781
0.134649
0.134522
0.1344
0.134282
0.134169
0.13406
0.133956
0.133857
0.133761
0.13367
0.133582
0.133498
0.133417
0.13334
0.133265
0.133197
0.138155
0.13816
0.13814
0.138095
0.138031
0.137949
0.137855
0.137749
0.137633
0.13751
0.137381
0.137246
0.137107
0.136967
0.136824
0.136681
0.136537
0.136394
0.136252
0.13611
0.135972
0.135837
0.13571
0.135588
0.13547
0.135356
0.135247
0.135142
0.135041
0.134945
0.134853
0.134765
0.134681
0.134601
0.134524
0.134451
0.134382
0.134315
0.134251
0.13419
0.134134
0.138456
0.138462
0.138444
0.138404
0.138347
0.138274
0.138189
0.138094
0.137991
0.137881
0.137766
0.137645
0.137522
0.137397
0.13727
0.137142
0.137015
0.136889
0.136763
0.136639
0.136518
0.1364
0.13629
0.136183
0.13608
0.135982
0.135887
0.135797
0.13571
0.135628
0.135549
0.135475
0.135404
0.135336
0.135272
0.135211
0.135153
0.135098
0.135045
0.134995
0.134949
0.138726
0.138732
0.138717
0.138682
0.13863
0.138566
0.138491
0.138407
0.138315
0.138217
0.138114
0.138007
0.137897
0.137785
0.137672
0.137559
0.137446
0.137334
0.137224
0.137115
0.137008
0.136905
0.136808
0.136715
0.136626
0.13654
0.136458
0.13638
0.136305
0.136235
0.136168
0.136104
0.136044
0.135986
0.135932
0.135881
0.135832
0.135786
0.135743
0.135702
0.135665
0.138968
0.138976
0.138962
0.138932
0.138887
0.13883
0.138764
0.13869
0.13861
0.138523
0.138431
0.138336
0.138238
0.138139
0.138039
0.137938
0.137838
0.137739
0.137642
0.137545
0.137452
0.137362
0.137277
0.137195
0.137117
0.137042
0.136971
0.136903
0.136839
0.136778
0.13672
0.136666
0.136614
0.136566
0.13652
0.136477
0.136436
0.136398
0.136362
0.136327
0.136297
0.139187
0.139195
0.139183
0.139157
0.139119
0.139071
0.139015
0.13895
0.13888
0.138804
0.138723
0.138639
0.138553
0.138465
0.138376
0.138287
0.138198
0.13811
0.138024
0.137939
0.137857
0.137777
0.137703
0.137631
0.137563
0.137498
0.137436
0.137377
0.137321
0.137268
0.137219
0.137172
0.137128
0.137087
0.137048
0.137011
0.136977
0.136945
0.136915
0.136887
0.136862
0.139384
0.139392
0.139383
0.139362
0.139331
0.139292
0.139245
0.139191
0.13913
0.139065
0.138994
0.138921
0.138845
0.138767
0.138688
0.13861
0.138531
0.138454
0.138378
0.138303
0.138231
0.138161
0.138096
0.138033
0.137973
0.137916
0.137862
0.13781
0.137762
0.137716
0.137674
0.137633
0.137596
0.13756
0.137527
0.137497
0.137468
0.137441
0.137416
0.137393
0.137372
0.139561
0.139569
0.139563
0.139549
0.139526
0.139496
0.139459
0.139415
0.139365
0.139309
0.13925
0.139186
0.139121
0.139053
0.138984
0.138915
0.138847
0.138778
0.138711
0.138646
0.138583
0.138522
0.138464
0.138409
0.138356
0.138306
0.138258
0.138214
0.138172
0.138132
0.138095
0.138061
0.138028
0.137998
0.13797
0.137944
0.13792
0.137898
0.137877
0.137858
0.137841
0.139719
0.139727
0.139726
0.139718
0.139705
0.139684
0.139657
0.139624
0.139585
0.139542
0.139494
0.139443
0.139388
0.139332
0.139274
0.139215
0.139156
0.139097
0.139039
0.138982
0.138928
0.138874
0.138824
0.138776
0.13873
0.138686
0.138645
0.138606
0.13857
0.138536
0.138504
0.138475
0.138448
0.138423
0.138401
0.13838
0.138362
0.138345
0.13833
0.138318
0.138308
0.139855
0.139863
0.139866
0.139865
0.13986
0.139848
0.139832
0.139812
0.139787
0.139758
0.139726
0.13969
0.139651
0.139611
0.139568
0.139524
0.139479
0.139434
0.139389
0.139345
0.139303
0.139261
0.139221
0.139184
0.139148
0.139113
0.139081
0.139051
0.139024
0.138999
0.138976
0.138956
0.138938
0.138922
0.138909
0.138897
0.138888
0.138881
0.138875
0.138871
0.13887
0.139953
0.139959
0.139962
0.139963
0.139961
0.139956
0.139949
0.139939
0.139928
0.139914
0.139898
0.139881
0.139862
0.139841
0.139819
0.139796
0.139772
0.139748
0.139724
0.1397
0.139677
0.139653
0.13963
0.139608
0.139587
0.139567
0.139547
0.139529
0.139513
0.139498
0.139484
0.139472
0.139462
0.139453
0.139445
0.139439
0.139434
0.13943
0.139427
0.139425
0.139425
0.14
0.140005
0.140008
0.14001
0.14001
0.140008
0.140006
0.140002
0.139997
0.139991
0.139985
0.139977
0.139968
0.139958
0.139948
0.139937
0.139926
0.139914
0.139903
0.139891
0.13988
0.139869
0.139858
0.139847
0.139837
0.139827
0.139817
0.139808
0.1398
0.139792
0.139785
0.139779
0.139774
0.139769
0.139765
0.139762
0.139759
0.139757
0.139755
0.139754
0.139754
0.140025
0.140029
0.140032
0.140034
0.140036
0.140037
0.140037
0.140036
0.140036
0.140034
0.140032
0.140029
0.140026
0.140022
0.140018
0.140013
0.140008
0.140003
0.139998
0.139993
0.139988
0.139983
0.139977
0.139972
0.139968
0.139963
0.139959
0.139955
0.139951
0.139947
0.139944
0.139941
0.139939
0.139936
0.139934
0.139933
0.139932
0.139931
0.13993
0.13993
0.13993
0.140037
0.14004
0.140043
0.140045
0.140048
0.14005
0.140052
0.140054
0.140055
0.140056
0.140057
0.140057
0.140057
0.140057
0.140056
0.140056
0.140054
0.140053
0.140052
0.14005
0.140049
0.140047
0.140046
0.140044
0.140042
0.140041
0.140039
0.140037
0.140036
0.140035
0.140034
0.140033
0.140032
0.140031
0.14003
0.14003
0.14003
0.14003
0.14003
0.14003
0.14003
0.140039
0.140042
0.140044
0.140047
0.14005
0.140053
0.140056
0.140058
0.140061
0.140064
0.140066
0.140068
0.14007
0.140072
0.140074
0.140075
0.140077
0.140078
0.140079
0.14008
0.140081
0.140081
0.140082
0.140082
0.140083
0.140083
0.140083
0.140083
0.140084
0.140084
0.140084
0.140084
0.140084
0.140085
0.140085
0.140085
0.140086
0.140086
0.140086
0.140087
0.140087
0.140035
0.140037
0.140039
0.140041
0.140044
0.140047
0.14005
0.140053
0.140056
0.140059
0.140062
0.140065
0.140067
0.14007
0.140073
0.140075
0.140078
0.14008
0.140083
0.140085
0.140088
0.14009
0.140092
0.140094
0.140096
0.140098
0.140099
0.140101
0.140102
0.140103
0.140105
0.140106
0.140107
0.140108
0.140109
0.14011
0.14011
0.140111
0.140112
0.140113
0.140114
0.140024
0.140026
0.140027
0.140029
0.140031
0.140033
0.140036
0.140038
0.140041
0.140043
0.140045
0.140047
0.140049
0.140051
0.140053
0.140054
0.140055
0.140057
0.140058
0.14006
0.140062
0.140064
0.140067
0.14007
0.140072
0.140075
0.140078
0.140081
0.140083
0.140086
0.140089
0.140091
0.140093
0.140095
0.140097
0.140099
0.140101
0.140103
0.140104
0.140106
0.140107
0.140009
0.14001
0.14001
0.140011
0.140012
0.140013
0.140014
0.140015
0.140016
0.140017
0.140017
0.140018
0.140018
0.140017
0.140016
0.140013
0.140008
0.140001
0.13998
0.139968
0.139959
0.139952
0.139946
0.139941
0.139937
0.139934
0.139932
0.13993
0.139929
0.139929
0.139929
0.139929
0.139929
0.13993
0.13993
0.139931
0.139932
0.139932
0.139933
0.139934
0.139935
0.00280518
0.00352271
0.00420105
0.00541258
0.00710954
0.00910875
0.0113084
0.0136514
0.0161055
0.0186538
0.0212789
0.0239732
0.0267327
0.0295481
0.0324103
0.0353162
0.0382596
0.0412332
0.04423
0.0472451
0.0502725
0.053306
0.0563389
0.0593654
0.062379
0.0653734
0.0683418
0.0712783
0.0741771
0.0770327
0.0798396
0.0825929
0.0852878
0.0879199
0.0904852
0.0929801
0.0954012
0.0977457
0.100011
0.102195
0.104297
0.106315
0.108248
0.110097
0.111862
0.113543
0.115143
0.116665
0.118112
0.119488
0.120793
0.122031
0.123202
0.124309
0.125355
0.126342
0.127273
0.128151
0.128979
0.12976
0.130496
0.131192
0.131848
0.132467
0.133052
0.133605
0.134129
0.134624
0.135093
0.135539
0.13596
0.13637
0.136712
0.137286
0.00590736
0.0063612
0.00604401
0.0061115
0.00697809
0.00851892
0.0104805
0.0126913
0.0150649
0.0175602
0.0201505
0.0228208
0.0255636
0.0283684
0.0312234
0.0341286
0.0370758
0.0400561
0.0430618
0.046089
0.0491313
0.0521813
0.0552324
0.0582789
0.0613145
0.0643322
0.0673253
0.0702877
0.0732136
0.0760972
0.0789331
0.0817161
0.0844412
0.087104
0.0897005
0.0922267
0.0946794
0.0970556
0.0993525
0.101568
0.103701
0.10575
0.107713
0.109592
0.111386
0.113096
0.114724
0.116273
0.117746
0.119146
0.120474
0.121733
0.122924
0.12405
0.125113
0.126117
0.127064
0.127956
0.128798
0.129591
0.130339
0.131045
0.131711
0.132339
0.132933
0.133494
0.134025
0.134527
0.135002
0.135453
0.135879
0.136294
0.13664
0.13722
0.00904659
0.00998185
0.00945615
0.00861059
0.0082499
0.00873819
0.0100193
0.0118475
0.014008
0.0163775
0.0188903
0.0215112
0.0242219
0.0270074
0.0298533
0.032755
0.0357042
0.0386904
0.0417053
0.044747
0.0478072
0.0508775
0.0539507
0.0570219
0.0600844
0.0631308
0.0661541
0.0691479
0.0721066
0.0750242
0.0778948
0.0807133
0.0834744
0.0861738
0.0888071
0.0913704
0.0938602
0.0962733
0.0986072
0.100859
0.103028
0.105113
0.107111
0.109024
0.110851
0.112594
0.114254
0.115834
0.117336
0.118764
0.120118
0.121401
0.122615
0.123763
0.124846
0.125869
0.126833
0.127741
0.128598
0.129405
0.130166
0.130884
0.131561
0.1322
0.132803
0.133372
0.133911
0.13442
0.134903
0.13536
0.135792
0.136212
0.136562
0.137149
0.0112348
0.0131336
0.0132101
0.0123261
0.0112593
0.0106089
0.0107262
0.0116619
0.0132504
0.0152794
0.01759
0.0200878
0.0227213
0.0254595
0.028279
0.0311672
0.0341132
0.037105
0.040132
0.0431897
0.0462698
0.0493629
0.0524616
0.0555623
0.0586573
0.0617383
0.0647977
0.0678295
0.0708277
0.0737861
0.0766986
0.0795595
0.0823637
0.0851066
0.0877837
0.0903908
0.0929244
0.0953812
0.0977582
0.100053
0.102264
0.10439
0.106429
0.108382
0.110248
0.112029
0.113725
0.11534
0.116876
0.118335
0.119719
0.12103
0.12227
0.123442
0.124549
0.125592
0.126576
0.127503
0.128377
0.1292
0.129976
0.130707
0.131396
0.132046
0.13266
0.133239
0.133787
0.134305
0.134794
0.135259
0.135697
0.136124
0.136478
0.137072
0.0126486
0.0154718
0.0164012
0.0160869
0.015134
0.01403
0.0132048
0.0129872
0.0135237
0.0147668
0.016558
0.0187304
0.0211615
0.0237737
0.0265168
0.0293603
0.0322836
0.0352693
0.0383029
0.0413752
0.0444769
0.0475978
0.0507289
0.0538647
0.0569975
0.0601187
0.0632206
0.0662974
0.0693429
0.0723502
0.0753125
0.0782242
0.0810798
0.0838746
0.0866038
0.0892631
0.0918486
0.0943569
0.096785
0.0991304
0.101391
0.103565
0.105652
0.107651
0.109563
0.111387
0.113126
0.114782
0.116356
0.117851
0.119269
0.120612
0.121883
0.123083
0.124215
0.125283
0.12629
0.127238
0.128131
0.128972
0.129765
0.130511
0.131214
0.131878
0.132503
0.133093
0.133651
0.134178
0.134676
0.135148
0.135594
0.136027
0.136386
0.136988
0.0141064
0.0170501
0.0186545
0.0190609
0.0187294
0.0179181
0.0169125
0.0160245
0.0155459
0.0156821
0.0165005
0.0179382
0.0198647
0.022147
0.0246801
0.0273924
0.0302368
0.0331802
0.0361976
0.0392717
0.0423886
0.0455356
0.0487011
0.0518769
0.0550545
0.0582249
0.0613792
0.0645106
0.0676124
0.0706774
0.0736988
0.0766706
0.0795874
0.0824439
0.0852351
0.0879564
0.0906035
0.093173
0.0956617
0.0980667
0.100386
0.102618
0.104761
0.106814
0.108779
0.110654
0.112442
0.114145
0.115764
0.117301
0.118759
0.120139
0.121444
0.122677
0.12384
0.124936
0.125969
0.126941
0.127857
0.128718
0.12953
0.130294
0.131013
0.131691
0.13233
0.132932
0.133501
0.134039
0.134546
0.135027
0.135481
0.135921
0.136287
0.136897
0.0170792
0.0183342
0.0200632
0.0208976
0.0212989
0.0211663
0.0206154
0.0198201
0.0189924
0.0183702
0.0181736
0.0185508
0.019545
0.0211041
0.0231229
0.0254884
0.0281071
0.0309095
0.0338452
0.0368788
0.0399844
0.0431419
0.0463342
0.0495484
0.0527734
0.0559984
0.0592132
0.0624092
0.0655787
0.0687139
0.0718072
0.0748521
0.0778425
0.0807729
0.083638
0.086433
0.0891535
0.0917958
0.0943563
0.0968321
0.0992209
0.101521
0.10373
0.105848
0.107875
0.10981
0.111656
0.113414
0.115084
0.116671
0.118175
0.119599
0.120945
0.122215
0.123414
0.124543
0.125606
0.126607
0.127548
0.128434
0.129267
0.130051
0.130788
0.131483
0.132138
0.132754
0.133336
0.133885
0.134404
0.134895
0.135357
0.135806
0.136178
0.136799
0.0187088
0.0202845
0.021437
0.0218481
0.0227312
0.0231802
0.0233001
0.0230874
0.0225952
0.0219545
0.0213408
0.0209485
0.0209572
0.0214903
0.0225896
0.0242196
0.0262964
0.0287227
0.0314101
0.0342884
0.0373054
0.0404222
0.0436088
0.0468426
0.0501058
0.0533832
0.0566614
0.0599288
0.0631757
0.0663927
0.0695713
0.0727038
0.0757831
0.0788031
0.0817578
0.0846421
0.0874512
0.0901809
0.0928275
0.095388
0.0978596
0.10024
0.102528
0.104723
0.106823
0.10883
0.110744
0.112566
0.114299
0.115943
0.117502
0.118977
0.120371
0.121686
0.122926
0.124094
0.125193
0.126227
0.127199
0.128112
0.128971
0.129778
0.130537
0.131251
0.131923
0.132556
0.133153
0.133716
0.134246
0.134749
0.135221
0.13568
0.13606
0.136691
0.0192465
0.0210492
0.0225308
0.0234522
0.0240368
0.0242257
0.0247466
0.0251014
0.0251877
0.0250367
0.0246922
0.0242462
0.0238406
0.0236404
0.0238008
0.0244349
0.0255916
0.0272542
0.0293591
0.0318215
0.0345581
0.037498
0.0405848
0.0437752
0.0470361
0.0503418
0.0536711
0.0570067
0.0603341
0.063641
0.0669164
0.0701504
0.0733346
0.0764614
0.0795239
0.082516
0.0854323
0.0882681
0.0910191
0.0936819
0.0962536
0.0987317
0.101114
0.103401
0.105589
0.107681
0.109676
0.111576
0.113381
0.115095
0.116719
0.118255
0.119707
0.121075
0.122365
0.123579
0.12472
0.125793
0.1268
0.127746
0.128635
0.129469
0.130254
0.13099
0.131683
0.132335
0.132949
0.133527
0.134072
0.134587
0.135071
0.135541
0.13593
0.136574
0.0193686
0.0209421
0.0225542
0.0240042
0.0251551
0.0258765
0.0263018
0.0264544
0.0266443
0.0269067
0.02704
0.0270001
0.0268262
0.0265862
0.0263842
0.026355
0.0266366
0.0273386
0.0285206
0.0301855
0.0322895
0.0347623
0.0375263
0.0405097
0.0436527
0.0469072
0.0502355
0.0536074
0.0569987
0.06039
0.0637648
0.0671094
0.0704118
0.0736619
0.076851
0.0799715
0.0830165
0.0859803
0.0888579
0.0916451
0.0943384
0.0969349
0.0994325
0.10183
0.104125
0.10632
0.108413
0.110405
0.1123
0.114097
0.115799
0.117409
0.118929
0.120362
0.121712
0.12298
0.124172
0.125292
0.126342
0.127327
0.128251
0.129118
0.129932
0.130695
0.131412
0.132086
0.13272
0.133316
0.133878
0.134408
0.134905
0.135387
0.135786
0.136445
0.0199832
0.0210825
0.0223393
0.0237026
0.0250899
0.0263713
0.0274294
0.0281604
0.0285824
0.0287712
0.0287296
0.0287642
0.0288902
0.0289692
0.0289579
0.0289031
0.0288876
0.0290164
0.0294059
0.0301603
0.0313487
0.0329931
0.0350709
0.0375278
0.0402946
0.0433011
0.0464842
0.0497908
0.0531779
0.0566107
0.0600613
0.0635069
0.0669289
0.0703117
0.0736426
0.0769106
0.0801065
0.0832226
0.0862522
0.0891899
0.092031
0.0947719
0.0974098
0.0999426
0.102369
0.104688
0.106901
0.109008
0.11101
0.112909
0.114707
0.116406
0.11801
0.119522
0.120943
0.122279
0.123532
0.124708
0.12581
0.126842
0.127809
0.128715
0.129563
0.130359
0.131105
0.131805
0.132462
0.133079
0.13366
0.134207
0.134721
0.135217
0.135628
0.136304
0.0220269
0.0227093
0.0235101
0.0244054
0.025399
0.0264862
0.0276308
0.0287547
0.0297564
0.0305444
0.0310399
0.0312691
0.0312971
0.0311392
0.0310067
0.0310204
0.031093
0.0311743
0.0313057
0.0315677
0.0320539
0.0328554
0.0340436
0.0356551
0.0376875
0.0401047
0.0428494
0.0458559
0.0490599
0.0524041
0.0558402
0.059328
0.062835
0.0663347
0.0698055
0.0732298
0.076593
0.0798832
0.0830907
0.0862071
0.0892261
0.0921422
0.0949514
0.0976506
0.100238
0.102711
0.105071
0.107318
0.109453
0.111477
0.113394
0.115204
0.116911
0.118518
0.120029
0.121447
0.122776
0.12402
0.125185
0.126275
0.127294
0.128247
0.129138
0.129972
0.130752
0.131483
0.132169
0.132811
0.133415
0.133983
0.134515
0.135028
0.135453
0.136147
0.0263778
0.0267296
0.0271673
0.0276465
0.0281647
0.0287353
0.0293774
0.0301052
0.0309135
0.0317675
0.0326008
0.0333302
0.0338806
0.0341868
0.0342489
0.0341247
0.033854
0.0335293
0.0334154
0.0334766
0.033664
0.0340006
0.0345498
0.0353844
0.0365681
0.0381426
0.0401195
0.0424799
0.0451805
0.0481638
0.0513676
0.0547325
0.0582054
0.0617409
0.0653014
0.0688556
0.0723784
0.075849
0.0792508
0.0825703
0.0857966
0.088921
0.0919367
0.0948385
0.0976227
0.100287
0.10283
0.105251
0.107551
0.109732
0.111795
0.113743
0.115579
0.117306
0.118927
0.120447
0.12187
0.123201
0.124444
0.125604
0.126688
0.127698
0.128642
0.129523
0.130345
0.131114
0.131833
0.132506
0.133137
0.133729
0.134283
0.134816
0.135257
0.135974
0.0333299
0.0334152
0.0335671
0.0337325
0.0338991
0.0340669
0.0342439
0.0344455
0.034693
0.0350081
0.0354052
0.0358803
0.0364052
0.0369271
0.037376
0.0376835
0.0377925
0.0376716
0.0373717
0.0369577
0.0364488
0.0361633
0.0361628
0.036422
0.0369387
0.0377496
0.0389002
0.0404253
0.0423394
0.0446331
0.0472748
0.0502162
0.0534004
0.0567683
0.0602644
0.0638388
0.0674486
0.0710576
0.0746361
0.0781595
0.0816082
0.0849662
0.0882213
0.0913636
0.0943859
0.097283
0.100052
0.10269
0.105197
0.107573
0.109821
0.111943
0.113941
0.115819
0.11758
0.119229
0.12077
0.122209
0.123551
0.1248
0.125964
0.127047
0.128056
0.128995
0.129869
0.130684
0.131445
0.132155
0.132819
0.13344
0.13402
0.134577
0.135038
0.135782
0.0424563
0.0423406
0.0422758
0.0422117
0.0421351
0.0420411
0.0419283
0.0417985
0.0416574
0.0415166
0.0413938
0.0413107
0.0412887
0.0413427
0.0414726
0.0416582
0.0418587
0.0420149
0.0420614
0.0419464
0.0416204
0.0411183
0.0405131
0.0398682
0.0393487
0.0392015
0.0394476
0.0400746
0.0410896
0.0425058
0.0443264
0.0465379
0.0491101
0.0519987
0.0551501
0.0585075
0.0620145
0.0656187
0.0692728
0.0729361
0.0765738
0.0801569
0.0836617
0.0870694
0.0903652
0.0935378
0.0965791
0.0994836
0.102248
0.104871
0.107352
0.109694
0.111898
0.113969
0.115908
0.117722
0.119415
0.120991
0.122458
0.123822
0.125088
0.126263
0.127354
0.128366
0.129306
0.130179
0.130992
0.131747
0.132452
0.133109
0.133721
0.134306
0.134791
0.135567
0.0530255
0.0527699
0.0525522
0.0523295
0.0520909
0.0518318
0.0515487
0.0512388
0.0509002
0.0505326
0.0501382
0.0497236
0.0493002
0.0488846
0.0484973
0.0481591
0.0478858
0.0476822
0.0475358
0.0474155
0.047272
0.0470445
0.0466799