/*--------------------------------*- C++ -*----------------------------------*\
| =========                 |                                                 |
| \\      /  F ield         | OpenFOAM: The Open Source CFD Toolbox           |
|  \\    /   O peration     | Version:  5.x                                   |
|   \\  /    A nd           | Web:      www.OpenFOAM.org                      |
|    \\/     M anipulation  |                                                 |
\*---------------------------------------------------------------------------*/
FoamFile
{
    version     2.0;
    format      ascii;
    class       volScalarField;
    location    "450";
    object      nuTilda;
}
// * * * * * * * * * * * * * * * * * * * * * * * * * * * * * * * * * * * * * //

dimensions      [0 2 -1 0 0 0 0];

internalField   nonuniform List<scalar> 
11040
(
0.003135
0.00376638
0.00408994
0.0041724
0.00406654
0.0038667
0.00365098
0.00347437
0.00331496
0.00313933
0.0029038
0.00267035
0.00249346
0.00236815
0.00224928
0.00213161
0.00201498
0.00190316
0.00179609
0.00169177
0.00158802
0.00149575
0.0014134
0.00133139
0.00124847
0.00116357
0.0010757
0.000988568
0.000953763
0.000982756
0.000859153
0.000630445
0.000438707
0.000398464
0.00035973
0.000328165
0.000354425
0.000603308
0.000741362
0.000756799
0.000761316
0.00791389
0.00848166
0.00775055
0.00699806
0.00624509
0.00558924
0.00510247
0.00503864
0.00505193
0.00500511
0.00487764
0.00470258
0.00455746
0.00440682
0.00422171
0.0040294
0.0038492
0.00368626
0.00353922
0.00340549
0.00328347
0.00318201
0.00309457
0.00301311
0.0029373
0.00286572
0.00279709
0.0027332
0.00269461
0.00268408
0.00261891
0.0025076
0.00234954
0.00219129
0.00198769
0.00176217
0.00167726
0.00182287
0.00221427
0.00283888
0.0032889
0.0161133
0.0169812
0.0159628
0.0146823
0.0132584
0.0118384
0.0105289
0.00936929
0.0083781
0.00752617
0.00673329
0.00615626
0.00603769
0.00599205
0.00592602
0.00584603
0.00575345
0.00565456
0.00555676
0.00546435
0.00537839
0.00530934
0.00524771
0.00518605
0.00512427
0.00506239
0.0049999
0.00493739
0.0048801
0.00482959
0.0047664
0.00468982
0.004601
0.0045164
0.00440744
0.00419985
0.00407999
0.00434852
0.00484858
0.00546884
0.00628824
0.0254706
0.0264277
0.0253408
0.023695
0.0217631
0.019764
0.0178267
0.0159899
0.0142863
0.0127084
0.0111625
0.00982337
0.00884084
0.00810295
0.00779026
0.00765121
0.00755425
0.00748065
0.00742276
0.00737575
0.00733642
0.00730992
0.00728708
0.00726218
0.00723352
0.0072005
0.00716235
0.00711865
0.0070703
0.00701796
0.00695829
0.00689365
0.0068311
0.00678581
0.00675432
0.0066549
0.00655285
0.00681934
0.0075028
0.00858634
0.00963253
0.0356312
0.0365638
0.0355077
0.0336634
0.0313854
0.0289123
0.0264074
0.023911
0.0215307
0.0192838
0.0170608
0.0150602
0.0134599
0.0121952
0.011145
0.0102721
0.00978231
0.00954218
0.00940307
0.00931834
0.00927032
0.00925149
0.00924506
0.0092421
0.00923882
0.00923305
0.0092226
0.00920553
0.00918051
0.00914684
0.00910437
0.00905696
0.00901471
0.00899621
0.00901901
0.00902808
0.00900391
0.0092636
0.0100901
0.0115951
0.0133299
0.046208
0.0470648
0.0460976
0.0442152
0.0417711
0.0389343
0.0359112
0.0328618
0.0298994
0.0270475
0.0241855
0.0215302
0.0193082
0.0175138
0.0159702
0.0146239
0.0135036
0.0125453
0.0120019
0.0116937
0.0115091
0.0114044
0.0113422
0.0113011
0.011276
0.0112615
0.0112524
0.011244
0.0112328
0.0112159
0.0111925
0.0111651
0.0111434
0.0111462
0.0112028
0.0112993
0.0113888
0.0116624
0.0125045
0.0141583
0.0169239
0.0568798
0.057617
0.0567645
0.05497
0.0524986
0.0495342
0.0462857
0.0429053
0.039524
0.0361834
0.0327664
0.029504
0.0266715
0.0243006
0.0222147
0.0203628
0.0187227
0.0172591
0.015992
0.015042
0.0144991
0.0141616
0.0139225
0.0137459
0.0136195
0.0135253
0.0134536
0.0133976
0.0133521
0.0133128
0.0132775
0.0132472
0.0132287
0.0132372
0.0133023
0.0134433
0.0136347
0.0139511
0.0147156
0.01624
0.0191234
0.0672919
0.0679156
0.0671922
0.0655673
0.0632233
0.0603507
0.0571216
0.0536581
0.0500868
0.0464558
0.0426577
0.0389219
0.0355572
0.0326361
0.0300044
0.0276226
0.0254683
0.023515
0.0217364
0.020135
0.0187835
0.017911
0.0173585
0.0169576
0.0166464
0.0163925
0.0161783
0.0159936
0.015832
0.0156898
0.0155658
0.0154617
0.0153838
0.0153443
0.0153668
0.0154834
0.0157043
0.0160524
0.0167133
0.0179484
0.0203603
0.0772039
0.0777105
0.0771068
0.075691
0.0735874
0.070961
0.0679418
0.064618
0.0610932
0.0574053
0.0534568
0.0494549
0.0457144
0.0423456
0.0392373
0.036368
0.0337251
0.0312906
0.0290425
0.0269592
0.0250316
0.023476
0.0223681
0.021553
0.0209272
0.020412
0.0199629
0.0195566
0.0191815
0.0188323
0.0185087
0.0182147
0.017959
0.0177558
0.0176255
0.0176001
0.0177125
0.0179873
0.0185101
0.0194231
0.021131
0.086377
0.0867781
0.086284
0.0850892
0.0832799
0.0809877
0.0783045
0.0752856
0.0720051
0.0684614
0.0645857
0.0605486
0.0566424
0.0530059
0.0495924
0.0463653
0.0433267
0.0404767
0.0378045
0.0352955
0.0329317
0.0309271
0.0293186
0.0279986
0.0269368
0.026054
0.0252841
0.0245834
0.0239256
0.0232965
0.0226906
0.0221095
0.0215617
0.0210627
0.0206336
0.020307
0.0201238
0.020123
0.0203617
0.0209042
0.021932
0.0946601
0.0949737
0.0945757
0.0935918
0.0920841
0.0901545
0.0878661
0.0852306
0.0823026
0.0790973
0.0755305
0.0717199
0.0679073
0.0642263
0.060654
0.0572149
0.0539243
0.0508003
0.0478155
0.0449649
0.0422426
0.0399044
0.0379432
0.0361866
0.0346921
0.0334223
0.0323083
0.0312941
0.0303405
0.0294223
0.0285242
0.0276397
0.0267703
0.0259258
0.0251214
0.0243874
0.0237645
0.023295
0.0230377
0.0230463
0.0233647
0.101987
0.102231
0.101912
0.101114
0.0998843
0.098302
0.0964108
0.0941995
0.0917129
0.0889536
0.0858445
0.0824577
0.0789718
0.0754932
0.0720104
0.0685639
0.0651861
0.0619021
0.058724
0.0556552
0.0526986
0.0501265
0.0479217
0.0458479
0.0439328
0.0422737
0.0408307
0.0395329
0.0383245
0.0371672
0.0360351
0.0349118
0.0337894
0.0326667
0.0315463
0.0304474
0.0294006
0.0284357
0.0276036
0.0269675
0.0264793
0.108363
0.108546
0.108285
0.107642
0.106653
0.105379
0.103851
0.10205
0.100012
0.0977337
0.0951474
0.0922916
0.0892727
0.0861764
0.0830007
0.0797919
0.0765656
0.073348
0.0701619
0.0670242
0.0639462
0.0612314
0.0588869
0.0566608
0.054538
0.0525238
0.0506508
0.0489975
0.0475333
0.0461841
0.0448948
0.0436299
0.0423707
0.0411008
0.0398099
0.0385035
0.0371973
0.0359005
0.0346418
0.0334807
0.0322738
0.11383
0.113957
0.11374
0.113223
0.112435
0.111421
0.110204
0.108766
0.107136
0.105308
0.103229
0.100902
0.0984147
0.0958143
0.0930916
0.0902747
0.0873865
0.0844593
0.0814949
0.0785087
0.0755157
0.0728252
0.0704672
0.068208
0.0660351
0.0639372
0.0619074
0.0599538
0.0580937
0.0564
0.0548846
0.0534796
0.0521282
0.050794
0.0494498
0.0480864
0.046704
0.0452938
0.0438605
0.0424482
0.0408456
0.118445
0.118534
0.118356
0.117942
0.117319
0.116518
0.115556
0.114421
0.113135
0.111695
0.110048
0.108212
0.106238
0.10415
0.101934
0.0996026
0.0971701
0.0946507
0.0920575
0.0894019
0.0867032
0.08423
0.0820151
0.0798637
0.0777736
0.075747
0.0737695
0.0718323
0.0699297
0.068068
0.0662592
0.0645228
0.0629291
0.0614686
0.0600747
0.0587051
0.0573382
0.0559487
0.0545247
0.0530913
0.0514296
0.12233
0.122389
0.122239
0.121906
0.121421
0.120785
0.120024
0.119132
0.118124
0.117
0.11572
0.114298
0.112766
0.111136
0.109387
0.107532
0.105586
0.103545
0.101414
0.099198
0.0969042
0.0947672
0.0928278
0.0909228
0.0890525
0.0872163
0.0854119
0.0836352
0.0818811
0.0801436
0.0784178
0.076707
0.0750155
0.0733527
0.0717192
0.0701654
0.0687261
0.0673468
0.06598
0.0646216
0.0630774
0.125586
0.125622
0.125494
0.125225
0.124838
0.124335
0.123735
0.123037
0.122251
0.121377
0.120389
0.119297
0.118123
0.116866
0.11552
0.114088
0.112575
0.11098
0.109312
0.107562
0.105732
0.104
0.102407
0.100828
0.0992642
0.0977154
0.0961813
0.0946608
0.0931521
0.0916522
0.0901575
0.0886642
0.0871686
0.085667
0.0841517
0.0826307
0.0811186
0.0796117
0.0781095
0.0766756
0.0751551
0.128183
0.128207
0.128101
0.127883
0.12757
0.127168
0.12669
0.126141
0.125518
0.124828
0.124052
0.123201
0.12229
0.121317
0.120278
0.119176
0.118011
0.116783
0.115489
0.114131
0.112707
0.11135
0.110089
0.108833
0.107582
0.106339
0.105101
0.103874
0.102651
0.101432
0.100213
0.0989931
0.0977697
0.0965391
0.095293
0.0940306
0.0927529
0.0914497
0.090119
0.0887761
0.0873434
0.130183
0.130198
0.130109
0.12993
0.129673
0.12935
0.128959
0.128512
0.128008
0.127452
0.126837
0.12616
0.125438
0.124668
0.123849
0.122984
0.122073
0.121114
0.120107
0.119049
0.117941
0.116878
0.115888
0.114899
0.113913
0.112932
0.111953
0.110979
0.110008
0.109039
0.108074
0.107109
0.106142
0.10517
0.104187
0.103192
0.102187
0.101161
0.100111
0.0990394
0.097895
0.131752
0.131762
0.131688
0.131538
0.131324
0.131054
0.13073
0.13036
0.129948
0.129491
0.128989
0.128439
0.127854
0.127239
0.126582
0.125891
0.125164
0.124403
0.123606
0.122771
0.121899
0.121061
0.120278
0.119497
0.118719
0.117945
0.117175
0.116407
0.115643
0.114881
0.114121
0.113362
0.112603
0.111845
0.111081
0.110311
0.109535
0.108746
0.107942
0.107123
0.106262
0.133014
0.133023
0.132961
0.132834
0.132652
0.132423
0.132153
0.131841
0.131495
0.131113
0.130695
0.130245
0.129764
0.129259
0.128723
0.128161
0.127574
0.126961
0.126321
0.125654
0.12496
0.124292
0.123667
0.123045
0.122426
0.121812
0.121198
0.120588
0.119986
0.119387
0.118791
0.118197
0.117605
0.117016
0.116424
0.11583
0.115234
0.11463
0.114017
0.113396
0.112753
0.13405
0.134058
0.134005
0.133897
0.13374
0.133544
0.133312
0.13305
0.132756
0.132435
0.132083
0.131705
0.131303
0.130882
0.130442
0.129979
0.129496
0.128995
0.128475
0.127935
0.127376
0.126838
0.126334
0.125833
0.125335
0.124843
0.124352
0.123866
0.123384
0.12291
0.12244
0.121974
0.121511
0.121052
0.120593
0.120133
0.119674
0.119212
0.118745
0.118274
0.117793
0.134913
0.134922
0.134876
0.134782
0.134647
0.134477
0.134276
0.134049
0.133799
0.133524
0.133226
0.132905
0.132567
0.132213
0.131843
0.131459
0.131061
0.130647
0.130218
0.129775
0.129319
0.12888
0.128469
0.128063
0.127658
0.127261
0.126865
0.126474
0.126088
0.125707
0.125333
0.124966
0.124603
0.124243
0.123884
0.123527
0.123172
0.122816
0.122458
0.122099
0.121738
0.135643
0.135651
0.135612
0.13553
0.135412
0.135263
0.135089
0.134891
0.134674
0.134436
0.13418
0.133904
0.133616
0.133317
0.133004
0.132679
0.132345
0.132001
0.131647
0.131281
0.130906
0.130544
0.130206
0.129872
0.129542
0.129219
0.128897
0.12858
0.128267
0.12796
0.127658
0.127363
0.127074
0.12679
0.126508
0.126229
0.125952
0.125676
0.125401
0.125127
0.124855
0.136266
0.136273
0.136239
0.136168
0.136065
0.135934
0.135781
0.135608
0.135418
0.135213
0.13499
0.134754
0.134505
0.134248
0.133981
0.133707
0.133424
0.133133
0.132835
0.132531
0.132221
0.13192
0.131639
0.131362
0.13109
0.130822
0.130558
0.130299
0.130044
0.129795
0.129551
0.129312
0.129078
0.12885
0.128626
0.128406
0.12819
0.127976
0.127763
0.127551
0.127343
0.136802
0.136809
0.13678
0.136717
0.136627
0.136512
0.136377
0.136224
0.136057
0.135876
0.135683
0.135478
0.135264
0.135041
0.134811
0.134576
0.134335
0.134089
0.133837
0.13358
0.13332
0.133069
0.132835
0.132604
0.132378
0.132155
0.131937
0.131723
0.131514
0.131309
0.13111
0.130915
0.130726
0.130541
0.130361
0.130184
0.130012
0.129844
0.129678
0.129514
0.129355
0.137267
0.137274
0.137249
0.137195
0.137115
0.137013
0.136894
0.136759
0.13661
0.136451
0.136281
0.136102
0.135915
0.135722
0.135525
0.135323
0.135115
0.134904
0.13469
0.134473
0.134253
0.134041
0.133844
0.13365
0.13346
0.133274
0.133092
0.132915
0.132741
0.132573
0.132409
0.132249
0.132095
0.131944
0.131798
0.131656
0.131517
0.131382
0.13125
0.131121
0.130998
0.137673
0.137681
0.13766
0.137612
0.137541
0.137451
0.137345
0.137224
0.137093
0.136951
0.136801
0.136643
0.13648
0.136312
0.136141
0.135965
0.135787
0.135606
0.135422
0.135236
0.13505
0.134871
0.134703
0.134539
0.134379
0.134222
0.134069
0.13392
0.133776
0.133636
0.1335
0.133369
0.133242
0.133119
0.132999
0.132884
0.132772
0.132663
0.132557
0.132453
0.132356
0.13803
0.138039
0.138021
0.137979
0.137916
0.137836
0.13774
0.137633
0.137516
0.13739
0.137256
0.137116
0.136972
0.136825
0.136674
0.136521
0.136367
0.13621
0.136052
0.135894
0.135735
0.135582
0.135438
0.135298
0.135162
0.135029
0.1349
0.134775
0.134654
0.134537
0.134424
0.134315
0.13421
0.134109
0.134011
0.133916
0.133825
0.133737
0.133651
0.133568
0.133491
0.138345
0.138355
0.13834
0.138303
0.138247
0.138175
0.138089
0.137993
0.137888
0.137776
0.137657
0.137533
0.137405
0.137275
0.137142
0.137008
0.136873
0.136737
0.136601
0.136464
0.136328
0.136196
0.136073
0.135953
0.135836
0.135723
0.135614
0.135508
0.135406
0.135308
0.135213
0.135122
0.135035
0.134951
0.13487
0.134793
0.134718
0.134646
0.134577
0.13451
0.134448
0.138624
0.138636
0.138624
0.13859
0.13854
0.138475
0.138398
0.138312
0.138219
0.138119
0.138013
0.137903
0.13779
0.137674
0.137557
0.137439
0.13732
0.137201
0.137082
0.136964
0.136847
0.136733
0.136627
0.136523
0.136423
0.136326
0.136233
0.136143
0.136056
0.135973
0.135894
0.135817
0.135745
0.135675
0.135608
0.135544
0.135482
0.135424
0.135367
0.135313
0.135263
0.138874
0.138886
0.138875
0.138845
0.1388
0.138742
0.138674
0.138597
0.138514
0.138425
0.138332
0.138234
0.138134
0.138031
0.137928
0.137823
0.137718
0.137614
0.13751
0.137406
0.137305
0.137207
0.137114
0.137024
0.136938
0.136855
0.136775
0.136698
0.136624
0.136554
0.136486
0.136422
0.136361
0.136303
0.136247
0.136194
0.136143
0.136095
0.136048
0.136004
0.135964
0.139096
0.139109
0.1391
0.139073
0.139032
0.13898
0.138921
0.138854
0.138781
0.138702
0.13862
0.138533
0.138444
0.138354
0.138262
0.13817
0.138077
0.137985
0.137894
0.137804
0.137716
0.13763
0.137549
0.137471
0.137396
0.137324
0.137255
0.13719
0.137127
0.137067
0.137009
0.136955
0.136903
0.136854
0.136808
0.136764
0.136722
0.136682
0.136644
0.136608
0.136575
0.139296
0.139308
0.1393
0.139276
0.13924
0.139196
0.139145
0.139087
0.139023
0.138955
0.138882
0.138806
0.138728
0.138648
0.138567
0.138486
0.138404
0.138323
0.138243
0.138164
0.138087
0.138012
0.137941
0.137874
0.137809
0.137746
0.137687
0.13763
0.137576
0.137525
0.137476
0.13743
0.137386
0.137345
0.137306
0.137269
0.137234
0.137201
0.13717
0.13714
0.137114
0.139475
0.139486
0.139479
0.139458
0.139429
0.139393
0.13935
0.139301
0.139247
0.139188
0.139125
0.139059
0.13899
0.13892
0.138849
0.138777
0.138705
0.138634
0.138563
0.138494
0.138427
0.138361
0.1383
0.138241
0.138184
0.13813
0.138078
0.138029
0.137983
0.137939
0.137897
0.137858
0.137821
0.137786
0.137753
0.137722
0.137693
0.137666
0.13764
0.137616
0.137595
0.139636
0.139645
0.139639
0.139623
0.139601
0.139574
0.13954
0.139501
0.139456
0.139406
0.139352
0.139295
0.139236
0.139175
0.139112
0.139049
0.138986
0.138924
0.138862
0.138802
0.138743
0.138686
0.138632
0.13858
0.138531
0.138484
0.138439
0.138396
0.138356
0.138319
0.138283
0.138249
0.138218
0.138189
0.138161
0.138135
0.138111
0.138088
0.138067
0.138047
0.13803
0.139779
0.139786
0.139782
0.139773
0.139759
0.139741
0.139716
0.139687
0.139652
0.139612
0.139568
0.139521
0.139471
0.139419
0.139366
0.139312
0.139258
0.139203
0.13915
0.139097
0.139046
0.138997
0.13895
0.138905
0.138862
0.138821
0.138782
0.138745
0.138711
0.138678
0.138648
0.13862
0.138593
0.138569
0.138546
0.138525
0.138506
0.138488
0.138472
0.138458
0.138446
0.139902
0.139907
0.139906
0.139904
0.139899
0.139889
0.139875
0.139855
0.139832
0.139804
0.139773
0.139738
0.139701
0.139661
0.13962
0.139577
0.139534
0.13949
0.139446
0.139403
0.139362
0.139321
0.139282
0.139244
0.139208
0.139175
0.139143
0.139113
0.139086
0.13906
0.139037
0.139016
0.138997
0.138981
0.138967
0.138955
0.138945
0.138937
0.138931
0.138927
0.138924
0.139991
0.139996
0.139998
0.14
0.139999
0.139995
0.139988
0.13998
0.139968
0.139955
0.139939
0.139922
0.139902
0.139881
0.139858
0.139834
0.139809
0.139784
0.139759
0.139734
0.139711
0.139687
0.139662
0.13964
0.139618
0.139597
0.139578
0.139559
0.139543
0.139528
0.139515
0.139503
0.139493
0.139485
0.139477
0.139471
0.139467
0.139464
0.139461
0.13946
0.139461
0.140035
0.140039
0.140042
0.140045
0.140045
0.140045
0.140043
0.14004
0.140035
0.14003
0.140023
0.140015
0.140006
0.139996
0.139986
0.139975
0.139963
0.139951
0.139939
0.139927
0.139916
0.139904
0.139893
0.139882
0.139872
0.139861
0.139852
0.139843
0.139834
0.139827
0.13982
0.139814
0.139809
0.139805
0.139801
0.139798
0.139796
0.139795
0.139794
0.139793
0.139794
0.140057
0.140062
0.140065
0.140068
0.14007
0.140072
0.140072
0.140073
0.140072
0.140071
0.140069
0.140066
0.140063
0.140059
0.140055
0.14005
0.140045
0.14004
0.140034
0.140029
0.140024
0.140018
0.140013
0.140008
0.140003
0.139999
0.139994
0.13999
0.139986
0.139983
0.13998
0.139977
0.139975
0.139973
0.139971
0.13997
0.13997
0.139969
0.139969
0.139969
0.13997
0.140068
0.140072
0.140076
0.140079
0.140082
0.140085
0.140088
0.14009
0.140092
0.140093
0.140094
0.140095
0.140095
0.140095
0.140094
0.140093
0.140092
0.140091
0.140089
0.140088
0.140086
0.140084
0.140082
0.140081
0.140079
0.140077
0.140075
0.140074
0.140073
0.140071
0.14007
0.140069
0.140069
0.140068
0.140068
0.140068
0.140068
0.140068
0.140069
0.140069
0.14007
0.140071
0.140075
0.140078
0.140082
0.140086
0.140089
0.140093
0.140097
0.1401
0.140104
0.140107
0.14011
0.140112
0.140114
0.140116
0.140118
0.140119
0.14012
0.140121
0.140122
0.140123
0.140124
0.140124
0.140124
0.140124
0.140125
0.140125
0.140125
0.140125
0.140125
0.140125
0.140126
0.140126
0.140127
0.140127
0.140128
0.140128
0.140129
0.14013
0.140131
0.140132
0.140068
0.140071
0.140075
0.140078
0.140082
0.140086
0.140091
0.140095
0.1401
0.140104
0.140109
0.140113
0.140117
0.140121
0.140125
0.140128
0.140132
0.140135
0.140137
0.14014
0.140142
0.140145
0.140147
0.140148
0.14015
0.140152
0.140153
0.140154
0.140156
0.140157
0.140158
0.140159
0.14016
0.140161
0.140163
0.140164
0.140165
0.140166
0.140167
0.140168
0.140169
0.14006
0.140063
0.140065
0.140069
0.140073
0.140077
0.140082
0.140087
0.140092
0.140097
0.140102
0.140107
0.140112
0.140116
0.140121
0.140126
0.14013
0.140135
0.140139
0.140142
0.140146
0.14015
0.140153
0.140156
0.140158
0.140161
0.140163
0.140166
0.140168
0.14017
0.140172
0.140173
0.140175
0.140177
0.140178
0.14018
0.140181
0.140182
0.140183
0.140185
0.140186
0.140047
0.140049
0.140052
0.140055
0.140058
0.140062
0.140066
0.140071
0.140075
0.14008
0.140085
0.14009
0.140095
0.1401
0.140105
0.140109
0.140114
0.140119
0.140124
0.140128
0.140133
0.140137
0.140141
0.140145
0.140149
0.140152
0.140155
0.140158
0.140161
0.140164
0.140166
0.140169
0.140171
0.140173
0.140175
0.140176
0.140178
0.14018
0.140181
0.140182
0.140184
0.140031
0.140032
0.140034
0.140036
0.140039
0.140042
0.140045
0.140048
0.140051
0.140055
0.140058
0.140062
0.140065
0.140069
0.140072
0.140075
0.140079
0.140082
0.140085
0.140089
0.140093
0.140096
0.140101
0.140105
0.140109
0.140113
0.140117
0.14012
0.140124
0.140128
0.140131
0.140134
0.140137
0.14014
0.140142
0.140145
0.140147
0.140149
0.140151
0.140153
0.140155
0.140011
0.140012
0.140012
0.140013
0.140014
0.140015
0.140016
0.140018
0.140019
0.14002
0.140022
0.140023
0.140023
0.140024
0.140024
0.140023
0.140021
0.140018
0.140003
0.139998
0.139995
0.139993
0.139992
0.139991
0.139991
0.139992
0.139992
0.139993
0.139994
0.139995
0.139996
0.139998
0.139999
0.14
0.140001
0.140003
0.140004
0.140005
0.140006
0.140007
0.140008
0.00367255
0.00451082
0.00520617
0.00652533
0.00843891
0.0107209
0.0132285
0.015894
0.018674
0.0215513
0.0245092
0.0275305
0.0306145
0.0337512
0.0369306
0.0401438
0.0433857
0.0466484
0.0499233
0.0532024
0.0564789
0.0597451
0.0629925
0.0662129
0.069399
0.0725434
0.0756394
0.0786801
0.0816594
0.0845712
0.0874102
0.0901716
0.0928508
0.0954439
0.0979476
0.100359
0.102676
0.104897
0.107021
0.109047
0.110975
0.112808
0.114545
0.11619
0.117746
0.119215
0.120601
0.121908
0.123138
0.124295
0.125382
0.126403
0.127361
0.12826
0.129103
0.129894
0.130637
0.131334
0.131989
0.132605
0.133184
0.13373
0.134245
0.134731
0.13519
0.135624
0.136036
0.136428
0.136802
0.13716
0.137504
0.137846
0.138134
0.138627
0.00777737
0.00832765
0.00779748
0.00764767
0.00844549
0.0100915
0.0122722
0.014761
0.0174382
0.0202502
0.0231663
0.0261625
0.0292306
0.0323597
0.0355374
0.0387536
0.0420054
0.0452826
0.0485752
0.0518747
0.0551751
0.058468
0.0617445
0.064996
0.0682149
0.0713941
0.0745263
0.0776045
0.0806221
0.0835733
0.0864522
0.089254
0.0919738
0.0946078
0.0971523
0.0996042
0.101961
0.104222
0.106384
0.108449
0.110415
0.112283
0.114055
0.115734
0.117321
0.118821
0.120235
0.121569
0.122824
0.124004
0.125113
0.126154
0.127131
0.128047
0.128907
0.129712
0.130468
0.131178
0.131844
0.13247
0.133059
0.133614
0.134137
0.13463
0.135095
0.135536
0.135954
0.13635
0.136728
0.137091
0.137438
0.137782
0.138073
0.13857
0.0118724
0.0130916
0.0123688
0.0111435
0.0104125
0.0106676
0.011904
0.0138491
0.0162267
0.0188665
0.0216793
0.0246137
0.0276441
0.0307527
0.0339232
0.0371419
0.0404025
0.0436944
0.047006
0.0503285
0.0536572
0.0569823
0.0602937
0.0635826
0.0668413
0.0700624
0.0732382
0.0763614
0.0794252
0.0824233
0.0853499
0.0881997
0.0909679
0.0936501
0.0962426
0.0987422
0.101146
0.103453
0.105661
0.10777
0.109779
0.111689
0.113502
0.115219
0.116843
0.118377
0.119824
0.121188
0.122472
0.123679
0.124813
0.125877
0.126875
0.127811
0.128688
0.12951
0.130282
0.131005
0.131684
0.132322
0.132922
0.133486
0.134018
0.134519
0.134993
0.13544
0.135864
0.136266
0.136649
0.137015
0.137366
0.137714
0.138006
0.138509
0.0146513
0.0171589
0.0172359
0.0160568
0.0145676
0.0134777
0.0132354
0.0139684
0.0155312
0.0176772
0.0201983
0.0229597
0.0258857
0.0289326
0.0320707
0.0352775
0.0385394
0.0418437
0.0451767
0.0485274
0.0518886
0.0552504
0.0586022
0.0619347
0.0652404
0.0685116
0.0717397
0.0749168
0.0780358
0.0810901
0.0840736
0.0869807
0.0898063
0.0925458
0.0951953
0.0977513
0.100211
0.102572
0.104833
0.106994
0.109053
0.111012
0.112871
0.114633
0.116299
0.117873
0.119358
0.120757
0.122074
0.123312
0.124474
0.125565
0.126587
0.127546
0.128444
0.129285
0.130074
0.130814
0.131507
0.132159
0.132771
0.133346
0.133888
0.134398
0.13488
0.135335
0.135765
0.136174
0.136562
0.136934
0.137288
0.13764
0.137935
0.138443
0.0164249
0.0201193
0.0212238
0.020819
0.0196001
0.0181146
0.0168472
0.0161971
0.0163923
0.0174459
0.0192117
0.0214923
0.0241214
0.0269869
0.0300173
0.033165
0.0363998
0.0396996
0.0430456
0.0464218
0.0498174
0.053221
0.0566209
0.0600064
0.0633686
0.066699
0.0699889
0.0732298
0.0764143
0.0795355
0.0825868
0.0855622
0.0884563
0.091264
0.093981
0.0966037
0.099129
0.101555
0.103878
0.1061
0.108218
0.110234
0.112147
0.113961
0.115677
0.117298
0.118826
0.120267
0.121622
0.122895
0.124091
0.125212
0.126263
0.127248
0.12817
0.129033
0.129842
0.1306
0.13131
0.131977
0.132602
0.13319
0.133743
0.134264
0.134755
0.135219
0.135657
0.136073
0.136468
0.136845
0.137204
0.13756
0.137857
0.138371
0.0185734
0.0221258
0.0238687
0.0243917
0.0240299
0.0230507
0.0217521
0.0204727
0.0195494
0.0192553
0.0197348
0.0209788
0.0228661
0.0252383
0.0279543
0.0309089
0.0340307
0.0372715
0.0405963
0.0439786
0.047399
0.0508416
0.0542918
0.0577362
0.0611637
0.0645641
0.0679278
0.0712455
0.0745089
0.0777103
0.0808427
0.0838996
0.0868753
0.0897643
0.0925619
0.0952641
0.0978675
0.100369
0.102768
0.105061
0.107249
0.109332
0.11131
0.113185
0.114959
0.116635
0.118215
0.119704
0.121104
0.122419
0.123654
0.124811
0.125895
0.12691
0.12786
0.128749
0.129581
0.13036
0.131089
0.131773
0.132415
0.133017
0.133583
0.134116
0.134618
0.135092
0.135539
0.135962
0.136364
0.136747
0.137112
0.137473
0.137774
0.138294
0.0218019
0.023902
0.0253789
0.0264283
0.0269681
0.0269079
0.0263046
0.0253314
0.0242069
0.0231902
0.0225472
0.0224934
0.0231428
0.0244919
0.0264481
0.0288796
0.0316599
0.0346884
0.0378909
0.0412139
0.0446187
0.0480769
0.0515656
0.0550657
0.0585614
0.0620392
0.0654873
0.0688946
0.0722513
0.0755485
0.0787782
0.0819333
0.085007
0.0879937
0.0908881
0.0936857
0.0963828
0.0989762
0.101464
0.103844
0.106115
0.108278
0.110333
0.112281
0.114124
0.115864
0.117506
0.119052
0.120505
0.12187
0.12315
0.12435
0.125473
0.126524
0.127507
0.128426
0.129285
0.130088
0.130841
0.131545
0.132205
0.132824
0.133405
0.133952
0.134466
0.13495
0.135408
0.135841
0.136251
0.136641
0.137012
0.137378
0.137683
0.138209
0.0232913
0.0255141
0.0269575
0.0275336
0.0284263
0.0290784
0.0293134
0.0291494
0.0286003
0.0277862
0.0268889
0.0261201
0.0256976
0.0258049
0.0265499
0.0279463
0.0299283
0.0323875
0.035209
0.0382929
0.0415611
0.0449554
0.0484323
0.0519585
0.0555076
0.0590588
0.0625947
0.0661004
0.0695632
0.0729718
0.0763164
0.0795882
0.0827797
0.085884
0.0888951
0.0918079
0.094618
0.097322
0.099917
0.102401
0.104773
0.107032
0.109179
0.111215
0.113141
0.11496
0.116675
0.118289
0.119807
0.121231
0.122566
0.123817
0.124986
0.126079
0.127101
0.128055
0.128947
0.12978
0.130558
0.131286
0.131968
0.132606
0.133205
0.133767
0.134296
0.134794
0.135263
0.135706
0.136125
0.136524
0.136902
0.137274
0.137584
0.138118
0.0235557
0.0258225
0.0277659
0.0290882
0.0299376
0.0303153
0.0307421
0.0312153
0.0313675
0.0312461
0.0308813
0.0303204
0.0296841
0.0291483
0.0289051
0.0291241
0.0299166
0.031317
0.0332873
0.0357416
0.0385763
0.0416932
0.0450104
0.0484632
0.052002
0.0555883
0.0591924
0.0627903
0.0663625
0.0698927
0.0733673
0.0767747
0.0801049
0.0833493
0.0865006
0.0895525
0.0924996
0.0953377
0.0980634
0.100674
0.103168
0.105544
0.107803
0.109946
0.111973
0.113887
0.115691
0.117389
0.118983
0.12048
0.121881
0.123192
0.124418
0.125562
0.126631
0.127627
0.128557
0.129425
0.130235
0.130991
0.131698
0.13236
0.132979
0.13356
0.134105
0.134618
0.135101
0.135556
0.135986
0.136395
0.136781
0.137161
0.137476
0.138018
0.023565
0.0253466
0.0272571
0.0290948
0.0306711
0.0317957
0.0324789
0.0328378
0.0326779
0.0329491
0.0332436
0.0333112
0.0331595
0.0328507
0.032476
0.0321684
0.0320899
0.0323983
0.0332117
0.0345862
0.0365119
0.0389275
0.0417441
0.0448677
0.0482126
0.0517079
0.0552973
0.0589365
0.0625907
0.0662323
0.0698392
0.0733933
0.0768798
0.0802865
0.083603
0.0868208
0.089933
0.0929337
0.0958184
0.0985836
0.101227
0.103747
0.106144
0.108417
0.110567
0.112598
0.114512
0.116311
0.118001
0.119585
0.121068
0.122454
0.123747
0.124954
0.126079
0.127128
0.128104
0.129014
0.129861
0.130652
0.131389
0.132078
0.132722
0.133325
0.13389
0.134421
0.134919
0.135389
0.135832
0.136251
0.136648
0.137036
0.137358
0.13791
0.0243404
0.0255109
0.0268639
0.0283725
0.0299825
0.0315857
0.0330291
0.0341735
0.0348471
0.0351976
0.0353202
0.0351301
0.0351884
0.0353292
0.035379
0.0353069
0.0351748
0.0350869
0.0351728
0.0355707
0.0363995
0.0377336
0.0395908
0.0419372
0.0447029
0.0478022
0.0511492
0.0546678
0.0582944
0.0619779
0.0656777
0.0693614
0.0730036
0.0765835
0.0800848
0.0834942
0.0868008
0.089996
0.0930731
0.0960268
0.0988534
0.10155
0.104116
0.106551
0.108855
0.111031
0.11308
0.115006
0.116814
0.118507
0.12009
0.121568
0.122947
0.124231
0.125426
0.126537
0.127571
0.128532
0.129426
0.130257
0.131032
0.131754
0.132427
0.133057
0.133645
0.134197
0.134714
0.135201
0.135659
0.136092
0.1365
0.136898
0.137229
0.137791
0.0269181
0.0276153
0.0284346
0.0293478
0.0303692
0.0315168
0.0327843
0.0341205
0.0354122
0.0365322
0.0373837
0.0378623
0.0380459
0.0380134
0.0377595
0.0376061
0.0376147
0.0376741
0.0377318
0.0378349
0.0380782
0.0385736
0.0394289
0.0407266
0.042507
0.0447631
0.0474486
0.0504919
0.0538119
0.0573302
0.0609771
0.0646943
0.0684343
0.0721591
0.0758385
0.0794485
0.0829703
0.0863887
0.0896923
0.092872
0.0959212
0.098835
0.10161
0.104246
0.106742
0.109098
0.111317
0.113403
0.115359
0.117189
0.118898
0.120492
0.121977
0.123357
0.12464
0.12583
0.126935
0.12796
0.128911
0.129794
0.130614
0.131376
0.132086
0.132747
0.133364
0.133941
0.134481
0.134988
0.135464
0.135913
0.136335
0.136745
0.137085
0.137661
0.0322643
0.0325936
0.0330116
0.0334634
0.0339434
0.0344661
0.0350587
0.035752
0.036566
0.0374901
0.0384764
0.0394369
0.0402673
0.0408803
0.041194
0.0412252
0.0410427
0.0406835
0.0403012
0.0401629
0.0402208
0.0404141
0.0407657
0.0413452
0.0422362
0.0435135
0.0452263
0.0473882
0.049976
0.0529371
0.0562014
0.0596931
0.0633396
0.0670765
0.0708493
0.0746133
0.0783324
0.0819782
0.0855282
0.088965
0.0922754
0.0954497
0.098481
0.101365
0.104099
0.106682
0.109116
0.111404
0.113547
0.115551
0.117422
0.119163
0.120783
0.122286
0.12368
0.124971
0.126166
0.127271
0.128295
0.129241
0.130118
0.130931
0.131686
0.132386
0.133039
0.133646
0.134214
0.134745
0.135242
0.13571
0.136149
0.136575
0.136926
0.137517
0.0405075
0.0405484
0.040658
0.0407744
0.0408818
0.0409783
0.0410704
0.0411731
0.0413112
0.0415162
0.0418189
0.0422384
0.0427685
0.0433725
0.0439829
0.0445111
0.0448731
0.0449951
0.0448454
0.0444827
0.0439842
0.0433618
0.0430306
0.0430321
0.0433251
0.0438993
0.0447889
0.0460419
0.0476979
0.0497754
0.0522655
0.0551326
0.0583207
0.0617622
0.0653864
0.069126
0.072921
0.07672
0.0804805
0.084168
0.0877554
0.0912218
0.0945514
0.0977331
0.100759
0.103626
0.10633
0.108873
0.111257
0.113485
0.115562
0.117495
0.119288
0.12095
0.122488
0.123908
0.125219
0.126429
0.127544
0.128573
0.129523
0.1304
0.13121
0.131961
0.132657
0.133303
0.133905
0.134465
0.134989
0.13548
0.135939
0.136383
0.136749
0.137358
0.0508988
0.0507358
0.050624
0.0505078
0.0503718
0.0502099
0.0500193
0.0497996
0.0495549
0.0492947
0.0490364
0.0488052
0.0486317
0.0485452
0.0485666
0.0486969
0.0489115
0.0491593
0.0493657
0.0494481
0.0493407
0.0489759
0.0483985
0.0476969
0.0469418
0.0463496
0.046191
0.0464808
0.0471939
0.0483275
0.0498877
0.0518744
0.0542728
0.0570505
0.0601594
0.0635398
0.0671264
0.0708535
0.0746587
0.078486
0.0822869
0.0860208
0.0896546
0.0931627
0.0965257
0.0997298
0.102766
0.10563
0.108319
0.110834
0.11318
0.115361
0.117382
0.119253
0.120979
0.122569
0.124033
0.125378
0.126615
0.127751
0.128794
0.129754
0.130637
0.131451
0.132203
0.132898
0.133542
0.13414
0.134697
0.135216
0.1357
0.136166
0.13655
0.137182
0.0624538
0.0621592
0.0619021
0.0616368
0.0613513
0.06104
0.0606989
0.060324
0.0599123
0.0594615
0.0589717
0.0584465
0.057895
0.057333
0.0567833
0.0562739
0.0558335
0.0554847
0.0552362
0.0550742
0.0549614
0.0548361
0.0546204
0.0542461
0.0536586
0.0528551
0.0519193
0.0509701
0.0500817
0.0496728
0.0498495
0.050601
0.0518945
0.0536957
0.0559626
0.0586437
0.0616796
0.0650061