/*--------------------------------*- C++ -*----------------------------------*\
| =========                 |                                                 |
| \\      /  F ield         | OpenFOAM: The Open Source CFD Toolbox           |
|  \\    /   O peration     | Version:  5.x                                   |
|   \\  /    A nd           | Web:      www.OpenFOAM.org                      |
|    \\/     M anipulation  |                                                 |
\*---------------------------------------------------------------------------*/
FoamFile
{
    version     2.0;
    format      ascii;
    class       volScalarField;
    location    "450";
    object      nuTilda;
}
// * * * * * * * * * * * * * * * * * * * * * * * * * * * * * * * * * * * * * //

dimensions      [0 2 -1 0 0 0 0];

internalField   nonuniform List<scalar> 
11040
(
0.00332915
0.00390915
0.00419999
0.00424524
0.00406803
0.00380342
0.0035772
0.00338109
0.00317792
0.00294507
0.00265453
0.00238001
0.00216579
0.00199949
0.00183029
0.00164738
0.001439
0.00108622
0.000777553
0.000633275
0.000548679
0.000468449
0.000406404
0.000442157
0.000545702
0.000551435
0.000503039
0.00043622
0.000418581
0.000417077
0.000424425
0.000440349
0.000465475
0.000498315
0.000533564
0.000558017
0.00054192
0.000458753
0.000442077
0.000528585
0.000892062
0.00771731
0.00824183
0.0074954
0.00672129
0.00599132
0.00536159
0.00528578
0.00531911
0.00528395
0.00514276
0.00495168
0.00480163
0.00469466
0.0045732
0.0043929
0.00418944
0.00398172
0.00373837
0.00347769
0.00327143
0.00298166
0.0025715
0.00215445
0.00192798
0.00170195
0.00148703
0.00132135
0.0011674
0.00106062
0.000981295
0.00093804
0.000932343
0.000969653
0.00105342
0.00118661
0.00136949
0.00158834
0.00182061
0.00211628
0.00273636
0.00433351
0.0157417
0.0165415
0.0154624
0.0141353
0.0126555
0.0111912
0.00987797
0.00875151
0.00781788
0.00699408
0.00649385
0.00631952
0.00626061
0.0062551
0.00622422
0.00615066
0.00603624
0.00588228
0.00569914
0.00552057
0.00531983
0.00511808
0.00489415
0.00454498
0.00402237
0.00351939
0.00316323
0.00284013
0.00260668
0.00242394
0.00230417
0.00226921
0.00233528
0.00251341
0.0028069
0.00321074
0.00370136
0.0042405
0.0048484
0.0059463
0.00888544
0.0249218
0.0257885
0.024612
0.0228873
0.020885
0.0188207
0.0168216
0.0149367
0.0132073
0.0116132
0.0101146
0.00888091
0.00821084
0.00796709
0.00786053
0.00780071
0.00774515
0.00766929
0.0075636
0.00744391
0.00733022
0.00727502
0.00725183
0.00716967
0.0069486
0.00653573
0.0059436
0.00535842
0.00493657
0.00460324
0.00436925
0.00427362
0.00434872
0.00462088
0.0051006
0.00577952
0.00661109
0.00753282
0.00854262
0.010184
0.0143257
0.0349315
0.0357488
0.0345728
0.0326164
0.0302357
0.0276744
0.0250947
0.0225372
0.0201042
0.0178091
0.0155468
0.013509
0.0119154
0.0107004
0.0100646
0.00970346
0.00948195
0.00933369
0.00921903
0.00912595
0.00907561
0.00912908
0.00928688
0.00948403
0.00960733
0.00955716
0.0092925
0.00885301
0.00831165
0.00778075
0.00737809
0.00717466
0.00722385
0.00757528
0.00825307
0.00925145
0.010481
0.0118439
0.0132866
0.0154383
0.02042
0.0453874
0.0461087
0.0449961
0.0429721
0.0403924
0.0374385
0.0343179
0.0311829
0.028143
0.025219
0.0222895
0.0195582
0.0172465
0.0153348
0.0137338
0.0124993
0.0118208
0.011357
0.0110141
0.0107722
0.0106552
0.0107184
0.0109787
0.0114091
0.0118893
0.012263
0.0124221
0.0123481
0.0120872
0.0117203
0.0113595
0.0111434
0.0112109
0.0116496
0.0125121
0.0138486
0.0155062
0.0173419
0.0191853
0.0217144
0.0270461
0.0559761
0.0565639
0.0555478
0.0535887
0.0509549
0.0478404
0.0444518
0.0409418
0.0374409
0.0339895
0.0304705
0.0271016
0.0241409
0.0216062
0.0193218
0.0172641
0.0154744
0.0143381
0.0135122
0.0128622
0.0124076
0.0122409
0.012397
0.0128865
0.0136338
0.0144494
0.0151268
0.0155489
0.015711
0.0156801
0.0155737
0.0155642
0.0158711
0.0166812
0.0180552
0.0198837
0.0219623
0.0242681
0.0263957
0.0290901
0.0340829
0.0663466
0.066814
0.0659175
0.0641141
0.061588
0.0585351
0.0551254
0.0514858
0.0477439
0.0439493
0.0399959
0.0361046
0.0325677
0.0294429
0.0265656
0.0238855
0.0213576
0.0190678
0.0174177
0.0160955
0.0150002
0.0142692
0.0139748
0.0141462
0.0148169
0.015876
0.0170683
0.0181209
0.018887
0.0193666
0.0196598
0.0199581
0.0205512
0.0217561
0.0237811
0.0265989
0.0298599
0.0329376
0.0351522
0.0377138
0.0416947
0.0762585
0.0766095
0.0758325
0.0742341
0.0719379
0.0691117
0.065884
0.0623454
0.0586033
0.0546985
0.050534
0.0463144
0.0423439
0.0387186
0.0353154
0.0320976
0.0290252
0.0260346
0.0233342
0.0211479
0.019236
0.0177107
0.0166463
0.0160447
0.016054
0.016745
0.0180205
0.0195941
0.0211116
0.0223451
0.023272
0.0240426
0.0249602
0.0264479
0.0289007
0.0324489
0.0368515
0.0415103
0.0454597
0.0478352
0.0505417
0.0854697
0.0857219
0.0850618
0.0836894
0.0816883
0.0791903
0.0762861
0.0730297
0.0695006
0.0657008
0.0615583
0.0572441
0.053047
0.049094
0.0453236
0.0416901
0.0381754
0.0347315
0.03135
0.0283206
0.0256058
0.0232978
0.021407
0.0198293
0.0187422
0.0183419
0.0187659
0.0199983
0.0218097
0.0238144
0.0256586
0.0272207
0.0286788
0.0304609
0.0331142
0.0370253
0.042161
0.0480428
0.0538326
0.0584945
0.0612178
0.0938208
0.0939964
0.0934461
0.0922974
0.0906089
0.0884806
0.0859736
0.083099
0.0799128
0.0764295
0.0725614
0.0684276
0.0642712
0.0602187
0.0562363
0.0523373
0.0485199
0.0447719
0.0410145
0.0373812
0.0340441
0.0311552
0.0286505
0.0262862
0.024169
0.0224791
0.021437
0.0212463
0.0220094
0.0236467
0.025878
0.0283188
0.0306929
0.0330653
0.0359033
0.0398155
0.0451197
0.051616
0.0586155
0.0651145
0.0701121
0.101235
0.101355
0.100901
0.0999569
0.0985648
0.096801
0.0947067
0.0922698
0.089532
0.0864952
0.0830759
0.0793464
0.0754878
0.0716025
0.0676694
0.0637211
0.0597767
0.055843
0.0518945
0.0478987
0.0440927
0.0408476
0.0380133
0.0352378
0.0325294
0.0299664
0.0276935
0.025915
0.0248598
0.0247228
0.0255919
0.0273922
0.0298963
0.0328431
0.0361553
0.0400884
0.0451065
0.0514818
0.05892
0.0665825
0.073398
0.107707
0.107783
0.107408
0.106639
0.105508
0.104075
0.102368
0.100365
0.0981003
0.0955651
0.0926855
0.0894978
0.0861113
0.0826071
0.0789735
0.0752491
0.0714406
0.0675601
0.0636103
0.0595665
0.0554439
0.0517967
0.0487564
0.0458587
0.0429996
0.0401504
0.0373433
0.0346689
0.0322763
0.0303631
0.0291447
0.028806
0.0294494
0.0310678
0.0335879
0.0369713
0.0413339
0.0469428
0.0539044
0.0618268
0.069849
0.113272
0.113309
0.112995
0.112372
0.111464
0.110315
0.108946
0.107337
0.105512
0.103462
0.101126
0.0985043
0.0956842
0.0927074
0.0895562
0.0862522
0.0828094
0.0792465
0.0755518
0.0717187
0.0677268
0.0640106
0.0606828
0.0575676
0.054672
0.0518573
0.049047
0.0462235
0.0434175
0.040707
0.0382175
0.0361153
0.0345845
0.0337931
0.033867
0.0348883
0.0369274
0.0401306
0.0447081
0.050786
0.0582092
0.117979
0.117994
0.117735
0.117233
0.11651
0.115597
0.11451
0.113233
0.111787
0.110164
0.108305
0.106224
0.10397
0.101561
0.0989753
0.0962196
0.0932991
0.0902181
0.0869768
0.0835709
0.0799945
0.076603
0.0734636
0.0703423
0.067278
0.0643618
0.0616301
0.0589697
0.0563093
0.0536269
0.0509375
0.0482918
0.0457772
0.0435112
0.0416255
0.040264
0.0395553
0.039618
0.0406029
0.0426883
0.0461777
0.121946
0.121943
0.121726
0.12132
0.120753
0.120026
0.119164
0.118158
0.117022
0.115752
0.114304
0.112686
0.110931
0.109045
0.107
0.104803
0.102461
0.099961
0.0972966
0.0944613
0.0914463
0.0885564
0.0858554
0.0831219
0.0803607
0.077596
0.074864
0.0721788
0.069606
0.0671425
0.0647164
0.0622879
0.0598445
0.0574028
0.0549979
0.0527026
0.050608
0.0487941
0.0473616
0.0464237
0.046123
0.125271
0.125256
0.125072
0.124742
0.124287
0.123711
0.12303
0.12224
0.121353
0.120366
0.119248
0.118006
0.116661
0.115208
0.113636
0.111944
0.11013
0.108186
0.106111
0.10389
0.101507
0.0991984
0.0970209
0.0948067
0.0925558
0.0902676
0.0879467
0.0856017
0.0832531
0.0809218
0.0786154
0.076337
0.07411
0.0719357
0.069786
0.0676457
0.065517
0.0634026
0.0613345
0.0593745
0.0574606
0.127923
0.127902
0.127748
0.127478
0.12711
0.126648
0.126103
0.125481
0.124778
0.123998
0.123122
0.122157
0.121117
0.119998
0.118791
0.117497
0.116111
0.114626
0.113038
0.111338
0.109517
0.107742
0.106059
0.104343
0.102597
0.100821
0.0990121
0.0971751
0.0953065
0.0934093
0.09149
0.0895557
0.0876164
0.0856801
0.0837432
0.0818076
0.0798741
0.0779249
0.0759619
0.074084
0.0721394
0.129962
0.129938
0.129807
0.129584
0.12928
0.128907
0.128462
0.127955
0.127386
0.126758
0.126063
0.125297
0.124474
0.123593
0.122647
0.121638
0.120563
0.119417
0.118196
0.116892
0.1155
0.114141
0.11285
0.111536
0.110201
0.108845
0.107468
0.106069
0.104648
0.103202
0.101736
0.100246
0.098732
0.0971966
0.0956359
0.094055
0.0924598
0.0908393
0.0891894
0.0875284
0.0857857
0.131561
0.131535
0.131424
0.131236
0.130981
0.130669
0.1303
0.12988
0.129416
0.1289
0.128333
0.127711
0.127048
0.126344
0.125589
0.124786
0.123935
0.123033
0.122077
0.121062
0.119985
0.118933
0.117935
0.116922
0.115897
0.11486
0.11381
0.112748
0.111672
0.110583
0.109479
0.10836
0.107225
0.106075
0.104901
0.103706
0.102493
0.101252
0.0999823
0.0986872
0.0973248
0.132843
0.132819
0.132724
0.132565
0.132349
0.132083
0.131775
0.131423
0.131032
0.130602
0.130131
0.129622
0.129077
0.128501
0.127887
0.127238
0.126553
0.125831
0.125071
0.124268
0.123421
0.122595
0.121813
0.121022
0.120226
0.119423
0.118611
0.117793
0.116972
0.116145
0.115311
0.114469
0.113619
0.112762
0.111891
0.111006
0.110109
0.109193
0.108256
0.1073
0.106303
0.133894
0.133873
0.133792
0.133655
0.133469
0.133241
0.132977
0.13268
0.132348
0.131987
0.13159
0.131163
0.130709
0.13023
0.129727
0.129194
0.128634
0.128048
0.127433
0.126788
0.126113
0.125455
0.124832
0.124207
0.123576
0.122946
0.122311
0.121674
0.121036
0.120398
0.11976
0.119118
0.118474
0.117827
0.117174
0.116514
0.115849
0.115172
0.114483
0.113782
0.113061
0.13477
0.134752
0.134681
0.134562
0.134401
0.134204
0.133976
0.133718
0.133437
0.133127
0.132792
0.13243
0.132049
0.131646
0.131224
0.130783
0.130323
0.12984
0.129337
0.128811
0.128265
0.127733
0.127231
0.126728
0.126224
0.125722
0.125219
0.124715
0.124213
0.123712
0.123215
0.122721
0.122226
0.121732
0.121234
0.120734
0.120233
0.119726
0.119212
0.118693
0.118166
0.135509
0.135494
0.135432
0.135328
0.135188
0.135016
0.134817
0.134593
0.134348
0.134081
0.133792
0.133482
0.133157
0.132818
0.132461
0.13209
0.131705
0.131306
0.130892
0.13046
0.130012
0.129578
0.129168
0.128759
0.128352
0.127948
0.127544
0.127141
0.126741
0.126343
0.125949
0.125558
0.125173
0.124789
0.124405
0.124022
0.123639
0.123253
0.122865
0.122476
0.122086
0.13614
0.136127
0.136073
0.135982
0.135859
0.135708
0.135533
0.135338
0.135124
0.134893
0.134643
0.134377
0.134097
0.133805
0.133503
0.133189
0.132863
0.132526
0.132179
0.131821
0.131454
0.131095
0.130756
0.13042
0.130087
0.129756
0.129428
0.129102
0.12878
0.128461
0.128146
0.127835
0.127528
0.127225
0.126924
0.126627
0.126331
0.126036
0.125739
0.125443
0.125149
0.136683
0.136672
0.136625
0.136545
0.136437
0.136304
0.136151
0.135979
0.135791
0.135588
0.135372
0.135141
0.134899
0.134648
0.134387
0.134118
0.133841
0.133557
0.133264
0.132963
0.132655
0.132357
0.132076
0.131797
0.131522
0.131249
0.130979
0.130713
0.130451
0.130192
0.129937
0.129687
0.129441
0.129198
0.128959
0.128723
0.128491
0.128262
0.128033
0.127806
0.127583
0.137154
0.137145
0.137104
0.137034
0.13694
0.136823
0.136688
0.136536
0.13637
0.136192
0.136001
0.1358
0.13559
0.135372
0.135147
0.134917
0.134678
0.134435
0.134186
0.133933
0.133673
0.133422
0.133186
0.132953
0.132723
0.132496
0.132273
0.132053
0.131837
0.131625
0.131418
0.131214
0.131015
0.130819
0.130627
0.130439
0.130254
0.130071
0.129891
0.129714
0.129542
0.137566
0.137558
0.137524
0.137463
0.137381
0.137278
0.137159
0.137024
0.136877
0.136719
0.136551
0.136374
0.13619
0.136001
0.135806
0.135606
0.135401
0.135192
0.134979
0.134762
0.134543
0.134331
0.134131
0.133934
0.13374
0.13355
0.133363
0.13318
0.133001
0.132826
0.132655
0.132488
0.132326
0.132167
0.132011
0.131859
0.13171
0.131564
0.131421
0.13128
0.131145
0.137927
0.137923
0.137894
0.137842
0.13777
0.137679
0.137573
0.137454
0.137324
0.137183
0.137034
0.136877
0.136715
0.136548
0.136377
0.136203
0.136026
0.135845
0.135662
0.135477
0.13529
0.135109
0.134938
0.134771
0.134607
0.134446
0.134289
0.134136
0.133986
0.133841
0.133699
0.133561
0.133428
0.133297
0.13317
0.133047
0.132926
0.132809
0.132694
0.132581
0.132474
0.138247
0.138245
0.138222
0.138178
0.138115
0.138035
0.137941
0.137835
0.137718
0.137593
0.137461
0.137321
0.137178
0.13703
0.136879
0.136726
0.136571
0.136414
0.136257
0.136097
0.135937
0.135782
0.135635
0.135492
0.135352
0.135215
0.135082
0.134953
0.134827
0.134706
0.134587
0.134473
0.134362
0.134255
0.13415
0.134049
0.133951
0.133856
0.133763
0.133672
0.133587
0.138531
0.138533
0.138515
0.138478
0.138423
0.138352
0.138268
0.138173
0.138069
0.137957
0.137839
0.137715
0.137587
0.137456
0.137323
0.137188
0.137051
0.136914
0.136776
0.136638
0.136501
0.136367
0.136241
0.136118
0.135998
0.135881
0.135768
0.135658
0.135551
0.135449
0.13535
0.135254
0.135161
0.135072
0.134986
0.134903
0.134822
0.134745
0.134669
0.134596
0.134527
0.138784
0.13879
0.138778
0.138746
0.138697
0.138634
0.138559
0.138475
0.138382
0.138282
0.138176
0.138066
0.137952
0.137836
0.137718
0.137598
0.137478
0.137357
0.137236
0.137116
0.136997
0.13688
0.136771
0.136664
0.136561
0.136461
0.136364
0.13627
0.13618
0.136093
0.136009
0.135928
0.135851
0.135777
0.135705
0.135636
0.13557
0.135506
0.135444
0.135384
0.135329
0.139011
0.139022
0.139013
0.138986
0.138943
0.138887
0.13882
0.138745
0.138662
0.138574
0.13848
0.138382
0.138281
0.138177
0.138072
0.137966
0.13786
0.137753
0.137647
0.137542
0.137438
0.137336
0.137241
0.137148
0.137059
0.136972
0.136888
0.136808
0.136731
0.136657
0.136586
0.136517
0.136452
0.13639
0.13633
0.136272
0.136217
0.136165
0.136114
0.136065
0.13602
0.139216
0.13923
0.139225
0.139202
0.139164
0.139115
0.139056
0.13899
0.138918
0.138839
0.138756
0.138669
0.13858
0.138488
0.138395
0.138301
0.138206
0.138112
0.138019
0.137926
0.137835
0.137746
0.137662
0.137582
0.137504
0.137428
0.137356
0.137287
0.13722
0.137157
0.137096
0.137038
0.136983
0.13693
0.13688
0.136832
0.136786
0.136742
0.1367
0.13666
0.136623
0.139401
0.139418
0.139415
0.139396
0.139363
0.139322
0.139272
0.139216
0.139153
0.139085
0.139012
0.138936
0.138857
0.138775
0.138693
0.138609
0.138526
0.138442
0.13836
0.138278
0.138198
0.13812
0.138046
0.137975
0.137907
0.137842
0.137779
0.137719
0.137661
0.137606
0.137554
0.137505
0.137458
0.137413
0.13737
0.13733
0.137291
0.137255
0.13722
0.137187
0.137157
0.139569
0.139588
0.139586
0.13957
0.139545
0.139513
0.139473
0.139427
0.139375
0.139317
0.139255
0.139188
0.139119
0.139047
0.138974
0.1389
0.138826
0.138752
0.138679
0.138606
0.138536
0.138467
0.138402
0.13834
0.13828
0.138222
0.138167
0.138115
0.138065
0.138018
0.137973
0.13793
0.13789
0.137851
0.137815
0.137781
0.137749
0.137718
0.137689
0.137662
0.137638
0.139721
0.139739
0.139739
0.139729
0.139713
0.139691
0.139663
0.139628
0.139587
0.139541
0.139489
0.139433
0.139374
0.139312
0.139248
0.139183
0.139117
0.139052
0.138987
0.138923
0.13886
0.1388
0.138742
0.138687
0.138634
0.138583
0.138534
0.138488
0.138445
0.138403
0.138364
0.138327
0.138293
0.13826
0.138229
0.1382
0.138173
0.138148
0.138124
0.138102
0.138083
0.139856
0.139871
0.139873
0.139871
0.139865
0.139855
0.139838
0.139817
0.13979
0.139757
0.13972
0.139678
0.139632
0.139583
0.139531
0.139476
0.13942
0.139364
0.139308
0.139252
0.139199
0.139146
0.139095
0.139046
0.138999
0.138955
0.138913
0.138873
0.138835
0.1388
0.138768
0.138737
0.13871
0.138684
0.138661
0.13864
0.138621
0.138603
0.138588
0.138575
0.138564
0.139961
0.139974
0.139979
0.139982
0.139983
0.13998
0.139974
0.139965
0.139952
0.139937
0.139919
0.139897
0.139873
0.139846
0.139817
0.139786
0.139752
0.139718
0.139682
0.139645
0.139609
0.139573
0.139536
0.139501
0.139467
0.139434
0.139403
0.139373
0.139345
0.13932
0.139296
0.139275
0.139255
0.139238
0.139222
0.139208
0.139196
0.139185
0.139177
0.139169
0.139165
0.140018
0.140027
0.140033
0.140037
0.140039
0.14004
0.140039
0.140037
0.140032
0.140026
0.140019
0.140009
0.139999
0.139986
0.139973
0.139958
0.139943
0.139927
0.13991
0.139892
0.139875
0.139857
0.139839
0.139821
0.139803
0.139786
0.139769
0.139753
0.139737
0.139723
0.139709
0.139697
0.139686
0.139676
0.139667
0.139659
0.139652
0.139646
0.139641
0.139637
0.139635
0.140047
0.140054
0.14006
0.140066
0.14007
0.140073
0.140075
0.140076
0.140076
0.140075
0.140074
0.140071
0.140067
0.140062
0.140056
0.14005
0.140043
0.140036
0.140029
0.140021
0.140013
0.140005
0.139997
0.139989
0.139982
0.139974
0.139966
0.139959
0.139952
0.139946
0.13994
0.139934
0.139929
0.139924
0.13992
0.139916
0.139913
0.139911
0.139909
0.139907
0.139906
0.140061
0.140068
0.140074
0.14008
0.140085
0.14009
0.140094
0.140098
0.140101
0.140104
0.140106
0.140107
0.140107
0.140107
0.140106
0.140105
0.140103
0.140101
0.140098
0.140095
0.140092
0.140089
0.140086
0.140083
0.14008
0.140076
0.140073
0.14007
0.140067
0.140065
0.140062
0.14006
0.140058
0.140057
0.140055
0.140054
0.140053
0.140052
0.140051
0.140051
0.140051
0.140066
0.140073
0.140079
0.140085
0.140091
0.140097
0.140103
0.140109
0.140114
0.140119
0.140124
0.140128
0.140131
0.140134
0.140137
0.140139
0.14014
0.140141
0.140142
0.140142
0.140143
0.140143
0.140142
0.140142
0.140141
0.140141
0.14014
0.140139
0.140139
0.140138
0.140138
0.140137
0.140137
0.140137
0.140137
0.140137
0.140137
0.140137
0.140137
0.140138
0.140138
0.140065
0.140071
0.140077
0.140083
0.140089
0.140096
0.140103
0.14011
0.140117
0.140124
0.14013
0.140137
0.140142
0.140148
0.140153
0.140157
0.140162
0.140165
0.140168
0.140171
0.140174
0.140176
0.140178
0.14018
0.140181
0.140183
0.140184
0.140185
0.140186
0.140187
0.140187
0.140188
0.140189
0.14019
0.140191
0.140191
0.140192
0.140193
0.140194
0.140195
0.140196
0.140058
0.140064
0.140069
0.140074
0.140081
0.140088
0.140095
0.140103
0.140111
0.140119
0.140127
0.140135
0.140142
0.14015
0.140157
0.140163
0.140169
0.140175
0.14018
0.140185
0.14019
0.140194
0.140198
0.140201
0.140204
0.140207
0.14021
0.140212
0.140214
0.140217
0.140218
0.14022
0.140222
0.140223
0.140225
0.140226
0.140228
0.140229
0.14023
0.140232
0.140233
0.140047
0.140051
0.140055
0.14006
0.140066
0.140072
0.140079
0.140087
0.140095
0.140103
0.140112
0.140121
0.140129
0.140138
0.140146
0.140155
0.140162
0.14017
0.140177
0.140184
0.14019
0.140196
0.140201
0.140206
0.140211
0.140215
0.140219
0.140223
0.140226
0.140229
0.140232
0.140234
0.140237
0.140239
0.140241
0.140243
0.140245
0.140246
0.140248
0.14025
0.140251
0.140031
0.140034
0.140037
0.140041
0.140045
0.14005
0.140055
0.140061
0.140068
0.140075
0.140083
0.140091
0.1401
0.140108
0.140117
0.140126
0.140134
0.140143
0.140151
0.14016
0.140168
0.140176
0.140183
0.14019
0.140197
0.140204
0.14021
0.140216
0.140221
0.140226
0.140231
0.140235
0.140239
0.140243
0.140247
0.14025
0.140253
0.140256
0.140258
0.140261
0.140263
0.140011
0.140012
0.140013
0.140015
0.140017
0.140019
0.140021
0.140024
0.140027
0.140031
0.140035
0.140039
0.140044
0.140049
0.140055
0.140062
0.140065
0.140068
0.140071
0.140074
0.140077
0.140081
0.140086
0.14009
0.140094
0.140099
0.140103
0.140108
0.140112
0.140116
0.14012
0.140124
0.140128
0.140131
0.140134
0.140137
0.14014
0.140143
0.140146
0.140148
0.14015
0.00614957
0.00821132
0.00901043
0.0102345
0.0126545
0.0160517
0.0200061
0.0242616
0.0286616
0.0331154
0.0375685
0.0419838
0.0463344
0.0505999
0.054766
0.0588232
0.0627652
0.0665879
0.0702892
0.0738676
0.0773224
0.0806534
0.0838605
0.0869438
0.0899039
0.0927412
0.0954566
0.0980513
0.100527
0.102884
0.105126
0.107254
0.10927
0.111179
0.112982
0.114684
0.116287
0.117796
0.119214
0.120546
0.121796
0.122967
0.124065
0.125093
0.126056
0.126959
0.127806
0.128604
0.129357
0.130068
0.13074
0.131375
0.131974
0.13254
0.133075
0.13358
0.134057
0.134508
0.134934
0.135337
0.135717
0.136078
0.136418
0.136741
0.137046
0.137335
0.13761
0.137871
0.138119
0.138356
0.138582
0.138798
0.138983
0.139245
0.0130964
0.0159161
0.0154835
0.0141828
0.0140436
0.0158409
0.0190763
0.0230442
0.0273403
0.0317652
0.0362242
0.0406612
0.0450427
0.0493446
0.0535504
0.0576496
0.0616349
0.0655017
0.0692473
0.0728703
0.0763697
0.079745
0.082996
0.0861228
0.0891256
0.0920049
0.0947614
0.0973961
0.0999103
0.102306
0.104583
0.106746
0.108797
0.110737
0.112571
0.114302
0.115932
0.117467
0.11891
0.120264
0.121535
0.122727
0.123843
0.124888
0.125867
0.126785
0.127648
0.128459
0.129224
0.129946
0.130626
0.131269
0.131875
0.132448
0.132989
0.1335
0.133982
0.134438
0.134868
0.135275
0.13566
0.136024
0.136368
0.136694
0.137002
0.137294
0.137571
0.137834
0.138085
0.138324
0.138552
0.138769
0.138957
0.139225
0.0203529
0.0249322
0.024737
0.0220511
0.0191215
0.0178882
0.0190773
0.022071
0.025982
0.0302575
0.034677
0.0391174
0.0435253
0.0478653
0.0521161
0.0562646
0.0603015
0.0642212
0.0680205
0.0716975
0.0752509
0.0786799
0.081984
0.0851632
0.0882176
0.0911474
0.0939532
0.0966359
0.0991966
0.101637
0.103958
0.106162
0.108252
0.11023
0.1121
0.113865
0.115528
0.117093
0.118564
0.119945
0.121241
0.122455
0.123593
0.124658
0.125656
0.126591
0.12747
0.128297
0.129076
0.129809
0.1305
0.131152
0.131766
0.132347
0.132894
0.133411
0.1339
0.134361
0.134797
0.135209
0.135598
0.135966
0.136314
0.136643
0.136954
0.13725
0.137529
0.137795
0.138048
0.138289
0.138519
0.138739
0.138929
0.139203
0.0270817
0.0338927
0.0349416
0.0323437
0.0280399
0.0239483
0.0218259
0.0223814
0.0250264
0.0287736
0.0329905
0.0373577
0.0417633
0.0461305
0.0504255
0.0546281
0.0587243
0.062706
0.0665693
0.0703113
0.0739297
0.0774235
0.0807918
0.0840344
0.087151
0.0901418
0.093007
0.0957473
0.0983638
0.100858
0.103231
0.105484
0.107622
0.109645
0.111557
0.113362
0.115063
0.116664
0.118168
0.11958
0.120905
0.122146
0.123309
0.124397
0.125416
0.126372
0.127269
0.128114
0.128909
0.129656
0.130359
0.131021
0.131645
0.132234
0.13279
0.133314
0.133809
0.134277
0.134718
0.135135
0.135529
0.135902
0.136254
0.136587
0.136903
0.137201
0.137484
0.137752
0.138008
0.138251
0.138483
0.138706
0.138898
0.139178
0.0333727
0.0424929
0.0451746
0.043558
0.0393235
0.0339238
0.0289694
0.026031
0.0258495
0.0279682
0.0314344
0.0355002
0.0397959
0.044134
0.048451
0.0527028
0.05686
0.0609104
0.0648475
0.0686659
0.0723619
0.0759333
0.0793789
0.082698
0.0858898
0.0889542
0.0918912
0.0947012
0.0973849
0.0999436
0.102379
0.104692
0.106886
0.108963
0.110926
0.112779
0.114525
0.116168
0.117712
0.119161
0.12052
0.121793
0.122985
0.1241
0.125144
0.126123
0.127042
0.127908
0.128721
0.129484
0.130201
0.130875
0.13151
0.132109
0.132673
0.133206
0.133709
0.134183
0.134632
0.135055
0.135454
0.135832
0.136189
0.136527
0.136846
0.137148
0.137435
0.137706
0.137965
0.138211
0.138445
0.138671
0.138864
0.139152
0.0393218
0.0505586
0.054916
0.0547362
0.0514806
0.0462374
0.0401237
0.0344915
0.0307352
0.0296484
0.0310189
0.0340032
0.0378138
0.0419617
0.046221
0.0504803
0.0546772
0.0587909
0.0628065
0.0667107
0.0704958
0.0741583
0.0776959
0.0811066
0.0843891
0.0875424
0.0905661
0.0934603
0.0962254
0.0988623
0.101372
0.103757
0.10602
0.108161
0.110186
0.112096
0.113896
0.11559
0.117181
0.118674
0.120074
0.121385
0.122611
0.123759
0.124832
0.125838
0.126783
0.127672
0.128507
0.129289
0.130022
0.13071
0.131358
0.131969
0.132544
0.133086
0.133598
0.13408
0.134536
0.134966
0.135372
0.135755
0.136118
0.13646
0.136784
0.137091
0.137381
0.137656
0.137917
0.138166
0.138403
0.138632
0.138828
0.139122
0.0449647
0.0577643
0.063686
0.0651605
0.0634037
0.0592596
0.0534863
0.0469607
0.0407983
0.0362124
0.0340559
0.0343969
0.0366345
0.0399906
0.0438923
0.048015
0.0521889
0.0563359
0.0604153
0.0644013
0.0682797
0.0720432
0.0756863
0.0792045
0.0825946
0.0858543
0.0889824
0.0919781
0.0948415
0.0975732
0.100174
0.102646
0.104991
0.107211
0.10931
0.11129
0.113156
0.114911
0.116559
0.118105
0.119554
0.12091
0.122178
0.123363
0.124471
0.125509
0.126485
0.127402
0.128262
0.129066
0.129819
0.130524
0.131187
0.131811
0.132398
0.132951
0.133473
0.133965
0.134429
0.134867
0.13528
0.13567
0.136039
0.136387
0.136716
0.137027
0.137322
0.137601
0.137866
0.138118
0.138358
0.13859
0.138788
0.13909
0.0501358
0.0636596
0.0709622
0.0741359
0.0741457
0.0716583
0.0671979
0.0613
0.0546441
0.0481233
0.0427653
0.0394351
0.038478
0.0396171
0.0422246
0.0456815
0.0495529
0.0535905
0.057664
0.0617027
0.0656667
0.0695342
0.0732918
0.0769306
0.0804444
0.0838287
0.0870804
0.0901976
0.0931792
0.0960252
0.0987363
0.101314
0.103759
0.106075
0.108264
0.110329
0.112275
0.114104
0.115822
0.117432
0.11894
0.120351
0.121669
0.122901
0.124051
0.125127
0.126138
0.127089
0.127979
0.12881
0.129585
0.130311
0.130992
0.131632
0.132233
0.1328
0.133333
0.133836
0.13431
0.134757
0.135179
0.135576
0.135952
0.136306
0.136641
0.136958
0.137258
0.137541
0.13781
0.138066
0.138309
0.138545
0.138745
0.139054
0.0561117
0.0678374
0.0761756
0.080935
0.0827597
0.082219
0.0796508
0.0753529
0.0697072
0.0632272
0.056597
0.0506448
0.0461851
0.043759
0.0434442
0.0448952
0.0475715
0.0509731
0.0547474
0.0586799
0.0626481
0.0665829
0.0704445
0.0742086
0.0778596
0.0813872
0.0847845
0.0880466
0.0911705
0.0941547
0.0969988
0.0997037
0.102271
0.104703
0.107003
0.109172
0.111216
0.113136
0.114939
0.116629
0.118209
0.119687
0.121067
0.122354
0.123556
0.124679
0.125733
0.126723
0.127648
0.128512
0.129316
0.130066
0.130769
0.131427
0.132046
0.132628
0.133176
0.133691
0.134176
0.134634
0.135065
0.135472
0.135855
0.136217
0.136559
0.136881
0.137187
0.137475
0.137749
0.138009
0.138256
0.138495
0.138698
0.139015
0.0636815
0.0704618
0.0789531
0.0849213
0.0883174
0.0897496
0.089349
0.0871922
0.0834815
0.0784802
0.0725402
0.0661468
0.059929
0.0545887
0.0507457
0.0487586
0.0486293
0.0500571
0.0526031
0.0558496
0.0594812
0.0632914
0.0671543
0.0709947
0.0747664
0.0784407
0.081999
0.0854289
0.0887224
0.0918743
0.0948817
0.0977435
0.10046
0.103034
0.105468
0.107765
0.109929
0.111962
0.11387
0.115657
0.117328
0.118889
0.120345
0.121701
0.122966
0.124147
0.125253
0.12629
0.12726
0.128162
0.129001
0.129781
0.13051
0.131192
0.131831
0.132432
0.132996
0.133526
0.134025
0.134495
0.134937
0.135354
0.135747
0.136117
0.136467
0.136797
0.137108
0.137403
0.137682
0.137946
0.138198
0.138441
0.138647
0.138972
0.0735806
0.0768107
0.0801656
0.0862538
0.0902552
0.0932614
0.0949473
0.0950452
0.0937089
0.0910199
0.0870813
0.0820887
0.0763646
0.070356
0.0646102
0.0597056
0.0561382
0.0542012
0.0539198
0.0550821
0.0573433
0.0603434
0.0637841
0.0674518
0.0712058
0.0749571
0.0786494
0.0822467
0.0857259
0.0890717
0.0922747
0.0953291
0.0982322
0.100984
0.103585
0.106039
0.10835
0.110523
0.112562
0.11447
0.116254
0.117918
0.119468
0.120912
0.122255
0.123508
0.124679
0.125774
0.126797
0.127747
0.128629
0.129447
0.130208
0.130918
0.131583
0.132205
0.132789
0.133337
0.133853
0.134337
0.134793
0.135221
0.135625
0.136006
0.136364
0.136702
0.137021
0.137322
0.137607
0.137878
0.138134
0.138381
0.138592
0.138925
0.0783453
0.0820106
0.0851668
0.0879315
0.0895714
0.0929514
0.0958887
0.0976156
0.0985152
0.0984025
0.0970952
0.0945658
0.0909329
0.0863825
0.0811805
0.075694
0.0703791
0.0657262
0.0621731
0.060014
0.059341
0.0600452
0.0618758
0.0645269
0.0677115
0.0712007
0.0748309
0.0784917
0.0821112
0.0856426
0.0890558
0.0923317
0.0954583
0.0984292
0.101242
0.103896
0.106395
0.108742
0.110943
0.113002
0.114927
0.116721
0.118391
0.119945
0.121388
0.122731
0.123983
0.125151
0.126239
0.127249
0.128183
0.129048
0.129851
0.130596
0.131292
0.131942
0.13255
0.13312
0.133654
0.134156
0.134628
0.135071
0.135487
0.135879
0.136248
0.136596
0.136924
0.137233
0.137525
0.137802
0.138063
0.138316
0.138531
0.138872
0.0759442
0.0803691
0.0843461
0.0877626
0.0904792
0.0928822
0.0946472
0.0956559
0.0975445
0.0994046
0.100433
0.100457
0.0995811
0.097733
0.0948787
0.0911065
0.0866288
0.0817551
0.0768683
0.0723913
0.0687302
0.0662045
0.0649872
0.0650799
0.0663353
0.0685133
0.0713476
0.0745965
0.0780687
0.0816253
0.0851717
0.088645
0.0920045
0.0952248
0.0982904
0.101193
0.10393
0.106502
0.108912
0.111166
0.113269
0.115229
0.117051
0.118744
0.120314
0.121772
0.123126
0.124386
0.125557
0.126641
0.127643
0.128568
0.129422
0.130213
0.130947
0.131631
0.132269
0.132866
0.133424
0.133948
0.134438
0.134898
0.13533
0.135736
0.136118
0.136477
0.136815
0.137133
0.137433
0.137717
0.137985
0.138245
0.138464
0.138815
0.0644863
0.0696183
0.074565
0.0792332
0.0835076
0.0873552
0.0906728
0.0933713
0.0956176
0.0972877
0.0982616
0.0989713
0.10027
0.10116
0.101169
0.1002
0.0983133
0.0955628
0.0920505
0.0879759
0.0836394
0.0794089
0.0756704
0.0727697
0.0709558
0.070341
0.0708926
0.0724583
0.0748161
0.0777278
0.0809784
0.0843966
0.0878569
0.0912733
0.0945887
0.0977673
0.100788
0.103639
0.106318
0.108823
0.11116
0.113335
0.115355
0.117228
0.118962
0.120568
0.122055
0.123433
0.124709
0.12589
0.126978
0.127979
0.1289
0.129748
0.130533
0.13126
0.131937
0.132567
0.133155
0.133704
0.134218
0.134699
0.13515
0.135572
0.135969
0.136342
0.136692
0.137021
0.137331
0.137624
0.137899
0.138166
0.13839
0.138751
0.0494276
0.0525926
0.0562427
0.0604196
0.0650949
0.0701819
0.0755117
0.0808274
0.0858408
0.0902425
0.0937604
0.0963101
0.0981417
0.0993367
0.0998787
0.10034
0.100978
0.101196
0.100596
0.0990769
0.0967155
0.093655
0.0901054
0.0863519
0.0827355
0.0796079
0.0772761
0.0759527
0.0757247
0.076551
0.0782871
0.080728
0.0836544
0.0868674
0.0902065
0.0935537
0.0968278
0.0999763
0.102968
0.105786
0.108423
0.11088
0.113161
0.115272
0.117224
0.119025
0.120687
0.122221
0.123637
0.124942
0.126142
0.127243
0.128252
0.129177
0.130027
0.130811
0.131536
0.132209
0.132834
0.133416
0.133959
0.134466
0.13494
0.135383
0.135798
0.136187
0.136551
0.136894
0.137215
0.137518
0.137803
0.138078
0.138309
0.138681
0.0465869
0.0473923
0.0485141
0.0499808
0.0518543
0.05421
0.0571278
0.0606769
0.0648899
0.0697267
0.075034
0.0805326
0.0858665
0.0906447
0.094513
0.097363
0.0993131
0.100445
0.100764
0.100893
0.101045
0.100796
0.0998239
0.0980564
0.0955972
0.0926507
0.0894915
0.0864409
0.0838266
0.081933
0.0809564
0.0809787
0.081964
0.0837812
0.0862415
0.0891397
0.0922865
0.0955275
0.0987485
0.101871
0.104848
0.10765
0.110265
0.112692
0.114935
0.117
0.1189
0.120645
0.122249