/*--------------------------------*- C++ -*----------------------------------*\
| =========                 |                                                 |
| \\      /  F ield         | OpenFOAM: The Open Source CFD Toolbox           |
|  \\    /   O peration     | Version:  5.x                                   |
|   \\  /    A nd           | Web:      www.OpenFOAM.org                      |
|    \\/     M anipulation  |                                                 |
\*---------------------------------------------------------------------------*/
FoamFile
{
    version     2.0;
    format      ascii;
    class       volScalarField;
    location    "450";
    object      nuTilda;
}
// * * * * * * * * * * * * * * * * * * * * * * * * * * * * * * * * * * * * * //

dimensions      [0 2 -1 0 0 0 0];

internalField   nonuniform List<scalar> 
41860
(
4.09947e-05
4.36564e-05
5.52091e-05
5.82092e-05
5.38164e-05
4.98424e-05
4.43375e-05
3.97025e-05
3.59681e-05
3.28603e-05
3.01053e-05
2.81193e-05
2.59533e-05
2.49799e-05
2.33511e-05
2.28614e-05
2.2009e-05
2.14132e-05
2.10338e-05
1.97513e-05
1.95972e-05
2.88272e-05
1.90557e-05
2.99328e-05
1.86987e-05
3.03546e-05
3.05954e-05
1.84257e-05
3.06876e-05
3.05789e-05
3.10868e-05
1.80776e-05
1.8024e-05
3.09792e-05
1.79902e-05
3.08827e-05
1.79897e-05
1.79681e-05
1.82607e-05
2.88718e-05
1.83627e-05
1.84863e-05
3.03719e-05
3.04041e-05
1.73928e-05
3.04194e-05
3.03302e-05
3.02871e-05
3.02408e-05
3.03067e-05
3.02987e-05
3.02715e-05
3.02585e-05
2.99954e-05
2.98701e-05
1.74231e-05
1.74715e-05
3.01144e-05
1.75375e-05
3.01606e-05
2.92736e-05
3.02248e-05
1.74993e-05
3.02976e-05
1.75307e-05
2.87847e-05
1.77519e-05
1.77961e-05
2.84259e-05
2.9617e-05
1.77578e-05
2.83045e-05
2.82588e-05
1.75431e-05
1.75812e-05
2.81605e-05
1.74497e-05
1.73343e-05
1.72141e-05
2.73261e-05
1.72164e-05
1.48059e-05
0.000190567
0.000223602
0.000287572
0.000304385
0.000281166
0.000260096
0.000230746
0.000206002
0.000186055
0.000169453
0.000154731
0.000144133
0.000132563
0.000127381
0.000118672
0.000116051
0.000111042
0.000107278
0.000104688
9.84659e-05
9.69765e-05
9.72263e-05
9.14971e-05
9.44196e-05
8.80337e-05
9.22572e-05
9.06413e-05
8.55508e-05
8.94057e-05
8.90986e-05
8.87695e-05
8.36279e-05
8.35962e-05
8.82507e-05
8.3725e-05
8.86043e-05
8.44732e-05
8.49225e-05
8.5559e-05
9.09561e-05
8.79665e-05
8.93507e-05
8.3906e-05
8.38576e-05
7.9165e-05
8.3714e-05
8.36898e-05
8.36371e-05
8.366e-05
8.37332e-05
8.38154e-05
8.39182e-05
8.40452e-05
8.41123e-05
8.42609e-05
7.98013e-05
8.00193e-05
8.49197e-05
8.0462e-05
8.54099e-05
8.55273e-05
8.59699e-05
8.17371e-05
8.65044e-05
8.2203e-05
8.65137e-05
8.22095e-05
8.24466e-05
8.67935e-05
8.77136e-05
8.27884e-05
8.71536e-05
8.74505e-05
8.31371e-05
8.2734e-05
8.68671e-05
8.25568e-05
8.19954e-05
8.14364e-05
8.44657e-05
8.16206e-05
1.7884e-05
0.000239761
0.000277999
0.000363616
0.000387483
0.000358288
0.000331157
0.000293229
0.000261261
0.00023564
0.000214593
0.000196593
0.000183448
0.000171505
0.000165262
0.000160413
0.000158728
0.000157896
0.00015747
0.000156962
0.000156327
0.000155416
0.000157831
0.000154461
0.000156694
0.000153317
0.000155198
0.00015478
0.000150692
0.000152833
0.00015174
0.000150743
0.000147041
0.000146073
0.000147803
0.000144342
0.000146094
0.000142966
0.000142446
0.000141963
0.000144043
0.000141815
0.000141987
0.000141884
0.000141571
0.000138852
0.000140958
0.000140674
0.000140412
0.000140182
0.000139983
0.000139818
0.000139689
0.000139589
0.000139524
0.000139488
0.000137144
0.000137168
0.000139496
0.000137291
0.000139637
0.00013981
0.000139869
0.000137865
0.000140062
0.000138058
0.000140234
0.000138027
0.000138101
0.000140237
0.000140414
0.000138028
0.000140062
0.000140033
0.000137665
0.000137199
0.000138849
0.000136375
0.000135513
0.000134661
0.000134808
0.000134505
2.15856e-05
0.000327431
0.000370743
0.000437442
0.000474896
0.000464909
0.000434907
0.000407682
0.000385304
0.000365271
0.000346664
0.000330272
0.000309883
0.000297275
0.000278925
0.000276011
0.000269959
0.000268927
0.00026693
0.000264218
0.000262701
0.000259327
0.000258979
0.000254739
0.000253783
0.000250014
0.000248699
0.000246783
0.000242425
0.0002418
0.000239268
0.000236954
0.000233298
0.000231093
0.000230442
0.000227132
0.00022665
0.000223745
0.000222305
0.000221093
0.000221144
0.000219246
0.000218694
0.000217511
0.000216509
0.000214549
0.000215025
0.000214337
0.000213704
0.000213126
0.000212605
0.00021215
0.000211755
0.000211414
0.000211147
0.00021092
0.000209588
0.000209473
0.000210441
0.000209344
0.000210347
0.000210478
0.000210406
0.00020947
0.000210436
0.000209492
0.00021052
0.000209417
0.000209415
0.000210242
0.000210247
0.000208949
0.00020966
0.000209464
0.00020791
0.000207249
0.000207497
0.000205742
0.000204403
0.000203057
0.000201273
0.000202201
2.60373e-05
0.00045291
0.000547804
0.000644683
0.000699501
0.000720754
0.000681622
0.000657351
0.000631953
0.000603567
0.000573689
0.000545282
0.000509731
0.000485397
0.00045108
0.000437658
0.000422287
0.00041619
0.000409679
0.000402891
0.000398323
0.000391447
0.000387503
0.000381118
0.000376654
0.000371322
0.000366704
0.00036268
0.000357079
0.000353691
0.000349292
0.000345293
0.000340844
0.000337092
0.000334221
0.000330322
0.000327845
0.000324486
0.00032196
0.000319731
0.000318182
0.000316064
0.000314789
0.000312088
0.000310048
0.000308184
0.000307389
0.000306162
0.000305033
0.000303997
0.000303062
0.000302223
0.00030148
0.000300821
0.000300264
0.000299777
0.000298879
0.000298557
0.000298679
0.000298071
0.000298275
0.000298271
0.000298106
0.000297696
0.000297942
0.000297502
0.00029779
0.000297214
0.000297102
0.000297138
0.000297053
0.000296186
0.00029608
0.000295701
0.000294473
0.000293511
0.000292829
0.000291249
0.000289371
0.000287447
0.00028417
0.000285397
3.13849e-05
0.000618791
0.000788443
0.000994226
0.00108158
0.00111508
0.00105305
0.00101022
0.000965342
0.000916762
0.000866809
0.000819103
0.000764164
0.000723008
0.000671247
0.000643423
0.00061564
0.000601548
0.000588425
0.000575975
0.000566567
0.00055504
0.00054668
0.000536742
0.000528383
0.000520174
0.000512086
0.00050526
0.000497395
0.000491159
0.000484436
0.000478297
0.00047221
0.000466566
0.000461563
0.000456382
0.000452038
0.000447623
0.00044381
0.000440385
0.000437475
0.000434683
0.000432651
0.000427921
0.000424449
0.000422096
0.000420256
0.000418357
0.000416606
0.000414998
0.00041354
0.000412226
0.000411048
0.000409995
0.000409076
0.000408267
0.000407377
0.000406798
0.000406393
0.000405871
0.000405603
0.00040544
0.00040515
0.00040491
0.000404751
0.000404465
0.00040433
0.000403897
0.000403658
0.000403237
0.000403052
0.000402238
0.000401634
0.000401053
0.000399797
0.000398476
0.000397146
0.00039538
0.000392905
0.000390314
0.000385852
0.000386394
3.78002e-05
0.000848614
0.00108543
0.00144015
0.0015705
0.00160024
0.00150866
0.0014382
0.00136792
0.00129493
0.00122143
0.00115114
0.00107433
0.00101336
0.000942351
0.000897674
0.000854871
0.000830054
0.000808222
0.000788424
0.000772543
0.000755084
0.000741317
0.000726543
0.000713601
0.000701375
0.00068933
0.000678962
0.000667924
0.000658494
0.000648888
0.000640093
0.000631656
0.000623691
0.000616388
0.000609346
0.00060302
0.000597048
0.000591681
0.000586849
0.000582568
0.00057875
0.000575883
0.000568693
0.00056332
0.000560024
0.000557163
0.00055443
0.000551909
0.000549594
0.000547492
0.000545591
0.000543876
0.000542337
0.000540976
0.000539772
0.000538634
0.000537741
0.000536937
0.000536276
0.000535672
0.000535321
0.000534866
0.000534601
0.000534187
0.000533866
0.000533469
0.000532981
0.000532601
0.000531871
0.000531562
0.00053062
0.000529653
0.000528846
0.000527369
0.000525646
0.000523782
0.000521627
0.000518503
0.000515144
0.000509714
0.000508452
4.54844e-05
0.00118405
0.001445
0.00196872
0.00214869
0.00216754
0.00204253
0.00194046
0.00184219
0.00174274
0.00164366
0.0015486
0.00144785
0.00136465
0.00127237
0.00120859
0.00114826
0.0011099
0.001077
0.00104789
0.00102376
0.000998841
0.000978373
0.00095742
0.00093888
0.000921506
0.000904681
0.00088991
0.000874803
0.000861551
0.000848396
0.000836318
0.000824854
0.000814037
0.000804043
0.000794596
0.000785969
0.000777977
0.000770719
0.000764192
0.000758349
0.000753198
0.000749364
0.000739306
0.000731486
0.000726827
0.000722802
0.000719043
0.000715572
0.000712389
0.000709494
0.00070687
0.000704497
0.00070236
0.000700458
0.000698771
0.000697227
0.000695948
0.000694754
0.000693825
0.000692904
0.000692325
0.000691662
0.000691275
0.000690653
0.000690205
0.000689601
0.000688966
0.00068843
0.000687435
0.000686975
0.000685829
0.000684535
0.000683478
0.000681685
0.000679523
0.000677143
0.000674491
0.000670675
0.000666438
0.000660259
0.000655783
5.46716e-05
0.00163201
0.00188306
0.00258519
0.0028203
0.00282389
0.00266198
0.0025256
0.00239768
0.00227034
0.00214411
0.00202242
0.00189573
0.00178804
0.0016723
0.00158709
0.0015067
0.00145179
0.00140512
0.00136433
0.00132986
0.00129562
0.00126682
0.00123814
0.00121267
0.00118885
0.00116614
0.00114591
0.00112572
0.00110779
0.00109025
0.00107413
0.00105889
0.00104456
0.0010313
0.00101886
0.00100744
0.000996932
0.000987357
0.000978752
0.000971033
0.000964214
0.000959217
0.000945918
0.000935017
0.00092853
0.000923083
0.000918053
0.000913413
0.000909161
0.00090529
0.000901778
0.000898596
0.000895726
0.00089316
0.00089088
0.000888802
0.000887048
0.00088541
0.000884118
0.000882843
0.000881982
0.000881063
0.000880494
0.000879663
0.00087904
0.000878235
0.000877406
0.000876694
0.000875438
0.0008748
0.000873419
0.000871794
0.00087046
0.000868311
0.000865677
0.000862763
0.000859549
0.000855013
0.00084978
0.00084316
0.000833626
6.56319e-05
0.00221341
0.00242699
0.00330246
0.00359763
0.0035822
0.00337963
0.00320653
0.00304756
0.00289118
0.00273645
0.00258643
0.00243185
0.00229744
0.00215589
0.0020468
0.00194368
0.00186904
0.00180552
0.00175022
0.00170294
0.00165707
0.00161792
0.00157962
0.00154552
0.00151372
0.00148368
0.00145671
0.00143021
0.0014065
0.00138354
0.0013624
0.0013425
0.00132384
0.00130656
0.00129041
0.00127557
0.00126194
0.00124951
0.00123834
0.00122831
0.00121942
0.00121299
0.00119612
0.00118141
0.00117253
0.00116529
0.00115868
0.0011526
0.00114703
0.00114196
0.00113735
0.00113317
0.0011294
0.00112602
0.00112301
0.00112027
0.00111793
0.00111576
0.001114
0.00111231
0.00111109
0.00110986
0.00110906
0.001108
0.00110716
0.00110614
0.00110509
0.00110418
0.00110266
0.00110181
0.00110019
0.00109822
0.00109659
0.00109406
0.00109094
0.00108746
0.00108365
0.00107839
0.00107203
0.00106544
0.00104847
7.86726e-05
0.00296005
0.00311495
0.00413826
0.00449757
0.00445899
0.00421154
0.00399929
0.00380807
0.00362172
0.00343734
0.00325746
0.00307307
0.00290974
0.00273993
0.00260435
0.00247569
0.00237798
0.00229415
0.00222102
0.00215794
0.00209764
0.00204564
0.0019954
0.00195056
0.00190884
0.00186969
0.00183436
0.00180002
0.00176913
0.00173946
0.00171213
0.00168645
0.00166243
0.00164018
0.00161943
0.00160036
0.00158285
0.00156689
0.00155253
0.00153965
0.00152816
0.00151994
0.00149919
0.00147987
0.00146787
0.00145835
0.00144978
0.00144191
0.00143472
0.00142816
0.00142221
0.0014168
0.00141192
0.00140753
0.00140362
0.00140006
0.00139699
0.00139417
0.00139184
0.00138963
0.00138798
0.00138636
0.00138527
0.00138395
0.00138286
0.00138161
0.00138031
0.00137919
0.00137738
0.00137631
0.00137444
0.00137212
0.00137017
0.00136728
0.00136365
0.00135961
0.00135517
0.00134921
0.0013416
0.00133572
0.00130837
9.4139e-05
0.00391256
0.00398364
0.00511463
0.00554086
0.00547409
0.00517691
0.004923
0.00469851
0.00448155
0.00426664
0.0040556
0.00383963
0.00364527
0.00344468
0.00327989
0.0031227
0.0029984
0.00289049
0.00279571
0.0027133
0.00263519
0.00256728
0.00250224
0.00244401
0.00238999
0.00233948
0.00229376
0.00224967
0.00220987
0.00217187
0.00213682
0.00210397
0.00207329
0.00204489
0.00201843
0.00199411
0.00197177
0.00195142
0.00193307
0.00191662
0.00190187
0.00189137
0.00186647
0.00184168
0.00182566
0.00181323
0.0018022
0.00179211
0.00178289
0.00177449
0.00176687
0.00175995
0.00175369
0.00174806
0.00174303
0.00173846
0.0017345
0.00173087
0.00172784
0.001725
0.00172279
0.00172071
0.00171925
0.00171762
0.00171625
0.00171474
0.00171317
0.00171182
0.00170973
0.00170841
0.00170631
0.00170364
0.00170137
0.00169813
0.00169402
0.00168942
0.00168436
0.00167779
0.00166879
0.00166457
0.0016234
0.000112411
0.00512121
0.00506947
0.00625798
0.00675238
0.00665077
0.00629827
0.00600014
0.0057416
0.00549382
0.00524792
0.00500478
0.00475569
0.00452835
0.00429445
0.00409764
0.00390875
0.00375422
0.00361817
0.00349746
0.00339163
0.0032917
0.00320416
0.00312084
0.00304597
0.00297665
0.00291198
0.00285334
0.00279711
0.0027462
0.00269782
0.00265316
0.0026114
0.00257242
0.00253635
0.00250277
0.00247191
0.00244354
0.00241771
0.00239435
0.00237343
0.00235458
0.00234112
0.00231182
0.00228063
0.00225951
0.00224334
0.0022292
0.00221634
0.00220461
0.00219393
0.00218424
0.00217543
0.00216747
0.00216029
0.00215388
0.00214806
0.00214298
0.00213836
0.00213444
0.00213083
0.00212793
0.00212526
0.00212335
0.00212137
0.00211967
0.00211787
0.002116
0.00211441
0.00211205
0.00211046
0.00210817
0.00210518
0.0021026
0.00209906
0.00209452
0.0020894
0.00208375
0.0020767
0.0020662
0.00206488
0.00200618
0.000133893
0.00664735
0.00642011
0.0075995
0.00816149
0.00801619
0.00760186
0.00725694
0.00696398
0.00668572
0.00640896
0.00613332
0.00584996
0.00558797
0.00531829
0.00508661
0.00486267
0.00467409
0.00450562
0.00435433
0.00422046
0.00409405
0.00398247
0.00387666
0.00378115
0.00369288
0.00361056
0.00353583
0.00346449
0.00339969
0.00333837
0.00328172
0.00322883
0.00317949
0.00313384
0.00309137
0.00305233
0.0030164
0.00298369
0.00295403
0.00292748
0.00290343
0.00288612
0.00285212
0.00281362
0.0027861
0.00276513
0.00274704
0.00273071
0.00271585
0.00270231
0.00269005
0.00267889
0.00266881
0.00265971
0.00265158
0.00264421
0.00263774
0.00263189
0.00262685
0.00262228
0.00261853
0.00261512
0.00261264
0.00261023
0.00260814
0.00260603
0.00260386
0.00260201
0.0025994
0.00259754
0.00259509
0.00259185
0.00258899
0.00258523
0.00258035
0.00257482
0.00256866
0.00256134
0.0025492
0.00255234
0.0024726
0.000159003
0.00856528
0.00809735
0.00917642
0.00980055
0.00960126
0.00911773
0.0087235
0.00839637
0.00808883
0.00778221
0.00747439
0.0071562
0.00685832
0.0065506
0.00628122
0.00601875
0.00579216
0.00558683
0.00539997
0.00523299
0.00507488
0.00493411
0.00480087
0.00467993
0.00456822
0.004464
0.00436924
0.00427908
0.00419695
0.00411948
0.00404783
0.00398103
0.00391872
0.00386109
0.00380746
0.00375817
0.00371274
0.00367138
0.00363377
0.00360008
0.00356945
0.00354705
0.00350799
0.00346127
0.00342586
0.00339874
0.00337565
0.00335494
0.00333615
0.00331905
0.00330356
0.00328948
0.00327674
0.00326525
0.00325495
0.00324566
0.00323744
0.00323005
0.00322364
0.00321787
0.00321303
0.00320872
0.00320549
0.00320256
0.00320002
0.00319756
0.00319506
0.00319295
0.00319013
0.00318801
0.00318547
0.00318205
0.00317899
0.00317512
0.00317006
0.00316427
0.00315772
0.00315044
0.00313659
0.00314594
0.00304284
0.000188142
0.0109644
0.0101784
0.0110345
0.0116948
0.0114339
0.0108752
0.0104304
0.0100713
0.00973781
0.00940404
0.00906574
0.00871317
0.0083789
0.00803133
0.00772165
0.00741722
0.00714859
0.00690184
0.00667425
0.00646878
0.00627328
0.00609755
0.00593119
0.00577919
0.00563872
0.00550743
0.00538786
0.00527434
0.0051706
0.00507298
0.00498258
0.00489839
0.00481985
0.00474721
0.00467958
0.00461741
0.00456002
0.00450774
0.00446007
0.00441732
0.00437832
0.00434921
0.00430451
0.00424872
0.00420376
0.00416885
0.00413938
0.00411314
0.00408942
0.00406784
0.00404831
0.00403056
0.0040145
0.004
0.00398699
0.00397527
0.00396487
0.00395556
0.0039474
0.00394015
0.00393395
0.00392848
0.00392431
0.00392072
0.00391762
0.00391476
0.00391192
0.00390955
0.00390657
0.00390422
0.00390166
0.00389821
0.00389505
0.00389123
0.00388619
0.00388037
0.00387365
0.0038668
0.00385121
0.00386862
0.00374267
0.000221663
0.0139521
0.012758
0.0132312
0.0138487
0.0135098
0.0128773
0.0123881
0.0120086
0.0116606
0.0113085
0.0109456
0.010562
0.0101928
0.00980496
0.00945321
0.00910387
0.00878941
0.00849687
0.00822345
0.00797404
0.00773523
0.00751833
0.0073126
0.00712318
0.00694779
0.00678339
0.00663326
0.00649093
0.00636037
0.00623772
0.00612395
0.00601803
0.0059192
0.00582775
0.00574257
0.0056642
0.00559175
0.00552568
0.00546529
0.00541102
0.00536136
0.00532339
0.00527216
0.00520649
0.00515021
0.00510553
0.00506796
0.00503472
0.00500478
0.00497758
0.00495296
0.00493059
0.00491036
0.00489208
0.00487567
0.0048609
0.00484774
0.00483602
0.00482566
0.00481652
0.00480861
0.00480168
0.00479628
0.00479184
0.00478807
0.00478473
0.00478151
0.00477887
0.00477579
0.00477327
0.00477079
0.00476747
0.00476437
0.00476082
0.00475607
0.00475054
0.00474391
0.00473801
0.00472072
0.00474785
0.00460481
0.000259816
0.0176565
0.0159511
0.0158375
0.0162564
0.0157874
0.0150804
0.0145609
0.0141852
0.0138512
0.0135059
0.0131374
0.0127356
0.0123395
0.0119154
0.0115227
0.0111276
0.0107648
0.010423
0.0100993
0.00980102
0.00951324
0.00924895
0.00899735
0.00876372
0.00854661
0.00834228
0.00815501
0.0079775
0.00781397
0.00766045
0.00751772
0.00738482
0.00726071
0.00714578
0.00703864
0.00693997
0.0068486
0.00676514
0.00668864
0.00661974
0.00655653
0.0065069
0.00644775
0.00637137
0.00630199
0.00624527
0.00619747
0.00615539
0.0061176
0.00608332
0.00605229
0.00602413
0.00599863
0.00597559
0.00595488
0.00593627
0.00591963
0.00590485
0.00589173
0.0058802
0.00587014
0.00586134
0.00585435
0.00584878
0.00584412
0.00584018
0.00583654
0.00583361
0.00583049
0.00582787
0.00582558
0.00582259
0.00581976
0.00581673
0.00581261
0.00580777
0.00580159
0.00579723
0.00577838
0.0058164
0.00566938
0.000302684
0.0222319
0.0198949
0.0189388
0.0189197
0.0182297
0.0174353
0.0168969
0.0165488
0.0162621
0.0159618
0.0156243
0.0152355
0.0148361
0.0143919
0.013968
0.0135324
0.013123
0.0127316
0.0123555
0.0120051
0.0116641
0.0113471
0.0110437
0.0107592
0.0104935
0.0102421
0.0100105
0.0097908
0.00958737
0.00939624
0.00921807
0.00905199
0.00889668
0.00875266
0.00861825
0.00849425
0.00837922
0.00827393
0.00817718
0.00808975
0.00800938
0.00794453
0.00787536
0.00778734
0.0077031
0.00763185
0.00757129
0.00751809
0.00747042
0.00742724
0.00738817
0.0073527
0.00732057
0.00729154
0.0072654
0.00724194
0.0072209
0.00720225
0.00718562
0.00717107
0.00715828
0.00714711
0.00713804
0.00713095
0.00712513
0.0071204
0.00711622
0.00711295
0.00710983
0.00710718
0.0071052
0.00710276
0.00710044
0.00709823
0.00709511
0.00709144
0.00708612
0.00708397
0.00706381
0.00711317
0.00697924
0.00115987
0.0278653
0.0247502
0.0226289
0.0218516
0.020816
0.0199083
0.019356
0.0190518
0.0188383
0.0186173
0.0183514
0.0180185
0.0176561
0.0172264
0.0167975
0.0163403
0.0158965
0.0154631
0.0150385
0.0146376
0.0142426
0.0138704
0.0135115
0.0131712
0.0128511
0.012546
0.0122633
0.0119942
0.0117436
0.0115077
0.011287
0.0110808
0.0108876
0.0107081
0.0105402
0.010385
0.0102407
0.0101083
0.00998623
0.00987554
0.0097736
0.00968916
0.00960698
0.00950611
0.00940536
0.009317
0.00924082
0.00917377
0.00911377
0.00905947
0.0090103
0.00896569
0.00892524
0.00888868
0.0088557
0.00882611
0.00879953
0.00877597
0.00875492
0.00873653
0.00872029
0.00870609
0.00869431
0.00868517
0.00867776
0.00867194
0.00866704
0.00866331
0.00866019
0.00865755
0.00865597
0.00865428
0.00865274
0.00865164
0.00864992
0.00864789
0.00864389
0.00864462
0.00862347
0.008684
0.00855651
0.0036226
0.0347765
0.030699
0.0269916
0.0250687
0.0235347
0.0224758
0.0219096
0.0216593
0.0215358
0.0214184
0.0212559
0.0210181
0.0207362
0.0203657
0.0199732
0.0195304
0.0190809
0.0186274
0.0181702
0.0177301
0.0172889
0.0168656
0.0164528
0.016056
0.0156789
0.0153162
0.0149774
0.0146533
0.0143492
0.0140618
0.0137916
0.0135384
0.0133003
0.0130784
0.0128704
0.0126775
0.0124976
0.012332
0.0121789
0.0120395
0.0119108
0.0118016
0.0117024
0.011587
0.0114682
0.0113603
0.0112655
0.0111815
0.0111063
0.0110382
0.0109766
0.0109206
0.0108698
0.0108238
0.0107823
0.010745
0.0107115
0.0106817
0.0106551
0.0106318
0.0106112
0.0105932
0.0105779
0.010566
0.0105564
0.0105491
0.0105431
0.0105387
0.0105355
0.0105328
0.0105317
0.0105309
0.0105303
0.0105306
0.0105306
0.0105307
0.0105284
0.0105325
0.0105107
0.0105818
0.0104564
0.00639959
0.0429959
0.0379128
0.0320545
0.0285755
0.026373
0.0251151
0.024532
0.0243426
0.0243202
0.0243219
0.0242841
0.0241703
0.0240045
0.0237339
0.0234216
0.0230374
0.0226242
0.0221873
0.0217287
0.0212754
0.0208086
0.02035
0.0198949
0.0194495
0.0190203
0.018602
0.0182069
0.017826
0.0174653
0.0171222
0.0167975
0.0164916
0.0162027
0.0159321
0.0156776
0.0154406
0.015219
0.0150139
0.0148237
0.0146495
0.0144884
0.0143487
0.0142277
0.0140955
0.0139573
0.0138277
0.0137113
0.0136073
0.0135137
0.013429
0.013352
0.0132822
0.0132186
0.0131611
0.013109
0.0130622
0.01302
0.0129826
0.012949
0.0129197
0.0128936
0.0128708
0.012851
0.0128354
0.0128229
0.0128133
0.0128058
0.0128003
0.0127967
0.0127939
0.0127931
0.0127932
0.0127938
0.0127955
0.0127975
0.0127999
0.0127995
0.0128074
0.012785
0.0128658
0.012732
0.00952945
0.0520188
0.0462798
0.0377249
0.0323344
0.0293021
0.027794
0.0271916
0.02707
0.0271574
0.0272885
0.0273896
0.02742
0.0273958
0.027256
0.0270602
0.0267751
0.0264417
0.0260642
0.0256455
0.025217
0.0247586
0.0242942
0.0238217
0.0233482
0.022883
0.0224214
0.021979
0.0215473
0.0211334
0.0207359
0.0203563
0.019996
0.0196534
0.0193306
0.0190253
0.0187395
0.0184708
0.0182211
0.0179883
0.0177739
0.0175749
0.0173991
0.0172509
0.0170992
0.0169404
0.0167877
0.0166475
0.0165206
0.0164057
0.0163013
0.0162063
0.0161198
0.016041
0.0159696
0.0159048
0.0158465
0.0157937
0.0157469
0.0157048
0.015668
0.0156353
0.0156065
0.0155812
0.0155608
0.0155443
0.0155316
0.0155218
0.0155146
0.0155102
0.0155069
0.0155062
0.015507
0.0155085
0.0155117
0.0155155
0.0155203
0.0155216
0.015533
0.0155097
0.0155987
0.0154448
0.0130931
0.0614009
0.0552707
0.0437344
0.0362088
0.0322513
0.0304601
0.0298446
0.0297998
0.0300053
0.0302733
0.0305228
0.0307131
0.0308494
0.030863
0.030811
0.0306571
0.0304409
0.0301622
0.0298248
0.0294626
0.0290528
0.0286208
0.0281667
0.0276978
0.0272251
0.0267448
0.0262759
0.0258103
0.0253567
0.0249154
0.0244888
0.0240795
0.0236866
0.0233132
0.0229575
0.0226221
0.0223048
0.0220078
0.0217294
0.0214711
0.0212305
0.0210144
0.0208345
0.0206604
0.0204801
0.0203041
0.0201391
0.0199876
0.0198491
0.0197227
0.0196071
0.0195017
0.0194054
0.0193179
0.0192382
0.0191664
0.0191014
0.0190435
0.0189913
0.0189456
0.018905
0.018869
0.018837
0.0188107
0.018789
0.0187722
0.0187591
0.0187495
0.0187436
0.0187391
0.018738
0.018739
0.018741
0.0187452
0.0187504
0.018757
0.0187595
0.0187735
0.0187484
0.0188433
0.0186606
0.0171056
0.0708423
0.0643686
0.0495415
0.0398524
0.0350602
0.0330223
0.03243
0.0324768
0.0328096
0.0332186
0.0336221
0.0339854
0.0342968
0.0344814
0.0345943
0.0345976
0.0345298
0.0343825
0.0341631
0.0339055
0.0335834
0.0332231
0.0328267
0.0324009
0.0319569
0.031492
0.0310278
0.0305562
0.0300876
0.0296237
0.0291682
0.0287251
0.0282945
0.0278806
0.0274824
0.0271032
0.0267416
0.0264002
0.0260778
0.0257763
0.0254938
0.0252364
0.0250224
0.0248244
0.0246229
0.0244246
0.024236
0.0240601
0.0238976
0.0237482
0.0236109
0.0234852
0.0233699
0.0232649
0.0231689
0.0230822
0.0230034
0.0229332
0.0228697
0.022814
0.0227644
0.0227205
0.0226807
0.0226475
0.0226195
0.0225975
0.0225802
0.0225671
0.0225588
0.0225524
0.02255
0.0225506
0.0225523
0.0225567
0.0225625
0.0225699
0.0225723
0.0225872
0.0225587
0.0226558
0.0224414
0.0215582
0.0800622
0.0729368
0.0551168
0.0431301
0.0377129
0.0355255
0.0349699
0.0350843
0.0355079
0.0360543
0.0366115
0.0371585
0.0376541
0.0380218
0.0383166
0.0384989
0.038607
0.0386187
0.0385504
0.038432
0.0382322
0.0379799
0.0376794
0.0373352
0.0369577
0.0365461
0.0361232
0.0356801
0.035229
0.0347726
0.0343158
0.0338637
0.0334173
0.0329823
0.0325584
0.0321501
0.0317565
0.0313811
0.0310232
0.0306854
0.0303665
0.0300721
0.0298262
0.0296055
0.0293849
0.0291679
0.0289591
0.028762
0.0285779
0.0284072
0.0282491
0.0281038
0.0279698
0.0278474
0.027735
0.0276334
0.0275405
0.0274576
0.0273825
0.0273164
0.0272575
0.0272053
0.0271574
0.0271168
0.0270819
0.027054
0.0270316
0.0270142
0.0270027
0.0269936
0.0269892
0.0269883
0.0269889
0.0269925
0.0269975
0.0270043
0.027005
0.0270187
0.0269843
0.0270792
0.0268364
0.0264195
0.0887162
0.0804796
0.061585
0.047342
0.0408685
0.0384665
0.0378615
0.0379489
0.0383653
0.038945
0.0395676
0.0402127
0.040828
0.0413774
0.0418643
0.042243
0.0425514
0.0427441
0.0428586
0.0429119
0.0428657
0.0427549
0.0425869
0.042361
0.0420864
0.0417664
0.0414225
0.0410448
0.0406471
0.0402331
0.0398083
0.0393785
0.0389458
0.0385169
0.0380923
0.0376775
0.0372724
0.0368814
0.0365045
0.0361448
0.035802
0.0354816
0.0352119
0.0349741
0.0347398
0.0345102
0.034288
0.0340763
0.0338763
0.0336893
0.0335148
0.0333534
0.0332038
0.0330666
0.0329401
0.0328253
0.03272
0.0326258
0.0325404
0.032465
0.0323977
0.0323381
0.0322829
0.0322354
0.032194
0.0321602
0.0321327
0.0321109
0.0320959
0.0320835
0.0320766
0.0320738
0.0320724
0.0320743
0.0320776
0.0320824
0.0320797
0.0320897
0.0320475
0.0321346
0.0318722
0.0316929
0.0963647
0.0870024
0.0690962
0.0540382
0.046233
0.0430971
0.0419861
0.0417487
0.0419334
0.0423535
0.0428852
0.0434814
0.0440946
0.0446932
0.0452677
0.0457569
0.0462274
0.0466071
0.0469359
0.0471893
0.0473216
0.0473843
0.0473857
0.0473128
0.047176
0.0469864
0.0467596
0.0464843
0.0461774
0.045843
0.0454866
0.0451141
0.0447291
0.0443387
0.0439442
0.043552
0.0431626
0.0427812
0.0424086
0.0420485
0.0417015
0.041373
0.0410939
0.0408496
0.0406112
0.0403784
0.0401528
0.0399363
0.0397299
0.0395354
0.0393523
0.0391821
0.0390232
0.038877
0.0387415
0.0386182
0.0385048
0.0384031
0.0383107
0.0382291
0.0381564
0.038092
0.038032
0.0379799
0.0379339
0.037896
0.0378646
0.0378393
0.0378217
0.0378068
0.0377978
0.0377932
0.03779
0.03779
0.0377912
0.0377933
0.0377864
0.0377911
0.0377404
0.0378144
0.0375451
0.0374194
0.102539
0.0930788
0.0774075
0.0629647
0.0544577
0.0501899
0.0480602
0.047105
0.046772
0.0467993
0.0470431
0.0474035
0.0478554
0.0483391
0.0488589
0.0493388
0.0498346
0.0502832
0.0507117
0.0510956
0.0514107
0.0516757
0.0518827
0.0519901
0.0520227
0.0520042
0.0519315
0.051795
0.0516177
0.0514019
0.0511522
0.0508748
0.0505747
0.0502592
0.0499298
0.0495938
0.0492523
0.0489114
0.0485721
0.0482391
0.0479138
0.0476014
0.047333
0.0470981
0.0468696
0.046647
0.0464309
0.0462226
0.0460226
0.0458327
0.0456526
0.0454842
0.045326
0.0451799
0.0450439
0.0449199
0.0448056
0.0447031
0.0446099
0.0445278
0.0444548
0.0443905
0.0443304
0.0442782
0.0442316
0.0441932
0.0441613
0.0441356
0.0441179
0.0441028
0.0440938
0.0440894
0.0440859
0.0440854
0.0440857
0.0440861
0.044076
0.0440757
0.0440182
0.0440749
0.0438148
0.0436357
0.107153
0.0992885
0.0861882
0.0731045
0.0641958
0.0587088
0.0554666
0.0536859
0.0527474
0.052298
0.0521528
0.0521697
0.0523474
0.0525924
0.0529284
0.0532759
0.0536639
0.0540548
0.0544555
0.0548508
0.0552198
0.0555719
0.0558862
0.0561675
0.0563934
0.0565881
0.056697
0.0567304
0.0567214
0.0566633
0.0565586
0.0564154
0.0562401
0.0560385
0.0558126
0.0555703
0.0553135
0.0550483
0.0547765
0.0545033
0.0542309
0.0539644
0.0537323
0.0535276
0.0533279
0.0531328
0.0529426
0.0527586
0.0525807
0.0524108
0.0522485
0.0520959
0.0519518
0.0518184
0.0516937
0.0515801
0.0514752
0.0513816
0.0512966
0.0512225
0.0511572
0.0511005
0.0510475
0.051002
0.0509616
0.0509288
0.0509022
0.0508815
0.0508686
0.0508581
0.0508535
0.0508532
0.0508535
0.0508562
0.0508591
0.0508612
0.0508517
0.0508491
0.0507904
0.0508284
0.0505958
0.0503228
0.111542
0.105443
0.0949726
0.0832997
0.0733341
0.0665099
0.0625854
0.0603286
0.0590179
0.058236
0.0577618
0.0574751
0.0573893
0.0573854
0.057492
0.05764
0.0578435
0.0580874
0.0583606
0.0586631
0.0589721
0.0592967
0.0596145
0.0599365
0.060241
0.0605357
0.0608015
0.0610221
0.0612171
0.0613466
0.0614167
0.0614436
0.0614315
0.0613819
0.0612982
0.061189
0.0610559
0.0609048
0.0607384
0.0605619
0.0603784
0.0601925
0.0600271
0.0598782
0.0597305
0.0595846
0.0594407
0.0593005
0.0591636
0.0590322
0.0589055
0.058786
0.0586726
0.0585677
0.0584694
0.0583806
0.0582988
0.058227
0.0581625
0.0581079
0.0580611
0.0580223
0.0579863
0.0579572
0.0579322
0.0579141
0.0579014
0.0578938
0.0578935
0.057895
0.057902
0.0579127
0.0579235
0.0579361
0.0579482
0.0579584
0.0579564
0.0579582
0.0579078
0.0579306
0.0577438
0.0573839
0.116338
0.111635
0.103321
0.0932929
0.0837872
0.0761177
0.0703952
0.0669595
0.0650302
0.0638711
0.0631785
0.0627496
0.0625331
0.0623702
0.0622848
0.0622442
0.062269
0.0623468
0.0624537
0.0626043
0.062779
0.0629905
0.0632236
0.0634845
0.0637617
0.0640527
0.0643508
0.0646399
0.0649278
0.0651954
0.0654414
0.0656623
0.0658391
0.0659661
0.0660545
0.0661121
0.0661375
0.0661364
0.066112
0.0660697
0.0660124
0.0659443
0.0658787
0.0658139
0.0657451
0.0656733
0.0655996
0.0655257
0.0654517
0.0653798
0.0653094
0.0652431
0.0651799
0.0651223
0.0650688
0.0650222
0.0649803
0.0649462
0.0649176
0.064897
0.0648826
0.0648748
0.0648689
0.0648687
0.0648713
0.0648797
0.0648923
0.064909
0.064932
0.0649561
0.0649849
0.0650166
0.0650478
0.0650802
0.0651114
0.0651399
0.0651563
0.0651731
0.0651448
0.0651627
0.065038
0.0646322
0.120472
0.117185
0.110867
0.102883
0.0947818
0.087549
0.081448
0.0766612
0.0730316
0.0706102
0.0692166
0.0683307
0.0677326
0.0672795
0.067006
0.0668378
0.0667675
0.0667138
0.0666599
0.0666458
0.0666598
0.0667185
0.066815
0.0669507
0.067122
0.0673223
0.0675519
0.0678003
0.0680717
0.0683552
0.0686501
0.068948
0.0692431
0.0695246
0.0697911
0.0700276
0.0702242
0.0703911
0.0705327
0.0706514
0.0707495
0.0708303
0.0708937
0.0709391
0.0709741
0.0710008
0.0710207
0.0710362
0.0710476
0.0710572
0.0710648
0.0710729
0.0710808
0.071091
0.0711022
0.0711171
0.0711341
0.0711558
0.0711807
0.0712108
0.0712451
0.0712839
0.0713234
0.0713668
0.0714118
0.071461
0.071513
0.0715679
0.0716276
0.0716876
0.0717514
0.0718171
0.0718819
0.0719473
0.072011
0.0720713
0.0721208
0.0721679
0.0721791
0.072211
0.072162
0.0717734
0.123927
0.121719
0.117297
0.111477
0.104996
0.098572
0.0928423
0.0880189
0.0840353
0.0807916
0.0782312
0.0760737
0.0743814
0.0731451
0.0723939
0.0718927
0.0715285
0.0712338