/*--------------------------------*- C++ -*----------------------------------*\
| =========                 |                                                 |
| \\      /  F ield         | OpenFOAM: The Open Source CFD Toolbox           |
|  \\    /   O peration     | Version:  5.x                                   |
|   \\  /    A nd           | Web:      www.OpenFOAM.org                      |
|    \\/     M anipulation  |                                                 |
\*---------------------------------------------------------------------------*/
FoamFile
{
    version     2.0;
    format      ascii;
    class       volScalarField;
    location    "450";
    object      p;
}
// * * * * * * * * * * * * * * * * * * * * * * * * * * * * * * * * * * * * * //

dimensions      [0 2 -2 0 0 0 0];

internalField   nonuniform List<scalar> 
11040
(
0.369519
46.0874
67.6531
70.6466
73.5802
75.5323
76.7434
77.5482
78.1186
78.5227
78.795
78.972
79.0713
79.0981
79.0603
78.9611
78.801
78.5819
78.302
77.9687
77.6188
77.2912
76.9776
76.7009
76.5024
76.4113
76.4478
76.622
76.934
77.368
77.8899
78.4451
78.9585
79.3242
79.3759
78.9406
77.9047
75.6878
72.4395
66.37
61.852
75.1569
71.1832
68.6457
71.2977
73.4569
75.4861
76.7497
77.5742
78.1577
78.5717
78.8495
79.029
79.1307
79.1599
79.1241
79.0267
78.8681
78.6505
78.3714
78.0373
77.6818
77.3459
77.0255
76.7417
76.5338
76.4317
76.4565
76.6181
76.9165
77.3369
77.8454
78.3882
78.8917
79.2506
79.2989
78.8655
77.8454
75.6406
72.4543
66.4337
60.7768
118.647
100.576
78.88
73.071
73.9221
75.5358
76.7845
77.6201
78.2095
78.6301
78.9113
79.0909
79.1934
79.2237
79.189
79.093
78.9357
78.7193
78.4417
78.1084
77.7489
77.4035
77.0752
76.7839
76.5664
76.4525
76.4635
76.6094
76.8902
77.2915
77.7796
78.3011
78.7831
79.1219
79.1529
78.7039
77.6872
75.4664
72.3293
66.22
60.3216
138.804
117.188
96.9531
80.7945
75.7756
76.0392
76.9454
77.727
78.3056
78.7262
79.0083
79.185
79.2863
79.3158
79.28
79.1838
79.0262
78.8096
78.5315
78.1973
77.8325
77.4757
77.1367
76.8348
76.6042
76.4745
76.4669
76.5915
76.8483
77.2235
77.6839
78.1764
78.6284
78.9378
78.9411
78.4658
77.4334
75.1739
72.0731
65.8305
60.0776
157.901
134.161
114.333
95.3466
82.3128
77.9642
77.5907
77.9858
78.4566
78.8612
79.1393
79.3085
79.4063
79.4341
79.3966
79.3
79.1418
78.9247
78.6459
78.3099
77.9379
77.5675
77.215
76.8988
76.6509
76.5002
76.4682
76.5648
76.7899
77.1303
77.5534
78.0066
78.4176
78.6854
78.6477
78.1368
77.0656
74.7544
71.6762
65.2984
59.8603
173.269
150.964
130.102
111.205
94.9731
84.1496
79.7964
78.8296
78.8028
79.0576
79.3116
79.4674
79.5557
79.5802
79.5395
79.4421
79.283
79.0652
78.7856
78.4475
78.0672
77.6812
77.3121
76.9777
76.7077
76.5302
76.4667
76.5273
76.7115
77.0067
77.3808
77.7821
78.1388
78.3501
78.2569
77.6988
76.5611
74.2035
71.1219
64.6575
59.6297
184.273
164.803
144.95
126.245
109.715
95.8278
86.0935
81.4267
79.9472
79.5039
79.5611
79.6667
79.7373
79.7576
79.7109
79.6125
79.4527
79.2344
78.9542
78.6137
78.2243
77.8209
77.432
77.0748
76.7771
76.566
76.4629
76.478
76.6107
76.8484
77.1601
77.4951
77.7823
77.921
77.758
77.1395
75.9123
73.538
70.4074
63.9975
59.4288
192.201
175.6
158.174
140.565
124.1
109.593
97.2768
88.1233
83.0673
81.0505
80.1647
79.9625
79.9568
79.9701
79.9117
79.8121
79.6522
79.4345
79.1547
78.8122
78.4136
77.9916
77.5798
77.1949
76.8632
76.6107
76.4584
76.4173
76.4866
76.6532
76.8877
77.1408
77.3425
77.393
77.1481
76.4573
75.138
72.7914
69.5676
63.4766
59.4049
197.93
183.702
168.845
153.327
137.821
123.263
110.286
99.0957
90.3128
84.8733
82.2006
80.8678
80.3359
80.232
80.1453
80.0442
79.8814
79.665
79.3883
79.0462
78.6404
78.2
77.7628
77.3454
76.9729
76.6705
76.4586
76.3495
76.3423
76.4238
76.5659
76.7218
76.823
76.7735
76.4398
75.674
74.2904
72.0135
68.7261
63.2888
59.7627
201.929
189.598
176.924
163.664
149.995
136.316
123.282
111.497
101.17
92.7279
86.9002
83.5163
81.7586
80.7875
80.4531
80.3111
80.1463
79.9296
79.6555
79.3157
78.9072
78.4519
77.9895
77.5364
77.1171
76.7566
76.4748
76.2849
76.1881
76.1712
76.2075
76.2534
76.2443
76.0907
75.6723
74.85
73.4611
71.3076
68.1278
63.6143
60.6679
204.548
193.751
182.855
171.55
159.843
147.799
135.638
123.882
113.076
103.497
95.4335
89.2415
85.2051
82.8523
81.4482
80.7282
80.4571
80.2307
79.965
79.6265
79.2173
78.7506
78.2662
77.7784
77.3105
76.8866
76.5267
76.2456
76.0473
75.9213
75.8428
75.7727
75.6533
75.4056
74.9258
74.0944
72.786
70.8512
68.0543
64.6066
62.3056
206.063
196.522
187.07
177.373
167.376
157.046
146.377
135.535
124.909
114.974
106.09
98.3298
91.9309
87.2866
84.3076
82.4407
81.2254
80.6209
80.3172
79.9858
79.5859
79.1087
78.6021
78.0813
77.5659
77.0794
76.6412
76.2663
75.9615
75.7218
75.5277
75.3463
75.1305
74.816
74.3214
73.5553
72.4326
70.8548
68.704
66.3302
64.742
206.706
198.204
189.922
181.537
172.961
164.126
154.972
145.507
135.848
126.261
117.152
108.821
101.372
94.9536
89.8579
86.247
83.8333
82.1544
81.017
80.4119
80.0092
79.5414
79.0231
78.4702
77.9047
77.3563
76.8441
76.3817
75.9779
75.6335
75.3379
75.0669
74.7852
74.4468
73.9973
73.3783
72.5424
71.4497
70.0844
68.6893
67.8128
206.667
199.038
191.714
184.4
176.992
169.406
161.566
153.443
145.051
136.47
127.874
119.529
111.703
104.584
98.2703
92.9239
88.7546
85.7632
83.6105
81.947
80.7615
80.0356
79.5029
78.9585
78.3663
77.7619
77.1742
76.627
76.1354
75.7049
75.3313
75.0036
74.7009
74.3942
74.0509
73.6418
73.151
72.5876
71.981
71.3908
71.114
206.104
199.226
192.701
186.268
179.817
173.266
166.53
159.566
152.361
144.936
137.344
129.67
122.064
114.759
107.974
101.83
96.4087
91.8567
88.3044
85.662
83.5895
81.7989
80.3935
79.4768
78.8392
78.2549
77.655
77.054
76.4868
75.9776
75.5377
75.1691
74.8672
74.6195
74.4117
74.2312
74.0818
73.9921
73.9984
73.9868
74.0811
205.162
198.942
193.097
187.395
181.736
176.037
170.219
164.232
158.05
151.673
145.121
138.417
131.588
124.726
117.984
111.553
105.588
100.177
95.4031
91.3958
88.2076
85.8841
83.9587
81.9985
80.2369
78.9607
78.1141
77.4828
76.9249
76.4032
75.9318
75.5339
75.226
75.011
74.8957
74.8834
74.9818
75.2155
75.618
75.9515
76.1617
204.018
198.385
193.124
188.037
183.033
178.035
172.976
167.803
162.485
157.009
151.382
145.608
139.692
133.656
127.536
121.4
115.356
109.534
104.053
99.0243
94.5109
91.0147
88.5671
86.5736
84.6795
82.7009
80.7293
79.0447
77.8055
76.9564
76.3638
75.9273
75.6023
75.3781
75.2749
75.3084
75.4947
75.855
76.4194
76.8846
77.0258
202.822
197.692
192.917
188.33
183.848
179.406
174.941
170.407
165.772
161.02
156.145
151.144
146.016
140.771
135.426
129.999
124.517
119.026
113.589
108.3
103.194
98.6619
94.9518
91.8511
89.2485
87.0474
85.0935
83.2118
81.3337
79.5669
78.0891
76.9958
76.2713
75.8365
75.6324
75.6147
75.7688
76.0843
76.5904
77.0286
76.9996
201.675
196.971
192.605
188.429
184.37
180.369
176.368
172.329
168.222
164.03
159.745
155.36
150.868
146.276
141.6
136.858
132.074
127.263
122.434
117.59
112.717
108.013
103.668
99.6694
96.0529
92.8736
90.1472
87.8214
85.7983
83.965
82.2338
80.5892
79.1048
77.8703
76.9714
76.4255
76.2203
76.2961
76.6726
77.0697
76.7701
200.63
196.298
192.284
188.456
184.752
181.116
177.497
173.86
170.179
166.437
162.627
158.74
154.767
150.71
146.575
142.374
138.125
133.845
129.549
125.239
120.905
116.656
112.581
108.666
104.915
101.349
98.0097
94.9493
92.2081
89.7971
87.6957
85.8598
84.2424
82.7824
81.4819
80.3681
79.504
78.8915
78.636
78.6122
77.7617
199.699
195.697
191.993
188.47
185.07
181.745
178.45
175.151
171.825
168.458
165.042
161.569
158.03
154.425
150.755
147.026
143.248
139.432
135.59
131.734
127.869
124.108
120.519
117.067
113.733
110.501
107.371
104.356
101.48
98.7734
96.2701
93.9986
91.9814
90.2077
88.6833
87.4029
86.3695
85.519
84.8887
84.5766
83.3766
198.883
195.179
191.754
188.5
185.37
182.318
179.304
176.296
173.277
170.23
167.149
164.028
160.86
157.643
154.378
151.069
147.72
144.339
140.934
137.512
134.083
130.757
127.608
124.613
121.762
119.039
116.429
113.923
111.518
109.216
107.026
104.962
103.046
101.291
99.7191
98.3563
97.2264
96.3106
95.6011
95.2886
94.4219
198.175
194.744
191.571
188.562
185.674
182.866
180.101
177.352
174.601
171.835
169.047
166.234
163.389
160.51
157.599
154.66
151.695
148.71
145.712
142.708
139.704
136.799
134.06
131.476
129.05
126.776
124.648
122.66
120.806
119.082
117.486
116.018
114.683
113.487
112.436
111.549
110.842
110.325
109.996
109.958
109.885
197.568
194.387
191.448
188.662
185.994
183.408
180.868
178.351
175.841
173.325
170.798
168.258
165.699
163.121
160.525
157.915
155.294
152.669
150.044
147.427
144.825
142.323
139.974
137.775
135.731
133.843
132.109
130.529
129.101
127.825
126.697
125.718
124.887
124.203
123.664
123.276
123.041
122.967
123.049
123.289
123.747
197.053
194.104
191.379
188.799
186.334
183.951
181.617
179.311
177.019
174.73
172.44
170.145
167.843
165.536
163.223
160.91
158.6
156.298
154.012
151.749
149.517
147.385
145.398
143.553
141.857
140.309
138.91
137.659
136.557
135.599
134.786
134.114
133.581
133.182
132.912
132.768
132.746
132.842
133.047
133.336
133.809
196.62
193.887
191.361
188.972
186.695
184.498
182.354
180.242
178.151
176.07
173.995
171.924
169.857
167.794
165.738
163.692
161.663
159.654
157.674
155.729
153.829
152.032
150.37
148.842
147.453
146.204
145.093
144.118
143.278
142.569
141.988
141.53
141.19
140.963
140.84
140.818
140.888
141.045
141.277
141.567
141.965
196.262
193.728
191.388
189.176
187.073
185.051
183.082
181.15
179.244
177.355
175.478
173.612
171.759
169.919
168.096
166.294
164.517
162.773
161.067
159.407
157.803
156.302
154.927
153.677
152.556
151.563
150.696
149.952
149.327
148.818
148.42
148.126
147.933
147.832
147.817
147.883
148.022
148.229
148.495
148.808
149.194
195.97
193.621
191.454
189.407
187.466
185.606
183.801
182.036
180.301
178.59
176.896
175.219
173.562
171.927
170.316
168.735
167.187
165.68
164.22
162.814
161.47
160.229
159.103
158.093
157.201
156.425
155.762
155.208
154.759
154.41
154.157
153.992
153.911
153.908
153.975
154.108
154.3
154.547
154.841
155.175
155.566
195.734
193.559
191.552
189.659
187.87
186.16
184.508
182.898
181.323
179.776
178.252
176.751
175.275
173.827
172.41
171.028
169.687
168.393
167.152
165.97
164.855
163.839
162.929
162.124
161.426
160.831
160.337
159.937
159.629
159.407
159.265
159.198
159.201
159.267
159.391
159.567
159.79
160.057
160.361
160.694
161.073
195.549
193.534
191.677
189.928
188.28
186.711
185.201
183.736
182.31
180.915
179.549
178.21
176.9
175.624
174.383
173.184
172.029
170.925
169.878
168.893
167.977
167.156
166.43
165.798
165.262
164.817
164.46
164.185
163.987
163.862
163.805
163.809
163.87
163.982
164.14
164.34
164.575
164.844
165.141
165.458
165.809
195.408
193.542
191.823
190.208
188.692
187.255
185.877
184.547
183.259
182.006
180.786
179.597
178.441
177.321
176.242
175.207
174.219
173.285
172.409
171.597
170.853
170.198
169.628
169.142
168.74
168.417
168.17
167.992
167.881
167.829
167.833
167.887
167.986
168.126
168.302
168.509
168.743
169.002
169.281
169.574
169.891
195.304
193.576
191.986
190.496
189.102
187.787
186.533
185.329
184.169
183.049
181.964
180.913
179.898
178.922
177.989
177.102
176.265
175.481
174.756
174.093
173.498
172.983
172.545
172.179
171.887
171.663
171.502
171.401
171.353
171.355
171.402
171.489
171.611
171.765
171.946
172.15
172.374
172.616
172.871
173.136
173.417
195.231
193.631
192.16
190.785
189.506
188.305
187.166
186.079
185.039
184.041
183.081
182.157
181.272
180.428
179.628
178.874
178.171
177.521
176.927
176.394
175.925
175.529
175.2
174.933
174.729
174.584
174.491
174.447
174.447
174.487
174.562
174.669
174.802
174.96
175.138
175.332
175.54
175.76
175.989
176.223
176.468
195.185
193.702
192.342
191.074
189.9
188.805
187.774
186.796
185.866
184.982
184.138
183.332
182.565
181.841
181.161
180.527
179.943
179.41
178.931
178.509
178.147
177.851
177.611
177.426
177.293
177.208
177.168
177.166
177.2
177.265
177.358
177.475
177.611
177.766
177.934
178.114
178.303
178.5
178.701
178.904
179.115
195.161
193.785
192.526
191.358
190.282
189.286
188.353
187.476
186.65
185.87
185.133
184.435
183.777
183.161
182.59
182.064
181.585
181.155
180.776
180.45
180.178
179.964
179.798
179.678
179.601
179.564
179.562
179.592
179.649
179.73
179.832
179.951
180.086
180.232
180.388
180.551
180.719
180.892
181.067
181.241
181.419
195.155
193.877
192.711
191.634
190.648
189.743
188.903
188.119
187.388
186.705
186.066
185.467
184.909
184.392
183.918
183.488
183.103
182.763
182.47
182.225
182.029
181.883
181.777
181.709
181.676
181.675
181.702
181.753
181.825
181.915
182.02
182.138
182.266
182.401
182.542
182.688
182.835
182.985
183.134
183.281
183.431
195.163
193.974
192.892
191.898
190.996
190.175
189.42
188.723
188.08
187.487
186.938
186.43
185.963
185.535
185.149
184.805
184.502
184.241
184.022
183.846
183.713
183.623
183.566
183.539
183.54
183.566
183.613
183.679
183.76
183.854
183.958
184.071
184.19
184.313
184.439
184.567
184.695
184.822
184.948
185.071
185.195
195.181
194.072
193.067
192.15
191.324
190.579
189.903
189.287
188.725
188.214
187.749
187.324
186.939
186.593
186.286
186.018
185.787
185.595
185.44
185.323
185.242
185.198
185.179
185.184
185.211
185.257
185.319
185.394
185.48
185.574
185.675
185.781
185.889
186
186.111
186.222
186.332
186.439
186.545
186.645
186.746
195.207
194.169
193.233
192.385
191.629
190.955
190.351
189.809
189.323
188.888
188.499
188.15
187.841
187.568
187.332
187.131
186.965
186.832
186.732
186.664
186.627
186.62
186.633
186.663
186.71
186.771
186.842
186.923
187.01
187.103
187.198
187.296
187.395
187.493
187.591
187.686
187.779
187.869
187.955
188.037
188.118
195.237
194.263
193.388
192.601
191.908
191.299
190.762
190.288
189.871
189.507
189.188
188.91
188.668
188.462
188.29
188.149
188.04
187.959
187.906
187.88
187.879
187.902
187.94
187.991
188.053
188.124
188.202
188.286
188.373
188.462
188.552
188.642
188.731
188.818
188.903
188.984
189.062
189.137
189.208
189.273
189.337
195.27
194.351
193.529
192.798
192.162
191.611
191.134
190.723
190.371
190.071
189.817
189.603
189.424
189.279
189.163
189.077
189.017
188.981
188.969
188.978
189.008
189.055
189.113
189.179
189.252
189.331
189.414
189.498
189.584
189.669
189.754
189.836
189.916
189.993
190.066
190.136
190.201
190.263
190.32
190.372
190.422
195.304
194.43
193.654
192.972
192.386
191.888
191.467
191.114
190.821
190.58
190.386
190.231
190.11
190.019
189.956
189.918
189.903
189.908
189.931
189.971
190.026
190.095
190.169
190.248
190.331
190.416
190.502
190.588
190.672
190.754
190.833
190.909
190.981
191.05
191.114
191.173
191.228
191.279
191.325
191.365
191.404
195.336
194.499
193.762
193.121
192.58
192.129
191.759
191.458
191.219
191.035
190.896
190.795
190.727
190.686
190.669
190.674
190.697
190.736
190.79
190.855
190.932
191.017
191.104
191.193
191.282
191.371
191.458
191.543
191.625
191.704
191.778
191.848
191.913
191.974
192.031
192.082
192.128
192.17
192.208
192.239
192.269
195.364
194.556
193.85
193.244
192.74
192.332
192.006
191.754
191.566
191.432
191.346
191.296
191.278
191.285
191.314
191.36
191.421
191.493
191.575
191.666
191.763
191.864
191.965
192.064
192.161
192.256
192.347
192.433
192.515
192.593
192.665
192.731
192.793
192.849
192.9
192.945
192.985
193.021
193.052
193.077
193.1
195.389
194.601
193.918
193.34
192.867
192.494
192.209
192.001
191.859
191.773
191.734
191.73
191.755
191.802
191.867
191.947
192.037
192.136
192.24
192.349
192.46
192.572
192.68
192.785
192.886
192.982
193.072
193.158
193.237
193.311
193.379
193.442
193.498
193.55
193.595
193.636
193.671
193.702
193.728
193.749
193.767
195.408
194.632
193.965
193.407
192.96
192.616
192.365
192.195
192.095
192.057
192.068
192.117
192.194
192.29
192.399
192.519
192.646
192.776
192.909
193.041
193.172
193.301
193.424
193.542
193.653
193.757
193.855
193.946
194.03
194.107
194.178
194.242
194.3
194.351
194.397
194.437
194.472
194.501
194.526
194.545
194.562
195.419
194.64
193.977
193.432
193.004
192.687
192.467
192.333
192.27
192.267
192.311
192.392
192.498
192.62
192.755
192.898
193.044
193.192
193.338
193.482
193.621
193.755
193.881
193.999
194.11
194.213
194.308
194.396
194.477
194.55
194.616
194.676
194.729
194.776
194.818
194.854
194.885
194.911
194.933
194.95
194.965
195.419
194.626
193.955
193.41
192.992
192.694
192.503
192.409
192.4
192.462
192.58
192.738
192.914
193.099
193.291
193.484
193.677
193.865
194.046
194.221
194.387
194.544
194.691
194.828
194.955
195.073
195.181
195.28
195.371
195.454
195.529
195.597
195.658
195.714
195.763
195.808
195.847
195.883
195.914
195.941
195.966
47.5668
47.5175
42.2976
54.0039
76.9108
102.247
121.586
133.327
139.341
141.725
142.16
141.845
141.636
142.045
143.308
145.455
148.404
152.003
156.097
160.52
165.132
169.794
174.383
178.783
182.891
186.626
189.917
192.732
195.04
196.849
198.179
199.083
199.601
199.799
199.734
199.468
199.057
198.55
197.984
197.397
196.812
196.244
195.701
195.189
194.715
194.269
193.86
193.481
193.134
192.813
192.515
192.24
191.978
191.732
191.493
191.26
191.021
190.776
190.51
190.214
189.875
189.47
188.981
188.378
187.633
186.714
185.564
184.202
182.411
180.392
178.295
177.926
181.058
187.762
45.1348
46.0116
43.1544
56.0619
77.9228
100.492
116.979
126.925
132.18
134.484
135.204
135.338
135.611
136.463
138.103
140.563
143.78
147.625
151.962
156.644
161.535
166.504
171.422
176.169
180.633
184.724
188.361
191.502
194.111
196.193
197.764
198.877
199.572
199.919
199.977
199.812
199.483
199.043
198.533
197.992
197.447
196.913
196.401
195.915
195.463
195.035
194.64
194.271
193.929
193.611
193.313
193.035
192.769
192.517
192.272
192.034
191.791
191.543
191.277
190.984
190.652
190.26
189.791
189.215
188.507
187.633
186.54
185.235
183.516
181.555
179.476
178.885
181.544
187.446
44.474
45.1448
44.1461
57.9263
78.6404
98.6984
112.775
121.256
125.886
128.115
129.059
129.556
130.223
131.439
133.388
136.104
139.539
143.586
148.124
153.023
158.155
163.39
168.6
173.66
178.45
182.871
186.834
190.285
193.186
195.536
197.349
198.672
199.551
200.053
200.242
200.188
199.95
199.587
199.142
198.657
198.162
197.672
197.2
196.751
196.331
195.932
195.561
195.212
194.886
194.579
194.29
194.018
193.756
193.509
193.267
193.033
192.795
192.555
192.3
192.023
191.715
191.354
190.927
190.407
189.769
188.982
187.995
186.808
185.231
183.402
181.391
180.491
182.333
186.84
43.5941
44.7403
45.2584
59.5578
79.0936
97.0512
109.298
116.716
120.897
123.073
124.187
124.96
125.931
127.43
129.624
132.547
136.159
140.369
145.07
150.142
155.463
160.908
166.348
171.652
176.698
181.377
185.594
189.29
192.423
194.987
196.993
198.488
199.515
200.144
200.441
200.477
200.316
200.017
199.627
199.188
198.735
198.284
197.846
197.429
197.038
196.664
196.315
195.984
195.673
195.378
195.099
194.835
194.58
194.337
194.101
193.872
193.642
193.411
193.169
192.908
192.622
192.291
191.904
191.434
190.861
190.153
189.263
188.189
186.744
185.043
183.106
181.957
183.078
186.324
43.0282
44.8713
46.6787
61.1629
79.4139
95.5185
106.321
112.944
116.794
118.934
120.183
121.177
122.393
124.124
126.521
129.618
133.382
137.732
142.572
147.789
153.268
158.885
164.511
170.014
175.265
180.152
184.574
188.467
191.788
194.527
196.692
198.328
199.479
200.215
200.602
200.715
200.619
200.374
200.03
199.632
199.215
198.796
198.388
197.998
197.632
197.281
196.952
196.637
196.34
196.056
195.786
195.53
195.281
195.045
194.814
194.592
194.369
194.147
193.917
193.673
193.407
193.104
192.752
192.329
191.814
191.177
190.374
189.401
188.075
186.491
184.624
183.265
183.756
185.878
43.0804
45.6362
48.5729
62.8983
79.7168
94.1292
103.751
109.76
113.356
115.472
116.834
118.011
119.43
121.357
123.928
127.174
131.07
135.543
140.503
145.844
151.456
157.217
162.997
168.662
174.08
179.134
183.722
187.777
191.253
194.137
196.435
198.189
199.445
200.272
200.738
200.917
200.877
200.681
200.379
200.017
199.631
199.241
198.86
198.495
198.152
197.821
197.509
197.21
196.926
196.654
196.393
196.145
195.904
195.674
195.45
195.236
195.021
194.809
194.592
194.363
194.118
193.842
193.524
193.144
192.683
192.114
191.391
190.513
189.298
187.823
186.021
184.467
184.375
185.453
43.8715
47.1622
51.0804
64.8637
80.0998
92.9332
101.563
107.075
110.471
112.573
114.034
115.369
116.964
119.061
121.783
125.161
129.174
133.754
138.818
144.265
149.988
155.866
161.77
167.564
173.113
178.299
183.019
187.203
190.804
193.806
196.213
198.066
199.41
200.314
200.848
201.085
201.095
200.941
200.677
200.347
199.99
199.626
199.27
198.928
198.605
198.293
197.998
197.713
197.441
197.18
196.929
196.689
196.456
196.234
196.018
195.811
195.606
195.405
195.201
194.988
194.764
194.513
194.228
193.889
193.481
192.974
192.328
191.54
190.43
189.057
187.318
185.585
184.95
185.05
45.5193
49.5314
54.2717
67.1112
80.6412
91.962
99.7167
104.804
108.037
110.138
111.696
113.177
114.933
117.184
120.043
123.541
127.659
132.335
137.49
143.028
148.841
154.813
160.812
166.703
172.35
177.635
182.454
186.738
190.435
193.528
196.022
197.953
199.369
200.338
200.929
201.216
201.27
201.155
200.924
200.624
200.293
199.954
199.62
199.299
198.995
198.7
198.419
198.148
197.888
197.637
197.396
197.164
196.94
196.726
196.518
196.321
196.125
195.936
195.745
195.548
195.344
195.118
194.864
194.565
194.206
193.759
193.185
192.481
191.47
190.195
188.516
186.619
185.484
184.669
48.1326
52.76
58.0974
69.6418
81.3819
91.2246
98.1554
102.85
105.945
108.065
109.729
111.362
113.278
115.679
118.67
122.283
126.5
131.263
136.498
142.11
147.996
154.038
160.107
166.065
171.781
177.135
182.024
186.377
190.143
193.303
195.86
197.852
199.323
200.343
200.982
201.312
201.404
201.323
201.123
200.851
200.544
200.227
199.915
199.613
199.327
199.047
198.781
198.522
198.273
198.032
197.8
197.577
197.361
197.156
196.957
196.768
196.583
196.405
196.227
196.047
195.862
195.66
195.437
195.175
194.861
194.471
193.964
193.339
192.422
191.238
189.616
187.574
185.979
184.314
51.784
56.7745
62.3901
72.3873
82.3108
90.7037
96.8221
101.126
104.097
106.253
108.045
109.844
111.933
114.494
117.625
121.357
125.672
130.517
135.822
141.496
147.437
153.528
159.642
165.643
171.4
176.795
181.726
186.12
189.928
193.129
195.728
197.76
199.272
200.331
201.006
201.372
201.497
201.446
201.275
201.029
200.745
200.45
200.158
199.875
199.605
199.34
199.087
198.84
198.602
198.37
198.147
197.933
197.725
197.528
197.338
197.159
196.984
196.818
196.654
196.489
196.323
196.144
195.949
195.722
195.451
195.113
194.67
194.118
193.287
192.19
190.623
188.448
186.435
183.981
56.3538
61.3696
66.8844
75.2123
83.3633
90.3539
95.6618
99.5671
102.419
104.627
106.566
108.554
110.837
113.577
116.863
120.725
125.146
130.076
135.446
141.169
147.148
153.271
159.41
165.431
171.205
176.615
181.56
185.969
189.792
193.01
195.629
197.682
199.218
200.301
201.004
201.397
201.55
201.527
201.381
201.16
200.898
200.624
200.352
200.087
199.833
199.583
199.343
199.107
198.879
198.657
198.442
198.237
198.037
197.849
197.668
197.499
197.334
197.18
197.029
196.88
196.732
196.575
196.406
196.212
195.981
195.691
195.306
194.823
194.072
193.054
191.539
189.248
186.855
183.671
61.5406
66.2153
71.2623
77.9389
84.4346
90.1112
94.6252
98.1287
100.863
103.135
105.241
107.441
109.943
112.884
116.344
120.349
124.884
129.904
135.341
141.11
147.119
153.259
159.406
165.427
171.195
176.595
181.528
185.925
189.738
192.948
195.564
197.618
199.161
200.256
200.975
201.388
201.564
201.563
201.442
201.244
201.004
200.75
200.498
200.252
200.014
199.779
199.551
199.327
199.109
198.896
198.69
198.493
198.302
198.122
197.951
197.791
197.637
197.494
197.356
197.222
197.091
196.955
196.811
196.647
196.453
196.208
195.877
195.456
194.78
193.835
192.369
189.974
187.238
183.382
66.8882
70.899
75.2137
80.3786
85.4049
89.9054
93.6746
96.7894
99.4089
101.751
104.037
106.47
109.211
112.375
116.027
120.189
124.849
129.965
135.474
141.295
147.333
153.484
159.625
165.629
171.371
176.738
181.635
185.993
189.769
192.947
195.536
197.572
199.104
200.197
200.921
201.346
201.538
201.558
201.458
201.283
201.064
200.83
200.598
200.371
200.149
199.929
199.714
199.502
199.294
199.091
198.895
198.706
198.524
198.353
198.191
198.04
197.897
197.765
197.64
197.521
197.407
197.29
197.169
197.033
196.873
196.669
196.386
196.023
195.415
194.537
193.115
190.629
187.588
183.114
71.8477
75.0072
78.4744
82.3537
86.1537
89.663
92.7786
95.5418
98.0577
100.473
102.944
105.617
108.612
112.012
115.87
120.204
125.002
130.227
135.819
141.7
147.775
153.934
160.061
166.033
171.73
177.042
181.878
186.171
189.885
193.006
195.547
197.544
199.049
200.125
200.843
201.272
201.474
201.51
201.43
201.276
201.079
200.865
200.653
200.445
200.24
200.035
199.834
199.635
199.438
199.246
199.059
198.879
198.706
198.545
198.391
198.251
198.118
197.998
197.885
197.78
197.682
197.583
197.484
197.374
197.244
197.077
196.839
196.528
195.981
195.163
193.781
191.216
187.905
182.865
75.8929
78.161
80.8148
83.6932
86.5522
89.3
91.9011
94.3873
96.8302
99.3263
101.98
104.888
108.132
111.773
115.846
120.368
125.324
130.679
136.371
142.324
148.437
154.601
160.704
166.63
172.262
177.497
182.247
186.451
190.077
193.117
195.587
197.526
198.988
200.036
200.739
201.163
201.372
201.42
201.358
201.224
201.049
200.856
200.664
200.475
200.288
200.099
199.913
199.726
199.542
199.361
199.185
199.015
198.852
198.7
198.557
198.426
198.305
198.196
198.095
198.003
197.92
197.839
197.759
197.673
197.571
197.437
197.239
196.974
196.482
195.717
194.371
191.738
188.19
182.637
78.6608
80.1103
82.0972
84.2811
86.5066
88.7503
91.017
93.3375
95.7628
98.3575
101.19
104.324
107.815
111.703
116.012
120.746
125.888
131.394
137.197
143.216
149.356
155.511
161.574
167.432
172.974
178.1
182.733
186.819
190.329
193.261
195.639
197.502
198.907
199.917
200.597
201.013
201.225
201.285
201.24
201.127
200.974
200.803
200.631
200.462
200.292
200.121
199.949
199.777
199.606
199.438
199.274
199.115
198.963
198.822
198.689
198.569
198.458
198.361
198.273
198.194
198.125
198.06
197.999
197.933
197.857
197.752
197.59
197.365
196.921
196.202
194.886
192.195
188.444
182.427
79.9652
80.8009
82.3577
84.1627
86.0597
88.0582
90.1859
92.4763
94.9706
97.7159
100.76
104.147
107.909
112.066
116.625
121.577
126.897
132.539
138.434
144.499
150.642
156.762
162.752
168.502
173.907
178.879
183.347
187.269
190.624
193.417
195.676
197.446
198.782
199.746
200.402
200.809
201.025
201.099
201.073
200.983
200.854
200.706
200.557
200.408
200.257
200.102
199.947
199.79
199.634
199.479
199.328
199.182
199.043
198.913
198.792
198.683
198.584
198.498
198.422
198.357
198.301
198.252
198.207
198.161
198.107
198.029
197.897
197.707
197.305
196.624
195.333
192.594
188.672
182.243
80.2246
80.7591
82.1568
83.8726
85.7124
87.6922
89.855
92.2401
94.8873
97.8354
101.117
104.758
108.776
113.178
117.958
123.096
128.558
134.295
140.237
146.302
152.398
158.424
164.274
169.846
175.045
179.796
184.042
187.751
190.911
193.537
195.66
197.326
198.59
199.509
200.143
200.547
200.772
200.866
200.865
200.802
200.701
200.581
200.455
200.328
200.196
200.06
199.921
199.779
199.638
199.498
199.361
199.228
199.102
198.984
198.875
198.778
198.691
198.617
198.553
198.5
198.458
198.423
198.394
198.365
198.331
198.276
198.173
198.013
197.646
196.997
195.726
192.943
188.872
182.071
80.6503
80.9434
82.2862
84.1417
86.1126
88.225
90.5527
93.1338
95.9955
99.1666
102.672
106.532
110.754
115.338
120.27
125.524
131.056
136.809
142.712
148.682
154.625
160.447
166.051
171.347
176.256
180.717
184.687
188.145
191.09
193.54
195.528
197.098
198.299
199.186
199.81
200.222
200.469
200.59
200.623
200.593
200.526
200.436
200.339
200.236
200.125
200.008
199.886
199.761
199.635
199.51
199.387
199.268
199.154
199.049
198.952
198.867
198.791
198.728
198.676
198.635
198.605
198.583
198.569
198.557
198.542
198.508
198.43
198.297
197.961
197.338
196.082
193.257
189.052
181.906
82.2966
82.3132
83.5947
85.7635
88.0175
90.3537
92.91
95.7314
98.8303
102.226
105.937
109.974
114.337
119.017
123.992
129.227
134.677
140.281
145.971
151.666
157.286
162.744
167.961
172.863
177.389
181.492
185.143
188.329
191.053
193.335
195.204
196.699
197.862
198.738
199.375
199.814
200.097
200.261
200.337
200.35
200.322
200.27
200.205
200.129
200.043
199.946
199.843
199.736
199.626
199.516
199.407
199.303
199.202
199.11
199.025
198.951
198.887
198.835
198.794
198.764
198.747
198.738
198.737
198.741
198.742
198.729
198.673
198.564
198.256
197.654
196.407
193.543
189.216
181.752
87.6211
87.6405
88.7788
91.0972
93.5444
95.9965
98.6486
101.57
104.754
108.201
111.924
115.927
120.2
124.728
129.485
134.435
139.531
144.721
149.942
155.13
160.215
165.131
169.816
174.213
178.278
181.976
185.285
188.197
190.714
192.851
194.63
196.08
197.235
198.132
198.806
199.297
199.637
199.86
199.993
200.061
200.083
200.074
200.047
200.003
199.943
199.871
199.789
199.701
199.609
199.515
199.422
199.331
199.245
199.165
199.093
199.031
198.978
198.937
198.907
198.889
198.882
198.885
198.898
198.916
198.933
198.938
198.903
198.814
198.53
197.945
196.702
193.799
189.363
181.608
97.3639
98.1118
99.4613
101.643
103.991
106.349
108.855
111.581
114.522
117.674
121.044
124.633
128.433
132.429
136.598
140.911
145.33
149.814
154.313
158.779
163.158
167.402
171.461
175.294
178.864
182.144
185.114
187.764
190.093
192.106
193.819
195.249
196.421
197.36
198.097
198.659
199.075
199.374
199.58
199.715
199.797
199.841
199.858
199.85
199.822
199.778
199.721
199.654
199.581
199.505
199.428
199.353
199.281
199.215
199.156
199.106
199.065
199.035
199.015
199.008
199.012
199.027
199.051
199.082
199.114
199.135
199.119
199.048
198.784
198.209
196.967
194.026
189.494
181.473
111.2
112.366
113.749
115.373
117.139
119.021
121.054
123.264
125.656
128.232
130.993
133.938
137.059
140.343
143.772
147.323
150.969
154.677
158.413
162.137
165.812
169.398
172.858
176.156
179.263
182.153
184.807
187.211
189.361
191.255
192.9
194.309
195.495
196.478
197.278
197.918
198.42
198.805
199.094
199.306
199.457
199.562
199.629
199.666
199.676
199.665
199.636
199.594
199.543
199.486
199.427
199.367
199.31
199.258
199.213
199.175
199.146
199.128
199.119
199.122
199.137
199.162
199.198
199.241
199.287
199.322
199.322
199.267
199.018
198.45
197.202
194.224
189.61
181.348
124.149
125.24
126.397
127.516
128.757
130.179
131.763
133.498
135.392
137.448
139.665
142.039
144.562
147.223
150.01
152.905
155.887
158.934
162.018
165.112
168.186
171.208
174.151