/*--------------------------------*- C++ -*----------------------------------*\
| =========                 |                                                 |
| \\      /  F ield         | OpenFOAM: The Open Source CFD Toolbox           |
|  \\    /   O peration     | Version:  5.x                                   |
|   \\  /    A nd           | Web:      www.OpenFOAM.org                      |
|    \\/     M anipulation  |                                                 |
\*---------------------------------------------------------------------------*/
FoamFile
{
    version     2.0;
    format      ascii;
    class       volScalarField;
    location    "450";
    object      p;
}
// * * * * * * * * * * * * * * * * * * * * * * * * * * * * * * * * * * * * * //

dimensions      [0 2 -2 0 0 0 0];

internalField   nonuniform List<scalar> 
11040
(
-0.00418375
-53.8001
-181.646
-216.408
-228.126
-235.307
-236.163
-230.664
-220.664
-206.761
-188.712
-161.05
-134.44
-115.441
-102.084
-87.8528
-73.4185
-59.7889
-46.8862
-34.4396
-22.41
-12.0387
-3.38808
4.68432
12.2154
19.211
25.6614
31.5519
36.8498
41.501
45.4383
48.6149
51.0507
52.8252
54.088
54.9342
55.1821
54.8701
54.9335
57.0759
56.9528
19.1653
-32.8984
-115.272
-157.451
-179.692
-196.03
-205.671
-207.899
-204.108
-195.242
-181.438
-158.466
-134.299
-115.631
-101.985
-87.9173
-73.6441
-60.0824
-47.2188
-34.8027
-22.7909
-12.441
-3.77044
4.3215
11.8736
18.8937
25.3733
31.2983
36.6341
41.3242
45.3032
48.5244
50.9993
52.7967
54.0752
54.9488
55.2265
54.892
54.7296
56.3237
55.8955
31.9263
-18.6128
-77.9654
-127.339
-156.864
-176.446
-188.645
-193.311
-191.698
-184.89
-173.451
-154.387
-132.561
-114.334
-100.641
-87.0979
-73.2249
-59.8692
-47.1477
-34.8455
-22.9153
-12.6044
-3.95371
4.12492
11.6702
18.6904
25.1774
31.1163
36.4713
41.1866
45.1977
48.4558
50.9643
52.7881
54.0822
54.9767
55.2829
54.9664
54.7188
55.8768
55.2518
40.7722
-4.42633
-48.9114
-94.0119
-125.456
-147.808
-163.731
-172.606
-174.841
-171.449
-163.266
-148.307
-129.404
-112.207
-98.6911
-85.7369
-72.3837
-59.3402
-46.841
-34.717
-22.9182
-12.6916
-4.08958
3.95727
11.482
18.4915
24.9777
30.9246
36.2957
41.036
45.0811
48.3794
50.9288
52.7879
54.1004
55.0043
55.3297
55.0336
54.7434
55.6148
55.1014
47.6656
8.91023
-25.6501
-64.2654
-95.8867
-120.096
-138.487
-150.56
-156.21
-156.153
-151.258
-140.367
-124.864
-109.243
-96.1288
-83.79
-71.0833
-58.4786
-46.2913
-34.4215
-22.8213
-12.7304
-4.21009
3.77722
11.2581
18.238
24.7088
30.6532
36.0347
40.7992
44.8829
48.2326
50.8397
52.7532
54.1002
55.016
55.3623
55.0998
54.784
55.5176
55.3223
52.8686
20.546
-7.02424
-39.0783
-68.3928
-92.6305
-112.256
-126.728
-135.462
-138.727
-137.224
-130.36
-118.567
-105.077
-92.7579
-81.1466
-69.2218
-57.1971
-45.4236
-33.8907
-22.5634
-12.6616
-4.26645
3.62287
11.027
17.9486
24.3799
30.3023
35.6801
40.4603
44.5814
47.9896
50.6694
52.6586
54.0622
55.0042
55.3865
55.1909
54.8874
55.5806
55.7225
56.7824
30.2783
7.89875
-18.3187
-43.9635
-66.7116
-86.2689
-101.997
-113.036
-119.234
-120.992
-117.989
-110.07
-99.293
-88.3221
-77.6632
-66.6725
-55.3901
-44.1593
-33.0635
-22.0945
-12.4467
-4.22933
3.51728
10.8054
17.6334
23.9934
29.8666
35.2186
39.9994
44.1506
47.6197
50.3848
52.4717
53.9606
54.9568
55.4053
55.3228
55.0955
55.7899
56.2473
59.7247
38.1579
19.8253
-1.48151
-23.0956
-43.3484
-61.7221
-77.5385
-89.8718
-98.2738
-102.829
-103.282
-99.1413
-91.484
-82.4454
-73.0833
-63.2329
-52.8927
-42.3734
-31.843
-21.3412
-12.0311
-4.05651
3.4927
10.6166
17.307
23.5548
29.342
34.6361
39.392
43.5568
47.0811
49.9387
52.1439
53.7521
54.8473
55.4126
55.502
55.4256
56.1709
56.8936
61.921
44.3926
29.302
12.0184
-5.79815
-23.1204
-39.5347
-54.4425
-67.019
-76.6939
-83.3124
-86.5847
-85.8298
-81.4003
-74.7605
-67.0963
-58.6456
-49.4834
-39.8877
-30.0884
-20.1891
-11.3192
-3.66653
3.61533
10.5139
17.0124
23.098
28.7522
33.9455
38.6387
42.7864
46.3456
49.2898
51.6242
53.3845
54.6342
55.3857
55.7235
55.8835
56.7606
57.6525
63.5311
49.2494
36.7875
22.765
8.2584
-6.15212
-20.2408
-33.573
-45.5058
-55.5033
-63.292
-68.5504
-70.522
-69.0828
-65.0541
-59.4314
-52.6549
-44.9163
-36.4837
-27.6205
-18.4912
-10.1858
-2.94992
3.97886
10.5777
16.8199
22.6858
28.1542
33.1975
37.7818
41.8703
45.4286
48.4343
50.8892
52.8181
54.2703
55.2777
55.9453
56.4345
57.5307
58.5213
64.6832
52.9959
42.676
31.2842
19.5421
7.76058
-3.98514
-15.4326
-26.1269
-35.6578
-43.7461
-50.0846
-53.9429
-54.9402
-53.3946
-49.9627
-45.0698
-38.9717
-31.9352
-24.2319
-16.0709
-8.48065
-1.77504
4.69909
10.9097
16.8204
22.4018
27.6276
32.4701
36.8992
40.8846
44.4003
47.4299
49.9771
52.0646
53.736
55.0345
56.0766
56.9593
58.3311
59.451
65.4837
55.872
47.3036
38.0295
28.5435
19.0049
9.40016
-0.137873
-9.31828
-17.8667
-25.566
-32.1636
-37.0354
-39.7169
-40.2074
-38.8316
-35.8633
-31.5271
-26.0631
-19.7235
-12.7332
-6.02581
0.017922
5.92038
11.6394
17.1302
22.3519
27.2714
31.8588
36.0859
39.9266
43.3606
46.3768
48.9813
51.1982
53.0689
54.6409
56.0301
57.2953
58.9283
60.2625
66.0245
58.0818
50.9513
43.3818
35.7149
28.0267
20.2623
12.4741
4.83157
-2.49353
-9.3685
-15.6146
-20.7482
-24.3366
-26.2266
-26.5059
-25.272
-22.6507
-18.8152
-13.9664
-8.31013
-2.64365
2.60336
7.81095
12.9263
17.8974
22.6732
27.2126
31.4822
35.4538
39.1037
42.4147
45.3788
48.0025
50.3095
52.3364
54.1264
55.7797
57.3418
59.1417
60.7236
66.3819
59.7916
53.8472
47.6525
41.445
35.2556
29.016
22.7354
16.5059
10.4267
4.56549
-0.969958
-5.83236
-9.67612
-12.3116
-13.7003
-13.8121
-12.6665
-10.3479
-6.98361
-2.73015
1.78806
6.12782
10.5321
14.9394
19.2921
23.5315
27.6097
31.49
35.1429
38.545
41.68
44.5408
47.1324
49.4747
51.5954
53.5275
55.3446
57.0863
58.9387
60.6631
66.6147
61.1303
56.1694
51.0874
46.0501
41.0641
36.0618
31.0317
26.0207
21.0814
16.2451
11.5634
7.27119
3.61915
0.773275
-1.18531
-2.16691
-2.11931
-1.04918
0.9907
3.90705
7.26247
10.6436
14.179
17.8046
21.4615
25.0868
28.6284
32.047
35.3121
38.4
41.2938
43.9846
46.4738
48.7753
50.9065
52.8876
54.7653
56.5688
58.3876
60.1079
66.7763
62.2042
58.0617
53.8822
49.7837
45.7601
41.7497
37.7333
33.733
29.7744
25.8683
22.0339
18.4228
15.2063
12.5072
10.4039
8.995
8.36061
8.54012
9.53623
11.3129
13.604
16.0601
18.7302
21.5551
24.4799
27.4443
30.3963
33.2959
36.1117
38.8194
41.4013
43.8462
46.1512
48.323
50.3686
52.2965
54.133
55.8953
57.6209
59.252
66.9256
63.1113
59.6521
56.2079
52.865
49.6102
46.3896
43.1826
39.9982
36.8481
33.732
30.6548
27.7104
25.0118
22.6429
20.6628
19.1542
18.1948
17.8392
18.1187
19.0351
20.4538
22.1056
23.9934
26.069
28.2862
30.5926
32.9415
35.2956
37.6248
39.9049
42.1173
44.2484
46.2915
48.2472
50.1152
51.8951
53.6
55.2372
56.8194
58.3175
67.0577
63.8438
60.924
58.0489
55.2853
52.6149
49.991
47.3949
44.8296
42.2999
39.8021
37.336
34.9603
32.7479
30.7542
29.0203
27.6076
26.5788
25.9849
25.8641
26.2351
27.0447
28.0968
29.3745
30.8425
32.4648
34.1993
36.0074
37.8573
39.7221
41.5798
43.412
45.2048
46.9486
48.6399
50.2738
51.8452
53.3594
54.8184
56.2235
57.5617
67.1647
64.415
61.9128
59.4723
57.1473
54.9163
52.7387
50.598
48.4941
46.4284
44.3958
42.394
40.4625
38.65
36.9926
35.5187
34.2722
33.3
32.6432
32.3368
32.4033
32.8323
33.482
34.3311
35.3551
36.5268
37.8142
39.1867
40.6185
42.0874
43.5739
45.0616
46.5372
47.9904
49.4158
50.8061
52.1543
53.4613
54.726
55.9447
57.1122
67.2624
64.8798
62.7085
60.6081
58.6226
56.7289
54.8918
53.0969
51.3425
49.6282
47.9491
46.3022
44.7152
43.2215
41.8451
40.6059
39.5348
38.666
38.0309
37.658
37.5679
37.7701
38.1607
38.7199
39.4314
40.2752
41.2267
42.263
43.3635
44.5103
45.6873
46.8805
48.0777
49.2694
50.4494
51.61
52.7439
53.8499
54.9254
55.9649
56.9662
67.3558
65.2703
63.3674
61.5397
59.8239
58.1965
56.6267
55.1018
53.6195
52.1783
50.7736
49.4027
48.0851
46.8451
45.6988
44.6598
43.7504
42.9954
42.4181
42.0403
41.8791
41.9514
42.1791
42.5459
43.0415
43.6506
44.355
45.137
45.9811
46.8729
47.7994
48.7489
49.7113
50.6779
51.643
52.5991
53.5395
54.4622
55.3639
56.2393
57.0866
67.447
65.6065
63.9253
62.3208
60.8238
59.4111
58.0555
56.7459
55.4796
54.2547
53.067
51.914
50.81
49.7727
48.8135
47.9415
47.1732
46.5265
46.0182
45.665
45.4798
45.4812
45.6085
45.8492
46.1969
46.64
47.1645
47.757
48.4056
49.0991
49.827
50.5801
51.3498
52.1289
52.9121
53.693
54.4657
55.2281
55.9767
56.7069
57.417
67.5366
65.901
64.4055
62.9865
61.6699
60.4333
59.2525
58.1178
57.0262
55.9756
54.9624
53.9841
53.0514
52.1776
51.3707
50.6371
49.9886
49.4384
48.9989
48.6821
48.4978
48.4632
48.5298
48.6885
48.9354
49.2614
49.6555
50.1076
50.6086
51.1496
51.7224
52.3196
52.9343
53.5604
54.1936
54.8284
55.4598
56.0859
56.7035
57.3087
57.8995
67.6242
66.162
64.8241
63.5612
62.3954
61.3053
60.2692
59.2786
58.3304
57.4225
56.5514
55.715
54.9215
54.1806
53.4983
52.879
52.3311
51.8646
51.4882
51.211
51.0396
50.9893
51.02
51.1256
51.3037
51.5468
51.8465
52.1947
52.5846
53.009
53.4617
53.9365
54.4279
54.9312
55.4427
55.9577
56.4724
56.985
57.4926
57.9922
58.4815
67.7097
66.3955
65.1924
64.0622
63.024
62.0571
61.1424
60.272
59.4431
58.6532
57.8994
57.1798
56.5004
55.8687
55.2889
54.7642
54.3006
53.9053
53.5849
53.3457
53.1924
53.1377
53.1479
53.2191
53.3499
53.5342
53.765
54.0363
54.3423
54.6778
55.0375
55.4167
55.811
56.2165
56.6302
57.0483
57.4678
57.8872
58.3039
58.7157
59.1199
67.7924
66.6057
65.5188
64.5026
63.5731
62.711
61.899
61.13
60.4012
59.7103
59.0544
58.4317
57.8469
57.3056
56.8108
56.3646
55.9714
55.6365
55.3645
55.16
55.0262
54.9731
54.9722
55.0211
55.1192
55.2613
55.4416
55.6554
55.8981
56.1655
56.4533
56.758
57.0758
57.4038
57.7394
58.0797
58.4221
58.7656
59.1078
59.4472
59.781
67.8721
66.7958
65.8099
64.892
64.056
63.2837
62.5593
61.8767
61.2329
60.6255
60.0519
59.5106
59.0049
58.539
58.115
57.7344
57.4003
57.1162
56.8858
56.712
56.5969
56.5485
56.5421
56.5766
56.6518
56.7633
56.9062
57.0767
57.2712
57.4861
57.7183
57.9647
58.2224
58.4889
58.7624
59.0403
59.3207
59.6026
59.8843
60.1644
60.4401
67.9484
66.9683
66.0704
65.238
64.4829
63.788
63.1391
62.5305
61.9593
61.423
60.9194
60.4469
60.0078
59.6053
59.2408
58.9152
58.6306
58.3895
58.1944
58.0474
57.9495
57.907
57.8985
57.9237
57.9827
58.0717
58.1866
58.3241
58.4815
58.6559
58.8447
59.0453
59.2555
59.4734
59.6973
59.9252
60.1557
60.3879
60.6203
60.8521
61.0803
68.0212
67.1251
66.3044
65.5466
64.8619
64.2342
63.6506
63.1058
62.5971
62.1219
61.6781
61.2641
60.8816
60.5327
60.2185
59.9392
59.6964
59.4917
59.3265
59.2025
59.12
59.0838
59.075
59.0941
59.1415
59.2137
59.3073
59.4196
59.5483
59.691
59.8457
60.0102
60.1828
60.3619
60.5462
60.734
60.9242
61.1162
61.3087
61.501
61.6904
68.0901
67.2678
66.515
65.8226
65.1994
64.6303
64.1035
63.6141
63.1594
62.737
62.3447
61.9808
61.6466
61.3435
61.0719
60.8319
60.6244
60.4504
60.3108
60.2065
60.1374
60.1072
60.0992
60.1145
60.1534
60.213
60.2902
60.3828
60.489
60.6068
60.7345
60.8703
61.0129
61.161
61.3134
61.469
61.6267
61.786
61.946
62.1062
62.2638
68.1553
67.3977
66.7048
66.0699
65.5006
64.9827
64.5056
64.0646
63.657
63.2804
62.9325
62.6119
62.3192
62.0552
61.8201
61.6135
61.4361
61.2882
61.1702
61.0827
61.0253
61.0006
60.994
61.0068
61.0394
61.0893
61.1537
61.2309
61.3193
61.4173
61.5234
61.6363
61.7549
61.8779
62.0047
62.1341
62.2654
62.3982
62.5316
62.6655
62.797
68.2164
67.516
66.8759
66.2917
65.7698
65.297
64.8634
64.4647
64.0983
63.7615
63.4524
63.1693
62.9124
62.6822
62.4783
62.3004
62.1486
62.0229
61.9234
61.8503
61.8029
61.7832
61.7782
61.7894
61.8173
61.8595
61.9139
61.9788
62.053
62.1351
62.2239
62.3183
62.4174
62.5202
62.6261
62.7343
62.8441
62.9552
63.0668
63.179
63.2891
68.2737
67.6236
67.0301
66.4907
66.0105
65.5773
65.182
64.8206
64.4903
64.1885
63.9133
63.6628
63.437
63.236
63.0591
62.9058
62.7759
62.6692
62.5855
62.5246
62.4858
62.4705
62.4671
62.4773
62.5016
62.5379
62.5842
62.6393
62.702
62.7712
62.846
62.9254
63.0086
63.0949
63.1838
63.2745
63.3667
63.4599
63.5537
63.648
63.7404
68.327
67.7212
67.169
66.669
66.2256
65.8274
65.466
65.1374
64.8388
64.5679
64.3223
64.1005
63.9018
63.7261
63.5726
63.4406
63.3296
63.2392
63.1689
63.1186
63.0872
63.0757
63.0739
63.0835
63.105
63.1365
63.1764
63.2235
63.2768
63.3356
63.3989
63.4659
63.5362
63.6089
63.6838
63.7602
63.8378
63.9163
63.9953
64.0747
64.1525
68.3764
67.8095
67.2937
66.8286
66.4176
66.0503
65.7187
65.4192
65.1487
64.9049
64.6856
64.4888
64.314
64.1604
64.0273
63.9138
63.819
63.7427
63.684
63.6426
63.6176
63.6094
63.6091
63.6184
63.6377
63.6653
63.6999
63.7404
63.7861
63.8362
63.8901
63.947
64.0065
64.0681
64.1313
64.1959
64.2614
64.3276
64.3943
64.4614
64.5269
68.4219
67.8892
67.4054
66.9709
66.5886
66.2485
65.9434
65.6696
65.424
65.2043
65.0081
64.8335
64.6796
64.5455
64.4302
64.3327
64.2522
64.188
64.1393
64.1057
64.0861
64.0809
64.082
64.0911
64.1087
64.1333
64.1635
64.1987
64.2381
64.2811
64.3271
64.3756
64.4262
64.4785
64.5321
64.5868
64.6422
64.6982
64.7546
64.8113
64.8666
68.4636
67.9606
67.5049
67.0973
66.7402
66.4242
66.1425
65.8914
65.6681
65.4697
65.294
65.1391
65.0036
64.8867
64.7871
64.7037
64.6355
64.5819
64.5419
64.5149
64.5
64.4973
64.4997
64.5088
64.5249
64.5469
64.5736
64.6043
64.6384
64.6754
64.7149
64.7564
64.7996
64.8441
64.8897
64.9361
64.983
65.0305
65.0782
65.1263
65.173
68.5015
68.0242
67.5929
67.209
66.8739
66.5791
66.3181
66.0873
65.8836
65.7043
65.5469
65.4094
65.2904
65.1887
65.1029
65.0319
64.9746
64.9303
64.8979
64.8768
64.8661
64.8656
64.8693
64.8785
64.8937
64.9137
64.9374
64.9644
64.9942
65.0263
65.0604
65.0961
65.133
65.171
65.2098
65.2493
65.2892
65.3294
65.3698
65.4105
65.45
68.5356
68.0803
67.6702
67.3066
66.9908
66.7146
66.472
66.2591
66.073
65.9107
65.7696
65.6477
65.5434
65.4552
65.3817
65.3217
65.274
65.2377
65.2119
65.1959
65.1887
65.1902
65.1949
65.2042
65.2185
65.2367
65.258
65.2819
65.308
65.336
65.3655
65.3962
65.4279
65.4604
65.4936
65.5272
65.5611
65.5953
65.6295
65.6641
65.6974
68.566
68.1292
67.7371
67.3911
67.0919
66.832
66.6055
66.4086
66.2381
66.091
65.9646
65.8567
65.7655
65.6894
65.627
65.5768
65.5377
65.5088
65.489
65.4777
65.4738
65.4773
65.4833
65.4931
65.5069
65.5239
65.5433
65.5648
65.588
65.6126
65.6383
65.6649
65.6923
65.7202
65.7485
65.7772
65.806
65.8351
65.8641
65.8933
65.9214
68.5928
68.1712
67.7942
67.4631
67.1781
66.9322
66.7198
66.5371
66.3805
66.2471
66.1339
66.0386
65.9592
65.894
65.8414
65.8
65.7685
65.746
65.7313
65.7239
65.7228
65.7277
65.7346
65.7445
65.7578
65.7736
65.7913
65.8106
65.8312
65.8529
65.8754
65.8986
65.9223
65.9464
65.9707
65.9952
66.0199
66.0446
66.0692
66.0939
66.1176
68.6158
68.2063
67.8416
67.5227
67.2498
67.016
66.816
66.6457
66.5015
66.3803
66.279
66.1951
66.1265
66.0712
66.0277
65.9944
65.9701
65.9538
65.9443
65.9411
65.9431
65.95
65.9584
65.9693
65.9827
65.9981
66.0148
66.0327
66.0515
66.071
66.0909
66.1113
66.132
66.1528
66.1737
66.1947
66.2156
66.2366
66.2574
66.2783
66.2982
68.6352
68.2345
67.8792
67.5701
67.307
67.0835
66.8942
66.735
66.602
66.4918
66.4013
66.3277
66.2689
66.2226
66.1872
66.1611
66.1429
66.1315
66.1261
66.1258
66.1298
66.1379
66.147
66.1581
66.1712
66.1857
66.2013
66.2177
66.2347
66.2521
66.2699
66.2879
66.3061
66.3243
66.3425
66.3607
66.3787
66.3967
66.4144
66.4322
66.4491
68.6509
68.2561
67.9075
67.6058
67.3503
67.1351
66.9549
66.8052
66.6821
66.5819
66.5013
66.4373
66.3875
66.3499
66.3224
66.3037
66.2923
66.287
66.2869
66.291
66.2986
66.3093
66.3206
66.3333
66.3473
66.3623
66.3779
66.3938
66.4099
66.4262
66.4425
66.4587
66.4748
66.4908
66.5066
66.5222
66.5375
66.5527
66.5676
66.5824
66.5965
68.6633
68.2719
67.9278
67.6313
67.3814
67.1726
66.9995
66.8578
66.7431
66.6517
66.5799
66.5246
66.4831
66.453
66.4323
66.4192
66.4124
66.4107
66.4133
66.4195
66.4286
66.4401
66.452
66.4649
66.4788
66.4933
66.5082
66.5231
66.5381
66.5531
66.568
66.5827
66.5972
66.6115
66.6255
66.6393
66.6529
66.6661
66.6791
66.6919
66.7041
68.6722
68.2809
67.9387
67.6454
67.3995
67.1957
67.0287
66.8937
66.7863
66.7023
66.6382
66.5908
66.5573
66.5354
66.523
66.5183
66.5196
66.5256
66.5351
66.5471
66.561
66.5763
66.5914
66.607
66.6229
66.6388
66.6545
66.6699
66.685
66.6997
66.7139
66.7277
66.7411
66.7539
66.7664
66.7784
66.79
66.8012
66.812
66.8225
66.8325
68.6762
68.279
67.9339
67.6402
67.3959
67.1957
67.034
66.9056
66.8055
66.7293
66.673
66.6328
66.6059
66.5894
66.5813
66.5797
66.5834
66.5911
66.6022
66.6158
66.631
66.647
66.6628
66.6788
66.6948
66.7107
66.7262
66.7412
66.7558
66.7698
66.7833
66.7963
66.8088
66.8207
66.8321
66.843
66.8535
66.8635
66.8731
66.8823
66.8913
68.6749
68.2678
67.916
67.6182
67.3724
67.1733
67.0149
66.8915
66.7981
66.7297
66.6824
66.6524
66.6368
66.6327
66.6378
66.6497
66.6666
66.6865
66.708
66.7301
66.752
66.7735
66.7941
66.8141
66.8332
66.8515
66.8689
66.8852
66.9007
66.9152
66.9289
66.9418
66.9538
66.9651
66.9757
66.9857
66.995
67.0038
67.0121
67.0198
67.0274
62.3362
66.4094
69.7658
71.7156
72.9
73.6929
74.1476
74.3549
74.4003
74.3361
74.1989
74.0161
73.807
73.5847
73.3578
73.1326
72.9131
72.7016
72.4996
72.3081
72.1272
71.9571
71.7974
71.648
71.5082
71.3776
71.2558
71.1421
71.036
70.937
70.8445
70.7579
70.6768
70.6007
70.5292
70.4619
70.3985
70.3388
70.2825
70.2295
70.1796
70.1326
70.0883
70.0466
70.0073
69.9702
69.9352
69.902
69.8706
69.8408
69.8125
69.7856
69.7599
69.7353
69.7118
69.6893
69.6676
69.6466
69.6264
69.6069
69.5879
69.5695
69.5515
69.5341
69.5171
69.5006
69.4845
69.4693
69.4543
69.4413
69.4269
69.4192
69.4016
69.41
61.7265
66.1247
69.6244
71.7148
72.9633
73.765
74.2106
74.4049
74.4368
74.3602
74.2125
74.0211
73.805
73.5772
73.3461
73.1176
72.8957
72.6825
72.4795
72.2872
72.106
71.9358
71.7762
71.627
71.4876
71.3575
71.2362
71.1231
71.0177
70.9193
70.8274
70.7415
70.6611
70.5856
70.5147
70.448
70.3851
70.326
70.2702
70.2177
70.1683
70.1217
70.0779
70.0366
69.9977
69.961
69.9264
69.8936
69.8625
69.8331
69.8051
69.7784
69.753
69.7287
69.7055
69.6832
69.6617
69.641
69.621
69.6017
69.5829
69.5647
69.5469
69.5296
69.5128
69.4965
69.4806
69.4655
69.4506
69.4378
69.4235
69.4159
69.3984
69.4069
61.2681
65.4342
69.2868
71.6354
72.995
73.8317
74.2803
74.4636
74.4802
74.3888
74.2285
74.0265
73.8022
73.5679
73.3318
73.0997
72.8751
72.6601
72.4557
72.2627
72.0812
71.9109
71.7516
71.6027
71.4638
71.3344
71.2138
71.1014
70.9967
70.8992
70.8081
70.723
70.6433
70.5686
70.4984
70.4324
70.3702
70.3117
70.2565
70.2046
70.1557
70.1097
70.0664
70.0257
69.9872
69.951
69.9167
69.8844
69.8537
69.8246
69.797
69.7707
69.7456
69.7216
69.6986
69.6766
69.6554
69.635
69.6152
69.5961
69.5775
69.5595
69.5419
69.5249
69.5082
69.4921
69.4763
69.4614
69.4467
69.434
69.4198
69.4124
69.3951
69.4036
61.0143
64.8315
68.8585
71.4539
72.968
73.8661
74.3351
74.5198
74.5263
74.4205
74.246
74.0319
73.7979
73.5561
73.3143
73.078
72.8504
72.6333
72.4276
72.2339
72.0521
71.8819
71.7228
71.5745
71.4364
71.3077
71.1879
71.0765
70.9728
70.8762
70.7861
70.702
70.6232
70.5494
70.4801
70.4149
70.3535
70.2957
70.2413
70.19
70.1418
70.0964
70.0537
70.0135
69.9757
69.9399
69.9062
69.8743
69.8441
69.8154
69.7881
69.7622
69.7375
69.7138
69.6912
69.6695
69.6486
69.6284
69.609
69.5901
69.5718
69.554
69.5366
69.5198
69.5033
69.4874
69.4718
69.4571
69.4425
69.43
69.416
69.4087
69.3916
69.4001
61.0653
64.5874
68.4992
71.1975
72.8658
73.8513
74.3553
74.5514
74.558
74.4456
74.2605
74.0349
73.7905
73.5404
73.2923
73.0513
72.8204
72.6011
72.394
72.1997
72.0177
71.8477
71.6892
71.5416
71.4044
71.2767
71.1581
71.0479
70.9453
70.8499
70.761
70.678
70.6004
70.5276
70.4593
70.3951
70.3347
70.2778
70.2242
70.1738
70.1263
70.0817
70.0397
70.0001
69.9629
69.9278
69.8946
69.8632
69.8335
69.8053
69.7785
69.753
69.7287
69.7054
69.6832
69.6618
69.6412
69.6214
69.6022
69.5836
69.5656
69.5481
69.531
69.5143
69.4981
69.4824
69.467
69.4525
69.4381
69.4257
69.4119
69.4047
69.3878
69.3964
61.2763
64.6301
68.3133
70.9748
72.714
73.7756
74.33
74.5472
74.5577
74.4443
74.2565
74.0259
73.7748
73.5176
73.2633
73.0175
72.7833
72.5618
72.3535
72.1586
71.9767
71.8072
71.6495
71.503
71.3669
71.2406
71.1234
71.0146
70.9135
70.8196
70.7321
70.6505
70.5742
70.5028
70.4358
70.3727
70.3134
70.2576
70.205
70.1555
70.109
70.0652
70.024
69.9852
69.9487
69.9143
69.8817
69.851
69.8219
69.7942
69.768
69.743
69.7191
69.6963
69.6744
69.6535
69.6333
69.6138
69.5949
69.5767
69.5589
69.5417
69.5249
69.5085
69.4925
69.477
69.4619
69.4476
69.4334
69.4212
69.4076
69.4005
69.3839
69.3925
61.5571
64.8332
68.2933
70.8681
72.5815
73.6595
74.2524
74.5004
74.5225
74.4089
74.2183
73.9866
73.7356
73.4778
73.2213
72.9728
72.7362
72.513
72.3039
72.1089
71.9275
71.7588
71.6023
71.4573
71.3228
71.1982
71.0828
70.9758
70.8766
70.7844
70.6988
70.6189
70.5443
70.4744
70.4088
70.3472
70.2892
70.2346
70.1832
70.1349
70.0894
70.0466
70.0064
69.9686
69.9329
69.8993
69.8675
69.8375
69.809
69.782
69.7564
69.7319
69.7086
69.6863
69.6649
69.6444
69.6246
69.6055
69.5871
69.5692
69.5518
69.5348
69.5183
69.5022
69.4865
69.4713
69.4564
69.4423
69.4284
69.4163
69.403
69.396
69.3797
69.3883
61.931
65.0902
68.3408
70.8401
72.5035
73.55
74.1426
74.4088
74.4476
74.3411
74.149
73.9129
73.6601
73.4043
73.1517
72.9067
72.6723
72.4502
72.2418
72.0476
71.8674
71.7004
71.5457
71.4027
71.2704
71.1481
71.035
70.9304
70.8334
70.7435
70.66
70.5822
70.5096
70.4417
70.3779
70.318
70.2616
70.2085
70.1585
70.1115
70.0673
70.0257
69.9866
69.9498
69.9152
69.8825
69.8516
69.8225
69.7948
69.7685
69.7436
69.7198
69.6971
69.6753
69.6545
69.6345
69.6152
69.5966
69.5785
69.561
69.544
69.5274
69.5113
69.4955
69.4801
69.4652
69.4506
69.4367
69.423
69.4112
69.398
69.3913
69.3752
69.3839
62.4779
65.3767
68.3348
70.7815
72.4299
73.4521
74.0268
74.2895
74.3344
74.2366
74.0496
73.8129
73.5563
73.2971
73.0447
72.8043
72.5771
72.3622
72.1595
71.9697
71.7929
71.6288
71.477
71.337
71.2078
71.0885
70.9784
70.8767
70.7826
70.6956
70.6148
70.5396
70.4694
70.4038
70.3422
70.2843
70.2299
70.1786
70.1303
70.0849
70.0422
70.002
69.9643
69.9287
69.8953
69.8637
69.8339
69.8057
69.7789
69.7535
69.7294
69.7063
69.6843
69.6633
69.6431
69.6236
69.6049
69.5868
69.5692
69.5522
69.5356
69.5194
69.5037
69.4883
69.4732
69.4586
69.4443
69.4307
69.4173
69.4057
69.3928
69.3862
69.3705
69.3792
63.1843
65.6762
68.2411
70.6034
72.2517
73.2789
73.8732
74.1491
74.1985
74.1017
73.9173
73.6842
73.4293
73.1687
72.913
72.6709
72.4457
72.237
72.0434
71.8635
71.6954
71.5382
71.3921
71.2569
71.132
71.0168
70.9107
70.8129
70.7226
70.639
70.5616
70.4896
70.4225
70.3597
70.3008
70.2454
70.1933
70.1442
70.0979
70.0544
70.0135
69.975
69.9389
69.9048
69.8728
69.8425
69.8139
69.7869
69.7612
69.7368
69.7136
69.6914
69.6702
69.6499
69.6304
69.6117
69.5936
69.5761
69.5591
69.5426
69.5265
69.5108
69.4954
69.4804
69.4658
69.4515
69.4375
69.4243
69.4111
69.3998
69.3872
69.3808
69.3654
69.3743
63.8159
65.8777
68.0022
70.221
71.8784
72.9307
73.5703
73.9048
74.0031
73.9347
73.7629
73.5341
73.2797
73.0187
72.7628
72.5198
72.2934
72.0845
71.8939
71.7209
71.5628
71.4169
71.2816
71.1557
71.0384
70.9296
70.8291
70.7364
70.6509
70.5719
70.4988
70.4308
70.3674
70.3081
70.2525
70.2001
70.1508
70.1043
70.0605
70.0193
69.9806
69.9441
69.9098
69.8776
69.8472
69.8185
69.7913
69.7656
69.7412
69.718
69.6959
69.6748
69.6545
69.6351
69.6165
69.5985
69.5811
69.5643
69.5479
69.532
69.5165
69.5013
69.4865
69.472
69.4577
69.4439
69.4303
69.4174
69.4046
69.3935
69.3813
69.3751
69.3601
69.369
64.0338
65.7756
67.513
69.5034
71.1459
72.2629
72.9877
73.4224
73.6197
73.6361
73.5296
73.3448
73.1137
72.8613
72.606
72.3599
72.1298
71.9183
71.7266
71.5547
71.4003
71.2615
71.1364
71.0224
70.9172
70.8193
70.7282
70.6434
70.5646
70.4916
70.424
70.3611
70.3025
70.2475
70.1959
70.1472
70.1013
70.058
70.0172
69.9787
69.9426
69.9085
69.8765
69.8464
69.818
69.7911
69.7657
69.7416
69.7187
69.6969
69.676
69.6561
69.637
69.6186
69.601
69.5839
69.5673
69.5513
69.5357
69.5205
69.5056
69.491
69.4768
69.4628
69.449
69.4356
69.4225
69.4099
69.3975
69.3868
69.3749
69.369
69.3544
69.3635
63.7423
65.2722
66.7388
68.4426
69.9703
71.1152
71.9394
72.5155
72.8709
73.0373
73.0598
72.981
72.8333
72.6423
72.4271
72.2015
71.9772
71.7628
71.5643
71.3852
71.2261
71.0861
70.9641
70.8571
70.7621
70.6765
70.5983
70.5258
70.4577
70.3938
70.334
70.2779
70.2252
70.1758
70.1292
70.0851
70.0434
70.0039
69.9667
69.9316
69.8985
69.8674
69.8381
69.8105
69.7845
69.7598
69.7365
69.7143
69.6931
69.6729
69.6536
69.6351
69.6173
69.6002
69.5836
69.5676
69.5521
69.5369
69.5222
69.5078
69.4936
69.4798
69.4661
69.4527
69.4396
69.4267
69.414
69.4019
69.39
69.3796
69.3681
69.3624
69.3484
69.3576
63.026
64.3899
65.6831
67.1277
68.4879
69.6038
70.4853
71.1709
71.6739
72.0084
72.2014
72.282
72.2752
72.2027
72.0837
71.9343
71.7674
71.5923
71.4153
71.2424
71.0789
70.9292
70.7967
70.6825
70.5855
70.5039
70.4348
70.3747
70.3204
70.2701
70.2223
70.1765
70.1323
70.0901
70.0498
70.0115
69.975
69.9404
69.9076
69.8766
69.8473
69.8197
69.7937
69.7691
69.7459
69.7239
69.7029
69.683
69.6639
69.6457
69.6282
69.6114
69.5951
69.5794
69.5642
69.5494
69.535
69.521
69.5072
69.4937
69.4805
69.4674
69.4545
69.4418
69.4293
69.417
69.4049
69.3933
69.3818
69.3719
69.3608
69.3555
69.3419
69.3514
62.0125
63.2356
64.4094
65.6635
66.8673
67.9215
68.8162
69.5644
70.1692
70.6352
70.9764
71.2114
71.3581
71.4323
71.4483
71.4184
71.3534
71.2628
71.1549
71.0366
70.9131
70.7883
70.6652
70.5477
70.4399
70.3455
70.2666
70.2028
70.1521
70.1116
70.0774
70.0463
70.0161
69.9858
69.9551
69.9244
69.8943
69.8654
69.8379
69.8118
69.7872
69.764
69.7419
69.7211
69.7013
69.6824
69.6644
69.6471
69.6306
69.6146
69.5992
69.5844
69.57
69.556
69.5423
69.529
69.516
69.5032
69.4906
69.4781
69.4659
69.4537
69.4417
69.4298
69.418
69.4064
69.395
69.384
69.373
69.3636
69.353
69.348
69.3351
69.3448
60.8457
61.9502
63.0239
64.136
65.2107
66.1925
67.0706
67.8453
68.5129
69.0719
69.5271
69.888
70.1655
70.3712
70.5161
70.6107
70.6638
70.683
70.6744
70.6431
70.5942
70.5323
70.4614
70.385
70.3057
70.2256
70.1471
70.0737
70.0089
69.9557
69.9148
69.8849
69.863
69.8459
69.8303
69.814
69.796
69.7767
69.7566
69.7366
69.7173
69.699
69.6816
69.6651
69.6494
69.6343
69.6198
69.6058
69.5922
69.579
69.5661
69.5536
69.5414
69.5294
69.5176
69.506
69.4945
69.4832
69.4719
69.4608
69.4497
69.4386
69.4276
69.4167
69.4057
69.3949
69.3842
69.3738
69.3635
69.3546
69.3446
69.3401
69.3277
69.3379
59.6714
60.6672
61.644
62.6363
63.6011
64.5083
65.35
66.1221
66.8185
67.4347
67.9701
68.4274
68.8114
69.1282
69.3848
69.5889
69.7477
69.8685
69.9571
70.019
70.0581
70.078
70.0815
70.0713
70.05
70.0202
69.9843
69.944
69.9005
69.8548
69.809
69.7665
69.7302
69.7024
69.6832
69.6708
69.6629
69.6566
69.6499
69.6418
69.6324
69.6219
69.6109
69.5999
69.5891
69.5785
69.5681
69.5579
69.5479
69.538
69.5281
69.5184
69.5087
69.4991
69.4895
69.4799
69.4703
69.4607
69.451
69.4414
69.4316
69.4219
69.412
69.4021
69.3922
69.3823
69.3724
69.3628
69.3532
69.3449
69.3356
69.3315
69.3199
69.3306
58.7132
59.6011
60.4784
61.3602
62.2237
63.0527
63.8413
64.5846
65.2767
65.9123
66.4887
67.0048
67.4614
67.8604
68.2051
68.4995
68.7484
68.9567
69.1296
69.2716
69.3874
69.4805
69.5541
69.6105
69.6516
69.6789
69.6939
69.6982
69.694
69.6832
69.6677
69.6486
69.6268
69.6034
69.5803
69.5599
69.5444
69.5349
69.5306
69.5297
69.53
69.5297
69.528
69.5249
69.5206
69.5155
69.5101
69.5043
69.4984
69.4922
69.4858
69.4792
69.4724
69.4655
69.4583
69.451
69.4436
69.4359
69.4281
69.4201
69.4119
69.4035
69.395
69.3863
69.3775
69.3686
69.3597
69.351
69.3421
69.3345
69.3259
69.3224
69.3116
69.323
58.0881
58.8664
59.6418
60.4182
61.1844
61.932
62.6561
63.3521
64.0149
64.6397
65.223
65.7622
66.2559
66.7036
67.1059
67.4643
67.7809
68.0585
68.3002
68.5093
68.6892
68.843
68.9739
69.0845
69.1773
69.2542
69.3167
69.3662
69.4039
69.4312
69.4497
69.461
69.4668
69.4682
69.4662
69.4613
69.454
69.4455
69.4377
69.4326
69.4312
69.4332
69.4373
69.4417
69.4452
69.4471
69.4476
69.4468
69.4452
69.4431
69.4403
69.4372
69.4335
69.4295
69.425
69.4202
69.415
69.4094
69.4035
69.3973
69.3908
69.384
69.3769
69.3695
69.3619
69.3541
69.3461
69.3383
69.3304
69.3235
69.3156
69.3128
69.3027
69.315
57.7901
58.4599
59.1325
59.8067
60.4777
61.1409
61.7923
62.428
63.0438
63.6359
64.2005
64.7348
65.2362
65.7031
66.1345
66.5299
66.8898
67.2151
67.5073
67.7683
68
68.2047
68.3847
68.5424
68.6799
68.7994
68.9026
68.9914
69.0672
69.1313
69.1846
69.2282
69.263
69.2903
69.3112
69.327
69.3385
69.3464
69.3509
69.3526
69.3525
69.3524
69.354
69.3581
69.3645
69.3718
69.3788
69.3843
69.3882
69.3907
69.392
69.3924
69.3921
69.3911
69.3895
69.3873
69.3845
69.3812
69.3774
69.3731
69.3684
69.3632
69.3576
69.3516
69.3452
69.3386
69.3318
69.3249
69.3179
69.3118
69.3047
69.3026
69.2932
69.3067
57.7778
58.3431
58.9151
59.4912
60.0695
60.6475
61.2219
61.7897
62.3474
62.8919
63.42
63.9289
64.4157
64.8784
65.315
65.7243
66.1055
66.4581
66.7823
67.0788
67.3483
67.5921
67.8116
68.0084
68.184
68.3402
68.4786
68.6009
68.7087
68.8035
68.8866
68.9593
69.0225
69.0768
69.1229
69.1614
69.1931
69.2189
69.2397
69.2562
69.2688
69.278
69.2843
69.2889
69.2934
69.2994
69.3072
69.3163
69.3254
69.3335
69.3399
69.3447
69.3481
69.3504
69.3518
69.3524
69.3522
69.3513
69.3497
69.3474
69.3445
69.3411
69.3371
69.3326
69.3276
69.3222
69.3165
69.3107
69.3046
69.2994
69.2931
69.2917
69.2831
69.2981
57.9928
58.4617
58.9393
59.4237
59.9141
60.4091
60.9061
61.4028
61.8967
62.3851
62.8655
63.3353
63.792
64.2332
64.6569
65.0613
65.4449
65.8066
66.1457
66.4617
66.7547
67.025
67.2729
67.4994
67.7054
67.892
68.0603
68.2117
68.3474
68.4689
68.5774
68.6743
68.7607
68.8378
68.9063
68.9669
69.0199
69.0656
69.1045
69.1371
69.1641
69.1865
69.2046
69.219
69.2301
69.2386
69.2459
69.2535
69.2624
69.2724
69.2828
69.2925
69.3005
69.3069
69.3118
69.3154
69.3179
69.3195
69.3202
69.3201
69.3192
69.3176
69.3153
69.3124
69.3089
69.3048
69.3003
69.2956
69.2905
69.2862
69.2807
69.2802
69.2723
69.2893
58.3765
58.7596
59.1523
59.5536
59.9634
60.3805
60.8032
61.2297
61.6583
62.087
62.5138
62.9364
63.3528
63.7609
64.1585
64.5439
64.9153
65.2711
65.6102
65.9316
66.2345
66.5186
66.7837
67.0298
67.2573
67.4667
67.6587
67.834
67.9935
68.1383
68.2693
68.3877
68.4945
68.5909
68.6778
68.7562
68.8267
68.89
68.9464
68.996
69.0391
69.076
69.1072
69.1333
69.1551
69.173
69.1875
69.199
69.2087
69.2177
69.2273
69.2378
69.2489
69.2593
69.2684
69.2757
69.2815
69.2858
69.289
69.2912
69.2925
69.2928
69.2923
69.291
69.289
69.2864