/*--------------------------------*- C++ -*----------------------------------*\
| =========                 |                                                 |
| \\      /  F ield         | OpenFOAM: The Open Source CFD Toolbox           |
|  \\    /   O peration     | Version:  5.x                                   |
|   \\  /    A nd           | Web:      www.OpenFOAM.org                      |
|    \\/     M anipulation  |                                                 |
\*---------------------------------------------------------------------------*/
FoamFile
{
    version     2.0;
    format      ascii;
    class       surfaceScalarField;
    location    "450";
    object      phi;
}
// * * * * * * * * * * * * * * * * * * * * * * * * * * * * * * * * * * * * * //

dimensions      [0 3 -1 0 0 0 0];

internalField   nonuniform List<scalar> 
21876
(
0.00601361
-0.00653943
0.000521231
0.0136197
-0.00760615
0.0180141
-0.00439441
0.0220489
-0.00403476
0.024646
-0.00259705
0.0262093
-0.00156332
0.027044
-0.000834758
0.0272985
-0.000254463
0.0269633
0.000335162
0.0259129
0.00105045
0.0240331
0.0018798
0.0224767
0.00155645
0.0216725
0.00080414
0.0212878
0.000384718
0.0207806
0.000507244
0.0202799
0.00050062
0.0197576
0.000522369
0.0192275
0.000530105
0.0187062
0.000521238
0.018201
0.000505203
0.017713
0.000487993
0.0173462
0.000366822
0.0169943
0.000351888
0.016656
0.000338301
0.0163277
0.00032829
0.016008
0.000319722
0.0156916
0.000316401
0.0153743
0.000317267
0.0150513
0.000323031
0.0147167
0.000334586
0.0143633
0.000353432
0.0139817
0.000381569
0.0135607
0.000420975
0.0130846
0.00047617
0.0125271
0.000557486
0.0118626
0.000664461
0.0110471
0.000815497
0.00999666
0.00105048
0.00859965
0.001397
0.00663009
0.00196956
0.00133527
0.00529482
0.00772454
-0.0133668
-0.000897309
0.01483
-0.0147116
0.0201077
-0.00967213
0.0246175
-0.00854464
0.0278817
-0.00586121
0.0300982
-0.00377988
0.0314996
-0.00223617
0.0322885
-0.00104339
0.032667
-4.3284e-05
0.032674
0.00104336
0.0319831
0.00257075
0.0310178
0.00252172
0.0301348
0.00168721
0.0293824
0.00113703
0.0285727
0.00131699
0.0278327
0.00124064
0.0271363
0.00121873
0.0264594
0.00120703
0.0257951
0.0011855
0.0251431
0.00115722
0.0244972
0.00113388
0.0240045
0.000859544
0.0235395
0.000816839
0.0230967
0.00078118
0.0226699
0.000755022
0.0222567
0.000732999
0.0218519
0.000721169
0.0214512
0.000717926
0.0210496
0.00072466
0.020641
0.000743159
0.0202182
0.000776224
0.0197721
0.000827734
0.0192914
0.000901605
0.0187613
0.00100635
0.0181566
0.00116212
0.0174526
0.00136854
0.0166115
0.00165655
0.0155408
0.00212119
0.0141751
0.00276272
0.0120446
0.00410005
0.00417638
0.00920347
0.00973452
-0.0206288
-0.0024725
0.0169197
-0.0218967
0.0229976
-0.01575
0.0282174
-0.0137644
0.0323038
-0.00994756
0.0352912
-0.00676734
0.0373366
-0.00428154
0.0385922
-0.00229904
0.0391727
-0.000623702
0.0391949
0.00102111
0.0386128
0.00315283
0.0378376
0.00329692
0.0371699
0.00235499
0.0365835
0.00172336
0.0358752
0.00202537
0.0351574
0.00195838
0.0344509
0.00192529
0.0337467
0.00191116
0.033044
0.00188827
0.0323444
0.0018568
0.0316439
0.00183438
0.0311002
0.00140317
0.0305796
0.00133749
0.0300785
0.00128229
0.0295916
0.00124189
0.0291161
0.00120848
0.028647
0.00119033
0.0281794
0.00118547
0.0277079
0.00119618
0.0272256
0.00122551
0.026724
0.00127777
0.0261929
0.00135882
0.0256198
0.00147469
0.0249876
0.00163859
0.0242689
0.00188079
0.0234385
0.00219899
0.0224595
0.0026355
0.0212406
0.00334012
0.0197466
0.00425674
0.0175973
0.00624937
0.00712095
0.0146527
0.0121355
-0.0284634
-0.00430076
0.0196382
-0.0293993
0.0263469
-0.0224587
0.0322593
-0.0196768
0.0371
-0.0147883
0.0408285
-0.0104958
0.0435245
-0.00697757
0.0453121
-0.00408665
0.046299
-0.00161061
0.0465964
0.0007237
0.0461786
0.00357071
0.0454268
0.00404866
0.0447689
0.00301292
0.04425
0.0022422
0.0436477
0.0026277
0.0429939
0.00261218
0.0423289
0.00259025
0.0416527
0.00258742
0.0409678
0.00257317
0.04028
0.00254459
0.0395873
0.00252705
0.0390441
0.00194636
0.0385175
0.00186413
0.0380036
0.00179616
0.0374978
0.00174773
0.0369978
0.00170844
0.0364995
0.00168864
0.035998
0.00168697
0.0354873
0.00170691
0.0349599
0.00175291
0.0344067
0.00183089
0.0338167
0.00194887
0.0331761
0.0021153
0.0324659
0.0023488
0.0316561
0.00269056
0.0307201
0.00313496
0.029619
0.00373662
0.0282608
0.00469835
0.0266097
0.00590784
0.0244027
0.0084564
0.0100336
0.02149
0.0149183
-0.0370268
-0.0063547
0.0229151
-0.037396
0.0302587
-0.0298023
0.0369193
-0.0263375
0.0425887
-0.0204576
0.0471752
-0.0150823
0.0506752
-0.0104775
0.053159
-0.00657045
0.0547031
-0.00315477
0.0554201
6.69411e-06
0.0553156
0.00367521
0.0546874
0.00467686
0.0540147
0.00368561
0.0534543
0.00280266
0.0528427
0.0032393
0.052168
0.00328684
0.0514817
0.0032766
0.0507891
0.00327997
0.0500899
0.00327244
0.0493904
0.00324407
0.0486912
0.00322626
0.0481454
0.00249211
0.0476197
0.00238989
0.0471088
0.00230706
0.0466067
0.00224982
0.0461093
0.00220579
0.0456109
0.00218705
0.0451052
0.00219269
0.0445854
0.00222671
0.0440437
0.00229465
0.0434705
0.00240409
0.0428538
0.00256553
0.0421789
0.0027902
0.0414254
0.00310238
0.0405614
0.00355449
0.0395605
0.00413592
0.0383827
0.00491437
0.0369411
0.00613994
0.0351915
0.00765746
0.0329863
0.0106616
0.0128875
0.0301324
0.0181051
-0.0465014
-0.00863047
0.0268004
-0.0460912
0.0348677
-0.0378696
0.0423213
-0.033791
0.048854
-0.0269903
0.0543528
-0.0205811
0.0587543
-0.0148791
0.0620677
-0.00988382
0.0643262
-0.00541333
0.0656437
-0.00131083
0.0660474
0.00327152
0.0657293
0.00499497
0.0651477
0.00426725
0.0645699
0.00338046
0.0639369
0.00387233
0.0632194
0.00400431
0.0624746
0.00402139
0.0617236
0.00403101
0.0609673
0.00402864
0.0602133
0.00399807
0.0594656
0.00397405
0.0588846
0.00307307
0.0583308
0.00294372
0.0577988
0.00283906
0.057282
0.00276659
0.0567752
0.00271254
0.0562719
0.00269035
0.0557646
0.00270007
0.0552449
0.0027464
0.0547032
0.00283627
0.0541283
0.00297898
0.0535068
0.0031871
0.0528228
0.00347414
0.0520555
0.00386976
0.0511726
0.00443733
0.0501495
0.00515901
0.0489483
0.00611559
0.0474942
0.00759407
0.04574
0.00941161
0.043657
0.0127447
0.0155773
0.0409672
0.0217364
-0.0571227
-0.0111149
0.0313785
-0.0557332
0.0403264
-0.0468175
0.0486521
-0.0421166
0.0560921
-0.0344303
0.0625434
-0.0270324
0.0679186
-0.0202542
0.0721784
-0.0141436
0.0753037
-0.00853868
0.077395
-0.00340216
0.0784884
0.00217817
0.0786841
0.00479927
0.0783685
0.0045828
0.077882
0.00386702
0.077286
0.00446829
0.0765623
0.004728
0.0757694
0.0048143
0.0749512
0.00484919
0.0741198
0.00486009
0.073286
0.00483181
0.0724593
0.00480075
0.0718147
0.00371776
0.0712027
0.00355569
0.0706186
0.00342311
0.0700562
0.00332902
0.0695099
0.0032588
0.0689734
0.00322692
0.0684387
0.00323479
0.0678969
0.00328816
0.0673378
0.0033954
0.0667492
0.00356754
0.0661171
0.00381923
0.0654249
0.00416633
0.0646509
0.0046437
0.0637636
0.00532469
0.0627422
0.00618038
0.0615541
0.00730363
0.060145
0.00900326
0.058472
0.0110845
0.0566262
0.0145905
0.0179473
0.0542562
0.0258699
-0.0691906
-0.0138019
0.0367544
-0.0666178
0.0468048
-0.0568678
0.0561379
-0.0514498
0.0645598
-0.0428522
0.0720058
-0.0344783
0.0784013
-0.0266497
0.0836886
-0.0194309
0.0878068
-0.0126569
0.0908342
-0.00642952
0.0928016
0.000210806
0.0937323
0.00386854
0.0939057
0.00440944
0.0936811
0.00409158
0.0932326
0.00491682
0.0925854
0.00537524
0.0918019
0.00559772
0.0909489
0.00570226
0.0900575
0.00575146
0.0891468
0.00574251
0.0882338
0.00571376
0.0875116
0.00443995
0.0868239
0.00424333
0.0861677
0.0040793
0.0855376
0.00395915
0.0849281
0.00386833
0.0843327
0.0038223
0.0837436
0.00382393
0.0831516
0.00388014
0.0825464
0.00400057
0.0819161
0.00419786
0.0812467
0.0044886
0.0805225
0.00489062
0.0797227
0.00544349
0.0788178
0.0062296
0.0777937
0.00720448
0.0766249
0.00847238
0.0752815
0.0103466
0.073733
0.0126331
0.0721693
0.0161541
0.0198771
0.0702395
0.030577
-0.0830807
-0.0166868
0.0430569
-0.0790976
0.0544978
-0.0683086
0.0650427
-0.0619947
0.0745735
-0.052383
0.0830822
-0.042987
0.0905383
-0.0341058
0.0969012
-0.0257939
0.102095
-0.0178505
0.106181
-0.0105155
0.109186
-0.00279471
0.111064
0.00199114
0.111976
0.00349715
0.112245
0.00382228
0.112119
0.00504366
0.111683
0.00581029
0.111018
0.00626319
0.110208
0.00651188
0.109311
0.00664854
0.10836
0.00669337
0.107384
0.00669055
0.10659
0.0052331
0.105827
0.00500663
0.105094
0.0048124
0.104388
0.00466523
0.103704
0.00455194
0.103037
0.00448936
0.102379
0.00448211
0.101721
0.00453856
0.101052
0.00466973
0.10036
0.00488974
0.0996316
0.00521664
0.0988528
0.00566943
0.0980048
0.00629155
0.0970612
0.00717321
0.0960171
0.00824856
0.0948567
0.00963272
0.0935728
0.0116306
0.0921543
0.0140515
0.0908385
0.0174699
0.0213435
0.0893722
0.0359469
-0.0992548
-0.0197727
0.050444
-0.0935947
0.063634
-0.0814986
0.0756699
-0.0740305
0.0865064
-0.0632194
0.0961989
-0.0526795
0.104779
-0.0426862
0.112254
-0.033269
0.118567
-0.024163
0.123782
-0.0157304
0.127935
-0.00694821
0.130926
-0.000999552
0.132812
0.00161079
0.133841
0.00279343
0.134272
0.0046126
0.134246
0.00583682
0.133865
0.00664377
0.133234
0.00714273
0.132437
0.00744638
0.131527
0.007603
0.130549
0.00766886
0.129719
0.00606317
0.128903
0.00582169
0.12811
0.0056062
0.127338
0.00543678
0.126587
0.00530331
0.125851
0.00522494
0.125125
0.00520849
0.124399
0.00526425
0.123664
0.00540483
0.122908
0.00564571
0.122119
0.00600607
0.121283
0.00650542
0.120384
0.00719037
0.119399
0.00815765
0.118334
0.00931383
0.117183
0.0107834
0.115956
0.0128577
0.11467
0.0153382
0.113549
0.0185904
0.0224051
0.112487
0.0420916
-0.118273
-0.0230731
0.0591117
-0.110615
0.0744883
-0.0968752
0.0883761
-0.0879183
0.100796
-0.0756398
0.111867
-0.0637503
0.12169
-0.0525087
0.130336
-0.0419157
0.137799
-0.0316257
0.144171
-0.0221027
0.149514
-0.012291
0.153715
-0.00520041
0.156749
-0.00142337
0.158782
0.000760967
0.160034
0.00336047
0.160661
0.00520976
0.160789
0.00651609
0.160534
0.00739708
0.160003
0.00797799
0.159273
0.00833276
0.158408
0.00853408
0.157612
0.0068587
0.156802
0.00663178
0.155993
0.00641548
0.155192
0.00623743
0.154403
0.00609269
0.153624
0.00600418
0.15285
0.00598175
0.152076
0.00603813
0.151293
0.00618789
0.150491
0.00644788
0.149659
0.00683805
0.148787
0.00737773
0.147861
0.00811607
0.146864
0.0091552
0.145808
0.0103693
0.144701
0.0118907
0.143559
0.0139996
0.142427
0.01647
0.141489
0.019528
0.0231378
0.140757
0.0491528
-0.140812
-0.0266137
0.0693031
-0.130765
0.0873967
-0.114969
0.103588
-0.104109
0.117959
-0.0900115
0.130689
-0.0764804
0.141949
-0.0637682
0.151884
-0.0518506
0.160554
-0.0402962
0.168104
-0.0296522
0.174638
-0.0188254
0.180071
-0.0106337
0.184341
-0.00569257
0.187546
-0.00244482
0.189849
0.00105828
0.191381
0.00367697
0.192271
0.00562602
0.192639
0.00702914
0.1926
0.00801731
0.192251
0.00868169
0.191675
0.00911009
0.191033
0.00750121
0.190327
0.0073375
0.189586
0.0071565
0.188827
0.00699593
0.188062
0.0068585
0.187293
0.00677276
0.186522
0.00675278
0.185746
0.00681455
0.184958
0.00697504
0.184154
0.00725259
0.183324
0.00766762
0.182463
0.00823857
0.181563
0.00901661
0.18061
0.0101084
0.179626
0.0113525
0.178629
0.0128879
0.177638
0.0149911
0.176715
0.017393
0.176
0.0202423
0.0235781
0.17556
0.0573095
-0.167688
-0.0304337
0.0813209
-0.154776
0.102773
-0.136421
0.121822
-0.123158
0.13861
-0.1068
0.153376
-0.0912461
0.166359
-0.0767507
0.177779
-0.063271
0.187776
-0.0502932
0.196555
-0.0384317
0.204284
-0.0265541
0.210932
-0.0172814
0.216446
-0.0112071
0.2209
-0.00689887
0.2244
-0.00244165
0.227041
0.0010362
0.228931
0.00373614
0.230178
0.00578252
0.230891
0.00730398
0.231174
0.00839851
0.231122
0.00916231
0.230801
0.00782196
0.230347
0.00779111
0.229804
0.00769963
0.229202
0.00759787
0.228562
0.00749876
0.227896
0.00743841
0.227213
0.00743662
0.226514
0.00751356
0.225799
0.00768928
0.225068
0.00798382
0.224318
0.00841794
0.223548
0.00900872
0.222755
0.00980903
0.221934
0.0109298
0.221115
0.0121718
0.220321
0.0136816
0.219572
0.0157397
0.218938
0.0180272
0.218524
0.0206563
0.0237026
0.218399
0.0667871
-0.199887
-0.0345881
0.0955423
-0.183532
0.12113
-0.162009
0.143711
-0.145739
0.163493
-0.126582
0.180775
-0.108527
0.195866
-0.0918417
0.209064
-0.076469
0.220591
-0.0618201
0.230721
-0.0485623
0.239692
-0.0355243
0.247547
-0.0251366
0.254281
-0.0179416
0.259981
-0.0125981
0.264731
-0.00719198
0.268595
-0.00282738
0.271654
0.000676841
0.273996
0.00344047
0.275711
0.00558841
0.276894
0.00721618
0.277636
0.00842
0.277848
0.00761051
0.277839
0.00779918
0.277671
0.00786808
0.277387
0.00788184
0.27702
0.00786548
0.276594
0.0078643
0.276126
0.0079052
0.275626
0.00801363
0.275102
0.00821341
0.274559
0.00852669
0.274002
0.00897473
0.273438
0.00957316
0.27287
0.0103767
0.272299
0.0115008
0.271762
0.0127085
0.271288
0.0141555
0.270895
0.016133
0.270649
0.018273
0.270633
0.0206729
0.0234385
0.270897
0.077869
-0.238606
-0.03915
0.112437
-0.2181
0.143102
-0.192674
0.170037
-0.172673
0.193518
-0.150064
0.213913
-0.128922
0.231607
-0.109536
0.246979
-0.0918406
0.260337
-0.0751789
0.272031
-0.0602559
0.282369
-0.0458622
0.291481
-0.034249
0.299432
-0.0258926
0.30635
-0.0195154
0.312336
-0.0131781
0.317449
-0.00794091
0.321757
-0.00363114
0.325328
-0.000130444
0.328234
0.00268279
0.330548
0.0049023
0.332348
0.00661923
0.333318
0.00664105
0.333976
0.00714102
0.334394
0.00744968
0.33463
0.00764578
0.334729
0.00776691
0.334725
0.00786827
0.334646
0.0079847
0.334511
0.00814775
0.334339
0.00838567
0.334143
0.00872325
0.333935
0.00918263
0.333729
0.00977842
0.333538
0.0105678
0.333368
0.0116714
0.33326
0.0128163
0.333245
0.0141701
0.333339
0.0160391
0.333602
0.0180103
0.334097
0.0201776
0.0226784
0.334857
0.0909062
-0.285301
-0.0442114
0.132588
-0.259782
0.169476
-0.229562
0.201763
-0.204961
0.229805
-0.178106
0.254048
-0.153164
0.274964
-0.130452
0.29302
-0.109896
0.30862
-0.0907793
0.322191
-0.0738272
0.33412
-0.0577914
0.344627
-0.0447559
0.353858
-0.035123
0.362
-0.0276573
0.3692
-0.0203781
0.375543
-0.014284
0.381106
-0.00919422
0.385954
-0.00497874
0.390149
-0.00151214
0.39375
0.00130186
0.396816
0.0035523
0.398746
0.00471145
0.400284
0.00560291
0.401509
0.00622493
0.402486
0.00666874
0.403269
0.00698362
0.403903
0.00723408
0.404425
0.00746288
0.404865
0.00770789
0.405249
0.00800213
0.405598
0.00837347
0.405936
0.00884548
0.406282
0.00943245
0.406654
0.0101948
0.407066
0.0112595
0.407561
0.0123212
0.408171
0.0135608
0.408907
0.015303
0.409822
0.0170951
0.410966
0.0190335
0.0212863
0.412358
0.106324
-0.341744
-0.0498813
0.156704
-0.310161
0.201213
-0.274071
0.240074
-0.243821
0.273731
-0.211763
0.302723
-0.182157
0.327626
-0.155355
0.349008
-0.131278
0.36738
-0.109151
0.383257
-0.0897042
0.397111
-0.0716456
0.409255
-0.0569002
0.419924
-0.0457912
0.429374
-0.0371077
0.437815
-0.0288189
0.445381
-0.0218498
0.452182
-0.0159954
0.458304
-0.0111009
0.463815
-0.00702322
0.468773
-0.00365626
0.473231
-0.00090514
0.476265
0.00167722
0.478853
0.00301497
0.481074
0.00400412
0.482996
0.00474605
0.48468
0.00530005
0.486175
0.00573874
0.487526
0.00611207
0.48877
0.00646384
0.48994
0.00683179
0.491067
0.00724711
0.492177
0.0077353
0.493298
0.00831119
0.494454
0.00903915
0.49566
0.0100531
0.496961
0.01102
0.498387
0.0121351
0.499948
0.0137422
0.501689
0.0153544
0.503648
0.0170738
0.0190967
0.505838
0.113068
-0.403655
-0.0511563
0.168334
-0.365428
0.217101
-0.322837
0.259605
-0.286326
0.296346
-0.248504
0.327916
-0.213727
0.354943
-0.182382
0.378053
-0.154388
0.39782
-0.128919
0.414806
-0.10669
0.429524
-0.0863644
0.44235
-0.0697255
0.453577
-0.0570188
0.46351
-0.0470403
0.472401
-0.0377101
0.480429
-0.029878
0.48774
-0.0233058
0.494445
-0.0178057
0.50063
-0.013209
0.506364
-0.0093898
0.511699
-0.00624003
0.515506
-0.0021301
0.51888
-0.000359074
0.521893
0.000990983
0.524609
0.00202993
0.527084
0.0028253
0.529367
0.0034562
0.5315
0.00397842
0.533523
0.00444073
0.53547
0.00488498
0.537372
0.00534544
0.539258
0.00584972
0.541155
0.00641375
0.543088
0.00710579
0.545075
0.00806626
0.547153
0.0089418
0.549349
0.0099397
0.55167
0.0114205
0.554153
0.0128718
0.556825
0.0144014
0.0162278
0.559694
0.11834
-0.470248
-0.0517478
0.177789
-0.424877
0.230203
-0.375251
0.275832
-0.331955
0.315223
-0.287894
0.349008
-0.247512
0.377866
-0.21124
0.402467
-0.178989
0.423437
-0.149889
0.441375
-0.124627
0.456829
-0.101819
0.47022
-0.0831168
0.481892
-0.0686899
0.492179
-0.0573278
0.501372
-0.046903
0.509686
-0.0381917
0.517298
-0.0309177
0.524348
-0.0248557
0.530945
-0.0198064
0.537174
-0.0156189
0.5431
-0.0121661
0.547461
-0.00649124
0.55142
-0.00431753
0.555043
-0.00263178
0.558389
-0.00131625
0.56151
-0.000295998
0.564452
0.000513786
0.567257
0.0011741
0.569959
0.00173811
0.572593
0.00225131
0.575188
0.00275089
0.577771
0.00326662
0.580369
0.00381594
0.583004
0.00447055
0.585694
0.00537636
0.588469
0.00616614
0.591352
0.00705664
0.594351
0.00842152
0.597493
0.00973017
0.600799
0.0110954
0.0127518
0.604275
0.124425
-0.541965
-0.0527081
0.18845
-0.488902
0.244865
-0.431666
0.293941
-0.381031
0.336267
-0.33022
0.372527
-0.283772
0.403447
-0.24216
0.429749
-0.205292
0.452112
-0.172252
0.471174
-0.143689
0.487522
-0.118167
0.50162
-0.0972152
0.513854
-0.0809238
0.524591
-0.0680648
0.534153
-0.056465
0.542788
-0.0468269
0.550704
-0.038833
0.558066
-0.0322181
0.565009
-0.0267493
0.571638
-0.0222475
0.578034
-0.0185622
0.58284
-0.0112978
0.587273
-0.00875023
0.591397
-0.00675549
0.595268
-0.00518774
0.598937
-0.00396459
0.602446
-0.00299553
0.605835
-0.00221443
0.609137
-0.00156388
0.612383
-0.000994779
0.615601
-0.00046705
0.618816
5.13946e-05
0.622052
0.000579726
0.62533
0.00119271
0.628666
0.00204067
0.632084
0.00274761
0.635604
0.00353723
0.639232
0.00479281
0.642991
0.00597168
0.646896
0.00719036
0.00869503
0.650953
0.131308
-0.619273
-0.0539991
0.200327
-0.557921
0.261119
-0.492458
0.313974
-0.433887
0.359532
-0.375778
0.398526
-0.322767
0.43174
-0.275373
0.459948
-0.2335
0.483884
-0.196188
0.504233
-0.164037
0.521622
-0.135557
0.536559
-0.112152
0.549469
-0.0938342
0.560752
-0.0793476
0.570761
-0.0664735
0.579774
-0.0558399
0.588026
-0.0470849
0.595709
-0.0399015
0.602981
-0.034021
0.609967
-0.0292335
0.616768
-0.0253633
0.621954
-0.0164834
0.626787
-0.0135838
0.631335
-0.0113028
0.635652
-0.00950559
0.639789
-0.00810155
0.643788
-0.00699397
0.647685
-0.00611138
0.651513
-0.00539188
0.655301
-0.00478262
0.659074
-0.00424046
0.662856
-0.0037308
0.666668
-0.00323245
0.670529
-0.00266797
0.674453
-0.00188363
0.678461
-0.00126004
0.682567
-0.000568813
0.68678
0.0005799
0.691115
0.00163633
0.695586
0.00271962
0.00408378
0.700197
0.139
-0.702677
-0.0555967
0.213464
-0.632385
0.279032
-0.558026
0.336021
-0.490875
0.38512
-0.424877
0.427122
-0.364768
0.462866
-0.311117
0.493188
-0.263822
0.518881
-0.221881
0.540677
-0.185833
0.55925
-0.15413
0.575152
-0.128054
0.588849
-0.107532
0.600773
-0.0912716
0.611308
-0.0770088
0.620763
-0.0652948
0.629399
-0.0557204
0.637432
-0.0479346
0.645042
-0.0416309
0.652375
-0.0365671
0.659552
-0.0325398
0.66508
-0.0220113
0.670269
-0.0187726
0.675187
-0.0162214
0.679894
-0.0142126
0.684439
-0.0126465
0.688864
-0.0114194
0.693207
-0.0104538
0.697498
-0.00968284
0.701765
-0.00904967
0.706032
-0.00850769
0.710321
-0.00801954
0.71465
-0.00756175
0.719037
-0.0070545
0.723494
-0.00634149
0.728039
-0.00580466
0.732683
-0.00521275
0.737435
-0.00417206
0.742307
-0.00323532
0.747308
-0.00228175
-0.00105245
0.752444
0.147529
-0.792719
-0.0574866
0.227923
-0.712779
0.2987
-0.628803
0.360202
-0.552377
0.413175
-0.47785
0.458472
-0.410064
0.496997
-0.349643
0.529651
-0.296476
0.557288
-0.249518
0.580695
-0.20924
0.600596
-0.174031
0.617588
-0.145046
0.632182
-0.122125
0.644841
-0.103931
0.655983
-0.0881512
0.665947
-0.0752583
0.675019
-0.0647923
0.68344
-0.0563558
0.691412
-0.0496024
0.6991
-0.0442557
0.706644
-0.0400833
0.712497
-0.0278643
0.718015
-0.0242904
0.723271
-0.0214777
0.728327
-0.0192692
0.733236
-0.0175551
0.73804
-0.0162237
0.742778
-0.0151909
0.747479
-0.0143843
0.752172
-0.0137422
0.756879
-0.0132145
0.76162
-0.0127607
0.766413
-0.0123547
0.771272
-0.0119144
0.776213
-0.0112816
0.781245
-0.0108371
0.78638
-0.010348
0.791627
-0.0094191
0.796995
-0.0086027
0.80249
-0.00777723
-0.00668126
0.808119
0.156935
-0.889992
-0.059662
0.243787
-0.799632
0.320241
-0.705257
0.386668
-0.618804
0.443872
-0.535055
0.492774
-0.458966
0.534349
-0.391217
0.569564
-0.331691
0.599344
-0.279297
0.624534
-0.23443
0.64591
-0.195408
0.664121
-0.163257
0.679721
-0.137725
0.69321
-0.11742
0.70504
-0.0999812
0.71558
-0.085798
0.725143
-0.0743556
0.733995
-0.0652076
0.742358
-0.0579655
0.750419
-0.0523165
0.758333
-0.0479975
0.764506
-0.0340372
0.770339
-0.0301236
0.775912
-0.0270508
0.781291
-0.0246482
0.786531
-0.0227949
0.791677
-0.0213702
0.796769
-0.0202824
0.801837
-0.0194528
0.80691
-0.0188149
0.812009
-0.018314
0.817155
-0.0179064
0.822363
-0.0175628
0.827648
-0.0171993
0.833023
-0.0166563
0.838496
-0.0163108
0.844078
-0.0159297
0.849777
-0.0151183
0.8556
-0.0144254
0.861552
-0.0137293
-0.012768
0.867639
0.167269
-0.99514
-0.0621213
0.261156
-0.893519
0.343797
-0.787897
0.415594
-0.690601
0.477419
-0.59688
0.530262
-0.511809
0.575175
-0.436129
0.6132
-0.369717
0.645334
-0.311432
0.672487
-0.261583
0.695495
-0.218415
0.715059
-0.182821
0.731778
-0.154444
0.746193
-0.131835
0.758792
-0.112581
0.769976
-0.096982
0.780087
-0.084466
0.789413
-0.0745341
0.7982
-0.0667525
0.806654
-0.0607703
0.814948
-0.0562914
0.821442
-0.0405315
0.827585
-0.0362661
0.833461
-0.0329272
0.839143
-0.0303301
0.844689
-0.028341
0.850148
-0.0268293
0.855561
-0.0256948
0.86096
-0.0248519
0.866373
-0.0242284
0.871824
-0.0237649
0.877331
-0.0234137
0.882911
-0.0231425
0.888577
-0.0228651
0.894341
-0.0224208
0.900212
-0.0221816
0.906197
-0.0219147
0.912306
-0.0212273
0.918543
-0.0206626
0.924913
-0.0200993
-0.0192761
0.931422
0.178594
-1.10887
-0.0648676
0.280145
-0.99507
0.36953
-0.877282
0.447186
-0.768257
0.514054
-0.663748
0.571204
-0.568958
0.619767
-0.484693
0.660871
-0.41082
0.695588
-0.346149
0.7249
-0.290895
0.749705
-0.24322
0.770761
-0.203876
0.788718
-0.172402
0.804159
-0.147276
0.817611
-0.126033
0.829509
-0.108879
0.840223
-0.0951799
0.850068
-0.0843794
0.859312
-0.0759965
0.868181
-0.069639
0.876865
-0.0649762
0.883686
-0.0473521
0.890135
-0.0427149
0.896305
-0.0390978
0.902275
-0.0362997
0.908107
-0.0341729
0.913853
-0.0325759
0.919558
-0.031399
0.925255
-0.0305489
0.930973
-0.0299471
0.936738
-0.0295291
0.942567
-0.0292428
0.948477
-0.0290524
0.954481
-0.0288694
0.960593
-0.0285324
0.966818
-0.0284065
0.973163
-0.0282602
0.97964
-0.0277038
0.98625
-0.0272729
0.992997
-0.0268469
-0.0261664
0.999888
0.190983
-1.23194
-0.0679074
0.300888
-1.10498
0.397626
-0.97402
0.481674
-0.852306
0.554049
-0.736123
0.615903
-0.630813
0.668461
-0.53725
0.712934
-0.455293
0.750483
-0.383698
0.782163
-0.322575
0.808943
-0.27
0.831642
-0.226575
0.850963
-0.191723
0.867535
-0.163848
0.881926
-0.140424
0.894608
-0.121561
0.905982
-0.106554
0.91639
-0.0947873
0.926123
-0.0857294
0.935427
-0.0789435
0.944513
-0.0740619
0.951665
-0.0545044
0.958419
-0.0494683
0.964875
-0.0455541
0.971118
-0.0425427
0.977216
-0.0402714
0.983227
-0.0385861
0.989195
-0.0373671
0.995158
-0.0365125
1.00115
-0.0359369
1.00719
-0.0355699
1.0133
-0.0353549
1.0195
-0.0352519
1.0258
-0.0351702
1.03222
-0.0349479
1.03875
-0.0349419
1.04541
-0.0349224
1.05221
-0.0345039
1.05915
-0.0342126
1.06624
-0.033929
-0.0333964
1.07347
0.204521
-1.36521
-0.0712502
0.323536
-1.22399
0.428295
-1.07878
0.51932
-0.94333
0.597708
-0.814511
0.664704
-0.69781
0.72163
-0.594176
0.769792
-0.503456
0.810444
-0.42435
0.844721
-0.356853
0.87367
-0.298948
0.898173
-0.251078
0.918992
-0.212542
0.936805
-0.181661
0.952227
-0.155846
0.965766
-0.1351
0.977857
-0.118645
0.988871
-0.105801
0.999123
-0.0959816
1.00888
-0.0887024
1.01838
-0.0835558
1.02586
-0.0619924
1.03292
-0.0565232
1.03965
-0.0522866
1.04615
-0.049044
1.0525
-0.0466159
1.05875
-0.044835
1.06495
-0.04357
1.07115
-0.0427101
1.07737
-0.0421618
1.08365
-0.0418488
1.09
-0.041709
1.09645
-0.0416983
1.103
-0.0417234
1.10968
-0.0416219
1.11648
-0.0417414
1.12341
-0.0418543
1.13049
-0.04158
1.13771
-0.041434
1.14508
-0.0412979
-0.0409187
1.1526
0.219303
-1.50961
-0.0749082
0.348258
-1.35294
0.461773
-1.19229
0.560415
-1.04197
0.645374
-0.899469
0.717993
-0.770428
0.779697
-0.65588
0.831899
-0.555657
0.875949
-0.4684
0.913075
-0.393978
0.944401
-0.330275
0.970884
-0.277561
0.993347
-0.235005
1.01252
-0.200834
1.02907
-0.172393
1.04354
-0.149571
1.0564
-0.131511
1.06807
-0.117463
1.07887
-0.106781
1.08909
-0.0989308
1.099
-0.0934608
1.10682
-0.0698179
1.11418
-0.0638738
1.12117
-0.0592827
1.12791
-0.0557849
1.13448
-0.0531826
1.14094
-0.0512938
1.14734
-0.0499751
1.15374
-0.0491051
1.16016
-0.0485823
1.16663
-0.0483233
1.17318
-0.0482604
1.17983
-0.0483446
1.18659
-0.0484801
1.19347
-0.0485041
1.20048
-0.0487535
1.20763
-0.0490032
1.21493
-0.0488788
1.22238
-0.0488833
1.22998
-0.0488995
-0.0486789
1.23774
0.235437
-1.66615
-0.0788962
0.375245
-1.49275
0.498323
-1.31537
0.605289
-1.14894
0.697431
-0.991611
0.7762
-0.849198
0.843136
-0.722815
0.899761
-0.612283
0.947537
-0.516176
0.987785
-0.434226
1.02172
-0.364209
1.05037
-0.306214
1.07463
-0.259268
1.0953
-0.221494
1.11307
-0.190168
1.12855
-0.165054
1.14225
-0.145211
1.1546
-0.129814
1.16598
-0.118154
1.17669
-0.109639
1.187
-0.103774
1.19516
-0.0779784
1.20279
-0.0715096
1.21004
-0.066525
1.21699
-0.0627417
1.22375
-0.0599422
1.23039
-0.0579285
1.23696
-0.0565436
1.24351
-0.0556552
1.25008
-0.0551524
1.2567
-0.0549444
1.2634
-0.0549573
1.27019
-0.0551369
1.27709
-0.0553843
1.28412
-0.0555365
1.29129
-0.0559188
1.29859
-0.0563089
1.30605
-0.0563389
1.31367
-0.056498
1.32144
-0.0566707
-0.0566133
1.32938
0.253042
-1.83596
-0.0832308
0.404709
-1.64442
0.53824
-1.4489
0.654309
-1.26501
0.754309
-1.09161
0.839811
-0.934699
0.912476
-0.79548
0.97395
-0.673758
1.02581
-0.568035
1.06948
-0.477898
1.10628
-0.401003
1.13731
-0.337247
1.16354
-0.285501
1.18583
-0.243779
1.20494
-0.209278
1.22151
-0.181632
1.23611
-0.159806
1.24919
-0.142895
1.26116
-0.130121
1.27235
-0.120834
1.28306
-0.114486
1.29155
-0.0864666
1.29945
-0.0794145
1.30692
-0.0739896
1.31406
-0.0698838
1.32098
-0.0668581
1.32775
-0.064697
1.33443
-0.0632289
1.34109
-0.0623092
1.34775
-0.0618173
1.35446
-0.061654
1.36124
-0.0617387
1.36812
-0.0620114
1.3751
-0.06237
1.38222
-0.0626513
1.38946
-0.0631676
1.39686
-0.0636998
1.4044
-0.0638873
1.41211
-0.0642043
1.41998
-0.0645366
-0.0646461
1.42801
0.272254
-2.02028
-0.0879311
0.43689
-1.80905
0.581854
-1.59387
0.707885
-1.39104
0.816489
-1.20021
0.909366
-1.02758
0.988311
-0.874425
1.0551
-0.740549
1.11144
-0.624374
1.15887
-0.525327
1.1988
-0.440934
1.23244
-0.370887
1.26083
-0.313891
1.28489
-0.267837
1.30545
-0.229839
1.32321
-0.199391
1.33876
-0.175356
1.35261
-0.156745
1.36519
-0.142701
1.37687
-0.132512
1.38796
-0.125577
1.39676
-0.0952685
1.40491
-0.087565
1.41257
-0.0816445
1.41985
-0.0771717
1.42688
-0.073884
1.43373
-0.0715472
1.44048
-0.0699735
1.44717
-0.0690053
1.45386
-0.068511
1.46059
-0.0683824
1.46739
-0.0685314
1.47427
-0.068892
1.48125
-0.0693584
1.48837
-0.0697672
1.49562
-0.0704166
1.50301
-0.0710908
1.51056
-0.0714373
1.51827
-0.0719136
1.52614
-0.0724075
-0.0726865
1.53418
0.293223
-2.22049
-0.0930179
0.472054
-1.98789
0.629536
-1.75135
0.766477
-1.52798
0.884509
-1.31825
0.985472
-1.12854
1.07131
-0.960259
1.14393
-0.813175
1.20519
-0.685631
1.25674
-0.576879
1.30012
-0.484309
1.33662
-0.407387
1.36737
-0.344641
1.39336
-0.29383
1.4155
-0.251977
1.43453
-0.218424
1.4511
-0.191926
1.46575
-0.171399
1.47896
-0.155906
1.49111
-0.144666
1.50255
-0.137017
1.51165
-0.104362
1.52001
-0.0959285
1.52781
-0.0894477
1.5352
-0.0845548
1.54228
-0.0809621
1.54914
-0.0784147
1.55588
-0.0767072
1.56254
-0.0756678
1.56918
-0.0751529
1.57584
-0.0750448
1.58256
-0.0752471
1.58935
-0.0756869
1.59625
-0.0762548
1.60327
-0.0767866
1.61042
-0.0775656
1.61771
-0.0783794
1.62515
-0.0788843
1.63276
-0.0795197
1.64053
-0.0801752
-0.0806247
1.64847
0.316118
-2.43809
-0.0985144
0.510499
-2.18227
0.681698
-1.92255
0.830599
-1.67688
0.958973
-1.44662
1.06881
-1.23837
1.1622
-1.05366
1.24124
-0.89221
1.3079
-0.752291
1.36398
-0.632963
1.41114
-0.531465
1.45078
-0.447025
1.48411
-0.377976
1.51222
-0.321935
1.53606
-0.275826
1.55647
-0.238828
1.57412
-0.209579
1.58961
-0.186892
1.60345
-0.169743
1.61606
-0.157276
1.62781
-0.148766
1.63716
-0.113717
1.6457
-0.104461
1.65359
-0.0973447
1.66101
-0.0919694
1.66807
-0.0880202
1.67487
-0.0852196
1.68151
-0.0833435
1.68805
-0.0822043
1.69454
-0.0816455
1.70103
-0.0815387
1.70756
-0.0817788
1.71416
-0.0822852
1.72085
-0.0829444
1.72766
-0.0835917
1.73458
-0.0844939
1.74165
-0.0854421
1.74887
-0.0861023
1.75624
-0.0868942
1.76377
-0.0877093
-0.0883283
1.77148
0.341125
-2.67477
-0.104445
0.552559
-2.3937
0.738803
-2.10879
0.900829
-1.83891
1.04055
-1.58635
1.16014
-1.35795
1.26184
-1.15536
1.34792
-0.97829
1.42053
-0.824892
1.48159
-0.694028
1.5329
-0.582776
1.57598
-0.490105
1.61215
-0.414141
1.64256
-0.352344
1.66826
-0.301532
1.69014
-0.260707
1.70894
-0.22838
1.7253
-0.203254
1.73977
-0.184211
1.75281
-0.170313
1.76481
-0.160765
1.77438
-0.123289
1.78303
-0.113107
1.79095
-0.105267
1.79831
-0.0993359
1.80526
-0.094969
1.81191
-0.0918642
1.81834
-0.0897769
1.82464
-0.0885024
1.83086
-0.0878701
1.83707
-0.0877399
1.84328
-0.0879971
1.84955
-0.0885529
1.8559
-0.0892893
1.86235
-0.0900405
1.86891
-0.0910558
1.8756
-0.0921301
1.88243
-0.0929396
1.88942
-0.0938825
1.89656
-0.0948525
-0.0956378
1.90387
0.368456
-2.93239
-0.110838
0.598606
-2.62385
0.80137
-2.31156
0.977811
-2.01535
1.13001
-1.73855
1.26031
-1.48825
1.37116
-1.26621
1.465
-1.07212
1.54414
-0.904032
1.61068
-0.760576
1.66657
-0.638657
1.71343
-0.536968
1.7527
-0.453408
1.78562
-0.385268
1.81334
-0.329251
1.8368
-0.284169
1.85682
-0.248395
1.87407
-0.220512
1.88916
-0.1993
1.90258
-0.183732
1.91476
-0.172938
1.92449
-0.133022
1.93318
-0.121793
1.94104
-0.113128
1.94826
-0.106556
1.95499
-0.101699
1.96135
-0.098229
1.96745
-0.0958791
1.97338
-0.0944258
1.97919
-0.0936832
1.98495
-0.0934984
1.9907
-0.0937461
1.99647
-0.0943287