/*--------------------------------*- C++ -*----------------------------------*\
| =========                 |                                                 |
| \\      /  F ield         | OpenFOAM: The Open Source CFD Toolbox           |
|  \\    /   O peration     | Version:  5.x                                   |
|   \\  /    A nd           | Web:      www.OpenFOAM.org                      |
|    \\/     M anipulation  |                                                 |
\*---------------------------------------------------------------------------*/
FoamFile
{
    version     2.0;
    format      ascii;
    class       surfaceScalarField;
    location    "450";
    object      phi;
}
// * * * * * * * * * * * * * * * * * * * * * * * * * * * * * * * * * * * * * //

dimensions      [0 3 -1 0 0 0 0];

internalField   nonuniform List<scalar> 
21876
(
0.0277928
-0.00471361
-0.0230761
0.0372677
-0.00947489
0.0381473
-0.000879538
0.0394451
-0.00129787
0.0387839
0.000661257
0.036988
0.00179583
0.0347166
0.00227146
0.0322785
0.00243812
0.0297979
0.00248058
0.0270604
0.00273744
0.023783
0.00327746
0.0213056
0.00247736
0.0199673
0.00133832
0.0191985
0.000768816
0.0182773
0.000921134
0.0173337
0.000943677
0.0163508
0.000982862
0.0153476
0.00100322
0.0143349
0.00101262
0.0133093
0.00102569
0.0122615
0.00104777
0.0114216
0.000839971
0.0105703
0.000851273
0.00970468
0.000865643
0.00881612
0.000888456
0.00789824
0.000917822
0.00694132
0.000956446
0.00593599
0.00100489
0.0048798
0.00105571
0.00379498
0.00108401
0.00270549
0.00108972
0.00163751
0.00106776
0.000637012
0.00100101
-0.000238654
0.000876109
-0.000979273
0.000740902
-0.0016613
0.000682486
-0.00257358
0.000912154
-0.00379079
0.00121737
-0.00501226
0.00122223
-0.00382114
-0.00119123
-0.00932756
0.00550657
0.0335929
-0.0114323
-0.0268742
0.0415357
-0.0174177
0.0443211
-0.00366497
0.0464535
-0.00343024
0.047498
-0.00038324
0.0476601
0.00163373
0.0470348
0.00289671
0.0456939
0.00377907
0.0437837
0.00439075
0.0412979
0.0052233
0.0380146
0.00656077
0.0347626
0.00572928
0.0320795
0.00402148
0.0299175
0.00293083
0.0279474
0.00289119
0.026213
0.00267813
0.0246165
0.00257928
0.0230926
0.00252712
0.0216083
0.00249691
0.020141
0.00249308
0.0186641
0.00252464
0.0174886
0.00201554
0.0163302
0.00200963
0.0151708
0.002025
0.0139941
0.0020651
0.0127867
0.00212512
0.0115344
0.0022081
0.0102281
0.00231015
0.00886141
0.0024209
0.00742363
0.00252045
0.00592093
0.0025926
0.00438415
0.00260528
0.00286639
0.00252013
0.00144101
0.00230271
0.000178283
0.00200458
-0.00101242
0.00187395
-0.00229827
0.00219808
-0.00339322
0.00231218
-0.00382654
0.00165549
-0.00290245
-0.00211434
-0.0153159
0.00308629
0.0394662
-0.0190796
-0.0318189
0.0466856
-0.0246371
0.0514039
-0.00838328
0.0542978
-0.00632413
0.0558691
-0.00195448
0.0563042
0.00119857
0.0559267
0.00327419
0.0549434
0.00476241
0.0534536
0.00588057
0.0514303
0.00724656
0.0486753
0.00931581
0.0457184
0.00868614
0.0430165
0.00672337
0.0405519
0.00539551
0.0381051
0.00533793
0.0358062
0.00497705
0.0336509
0.00473454
0.0316019
0.00457614
0.0296289
0.00446995
0.0277023
0.00441964
0.0257808
0.0044462
0.0242576
0.00353874
0.0227693
0.00349796
0.0212921
0.00350216
0.019805
0.00355224
0.0182899
0.00364019
0.0167288
0.00376914
0.0151068
0.00393232
0.0134111
0.00411693
0.0116299
0.00430178
0.00976329
0.00445925
0.00783046
0.00453772
0.00587789
0.00447243
0.0039752
0.00420512
0.0022104
0.00376916
0.000595861
0.00348838
-0.000925464
0.0037193
-0.00212838
0.00351524
-0.00264948
0.00217686
-0.00249953
-0.00226479
-0.0181718
0.000356255
0.0459601
-0.0275237
-0.0375159
0.0531575
-0.0318345
0.0589154
-0.0141412
0.0626137
-0.0100224
0.0648733
-0.00421415
0.0658653
0.000206593
0.0658233
0.00331619
0.0649941
0.00559162
0.0635795
0.00729516
0.0616474
0.00917865
0.0590831
0.0118801
0.0562933
0.0114759
0.0537381
0.00927855
0.0513923
0.00774137
0.0489781
0.00775216
0.046545
0.00741009
0.0441349
0.00714464
0.0417479
0.00696316
0.0393841
0.00683376
0.037038
0.00676577
0.0346812
0.00680293
0.032802
0.00541797
0.0309629
0.00533703
0.0291389
0.00532612
0.027307
0.00538414
0.0254467
0.00550038
0.0235367
0.00567879
0.0215579
0.00591076
0.0194925
0.00618186
0.0173252
0.00646862
0.0150498
0.00673458
0.012674
0.00691351
0.0102305
0.00691623
0.00777624
0.00665982
0.00540642
0.00613933
0.00324342
0.00565164
0.00134011
0.00562264
-0.000212729
0.00506807
-0.00110035
0.00306445
-0.00180559
-0.00155962
-0.0181564
-0.00182088
0.0531043
-0.0367574
-0.0438707
0.0606316
-0.0393618
0.0672555
-0.020765
0.0720763
-0.0148432
0.0753379
-0.00747575
0.0771853
-0.0016408
0.0777621
0.00273939
0.077283
0.00607068
0.0759865
0.00859173
0.0740145
0.0111506
0.0713609
0.0145337
0.068398
0.0144388
0.0656482
0.0120284
0.0631853
0.0102042
0.0607581
0.0101794
0.058314
0.00985413
0.0558643
0.00959439
0.0533825
0.00944495
0.050851
0.00936521
0.0482661
0.00935074
0.0456122
0.00945684
0.0434543
0.00757582
0.0413165
0.0074749
0.0391788
0.00746383
0.0370203
0.00754254
0.0348213
0.00769939
0.0325596
0.00794045
0.0302138
0.0082567
0.0277626
0.00863319
0.0251872
0.00904422
0.0224748
0.00944698
0.0196218
0.00976629
0.0166433
0.00989454
0.0135747
0.00972832
0.0104948
0.00921909
0.00760722
0.00853909
0.00509647
0.00813338
0.00295274
0.00721188
0.00140821
0.00460903
-0.00022674
7.50601e-05
-0.0155353
-0.0028479
0.0609804
-0.0468679
-0.0508699
0.0691303
-0.0475117
0.0766028
-0.0282376
0.0825604
-0.0208007
0.0869304
-0.0118458
0.0898121
-0.00452252
0.0912766
0.00127489
0.0914739
0.00587337
0.0906068
0.00945892
0.0888428
0.0129146
0.0862363
0.0171402
0.0831019
0.0175732
0.0800017
0.0151286
0.0771608
0.0130451
0.0744537
0.0128865
0.0718015
0.0125064
0.0692067
0.0121892
0.0666306
0.012021
0.0640215
0.0119744
0.0613444
0.0120278
0.0585675
0.0122337
0.0562723
0.00987107
0.0539673
0.0097799
0.0516342
0.00979683
0.0492534
0.00992331
0.0468054
0.0101473
0.0442683
0.0104774
0.0416194
0.0109055
0.0388351
0.0114173
0.0358927
0.0119865
0.0327733
0.0125663
0.0294625
0.013077
0.0259575
0.0133996
0.0222667
0.0134192
0.018432
0.0130539
0.0146785
0.0122927
0.0113017
0.0115103
0.00829413
0.0102195
0.00573027
0.00717289
0.0030747
0.0027305
-0.0107821
-0.00167856
0.0696961
-0.0580414
-0.0585225
0.0787569
-0.0565726
0.0871658
-0.0366465
0.0942541
-0.0278889
0.0998115
-0.0174032
0.103852
-0.00856285
0.106389
-0.00126248
0.107513
0.0047498
0.107366
0.00960542
0.106117
0.0141636
0.103849
0.0194086
0.100786
0.0206364
0.097458
0.0184563
0.0942136
0.0162895
0.0910922
0.016008
0.0880472
0.0155513
0.0850974
0.015139
0.0822352
0.0148832
0.0794144
0.0147952
0.0765876
0.0148546
0.0737066
0.0151147
0.0713389
0.0122387
0.0689698
0.012149
0.0665707
0.0121959
0.0641139
0.0123801
0.0615737
0.0126874
0.0589231
0.013128
0.0561339
0.0136946
0.0531769
0.0143744
0.0500221
0.0151413
0.0466409
0.0159475
0.0430061
0.0167117
0.0390954
0.0173103
0.0348893
0.0176252
0.0303822
0.017561
0.0257574
0.0169174
0.0213379
0.0159297
0.0171881
0.0143694
0.0132799
0.011081
0.00937209
0.00663827
-0.00433006
0.00291999
0.0793807
-0.0705625
-0.0668596
0.0896568
-0.0668487
0.0991724
-0.0461621
0.107427
-0.0361438
0.114212
-0.0241876
0.119485
-0.0138364
0.123231
-0.00500844
0.125476
0.00250493
0.126305
0.00877662
0.125864
0.0146049
0.124246
0.0210258
0.121583
0.0232997
0.118311
0.0217285
0.114834
0.0197659
0.111353
0.0194892
0.107892
0.0190124
0.104494
0.0185375
0.101193
0.0181839
0.0979786
0.0180094
0.0948225
0.0180108
0.0916862
0.018251
0.0891592
0.0147657
0.0866861
0.0146222
0.0842306
0.0146514
0.0817566
0.0148541
0.0792299
0.015214
0.0766153
0.0157425
0.0738759
0.016434
0.070972
0.0172782
0.0678611
0.0182523
0.0644978
0.0193107
0.0608338
0.0203756
0.0568193
0.0213247
0.0524003
0.0220442
0.0475196
0.0224417
0.0422761
0.022161
0.0369106
0.0212952
0.0315223
0.0197578
0.0260699
0.0165334
0.0205457
0.0121624
0.00354195
0.0126736
0.0901948
-0.0848074
-0.0759499
0.102029
-0.0786834
0.112894
-0.0570264
0.122423
-0.0456729
0.130479
-0.0322442
0.137028
-0.0203847
0.142053
-0.0100337
0.145546
-0.000987977
0.147545
0.00677702
0.148167
0.0139837
0.147497
0.0216954
0.145576
0.0252211
0.142714
0.0245904
0.139305
0.0231745
0.135666
0.0231285
0.131913
0.0227647
0.128126
0.0223252
0.124376
0.0219337
0.120695
0.0216904
0.117085
0.0216206
0.113534
0.0218016
0.110703
0.0175973
0.107987
0.0173382
0.105355
0.0172828
0.102776
0.0174336
0.100216
0.0177737
0.0976422
0.0183163
0.0950172
0.019059
0.0922989
0.0199965
0.0894385
0.0211127
0.0863782
0.022371
0.0830487
0.0237051
0.0793685
0.0250048
0.0752401
0.0261725
0.070547
0.0271349
0.065281
0.027427
0.0595222
0.027054
0.0532836
0.0259964
0.0465054
0.0233116
0.0392359
0.019432
0.0126449
0.0301329
0.10234
-0.101243
-0.0859039
0.116135
-0.0924788
0.128659
-0.0695501
0.139652
-0.0566655
0.149073
-0.0416652
0.156939
-0.0282508
0.16327
-0.0163645
0.168073
-0.00579187
0.171354
0.00349617
0.173217
0.0121214
0.173734
0.0211777
0.172864
0.0260916
0.170781
0.0266729
0.167816
0.0261402
0.164331
0.0266134
0.160528
0.0265675
0.156534
0.0263191
0.152459
0.0260092
0.148375
0.0257743
0.144319
0.0256764
0.140309
0.0258118
0.137092
0.0208143
0.134026
0.0204042
0.131092
0.0202166
0.128269
0.0202562
0.125537
0.0205057
0.122875
0.0209789
0.120257
0.021676
0.117658
0.0225962
0.11504
0.0237308
0.112355
0.0250554
0.109539
0.0265217
0.1065
0.0280433
0.103118
0.0295548
0.0992293
0.0310234
0.0947253
0.031931
0.0895118
0.0322675
0.0834239
0.0320843
0.0762885
0.0304471
0.068023
0.0276974
0.0226105
0.0580574
0.116069
-0.120436
-0.0968763
0.132305
-0.108715
0.146875
-0.0841198
0.159606
-0.0693971
0.170558
-0.0526172
0.179826
-0.0375181
0.187492
-0.0240311
0.193621
-0.0119202
0.198215
-0.00109833
0.201397
0.00893908
0.203242
0.0193328
0.203647
0.0256873
0.202663
0.0276564
0.200527
0.028276
0.197579
0.0295616
0.19406
0.0300869
0.190144
0.0302352
0.185976
0.0301769
0.18167
0.0300798
0.177302
0.0300452
0.172919
0.0301942
0.169342
0.0243918
0.165919
0.0238267
0.162647
0.0234893
0.159515
0.0233878
0.156516
0.0235045
0.153643
0.0238525
0.150887
0.024432
0.14824
0.0252432
0.145689
0.0262815
0.143214
0.0275306
0.140778
0.0289578
0.13832
0.030501
0.135741
0.0321338
0.132886
0.0338779
0.129607
0.0352103
0.125706
0.0361684
0.120877
0.0369132
0.114797
0.0365272
0.107176
0.0353184
0.0321943
0.0975925
0.1317
-0.143065
-0.109072
0.150953
-0.127968
0.168044
-0.101211
0.182882
-0.0842351
0.195622
-0.0653564
0.206444
-0.048341
0.215518
-0.0331043
0.222978
-0.0193804
0.228882
-0.00700209
0.233379
0.00444173
0.23658
0.0161321
0.238359
0.0239083
0.238681
0.0273344
0.237691
0.0292661
0.235657
0.0315956
0.232803
0.032941
0.229323
0.0337151
0.225387
0.034113
0.22114
0.0343264
0.216695
0.0344904
0.212137
0.0347514
0.208316
0.028213
0.204627
0.0275162
0.20108
0.0270363
0.197679
0.0267883
0.194427
0.0267564
0.191326
0.0269538
0.188379
0.0273793
0.18559
0.0280324
0.182962
0.0289086
0.180498
0.0299948
0.17819
0.0312661
0.176015
0.032676
0.17392
0.0342286
0.171803
0.0359945
0.169552
0.0374612
0.166979
0.0387422
0.163771
0.0401203
0.159558
0.0407408
0.15397
0.0409064
0.0397874
0.146377
0.149632
-0.169943
-0.122753
0.172596
-0.150932
0.192791
-0.121406
0.210204
-0.101648
0.225085
-0.0802374
0.237708
-0.0609636
0.248331
-0.0437277
0.25718
-0.0282295
0.26439
-0.0142115
0.270161
-0.0013294
0.274665
0.0116282
0.277799
0.0207741
0.27949
0.0256436
0.279823
0.0289331
0.278986
0.0324329
0.277144
0.0347823
0.274474
0.0363851
0.271144
0.0374435
0.267311
0.0381594
0.263113
0.0386884
0.258669
0.0391953
0.254796
0.0320864
0.251002
0.0313099
0.24732
0.0307182
0.243771
0.0303373
0.240369
0.0301583
0.237125
0.0301981
0.234048
0.0304562
0.231149
0.0309314
0.228438
0.0316192
0.225925
0.0325079
0.223615
0.0335763
0.221505
0.0347861
0.219572
0.0361618
0.217758
0.037808
0.21601
0.0392097
0.214202
0.04055
0.212117
0.0422049
0.209466
0.0433922
0.205984
0.0443886
0.0448073
0.200964
0.170359
-0.202053
-0.13825
0.197875
-0.178447
0.221884
-0.145415
0.242457
-0.122221
0.259942
-0.0977227
0.27471
-0.0757314
0.287117
-0.0561352
0.297487
-0.0385988
0.306043
-0.022768
0.313068
-0.00835428
0.318798
0.00589864
0.323195
0.0163768
0.326198
0.0226403
0.327877
0.027254
0.328365
0.0319456
0.327764
0.0353828
0.326207
0.0379424
0.323833
0.0398172
0.320788
0.0412049
0.31721
0.042266
0.313236
0.0431694
0.309564
0.0357583
0.30589
0.0349841
0.30227
0.0343377
0.298748
0.0338599
0.295353
0.0335533
0.292108
0.0334424
0.289033
0.0335317
0.286141
0.0338233
0.283445
0.0343148
0.280957
0.0349965
0.278682
0.0358513
0.276621
0.0368469
0.274759
0.038024
0.273054
0.0395125
0.271484
0.0407796
0.269974
0.0420604
0.26839
0.043789
0.266566
0.0452164
0.26438
0.0465739
0.0478439
0.261344
0.194497
-0.240579
-0.155971
0.227581
-0.211532
0.256269
-0.174103
0.280721
-0.146673
0.301395
-0.118396
0.318764
-0.0931008
0.333293
-0.0706639
0.345407
-0.0507133
0.355435
-0.032796
0.363747
-0.0166659
0.370656
-0.00101009
0.376215
0.0108176
0.380414
0.0184411
0.383349
0.0243195
0.385136
0.0301585
0.385843
0.0346757
0.38556
0.0382255
0.384388
0.0409888
0.382441
0.043152
0.379838
0.0448694
0.376706
0.0463009
0.373525
0.0389392
0.370239
0.0382709
0.366926
0.0376504
0.36365
0.0371357
0.36046
0.0367434
0.357394
0.0365086
0.354481
0.0364441
0.351746
0.0365585
0.349206
0.0368552
0.346872
0.0373299
0.344753
0.0379709
0.342847
0.0387526
0.341141
0.0397304
0.339597
0.0410566
0.338204
0.0421727
0.336909
0.0433545
0.335622
0.0450767
0.334259
0.0465791
0.332775
0.0480575
0.0496846
0.330935
0.222799
-0.286958
-0.17642
0.262689
-0.251422
0.297108
-0.208523
0.326323
-0.175888
0.350911
-0.142984
0.371465
-0.113654
0.388565
-0.0877645
0.402754
-0.0649021
0.414472
-0.0445138
0.424184
-0.0263778
0.432298
-0.00912382
0.43896
0.00415489
0.444244
0.0131574
0.448298
0.0202652
0.451264
0.0271929
0.453208
0.0327314
0.454204
0.0372294
0.454326
0.0408666
0.453656
0.0438226
0.452282
0.0462435
0.450307
0.048276
0.447891
0.041355
0.445264
0.0408976
0.442522
0.0403924
0.439743
0.039915
0.436989
0.0394967
0.434314
0.0391843
0.431757
0.0390007
0.429353
0.0389628
0.427126
0.0390818
0.425095
0.0393606
0.423272
0.0397946
0.421658
0.0403656
0.420246
0.0411432
0.419002
0.0422999
0.417926
0.0432494
0.41698
0.0443003
0.416094
0.0459624
0.415231
0.0474424
0.414367
0.048921
0.0506549
0.413397
0.256164
-0.342929
-0.200193
0.304362
-0.299619
0.345801
-0.249962
0.380862
-0.210949
0.410263
-0.172384
0.434732
-0.138124
0.454988
-0.10802
0.4717
-0.0816138
0.485435
-0.0582489
0.496764
-0.037707
0.506196
-0.0185558
0.513983
-0.00363215
0.520294
0.00684699
0.525351
0.0152074
0.529349
0.0231957
0.532386
0.0296939
0.534551
0.0350649
0.535914
0.0395033
0.536542
0.043194
0.536503
0.0462832
0.53587
0.0489087
0.534416
0.0428093
0.53267
0.0426433
0.530733
0.04233
0.528688
0.0419594
0.526608
0.0415768
0.524552
0.0412403
0.52257
0.0409832
0.520701
0.0408313
0.518979
0.0408041
0.517427
0.040912
0.516064
0.0411576
0.514901
0.0415295
0.513934
0.0421102
0.513144
0.0430894
0.51254
0.0438533
0.512102
0.0447385
0.511778
0.0462861
0.511556
0.0476645
0.511425
0.0490523
0.0507559
0.511324
0.268408
-0.404245
-0.207091
0.321255
-0.352467
0.366575
-0.295282
0.404834
-0.249207
0.43683
-0.204381
0.463372
-0.164667
0.485253
-0.129901
0.503216
-0.0995769
0.517906
-0.0729383
0.529947
-0.0497485
0.539901
-0.0285097
0.548099
-0.0118304
0.554782
0.000163909
0.560232
0.00975776
0.564684
0.0187437
0.56828
0.0260976
0.571136
0.0322096
0.573336
0.0373023
0.574952
0.0415787
0.57604
0.0451952
0.576656
0.0482919
0.576231
0.0432345
0.575504
0.0433705
0.574563
0.0432713
0.573484
0.0430379
0.572334
0.0427267
0.571169
0.0424052
0.570037
0.0421152
0.568978
0.0418906
0.568024
0.0417581
0.567201
0.0417346
0.56653
0.0418287
0.566025
0.0420342
0.565692
0.0424432
0.565523
0.0432588
0.565533
0.0438437
0.565716
0.0445554
0.566042
0.0459599
0.566514
0.0471928
0.56713
0.0484357
0.0500285
0.567858
0.277462
-0.470126
-0.211581
0.334276
-0.409281
0.382908
-0.343915
0.423898
-0.290197
0.458112
-0.238595
0.486425
-0.192979
0.509691
-0.153167
0.528714
-0.1186
0.5442
-0.0884249
0.556821
-0.0623687
0.567175
-0.0388641
0.575659
-0.0203139
0.582571
-0.00674848
0.588234
0.00409502
0.59292
0.014057
0.596811
0.0222069
0.60005
0.0289703
0.602748
0.0346047
0.604987
0.0393393
0.606833
0.0433495
0.608339
0.046786
0.60869
0.042883
0.608762
0.0432985
0.608631
0.0434024
0.608364
0.0433055
0.608017
0.0430732
0.607642
0.0427807
0.60728
0.0424768
0.606969
0.0422022
0.606737
0.0419895
0.606611
0.041861
0.606609
0.0418302
0.606749
0.0418947
0.607038
0.042154
0.607476
0.0428207
0.60808
0.0432395
0.608853
0.043783
0.609777
0.0450356
0.610862
0.0461076
0.612114
0.047184
0.048628
0.613514
0.288653
-0.541001
-0.217778
0.349799
-0.470428
0.402073
-0.396188
0.446084
-0.334208
0.482771
-0.275282
0.513076
-0.223284
0.537921
-0.178012
0.558172
-0.138851
0.574597
-0.104851
0.587915
-0.0756861
0.598766
-0.0497154
0.607601
-0.0291489
0.614774
-0.0139215
0.620642
-0.00177281
0.625514
0.00918484
0.629605
0.0181154
0.633091
0.0254846
0.636106
0.0315899
0.638753
0.0366922
0.641111
0.0409914
0.643241
0.0446559
0.644153
0.0419716
0.644818
0.0426338
0.645303
0.0429168
0.645669
0.0429399
0.645965
0.042777
0.646236
0.04251
0.646519
0.042194
0.646845
0.0418753
0.647243
0.0415917
0.647734
0.0413699
0.648338
0.0412271
0.649068
0.0411643
0.649936
0.0412862
0.650944
0.0418125
0.652108
0.0420751
0.653434
0.0424569
0.654914
0.0435562
0.656557
0.0444644
0.658371
0.0453698
0.0466517
0.660348
0.30181
-0.61732
-0.225491
0.367675
-0.536292
0.423933
-0.452446
0.471263
-0.381539
0.51068
-0.314699
0.543199
-0.255803
0.569813
-0.204626
0.591454
-0.160492
0.608957
-0.122353
0.623088
-0.0898174
0.634535
-0.0611621
0.643799
-0.0384127
0.651283
-0.0214058
0.657381
-0.00787051
0.662433
0.00413248
0.666689
0.0138596
0.670352
0.0218217
0.673582
0.0283597
0.676505
0.0337697
0.679215
0.0382806
0.681789
0.0420828
0.683104
0.0406563
0.684207
0.0415306
0.685161
0.0419631
0.686019
0.0420818
0.686827
0.0419691
0.687624
0.0417132
0.688442
0.0413751
0.689312
0.0410062
0.690254
0.0406489
0.691291
0.0403336
0.692437
0.040081
0.693706
0.0398946
0.695109
0.0398831
0.696651
0.0402708
0.698344
0.040382
0.700194
0.0406065
0.702199
0.0415516
0.704367
0.0422966
0.706704
0.0430323
0.0441487
0.709207
0.316854
-0.699565
-0.23461
0.387852
-0.60729
0.448457
-0.513051
0.49942
-0.432502
0.541835
-0.357114
0.576797
-0.290764
0.605374
-0.233204
0.628571
-0.183688
0.647289
-0.141072
0.662351
-0.10488
0.674492
-0.0733031
0.684265
-0.0481856
0.69212
-0.0292609
0.698486
-0.0142367
0.703736
-0.00111743
0.708151
0.0094448
0.711962
0.0180112
0.715353
0.0249685
0.718471
0.0306511
0.721432
0.0353198
0.724324
0.0391906
0.72593
0.0390505
0.727355
0.0401055
0.728661
0.0406577
0.729897
0.040845
0.731108
0.0407584
0.732328
0.0404928
0.733588
0.0401153
0.734913
0.039682
0.736322
0.0392396
0.737833
0.0388222
0.739461
0.0384532
0.741217
0.0381388
0.74311
0.0379902
0.745145
0.0382353
0.747333
0.0381946
0.749678
0.0382618
0.75218
0.0390496
0.754845
0.0396309
0.75768
0.0401979
0.0411475
0.760681
0.333764
-0.788253
-0.245076
0.410342
-0.683869
0.475684
-0.578392
0.530614
-0.487432
0.576311
-0.402812
0.613955
-0.328408
0.644698
-0.263947
0.669621
-0.208611
0.689697
-0.161148
0.705809
-0.120992
0.718744
-0.0862384
0.729108
-0.0585496
0.737398
-0.0375505
0.744078
-0.0209172
0.749556
-0.00659475
0.754141
0.00485945
0.758093
0.0140597
0.761619
0.0214419
0.764889
0.0273815
0.768035
0.0321736
0.771163
0.0360624
0.772979
0.0372349
0.77464
0.0384447
0.776207
0.0390901
0.777732
0.03932
0.779256
0.0392347
0.780812
0.0389364
0.782429
0.0384983
0.78413
0.0379818
0.785931
0.0374377
0.78785
0.0369037
0.789897
0.0364061
0.792082
0.0359533
0.794414
0.0356586
0.796897
0.0357518
0.799538
0.0355536
0.802341
0.0354593
0.805307
0.0360835
0.80844
0.0364977
0.811743
0.0368946
0.0376747
0.815216
0.352562
-0.883943
-0.256871
0.435206
-0.766513
0.505704
-0.64889
0.564959
-0.546687
0.614243
-0.452096
0.654827
-0.368992
0.687951
-0.297071
0.714779
-0.235438
0.736362
-0.182731
0.753647
-0.138277
0.767479
-0.100071
0.778518
-0.0695886
0.787309
-0.046341
0.794354
-0.0279621
0.800094
-0.0123348
0.80487
8.30818e-05
0.808969
0.00996133
0.812621
0.017789
0.816018
0.0239852
0.819309
0.0288819
0.822618
0.0327535
0.824586
0.0352669
0.826419
0.0366118
0.828181
0.0373285
0.829923
0.0375778
0.831687
0.0374706
0.833507
0.0371166
0.835409
0.0365961
0.837415
0.0359758
0.839542
0.035311
0.841803
0.0346429
0.844208
0.0340009
0.846765
0.0333957
0.849482
0.0329421
0.852363
0.0328707
0.855411
0.032506
0.858628
0.0322424
0.862017
0.0326936
0.865581
0.0329345
0.869318
0.0331568
0.0337624
0.873231
0.373303
-0.987245
-0.270002
0.46254
-0.855749
0.53865
-0.725001
0.60262
-0.610657
0.655819
-0.505295
0.699618
-0.412791
0.735354
-0.332807
0.764278
-0.264362
0.787526
-0.205979
0.806114
-0.156866
0.820951
-0.114907
0.832752
-0.0813897
0.842113
-0.0557013
0.849575
-0.0354245
0.855616
-0.018376
0.860609
-0.00491015
0.864867
0.00570347
0.868646
0.0140101
0.872156
0.0204753
0.875568
0.0254704
0.879019
0.0293026
0.881097
0.0331881
0.883054
0.0346548
0.884957
0.0354257
0.88686
0.035675
0.888806
0.0355249
0.890828
0.0350941
0.892954
0.0344699
0.895205
0.0337251
0.897596
0.0329197
0.90014
0.0320989
0.902846
0.031295
0.90572
0.0305214
0.908768
0.0298942
0.911996
0.0296435
0.915401
0.0291006
0.918986
0.0286576
0.922755
0.0289244
0.926706
0.0289833
0.930839
0.0290244
0.0294483
0.935153
0.396069
-1.09882
-0.284495
0.492473
-0.952153
0.574691
-0.807219
0.643798
-0.679763
0.701269
-0.562767
0.748583
-0.460105
0.787179
-0.371402
0.818405
-0.295589
0.843487
-0.231061
0.863518
-0.176896
0.879473
-0.130862
0.892128
-0.0940447
0.90213
-0.0657035
0.910066
-0.0433599
0.916449
-0.0247597
0.921688
-0.0101485
0.926121
0.00127019
0.93003
0.0101004
0.933648
0.0168582
0.937161
0.0219568
0.940726
0.0257382
0.942883
0.0310306
0.944926
0.0326116
0.946927
0.0334245
0.948944
0.0336583
0.951021
0.0334476
0.953195
0.0329207
0.955492
0.0321731
0.957933
0.031284
0.960534
0.0303186
0.963307
0.0293262
0.966259
0.0283425
0.969397
0.0273837
0.972724
0.0265667
0.976247
0.0261209
0.979961
0.0253867
0.983866
0.0247524
0.987968
0.0248222
0.992263
0.0246887
0.996747
0.0245401
0.0247735
1.00142
0.420965
-1.21939
-0.300396
0.525162
-1.05635
0.61403
-0.896087
0.688733
-0.754467
0.750866
-0.624899
0.802019
-0.511258
0.843746
-0.413129
0.877499
-0.329342
0.904598
-0.25816
0.926221
-0.198519
0.943415
-0.148056
0.957021
-0.107651
0.967741
-0.0764241
0.976208
-0.0518268
0.982978
-0.0315289
0.988491
-0.0156616
0.993117
-0.00335643
0.997164
0.00605346
1.00088
0.0131379
1.00449
0.0183551
1.00814
0.0220844
1.01035
0.0288213
1.01245
0.0305146
1.01451
0.0313621
1.0166
0.0315687
1.01876
0.0312827
1.02104
0.0306432
1.02346
0.0297543
1.02604
0.0287025
1.0288
0.0275585
1.03175
0.0263762
1.0349
0.0251949
1.03825
0.0240339
1.0418
0.0230108
1.04557
0.0223537
1.04954
0.0214142
1.05372
0.0205757
1.05811
0.0204348
1.0627
0.0200975
1.06749
0.0197492
0.0197822
1.07248
0.448115
-1.34974
-0.317764
0.560792
-1.16903
0.656899
-0.992194
0.737703
-0.83527
0.804921
-0.692118
0.86027
-0.566608
0.905424
-0.458282
0.941946
-0.365864
0.971262
-0.287477
0.994639
-0.221895
1.0132
-0.16662
1.02786
-0.122312
1.03938
-0.0879443
1.04844
-0.0608872
1.05564
-0.0387292
1.06146
-0.0214803
1.0663
-0.00819487
1.07049
0.00186226
1.07431
0.00931784
1.07799
0.0146786
1.08171
0.018364
1.08395
0.0265848
1.08607
0.028394
1.08816
0.029273
1.09028
0.0294447
1.09249
0.0290721
1.09483
0.028306
1.09732
0.0272603
1.1
0.0260289
1.10287
0.024689
1.10594
0.0232995
1.10923
0.0219034
1.11274
0.0205235
1.11648
0.0192781
1.12044
0.0183933
1.12462
0.0172342
1.12901
0.0161782
1.13364
0.0158125
1.13848
0.0152591
1.14352
0.0147003
0.0145222
1.14878
0.477666
-1.49073
-0.336671
0.599572
-1.29093
0.703566
-1.09619
0.791021
-0.922725
0.86379
-0.764887
0.923725
-0.626542
0.972628
-0.507185
1.01219
-0.405423
1.04394
-0.319228
1.06924
-0.247202
1.08932
-0.186696
1.10515
-0.138142
1.11756
-0.100351
1.12728
-0.0706067
1.13496
-0.0464082
1.14111
-0.0276367
1.14618
-0.0132633
1.15052
-0.00247939
1.15444
0.00540283
1.15817
0.0109424
1.16194
0.0146015
1.16417
0.0243465
1.16629
0.0262803
1.16837
0.0271924
1.17049
0.0273252
1.1727
0.0268579
1.17505
0.0259541
1.17758
0.024738
1.18029
0.0233124
1.18322
0.0217609
1.18637
0.0201478
1.18976
0.0185207
1.19337
0.0169058
1.19723
0.0154223
1.20133
0.0142939
1.20566
0.0129008
1.21023
0.0116138
1.21503
0.0110089
1.22006
0.010227
1.22532
0.00944643
0.00904585
1.23079
0.509783
-1.64332
-0.357198
0.641741
-1.42289
0.754331
-1.20878
0.849041
-1.01744
0.927872
-0.843718
0.992819
-0.691489
1.04583
-0.560193
1.08871
-0.448311
1.12314
-0.353653
1.15057
-0.274633
1.17231
-0.20844
1.18943
-0.155262
1.20282
-0.11374
1.21327
-0.0810559
1.22148
-0.0546163
1.22801
-0.0341636
1.23332
-0.0185795
1.23782
-0.00697614
1.24182
0.0014003
1.2456
0.00716445
1.24938
0.0108252
1.25159
0.0221338
1.25366
0.0242064
1.2557
0.025158
1.25777
0.0252519
1.25994
0.0246852
1.26226
0.0236353
1.26476
0.022238
1.26747
0.0206052
1.2704
0.018828
1.27357
0.0169766
1.27699
0.0151033
1.28066
0.0132384
1.28458
0.0115015
1.28876
0.010114
1.29319
0.00847296
1.29786
0.00694159
1.30279
0.00608337
1.30795
0.00506017
1.31335
0.00404636
0.00341189
1.31899
0.544651
-1.80853
-0.379441
0.687564
-1.5658
0.809529
-1.33074
0.912158
-1.12007
0.997611
-0.929171
1.06804
-0.761919
1.12554
-0.617696
1.17208
-0.49485
1.20945
-0.391015
1.23921
-0.304401
1.26279
-0.232021
1.28134
-0.173807
1.29581
-0.128213
1.30707
-0.0923109
1.31586
-0.0634067
1.32279
-0.041095
1.32837
-0.0241604
1.33302
-0.0116301
1.3371
-0.00267879
1.3409
0.00336794
1.34466
0.0070691
1.34681
0.0199785
1.34881
0.0222097
1.35075
0.0232119
1.35273
0.0232711
1.35482
0.0226039
1.35705
0.0214027
1.35947
0.0198159
1.36211
0.0179653
1.36499
0.0159503
1.36812
0.0138473
1.37151
0.011714
1.37516
0.00958488
1.37908
0.00758048
1.38328
0.00591915
1.38773
0.00401669
1.39245
0.00222798
1.39743
0.00110259
1.40266
-0.000174329
1.40814
-0.00143287
-0.00231271
1.41386
0.582477
-1.9875
-0.403504
0.737337
-1.72066
0.869533
-1.46294
0.980812
-1.23134
1.07351
-1.02186
1.14994
-0.838349
1.21236
-0.680126
1.26291
-0.545395
1.3035
-0.431603
1.33584
-0.33674
1.36144
-0.257628
1.38156
-0.193923
1.39723
-0.143881
1.40937
-0.104454
1.4188
-0.0728362
1.42617
-0.0484658
1.43203
-0.0300219
1.43684
-0.0164403
1.44098
-0.00681873
1.44477
-0.000417884
1.44846
0.00337494
1.45052
0.0179178
1.4524
0.0203338
1.45421
0.021403
1.45604
0.0214364
1.45798
0.0206714
1.46006
0.0193169
1.46234
0.0175351
1.46485
0.0154587
1.4676
0.0131957
1.47062
0.0108297
1.47391
0.00842409
1.47748
0.00601811
1.48133
0.00373306
1.48546
0.00178412
1.48987
-0.000392442
1.49455
-0.00245082
1.49951
-0.00385671
1.50473
-0.00539938
1.51021
-0.00691377
-0.00805017
1.51595
0.62349
-2.18149
-0.429501
0.791389
-1.88856
0.934758
-1.60631
1.05549
-1.35208
1.15611
-1.12248
1.23911
-0.921351
1.30694
-0.747957
1.36188
-0.600338
1.40602
-0.475739
1.44119
-0.371909
1.46903
-0.285467
1.49088
-0.215772
1.50786
-0.160868
1.52098
-0.117574
1.53111
-0.0829658
1.53896
-0.056312
1.54512
-0.0361785
1.55008
-0.0214022
1.55426
-0.0109979
1.55799
-0.00415618
1.56158
-0.000206217
1.5635
0.0159964
1.5652
0.01863
1.56682
0.0197885
1.56844
0.0198098
1.57016
0.0189541
1.57203
0.0174483
1.57409
0.0154692
1.57639
0.0131616
1.57894
0.010643
1.58177
0.00800471
1.58488
0.00531629
1.58827
0.00262227
1.59196
4.48165e-05
1.59595
-0.00220432
1.60022
-0.00466662
1.60478
-0.00700607
1.60963
-0.00870497
1.61475
-0.0105248
1.62014
-0.0123055
-0.0137092
1.6258
0.66794
-2.39187
-0.457558
0.850082
-2.0707
1.00566
-1.76189
1.13674
-1.48316
1.24603
-1.23176
1.33623
-1.01156
1.40999
-0.821716
1.46977
-0.660114
1.51781
-0.523778
1.55609
-0.410195
1.58639
-0.315765
1.61015
-0.239533
1.62859
-0.179309
1.64279
-0.131769
1.65368
-0.0938606
1.66204
-0.0646707
1.66851
-0.0426426
1.67361
-0.0265066
1.6778
-0.0151876
1.68144
-0.00780062
1.68485
-0.00361179
1.68658
0.0142677
1.68805
0.0171595
1.6894
0.0184362
1.69075
0.0184649
1.69217
0.0175305
1.69374
0.0158793
1.6955
0.0137043
1.6975
0.0111634
1.69976
0.00838428
1.7023
0.00546687
1.70513
0.00248736
1.70825
-0.000503968
1.71168
-0.00338388
1.71542
-0.00594433
1.71946
-0.00870266
1.72379
-0.0113334
1.72842
-0.0133368
1.73334
-0.0154441
1.73853
-0.017501
-0.0191818
1.744
0.716107
-2.62017
-0.487812
0.913819
-2.26842
1.08276
-1.93083
1.22516
-1.62556
1.34395
-1.35056
1.44206
-1.10966
1.52233
-0.901985
1.58742
-0.725204
1.63975
-0.576112
1.68148
-0.451917
1.71449
-0.348778
1.74036
-0.265402
1.7604
-0.199352
1.77578
-0.147144
1.78751
-0.105591
1.79642
-0.0735803
1.8032
-0.0494248
1.80843
-0.0317389
1.81259
-0.0193509
1.81609
-0.0112938
1.81924
-0.00676565
1.82071
0.0127959
1.82188
0.0159952
1.82289
0.0174264
1.82386
0.0174884
1.8249
0.0164928
1.82607
0.014707
1.82744
0.0123419
1.82903
0.00956913
1.83089
0.00652803
1.83303
0.00332751
1.83546
5.12025e-05
1.8382
-0.00324437
1.84125
-0.00643474
1.84462
-0.00931575
1.8483
-0.0123787
1.85228
-0.0153094
1.85657
-0.0176274
1.86115
-0.0200314
1.86603
-0.0223729
-0.0243397
1.87118
0.768295
-2.86806
-0.520408
0.983044
-2.48317
1.16662
-2.1144
1.32142
-1.78036
1.45064
-1.47977
1.55743
-1.21645
1.64485
-0.989411
1.71579
-0.796142
1.77286
-0.63318
1.81837
-0.497427
1.85438
-0.384785
1.88257
-0.293598
1.90438
-0.221161
1.92105
-0.163818
1.9337
-0.118231
1.9432
-0.0830802
1.9503
-0.0565322
1.95564
-0.037078
1.95973
-0.0234407
1.963
-0.014565
1.96581
-0.00957489
1.96695
0.0116581
1.96772
0.0152242
1.96829
0.0168548
1.9688
0.0169833
1.96934
0.0159505
1.97
0.0140468
1.97084
0.011502
1.97191
0.00850344
1.97323
0.00520256
1.97484
0.00171837
1.97675
-0.0018574
1.97897
-0.0054614
1.9815
-0.00896773
1.98436
-0.0121764
1.98753
-0.0155504
1.99101
-0.0187878
1.99481
-0.0214289
1.99892
-0.0241371
2.00331
-0.0267701
-0.0290304
2.008
0.824839
-3.13739
-0.555507
1.05825
-2.71657
1.25785
-2.31401
1.42627
-1.94878
1.56693
-1.62044
1.68326
-1.33277
1.77856
-1.08471
1.85594
-0.873523
1.91823
-0.695469
1.96792
-0.547119
2.00724
-0.4241
2.038
-0.324364
2.06176
-0.244918
2.07986
-0.181918
2.09349
-0.131865
2.10362
-0.0932108
2.11106
-0.0639689
2.11648
-0.0424949
2.12043
-0.0273985
2.1234
-0.0175283
2.12575
-0.0119283
2.12646