/*--------------------------------*- C++ -*----------------------------------*\
| =========                 |                                                 |
| \\      /  F ield         | OpenFOAM: The Open Source CFD Toolbox           |
|  \\    /   O peration     | Version:  5.x                                   |
|   \\  /    A nd           | Web:      www.OpenFOAM.org                      |
|    \\/     M anipulation  |                                                 |
\*---------------------------------------------------------------------------*/
FoamFile
{
    version     2.0;
    format      ascii;
    class       surfaceScalarField;
    location    "450";
    object      phi;
}
// * * * * * * * * * * * * * * * * * * * * * * * * * * * * * * * * * * * * * //

dimensions      [0 3 -1 0 0 0 0];

internalField   nonuniform List<scalar> 
21876
(
0.011596
0.0105864
-0.0222258
-0.000744795
0.0123323
-0.00437049
0.00360927
-0.00443683
5.12284e-05
-0.00404563
-0.00039977
-0.00368767
-0.000362419
-0.00346405
-0.000225539
-0.00330802
-0.000157801
-0.00318853
-0.000121729
-0.00310016
-8.9904e-05
-0.00304164
-6.05873e-05
-0.00300568
-3.74e-05
-0.00298818
-1.94491e-05
-0.00298764
-1.89066e-06
-0.00300581
1.65369e-05
-0.00304487
3.77469e-05
-0.0031063
5.97416e-05
-0.0031896
8.18584e-05
-0.00329489
0.000103565
-0.00342129
0.000124943
-0.00356092
0.00013856
-0.00369288
0.000130037
-0.00381996
0.000125702
-0.00393192
0.000110437
-0.00401015
7.68368e-05
-0.004036
2.44341e-05
-0.00399635
-4.09408e-05
-0.00388964
-0.000108139
-0.00371168
-0.000179211
-0.00345265
-0.000260364
-0.00310392
-0.000349995
-0.00265714
-0.000447947
-0.00210369
-0.000554831
-0.00142857
-0.000676083
-0.00062227
-0.000807145
0.000307739
-0.000931421
0.00136055
-0.00105316
0.00252933
-0.00117028
0.0039166
-0.00138714
0.00522516
-0.00130994
-0.00273234
0.00795597
0.0256778
0.011749
-0.0268463
0.0138749
0.0241315
0.000974075
0.0165046
-0.00444126
0.00545896
-0.0050168
0.000170371
-0.00478621
-0.000595788
-0.00455572
-0.000457589
-0.00440274
-0.000312482
-0.00429056
-0.00023563
-0.00420855
-0.000173384
-0.00415743
-0.000113155
-0.00413294
-6.31398e-05
-0.00413326
-2.04797e-05
-0.0041601
2.36673e-05
-0.00421263
6.77565e-05
-0.00428856
0.000112462
-0.00438847
0.000158335
-0.00451063
0.000202639
-0.00465229
0.00024373
-0.00480751
0.000278569
-0.00496596
0.000295615
-0.00510594
0.000268544
-0.00522704
0.000245502
-0.00531705
0.000199193
-0.00536277
0.00012136
-0.00535771
1.81113e-05
-0.00529459
-0.000105199
-0.00515939
-0.000244571
-0.00493849
-0.000401081
-0.00462237
-0.000577609
-0.00420032
-0.00077287
-0.00366195
-0.000987335
-0.002998
-0.00121958
-0.00219421
-0.00148087
-0.00124328
-0.00175889
-0.000136173
-0.00203949
0.00109979
-0.00228985
0.0025631
-0.00263444
0.00415119
-0.00297561
0.0061664
-0.0033257
-0.00516889
0.00860258
0.0334164
0.00863286
-0.0302965
0.0289498
0.0285982
0.0154335
0.0300188
0.00209875
0.0187906
-0.00423686
0.0065026
-0.00550034
0.000665565
-0.00553942
-0.000419656
-0.00544144
-0.000411455
-0.00535797
-0.000320295
-0.00529506
-0.000237257
-0.00525971
-0.000149635
-0.00525185
-7.18379e-05
-0.00526886
-4.54033e-06
-0.00531223
6.63551e-05
-0.00538229
0.000136929
-0.00547785
0.000207364
-0.00559944
0.000279008
-0.00574487
0.00034741
-0.00591102
0.000408983
-0.00609157
0.000458519
-0.00627605
0.000479727
-0.00644047
0.000432055
-0.00658406
0.000388432
-0.00669534
0.000309696
-0.00676
0.000185326
-0.00676611
2.35416e-05
-0.00669991
-0.000172016
-0.00654643
-0.000398698
-0.00629231
-0.000655825
-0.00592561
-0.000944863
-0.00543386
-0.00126523
-0.00480513
-0.00161647
-0.00402838
-0.0019969
-0.00308767
-0.0024218
-0.0019736
-0.00287312
-0.000674494
-0.00333895
0.000784397
-0.00374874
0.00252259
-0.00437314
0.00439433
-0.00484727
0.00677966
-0.00571178
-0.00748661
0.00909645
0.039249
0.00434739
-0.0349633
0.0405033
0.0273433
0.0329281
0.0375928
0.0177279
0.0339892
0.00336025
0.0208687
-0.00397339
0.00799793
-0.00593728
0.0015432
-0.0063165
-3.33027e-05
-0.00638401
-0.00025394
-0.00638953
-0.00023282
-0.00639304
-0.000147216
-0.00641449
-5.13558e-05
-0.00645568
3.56872e-05
-0.0065212
0.000130957
-0.00661404
0.000228789
-0.00673373
0.000326073
-0.00688179
0.000425983
-0.00705664
0.000521099
-0.00725591
0.000606994
-0.00747385
0.000675169
-0.00770012
0.000704803
-0.00790638
0.000637103
-0.00809029
0.000571253
-0.00823862
0.000456978
-0.00833432
0.00028002
-0.00836159
4.97955e-05
-0.00830353
-0.000231063
-0.00814323
-0.000559969
-0.00786516
-0.00093476
-0.00745475
-0.00135611
-0.00689726
-0.00182347
-0.00617863
-0.00233583
-0.00528586
-0.00289035
-0.00420044
-0.00350786
-0.00291136
-0.00416285
-0.00140718
-0.00484374
0.000299341
-0.00545582
0.00231694
-0.00639126
0.00448875
-0.00701949
0.00717399
-0.00839752
-0.00979532
0.00948232
0.0453774
-0.000287275
-0.0407373
0.0492935
0.0234279
0.0484473
0.0384384
0.0384085
0.044027
0.0214331
0.0378432
0.00551273
0.0239174
-0.00329514
0.0103503
-0.00623295
0.00290361
-0.00708134
0.000593603
-0.00736067
4.56525e-05
-0.00749161
-1.70642e-05
-0.00758949
4.57441e-05
-0.00768293
0.000128376
-0.00778885
0.000236223
-0.007919
0.000358316
-0.00807543
0.000481903
-0.00826248
0.000612388
-0.00848019
0.000738199
-0.00872751
0.000853642
-0.00899959
0.000946751
-0.00928637
0.00099124
-0.00955306
0.000903164
-0.00979526
0.000812938
-0.0099974
0.000658541
-0.0101398
0.000421855
-0.0102034
0.000112886
-0.0101686
-0.000266372
-0.0100156
-0.000713481
-0.0097257
-0.00122515
-0.00928136
-0.0018009
-0.00866519
-0.00244014
-0.00786074
-0.00314064
-0.00685306
-0.0038985
-0.00562103
-0.00474013
-0.00415308
-0.00563102
-0.00244056
-0.00655655
-0.000479149
-0.00741737
0.00180807
-0.0086788
0.0042732
-0.00948471
0.00717958
-0.0113044
-0.0121403
0.00952388
0.0527166
-0.00544652
-0.0475557
0.0574915
0.0186535
0.0607547
0.0351752
0.0581281
0.0466529
0.0461359
0.0498352
0.0272876
0.0427653
0.0091752
0.0284622
-0.00182838
0.0139066
-0.00621934
0.00498378
-0.00773634
0.00156187
-0.00832425
0.000570072
-0.00864617
0.000366931
-0.00887185
0.000353301
-0.00906389
0.000427496
-0.00926278
0.000556374
-0.00948002
0.000698272
-0.00972687
0.000858241
-0.010007
0.00101731
-0.0103222
0.00116761
-0.0106694
0.00129287
-0.0110397
0.00136037
-0.0113899
0.0012522
-0.0117132
0.00113528
-0.0119918
0.000936102
-0.0122033
0.000632397
-0.0123255
0.000234231
-0.0123362
-0.000256632
-0.0122121
-0.000838444
-0.0119309
-0.00150725
-0.0114715
-0.00226107
-0.0108137
-0.00309864
-0.00993857
-0.00401644
-0.00882933
-0.00500836
-0.00746277
-0.00610725
-0.00582825
-0.00726609
-0.00392092
-0.00846437
-0.00172402
-0.00961472
0.000789084
-0.0111923
0.00350495
-0.012201
0.00650515
-0.0143052
-0.0145011
0.00886571
0.0616485
-0.0114956
-0.0555942
0.0669
0.0134033
0.0716075
0.0304677
0.0741744
0.0440862
0.0702693
0.05374
0.0568208
0.0562137
0.0360583
0.0492244
0.0151342
0.0348302
0.00101067
0.0191067
-0.00557546
0.0081473
-0.00809676
0.00309071
-0.00919839
0.00146787
-0.00980003
0.000954274
-0.0102008
0.000827594
-0.0105406
0.000895479
-0.0108661
0.00102311
-0.0112088
0.00120017
-0.0115825
0.00139026
-0.0119942
0.00157861
-0.0124455
0.00174354
-0.0129298
0.00184414
-0.0133942
0.00171595
-0.01383
0.00157054
-0.0142168
0.0013223
-0.0145298
0.000944848
-0.0147437
0.000447585
-0.0148333
-0.00016768
-0.014772
-0.000900286
-0.0145335
-0.0017463
-0.0140933
-0.00270181
-0.0134281
-0.00376436
-0.0125166
-0.00492847
-0.0113404
-0.00618504
-0.00987561
-0.00757244
-0.00811464
-0.00902744
-0.00605733
-0.010522
-0.00368748
-0.0119849
-0.00104014
-0.0138399
0.00182464
-0.0150661
0.00474094
-0.0172219
-0.016803
0.00704237
0.0722874
-0.0186995
-0.0650823
0.0783554
0.0073362
0.0835213
0.0253023
0.0880744
0.0395332
0.0901229
0.0516917
0.0855326
0.060804
0.0711901
0.0635666
0.0486531
0.057367
0.0244684
0.0432911
0.00620588
0.0264095
-0.00365704
0.0129531
-0.00788377
0.00569417
-0.00982183
0.00289172
-0.0108397
0.0018448
-0.0115184
0.00157355
-0.0120598
0.00156377
-0.0125662
0.00170579
-0.0130841
0.0019074
-0.0136356
0.00212923
-0.0142321
0.00233913
-0.0148729
0.0024839
-0.0154941
0.00233619
-0.0160863
0.00216188
-0.0166267
0.00186192
-0.0170885
0.00140582
-0.0174429
0.000801238
-0.0176615
5.02565e-05
-0.0177153
-0.000847214
-0.0175744
-0.00188783
-0.0172108
-0.00306603
-0.0165987
-0.00437708
-0.0157147
-0.005813
-0.0145398
-0.00736049
-0.0130512
-0.00906143
-0.0112473
-0.0108318
-0.00913492
-0.0126348
-0.00671803
-0.0144021
-0.0040821
-0.0164761
-0.00124949
-0.0178991
0.00136224
-0.0198341
-0.0189095
0.00346855
0.0848885
-0.0273059
-0.0762788
0.0921292
9.59658e-05
0.0979875
0.0194447
0.103018
0.0345028
0.107356
0.0473546
0.109169
0.0589905
0.10451
0.068226
0.0899683
0.0719086
0.0661152
0.0671442
0.0386414
0.0538831
0.0153218
0.0362727
0.000641666
0.0203738
-0.0065294
0.0100623
-0.00983584
0.00515058
-0.0115862
0.0033232
-0.0126864
0.00266327
-0.0135297
0.00254829
-0.0142908
0.00266768
-0.01505
0.00288765
-0.0158499
0.00313824
-0.0167047
0.00333791
-0.0175405
0.00317128
-0.0183494
0.00297011
-0.0191071
0.00261891
-0.0197846
0.00208267
-0.0203503
0.00136621
-0.0207724
0.000471747
-0.0210198
-0.000600433
-0.0210608
-0.0018475
-0.0208644
-0.00326297
-0.0204034
-0.00483873
-0.0196537
-0.0065632
-0.0185971
-0.00841763
-0.0172151
-0.0104439
-0.0155138
-0.0125335
-0.013512
-0.0146371
-0.0112482
-0.0166662
-0.00882863
-0.0188961
-0.00629455
-0.0204335
-0.00422193
-0.0219071
-0.0205954
-0.0025363
0.0998537
-0.0376575
-0.089502
0.10854
-0.00858989
0.115514
0.0124714
0.121116
0.0289008
0.125892
0.0425795
0.130007
0.0548755
0.13186
0.0663734
0.127732
0.0760359
0.113841
0.0810352
0.0896258
0.0780987
0.0593877
0.0665105
0.0303613
0.0494002
0.00916876
0.0312545
-0.00283684
0.0171558
-0.0086395
0.00912534
-0.0116463
0.00566949
-0.0134523
0.00435369
-0.0147675
0.00398246
-0.0158969
0.00401631
-0.0169986
0.00423935
-0.0181449
0.00448338
-0.0192691
0.00429483
-0.020373
0.00407341
-0.0214323
0.00367747
-0.0224167
0.00306644
-0.0232919
0.00224092
-0.0240234
0.00120273
-0.0245781
-4.62965e-05
-0.0249238
-0.00150231
-0.0250293
-0.00315802
-0.0248671
-0.00500147
-0.0244149
-0.00701585
-0.0236578
-0.00917517
-0.0225852
-0.011517
-0.0212121
-0.0139069
-0.0195732
-0.0162764
-0.0177402
-0.0184995
-0.0158195
-0.0208171
-0.0139228
-0.0223305
-0.0125745
-0.0232557
-0.0216811
-0.011489
0.11766
-0.0501883
-0.105129
0.128106
-0.0190361
0.136497
0.00408027
0.143133
0.0222653
0.14837
0.0373421
0.152791
0.0504549
0.156668
0.0624962
0.15875
0.0739538
0.155676
0.0841094
0.143419
0.0903558
0.12017
0.0897593
0.0881555
0.0814149
0.0538007
0.0656093
0.0247542
0.0462022
0.0054915
0.0283878
-0.0049458
0.0161064
-0.0102545
0.00966217
-0.01333
0.0070574
-0.0154138
0.00609945
-0.0171185
0.00594332
-0.0187214
0.00608548
-0.0202425
0.0058152
-0.021739
0.00556913
-0.0232031
0.00514088
-0.0246096
0.00447235
-0.0259231
0.00355386
-0.0271063
0.00238537
-0.0281236
0.000970587
-0.0289435
-0.000682868
-0.0295377
-0.00256418
-0.0298814
-0.00465831
-0.0299563
-0.00694128
-0.0297539
-0.00937811
-0.0292746
-0.0119966
-0.0285421
-0.0146399
-0.0276046
-0.017214
-0.0265483
-0.0195561
-0.0254738
-0.0218918
-0.0245342
-0.0232705
-0.0240519
-0.0237382
-0.0220586
-0.0236747
0.138862
-0.0654352
-0.123616
0.151486
-0.0316613
0.161605
-0.00603849
0.169595
0.0142743
0.175775
0.0311622
0.18055
0.0456799
0.18452
0.0585265
0.188097
0.0703768
0.190464
0.0817415
0.188799
0.0920216
0.179078
0.0994797
0.158185
0.102308
0.126343
0.0974508
0.0881463
0.0843993
0.0511159
0.0654182
0.0222379
0.0449844
0.00399728
0.0279023
-0.00590099
0.0169554
-0.0113189
0.0115167
-0.0147958
0.00941956
-0.017439
0.00872804
-0.0196571
0.00803259
-0.0217337
0.00764498
-0.0237495
0.00715612
-0.0257198
0.00644194
-0.0276249
0.00545848
-0.029433
0.00419304
-0.0311095
0.0026466
-0.0326225
0.000829682
-0.0339472
-0.00123995
-0.0350647
-0.00354125
-0.0359628
-0.00604367
-0.0366401
-0.00870113
-0.0371104
-0.0115267
-0.0374009
-0.0143495
-0.0375618
-0.0170536
-0.0376652
-0.0194528
-0.0377957
-0.0217618
-0.0380597
-0.0230066
-0.0385479
-0.0232504
-0.0216966
-0.03891
0.164124
-0.0840507
-0.14551
0.17946
-0.0469979
0.191714
-0.0182929
0.201355
0.00463335
0.208797
0.0237198
0.214416
0.0400599
0.218639
0.0543034
0.222063
0.0669534
0.225227
0.0785771
0.227772
0.0894764
0.227602
0.0996502
0.220984
0.108926
0.203965
0.114469
0.174752
0.113613
0.135466
0.104704
0.0921632
0.0882867
0.0527174
0.0673481
0.0232214
0.0464511
0.00482476
0.029913
-0.00546398
0.0197079
-0.0115497
0.0148132
-0.0156009
0.0120833
-0.0188606
0.0109042
-0.0217978
0.0100926
-0.0245977
0.00924132
-0.0273181
0.00817826
-0.0299677
0.00684209
-0.0325337
0.00521195
-0.0349953
0.0032908
-0.0373335
0.00109758
-0.0395359
-0.0013393
-0.0415978
-0.00398236
-0.0435232
-0.00677618
-0.0453357
-0.00971473
-0.0470555
-0.0126301
-0.0487146
-0.0153949
-0.0503456
-0.0178221
-0.0519951
-0.0201127
-0.0536486
-0.0213533
-0.0552131
-0.0216863
-0.0205671
-0.0563427
0.194247
-0.106829
-0.171469
0.212947
-0.0656985
0.227857
-0.0332036
0.23954
-0.00704971
0.24852
0.0147395
0.255283
0.0332971
0.260246
0.0493397
0.263839
0.0633609
0.26663
0.0757857
0.269227
0.0868796
0.271709
0.0971672
0.27283
0.107805
0.269478
0.117821
0.257471
0.12562
0.233412
0.128763
0.196752
0.124947
0.15091
0.11319
0.10273
0.0946317
0.060148
0.0724946
0.0286456
0.0512101
0.00871365
0.0347448
-0.00231422
0.0231107
-0.0092108
0.0178
-0.0143674
0.0152486
-0.0187715
0.0136446
-0.0228334
0.0122394
-0.0267318
0.0107395
-0.0305373
0.00901675
-0.0342753
0.00702786
-0.0379527
0.0047744
-0.0415735
0.00228049
-0.0451446
-0.000411695
-0.0486784
-0.00324334
-0.0522014
-0.0061921
-0.0557129
-0.00911943
-0.0592083
-0.0118997
-0.0626669
-0.0143643
-0.0660893
-0.0166903
-0.0693253
-0.0181181
-0.072173
-0.0188386
-0.0184532
-0.0742876
0.230188
-0.134732
-0.202285
0.253045
-0.0885558
0.271252
-0.0514114
0.28548
-0.0212781
0.296367
0.00385298
0.304522
0.0251419
0.310483
0.0433777
0.314703
0.0591413
0.317602
0.0728864
0.319687
0.0847949
0.32158
0.0952737
0.323748
0.105637
0.325676
0.115892
0.325216
0.12608
0.318622
0.135357
0.301678
0.14189
0.271542
0.143326
0.228466
0.137707
0.176533
0.124428
0.122934
0.104808
0.0756692
0.0820096
0.0423281
0.0564512
0.020831
0.0392964
0.00728317
0.0287954
-0.0019482
0.0228749
-0.0091365
0.0194266
-0.0153961
0.0169981
-0.0212248
0.0148444
-0.02685
0.012652
-0.0323836
0.010307
-0.0378823
0.00777825
-0.043375
0.0050801
-0.0488797
0.00226066
-0.0544346
-0.000638093
-0.0600188
-0.00353576
-0.0655988
-0.00632053
-0.071107
-0.00885646
-0.0765232
-0.0112749
-0.081594
-0.0130477
-0.0860902
-0.014343
-0.0148643
-0.0896794
0.273099
-0.168925
-0.238907
0.301073
-0.11653
0.323356
-0.0736946
0.340746
-0.0386682
0.354016
-0.00941713
0.363903
0.0152546
0.37108
0.0362007
0.376127
0.0540939
0.379524
0.0694896
0.381672
0.0826472
0.383015
0.0939303
0.384182
0.10447
0.385778
0.114297
0.387917
0.12394
0.389509
0.133766
0.387807
0.143592
0.378747
0.152386
0.358156
0.158298
0.323448
0.159136
0.275105
0.15315
0.217294
0.139821
0.16125
0.112495
0.112887
0.0876584
0.0754128
0.0662686
0.0484245
0.0498622
0.0294197
0.0384301
0.0155604
0.0308561
0.00463609
0.0257674
-0.00475589
0.0220429
-0.0133966
0.0189465
-0.0216852
0.0160659
-0.0298154
0.0132093
-0.0378744
0.0103189
-0.0459403
0.00742687
-0.053988
0.00451135
-0.0619729
0.00166352
-0.0698054
-0.00102425
-0.0774897
-0.00359152
-0.0847339
-0.00580372
-0.0913584
-0.00771928
-0.00915066
-0.0970722
0.324347
-0.210811
-0.282461
0.358602
-0.150786
0.385907
-0.101
0.407213
-0.0599743
0.423454
-0.0256581
0.435517
0.00319132
0.444217
0.0275005
0.450274
0.0480367
0.454304
0.0654601
0.456796
0.0801548
0.458151
0.0925751
0.458806
0.103816
0.459267
0.113835
0.460165
0.123042
0.462008
0.131922
0.46463
0.140969
0.466556
0.15046
0.46471
0.160143
0.454843
0.169003
0.432673
0.17532
0.395469
0.177025
0.34702
0.160944
0.291905
0.142773
0.235869
0.122303
0.184148
0.101583
0.140107
0.0824701
0.104719
0.0662424
0.0770819
0.0534036
0.0554156
0.0437082
0.0378875
0.0364733
0.0230174
0.0309352
0.00976184
0.0264636
-0.00253925
0.0226193
-0.0143324
0.0192189
-0.0257707
0.0159493
-0.0369116
0.0128034
-0.0477203
0.00978426
-0.0583047
0.00699202
-0.0683772
0.00426865
-0.077847
0.00174972
-0.000527742
-0.0864699
0.349528
-0.25723
-0.303108
0.387491
-0.188749
0.417785
-0.131294
0.441443
-0.083632
0.459483
-0.0436984
0.472875
-0.0102006
0.482503
0.0178724
0.489156
0.0413832
0.493519
0.0610966
0.496162
0.0775125
0.497545
0.0911914
0.498079
0.103281
0.498097
0.113818
0.497974
0.123165
0.498216
0.13168
0.499418
0.139767
0.501976
0.147901
0.505579
0.156541
0.508673
0.165909
0.508253
0.17574
0.500223
0.185054
0.481698
0.179468
0.452229
0.172242
0.413146
0.161386
0.367269
0.147459
0.318213
0.131525
0.269652
0.114803
0.224588
0.0984667
0.184829
0.0834665
0.150895
0.0704061
0.12234
0.0594893
0.0982269
0.0505761
0.0775228
0.043323
0.0592243
0.0375162
0.0427004
0.0324728
0.0274708
0.028032
0.0132434
0.0240115
-0.000400221
0.0206347
-0.0132906
0.0171589
-0.0255211
0.0139793
0.0109104
-0.0369592
0.369659
-0.307507
-0.319383
0.41078
-0.22987
0.443626
-0.164141
0.469303
-0.109308
0.488902
-0.0632984
0.503466
-0.0247642
0.513936
0.00740237
0.521154
0.0341652
0.525851
0.0563993
0.528643
0.0747201
0.530046
0.0897879
0.530519
0.102809
0.530405
0.113931
0.529981
0.123589
0.529516
0.132144
0.529367
0.139917
0.530028
0.14724
0.532063
0.154506
0.535806
0.162166
0.540904
0.170642
0.545824
0.180134
0.547243
0.178048
0.542991
0.176493
0.531304
0.173073
0.511405
0.167358
0.483637
0.159293
0.449329
0.149111
0.41049
0.137305
0.369435
0.124521
0.328403
0.111438
0.289215
0.0986771
0.253066
0.0867237
0.220501
0.0758885
0.191381
0.0666352
0.165506
0.0583481
0.142448
0.0510886
0.12177
0.04469
0.102697
0.0397068
0.0852308
0.0346252
0.0690013
0.0302081
0.0259472
0.0539645
0.391758
-0.361885
-0.33738
0.436239
-0.274351
0.471799
-0.199701
0.499622
-0.137131
0.520882
-0.0845585
0.536695
-0.0405774
0.548073
-0.00397606
0.555915
0.0263229
0.561005
0.05131
0.564001
0.0717232
0.565462
0.0883274
0.565882
0.102388
0.565654
0.11416
0.565087
0.124156
0.564421
0.132809
0.563861
0.140477
0.56364
0.14746
0.564109
0.154037
0.565762
0.160512
0.569148
0.167256
0.57457
0.174712
0.580659
0.17196
0.586445
0.170707
0.590396
0.169122
0.590891
0.166862
0.586571
0.163613
0.57657
0.159111
0.560638
0.153238
0.539124
0.146034
0.512882
0.13768
0.483102
0.128457
0.451132
0.118694
0.418302
0.108719
0.385598
0.0993387
0.354006
0.08994
0.324152
0.0809423
0.296392
0.07245
0.270339
0.0657597
0.246366
0.0585983
0.224155
0.0524177
0.046339
0.203764
0.415855
-0.420638
-0.357103
0.463918
-0.322414
0.502367
-0.238151
0.532474
-0.167238
0.555501
-0.107586
0.572646
-0.057722
0.584996
-0.0163258
0.59351
0.0178083
0.599029
0.0457911
0.602261
0.0684906
0.603805
0.0867838
0.604188
0.102005
0.603835
0.114513
0.603095
0.124895
0.60225
0.133655
0.601514
0.141213
0.601056
0.147918
0.601035
0.154058
0.601669
0.159878
0.603308
0.165616
0.606447
0.171573
0.610684
0.167723
0.616227
0.165165
0.622791
0.162558
0.629725
0.159929
0.636109
0.15723
0.640913
0.154307
0.643167
0.150984
0.642098
0.147103
0.637219
0.14256
0.628361
0.137315
0.615665
0.13139
0.599528
0.124855
0.580429
0.118438
0.559088
0.111282
0.536251
0.103779
0.512662
0.0960395
0.488493
0.0899283
0.464612
0.0824793
0.44117
0.0758593
0.0688185
0.418691
0.44202
-0.484065
-0.378594
0.493909
-0.374302
0.535441
-0.279683
0.567982
-0.199779
0.59289
-0.132495
0.611452
-0.0762839
0.624835
-0.0297091
0.634068
0.00857547
0.640049
0.0398103
0.643538
0.0650009
0.645178
0.085144
0.64553
0.101653
0.645049
0.114994
0.644112
0.125833
0.643028
0.134738
0.642051
0.14219
0.641377
0.148592
0.641156
0.154278
0.641512
0.159522
0.642579
0.16455
0.64457
0.169581
0.647035
0.165258
0.650371
0.161828
0.654801
0.158128
0.660412
0.154318
0.667103
0.150538
0.674576
0.146835
0.682361
0.143198
0.689889
0.139576
0.696558
0.13589
0.701812
0.13206
0.705194
0.128008
0.706379
0.12367
0.705179
0.119638
0.701541
0.11492
0.695563
0.109756
0.687473
0.104129
0.677345
0.100056
0.665644
0.0941798
0.652559
0.0889444
0.0828662
0.63851
0.470355
-0.552496
-0.401925
0.526338
-0.430285
0.571164
-0.32451
0.606303
-0.234918
0.633217
-0.159409
0.653288
-0.0963544
0.667768
-0.0441899
0.677764
-0.00142033
0.684235
0.0333391
0.687998
0.0612379
0.68974
0.0834017
0.690061
0.101332
0.689445
0.115609
0.688295
0.126983
0.686942
0.136091
0.685659
0.143472
0.684672
0.149579
0.68416
0.154791
0.684263
0.159419
0.685087
0.163725
0.686728
0.16794
0.688561
0.163424
0.69081
0.159579
0.693614
0.155324
0.697127
0.150805
0.70149
0.146175
0.706787
0.141538
0.713016
0.136969
0.720078
0.132514
0.727781
0.128187
0.735861
0.12398
0.744008
0.119862
0.751894
0.115783
0.759243
0.112289
0.765742
0.10842
0.771151
0.104347
0.775298
0.0999822
0.778089
0.0972646
0.779424
0.0928445
0.779281
0.0890876
0.0845506
0.777597
0.500986
-0.626293
-0.427189
0.561357
-0.490657
0.60971
-0.372863
0.647627
-0.272836
0.676682
-0.188465
0.69836
-0.118032
0.714007
-0.059837
0.724811
-0.0122249
0.7318
0.02635
0.73585
0.0571888
0.737696
0.0815555
0.737977
0.101051
0.737212
0.116374
0.735829
0.128366
0.73418
0.13774
0.732556
0.145097
0.731194
0.150941
0.730292
0.155693
0.730009
0.159702
0.730475
0.163259
0.731788
0.166627
0.733296
0.161917
0.73513
0.157746
0.737305
0.153149
0.739855
0.148255
0.742833
0.143196
0.746308
0.138063
0.750344
0.132933
0.754991
0.127867
0.760265
0.122913
0.766144
0.118101
0.772562
0.113444
0.779415
0.10893
0.786605
0.1051
0.793951
0.101075
0.801272
0.0970251
0.808386
0.0928685
0.81523
0.090421
0.82155
0.0865242
0.827258
0.0833794
0.0796626
0.832146
0.534059
-0.705855
-0.454499
0.599141
-0.555739
0.651277
-0.424999
0.69217
-0.313729
0.723515
-0.21981
0.746908
-0.141426
0.763797
-0.0767258
0.775458
-0.0238861
0.782993
0.0188159
0.787339
0.0528427
0.789287
0.0796076
0.789517
0.100821
0.788582
0.117309
0.786939
0.130009
0.784962
0.139716
0.782959
0.1471
0.781179
0.152721
0.779828
0.157044
0.779074
0.160455
0.779056
0.163277
0.779887
0.165796
0.780943
0.160861
0.782349
0.15634
0.784095
0.151403
0.786163
0.146187
0.788535
0.140824
0.791203
0.135396
0.794165
0.129971
0.797427
0.124605
0.800999
0.119342
0.804887
0.114213
0.809093
0.109237
0.813606
0.104417
0.818429
0.100277
0.82351
0.0959939
0.82879
0.0917447
0.834198
0.0874608
0.839756
0.0848624
0.84531
0.0809708
0.850828
0.0778611
0.0742855
0.856205
0.569741
-0.791614
-0.483983
0.639887
-0.625886
0.696086
-0.481198
0.740172
-0.357815
0.773972
-0.253609
0.799201
-0.166655
0.817415
-0.0949399
0.829986
-0.0364569
0.838095
0.010707
0.842749
0.0481889
0.844795
0.0775619
0.844958
0.100658
0.843829
0.118438
0.841895
0.131943
0.839553
0.142058
0.837128
0.149525
0.834884
0.154964
0.833035
0.158893
0.831754
0.161737
0.83118
0.163851
0.83143
0.165546
0.831906
0.160385
0.832739
0.155507
0.833927
0.150214
0.835455
0.14466
0.837296
0.138983
0.83942
0.133271
0.841796
0.127595
0.844392
0.122009
0.847182
0.116552
0.850143
0.111252
0.853255
0.106125
0.856503
0.101169
0.859894
0.0968855
0.863402
0.0924866
0.867006
0.0881404
0.870685
0.0837827
0.874489
0.0810581
0.878342
0.077118
0.882257
0.0739463
0.0703384
0.886205
0.608216
-0.884045
-0.515786
0.683814
-0.701484
0.744384
-0.541769
0.791903
-0.405335
0.828338
-0.290044
0.855535
-0.193853
0.875167
-0.114571
0.888706
-0.0499964
0.897424
0.00198985
0.902398
0.0432146
0.904537
0.0754227
0.904616
0.100579
0.903266
0.119788
0.901006
0.134204
0.898258
0.144806
0.895366
0.152416
0.892609
0.157722
0.890209
0.161293
0.888346
0.1636
0.887162
0.165034
0.886773
0.165936
0.886599
0.160558
0.886774
0.155332
0.887301
0.149688
0.888171
0.143791
0.889366
0.137788
0.890861
0.131776
0.892626
0.12583
0.894629
0.120006
0.896835
0.114346
0.89921
0.108877
0.901723
0.103612
0.904344
0.0985485
0.907067
0.0941628
0.909857
0.089697
0.91269
0.0853081
0.915542
0.0809306
0.918457
0.0781434
0.921372
0.074204
0.9243
0.0710184
0.0674168
0.927222
0.649689
-0.983666
-0.550068
0.731161
-0.782957
0.796439
-0.607048
0.847655
-0.456551
0.886925
-0.329314
0.916237
-0.223165
0.937388
-0.135723
0.951963
-0.0645709
0.961327
-0.00737395
0.966637
0.037905
0.968866
0.0731932
0.968844
0.100602
0.967244
0.121388
0.96462
0.136828
0.961422
0.148004
0.958015
0.155824
0.954691
0.161046
0.951687
0.164298
0.949186
0.1661
0.947338
0.166883
0.946255
0.167019
0.945383
0.161431
0.94485
0.155865
0.944663
0.149874
0.944817
0.143637
0.945298
0.137307
0.946086
0.130988
0.947158
0.124759
0.948485
0.118679
0.95004
0.112792
0.95179
0.107127
0.953707
0.101696
0.95576
0.0964956
0.95794
0.0919832
0.960208
0.087429
0.962536
0.0829805
0.964895
0.0785718
0.967318
0.0757209
0.969738
0.0717843
0.972161
0.0685955
0.0650194
0.974559
0.694381
-1.09104
-0.587003
0.782191
-0.870765
0.852548
-0.677406
0.907749
-0.511753
0.950075
-0.37164
0.981665
-0.254755
1.00445
-0.158509
1.02014
-0.0802562
1.03019
-0.0174274
1.03585
0.032242
1.03817
0.0708755
1.03803
0.100744
1.03615
0.123268
1.03312
0.139855
1.02943
0.151698
1.02546
0.159798
1.02151
0.164989
1.01785
0.167964
1.01465
0.169295
1.01208
0.169454
1.01025
0.168848
1.00863
0.163054
1.00734
0.157151
1.0064
0.150814
1.00581
0.144234
1.00554
0.137572
1.00559
0.130937
1.00594
0.124414
1.00655
0.118064
1.00741
0.111933
1.00849
0.106049
1.00976
0.100427
1.01119
0.0950618
1.01278
0.0903929
1.01449
0.0857181
1.0163
0.0811772
1.01817
0.0767042
1.02013
0.0737602
1.02212
0.0697962
1.02413
0.0665769
0.0630026
1.02615
0.742536
-1.2068
-0.626783
0.837188
-0.965419
0.913031
-0.753249
0.972536
-0.57126
1.01816
-0.417266
1.05221
-0.288802
1.07676
-0.183059
1.09364
-0.0971379
1.10443
-0.0282209
1.11047
0.0262033
1.11288
0.0684693
1.1126
0.101022
1.11041
0.125457
1.10694
0.143325
1.1027
0.155936
1.09811
0.164392
1.09349
0.16961
1.0891
0.172351
1.08516
0.173242
1.08181
0.172804
1.07918
0.171479
1.07675
0.165478
1.07467
0.159237
1.07293
0.152548
1.07155
0.145616
1.07051
0.138609
1.06981
0.131645
1.06941
0.12481
1.0693
0.118171
1.06946
0.111774
1.06986
0.105649
1.07048
0.0998101
1.07129
0.0942535
1.07228
0.0894001
1.07343
0.0845746
1.07469
0.0799092
1.07606
0.0753385
1.07755
0.072269
1.07911
0.0682423
1.08073
0.0649576
0.0613496
1.08238
0.794414
-1.3316
-0.669613
0.896464
-1.06747
0.978236
-0.835022
1.0424
-0.63542
1.09159
-0.46646
1.1283
-0.325509
1.15475
-0.209516
1.17293
-0.115313
1.18452
-0.0398128
1.19096
0.0197607
1.19346
0.0659711
1.19303
0.101452
1.1905
0.127988
1.18655
0.14728
1.18171
0.160769
1.17644
0.169662
1.17109
0.174967
1.16592
0.177518
1.16116
0.178004
1.15697
0.176993
1.15348
0.174968
1.1502
0.168757
1.14727
0.16217
1.1447
0.155118
1.1425
0.147819
1.14066
0.140449
1.13917
0.133133
1.13802
0.125963
1.13718
0.119009
1.13663
0.112319
1.13636
0.105923
1.13633
0.0998373
1.13653
0.0940578
1.13694
0.0889884
1.13754
0.0839794
1.13829
0.0791562
1.13918
0.0744537
1.14022
0.0712256
1.14136
0.0671015
1.1426
0.0637169
0.0600409
1.14391
0.850302
-1.46619
-0.715715
0.960353
-1.17752
1.04854
-0.923211
1.11774
-0.70462
1.1708
-0.51952
1.21039
-0.365096
1.23891
-0.23804
1.25849
-0.134891
1.27095
-0.0522711
1.27783
0.0128802
1.28043
0.0633734
1.27983
0.102048
1.27693
0.130889
1.27245
0.151762
1.26697
0.166246
1.26097
0.175665
1.25481
0.181122
1.2488
0.183531
1.24316
0.183645
1.23807
0.182084
1.23366
0.179376
1.22947
0.172946
1.22564
0.166003
1.22218
0.158571
1.21912
0.150883
1.21645
0.143125
1.21415
0.135429
1.21222
0.127894
1.21064
0.120592
1.20938
0.113575
1.20843
0.106874
1.20776
0.100506
1.20735
0.0944674
1.20719
0.0891458
1.20726
0.0839169
1.20751
0.0788994
1.20794
0.074029
1.20856
0.0706067
1.20931
0.0663501
1.2102
0.062831
0.0590533
1.21118
0.910505
-1.61136
-0.765328
1.02922
-1.29623
1.12436
-1.01835
1.19902
-0.779281
1.25627
-0.57677
1.29899
-0.40781
1.32976
-0.26881
1.35086
-0.155995
1.36426
-0.0656727
1.37162
0.00552061
1.37433
0.0606648
1.37356
0.10282
1.37026
0.13419
1.3652
0.156815
1.35903
0.172423
1.35223
0.182463
1.34521
0.188142
1.33828
0.190458
1.3317
0.190233
1.32563
0.188145
1.32024
0.184767
1.31508
0.178105
1.3103
0.170789
1.30591
0.162956
1.30195
0.154852
1.2984
0.146675
1.29526
0.138566
1.29252
0.13063
1.29017
0.122943
1.28819
0.11556
1.28655
0.108515
1.28523
0.101824
1.28421
0.095486
1.28348
0.0898723
1.28302
0.084384
1.28278
0.0791332
1.28276
0.0740568
1.28296
0.0704029
1.28333
0.0659774
1.28388
0.0622887
0.0583757
1.28455
0.975356
-1.76801
-0.818708
1.10346
-1.42434
1.20614
-1.12103
1.28672
-0.859868
1.34853
-0.638573
1.39464
-0.453923
1.42785
-0.302024
1.45062
-0.178762
1.46505
-0.0801066
1.47294
-0.00236629
1.47578
0.0578288
1.47482
0.103779
1.47109
0.13792
1.46542
0.162483
1.45849
0.179355
1.45083
0.19012
1.44288
0.196095
1.43497
0.198369
1.42736
0.197841
1.42026
0.195249
1.41381
0.191211
1.40762
0.1843
1.40182
0.176591
1.39645
0.168329
1.39152
0.159777
1.38705
0.151146
1.38303
0.142585
1.37946
0.134206
1.37631
0.126091
1.37357
0.118299
1.37122
0.110865
1.36924
0.103808
1.36759
0.0971282
1.36629
0.0911796
1.36528
0.0853899
1.36455
0.0798652
1.36406
0.0745433
1.36385
0.0706187
1.36384
0.0659875
1.36403
0.0620935
0.0580118
1.3644
1.04521
-1.93709
-0.876132
1.18349
-1.56262
1.29435
-1.23189
1.38138
-0.946892
1.44813
-0.705326
1.49794
-0.503737
1.53382
-0.337904
1.55841
-0.203348
1.57398
-0.0956729
1.58245
-0.0108373
1.58543
0.0548443
1.58428
0.104932
1.58009
0.142109
1.57376
0.168811
1.56602
0.1871
1.55744
0.198703
1.54848
0.205055
1.5395
0.207345
1.53079
0.20655
1.52257
0.203474
1.51499
0.198787
1.50769
0.191606
1.5008
0.183478
1.49438
0.174755
1.48844
0.165717
1.48299
0.15659
1.47804
0.147533
1.47359
0.138666
1.4696
0.130078
1.46607
0.121829
1.46298
0.113959
1.46029
0.10649
1.458
0.0994209
1.45609
0.093092
1.45452
0.086957
1.45327
0.081116
1.45231
0.0755082
1.45165
0.0712723
1.45124
0.0663985
1.45107
0.0622631
0.0579791
1.45111
1.12045
-2.11965
-0.937892
1.26979
-1.71196
1.38953
-1.35163
1.48355
-1.04092
1.5557
-0.777468
1.60954
-0.557586
1.64834
-0.376696
1.67492
-0.229927
1.69173
-0.112486
1.70085
-0.0199582
1.70401
0.0516848
1.70266
0.106281
1.69799
0.146783
1.69095
0.175848
1.68233
0.195721
1.67275
0.208284
1.6627
0.215102
1.65258
0.217469
1.64268
0.216447
1.63325
0.21291
1.62446
0.207583
1.61596
0.200105
1.60791
0.191528
1.60036
0.182307
1.59333