/*--------------------------------*- C++ -*----------------------------------*\
| =========                 |                                                 |
| \\      /  F ield         | OpenFOAM: The Open Source CFD Toolbox           |
|  \\    /   O peration     | Version:  5.x                                   |
|   \\  /    A nd           | Web:      www.OpenFOAM.org                      |
|    \\/     M anipulation  |                                                 |
\*---------------------------------------------------------------------------*/
FoamFile
{
    version     2.0;
    format      ascii;
    class       surfaceScalarField;
    location    "450";
    object      phi;
}
// * * * * * * * * * * * * * * * * * * * * * * * * * * * * * * * * * * * * * //

dimensions      [0 3 -1 0 0 0 0];

internalField   nonuniform List<scalar> 
21876
(
0.0302859
-0.00418762
-0.0260965
0.0395615
-0.00927554
0.0396427
-8.1271e-05
0.0400796
-0.00043684
0.0383058
0.00177381
0.0354955
0.00281028
0.0324069
0.00308865
0.0293444
0.00306247
0.0263757
0.00296872
0.0232238
0.00315192
0.0195733
0.00365052
0.0167011
0.00287225
0.0149021
0.00179906
0.0135734
0.00132886
0.0119825
0.00159123
0.0102138
0.00176893
0.00825291
0.00196114
0.00611085
0.00214237
0.00380243
0.00230767
0.00153364
0.00226809
-0.000354053
0.00188723
-0.00147675
0.00112238
-0.00224079
0.000763882
-0.00269717
0.000456088
-0.00295337
0.000256133
-0.00308898
0.00013535
-0.00316891
7.99183e-05
-0.0032388
6.97283e-05
-0.0033244
8.56719e-05
-0.00344205
0.000117652
-0.00360341
0.000161416
-0.00381705
0.000213635
-0.00407743
0.000260378
-0.00435236
0.000274902
-0.00457342
0.000221087
-0.0046175
4.40399e-05
-0.00433714
-0.000280304
-0.0037181
-0.000619087
-0.00314514
-0.000573034
-0.00132931
-0.00181566
-0.00880472
0.00747544
0.0366731
-0.0105451
-0.0303156
0.0443469
-0.0169493
0.0464194
-0.00215377
0.0479938
-0.00201118
0.0486484
0.00111922
0.0482395
0.00321915
0.0468538
0.00447442
0.0446364
0.00527991
0.0418257
0.00577948
0.0384324
0.0065453
0.0342676
0.00781531
0.0301843
0.00695562
0.026725
0.00525837
0.0237929
0.00426112
0.0209984
0.00438605
0.0182653
0.00450263
0.0154092
0.00481842
0.0123059
0.00524708
0.00893561
0.00567746
0.00540642
0.00579562
0.00202941
0.00526283
-0.000120874
0.00327179
-0.00158444
0.00222701
-0.00252731
0.00139865
-0.00311422
0.00084285
-0.0034837
0.000504487
-0.00374676
0.000342837
-0.00397054
0.000293396
-0.00419174
0.000306966
-0.00443079
0.000356773
-0.00469387
0.000424553
-0.00497718
0.000496938
-0.00526114
0.000544291
-0.005507
0.000520681
-0.00566
0.000373969
-0.00564248
2.63998e-05
-0.0052888
-0.000633855
-0.00437663
-0.00153103
-0.00277723
-0.00217237
-0.000305357
-0.00428753
-0.0151153
0.00600515
0.0429579
-0.017862
-0.035641
0.0497673
-0.0237587
0.0539089
-0.0062954
0.0560749
-0.00417715
0.0569979
0.000196292
0.0568612
0.00335584
0.0559378
0.00539776
0.0543667
0.00685102
0.0522262
0.00792004
0.0494591
0.00931239
0.0458458
0.0114287
0.0419171
0.0108843
0.0381564
0.00901906
0.0345561
0.0078615
0.0309118
0.0080304
0.0272823
0.00813213
0.0235642
0.00853613
0.0196133
0.00919762
0.0153151
0.00997545
0.0106661
0.010445
0.00593158
0.00999774
0.00260996
0.00659365
0.000140375
0.00469667
-0.00154885
0.00308779
-0.00266033
0.00195434
-0.00340149
0.00124564
-0.00392757
0.000869026
-0.00433531
0.000701136
-0.00468751
0.000659225
-0.00502204
0.000691285
-0.00535718
0.000759721
-0.00570002
0.000839782
-0.00604395
0.000888243
-0.0063618
0.000838547
-0.0065973
0.000609565
-0.00664416
7.33442e-05
-0.00631043
-0.000967543
-0.00530763
-0.00253388
-0.00334346
-0.00413656
-0.00051254
-0.00711844
-0.0197652
0.0041374
0.0498977
-0.0259778
-0.0417818
0.0566258
-0.0304868
0.0618273
-0.0114969
0.0647787
-0.00712855
0.0662665
-0.00129148
0.0665282
0.00309418
0.0657904
0.00613559
0.064315
0.00832644
0.0623006
0.00993443
0.0597813
0.0118318
0.0565958
0.0146142
0.0530734
0.0144067
0.0496027
0.0124899
0.0461099
0.0113544
0.0423294
0.011811
0.0382926
0.0121692
0.0339754
0.0128538
0.029286
0.0138873
0.0241047
0.0151567
0.018341
0.0162084
0.0121268
0.0162115
0.00733906
0.0113812
0.0034101
0.0086254
0.000534785
0.00596287
-0.00143005
0.00391899
-0.00276109
0.00257653
-0.00369075
0.00179866
-0.00437841
0.0013888
-0.00492772
0.00120858
-0.00540234
0.00116595
-0.00584416
0.00120157
-0.00628162
0.00127724
-0.00672566
0.00133227
-0.00715729
0.00127015
-0.00751379
0.000966071
-0.00767173
0.000231344
-0.00742678
-0.00121234
-0.00645258
-0.00350797
-0.00439028
-0.00619885
-0.00135862
-0.0101501
-0.0233288
0.00220495
0.0575483
-0.0348648
-0.0486613
0.0645673
-0.0375059
0.0706261
-0.0175557
0.0747038
-0.0112063
0.0771333
-0.00372094
0.0781413
0.00208612
0.077877
0.00639996
0.076582
0.00962147
0.0745303
0.0119861
0.0718725
0.0144896
0.0685996
0.0178871
0.065029
0.0179773
0.0615832
0.0159357
0.0582351
0.0147026
0.0546732
0.015373
0.050776
0.0160664
0.0464457
0.0171839
0.0415354
0.0187974
0.0358745
0.0208174
0.0292787
0.0228045
0.021706
0.0237845
0.0153055
0.0177819
0.0094577
0.0144732
0.00473483
0.0106857
0.00129476
0.00735906
-0.00107542
0.00494673
-0.00270787
0.00343117
-0.00387576
0.00255672
-0.00475672
0.00208957
-0.00546344
0.00187267
-0.00607522
0.00181336
-0.00665123
0.00185326
-0.00722895
0.00191001
-0.00780695
0.00184818
-0.00832672
0.0014859
-0.00865874
0.000563443
-0.00859332
-0.00127775
-0.00779001
-0.00431131
-0.00586499
-0.00812387
-0.00284574
-0.0131694
-0.026125
-4.94935e-05
0.0660101
-0.0445932
-0.0562817
0.0736163
-0.0451121
0.0804956
-0.024435
0.0857079
-0.0164186
0.08923
-0.007243
0.0912044
0.000111749
0.0917408
0.0058636
0.0909904
0.0103718
0.0891994
0.0137771
0.0865542
0.0171349
0.0831351
0.0213062
0.079265
0.0218475
0.0754514
0.0197494
0.0718364
0.0183177
0.0682351
0.0189744
0.0644863
0.0198152
0.0604413
0.021229
0.0558633
0.0233754
0.0504412
0.0262396
0.0437835
0.0294622
0.0355491
0.0320189
0.0278598
0.0254711
0.0199697
0.0223632
0.0127803
0.017875
0.00698317
0.0131561
0.00273859
0.00919125
-0.000221288
0.00639102
-0.00229251
0.00462793
-0.0037915
0.00358857
-0.00492529
0.00300647
-0.00583649
0.00272458
-0.00663073
0.00264751
-0.00738787
0.00266715
-0.00814519
0.00260551
-0.00887237
0.00221311
-0.00945245
0.00114357
-0.00968287
-0.00104727
-0.00923476
-0.00475938
-0.00772093
-0.00963768
-0.0050303
-0.01586
-0.0282656
-0.00288971
0.0754191
-0.0553372
-0.0646752
0.0838957
-0.0535887
0.0916689
-0.0322082
0.0979913
-0.022741
0.102675
-0.0119269
0.105756
-0.00296858
0.107297
0.00432216
0.107383
0.0102855
0.106193
0.0149676
0.103902
0.0194256
0.100615
0.0245939
0.0965951
0.025867
0.0923683
0.0239762
0.0882324
0.0224536
0.0842035
0.0230033
0.0802123
0.0238065
0.076189
0.0252522
0.0719607
0.0276036
0.0671995
0.0310008
0.0613541
0.0353078
0.0537039
0.0396692
0.0458006
0.0333745
0.03662
0.0315439
0.0269966
0.0274983
0.0180984
0.0220543
0.0108217
0.016468
0.00540879
0.0118039
0.00156748
0.00846925
-0.00115707
0.00631313
-0.00314163
0.00499104
-0.00464354
0.00422649
-0.00584629
0.00385026
-0.0068966
0.00371748
-0.00789923
0.00360816
-0.00888657
0.00320049
-0.00978956
0.0020466
-0.0104473
-0.000389496
-0.0105779
-0.00462881
-0.00980196
-0.0104136
-0.0078781
-0.0177839
-0.0296463
-0.00649745
0.0859385
-0.0673718
-0.0739039
0.0955795
-0.0632297
0.104402
-0.041031
0.11185
-0.0301887
0.117725
-0.0178019
0.121999
-0.00724296
0.124678
0.00164357
0.12581
0.00915377
0.125497
0.0152799
0.123892
0.0210308
0.121095
0.0273913
0.117277
0.0296848
0.112895
0.028358
0.108325
0.0270242
0.103757
0.027571
0.0992416
0.028322
0.0948226
0.0296712
0.0904942
0.031932
0.0861184
0.0353766
0.0812881
0.0401382
0.0751816
0.0457758
0.068486
0.0400701
0.0597893
0.0402405
0.0492208
0.0380667
0.0377214
0.0335538
0.0267063
0.027483
0.0173874
0.0211228
0.0102435
0.0156131
0.00505534
0.0115013
0.00132331
0.00872307
-0.00140561
0.00695543
-0.00346285
0.0059075
-0.0051016
0.00535626
-0.00653172
0.0050383
-0.00789489
0.0045637
-0.00922085
0.00337258
-0.0104448
0.000834517
-0.0113882
-0.00368539
-0.0117105
-0.0100913
-0.011101
-0.0183933
-0.0298887
-0.0108586
0.0977732
-0.0810653
-0.0840797
0.108909
-0.0743652
0.119007
-0.051129
0.127666
-0.0388475
0.134758
-0.0248949
0.140256
-0.0127409
0.144146
-0.0022465
0.146455
0.00684497
0.147227
0.0145085
0.14658
0.0216773
0.144603
0.0293686
0.14137
0.0329177
0.137222
0.0325058
0.132534
0.031712
0.127614
0.0324916
0.122611
0.0333255
0.117646
0.0346353
0.112843
0.0367359
0.108272
0.0399472
0.103864
0.0445463
0.0991294
0.0505104
0.094273
0.0449265
0.0877232
0.0467904
0.078737
0.047053
0.0672282
0.0450625
0.0540167
0.0406945
0.0406196
0.0345199
0.0286067
0.0276261
0.018914
0.021194
0.011622
0.016015
0.00628503
0.0122924
0.00236988
0.00982266
-0.000562801
0.00828895
-0.00288915
0.00736468
-0.00492911
0.0066037
-0.00688354
0.00532703
-0.00885829
0.00280928
-0.0108494
-0.00169425
-0.012623
-0.00831769
-0.0139002
-0.0171161
-0.0283827
-0.0154063
0.111181
-0.096878
-0.0953685
0.124199
-0.0873832
0.135865
-0.0627945
0.1459
-0.0488829
0.154279
-0.0332733
0.161022
-0.019484
0.166152
-0.00737639
0.16969
0.00330624
0.171662
0.0125373
0.172162
0.0211766
0.171263
0.0302676
0.168952
0.0352286
0.165441
0.0360177
0.161048
0.0361046
0.156131
0.0374089
0.150914
0.0385421
0.145571
0.0399784
0.140282
0.0420246
0.135226
0.0450035
0.130568
0.0492048
0.126256
0.0548223
0.122609
0.0485731
0.118318
0.0510817
0.112386
0.0529847
0.103861
0.0535881
0.0922959
0.0522592
0.0781159
0.0487
0.0626204
0.0431216
0.0475446
0.0362698
0.0343751
0.0291845
0.023838
0.0228295
0.015872
0.0177887
0.00998335
0.0141776
0.00557511
0.0117729
0.00206881
0.01011
-0.00101455
0.0084104
-0.00408354
0.00587827
-0.0074182
0.00164042
-0.0109785
-0.00475741
-0.0146217
-0.0134729
-0.0244296
-0.0185747
0.126487
-0.115369
-0.107996
0.141852
-0.102748
0.155452
-0.076394
0.167114
-0.0605453
0.176917
-0.0430762
0.184963
-0.0275303
0.191343
-0.0137556
0.196113
-0.00146438
0.199313
0.00933719
0.201045
0.0194452
0.201377
0.0299356
0.200231
0.0363739
0.197698
0.0385511
0.194015
0.039788
0.189521
0.0419027
0.184479
0.0435836
0.179104
0.0453541
0.173605
0.0475236
0.168195
0.0504127
0.163111
0.0542896
0.158533
0.0594002
0.155081
0.0520251
0.151853
0.0543098
0.148256
0.0565817
0.143365
0.0584785
0.136127
0.0594972
0.12573
0.0590973
0.112017
0.0568345
0.0957012
0.0525857
0.0782246
0.0466611
0.0613089
0.0397452
0.0463985
0.0326991
0.0342675
0.0263086
0.0249298
0.0211107
0.0178265
0.0172133
0.0121942
0.0140427
0.00716208
0.0109104
0.00195394
0.00684856
-0.00379235
0.000988903
-0.010192
-0.00707324
-0.0174065
-0.0172151
0.144099
-0.137211
-0.122257
0.162371
-0.121021
0.178358
-0.0923811
0.191988
-0.0741751
0.203441
-0.0545288
0.212913
-0.0370024
0.22058
-0.0214225
0.226578
-0.00746276
0.230982
0.00493397
0.233933
0.0164933
0.235529
0.0283399
0.235663
0.03624
0.234333
0.0398808
0.231695
0.0424266
0.228025
0.0455722
0.223575
0.048034
0.218577
0.0503524
0.213261
0.0528389
0.207861
0.0558134
0.202614
0.0595362
0.197758
0.0642562
0.19405
0.0557331
0.190849
0.0575105
0.188007
0.0594247
0.185124
0.0613606
0.181498
0.0631234
0.176161
0.0644348
0.168109
0.0648859
0.156659
0.0640361
0.141758
0.0615618
0.124111
0.0573929
0.105037
0.0517729
0.0861418
0.0452036
0.0688698
0.0383827
0.0541143
0.0319688
0.0421625
0.0259945
0.0323976
0.0206753
0.023629
0.0156172
0.014831
0.00978684
0.00521306
0.00254475
-0.00664634
-0.00554709
0.164522
-0.163212
-0.13852
0.186378
-0.142877
0.205311
-0.111314
0.221348
-0.0902116
0.234772
-0.0679525
0.245879
-0.0481097
0.254942
-0.0304859
0.262194
-0.0147143
0.267771
-0.000642731
0.271885
0.0123796
0.274683
0.0255411
0.27608
0.0348432
0.276029
0.0399316
0.274629
0.0438271
0.272082
0.048119
0.268588
0.0515285
0.264364
0.0545763
0.259641
0.0575617
0.254661
0.0607935
0.249668
0.0645294
0.244905
0.0690193
0.241086
0.0595519
0.237724
0.0608721
0.234837
0.0623123
0.232372
0.0638257
0.230142
0.0653529
0.227732
0.0668454
0.224441
0.0681761
0.219359
0.069118
0.211568
0.069353
0.200423
0.0685378
0.18579
0.0664059
0.168144
0.0628504
0.148457
0.0580695
0.127951
0.0524747
0.108074
0.0458711
0.0897695
0.0389801
0.073136
0.0322507
0.05781
0.0251129
0.0428972
0.0174576
0.00882209
0.0274287
0.18838
-0.194347
-0.157245
0.214642
-0.169139
0.237204
-0.133876
0.256199
-0.109206
0.272019
-0.0837727
0.285067
-0.0611577
0.295721
-0.0411399
0.304315
-0.0233082
0.311081
-0.00740861
0.316303
0.00715767
0.320207
0.0216374
0.322763
0.0322867
0.323934
0.0387611
0.323801
0.0439602
0.322514
0.049406
0.320212
0.0538306
0.317071
0.0577168
0.313297
0.0613363
0.309117
0.0649735
0.304774
0.0688721
0.300519
0.0732742
0.296917
0.0631537
0.293673
0.0641168
0.29082
0.0651648
0.28838
0.0662659
0.286359
0.0673741
0.284716
0.0684884
0.28329
0.0696022
0.281718
0.07069
0.279399
0.0716715
0.275552
0.0723845
0.269363
0.072595
0.260184
0.07203
0.247679
0.0705744
0.231867
0.0682866
0.213347
0.064391
0.192907
0.0594201
0.171172
0.0539857
0.148879
0.0474057
0.126239
0.0400977
0.03185
0.103211
0.216443
-0.231792
-0.178998
0.248104
-0.2008
0.275129
-0.160901
0.297763
-0.131841
0.316521
-0.102531
0.331921
-0.0765578
0.344457
-0.0536754
0.354573
-0.033424
0.362609
-0.0154448
0.368933
0.000833668
0.373862
0.0167078
0.377452
0.0286977
0.37971
0.0365026
0.380745
0.042925
0.380691
0.0494608
0.379646
0.054875
0.377747
0.0596162
0.375156
0.0639276
0.372067
0.0680626
0.368699
0.0722399
0.365294
0.0766786
0.362187
0.0662611
0.359349
0.0669552
0.35683
0.0676831
0.354655
0.0684411
0.352836
0.0691928
0.351392
0.0699327
0.350341
0.070653
0.34967
0.0713609
0.349275
0.072067
0.348897
0.0727617
0.348098
0.0733945
0.346277
0.073851
0.342749
0.0741023
0.336822
0.0742133
0.32803
0.0731838
0.31611
0.0713396
0.300878
0.0692176
0.282564
0.0657195
0.261388
0.0612744
0.055614
0.237624
0.249647
-0.276972
-0.204467
0.287914
-0.239067
0.320416
-0.193403
0.347526
-0.158951
0.369897
-0.124901
0.388177
-0.0948385
0.40299
-0.068488
0.414902
-0.0453361
0.424372
-0.0249143
0.431868
-0.00666298
0.437801
0.0107746
0.442326
0.0241727
0.445529
0.0332999
0.447572
0.0408822
0.448609
0.0484241
0.448736
0.0547479
0.448066
0.0602857
0.44673
0.065264
0.444881
0.0699117
0.442699
0.074422
0.440393
0.0789843
0.437982
0.0686725
0.435743
0.0691938
0.433756
0.0696704
0.432064
0.0701327
0.430687
0.0705706
0.429628
0.0709914
0.428894
0.0713866
0.428503
0.0717526
0.428476
0.0720937
0.428821
0.0724161
0.429492
0.0727235
0.430344
0.0729995
0.431101
0.0733451
0.431342
0.0739726
0.430552
0.0739738
0.428163
0.0737284
0.423545
0.0738355
0.41621
0.0730542
0.405808
0.0716773
0.0695842
0.391837
0.289102
-0.331609
-0.234466
0.335442
-0.285406
0.374658
-0.232619
0.40727
-0.191563
0.434088
-0.151719
0.455916
-0.116666
0.473521
-0.0860939
0.487612
-0.0594266
0.498777
-0.0360792
0.5076
-0.0154862
0.514591
0.00378345
0.520018
0.0187458
0.524059
0.0292589
0.52695
0.0379911
0.528894
0.0464804
0.530015
0.0536272
0.530433
0.0598678
0.530266
0.0654307
0.529642
0.0705355
0.528704
0.0753598
0.527619
0.0800691
0.526026
0.0702659
0.52451
0.0707101
0.523164
0.0710164
0.522053
0.071243
0.521218
0.0714062
0.520674
0.0715355
0.520422
0.0716385
0.520455
0.0717194
0.520768
0.0717811
0.521361
0.0718223
0.522246
0.0718394
0.523426
0.0718195
0.524882
0.0718887
0.526542
0.0723129
0.528259
0.0722569
0.52979
0.072197
0.530784
0.0728416
0.530802
0.0730364
0.529434
0.0730452
0.0731043
0.525914
0.305035
-0.391565
-0.245079
0.355934
-0.336306
0.398903
-0.275588
0.43456
-0.22722
0.463811
-0.18097
0.487548
-0.140403
0.506623
-0.105169
0.521821
-0.074625
0.533813
-0.0480712
0.543242
-0.024915
0.550673
-0.00364749
0.556452
0.0129664
0.560834
0.0248775
0.564108
0.0347172
0.566518
0.0440698
0.568225
0.0519209
0.569366
0.0587269
0.570061
0.0647349
0.570425
0.0701714
0.570571
0.0752139
0.570622
0.080018
0.569897
0.0709915
0.569181
0.0714256
0.56856
0.0716376
0.568098
0.0717054
0.56784
0.0716643
0.567814
0.0715613
0.568033
0.0714199
0.568494
0.0712584
0.569184
0.0710904
0.570085
0.0709211
0.571176
0.0707485
0.572439
0.070557
0.573859
0.0704687
0.575423
0.0707486
0.577118
0.0705617
0.578911
0.0704042
0.580737
0.0710158
0.582482
0.0712912
0.584027
0.0714999
0.0720809
0.585051
0.3173
-0.456062
-0.252802
0.372091
-0.391097
0.418263
-0.32176
0.456523
-0.26548
0.487855
-0.212303
0.513225
-0.165772
0.533553
-0.125498
0.549691
-0.0907627
0.562374
-0.0607539
0.572292
-0.0348336
0.580057
-0.0114118
0.586071
0.00695202
0.590647
0.0203011
0.594117
0.0312481
0.596757
0.0414296
0.59876
0.0499178
0.600288
0.0571992
0.601473
0.0635493
0.602431
0.0692136
0.603265
0.0743802
0.604075
0.0792082
0.603959
0.0711072
0.603826
0.0715588
0.603746
0.0717172
0.603776
0.0716754
0.603957
0.0714831
0.604318
0.0712003
0.604876
0.0708623
0.605636
0.0704987
0.606593
0.0701331
0.607734
0.0697797
0.609039
0.0694441
0.61048
0.0691161
0.612028
0.0689205
0.613653
0.0691231
0.615333
0.0688826
0.617045
0.0686913
0.618775
0.0692865
0.620509
0.069557
0.622249
0.06976
0.0703723
0.623957
0.331933
-0.525508
-0.262487
0.390955
-0.450119
0.440633
-0.371438
0.481758
-0.306605
0.515397
-0.245941
0.542591
-0.192966
0.564336
-0.147243
0.581549
-0.107975
0.59503
-0.0742354
0.605521
-0.0453246
0.613676
-0.019567
0.619954
0.000674664
0.624717
0.0155376
0.628333
0.027632
0.631112
0.0386505
0.633276
0.0477536
0.635011
0.0554644
0.636466
0.0620941
0.637766
0.0679144
0.639013
0.0731328
0.640301
0.0779204
0.640575
0.0708336
0.640824
0.0713093
0.64111
0.0714307
0.641482
0.0713035
0.641976
0.0709895
0.642617
0.070559
0.643422
0.0700572
0.644399
0.0695219
0.645548
0.0689844
0.646862
0.0684656
0.648329
0.067977
0.649932
0.0675136
0.651648
0.0672045
0.653452
0.0673182
0.65532
0.0670154
0.657225
0.0667859
0.659146
0.0673653
0.661069
0.0676341
0.662992
0.0678375
0.0684488
0.664915
0.348772
-0.600329
-0.273951
0.412386
-0.513733
0.465885
-0.424937
0.510145
-0.350865
0.546319
-0.282115
0.575531
-0.222178
0.598853
-0.170565
0.617273
-0.126395
0.631661
-0.0886232
0.64281
-0.0564735
0.651421
-0.0281783
0.658005
-0.00590911
0.662971
0.010571
0.666722
0.0238815
0.669598
0.0357747
0.67185
0.045501
0.673689
0.0536259
0.675282
0.0605011
0.676766
0.0664304
0.678252
0.0716467
0.679833
0.0763395
0.680346
0.0703211
0.680838
0.0708163
0.681366
0.0709028
0.681972
0.0706977
0.682688
0.0702739
0.683536
0.0697106
0.684532
0.069061
0.685684
0.06837
0.686993
0.0676751
0.688457
0.0670019
0.690068
0.0663664
0.691815
0.0657667
0.693685
0.0653342
0.695664
0.0653389
0.697734
0.0649454
0.699878
0.0646417
0.702082
0.0651622
0.704329
0.065387
0.706611
0.0655555
0.0661401
0.708919
0.367752
-0.680983
-0.287098
0.436347
-0.582327
0.494003
-0.482593
0.541683
-0.398545
0.580631
-0.321063
0.612059
-0.253606
0.637123
-0.195628
0.656886
-0.146158
0.672289
-0.104027
0.684183
-0.0683675
0.693319
-0.0373142
0.700259
-0.0128486
0.705457
0.00537301
0.709349
0.0199895
0.712307
0.0328167
0.71461
0.043197
0.716493
0.0517435
0.718142
0.0588522
0.719709
0.0648632
0.721316
0.0700394
0.723062
0.0745936
0.723704
0.0696789
0.724338
0.0701828
0.725014
0.0702271
0.725771
0.0699402
0.72664
0.0694055
0.72764
0.0687102
0.728786
0.0679151
0.730085
0.067071
0.73154
0.0662203
0.733148
0.065393
0.734907
0.0646082
0.736807
0.0638666
0.738841
0.0633003
0.741
0.0631792
0.743273
0.0626732
0.745647
0.0622669
0.748118
0.0626915
0.750674
0.0628309
0.753309
0.0629207
0.063434
0.756015
0.388872
-0.767964
-0.301891
0.462868
-0.656323
0.525042
-0.544767
0.576444
-0.449948
0.61842
-0.363039
0.652275
-0.287461
0.679253
-0.222606
0.7005
-0.167405
0.717032
-0.120559
0.729761
-0.0810969
0.739493
-0.0470461
0.746841
-0.0201968
0.752306
-9.14188e-05
0.756357
0.015938
0.759399
0.029775
0.761739
0.0408574
0.763632
0.0498498
0.765288
0.0571968
0.766873
0.0632783
0.768522
0.0683903
0.770343
0.0727728
0.771033
0.0689883
0.771728
0.0694883
0.772477
0.0694783
0.773318
0.0690988
0.77428
0.0684434
0.775383
0.0676075
0.776639
0.0666586
0.778057
0.0656533
0.779639
0.0646385
0.781384
0.0636477
0.78329
0.0627028
0.78535
0.0618066
0.787558
0.0610916
0.789911
0.0608263
0.792397
0.0601879
0.795008
0.0596562
0.797742
0.0599572
0.800591
0.0599817
0.80355
0.0599617
0.0603687
0.806615
0.412174
-0.861806
-0.318331
0.492027
-0.736176
0.559108
-0.611849
0.614561
-0.505401
0.659837
-0.408315
0.696343
-0.323967
0.72542
-0.251683
0.748299
-0.190285
0.766079
-0.138339
0.779739
-0.0947565
0.790142
-0.0574488
0.797955
-0.0280101
0.803726
-0.00586229
0.807961
0.0117027
0.811097
0.0266394
0.813469
0.0384853
0.815357
0.0479615
0.816989
0.0555645
0.81855
0.0617174
0.820188
0.0667525
0.822021
0.0709397
0.8227
0.068309
0.823396
0.0687931
0.824158
0.0687155
0.825028
0.0682294
0.826032
0.0674389
0.827192
0.0664478
0.82852
0.0653305
0.830024
0.0641491
0.831708
0.0629548
0.833571
0.0617845
0.835611
0.0606628
0.837823
0.0595943
0.840204
0.0587114
0.842749
0.0582805
0.845449
0.0574885
0.848296
0.0568091
0.851292
0.0569614
0.854427
0.0568464
0.857697
0.056692
0.0569665
0.861099
0.437735
-0.963091
-0.33645
0.523942
-0.822382
0.596353
-0.68426
0.656212
-0.565261
0.705083
-0.457186
0.744483
-0.363366
0.775855
-0.283055
0.800528
-0.214958
0.819683
-0.157494
0.834374
-0.109447
0.845527
-0.0686015
0.853865
-0.0363487
0.859986
-0.0119828
0.864433
0.0072553
0.867678
0.0233946
0.870086
0.0360775
0.871961
0.0460862
0.873552
0.0539733
0.875061
0.0602084
0.876651
0.0651629
0.878452
0.069139
0.879075
0.0676856
0.879725
0.0681435
0.880455
0.0679853
0.881307
0.0673773
0.882311
0.0664353
0.883487
0.0652716
0.88485
0.0639677
0.886407
0.0625915
0.888164
0.0611984
0.890119
0.0598289
0.892272
0.0585099
0.894618
0.0572483
0.897154
0.0561758
0.899878
0.0555565
0.902778
0.0545885
0.905848
0.0537391
0.909091
0.0537184
0.912497
0.0534406
0.916059
0.0531295
0.0532486
0.919777
0.465661
-1.07245
-0.356302
0.558763
-0.915484
0.636964
-0.762461
0.701615
-0.629912
0.754402
-0.509973
0.796959
-0.405924
0.830842
-0.316938
0.85748
-0.241596
0.878149
-0.178163
0.893979
-0.125278
0.905967
-0.0805888
0.914895
-0.0452772
0.921412
-0.0184992
0.926103
0.00256431
0.929476
0.0200217
0.931927
0.0336262
0.933787
0.0442265
0.935325
0.0524349
0.936762
0.0587712
0.938276
0.0636487
0.940011
0.0674047
0.940543
0.067153
0.94111
0.0675768
0.941769
0.0673258
0.942566
0.0665811
0.943531
0.0654704
0.944687
0.0641152
0.94605
0.0626049
0.947628
0.061013
0.949427
0.0593998
0.951447
0.0578091
0.953686
0.0562707
0.956141
0.0547935
0.958808
0.0535088
0.961687
0.0526775
0.964764
0.0515112
0.968034
0.0504695
0.9715
0.0502522
0.975151
0.0497896
0.978979
0.0493009
0.0492435
0.982985
0.496083
-1.19057
-0.377961
0.596669
-1.01607
0.681163
-0.846955
0.751027
-0.699776
0.808079
-0.567025
0.854081
-0.451926
0.890708
-0.353565
0.9195
-0.270387
0.941832
-0.200495
0.95892
-0.142366
0.971834
-0.0935026
0.981421
-0.0548648
0.988384
-0.025462
0.993353
-0.00240486
0.996876
0.0164994
0.99938
0.0311216
1.00122
0.0423822
1.0027
0.0509579
1.00405
0.057422
1.00547
0.062233
1.00711
0.0657657
1.00752
0.0667415
1.00797
0.0671254
1.00852
0.0667712
1.00923
0.0658753
1.01012
0.0645788
1.01122
0.0630131
1.01255
0.0612756
1.01412
0.0594465
1.01593
0.0575908
1.01798
0.0557561
1.02028
0.0539751
1.02281
0.0522593
1.02558
0.0507392
1.02858
0.0496723
1.03181
0.0482855
1.03525
0.0470298
1.03891
0.0465933
1.04277
0.0459247
1.04684
0.0452387
0.0449848
1.0511
0.529153
-1.31821
-0.401516
0.63787
-1.12479
0.729204
-0.93829
0.804741
-0.775313
0.866441
-0.628725
0.916201
-0.501686
0.955828
-0.393191
0.986979
-0.301539
1.01114
-0.224654
1.02961
-0.16084
1.04355
-0.107442
1.05387
-0.0651871
1.06134
-0.0329258
1.06662
-0.0076898
1.07032
0.0128045
1.07289
0.0285525
1.07472
0.0405523
1.07613
0.0495498
1.07737
0.0561759
1.07867
0.0609376
1.08018
0.0642497
1.08044
0.0664793
1.08075
0.0668203
1.08117
0.0663539
1.08175
0.0652938
1.08253
0.063795
1.08355
0.062
1.08481
0.0600148
1.08633
0.0579266
1.08811
0.0558056
1.09016
0.0537038
1.09248
0.0516571
1.09506
0.0496795
1.0979
0.0479008
1.101
0.0465749
1.10434
0.0449455
1.10791
0.0434545
1.11173
0.0427768
1.11577
0.0418819
1.12003
0.0409795
0.0405105
1.12451
0.565046
-1.45618
-0.427073
0.682598
-1.24234
0.781374
-1.03707
0.863088
-0.857026
0.929853
-0.69549
0.983717
-0.55555
1.02662
-0.436098
1.06036
-0.335275
1.08653
-0.25082
1.10653
-0.180841
1.1216
-0.122518
1.13274
-0.0763264
1.14077
-0.0409502
1.14641
-0.0133312
1.1503
0.00891187
1.15295
0.0259067
1.15476
0.0387357
1.15609
0.0482189
1.15722
0.0550493
1.15837
0.0597856
1.15974
0.0628858
1.15982
0.0663956
1.15995
0.0666932
1.16019
0.0661081
1.16061
0.0648721
1.16125
0.0631558
1.16214
0.0611131
1.1633
0.0588601
1.16473
0.0564912
1.16645
0.0540826
1.16847
0.0516907
1.17077
0.0493551
1.17336
0.0470926
1.17622
0.0450326
1.17937
0.0434246
1.18279
0.041531
1.18646
0.039784
1.19039
0.0388436
1.19457
0.0377027
1.19899
0.0365655
0.0358633
1.20363
0.603958
-1.60539
-0.454749
0.731119
-1.3695
0.837993
-1.14394
0.926435
-0.945469
0.998726
-0.767781
1.05707
-0.613895
1.10357
-0.482593
1.14014
-0.371846
1.16851
-0.27919
1.19019
-0.202526
1.20652
-0.138849
1.21857
-0.088373
1.22722
-0.0496003
1.23326
-0.0193732
1.23738
0.00479445
1.24011
0.0231718
1.24192
0.036932
1.24316
0.0469752
1.24415
0.0540607
1.24513
0.0588032
1.24631
0.061707
1.24618
0.0665222
1.2461
0.0667792
1.24614
0.0660709
1.24636
0.0646493
1.24681
0.0627014
1.24753
0.0603942
1.24854
0.0578541
1.24984
0.0551836
1.25146
0.0524654
1.25339
0.0497609
1.25563
0.0471136
1.25818
0.0445437
1.26104
0.0421798
1.26419
0.0402672
1.26764
0.0380882
1.27135
0.0360648
1.27536
0.0348409
1.27963
0.0334346
1.28415
0.0320449
0.0310918
1.28892
0.646107
-1.76682
-0.484679
0.783723
-1.50712
0.899417
-1.25963
0.995195
-1.04125
1.07352
-0.846102
1.13676
-0.677137
1.18718
-0.533016
1.22686
-0.411525
1.25765
-0.309982
1.28119
-0.226064
1.29891
-0.156567
1.31196
-0.101426
1.32131
-0.0589479
1.3278
-0.0258642
1.33217
0.000423335
1.33501
0.0203349
1.3368
0.0351422
1.33794
0.045831
1.33877
0.0532325
1.33955
0.0580215
1.34051
0.0607518
1.34014
0.0668954
1.3398
0.0671178
1.33958
0.0662848
1.33956
0.0646699
1.33979
0.0624783
1.34029
0.0598909
1.3411
0.0570454
1.34223
0.0540534
1.34369
0.0510045
1.34548
0.0479657
1.34761
0.0449846
1.35007
0.0420853
1.35286
0.0393956
1.35597
0.0371561
1.35938
0.0346713
1.3631
0.0323516
1.36711
0.0308238
1.37141
0.0291335
1.37599
0.0274737
0.0262526
1.38082
0.691733
-1.94154
-0.517006
0.840735
-1.65612
0.96604
-1.38494
1.06982
-1.14503
1.15473
-0.931008
1.22332
-0.745735
1.27805
-0.587742
1.32114
-0.454614
1.3546
-0.343439
1.38018
-0.251646
1.39943
-0.17582
1.4136
-0.115597
1.42372
-0.0690717
1.43072
-0.032857
1.43537
-0.00423268
1.43832
0.0173833
1.4401
0.0333688
1.44113
0.0448022
1.44177
0.0525921
1.44231
0.0574777
1.443
0.0600665
1.44233
0.0675571
1.4417
0.0677551
1.44118
0.066799
1.44087
0.0649859
1.44081
0.0625405
1.44104
0.0596589
1.44159
0.0564914
1.44249
0.0531591
1.44373
0.0497594
1.44533
0.0463653
1.44729
0.0430292
1.44959
0.0397792
1.45225
0.0367424
1.45525
0.0341547
1.45857
0.0313439
1.46222
0.0287088
1.46618
0.0268571
1.47045
0.0248645
1.47501
0.0229177
0.0214119
1.47985
0.741103
-2.13076
-0.551892
0.90251
-1.81753
1.0383
-1.52073
1.15081
-1.25754
1.24292
-1.02311
1.31738
-0.820195
1.37682
-0.647183
1.42365
-0.501448
1.46004
-0.379826
1.48788
-0.279482
1.50883
-0.196769
1.52423
-0.131005
1.53522
-0.0800587
1.54277
-0.0404094
1.54775
-0.00920716
1.55083
0.0143042
1.55258
0.0316168
1.55347
0.0439092
1.55389
0.0521728
1.55415
0.0572168
1.55451
0.0597063
1.55351
0.0685569
1.55252
0.068745
1.55165
0.0676711
1.55098
0.0656578
1.55057
0.0629511
1.55046
0.0597637
1.5507
0.0562591
1.55129
0.0525694
1.55225
0.0488001
1.55358
0.0450309
1.55529
0.0413196
1.55737
0.0376984
1.55982
0.0342943
1.56264
0.0313375
1.5658
0.0281816
1.56929
0.0252124
1.57313
0.0230175
1.57729
0.020705
1.58176
0.0184547
0.0166481
1.58652
0.794505
-2.33575
-0.589509
0.969441
-1.99246
1.11667
-1.66796
1.23873
-1.3796
1.33871
-1.12309
1.41959
-0.901074
1.4842
-0.711797
1.53515
-0.552397
1.57477
-0.419442
1.60509
-0.309806
1.62792
-0.219596
1.6447
-0.147787
1.65665
-0.0920054
1.66482
-0.0485852
1.67015
-0.0145361
1.67337
0.0110852
1.67509
0.0298941
1.67582
0.043177
1.67598
0.0520152
1.67591
0.057293
1.67587
0.0597377
1.67448
0.0699531
1.67307
0.0701513
1.67177
0.0689692
1.67067
0.0667575
1.66984
0.063785
1.66932
0.0602824
1.66915
0.056428
1.66936
0.0523655
1.66995
0.0482095
1.67093
0.044047
1.67231
0.0399413
1.67408
0.0359298
1.67623
0.0321389
1.67878
0.0287931
1.68169
0.0252737
1.68494
0.0219527
1.68857
0.019396
1.69253
0.0167464
1.6968
0.0141769
0.0120538
1.7014
0.852257
-2.55797
-0.630044
1.04196
-2.18217
1.20169
-1.82768
1.33418
-1.5121
1.44278
-1.23169
1.5307
-0.988993
1.60099
-0.782092
1.65647
-0.607873
1.69964
-0.462613
1.73271
-0.342876
1.75761
-0.244499
1.77592
-0.166092
1.78893
-0.105019
1.7978
-0.0574546
1.80352
-0.0202584
1.8069
0.00771397
1.80858
0.0282116
1.80912
0.0426369
1.80896
0.0521683
1.80849
0.0577713
1.80798
0.0602404
1.80612
0.0718145
1.80422
0.0720487
1.80242
0.0707735
1.80081
0.0683693
1.79946
0.0651301
1.79844
0.0613063
1.79778
0.0570919
1.7975
0.0526435
1.79762
0.0480856
1.79816
0.0435131
1.7991
0.0389958
1.80046
0.0345761
1.80221
0.0303802
1.80438
0.0266268
1.80693
0.0227265
1.80984
0.019037
1.81314
0.0161006
1.81679
0.0130979
1.82077
0.0101942
0.00773964
1.82508
0.914708
-2.79897
-0.673699
1.12054
-2.388
1.29393
-2.00107
1.43785
-1.65602
1.55589
-1.34973
1.65153
-1.08463
1.72807
-0.858629
1.78853
-0.668332
1.83562
-0.509708
1.87173
-0.378981
1.89893
-0.271702
1.91893
-0.186087
1.93312
-0.119217
1.94277
-0.0670949
1.94892
-0.0264161
1.95246
0.00417918
1.95408
0.0265844
1.95439
0.0423274
1.95387
0.0526914
1.95291
0.0587297
1.95184
0.0613095
1.94944
0.0742225
1.94696
0.074526
1.94455
0.0731784
1.94233
0.0705928
1.94037
0.0670906
1.93873
0.062943
1.93746
0.0583618
1.93659
0.0535172
1.93613
0.0485447
1.9361
0.0435478
1.93649
0.0386033
1.9373
0.0337594
1.93854
0.029142
1.94021
0.0249635
1.94227
0.0206663
1.94471
0.0165927
1.94755
0.01326
1.95076
0.00988903
1.95432
0.00663718
0.00383728
1.95822
0.982237
-3.06052
-0.720691
1.2057
-2.61147
1.39405
-2.18941
1.55048
-1.81245
1.67888
-1.47813
1.783
-1.18876
1.8664
-0.942032
1.93235
-0.734281
1.98378
-0.561133
2.02324
-0.418445
2.05299
-0.301455
2.07486
-0.207959
2.09038
-0.134733
2.10088