/*--------------------------------*- C++ -*----------------------------------*\
| =========                 |                                                 |
| \\      /  F ield         | OpenFOAM: The Open Source CFD Toolbox           |
|  \\    /   O peration     | Version:  5.x                                   |
|   \\  /    A nd           | Web:      www.OpenFOAM.org                      |
|    \\/     M anipulation  |                                                 |
\*---------------------------------------------------------------------------*/
FoamFile
{
    version     2.0;
    format      ascii;
    class       volVectorField;
    location    "450";
    object      U;
}
// * * * * * * * * * * * * * * * * * * * * * * * * * * * * * * * * * * * * * //

dimensions      [0 1 -1 0 0 0 0];

internalField   nonuniform List<vector> 
11040
(
(-2.54719 16.4475 0)
(-0.0647052 20.7057 -1.26141e-19)
(4.35049 23.3982 1.2291e-17)
(8.60005 23.06 1.44137e-17)
(12.0273 21.3138 3.19473e-17)
(14.5527 18.8671 -1.57664e-17)
(16.2583 16.1367 -1.57166e-17)
(17.2755 13.3873 1.60548e-17)
(17.7348 10.7865 3.65683e-17)
(17.7042 8.39713 1.19305e-18)
(16.9553 6.03042 1.80833e-17)
(15.7841 4.07078 -9.797e-19)
(14.8146 2.84334 1.56808e-17)
(14.2744 2.17703 1.48854e-17)
(13.8027 1.64638 1.18922e-17)
(13.1971 1.13245 7.03619e-18)
(12.4787 0.668407 -5.54585e-18)
(11.7139 0.272879 -4.62017e-19)
(10.922 -0.0579255 4.81744e-19)
(10.1005 -0.328156 2.59887e-18)
(9.24114 -0.539898 1.78256e-18)
(8.45592 -0.674659 1.10654e-18)
(7.74488 -0.753252 6.57697e-19)
(7.02897 -0.798795 -9.24846e-20)
(6.30493 -0.814399 -5.05971e-20)
(5.57139 -0.801561 1.5358e-19)
(4.82704 -0.761029 -1.36493e-17)
(4.07643 -0.692938 3.14162e-19)
(3.3293 -0.606314 -2.41822e-17)
(2.56453 -0.505819 3.04496e-17)
(1.7924 -0.385378 6.14985e-19)
(1.0271 -0.24742 4.58555e-19)
(0.349182 -0.103435 -6.00706e-19)
(-0.250116 0.0314425 0)
(-0.692831 0.144041 1.72903e-16)
(-1.03678 0.258603 0)
(-1.51009 0.418576 0)
(-2.18989 0.582065 -1.94263e-19)
(-2.83001 0.591573 2.14553e-19)
(-2.97939 0.221374 -7.85527e-17)
(-1.88228 -0.346078 -1.02004e-16)
(0.108317 16.0248 0)
(2.94448 19.2427 0)
(8.25714 20.704 -7.21039e-18)
(12.911 20.2022 7.88073e-18)
(16.3959 18.8614 -1.96941e-17)
(18.975 17.3034 2.07849e-17)
(20.8146 15.546 1.00636e-17)
(21.9794 13.6186 1.33014e-18)
(22.5493 11.5927 -7.69711e-19)
(22.6247 9.56401 1.14612e-17)
(22.1387 7.44619 -1.29363e-18)
(20.9772 5.59005 0)
(19.5531 4.24837 0)
(18.312 3.29539 -7.80928e-18)
(17.3044 2.45473 -7.96324e-18)
(16.3491 1.72919 -5.50411e-18)
(15.3956 1.13095 0)
(14.4471 0.63564 2.59e-19)
(13.495 0.224093 -7.04073e-19)
(12.5277 -0.111332 -3.47635e-19)
(11.5348 -0.375265 -1.0976e-18)
(10.6279 -0.553135 -5.9061e-19)
(9.82334 -0.666109 1.66808e-21)
(9.02468 -0.739865 -4.83527e-19)
(8.22415 -0.778408 1.21519e-18)
(7.4165 -0.784568 1.45631e-19)
(6.59674 -0.761069 6.37395e-18)
(5.75908 -0.710002 -1.42185e-19)
(4.89843 -0.634603 1.05818e-17)
(4.02511 -0.537405 -1.27397e-17)
(3.14623 -0.421265 -1.5698e-17)
(2.27641 -0.292985 1.95447e-17)
(1.43444 -0.160014 1.49959e-20)
(0.660982 -0.0296071 -6.49027e-19)
(0.0163958 0.0873859 -3.27281e-17)
(-0.527766 0.211053 0)
(-1.1526 0.391703 -2.34649e-19)
(-1.77242 0.578277 5.11884e-17)
(-2.07493 0.681656 4.62445e-17)
(-1.7522 0.384072 4.24539e-17)
(-1.36983 -0.588845 7.30044e-17)
(1.50369 15.4871 0)
(4.17226 17.9444 0)
(7.94247 19.3555 1.97819e-18)
(11.5605 19.552 -5.61663e-18)
(14.5705 18.8293 5.99883e-18)
(17.0896 17.5391 -7.62788e-18)
(19.1551 15.8992 -6.19188e-18)
(20.737 14.0598 0)
(21.829 12.1259 -1.00351e-17)
(22.4627 10.1743 -5.95243e-18)
(22.6099 8.15245 0)
(22.1286 6.34969 0)
(21.2248 4.95775 -6.249e-18)
(20.2403 3.89197 -5.68568e-18)
(19.2772 2.94051 -6.0711e-19)
(18.2817 2.11509 6.26976e-19)
(17.2539 1.42666 0)
(16.2224 0.853661 0)
(15.1918 0.37787 1.69877e-19)
(14.1526 -0.0101193 -2.13604e-19)
(13.0934 -0.316587 2.17651e-19)
(12.128 -0.531032 -3.62225e-19)
(11.2734 -0.668585 -7.44548e-20)
(10.4291 -0.760796 -2.62847e-19)
(9.58744 -0.813549 -5.32066e-20)
(8.74265 -0.830563 -9.41391e-20)
(7.88894 -0.815177 -6.60021e-20)
(7.02059 -0.770094 1.55329e-19)
(6.13323 -0.698262 0)
(5.22812 -0.602829 0)
(4.30931 -0.48841 1.90416e-17)
(3.38843 -0.362275 -2.19824e-17)
(2.48339 -0.232228 1.26051e-17)
(1.62589 -0.107516 0)
(0.862887 0.00880962 1.71305e-17)
(0.210498 0.137899 1.95571e-17)
(-0.426776 0.306729 0)
(-0.980328 0.426938 1.81051e-19)
(-1.26083 0.44019 -1.28233e-19)
(-1.05612 0.09919 0)
(-1.26765 -0.942086 -3.44048e-17)
(2.87999 14.8488 3.47423e-20)
(5.37227 16.7747 -3.16801e-20)
(8.31508 17.9579 5.92275e-19)
(11.4523 18.2656 0)
(14.2707 17.7567 -7.07569e-18)
(16.6428 16.7174 0)
(18.5794 15.3351 1.40154e-17)
(20.0789 13.7277 -4.47094e-20)
(21.1552 11.9983 1.40915e-18)
(21.8477 10.2321 9.46833e-18)
(22.1638 8.40665 1.39655e-18)
(22.0124 6.71834 3.8641e-18)
(21.4931 5.35651 1.10314e-17)
(20.8397 4.29229 4.4956e-18)
(20.1438 3.34318 0)
(19.3553 2.49087 -8.33446e-19)
(18.4664 1.75323 1.42584e-19)
(17.5141 1.12451 -5.73469e-19)
(16.5217 0.593578 -2.30992e-19)
(15.4953 0.154094 2.35285e-19)
(14.4333 -0.197952 5.34025e-19)
(13.4569 -0.447835 3.34128e-19)
(12.5868 -0.612204 0)
(11.7248 -0.726868 5.03063e-19)
(10.8651 -0.798268 -7.3568e-19)
(10.003 -0.830568 1.13099e-18)
(9.1331 -0.827534 -3.16947e-18)
(8.25025 -0.792348 0)
(7.35016 -0.728226 0)
(6.43109 -0.63895 0)
(5.49404 -0.529749 -6.88682e-18)
(4.54536 -0.408336 8.13238e-18)
(3.59815 -0.283489 -2.82645e-19)
(2.67538 -0.164996 -1.04088e-17)
(1.81357 -0.0531176 -1.1015e-17)
(1.0577 0.0743798 -1.29728e-17)
(0.384737 0.227476 -2.76764e-17)
(-0.1733 0.308022 -2.72595e-17)
(-0.54205 0.276122 -1.04255e-19)
(-0.467801 -0.0652318 -2.35916e-17)
(-1.11729 -1.09745 1.41169e-17)
(4.23568 14.1211 0)
(6.4365 15.6317 -4.50916e-20)
(8.78979 16.5973 -3.62563e-19)
(11.3702 17.0049 2.17903e-19)
(13.8306 16.7828 5.18419e-18)
(16.0048 16.0631 -5.66308e-18)
(17.8689 14.9615 -1.33584e-18)
(19.3779 13.5766 -7.24119e-18)
(20.502 12.0161 0)
(21.2577 10.377 -8.73345e-18)
(21.6611 8.6706 0)
(21.6661 7.04878 -2.20144e-18)
(21.3379 5.69187 -5.82479e-18)
(20.8609 4.61168 0)
(20.3423 3.66553 3.1082e-18)
(19.7503 2.81127 0)
(19.0565 2.05946 0)
(18.2752 1.40712 5.87701e-19)
(17.4225 0.8449 4.82439e-19)
(16.5051 0.368869 0)
(15.525 -0.0211478 -4.34156e-19)
(14.6036 -0.304612 0)
(13.7679 -0.496913 0)
(12.9305 -0.636164 -1.7547e-19)
(12.0887 -0.728853 0)
(11.24 -0.779395 8.74441e-19)
(10.3807 -0.791803 2.45386e-18)
(9.50678 -0.769645 0)
(8.61448 -0.716509 0)
(7.70129 -0.636644 0)
(6.7665 -0.535816 5.61399e-18)
(5.81239 -0.422265 5.43798e-18)
(4.846 -0.305407 -6.55947e-18)
(3.88149 -0.195309 -2.30574e-19)
(2.94309 -0.0929527 2.60295e-19)
(2.08378 0.0226975 0)
(1.33592 0.154935 2.03818e-17)
(0.727086 0.209896 -2.15641e-17)
(0.226402 0.150695 2.26764e-17)
(0.139272 -0.153334 2.18655e-17)
(-0.774176 -1.12054 2.56307e-20)
(5.48389 13.3354 -8.9349e-20)
(7.37394 14.5163 5.29067e-20)
(9.28792 15.2955 -2.21695e-20)
(11.3862 15.7339 2.27603e-19)
(13.4912 15.7061 -8.38602e-19)
(15.4427 15.2474 5.52917e-18)
(17.1878 14.4264 -6.83159e-18)
(18.6681 13.3067 5.89578e-18)
(19.8288 11.9725 2.8986e-18)
(20.6583 10.5114 -1.49208e-18)
(21.1617 8.95208 0)
(21.3041 7.41395 0)
(21.1206 6.06119 1.36047e-18)
(20.7542 4.94483 -1.43619e-18)
(20.3226 3.97753 -4.9321e-18)
(19.8335 3.11267 1.04074e-18)
(19.266 2.34947 -1.98355e-18)
(18.6246 1.68391 1.02883e-19)
(17.9167 1.1052 -6.02562e-19)
(17.142 0.60765 1.05428e-18)
(16.2959 0.191836 -9.31554e-19)
(15.4836 -0.117912 2.23329e-19)
(14.7326 -0.334366 -7.59366e-20)
(13.9684 -0.496751 6.75056e-20)
(13.1903 -0.61108 -4.84705e-19)
(12.3975 -0.681488 -1.17769e-20)
(11.5878 -0.71178 -2.2563e-18)
(10.7584 -0.705533 -2.22123e-18)
(9.90661 -0.666478 0)
(9.02985 -0.599122 0)
(8.1266 -0.509562 -3.89484e-18)
(7.1966 -0.406321 -9.64869e-18)
(6.242 -0.299238 -3.33603e-19)
(5.26911 -0.198754 5.81248e-18)
(4.2897 -0.108365 6.83753e-18)
(3.34812 -0.0120923 -7.36105e-18)
(2.50375 0.0921032 2.42923e-19)
(1.80194 0.126308 3.35462e-17)
(1.167 0.0476341 -3.62032e-17)
(0.857133 -0.205036 7.60674e-20)
(-0.152962 -1.03802 1.31641e-17)
(6.60739 12.5191 0)
(8.20705 13.4379 -1.494e-19)
(9.77885 14.0638 -1.71109e-20)
(11.481 14.484 1.41039e-19)
(13.2424 14.5765 1.20654e-18)
(14.9436 14.3238 2.02617e-18)
(16.5282 13.7525 -4.52986e-18)
(17.9365 12.8944 1.71374e-18)
(19.1022 11.806 0)
(19.9932 10.5567 2.17777e-18)
(20.601 9.1804 -4.34674e-18)
(20.8891 7.76743 4.3756e-18)
(20.8611 6.45575 -1.76668e-19)
(20.6144 5.3207 0)
(20.2594 4.32807 1.06607e-18)
(19.8354 3.4433 1.21702e-19)
(19.3397 2.65996 8.43848e-19)
(18.7793 1.9754 6.81204e-19)
(18.1648 1.37973 -2.70115e-19)
(17.498 0.865206 -3.02896e-19)
(16.7725 0.430506 4.34058e-19)
(16.0746 0.101561 2.42191e-19)
(15.4261 -0.133156 0)
(14.762 -0.314129 1.08577e-19)
(14.0809 -0.447171 4.50443e-19)
(13.3813 -0.536144 -6.30225e-19)
(12.6613 -0.584485 6.10203e-19)
(11.9179 -0.595505 2.0295e-18)
(11.1482 -0.572779 -3.25911e-19)
(10.3495 -0.520748 -3.99225e-20)
(9.51908 -0.445449 -2.43344e-18)
(8.6546 -0.355237 -8.78589e-19)
(7.75454 -0.260008 -3.55582e-18)
(6.81915 -0.17034 0)
(5.85002 -0.0925828 -4.92948e-18)
(4.87462 -0.0187093 5.76642e-18)
(3.94955 0.0520886 -6.12249e-18)
(3.13536 0.0644011 -2.58204e-17)
(2.36648 -0.0289144 1.39638e-17)
(1.82003 -0.235813 6.24563e-20)
(0.764926 -0.889761 -2.78925e-17)
(7.60063 11.6945 5.86969e-19)
(8.94524 12.4066 -1.59194e-19)
(10.244 12.9073 -1.5364e-19)
(11.6282 13.2831 -3.29667e-19)
(13.0803 13.4359 -8.38074e-19)
(14.5262 13.3297 -2.50053e-18)
(15.9211 12.9635 2.64736e-18)
(17.2143 12.3438 3.62775e-18)
(18.3411 11.5002 -2.58073e-18)
(19.2592 10.4791 0)
(19.95 9.31027 -1.5677e-18)
(20.3731 8.05975 2.83613e-20)
(20.5069 6.83529 -6.41071e-20)
(20.4036 5.71824 1.48658e-18)
(20.1512 4.71571 1.38046e-18)
(19.8029 3.81531 -1.43315e-18)
(19.3728 3.01137 0)
(18.8727 2.30332 0)
(18.318 1.68546 9.82811e-19)
(17.7176 1.15073 -8.27962e-19)
(17.0715 0.696752 1.26586e-19)
(16.4562 0.350333 -2.47198e-19)
(15.8901 0.0999203 -4.73331e-20)
(15.3152 -0.0964726 0)
(14.7298 -0.244883 1.78874e-19)
(14.1318 -0.34941 -1.83003e-19)
(13.5182 -0.413529 -6.38208e-19)
(12.8857 -0.440498 0)
(12.2303 -0.433786 0)
(11.5479 -0.397669 2.97939e-19)
(10.8339 -0.337888 2.61879e-18)
(10.0833 -0.26229 2.53877e-18)
(9.29073 -0.180398 5.89967e-18)
(8.45122 -0.102518 4.21021e-19)
(7.55864 -0.0370453 0)
(6.62345 0.0160433 -2.56144e-19)
(5.68094 0.0538477 4.71796e-18)
(4.78496 0.0415299 -3.45599e-20)
(3.90124 -0.0626993 1.0935e-17)
(3.14865 -0.24358 1.19549e-17)
(2.02218 -0.711407 1.36057e-17)
(8.46719 10.8809 -3.59562e-19)
(9.5949 11.431 -3.70463e-21)
(10.6725 11.8296 2.91621e-19)
(11.8026 12.1508 -4.09744e-19)
(12.9902 12.3224 0)
(14.1953 12.3085 8.05208e-19)
(15.3902 12.0955 -1.5198e-18)
(16.5379 11.6745 -2.18731e-18)
(17.5843 11.0542 1.60979e-18)
(18.4869 10.2594 2.08841e-18)
(19.2221 9.30926 1.28065e-19)
(19.7485 8.24795 -4.27771e-18)
(20.0279 7.15312 0)
(20.0761 6.09812 9.79526e-19)
(19.9508 5.11521 -2.28282e-18)
(19.7028 4.21569 -9.63002e-19)
(19.3562 3.40102 -8.48776e-19)
(18.9266 2.6739 8.78484e-19)
(18.4318 2.03349 -3.21513e-19)
(17.8858 1.47569 0)
(17.2954 0.999459 3.71858e-19)
(16.7348 0.633507 -5.17938e-19)
(16.2229 0.366039 3.94526e-20)
(15.7091 0.153653 -7.83272e-20)
(15.1934 -0.00987328 2.8961e-19)
(14.675 -0.129063 -2.95921e-19)
(14.1518 -0.207703 0)
(13.6213 -0.249258 1.62476e-18)
(13.0799 -0.257305 7.61197e-19)
(12.5233 -0.236077 4.21207e-19)
(11.9459 -0.191045 -2.00672e-18)
(11.3409 -0.129471 -5.78627e-19)
(10.6995 -0.0602798 5.5693e-19)
(10.0118 0.00669667 -3.36374e-19)
(9.26539 0.0620015 -2.11966e-18)
(8.45684 0.0999436 -3.7769e-19)
(7.59642 0.113106 0)
(6.71228 0.07916 7.31528e-18)
(5.78382 -0.0320756 -8.03048e-18)
(4.90512 -0.204908 -8.81169e-18)
(3.70138 -0.528468 0)
(9.21508 10.094 0)
(10.1612 10.5176 0)
(11.0585 10.8328 0)
(11.9851 11.0988 1.23497e-18)
(12.9534 11.2639 -3.5374e-19)
(13.9448 11.3001 2.2317e-20)
(14.9461 11.191 -2.02328e-19)
(15.9342 10.9217 -2.93173e-19)
(16.8696 10.4885 9.09544e-19)
(17.7164 9.8992 1.33648e-18)
(18.452 9.16196 -1.31382e-18)
(19.0375 8.30117 1.74665e-18)
(19.4278 7.36696 -1.53562e-19)
(19.6135 6.41636 1.64665e-18)
(19.6231 5.49052 -2.9633e-18)
(19.4936 4.61823 2.35643e-18)
(19.25 3.81139 1.26351e-18)
(18.91 3.07784 -1.30506e-18)
(18.4914 2.42204 5.01726e-19)
(18.0104 1.8441 0)
(17.4777 1.34534 4.78664e-19)
(16.9656 0.958222 -3.57521e-19)
(16.4957 0.671669 2.80987e-20)
(16.0254 0.44113 -6.72108e-20)
(15.5567 0.260375 3.09489e-19)
(15.0913 0.124618 0)
(14.6296 0.0298218 0)
(14.1711 -0.027662 -4.79603e-19)
(13.7148 -0.051515 -3.03351e-18)
(13.2585 -0.0459083 -1.40773e-18)
(12.7983 -0.0159842 1.61984e-18)
(12.3287 0.0316843 4.55504e-19)
(11.8411 0.0890005 -2.39535e-18)
(11.3244 0.14683 -5.22477e-19)
(10.7628 0.19548 3.28105e-18)
(10.1441 0.226272 -5.70936e-19)
(9.4595 0.228962 -2.45297e-18)
(8.71013 0.186892 3.28562e-19)
(7.86434 0.0797266 5.33228e-18)
(6.99986 -0.0825093 0)
(5.79835 -0.325271 0)
(9.85471 9.34576 0)
(10.6497 9.67121 0)
(11.3989 9.91825 -1.40226e-19)
(12.1618 10.133 -1.15566e-18)
(12.9516 10.2788 0)
(13.7611 10.336 -4.80913e-19)
(14.587 10.2908 2.50417e-19)
(15.4171 10.1281 0)
(16.2257 9.83869 -1.23901e-18)
(16.9867 9.42055 1.98355e-19)
(17.6823 8.87358 -2.76261e-19)
(18.2802 8.20675 9.87873e-19)
(18.7361 7.44718 -1.22608e-18)
(19.0272 6.63277 0)
(19.1591 5.80116 -1.8522e-18)
(19.151 4.98816 2.15915e-18)
(19.0212 4.21461 0)
(18.7856 3.49435 0)
(18.4604 2.83727 2.7856e-19)
(18.0613 2.2485 -1.13469e-18)
(17.6006 1.73258 4.80669e-19)
(17.1461 1.32647 0)
(16.722 1.02099 2.91311e-20)
(16.2941 0.771384 1.72932e-19)
(15.8664 0.571717 -2.10939e-19)
(15.4422 0.417173 2.42302e-19)
(15.0239 0.303604 0)
(14.6134 0.227262 0)
(14.2118 0.184435 -5.01986e-19)
(13.8198 0.171098 2.26612e-18)
(13.4367 0.182552 -1.26175e-18)
(13.0603 0.213083 1.32539e-18)
(12.6859 0.255772 7.28239e-19)
(12.3056 0.302715 0)
(11.9065 0.345061 1.25323e-18)
(11.4751 0.373667 -1.23414e-20)
(10.9951 0.378028 4.2119e-18)
(10.4533 0.345019 0)
(9.80466 0.259417 -4.16305e-18)
(9.1049 0.128805 4.56214e-18)
(8.0702 -0.0656566 0)
(10.3971 8.64521 0)
(11.0662 8.89437 -8.55635e-19)
(11.6935 9.08614 7.49785e-19)
(12.3239 9.25583 0)
(12.9694 9.3773 7.60957e-19)
(13.6283 9.43778 -6.44999e-19)
(14.3027 9.4274 -1.24488e-18)
(14.9878 9.33375 1.72671e-19)
(15.6683 9.14649 4.35586e-19)
(16.3276 8.85993 1.38758e-18)
(16.9539 8.4694 -1.44701e-18)
(17.5235 7.97405 -4.47863e-19)
(17.9987 7.38422 1.15305e-18)
(18.3527 6.72058 -5.55602e-19)
(18.5776 6.0107 2.17588e-18)
(18.6765 5.2878 -1.38766e-18)
(18.6575 4.57619 -5.59016e-19)
(18.5309 3.89405 -2.53696e-19)
(18.3089 3.25579 -7.2958e-19)
(18.005 2.67138 1.44078e-18)
(17.6308 2.14909 -6.4177e-19)
(17.2467 1.73067 -5.95322e-21)
(16.8785 1.40998 -5.23434e-21)
(16.501 1.14331 0)
(16.1196 0.925441 -4.53865e-19)
(15.7385 0.75181 1.3684e-19)
(15.3612 0.618344 8.52109e-19)
(14.9909 0.521314 -5.96438e-19)
(14.6301 0.45705 1.61533e-18)
(14.2809 0.421679 -8.40748e-19)
(13.9448 0.410902 0)
(13.6223 0.419788 -1.63248e-18)
(13.3124 0.442637 -5.74195e-19)
(13.0118 0.473063 6.47267e-19)
(12.7133 0.503922 -4.00604e-18)
(12.4082 0.527601 -7.03978e-19)
(12.0828 0.535499 -1.46869e-18)
(11.7238 0.518609 1.52212e-18)
(11.2883 0.464873 1.59921e-18)
(10.8109 0.382595 -3.27227e-18)
(10.0678 0.241266 -1.12206e-19)
(10.8532 7.99815 0)
(11.4172 8.18808 4.86937e-20)
(11.9437 8.3353 6.78921e-19)
(12.4663 8.46668 2.18495e-18)
(12.9953 8.56354 -1.49662e-18)
(13.5316 8.61793 2.13662e-19)
(14.0794 8.62346 -3.7554e-20)
(14.6383 8.57108 -1.60433e-18)
(15.1999 8.45188 -8.97291e-20)
(15.7548 8.25933 -2.33025e-19)
(16.2968 7.98775 8.21002e-19)
(16.81 7.63167 -7.18603e-19)
(17.2658 7.19123 -4.06032e-19)
(17.6401 6.6744 4.76705e-19)
(17.9194 6.0977 0)
(18.0969 5.48612 0)
(18.1711 4.86164 1.92415e-18)
(18.1451 4.24314 1.41338e-20)
(18.0254 3.64716 -1.31198e-18)
(17.8216 3.08701 6.922e-20)
(17.5425 2.57411 -1.95728e-19)
(17.2381 2.1544 1.86733e-19)
(16.9349 1.8258 -5.57533e-22)
(16.6166 1.54727 0)
(16.2894 1.31474 -6.37645e-20)
(15.9581 1.12433 7.6326e-19)
(15.627 0.972347 -9.92942e-19)
(15.2997 0.855252 1.14335e-18)
(14.9793 0.769504 -8.4903e-19)
(14.6682 0.711452 0)
(14.3688 0.677174 7.87279e-19)
(14.0824 0.662369 1.77772e-18)
(13.8098 0.662294 -9.07128e-19)
(13.5503 0.671855 1.02445e-18)
(13.3008 0.685581 5.73348e-19)
(13.0573 0.697966 -1.0913e-18)
(12.8124 0.70308 1.71976e-18)
(12.558 0.695956 -1.20612e-18)
(12.2659 0.668451 -9.34649e-19)
(11.9551 0.629261 -1.57213e-19)
(11.4868 0.547521 2.5849e-18)
(11.2336 7.40779 -8.19355e-19)
(11.7096 7.55177 -2.84055e-18)
(12.1521 7.66332 2.76779e-18)
(12.5867 7.76298 0)
(13.0215 7.8373 -1.27522e-19)
(13.4587 7.88151 0)
(13.903 7.89179 -4.15999e-18)
(14.356 7.86201 3.02521e-18)
(14.8136 7.78535 1.3726e-18)
(15.271 7.65605 -1.48286e-18)
(15.7258 7.46929 1.68598e-19)
(16.1687 7.21837 -1.15731e-19)
(16.5795 6.89859 3.5288e-19)
(16.9395 6.51041 5.50868e-19)
(17.2355 6.06166 1.01604e-19)
(17.4568 5.56813 -6.60884e-19)
(17.5962 5.04596 5.71125e-19)
(17.6504 4.51114 -6.92266e-19)
(17.6204 3.97935 0)
(17.5107 3.46476 -2.65331e-19)
(17.3263 2.98029 2.73438e-19)
(17.1049 2.57392 2.33761e-20)
(16.8713 2.24806 3.69064e-21)
(16.6176 1.96602 0)
(16.3502 1.7252 5.19966e-20)
(16.0742 1.52288 7.75298e-20)
(15.7945 1.35615 0)
(15.5149 1.22196 0)
(15.2386 1.11714 2.0375e-21)
(14.9683 1.03839 0)
(14.706 0.98222 -9.52112e-19)
(14.4535 0.944937 0)
(14.2118 0.922623 1.50405e-18)
(13.9809 0.911204 -1.5584e-18)
(13.7595 0.906468 0)
(13.5459 0.904534 8.8624e-19)
(13.3367 0.901571 -9.24282e-19)
(13.1277 0.895026 4.65828e-19)
(12.905 0.88065 1.47891e-18)
(12.6779 0.865225 -1.31369e-19)
(12.3787 0.829222 -3.08411e-18)
(11.5483 6.87508 2.17992e-18)
(11.9503 6.98344 8.0806e-20)
(12.3228 7.06663 -1.22266e-18)
(12.6849 7.14055 -2.22691e-18)
(13.0434 7.19542 -4.82042e-18)
(13.4006 7.22849 5.57812e-18)
(13.7612 7.23768 -2.78034e-19)
(14.1273 7.219 -2.48174e-18)
(14.4974 7.1676 4.58672e-18)
(14.8692 7.0791 -4.36467e-19)
(15.2427 6.94975 -1.8992e-18)
(15.6127 6.77358 4.58772e-19)
(15.9661 6.54465 -4.76372e-19)
(16.2898 6.25994 8.57014e-19)
(16.5733 5.92191 -1.30578e-19)
(16.8062 5.53899 0)
(16.9795 5.12112 2.83607e-19)
(17.0866 4.67963 -1.90752e-19)
(17.1244 4.22697 -4.19296e-21)
(17.0929 3.77573 -1.62063e-19)
(16.9932 3.33819 2.22972e-19)
(16.8501 2.96111 -3.62631e-20)
(16.685 2.65073 -3.0487e-21)
(16.4964 2.37603 -7.83546e-19)
(16.2902 2.13599 1.75734e-18)
(16.0717 1.92917 -1.04563e-18)
(15.8456 1.75372 1.27903e-18)
(15.616 1.60749 -1.56833e-18)
(15.3861 1.48798 -1.95684e-18)
(15.1587 1.39247 1.77006e-18)
(14.9358 1.31806 5.11419e-19)
(14.719 1.26174 8.65026e-19)
(14.5093 1.22036 -2.67256e-18)
(14.3072 1.19075 2.52966e-18)
(14.1118 1.16968 -1.30103e-18)
(13.9222 1.15439 -6.96047e-19)
(13.7371 1.1424 0)
(13.554 1.13202 -7.64228e-19)
(13.3665 1.12133 -7.92983e-19)
(13.1795 1.11412 -8.1431e-19)
(12.9631 1.10078 8.46651e-19)
(11.8064 6.39916 3.01311e-21)
(12.146 6.47984 2.9599e-19)
(12.4597 6.54065 1.0754e-18)
(12.762 6.59405 -1.91512e-18)
(13.0583 6.63283 7.56251e-18)
(13.351 6.65547 -6.38348e-18)
(13.6441 6.66098 8.02453e-18)
(13.94 6.64685 3.88374e-18)
(14.2382 6.60976 -1.99962e-18)
(14.5381 6.5466 -6.06009e-19)
(14.8404 6.45466 -4.35803e-18)
(15.1427 6.32949 1.86565e-19)
(15.4368 6.16552 0)
(15.7139 5.95884 -3.32736e-19)
(15.967 5.70922 4.34629e-19)
(16.1877 5.42045 -5.65463e-19)
(16.3679 5.09766 0)
(16.5005 4.74768 6.44231e-19)
(16.5804 4.379 -1.4656e-18)
(16.6048 4.0012 5.24665e-19)
(16.5718 3.62426 -9.77489e-19)
(16.495 3.29028 1.10501e-18)
(16.3911 3.00788 4.67155e-20)
(16.2626 2.75211 -2.14339e-20)
(16.1146 2.52335 1.87467e-18)
(15.9517 2.32135 -1.89478e-18)
(15.7781 2.14536 6.79414e-20)
(15.5979 1.99414 1.54432e-19)
(15.4141 1.86608 -1.47093e-18)
(15.2295 1.75928 1.68049e-18)
(15.0461 1.67163 -2.07926e-19)
(14.8656 1.60085 2.24424e-19)
(14.6891 1.54461 -9.8312e-19)
(14.5172 1.50053 4.60308e-19)
(14.3495 1.46623 2.13462e-18)
(14.1858 1.43977 -5.332e-19)
(14.0256 1.41949 5.93211e-19)
(13.8674 1.40401 -1.19758e-18)
(13.7083 1.39228 6.23759e-19)
(13.5509 1.38585 6.53355e-19)
(13.3815 1.37935 0)
(12.0157 5.97692 -3.3403e-18)
(12.3024 6.03602 5.97971e-18)
(12.5666 6.07943 5.59428e-18)
(12.8191 6.11692 -1.47074e-17)
(13.0644 6.14299 5.4457e-18)
(13.3048 6.15687 -1.11403e-17)
(13.5437 6.15822 8.98656e-18)
(13.7832 6.14548 -1.29861e-17)
(14.0234 6.11638 1.17766e-17)
(14.2643 6.06881 -4.16758e-19)
(14.5071 6.00096 -4.75688e-18)
(14.7506 5.90952 -4.37242e-19)
(14.9899 5.7902 -3.51759e-18)
(15.2194 5.63942 3.48197e-18)
(15.4346 5.45605 -2.686e-18)
(15.6296 5.2414 2.91888e-18)
(15.7982 4.9977 0)
(15.9343 4.72848 -1.99839e-18)
(16.0327 4.43884 2.47581e-18)
(16.0897 4.13515 -2.34844e-18)
(16.102 3.82452 -1.63106e-19)
(16.0746 3.54209 3.999e-18)
(16.0196 3.29704 7.89398e-20)
(15.9414 3.07013 -1.58218e-18)
(15.8438 2.8626 -3.04179e-24)
(15.7304 2.67508 0)
(15.6049 2.50768 -2.17956e-18)
(15.4706 2.35999 2.15721e-18)
(15.3303 2.23122 0)
(15.1864 2.12024 -1.60822e-19)
(15.041 2.02572 0)
(14.8956 1.94618 1.52666e-18)
(14.7516 1.88007 -1.72953e-18)
(14.6098 1.82577 -1.68663e-18)
(14.4702 1.78157 3.45417e-18)
(14.3331 1.74617 -1.99315e-18)
(14.1987 1.71844 -2.33788e-19)
(14.0661 1.69723 4.86859e-19)
(13.9343 1.68176 -5.03328e-19)
(13.8046 1.67245 0)
(13.6708 1.66559 -5.19846e-19)
(12.1768 5.6213 0)
(12.4205 5.66442 -8.14659e-18)
(12.6445 5.69523 3.89294e-19)
(12.8572 5.72121 1.08239e-17)
(13.0623 5.738 6.57803e-18)
(13.2618 5.74534 -6.75959e-18)
(13.4587 5.74327 6.10205e-18)
(13.6548 5.73078 5.80718e-18)
(13.8504 5.70631 1.08282e-17)
(14.0459 5.66841 -1.36912e-17)
(14.2421 5.61585 1.32986e-18)
(14.4389 5.54625 1.27073e-18)
(14.6329 5.45631 -4.30926e-18)
(14.8208 5.34323 3.13504e-18)
(14.9995 5.20577 4.35186e-18)
(15.1652 5.04424 -3.31174e-18)
(15.3135 4.85943 -3.80848e-18)
(15.4397 4.65303 3.90713e-18)
(15.5395 4.42789 0)
(15.6095 4.18798 4.46686e-19)
(15.646 3.93798 4.48008e-19)
(15.6492 3.70576 3.40316e-18)
(15.6276 3.49985 -6.91469e-18)
(15.5855 3.30559 3.5922e-18)
(15.5258 3.12452 1.95773e-18)
(15.4512 2.95769 3.74326e-20)
(15.3644 2.80569 -2.07806e-18)
(15.268 2.66868 3.36291e-20)
(15.1645 2.54643 2.40348e-21)
(15.0558 2.43843 2.54292e-18)
(14.9437 2.34396 -2.57154e-18)
(14.8297 2.26214 -1.40562e-18)
(14.7151 2.19202 1.50057e-18)
(14.6007 2.13255 -1.52403e-18)
(14.487 2.08257 1.33111e-18)
(14.3745 2.04127 1.22001e-18)
(14.2639 2.00789 -6.10491e-19)
(14.1547 1.9815 2.14153e-19)
(14.0468 1.96146 0)
(13.9409 1.94773 0)
(13.8349 1.93775 4.84906e-21)
(12.2964 5.33493 -3.77228e-18)
(12.5064 5.36667 4.20444e-18)
(12.6989 5.38851 -1.75794e-18)
(12.8809 5.40618 -3.36121e-18)
(13.0551 5.41619 0)
(13.2237 5.41861 6.34311e-18)
(13.3889 5.41368 -1.50488e-17)
(13.5524 5.40073 9.27184e-18)
(13.7146 5.37867 -2.95617e-18)
(13.8759 5.34648 2.64855e-18)
(14.0373 5.30335 -1.26996e-18)
(14.1985 5.24758 -1.13315e-17)
(14.3575 5.17675 1.98822e-17)
(14.5119 5.08866 -8.5275e-18)
(14.6601 4.98227 -1.01033e-18)
(14.7992 4.85747 -4.14572e-18)
(14.9262 4.71442 1.25556e-17)
(15.0378 4.55389 -5.47577e-18)
(15.1305 4.37743 -8.21137e-18)
(15.2015 4.18747 3.39436e-18)
(15.2477 3.987 -9.34001e-19)
(15.267 3.79775 0)
(15.265 3.62706 0)
(15.2459 3.46366 -4.03903e-18)
(15.2116 3.30906 4.04391e-18)
(15.164 3.1644 6.24728e-20)
(15.1052 3.03046 0)
(15.0371 2.90768 2.3264e-18)
(14.9616 2.79617 -2.33232e-18)
(14.8804 2.6958 1.86631e-20)
(14.7949 2.60624 -2.03939e-20)
(14.7065 2.52705 0)
(14.6162 2.45766 1.31308e-18)
(14.5249 2.39743 -1.38725e-18)
(14.4332 2.34556 1.79842e-19)
(14.3417 2.30155 -1.8543e-19)
(14.2512 2.26491 0)
(14.1616 2.23488 -1.95818e-19)
(14.0731 2.21098 -4.05455e-19)
(13.9863 2.19304 1.98138e-19)
(13.9008 2.17936 6.14951e-19)
(12.3872 5.10164 0)
(12.5701 5.12507 0)
(12.7376 5.14035 -6.57343e-18)
(12.8953 5.15197 -1.27119e-17)
(13.0453 5.15706 1.93148e-17)
(13.1897 5.15591 -1.52584e-17)
(13.3304 5.14885 -5.75822e-18)
(13.4688 5.13542 1.20546e-17)
(13.6055 5.11484 -1.15349e-17)
(13.7407 5.0864 1.15068e-17)
(13.8753 5.04952 0)
(14.0092 5.00298 0)
(14.141 4.945 1.03093e-17)
(14.2691 4.87394 -2.02789e-17)
(14.3924 4.78896 1.93399e-17)
(14.509 4.68988 -9.41367e-18)
(14.6167 4.57662 -1.17626e-18)
(14.7131 4.44949 1.02942e-17)
(14.7957 4.30936 -6.99339e-18)
(14.8623 4.15771 0)
(14.9102 3.99644 4.84139e-19)
(14.9367 3.8424 0)
(14.9455 3.70165 -4.49096e-18)
(14.9403 3.56543 8.76889e-18)
(14.9224 3.43504 -4.27687e-18)
(14.893 3.31156 0)
(14.8537 3.19579 0)
(14.806 3.08825 2.19117e-18)
(14.7513 2.98922 -2.33963e-18)
(14.691 2.89878 -2.46372e-18)
(14.6261 2.81685 2.48169e-18)
(14.5579 2.74323 2.59108e-18)
(14.4871 2.67762 -2.59924e-18)
(14.4147 2.61964 0)
(14.3413 2.56874 -2.16899e-20)
(14.2673 2.52462 0)
(14.1936 2.48696 -5.63003e-21)
(14.1203 2.45517 -2.29029e-20)
(14.0477 2.42886 7.95475e-19)
(13.9762 2.40784 -1.12749e-18)
(13.9062 2.39103 3.71914e-19)
(12.4574 4.90813 0)
(12.6182 4.92534 -7.98845e-19)
(12.7653 4.93577 0)
(12.9031 4.94293 6.11361e-18)
(13.0337 4.94442 -6.01377e-18)
(13.1587 4.94068 0)
(13.28 4.93207 5.81832e-18)
(13.3987 4.91828 5.5844e-18)
(13.5153 4.89876 -1.46661e-17)
(13.6301 4.87296 0)
(13.7437 4.8405 1.09809e-17)
(13.8563 4.80049 -2.18804e-17)
(13.9667 4.75161 1.08711e-17)
(14.0739 4.69264 0)
(14.1771 4.62295 -1.00311e-17)
(14.275 4.54236 1.11692e-17)
(14.3661 4.45076 1.05447e-17)
(14.4485 4.34826 -1.16552e-17)
(14.5204 4.23537 -1.07629e-18)
(14.5803 4.113 0)
(14.626 3.98238 0)
(14.6546 3.85664 -5.73933e-19)
(14.6688 3.74065 2.6071e-19)
(14.6716 3.62751 4.46495e-18)
(14.6639 3.51829 3.45453e-19)
(14.6466 3.41392 -4.47851e-18)
(14.6209 3.31511 4.61429e-18)
(14.5877 3.22239 -4.46564e-18)
(14.5484 3.13607 -2.68801e-18)
(14.5037 3.05635 2.38107e-18)
(14.4547 2.98325 -2.47121e-18)
(14.4023 2.91673 2.46636e-18)
(14.3472 2.85665 0)
(14.2901 2.80279 -2.76625e-18)
(14.2316 2.75477 2.61655e-18)
(14.1723 2.71241 0)
(14.1126 2.67552 5.23815e-21)
(14.0529 2.64363 7.12103e-19)
(13.9935 2.61644 -7.31807e-19)
(13.9348 2.59379 3.31954e-19)
(13.8771 2.57501 -3.44896e-19)
(12.5127 4.74523 0)
(12.655 4.75773 7.3828e-19)
(12.785 4.76451 -5.90395e-18)
(12.9065 4.76833 1.14963e-17)
(13.021 4.7672 -2.31436e-17)
(13.1303 4.76159 1.16367e-17)
(13.2358 4.75192 0)
(13.3385 4.73796 5.58436e-18)
(13.439 4.7193 3.34653e-17)
(13.5374 4.69555 -2.25339e-17)
(13.6344 4.66643 0)
(13.73 4.6313 -2.7802e-18)
(13.8234 4.58916 7.90562e-18)
(13.9139 4.53913 -2.1251e-19)
(14.0008 4.48073 -1.0504e-17)
(14.0833 4.41385 1.1362e-17)
(14.1603 4.33837 -9.88278e-18)
(14.2304 4.25434 9.45574e-18)
(14.2924 4.16207 -9.48343e-18)
(14.345 4.06218 -9.30129e-18)
(14.3866 3.95547 8.01517e-18)
(14.4146 3.85224 -4.0116e-18)
(14.4309 3.7564 5.08455e-18)
(14.438 3.66242 -4.80358e-18)
(14.4365 3.57116 -8.94455e-19)
(14.427 3.48337 4.53865e-18)
(14.4105 3.39967 0)
(14.3876 3.32052 0)
(14.3594 3.24623 -4.43795e-18)
(14.3264 3.177 4.70942e-18)
(14.2896 3.11292 0)
(14.2494 3.05402 3.08496e-19)
(14.2067 3.00025 3.11685e-19)
(14.162 2.95148 2.6585e-18)
(14.1157 2.90745 -2.65551e-18)
(14.0683 2.86806 -1.28076e-18)
(14.0203 2.83319 1.27608e-18)
(13.972 2.80248 -4.89869e-19)
(13.9237 2.7757 1.30989e-18)
(13.8757 2.75272 -6.35785e-19)
(13.8284 2.73318 -8.15289e-20)
(12.5568 4.60642 5.47338e-18)
(12.6835 4.6153 6.67654e-18)
(12.7991 4.61932 -1.27563e-19)
(12.9067 4.62065 0)
(13.0079 4.61758 0)
(13.104 4.61067 0)
(13.1965 4.6003 0)
(13.2862 4.58633 -2.16945e-17)
(13.3734 4.56845 3.83068e-17)
(13.4585 4.54637 -2.19571e-17)
(13.542 4.51991 2.14663e-17)
(13.6238 4.48858 -1.36086e-17)
(13.7035 4.45165 2.37374e-17)
(13.7804 4.40845 -2.90565e-17)
(13.8541 4.35867 1.05268e-17)
(13.924 4.30222 7.6385e-18)
(13.9892 4.23903 -9.99135e-18)
(14.0488 4.16912 1.1786e-18)
(14.1019 4.09271 -1.22616e-18)
(14.1475 4.01025 1.18763e-17)
(14.1844 3.92227 1.04274e-17)
(14.2104 3.83693 -1.72644e-17)
(14.2269 3.75736 -5.5189e-19)
(14.236 3.6791 0)
(14.238 3.6028 5.52312e-19)
(14.2335 3.52907 -5.8288e-19)
(14.2231 3.45842 -4.01614e-18)
(14.2074 3.39122 4.58223e-18)
(14.1872 3.32776 -4.65551e-18)
(14.1629 3.26823 4.63735e-18)
(14.1351 3.21272 4.72279e-18)
(14.1044 3.16129 -4.99445e-18)
(14.0714 3.11393 -2.93282e-19)
(14.0364 3.07057 2.41622e-18)
(13.9999 3.03102 -1.95053e-18)
(13.9623 2.99524 0)
(13.9239 2.96315 0)
(13.885 2.93446 -1.53167e-19)
(13.8459 2.90901 3.12759e-19)
(13.8069 2.8867 3.14175e-19)
(13.7681 2.86736 7.60828e-20)
(12.5924 4.48691 0)
(12.7057 4.493 -1.27102e-18)
(12.8089 4.49492 1.01819e-17)
(12.9048 4.49437 -1.03859e-17)
(12.9946 4.4899 -2.05311e-17)
(13.0797 4.48208 2.10307e-17)
(13.1612 4.4713 1.02296e-17)
(13.24 4.45745 -2.12e-17)
(13.3163 4.44031 -2.09044e-17)
(13.3904 4.41968 2.12417e-17)
(13.4627 4.39542 0)
(13.5333 4.36718 -1.04816e-17)
(13.6017 4.33441 2.07383e-17)
(13.6675 4.29661 -2.34229e-17)
(13.7303 4.25359 0)
(13.7898 4.20528 -2.58014e-18)
(13.8452 4.15166 2.52296e-18)
(13.896 4.09276 0)
(13.9413 4.02875 1.16789e-18)
(13.9805 3.95995 -2.30875e-18)
(14.0127 3.88675 1.05242e-17)
(14.0362 3.8157 -1.03413e-17)
(14.0519 3.74926 1.16043e-18)
(14.0616 3.68382 8.50584e-18)
(14.0655 3.61987 -8.45756e-18)
(14.064 3.5579 5.52223e-19)
(14.0577 3.49831 -5.09532e-18)
(14.047 3.44141 4.52032e-18)
(14.0324 3.38743 5.77536e-19)
(14.0144 3.33652 0)
(13.9934 3.28878 0)
(13.9699 3.24428 0)
(13.9443 3.20302 -2.32037e-18)
(13.917 3.16495 2.30943e-18)
(13.8882 3.12995 -2.87815e-19)
(13.8584 3.09798 -2.35058e-18)
(13.8277 3.06901 2.63481e-18)
(13.7965 3.04281 0)
(13.765 3.01925 4.11378e-21)
(13.7334 2.99825 -5.92677e-19)
(13.7017 2.97979 2.87735e-19)
(12.6214 4.3831 4.7061e-18)
(12.723 4.38704 0)
(12.8155 4.38735 -2.36936e-17)
(12.9013 4.38539 1.94394e-17)
(12.9814 4.37992 0)
(13.0571 4.3715 1.95871e-17)
(13.1293 4.36051 -1.60468e-19)
(13.1988 4.3469 1.99483e-17)
(13.2659 4.33049 -3.05365e-17)
(13.3308 4.31115 -2.01644e-17)
(13.3939 4.28877 2.04876e-17)
(13.4551 4.2631 5.02089e-18)
(13.5142 4.23375 0)
(13.5708 4.20034 0)
(13.6247 4.16274 -5.10008e-18)
(13.6755 4.12094 2.23708e-17)
(13.7228 4.07493 -4.40895e-17)
(13.766 4.02477 1.93171e-17)
(13.8047 3.97059 2.40953e-18)
(13.8383 3.91264 2.38472e-18)
(13.8662 3.85123 -1.1317e-18)
(13.887 3.79164 1.70726e-17)