/*--------------------------------*- C++ -*----------------------------------*\
| =========                 |                                                 |
| \\      /  F ield         | OpenFOAM: The Open Source CFD Toolbox           |
|  \\    /   O peration     | Version:  5.x                                   |
|   \\  /    A nd           | Web:      www.OpenFOAM.org                      |
|    \\/     M anipulation  |                                                 |
\*---------------------------------------------------------------------------*/
FoamFile
{
    version     2.0;
    format      ascii;
    class       volVectorField;
    location    "450";
    object      U;
}
// * * * * * * * * * * * * * * * * * * * * * * * * * * * * * * * * * * * * * //

dimensions      [0 1 -1 0 0 0 0];

internalField   nonuniform List<vector> 
11040
(
(-3.23746 18.4704 0)
(0.470886 5.37008 -2.80695e-18)
(-3.26342 -4.0402 0)
(-4.12162 -2.53017 2.58736e-17)
(-3.93859 -2.12442 2.81589e-17)
(-3.7222 -1.62834 3.40631e-17)
(-3.54455 -1.30273 -7.81989e-17)
(-3.40954 -1.07205 -3.76159e-17)
(-3.29927 -0.890862 4.25539e-17)
(-3.21334 -0.744325 4.46116e-17)
(-3.15228 -0.62402 0)
(-3.11255 -0.522658 -4.68455e-17)
(-3.09053 -0.43427 4.99323e-17)
(-3.084 -0.354721 4.08237e-17)
(-3.09151 -0.281373 5.71118e-18)
(-3.11771 -0.212474 -4.71785e-17)
(-3.16277 -0.146356 2.14023e-17)
(-3.22666 -0.0815414 -2.048e-17)
(-3.30899 -0.0168856 7.3041e-18)
(-3.40814 0.0481528 4.63642e-18)
(-3.51732 0.113518 8.65463e-18)
(-3.62159 0.172821 1.46525e-17)
(-3.71505 0.222324 -1.60958e-17)
(-3.79652 0.266174 -7.44248e-21)
(-3.85188 0.305093 -3.00831e-17)
(-3.86436 0.337364 9.25275e-19)
(-3.81754 0.361356 -9.11023e-19)
(-3.70717 0.376477 -9.09768e-19)
(-3.53817 0.381984 9.16185e-19)
(-3.30243 0.375181 -3.02096e-17)
(-2.99471 0.353439 0)
(-2.61031 0.31358 -6.80745e-17)
(-2.14407 0.2551 0)
(-1.58746 0.178318 6.65623e-19)
(-0.938904 0.08263 -9.18726e-17)
(-0.198435 -0.0343969 1.03929e-16)
(0.680625 -0.178161 3.53506e-19)
(1.50047 -0.314869 -6.62331e-17)
(2.74617 -0.558977 -4.7824e-17)
(3.45856 -0.661036 0)
(5.45011 -1.66605 4.54228e-17)
(-0.344038 21.7177 1.17535e-19)
(2.69057 15.5689 5.90954e-19)
(0.553488 4.31601 4.50284e-19)
(-2.79047 -1.81872 -9.30348e-19)
(-3.7039 -2.13963 0)
(-3.78628 -1.81698 2.28614e-18)
(-3.71171 -1.471 -2.63679e-18)
(-3.63775 -1.22534 0)
(-3.57253 -1.03764 0)
(-3.52034 -0.8839 0)
(-3.48539 -0.754779 3.53151e-18)
(-3.46807 -0.644609 -3.60277e-18)
(-3.46755 -0.547861 3.62632e-18)
(-3.48579 -0.459969 -3.21898e-17)
(-3.5239 -0.378308 -1.73738e-17)
(-3.57843 -0.300264 3.33229e-18)
(-3.64905 -0.224064 -1.27453e-17)
(-3.73463 -0.148296 1.35846e-17)
(-3.83334 -0.0714186 -1.42511e-18)
(-3.9406 0.00774273 -2.08209e-20)
(-4.0464 0.0892347 4.15703e-21)
(-4.13674 0.163372 0)
(-4.20637 0.222945 9.26769e-18)
(-4.25181 0.273646 3.68359e-17)
(-4.26309 0.316994 -1.09076e-18)
(-4.23424 0.351859 -1.79603e-17)
(-4.16392 0.377848 -1.25782e-21)
(-4.04576 0.394209 1.65508e-17)
(-3.86725 0.39842 1.62692e-17)
(-3.62422 0.388221 -4.91024e-19)
(-3.31129 0.361703 -1.52151e-17)
(-2.92327 0.316647 -3.17729e-17)
(-2.4546 0.251194 -5.02902e-19)
(-1.89968 0.163677 6.53011e-17)
(-1.25671 0.0523758 -3.29231e-17)
(-0.524903 -0.0860956 -3.38031e-17)
(0.333498 -0.254778 -3.22471e-17)
(1.16529 -0.434299 5.30152e-17)
(2.39162 -0.715972 0)
(3.15639 -0.918777 0)
(5.33686 -1.53018 -1.43599e-19)
(0.354505 19.5802 0)
(3.23318 19.6284 -5.27063e-18)
(3.55558 13.1412 -3.88168e-18)
(0.830551 4.25304 1.47817e-18)
(-2.19233 -0.880484 1.02039e-17)
(-3.32132 -1.69188 -1.47761e-17)
(-3.57468 -1.52534 1.60395e-17)
(-3.61898 -1.2872 4.01503e-18)
(-3.61931 -1.09621 -4.31298e-18)
(-3.61172 -0.936947 -2.32435e-17)
(-3.60926 -0.799524 4.88568e-18)
(-3.61716 -0.680687 0)
(-3.63595 -0.575779 2.05397e-17)
(-3.66786 -0.479815 2.03094e-17)
(-3.71388 -0.390598 9.88629e-18)
(-3.77325 -0.305715 9.52103e-18)
(-3.84584 -0.223125 0)
(-3.93044 -0.141788 0)
(-4.02502 -0.0604807 -2.00295e-18)
(-4.12553 0.0216463 1.87018e-18)
(-4.22375 0.104831 3.30728e-21)
(-4.3073 0.179948 6.66022e-18)
(-4.37058 0.238988 1.58899e-18)
(-4.41198 0.287423 -1.37313e-17)
(-4.42395 0.327243 1.17516e-17)
(-4.39994 0.357839 0)
(-4.334 0.378405 -1.09529e-17)
(-4.21794 0.387622 -1.05317e-17)
(-4.04393 0.383661 -1.08304e-17)
(-3.80718 0.364696 1.24068e-18)
(-3.50245 0.328985 9.1191e-18)
(-3.12483 0.274675 3.82862e-17)
(-2.66924 0.199798 -1.8897e-17)
(-2.13001 0.101691 -3.6207e-20)
(-1.50572 -0.0220425 1.81788e-17)
(-0.794191 -0.172999 -1.79609e-17)
(0.0348189 -0.351374 3.53649e-17)
(0.862224 -0.55588 -1.66133e-19)
(2.03872 -0.84062 0)
(2.82667 -1.09156 9.6708e-18)
(4.84633 -1.74694 -6.8896e-18)
(0.660333 18.0701 0)
(2.75458 19.7404 2.93128e-18)
(4.49269 18.1152 2.70398e-18)
(3.92735 11.806 -3.61707e-18)
(1.1454 4.25857 -4.91408e-18)
(-1.72896 -0.280033 0)
(-2.95406 -1.26121 8.21064e-18)
(-3.34378 -1.25065 2.91206e-18)
(-3.48156 -1.1032 1.55438e-17)
(-3.54202 -0.957259 1.33642e-17)
(-3.58126 -0.82192 -3.54145e-18)
(-3.61746 -0.700521 1.10774e-17)
(-3.6563 -0.591966 -1.1292e-17)
(-3.70191 -0.491194 1.95867e-20)
(-3.75716 -0.396944 3.65636e-18)
(-3.8222 -0.307344 -1.06026e-17)
(-3.89764 -0.220307 0)
(-3.98282 -0.135165 0)
(-4.07635 -0.0508917 0)
(-4.17521 0.0329754 -1.36886e-18)
(-4.27277 0.116315 -3.77948e-18)
(-4.35775 0.190548 -4.85298e-18)
(-4.42401 0.248403 -3.47828e-18)
(-4.46985 0.294456 -9.96416e-18)
(-4.48823 0.330435 0)
(-4.47211 0.35585 0)
(-4.41479 0.369769 7.85151e-18)
(-4.30861 0.370894 0)
(-4.14673 0.357663 0)
(-3.92409 0.32833 0)
(-3.63552 0.281152 -6.77204e-18)
(-3.27628 0.214368 -2.64575e-17)
(-2.8416 0.126056 1.29688e-17)
(-2.32607 0.0135512 -1.24702e-17)
(-1.72819 -0.125613 1.23557e-17)
(-1.04577 -0.292308 1.19197e-17)
(-0.253887 -0.48299 -4.64361e-20)
(0.555979 -0.714438 -1.04762e-17)
(1.66458 -0.999906 8.7521e-18)
(2.4356 -1.3053 -6.7127e-18)
(4.27683 -1.9059 -2.02359e-20)
(1.57466 17.2272 0)
(2.8952 18.559 -7.27661e-19)
(4.43633 19.3645 6.69714e-19)
(5.34823 17.0283 7.92593e-18)
(4.32582 11.188 -4.20338e-18)
(1.56386 4.53776 0)
(-1.19943 0.323513 -7.38403e-18)
(-2.55935 -0.844328 9.24536e-18)
(-3.08757 -0.9868 -9.37626e-18)
(-3.30654 -0.914052 0)
(-3.42223 -0.804571 0)
(-3.503 -0.692101 -1.11167e-17)
(-3.57058 -0.586831 0)
(-3.63454 -0.486039 -1.14148e-17)
(-3.70241 -0.390356 0)
(-3.77589 -0.299108 5.45438e-18)
(-3.85698 -0.210231 0)
(-3.94603 -0.123604 -4.92731e-18)
(-4.04242 -0.0383233 0)
(-4.14415 0.045788 0)
(-4.24587 0.128214 1.94982e-18)
(-4.33688 0.200669 -1.88363e-18)
(-4.41032 0.256429 5.35803e-18)
(-4.46413 0.299184 5.11384e-18)
(-4.49175 0.330239 -4.89777e-18)
(-4.4863 0.349175 -6.28872e-18)
(-4.44125 0.355024 0)
(-4.34959 0.346523 -7.16911e-19)
(-4.20459 0.322271 -4.10869e-18)
(-4.00112 0.280652 -1.31963e-18)
(-3.73417 0.219929 5.74533e-18)
(-3.39913 0.138422 1.48774e-17)
(-2.99159 0.0343452 -3.02319e-19)
(-2.50658 -0.0947967 2.92587e-19)
(-1.9428 -0.251572 -9.13499e-18)
(-1.29835 -0.436207 0)
(-0.554737 -0.643366 -8.56597e-18)
(0.222465 -0.901651 7.5299e-18)
(1.24439 -1.18718 1.29557e-20)
(1.96921 -1.53886 4.17047e-20)
(3.60733 -2.03756 -3.87855e-18)
(2.42445 16.5304 5.01591e-19)
(3.48134 17.5114 -4.19528e-19)
(4.49437 18.6845 2.53005e-18)
(5.63785 18.9219 -5.57185e-18)
(6.06767 16.4207 4.76963e-18)
(4.84138 11.1281 9.61464e-20)
(2.17038 5.12623 -8.41672e-20)
(-0.560978 1.00812 -1.48665e-17)
(-2.10847 -0.413207 -7.74179e-18)
(-2.7867 -0.717711 -7.73077e-18)
(-3.09096 -0.714748 0)
(-3.26249 -0.640624 0)
(-3.38127 -0.554214 0)
(-3.47565 -0.461808 4.43961e-18)
(-3.56383 -0.369099 -4.42963e-18)
(-3.65122 -0.279338 0)
(-3.74225 -0.190873 4.15748e-18)
(-3.8389 -0.104524 3.9295e-18)
(-3.94156 -0.0196683 -3.69952e-18)
(-4.04942 0.0634612 0)
(-4.15844 0.143893 -7.84759e-19)
(-4.25842 0.213663 4.51519e-18)
(-4.34178 0.266404 -7.16947e-18)
(-4.40614 0.304876 1.3624e-18)
(-4.4456 0.329905 9.13189e-18)
(-4.45369 0.341083 3.76117e-18)
(-4.42427 0.337431 6.00488e-18)
(-4.35102 0.317691 0)
(-4.22722 0.280548 4.3511e-18)
(-4.04781 0.22456 0)
(-3.80796 0.148059 3.51232e-18)
(-3.50329 0.0494897 -6.81136e-18)
(-3.12981 -0.072731 -8.01069e-18)
(-2.68322 -0.220863 6.83427e-18)
(-2.16257 -0.397321 -6.61102e-18)
(-1.56649 -0.6015 6.8012e-18)
(-0.883336 -0.828681 -6.7295e-18)
(-0.15863 -1.10973 -5.84161e-18)
(0.755069 -1.39451 -5.29722e-18)
(1.40888 -1.77378 4.06982e-18)
(2.81276 -2.14784 3.22229e-18)
(3.22023 15.8688 0)
(4.11489 16.7453 1.69387e-18)
(4.88528 17.6519 -9.69177e-19)
(5.74362 18.6015 1.12706e-18)
(6.61308 18.5514 9.07513e-19)
(6.77493 16.2 2.16822e-19)
(5.51482 11.497 1.99303e-18)
(2.96906 5.9979 5.48109e-18)
(0.229961 1.84408 4.54148e-18)
(-1.56133 0.0644484 6.35074e-18)
(-2.41485 -0.42035 -6.4395e-18)
(-2.82868 -0.497746 1.30387e-17)
(-3.06125 -0.470123 6.74811e-18)
(-3.21448 -0.406418 -2.07497e-17)
(-3.33777 -0.326686 6.98769e-18)
(-3.44815 -0.244135 -1.38947e-17)
(-3.55518 -0.159349 6.75332e-18)
(-3.66415 -0.0754725 0)
(-3.77688 0.00737381 -9.83012e-21)
(-3.89408 0.0883316 -2.82173e-18)
(-4.01316 0.165808 -1.93382e-18)
(-4.12462 0.232089 1.24701e-18)
(-4.22041 0.280974 4.71047e-18)
(-4.29796 0.314279 -2.24791e-18)
(-4.35209 0.332288 -8.561e-18)
(-4.37688 0.334529 -3.08049e-18)
(-4.36659 0.320016 -8.8711e-18)
(-4.3157 0.287478 4.65875e-18)
(-4.21775 0.235618 -8.85261e-19)
(-4.06776 0.16319 3.38419e-18)
(-3.86125 0.068687 -6.51051e-18)
(-3.59415 -0.0492543 3.93395e-18)
(-3.26294 -0.191888 5.33472e-18)
(-2.8642 -0.361153 -5.87911e-18)
(-2.39756 -0.558912 1.13058e-17)
(-1.86255 -0.783632 -4.32812e-20)
(-1.2547 -1.0321 5.21116e-18)
(-0.604072 -1.32759 -1.46019e-19)
(0.175778 -1.61111 1.37388e-19)
(0.739246 -1.98983 -3.1951e-20)
(1.88098 -2.23206 -2.75688e-18)
(4.02016 15.2527 3.90259e-19)
(4.74872 16.0682 -4.10367e-18)
(5.41274 16.8086 3.3483e-18)
(6.0634 17.622 -2.00382e-18)
(6.80263 18.393 -5.07254e-18)
(7.48069 18.2789 -3.01236e-18)
(7.52153 16.258 -2.81655e-18)
(6.33714 12.1728 -3.35038e-18)
(3.95624 7.12842 -2.10532e-18)
(1.21409 2.90347 3.36926e-18)
(-0.848831 0.655529 4.99176e-18)
(-1.94382 -0.0707234 -5.45606e-18)
(-2.50409 -0.262684 0)
(-2.80785 -0.287128 5.44601e-18)
(-3.00447 -0.246123 5.5283e-18)
(-3.15635 -0.183809 5.54404e-18)
(-3.28918 -0.109323 -1.09213e-17)
(-3.41657 -0.0316535 2.64911e-18)
(-3.54372 0.046812 5.00666e-18)
(-3.67369 0.12406 -9.39462e-18)
(-3.8058 0.19748 4.47888e-18)
(-3.93139 0.259439 -1.03544e-18)
(-4.04234 0.303655 1.97789e-18)
(-4.13606 0.330977 1.86841e-18)
(-4.20813 0.34109 1.77717e-18)
(-4.25323 0.33335 5.12021e-18)
(-4.26608 0.306763 9.84419e-18)
(-4.24188 0.26005 -4.65399e-18)
(-4.17494 0.19189 1.46449e-18)
(-4.06042 0.101206 -2.10399e-18)
(-3.89435 -0.0132401 6.78378e-19)
(-3.67314 -0.152518 -6.44093e-19)
(-3.39387 -0.317436 -2.47478e-18)
(-3.05411 -0.509335 5.96273e-19)
(-2.65423 -0.729086 -4.60673e-18)
(-2.19542 -0.974119 -4.41185e-18)
(-1.6796 -1.24157 4.1511e-18)
(-1.12624 -1.54131 0)
(-0.503159 -1.8211 0)
(-0.0442895 -2.16289 -5.83564e-18)
(0.816187 -2.27836 4.87143e-18)
(4.80782 14.6853 -3.21871e-19)
(5.40333 15.4211 0)
(5.96279 16.0994 0)
(6.51723 16.7438 0)
(7.09685 17.4558 5.86401e-18)
(7.73781 18.1149 2.50807e-18)
(8.29545 18.0703 0)
(8.31301 16.4739 2.24996e-18)
(7.28043 13.0418 -2.75853e-18)
(5.12317 8.4923 -3.45024e-18)
(2.43135 4.23725 2.56479e-18)
(0.100811 1.47595 0)
(-1.32535 0.363596 -4.74111e-18)
(-2.08223 0.006631 -9.13938e-18)
(-2.48979 -0.0781127 1.05355e-20)
(-2.74389 -0.0742939 8.9689e-18)
(-2.92862 -0.0285437 0)
(-3.08648 0.0345748 -2.16247e-18)
(-3.23409 0.104531 6.2422e-18)
(-3.38047 0.175862 -3.91638e-18)
(-3.52842 0.243835 3.53997e-18)
(-3.67072 0.3006 3.49231e-18)
(-3.79957 0.339379 -3.3298e-18)
(-3.91261 0.360019 0)
(-4.00614 0.361538 0)
(-4.07553 0.343004 -2.8591e-18)
(-4.11602 0.303392 -8.22225e-18)
(-4.12335 0.241435 0)
(-4.09308 0.155844 -3.68519e-18)
(-4.02073 0.0456213 1.16263e-18)
(-3.90292 -0.0900796 1.11215e-18)
(-3.7368 -0.25191 2.12066e-18)
(-3.52026 -0.44008 5.17699e-19)
(-3.25192 -0.654991 1.94603e-18)
(-2.93308 -0.89599 4.68719e-19)
(-2.56697 -1.15908 -3.10887e-18)
(-2.15999 -1.43934 -3.61688e-18)
(-1.72617 -1.73331 -1.97214e-19)
(-1.27237 -2.00091 2.80531e-18)
(-0.929056 -2.27047 2.3971e-18)
(-0.356544 -2.27445 -4.1493e-18)
(5.5691 14.1613 0)
(6.07136 14.8153 0)
(6.53446 15.4367 3.83064e-18)
(7.00502 16.014 -6.77721e-18)
(7.49679 16.5727 3.08682e-18)
(8.02045 17.1902 -2.45785e-18)
(8.5864 17.7837 2.19503e-18)
(9.07592 17.8687 -2.21789e-18)
(9.13115 16.7333 2.10859e-18)
(8.30881 13.9972 6.40835e-18)
(6.44779 10.0331 -2.47589e-18)
(3.88383 5.8597 3.44243e-18)
(1.3505 2.64028 -2.77085e-18)
(-0.478426 0.949965 -7.26218e-18)
(-1.5106 0.349092 0)
(-2.08138 0.159887 -7.5935e-18)
(-2.4153 0.120814 7.39201e-18)
(-2.64716 0.142134 3.59155e-18)
(-2.83418 0.190238 0)
(-3.00482 0.250363 0)
(-3.17183 0.310976 6.10523e-18)
(-3.33277 0.361987 -3.43133e-20)
(-3.48165 0.394931 -6.30265e-18)
(-3.61664 0.408509 1.32433e-18)
(-3.73483 0.401096 1.25529e-18)
(-3.83233 0.371379 3.57829e-18)
(-3.90497 0.318266 2.57986e-21)
(-3.94898 0.240551 2.18423e-18)
(-3.96113 0.137119 -2.05228e-18)
(-3.93779 0.0070182 -1.93587e-18)
(-3.87624 -0.15018 1.8307e-18)
(-3.77457 -0.334519 0)
(-3.63168 -0.54539 -8.34124e-19)
(-3.44739 -0.781928 -1.5997e-18)
(-3.22392 -1.04148 2.28003e-18)
(-2.96625 -1.31785 1.47211e-18)
(-2.68287 -1.60203 0)
(-2.38634 -1.88081 3.07778e-19)
(-2.10212 -2.12051 -2.58641e-18)
(-1.8887 -2.29754 0)
(-1.55991 -2.21475 1.72422e-18)
(6.29871 13.675 0)
(6.73348 14.2551 0)
(7.12623 14.8108 0)
(7.51817 15.342 3.18282e-18)
(7.93435 15.8369 0)
(8.37876 16.3188 0)
(8.85591 16.8525 -2.27374e-18)
(9.36626 17.3987 3.78148e-18)
(9.82083 17.6193 -2.03544e-18)
(9.94803 16.9376 -8.81502e-18)
(9.37565 14.9199 1.51461e-19)
(7.86388 11.6282 -3.95141e-18)
(5.53594 7.72126 1.27102e-17)
(2.92749 4.19926 -7.1409e-18)
(0.717563 1.86533 5.16135e-18)
(-0.715451 0.81671 0)
(-1.52413 0.455792 0)
(-1.99182 0.349068 1.31734e-20)
(-2.29284 0.334745 0)
(-2.52124 0.363542 0)
(-2.72128 0.407797 0)
(-2.90558 0.45076 -3.10733e-19)
(-3.07625 0.478016 -4.09092e-18)
(-3.23465 0.485253 3.33843e-18)
(-3.37953 0.46964 3.13022e-18)
(-3.50797 0.429282 -2.0047e-18)
(-3.61649 0.363074 -2.84089e-18)
(-3.70186 0.269998 1.80653e-18)
(-3.76147 0.149301 3.42185e-18)
(-3.79322 0.000342901 -1.60265e-18)
(-3.79508 -0.17699 -3.02832e-18)
(-3.76611 -0.381964 1.43284e-18)
(-3.70631 -0.6129 1.3578e-18)
(-3.61671 -0.867354 1.29112e-18)
(-3.50037 -1.14043 -2.46959e-18)
(-3.36286 -1.42304 2.34337e-18)
(-3.21259 -1.70163 -5.44809e-19)
(-3.06141 -1.95686 7.68204e-19)
(-2.93509 -2.1546 -2.37905e-19)
(-2.84986 -2.24381 -1.67417e-18)
(-2.70715 -2.10183 1.5111e-18)
(6.99353 13.2226 0)
(7.37695 13.7374 3.23637e-18)
(7.72002 14.2296 -9.90813e-18)
(8.05308 14.7067 -8.61429e-18)
(8.40041 15.163 -2.33808e-19)
(8.77471 15.5895 -3.03786e-19)
(9.17922 16.0043 5.64584e-18)
(9.6161 16.4609 -1.49827e-17)
(10.0838 16.9582 5.33738e-18)
(10.5201 17.2846 3.12646e-18)
(10.7326 17.006 2.98014e-18)
(10.4155 15.6737 4.46566e-18)
(9.29093 13.1308 -6.47284e-18)
(7.31835 9.70632 1.65914e-19)
(4.81084 6.13991 2.58249e-18)
(2.34222 3.26332 -6.69475e-18)
(0.44346 1.56071 1.63163e-17)
(-0.733998 0.863799 -1.38362e-17)
(-1.41613 0.628341 1.33242e-17)
(-1.83299 0.563851 -1.23175e-17)
(-2.12642 0.560988 0)
(-2.35984 0.582425 2.6544e-19)
(-2.563 0.599418 0)
(-2.74906 0.600016 -3.70663e-18)
(-2.92229 0.577934 3.06296e-18)
(-3.08281 0.529391 8.20057e-19)
(-3.22886 0.452605 -1.55343e-18)
(-3.35824 0.346511 -7.38211e-19)
(-3.46896 0.210748 -1.40619e-18)
(-3.55971 0.0455723 1.3253e-18)
(-3.62979 -0.148542 0)
(-3.67895 -0.370077 0)
(-3.70803 -0.616107 -1.10929e-18)
(-3.71905 -0.88248 -2.09558e-18)
(-3.71542 -1.16207 1.99682e-18)
(-3.702 -1.44308 -9.46567e-19)
(-3.68515 -1.70862 0)
(-3.67376 -1.93629 0)
(-3.68333 -2.0906 -1.89043e-19)
(-3.70977 -2.11807 1.56069e-18)
(-3.69842 -1.95039 -1.26032e-18)
(7.65115 12.8013 0)
(7.99414 13.2587 0)
(8.30002 13.6937 -7.03369e-20)
(8.59119 14.116 2.21863e-19)
(8.88696 14.5265 1.39997e-17)
(9.2002 14.9199 -8.09819e-18)
(9.53964 15.2893 7.82512e-18)
(9.90849 15.6452 3.57455e-18)
(10.309 16.03 4.41942e-18)
(10.74 16.4669 -1.32403e-17)
(11.1637 16.8499 7.25449e-18)
(11.4538 16.8806 3.77783e-18)
(11.3731 16.1549 -5.25584e-18)
(10.6478 14.3904 5.09706e-18)
(9.12435 11.6385 -4.46362e-18)
(6.91045 8.34037 -1.80859e-18)
(4.39691 5.18453 3.43099e-18)
(2.11069 2.82035 0)
(0.440165 1.51903 1.38142e-17)
(-0.590136 1.01141 -9.0548e-18)
(-1.20737 0.845173 -8.38342e-18)
(-1.5969 0.801617 7.64653e-18)
(-1.88081 0.787948 -7.02486e-18)
(-2.11777 0.772647 0)
(-2.33056 0.741695 -5.71711e-18)
(-2.52826 0.686442 5.85038e-18)
(-2.71375 0.602613 5.74048e-18)
(-2.88774 0.488166 -3.61815e-18)
(-3.05007 0.342653 0)
(-3.20049 0.166818 0)
(-3.33918 -0.0379419 0)
(-3.46678 -0.269362 9.47952e-19)
(-3.5844 -0.523346 8.92519e-19)
(-3.69444 -0.794158 -8.41295e-19)
(-3.79988 -1.07288 8.02502e-19)
(-3.90366 -1.34614 0)
(-4.00873 -1.5961 0)
(-4.11877 -1.80065 0)
(-4.23711 -1.92677 -6.47732e-19)
(-4.35287 -1.93171 0)
(-4.43112 -1.77973 0)
(8.26965 12.4088 0)
(8.57989 12.8156 -4.80252e-18)
(8.85674 13.1997 4.73118e-18)
(9.11695 13.5716 -9.2421e-18)
(9.37575 13.9343 -4.21085e-18)
(9.64362 14.2877 1.47612e-17)
(9.92906 14.628 -1.41783e-17)
(10.2382 14.9485 1.48641e-19)
(10.5745 15.2531 -8.66464e-18)
(10.9404 15.5715 1.1405e-17)
(11.3367 15.938 -9.75819e-18)
(11.746 16.3225 6.48257e-19)
(12.0927 16.5493 1.80938e-17)
(12.208 16.3052 -3.64211e-18)
(11.8557 15.2711 -1.29396e-18)
(10.8278 13.3061 -2.42508e-18)
(9.07222 10.568 -2.5961e-18)
(6.77323 7.50619 0)
(4.32674 4.71615 5.82028e-18)
(2.1923 2.70787 -9.04314e-18)
(0.659966 1.63893 1.24032e-17)
(-0.271827 1.24222 -1.40253e-17)
(-0.833294 1.11467 1.32192e-17)
(-1.21784 1.05474 -2.35599e-17)
(-1.51785 0.999755 1.07821e-17)
(-1.7774 0.929885 -2.98451e-19)
(-2.01547 0.83732 0)
(-2.24049 0.717457 -1.00644e-18)
(-2.45647 0.56795 -4.67823e-19)
(-2.66559 0.388624 3.48576e-18)
(-2.8694 0.181082 -3.28913e-18)
(-3.06939 -0.0514566 7.67054e-19)
(-3.26767 -0.304002 -1.44615e-18)
(-3.46632 -0.57034 0)
(-3.66712 -0.841368 6.4586e-19)
(-3.87027 -1.10409 -6.13717e-19)
(-4.07517 -1.34205 0)
(-4.2808 -1.53631 -1.1143e-18)
(-4.48197 -1.66046 2.55027e-19)
(-4.66816 -1.68516 2.55246e-19)
(-4.81545 -1.59165 4.94723e-19)
(8.84777 12.0431 4.01116e-18)
(9.13069 12.4047 -7.00623e-20)
(9.38409 12.7435 0)
(9.62045 13.0701 -4.0266e-18)
(9.85159 13.3883 -1.1051e-17)
(10.0865 13.6994 5.21493e-19)
(10.3322 14.0038 6.44113e-18)
(10.5942 14.2979 -2.83898e-18)
(10.8768 14.5755 1.05726e-17)
(11.1832 14.8355 -5.26249e-19)
(11.5159 15.0952 -1.21246e-17)
(11.8786 15.3893 8.7157e-18)
(12.267 15.7302 -1.25033e-17)
(12.6423 16.0408 -4.56446e-19)
(12.8986 16.1193 -1.51619e-18)
(12.8567 15.6867 5.76947e-18)
(12.3087 14.5092 8.20646e-18)
(11.107 12.5298 -8.17087e-18)
(9.25742 9.93625 -6.60083e-18)
(6.96492 7.13411 2.95e-19)
(4.59882 4.62769 1.33083e-17)
(2.63121 2.88447 8.03122e-18)
(1.26463 1.97217 -9.36589e-18)
(0.369438 1.58783 -6.26682e-19)
(-0.227012 1.42539 0)
(-0.656832 1.31958 0)
(-1.00326 1.21005 7.97472e-18)
(-1.30841 1.07979 -6.63225e-18)
(-1.59307 0.924741 2.01327e-19)
(-1.86754 0.744285 2.96281e-18)
(-2.13731 0.539263 -3.09758e-18)
(-2.4056 0.312347 -2.87467e-18)
(-2.67434 0.06823 1.79385e-18)
(-2.9461 -0.187562 -2.2349e-18)
(-3.22196 -0.447029 1.5789e-18)
(-3.50041 -0.699323 9.91766e-19)
(-3.77883 -0.931145 9.46516e-19)
(-4.05397 -1.12875 -9.1507e-19)
(-4.31678 -1.27435 1.3129e-18)
(-4.5609 -1.35011 -4.24858e-19)
(-4.77422 -1.34481 -3.99464e-19)
(9.38425 11.7024 -6.867e-18)
(9.64377 12.0233 3.59074e-18)
(9.87769 12.3216 0)
(10.0951 12.6075 2.01007e-17)
(10.3053 12.8851 -1.34656e-17)
(10.5155 13.1566 0)
(10.7319 13.4229 1.1201e-17)
(10.9591 13.6837 5.27142e-18)
(11.201 13.9362 -1.91808e-17)
(11.4605 14.175 1.8848e-17)
(11.7398 14.3961 0)
(12.0418 14.6076 -1.61554e-17)
(12.3717 14.8353 1.23295e-17)
(12.732 15.1068 1.91264e-18)
(13.1086 15.4103 -1.19631e-17)
(13.4459 15.6482 1.79269e-17)
(13.6274 15.6282 0)
(13.4836 15.1189 0)
(12.8386 13.9473 -7.0311e-18)
(11.5831 12.0903 6.94773e-18)
(9.73984 9.71926 -8.42898e-18)
(7.59454 7.26302 8.98543e-18)
(5.52189 5.14368 -6.65064e-19)
(3.76443 3.58119 1.13038e-17)
(2.4193 2.61656 -1.29777e-17)
(1.43909 2.10189 -6.59973e-18)
(0.725742 1.82855 1.31953e-17)
(0.187118 1.64418 -6.42687e-18)
(-0.249262 1.47384 6.20059e-18)
(-0.631821 1.2907 -5.41447e-18)
(-0.98812 1.08818 5.22929e-18)
(-1.33227 0.866927 2.59246e-19)
(-1.67116 0.630845 -4.15092e-18)
(-2.00911 0.384631 -1.92447e-18)
(-2.34736 0.134458 1.52113e-21)
(-2.68475 -0.111709 1.26514e-18)
(-3.01802 -0.344697 0)
(-3.344 -0.556559 0)
(-3.65379 -0.737049 -3.65735e-19)
(-3.9477 -0.875916 0)
(-4.22986 -0.964358 0)
(9.87691 11.3843 5.85308e-18)
(10.1158 11.6686 -3.03226e-18)
(10.3329 11.9308 -2.305e-17)
(10.5346 12.1804 6.16992e-19)
(10.7284 12.4217 5.68065e-17)
(10.9199 12.6569 -6.14232e-19)
(11.1143 12.8874 -5.55357e-18)
(11.3157 13.1135 -4.19e-17)
(11.5273 13.3347 1.78205e-17)
(11.7519 13.5487 -1.62979e-17)
(11.9912 13.7512 1.60767e-17)
(12.247 13.9381 -3.82929e-18)
(12.522 14.1109 0)
(12.8206 14.2833 1.17461e-17)
(13.1484 14.4812 -1.16912e-17)
(13.5057 14.7233 9.13642e-18)
(13.8722 14.9863 -1.36124e-17)
(14.1864 15.174 -1.09404e-17)
(14.3342 15.1207 1.10932e-17)
(14.164 14.6379 1.3857e-18)
(13.517 13.5835 6.44887e-19)
(12.3588 12.0126 -7.39752e-19)
(10.8088 10.1323 3.77302e-19)
(9.04232 8.1662 4.18641e-19)
(7.25763 6.34368 7.54995e-18)
(5.62424 4.83887 -7.28176e-19)
(4.24379 3.73085 -8.7966e-18)
(3.13231 2.99019 -6.82709e-20)
(2.25027 2.5145 2.79698e-19)
(1.54312 2.18966 -6.6524e-20)
(0.959099 1.93078 0)
(0.455137 1.6906 -3.94943e-18)
(-2.93554e-05 1.44966 3.85443e-18)
(-0.427465 1.20314 0)
(-0.838778 0.952428 1.02455e-19)
(-1.23828 0.701852 0)
(-1.62582 0.457005 0)
(-2.00173 0.221788 -1.6742e-19)
(-2.35981 0.00178103 3.16369e-19)
(-2.70542 -0.197564 -1.5198e-19)
(-3.0634 -0.368337 0)
(10.3048 11.101 0)
(10.5258 11.3533 2.11831e-17)
(10.7283 11.5845 -3.22835e-17)
(10.9169 11.8035 -1.03389e-17)
(11.0975 12.0141 -9.98716e-18)
(11.2746 12.2188 2.10402e-17)
(11.4528 12.4187 -9.7235e-18)
(11.6354 12.6143 -9.06057e-18)
(11.8254 12.8055 -8.5341e-18)
(12.025 12.9914 0)
(12.2358 13.1703 0)
(12.4594 13.3398 7.29734e-18)
(12.6971 13.496 -1.3781e-17)
(12.9506 13.6367 5.05808e-19)
(13.2228 13.7665 -1.052e-18)
(13.5197 13.9024 2.47571e-17)
(13.8481 14.0685 9.00239e-19)
(14.2076 14.2778 -1.97069e-18)
(14.5751 14.5044 -9.58319e-18)
(14.891 14.6635 -1.21901e-18)
(15.0444 14.6108 1.08613e-17)
(14.9064 14.2171 -1.88759e-17)
(14.4073 13.4404 9.36084e-18)
(13.5441 12.307 0)
(12.3699 10.9083 0)
(10.9806 9.37552 3.4358e-19)
(9.4944 7.8511 6.3088e-18)
(8.02799 6.45994 -6.35386e-18)
(6.67383 5.28637 -6.58976e-18)
(5.48264 4.36057 1.28234e-17)
(4.46269 3.66199 -1.29158e-17)
(3.59588 3.13925 6.35405e-18)
(2.85477 2.73404 -1.21963e-19)
(2.20887 2.39678 9.48268e-20)
(1.63331 2.09475 -9.07835e-20)
(1.1101 1.81037 -1.41705e-18)
(0.626827 1.53589 2.76552e-18)
(0.171174 1.26712 -1.2247e-18)
(-0.257056 1.00484 0)
(-0.66588 0.750707 1.54355e-19)
(-1.11712 0.511228 0)
(10.6603 10.8588 4.85742e-18)
(10.8663 11.0838 -1.94533e-17)
(11.0565 11.2886 5.92794e-17)
(11.2343 11.4814 -3.97631e-17)
(11.4043 11.666 0)
(11.5706 11.8448 0)
(11.7366 12.0191 9.45947e-18)
(11.9055 12.1893 8.76952e-18)
(12.0798 12.3553 8.22617e-18)
(12.2614 12.5165 0)
(12.4517 12.6718 0)
(12.6523 12.8204 -3.55091e-17)
(12.8644 12.9605 5.52619e-17)
(13.0885 13.0889 -4.21659e-18)
(13.3254 13.2022 -2.60748e-17)
(13.5765 13.3 3.15007e-18)
(13.8461 13.39 6.08319e-18)
(14.1418 13.4898 1.38179e-18)
(14.4715 13.6211 -2.72621e-18)
(14.8356 13.7935 0)
(15.2112 13.9804 9.80076e-20)
(15.5288 14.1054 -9.40518e-18)
(15.7063 14.0822 -2.81018e-19)
(15.6786 13.8412 1.82925e-17)
(15.3996 13.3432 -3.2101e-19)
(14.8532 12.5893 -9.30296e-18)
(14.0567 11.6184 -2.82726e-19)
(13.0564 10.4973 -5.34975e-18)
(11.9181 9.30655 4.65941e-18)
(10.7147 8.12653 1.53116e-19)
(9.51497 7.02492 -3.29299e-19)
(8.3728 6.04735 5.06596e-18)
(7.3218 5.21356 -2.52197e-18)
(6.37134 4.51806 -5.05927e-18)
(5.51945 3.94203 2.29406e-18)
(4.75872 3.46098 0)
(4.0786 3.04949 0)
(3.45975 2.6824 3.57044e-20)
(2.89588 2.34366 0)
(2.37768 2.02192 0)
(1.7944 1.71621 0)
(10.9581 10.6499 -4.4442e-18)
(11.151 10.851 4.50357e-18)
(11.3304 11.0329 8.93028e-18)
(11.4987 11.2032 2.70478e-17)
(11.6598 11.3654 -3.73846e-17)
(11.817 11.5218 1.86236e-17)
(11.9733 11.6738 -1.85084e-17)
(12.1315 11.8218 -4.26733e-17)
(12.2937 11.9658 2.45363e-17)
(12.4616 12.1053 -3.79835e-17)
(12.6365 12.2395 3.69735e-17)
(12.8197 12.3678 3.47239e-18)
(13.0123 12.4894 3.41697e-18)
(13.2153 12.6028 6.52131e-18)
(13.4287 12.7057 3.20159e-18)
(13.6528 12.7949 2.41959e-17)
(13.8879 12.8681 -2.98012e-17)
(14.136 12.927 2.25113e-17)
(14.4028 12.9806 -2.11121e-17)
(14.6973 13.0458 0)
(15.0294 13.141 -1.2266e-18)
(15.3869 13.2653 0)
(15.7398 13.3948 1.13388e-18)
(16.0538 13.4897 -8.98404e-18)
(16.2841 13.5007 9.02799e-18)
(16.3865 13.383 0)
(16.3256 13.1061 5.55698e-19)
(16.0815 12.659 5.05437e-19)
(15.6517 12.051 -2.96908e-19)
(15.0515 11.3083 5.50727e-19)
(14.3097 10.469 -2.9747e-19)
(13.464 9.57641 -4.20814e-18)
(12.5564 8.67374 4.57628e-18)
(11.623 7.79553 2.76581e-19)
(10.6968 6.96934 -1.96058e-18)
(9.80425 6.21373 4.14796e-18)
(8.96391 5.53619 -2.0493e-18)
(8.17398 4.92925 0)
(7.44 4.38624 0)
(6.77157 3.89343 0)
(6.01161 3.44222 -1.19073e-19)
(11.2101 10.4667 7.99144e-18)
(11.3914 10.6467 -2.88683e-17)
(11.5609 10.8084 3.3846e-17)
(11.7206 10.959 3.38802e-17)
(11.8736 11.1017 -3.49245e-17)
(12.0228 11.2385 -3.21401e-19)
(12.1708 11.371 -3.56233e-17)
(12.3199 11.4996 -8.02156e-18)
(12.4722 11.6241 3.94924e-17)
(12.629 11.7442 7.39327e-18)
(12.7915 11.8594 -7.05764e-18)
(12.9608 11.9691 0)
(13.138 12.0727 1.61712e-17)
(13.3238 12.1692 -2.25452e-17)
(13.5188 12.2575 -2.75161e-17)
(13.7233 12.336 7.02117e-19)
(13.937 12.4022 2.3654e-17)
(14.1598 12.4537 -1.94739e-17)
(14.3923 12.489 4.67823e-17)
(14.6372 12.5108 -2.16213e-17)
(14.9015 12.5283 0)
(15.186 12.5537 0)
(15.4885 12.5965 0)
(15.8081 12.6577 9.23836e-18)
(16.1335 12.7268 -1.03857e-17)
(16.4447 12.7832 8.67893e-18)
(16.7161 12.8007 -9.18644e-18)
(16.9205 12.7528 8.21393e-18)
(17.0333 12.6183 -3.75441e-18)
(17.0365 12.3839 -4.52191e-18)
(16.9199 12.0456 -4.90892e-20)
(16.6824 11.6087 0)
(16.3316 11.0863 -2.30172e-19)
(15.8794 10.4947 -2.28644e-19)
(15.3436 9.85415 1.88448e-18)
(14.7453 9.1871 -2.14754e-18)
(14.1086 8.5147 -2.47732e-19)
(13.4455 7.84772 0)
(12.7711 7.20035 0)
(12.1271 6.57771 4.4864e-19)
(11.3382 5.97054 -3.32193e-19)
(11.4254 10.3041 -7.35417e-18)
(11.5959 10.4653 0)
(11.7562 10.6091 -3.11057e-17)
(11.9078 10.7422 -3.14819e-17)
(12.0533 10.8676 3.25891e-17)
(12.1952 10.9871 -1.61525e-17)
(12.3358 11.1023 5.00387e-17)
(12.4769 11.2136 -1.61805e-17)
(12.6205 11.3208 0)
(12.7678 11.4237 0)
(12.9198 11.5218 0)
(13.0773 11.6146 -2.62729e-17)
(13.2414 11.7015 5.76455e-17)
(13.4127 11.7818 -3.12855e-17)
(13.5918 11.8546 2.39269e-17)
(13.7791 11.9189 -2.67039e-17)
(13.9748 11.9735 -2.26735e-17)
(14.1789 12.0167 1.98634e-17)
(14.3911 12.0464 -2.14022e-17)
(14.6111 12.0602 2.14467e-17)
(14.8399 12.0575 2.61978e-18)
(15.0738 12.0411 -2.56579e-18)
(15.3117 12.0185 0)
(15.5598 11.9975 0)
(15.8217 11.9845 1.03212e-17)
(16.0976 11.9815 -9.16761e-18)
(16.383 11.9851 -1.14118e-18)
(16.6691 11.987 0)
(16.9434 11.9753 -1.09107e-18)
(17.1913 11.9366 5.34515e-19)
(17.3984 11.8585 -3.49594e-18)
(17.5518 11.7309 3.96835e-18)
(17.6417 11.5475 0)
(17.6616 11.3053 -3.77034e-18)
(17.6088 11.005 1.91702e-18)
(17.4842 10.6513 1.59141e-18)
(17.2936 10.2524 2.0445e-18)
(17.0417 9.81348 -9.22091e-19)
(16.7308 9.34394 -9.07156e-19)
(16.4014 8.85492 0)
(15.9144 8.32738 -2.36426e-19)
(11.6104 10.1584 2.00775e-17)
(11.7708 10.3027 -1.40442e-17)
(11.9225 10.4305 1.43614e-17)
(12.0663 10.548 0)
(12.2046 10.658 -9.00325e-17)
(12.3396 10.7622 9.2778e-17)
(12.4732 10.8619 0)
(12.607 10.9578 1.57271e-17)
(12.7428 11.0496 0)
(12.8816 11.137 0)
(13.0242 11.2196 0)
(13.1714 11.297 5.09121e-17)
(13.324 11.3688 -5.01477e-17)
(13.4826 11.4341 -6.08634e-18)
(13.6475 11.4923 0)
(13.8194 11.5425 0)
(13.9984 11.5837 0)
(14.1848 11.6151 0)
(14.3787 11.6353 -5.35266e-18)
(14.5797 11.6426 -5.32034e-18)
(14.7875 11.6348 -2.49788e-18)
(14.9959 11.6106 -1.99279e-17)
(15.2002 11.5715 -2.11352e-18)
(15.4029 11.5198 2.18602e-17)
(15.6066 11.4598 0)
(15.8144 11.3959 1.18544e-18)
(16.0287 11.3319 1.09317e-18)
(16.251 11.2703 0)
(16.4804 11.211 -6.47653e-18)
(16.7141 11.152 1.54725e-17)
(16.9472 11.0892 -1.15203e-17)
(17.1735 11.0173 8.23983e-18)
(17.3859 10.9309 -5.13181e-18)
(17.5776 10.8247 -5.21407e-19)
(17.742 10.694 0)
(17.8732 10.5356 4.56555e-19)
(17.9669 10.3482 -1.92398e-18)
(18.0208 10.1311 -4.96949e-19)
(18.0304 9.88393 1.90518e-18)
(18.0082 9.6122 -4.73747e-19)
(17.9004 9.30371 6.82992e-19)
(11.7702 10.027 0)
(11.9211 10.156 0)
(12.0644 10.2694 -1.9615e-19)
(12.2008 10.3729 -2.75439e-17)
(12.3322 10.469 -4.98354e-20)
(12.4605 10.5594 8.51779e-20)
(12.5874 10.6454 0)
(12.7143 10.7274 4.44479e-17)
(12.8427 10.8054 -8.56398e-17)
(12.9735 10.8789 5.3369e-17)
(13.1076 10.9477 -5.18252e-17)
(13.2453 11.0112 6.16753e-17)
(13.3875 11.0692 -8.40393e-17)
(13.5345 11.121 5.29558e-17)
(13.6868 11.1658 0)
(13.8446 11.203 0)
(14.0082 11.2316 0)
(14.1779 11.2508 -5.42561e-18)
(14.3537 11.2597 2.59084e-18)
(14.5357 11.2573 -1.58532e-19)
(14.7237 11.2421 2.56238e-18)
(14.912 11.2131 -2.61777e-18)
(15.0955 11.1707 -2.58348e-18)
(15.2741 11.1147 -2.34195e-18)
(15.4478 11.0459 2.41246e-18)
(15.617 10.9657 1.24866e-18)
(15.7827 10.8761 1.17406e-18)
(15.9466 10.7795 1.15907e-18)
(16.11 10.6782 -1.07655e-18)
(16.274 10.574 1.09425e-17)
(16.439 10.4682 -9.75741e-18)
(16.6045 10.3609 4.26915e-18)
(16.7693 10.2519 -7.4556e-18)
(16.9315 10.1402 4.69694e-18)
(17.0887 10.0242 -4.13757e-18)
(17.2377 9.9024 4.11358e-18)
(17.3747 9.77318 0)
(17.4979 9.63571 4.79162e-19)
(17.6042 9.48808 -5.23875e-19)
(17.6895 9.33128 -5.03486e-19)
(17.7587 9.16523 4.93901e-19)
(11.9086 9.90773 0)
(12.0505 10.0229 2.33598e-17)
(12.1857 10.1233 -1.62298e-19)
(12.3149 10.2142 -5.04135e-17)
(12.4395 10.2979 7.89429e-17)