/*--------------------------------*- C++ -*----------------------------------*\
| =========                 |                                                 |
| \\      /  F ield         | OpenFOAM: The Open Source CFD Toolbox           |
|  \\    /   O peration     | Version:  5.x                                   |
|   \\  /    A nd           | Web:      www.OpenFOAM.org                      |
|    \\/     M anipulation  |                                                 |
\*---------------------------------------------------------------------------*/
FoamFile
{
    version     2.0;
    format      ascii;
    class       volVectorField;
    location    "450";
    object      U;
}
// * * * * * * * * * * * * * * * * * * * * * * * * * * * * * * * * * * * * * //

dimensions      [0 1 -1 0 0 0 0];

internalField   nonuniform List<vector> 
11040
(
(1.69252 2.17312 0)
(1.84351 7.87767 -1.06741e-19)
(4.31676 12.8166 1.1032e-17)
(7.65347 15.6204 1.4364e-17)
(11.1753 16.833 3.83162e-17)
(14.4232 16.8692 -2.11928e-17)
(17.203 16.0944 -2.2157e-17)
(19.478 14.8117 2.35325e-17)
(21.177 13.1546 5.63519e-17)
(22.2195 11.1904 1.83751e-18)
(22.3449 8.8003 3.13474e-17)
(21.8409 6.53736 -1.97725e-18)
(21.3675 4.92599 3.26469e-17)
(21.2339 3.91359 3.44818e-17)
(21.1247 3.0562 3.04388e-17)
(20.8562 2.241 2.02057e-17)
(20.4451 1.49593 -1.81443e-17)
(19.9579 0.831964 -1.96826e-18)
(19.426 0.241015 1.9953e-18)
(18.8613 -0.28354 1.54881e-17)
(18.2635 -0.743895 1.51791e-17)
(17.7267 -1.11103 1.5841e-17)
(17.2402 -1.38695 3.0517e-17)
(16.7589 -1.619 1.96766e-18)
(16.2824 -1.81542 -2.55133e-20)
(15.8113 -1.98075 -9.81264e-19)
(15.3447 -2.11908 6.10221e-17)
(14.88 -2.23375 -9.32544e-19)
(14.4144 -2.32736 6.09155e-17)
(13.9443 -2.40192 -5.85297e-17)
(13.4651 -2.45887 -9.34304e-19)
(12.9706 -2.49899 -4.49787e-19)
(12.4531 -2.52215 4.60573e-19)
(11.9027 -2.52717 0)
(11.3027 -2.5116 -1.14719e-16)
(10.6355 -2.47109 0)
(9.87031 -2.39621 0)
(8.98153 -2.27806 2.21051e-19)
(7.82717 -2.0773 -5.93409e-21)
(6.5464 -1.78788 1.2635e-16)
(3.83128 -1.41512 2.9551e-16)
(2.82493 2.94202 0)
(3.32884 7.37 0)
(6.15938 11.1292 -6.64165e-18)
(9.62256 13.3103 8.83791e-18)
(13.1594 14.2421 -2.32483e-17)
(16.3942 14.2281 2.82833e-17)
(19.1519 13.5402 1.47889e-17)
(21.3803 12.3939 2.12303e-18)
(23.1403 10.9888 -1.00718e-18)
(24.5175 9.48843 2.22831e-17)
(25.434 7.77574 -2.49726e-18)
(25.5277 6.18088 0)
(25.0725 4.98289 0)
(24.5628 4.07278 -2.08872e-17)
(24.1699 3.14803 -2.35914e-17)
(23.7305 2.26749 -1.84092e-17)
(23.2262 1.48462 0)
(22.6802 0.788653 1.27516e-18)
(22.0966 0.165334 -3.80978e-18)
(21.4741 -0.389005 -2.49465e-18)
(20.8121 -0.876184 -1.09396e-17)
(20.1977 -1.26224 -1.02745e-17)
(19.6532 -1.55507 -1.25717e-18)
(19.1199 -1.80442 2.14863e-17)
(18.5956 -2.01753 -1.87532e-17)
(18.0795 -2.19788 -1.26789e-18)
(17.5711 -2.34996 -3.91195e-17)
(17.0684 -2.47721 5.96278e-19)
(16.5691 -2.58232 -3.88067e-17)
(16.0703 -2.66747 3.77016e-17)
(15.5682 -2.73426 3.77565e-17)
(15.0579 -2.78365 -3.78008e-17)
(14.533 -2.81562 1.78744e-20)
(13.9856 -2.82904 8.3746e-19)
(13.4028 -2.82203 3.45985e-17)
(12.7711 -2.79003 0)
(12.0648 -2.72353 2.57131e-19)
(11.2714 -2.61489 -6.60423e-17)
(10.2552 -2.42192 -6.45133e-17)
(9.20394 -2.15927 -6.30851e-17)
(6.76031 -1.59967 -2.06039e-16)
(4.45696 3.38693 0)
(5.1774 6.92015 0)
(7.26911 10.0573 1.98931e-18)
(9.92996 12.1605 -5.84637e-18)
(12.792 13.3507 6.81305e-18)
(15.5925 13.7303 -1.00498e-17)
(18.1474 13.4367 -9.59757e-18)
(20.3528 12.6246 0)
(22.1558 11.4368 -1.8162e-17)
(23.5742 9.98516 -1.15672e-17)
(24.5943 8.27369 0)
(25.036 6.6827 0)
(25.0322 5.44243 -1.56745e-17)
(24.8997 4.45626 -1.58499e-17)
(24.7525 3.47959 -1.98853e-18)
(24.4981 2.56091 2.02912e-18)
(24.1315 1.736 0)
(23.6931 0.993954 0)
(23.1996 0.323754 9.90492e-19)
(22.6534 -0.277012 -1.91264e-18)
(22.0553 -0.809265 1.92402e-18)
(21.4867 -1.2323 -6.02733e-18)
(20.9714 -1.55784 -5.04443e-20)
(20.4588 -1.8373 1.27492e-17)
(19.9491 -2.07728 1.00835e-18)
(19.4424 -2.28171 9.26488e-19)
(18.9388 -2.45529 8.24275e-21)
(18.4372 -2.60168 -9.45911e-19)
(17.936 -2.72376 0)
(17.4328 -2.82381 0)
(16.9242 -2.90352 -5.69551e-17)
(16.4058 -2.96388 5.55357e-17)
(15.8718 -3.00493 -2.70353e-17)
(15.3153 -3.02555 0)
(14.7241 -3.02358 -2.63241e-17)
(14.0872 -2.99429 -2.57378e-17)
(13.3823 -2.92844 0)
(12.6034 -2.81539 -2.5653e-19)
(11.6326 -2.62092 1.88738e-19)
(10.6823 -2.32591 0)
(8.65133 -1.82118 9.13154e-17)
(6.11497 3.68503 -1.04266e-19)
(6.86006 6.52315 1.24201e-19)
(8.45391 9.09375 1.51786e-18)
(10.5797 10.9641 0)
(12.9822 12.154 -1.04655e-17)
(15.4456 12.6667 0)
(17.792 12.5648 2.1834e-17)
(19.8913 11.9588 -2.45869e-19)
(21.6583 10.9686 2.50153e-18)
(23.0608 9.71649 1.91178e-17)
(24.0656 8.22472 2.81389e-18)
(24.5786 6.74035 8.74392e-18)
(24.7043 5.50756 2.752e-17)
(24.6957 4.52103 1.24873e-17)
(24.6654 3.58681 0)
(24.5421 2.69471 -3.10983e-18)
(24.3019 1.87504 6.03353e-20)
(23.9764 1.12841 -3.0648e-18)
(23.5869 0.447772 -1.52898e-18)
(23.1391 -0.168479 1.54848e-18)
(22.6345 -0.719735 5.99719e-18)
(22.1443 -1.16338 6.38988e-18)
(21.6907 -1.50846 0)
(21.2313 -1.8068 -2.66482e-17)
(20.7673 -2.06488 1.40007e-17)
(20.2998 -2.28679 -1.2285e-17)
(19.8301 -2.47691 2.42443e-17)
(19.358 -2.63878 0)
(18.8826 -2.77519 0)
(18.4017 -2.88838 0)
(17.9129 -2.98 2.26764e-17)
(17.4123 -3.05099 -2.29288e-17)
(16.895 -3.10135 6.97076e-19)
(16.3549 -3.12987 2.19703e-17)
(15.7811 -3.1342 2.01185e-17)
(15.1639 -3.10927 2.05599e-17)
(14.484 -3.0462 3.93975e-17)
(13.7378 -2.9314 3.74944e-17)
(12.8224 -2.73982 1.46641e-19)
(11.9366 -2.41831 3.44506e-17)
(10.222 -1.96362 -3.39894e-17)
(7.67296 3.8547 0)
(8.39803 6.13154 -5.41609e-19)
(9.64582 8.20408 -1.21226e-18)
(11.3101 9.82843 2.09792e-19)
(13.2642 10.9827 7.40514e-18)
(15.3541 11.6099 -9.74543e-18)
(17.4353 11.7106 -8.31047e-19)
(19.3771 11.3389 -1.35177e-17)
(21.0733 10.58 0)
(22.471 9.53203 -1.79418e-17)
(23.53 8.22709 0)
(24.1558 6.85324 -4.80563e-18)
(24.3971 5.64395 -1.45676e-17)
(24.4587 4.64704 0)
(24.4722 3.72298 9.79005e-18)
(24.4079 2.83771 0)
(24.2374 2.01746 0)
(23.9814 1.26819 2.53196e-18)
(23.6605 0.582844 2.49381e-18)
(23.2817 -0.0413139 0)
(22.8475 -0.60318 -4.83055e-18)
(22.4204 -1.05888 0)
(22.0218 -1.41601 0)
(21.6156 -1.72683 1.01689e-17)
(21.2027 -1.99765 0)
(20.7843 -2.23259 -9.98416e-18)
(20.3607 -2.43565 -1.97504e-17)
(19.9318 -2.61021 0)
(19.4966 -2.75891 0)
(19.0536 -2.88378 0)
(18.6008 -2.9863 -1.9696e-17)
(18.1353 -3.06728 -1.64753e-17)
(17.6527 -3.12661 1.72478e-17)
(17.1479 -3.16297 5.34027e-19)
(16.6112 -3.1738 -5.38362e-19)
(16.0351 -3.15371 0)
(15.4029 -3.09413 -3.18936e-17)
(14.7139 -2.97904 3.07198e-17)
(13.8809 -2.79085 -2.94997e-17)
(13.0808 -2.45612 -2.73912e-17)
(11.6483 -2.02987 -5.3836e-20)
(9.11249 3.91564 2.01449e-19)
(9.78744 5.73668 2.82832e-19)
(10.7824 7.39428 -1.74416e-18)
(12.0784 8.77065 1.1512e-18)
(13.6402 9.83704 -1.7454e-18)
(15.3713 10.5144 9.75109e-18)
(17.1679 10.7664 -1.20066e-17)
(18.9164 10.6015 1.07945e-17)
(20.5059 10.0674 6.07222e-18)
(21.8673 9.2386 -3.27833e-18)
(22.9575 8.15292 0)
(23.6895 6.93794 0)
(24.0593 5.78812 3.84007e-18)
(24.2077 4.78983 -3.95181e-18)
(24.2656 3.87054 -1.59023e-17)
(24.2428 2.9935 3.99015e-18)
(24.1193 2.17504 -8.04875e-18)
(23.9087 1.42387 5.96587e-20)
(23.6314 0.734802 -3.95453e-18)
(23.2965 0.104657 7.92539e-18)
(22.9071 -0.465015 -9.7868e-18)
(22.5206 -0.929333 4.15206e-18)
(22.158 -1.29493 -2.09481e-18)
(21.7876 -1.61433 -2.0383e-18)
(21.4111 -1.89376 1.02706e-17)
(21.0294 -2.13754 2.74995e-20)
(20.643 -2.34954 1.81805e-17)
(20.2517 -2.53304 1.39436e-17)
(19.8547 -2.69055 0)
(19.4503 -2.82399 0)
(19.0366 -2.93475 1.43823e-17)
(18.6107 -3.02351 3.10075e-17)
(18.1689 -3.09006 9.05573e-19)
(17.7068 -3.1329 -1.44041e-17)
(17.2167 -3.14929 -1.48758e-17)
(16.6927 -3.13361 1.40041e-17)
(16.1214 -3.07778 -4.18841e-19)
(15.5052 -2.96436 -5.04011e-17)
(14.7737 -2.78179 4.82281e-17)
(14.0808 -2.44818 -8.6139e-20)
(12.928 -2.0499 -2.18118e-17)
(10.4218 3.88749 0)
(11.032 5.34044 8.72702e-19)
(11.8379 6.66069 3.04011e-18)
(12.8502 7.80257 1.20799e-18)
(14.083 8.74786 5.17841e-18)
(15.4854 9.42077 6.058e-18)
(16.9925 9.77044 -1.08807e-17)
(18.5188 9.77613 3.91617e-18)
(19.9648 9.45136 0)
(21.2562 8.84151 5.47086e-18)
(22.3475 7.97947 -1.1242e-17)
(23.1593 6.9486 1.1714e-17)
(23.6518 5.89727 -5.64173e-20)
(23.9033 4.92751 0)
(24.0245 4.02422 3.30775e-18)
(24.0507 3.1626 2.03854e-20)
(23.9753 2.35055 3.29878e-18)
(23.808 1.599 3.31174e-18)
(23.5684 0.906976 -1.62755e-18)
(23.2683 0.271914 -2.81039e-18)
(22.9126 -0.30432 3.30713e-18)
(22.5553 -0.775956 3.43555e-18)
(22.2173 -1.14887 0)
(21.8706 -1.47552 -3.33717e-18)
(21.5175 -1.76193 -6.65399e-18)
(21.1593 -2.0125 8.41616e-18)
(20.7969 -2.23094 -4.92927e-18)
(20.4305 -2.42048 -1.31242e-17)
(20.0596 -2.58368 1.59846e-18)
(19.683 -2.72251 -4.28608e-20)
(19.2989 -2.83834 9.43876e-18)
(18.905 -2.93177 3.0813e-18)
(18.4983 -3.00247 1.0609e-17)
(18.075 -3.04891 0)
(17.6288 -3.06831 1.15755e-17)
(17.1555 -3.05505 -1.19305e-17)
(16.6454 -3.0017 1.12625e-17)
(16.1033 -2.89057 4.17623e-17)
(15.477 -2.71469 -1.95623e-17)
(14.8932 -2.39482 -7.16138e-20)
(14.0094 -2.02604 3.58992e-17)
(11.5956 3.7905 -1.13109e-18)
(12.1371 4.94764 3.48201e-19)
(12.7984 5.99659 1.21606e-19)
(13.5967 6.92805 -3.9203e-18)
(14.5647 7.73719 -2.33126e-18)
(15.6818 8.36383 -7.79782e-18)
(16.9141 8.75853 6.0438e-18)
(18.2061 8.88725 1.02232e-17)
(19.4795 8.73966 -7.10133e-18)
(20.6663 8.33411 0)
(21.7214 7.69195 -4.65472e-18)
(22.5749 6.8615 -1.83854e-19)
(23.1668 5.9455 -1.91992e-19)
(23.5239 5.04058 5.04669e-18)
(23.7239 4.17194 5.22737e-18)
(23.8114 3.33626 -5.30541e-18)
(23.7925 2.53923 0)
(23.6757 1.79284 0)
(23.4788 1.1009 6.6922e-18)
(23.2159 0.4628 -5.749e-18)
(22.8936 -0.118941 2.60072e-18)
(22.5634 -0.597266 -2.86424e-18)
(22.2469 -0.977076 -2.77112e-18)
(21.9198 -1.31045 0)
(21.585 -1.60318 -2.72762e-18)
(21.2443 -1.8597 2.77319e-18)
(20.8991 -2.08369 5.44701e-18)
(20.5497 -2.27828 0)
(20.1963 -2.44598 0)
(19.838 -2.5887 -1.29504e-18)
(19.4736 -2.70767 -1.03218e-17)
(19.1016 -2.80347 -8.89587e-18)
(18.7196 -2.8758 -1.87596e-17)
(18.325 -2.92323 -1.24268e-18)
(17.9128 -2.94311 0)
(17.4807 -2.92999 5.7086e-19)
(17.0224 -2.87724 -9.57241e-18)
(16.5438 -2.76842 1.09932e-19)
(16.011 -2.5993 -1.69334e-17)
(15.5194 -2.30297 -1.53995e-17)
(14.8629 -1.96166 -1.49242e-17)
(12.6343 3.64266 6.43931e-19)
(13.1094 4.56315 1.07369e-20)
(13.6579 5.3951 -1.52902e-18)
(14.2951 6.14525 3.45689e-18)
(15.0561 6.81869 0)
(15.9367 7.37309 4.43396e-18)
(16.924 7.76863 -9.28417e-18)
(17.9872 7.97062 -5.94569e-18)
(19.0723 7.95665 5.66499e-18)
(20.1253 7.72535 6.79327e-18)
(21.107 7.28501 4.36338e-19)
(21.9584 6.65706 -1.48824e-17)
(22.6136 5.90309 0)
(23.0628 5.09991 4.10752e-18)
(23.3476 4.29257 -8.43766e-18)
(23.5062 3.4995 -4.2506e-18)
(23.5524 2.73066 -4.36095e-18)
(23.4953 1.99923 4.42546e-18)
(23.3503 1.31364 -2.18898e-18)
(23.1319 0.676599 0)
(22.8487 0.09196 5.44277e-18)
(22.5495 -0.391542 -9.2139e-18)
(22.2566 -0.777533 6.81567e-18)
(21.9502 -1.11726 -6.98922e-20)
(21.634 -1.41611 -4.47983e-18)
(21.3103 -1.6784 4.55068e-18)
(20.9808 -1.90769 0)
(20.6466 -2.10697 -1.09898e-17)
(20.3079 -2.27866 -4.34516e-18)
(19.9646 -2.42461 -2.18145e-18)
(19.6157 -2.54604 8.47736e-18)
(19.2604 -2.64348 2.05925e-18)
(18.897 -2.71663 -2.07056e-18)
(18.5238 -2.7641 9.89503e-19)
(18.1375 -2.78337 5.89216e-18)
(17.7371 -2.76945 9.72657e-19)
(17.3198 -2.71671 0)
(16.8913 -2.61126 -1.47365e-17)
(16.4335 -2.44974 1.41684e-17)
(16.012 -2.18367 1.30214e-17)
(15.5193 -1.87019 0)
(13.5429 3.45972 0)
(13.957 4.19154 0)
(14.4156 4.8503 0)
(14.9306 5.44846 -9.2562e-18)
(15.5324 5.99671 6.60451e-18)
(16.2239 6.46783 -3.44756e-18)
(17.004 6.83349 -4.01143e-18)
(17.8589 7.06516 -3.49493e-19)
(18.756 7.13805 4.59054e-18)
(19.6577 7.04025 5.41635e-18)
(20.5346 6.76983 -5.5751e-18)
(21.341 6.32923 6.40421e-18)
(22.0153 5.7474 -2.61021e-19)
(22.5277 5.07532 6.63611e-18)
(22.8891 4.3593 -1.36848e-17)
(23.1214 3.63126 1.05811e-17)
(23.2382 2.90845 7.13224e-18)
(23.2484 2.2064 -7.22359e-18)
(23.1643 1.53759 3.62738e-18)
(22.9998 0.908901 0)
(22.7642 0.326407 8.04489e-18)
(22.5026 -0.159096 -5.68073e-18)
(22.2386 -0.549448 -1.84525e-18)
(21.9574 -0.894408 3.70395e-18)
(21.6634 -1.19873 -7.43561e-18)
(21.3595 -1.46641 0)
(21.048 -1.70077 0)
(20.7305 -1.90461 3.68163e-18)
(20.4077 -2.08021 1.79144e-17)
(20.0799 -2.22933 7.03943e-18)
(19.7467 -2.35312 -6.96571e-18)
(19.4078 -2.45208 -1.68766e-18)
(19.0621 -2.52596 8.42759e-18)
(18.7088 -2.57353 1.62303e-18)
(18.3457 -2.59258 -9.65153e-18)
(17.973 -2.57883 1.59548e-18)
(17.5905 -2.52751 6.13243e-18)
(17.2033 -2.42801 -7.2742e-19)
(16.8045 -2.27701 -1.07793e-17)
(16.4371 -2.04476 0)
(16.0496 -1.76429 0)
(14.3294 3.25516 0)
(14.6887 3.83677 0)
(15.0745 4.35739 -1.96155e-20)
(15.4954 4.83059 5.36721e-18)
(15.9752 5.26934 0)
(16.5192 5.65736 6.21727e-18)
(17.1312 5.97623 3.36023e-18)
(17.8076 6.20545 0)
(18.531 6.32351 -8.06358e-18)
(19.2786 6.31557 3.63472e-18)
(20.0316 6.1743 -5.21753e-19)
(20.7578 5.89102 4.83083e-18)
(21.4072 5.4724 -5.43246e-18)
(21.9439 4.94522 0)
(22.3585 4.34514 -1.10311e-17)
(22.6553 3.70607 1.1362e-17)
(22.8407 3.05031 0)
(22.9206 2.39606 0)
(22.9036 1.75897 2.94473e-18)
(22.8012 1.15002 -1.19105e-17)
(22.6219 0.578128 5.87559e-18)
(22.4059 0.0963485 0)
(22.1774 -0.294692 -6.07107e-18)
(21.9274 -0.6423 1.10833e-19)
(21.661 -0.950334 6.14992e-18)
(21.3817 -1.22221 -2.98953e-18)
(21.0926 -1.46088 0)
(20.7956 -1.66881 0)
(20.4921 -1.8481 2.84407e-18)
(20.1828 -2.00034 -1.15425e-17)
(19.8681 -2.12662 5.68023e-18)
(19.5479 -2.22743 -5.65144e-18)
(19.2222 -2.30258 -2.78231e-18)
(18.8905 -2.35109 0)
(18.5519 -2.37116 -3.97512e-18)
(18.2074 -2.3594 -3.78358e-20)
(17.8585 -2.31208 -1.13132e-17)
(17.5095 -2.222 0)
(17.1597 -2.08606 9.38539e-18)
(16.8378 -1.88871 -9.21022e-18)
(16.5177 -1.64783 0)
(15.0033 3.04019 0)
(15.314 3.50217 2.57312e-18)
(15.64 3.91259 -2.28406e-18)
(15.9871 4.2844 0)
(16.3732 4.63083 -5.2907e-18)
(16.8035 4.94275 -2.28547e-19)
(17.2832 5.209 2.30124e-17)
(17.8136 5.41615 -3.03073e-17)
(18.3867 5.54801 1.90334e-17)
(18.9903 5.59127 1.75207e-17)
(19.6147 5.53749 -1.45341e-17)
(20.2399 5.37364 -4.04045e-18)
(20.8291 5.09347 8.27695e-18)
(21.35 4.70598 -4.32291e-18)
(21.7846 4.23275 1.39413e-17)
(22.1239 3.70081 -9.23709e-18)
(22.3652 3.1321 -4.65284e-18)
(22.509 2.54553 -2.36279e-18)
(22.559 1.95826 -8.46414e-18)
(22.5224 1.38427 1.83206e-17)
(22.4059 0.835155 -9.69676e-18)
(22.2422 0.365871 -3.08517e-19)
(22.0557 -0.019781 -1.25394e-18)
(21.8433 -0.365415 0)
(21.6107 -0.673718 7.36701e-18)
(21.3618 -0.947271 -2.47508e-18)
(21.1003 -1.1884 -7.22032e-18)
(20.8288 -1.39915 4.85731e-18)
(20.5492 -1.5813 -9.47978e-18)
(20.2629 -1.73625 4.7463e-18)
(19.9707 -1.86497 0)
(19.6732 -1.96794 6.86184e-18)
(19.371 -2.04508 2.26727e-18)
(19.0644 -2.09572 -2.17069e-18)
(18.7533 -2.11857 1.29164e-17)
(18.4393 -2.11121 2.08588e-18)
(18.125 -2.07101 4.09962e-18)
(17.814 -1.99372 -4.02571e-18)
(17.5082 -1.87714 -3.92349e-18)
(17.2272 -1.71444 7.26595e-18)
(16.9552 -1.51681 2.31938e-19)
(15.5751 2.82376 0)
(15.8431 3.19032 -1.33055e-19)
(16.1193 3.51283 -2.17187e-18)
(16.4074 3.80311 -9.10202e-18)
(16.7208 4.0736 4.2907e-18)
(17.0637 4.31958 -5.09099e-18)
(17.441 4.53463 -5.34935e-18)
(17.8558 4.71055 2.04932e-17)
(18.3051 4.83622 -5.52235e-18)
(18.7835 4.90149 -1.15536e-17)
(19.2871 4.89922 1.84996e-17)
(19.805 4.81655 -1.26688e-17)
(20.3131 4.64207 -6.67557e-18)
(20.7866 4.37413 3.67634e-18)
(21.207 4.02229 0)
(21.5595 3.60359 0)
(21.8346 3.13485 1.95717e-17)
(22.0269 2.63258 2.14656e-18)
(22.135 2.11308 -1.58452e-17)
(22.1611 1.59118 1.01875e-18)
(22.1085 1.08004 -8.90911e-18)
(22.0006 0.634964 1.64803e-17)
(21.8607 0.263347 -8.1073e-18)
(21.6911 -0.073369 0)
(21.4976 -0.376446 9.90706e-19)
(21.2846 -0.647382 -7.88549e-18)
(21.0561 -0.887674 9.94448e-18)
(20.8154 -1.09878 -7.73999e-18)
(20.5649 -1.28202 5.88138e-18)
(20.3064 -1.43854 0)
(20.0414 -1.56914 -3.7497e-18)
(19.7711 -1.67428 -7.38378e-18)
(19.4966 -1.75401 3.68772e-18)
(19.2188 -1.80798 -3.54122e-18)
(18.9384 -1.83546 -1.69069e-18)
(18.6574 -1.83495 3.45596e-18)
(18.3788 -1.80493 -5.08367e-18)
(18.1058 -1.74333 3.27017e-18)
(17.8407 -1.64919 2.39236e-18)
(17.5974 -1.52016 4.04456e-19)
(17.3646 -1.36525 -5.75223e-18)
(16.0554 2.61271 2.06211e-18)
(16.2859 2.90301 8.37308e-18)
(16.5202 3.15537 -7.93431e-18)
(16.7607 3.38049 0)
(17.0169 3.58958 6.95039e-20)
(17.2922 3.78047 0)
(17.5908 3.94962 2.60807e-17)
(17.9157 4.09231 -2.19549e-17)
(18.2667 4.20134 -1.88212e-17)
(18.6415 4.26972 2.38673e-17)
(19.0397 4.29232 -1.01624e-17)
(19.4565 4.25858 5.22862e-18)
(19.8768 4.15674 5.69038e-18)
(20.2843 3.98061 1.17055e-17)
(20.664 3.73201 3.16355e-19)
(21.0012 3.41907 -1.22595e-17)
(21.2837 3.052 9.67068e-18)
(21.5023 2.64259 -1.2758e-17)
(21.6515 2.20395 0)
(21.7291 1.74947 -1.30746e-17)
(21.7342 1.29194 8.75723e-19)
(21.6805 0.884424 1.28208e-17)
(21.5883 0.537495 -1.00752e-19)
(21.464 0.21874 0)
(21.3131 -0.0715772 -8.21112e-19)
(21.14 -0.333717 -7.97724e-19)
(20.9491 -0.568192 0)
(20.7438 -0.775712 0)
(20.5269 -0.957072 2.18146e-20)
(20.3009 -1.11302 0)
(20.0675 -1.24415 4.5907e-18)
(19.8286 -1.35086 0)
(19.5856 -1.4333 -5.89259e-18)
(19.3401 -1.49141 5.85765e-18)
(19.0932 -1.52498 0)
(18.8471 -1.53329 -2.80344e-18)
(18.6048 -1.51574 2.74435e-18)
(18.369 -1.47176 -1.37293e-18)
(18.1419 -1.40143 -3.98797e-18)
(17.9329 -1.30445 3.20183e-19)
(17.7343 -1.18877 7.18689e-18)
(16.4549 2.41204 -5.58289e-18)
(16.6527 2.64122 -2.2337e-19)
(16.8516 2.83759 3.65754e-18)
(17.0528 3.01088 7.24475e-18)
(17.2635 3.17089 1.83713e-17)
(17.4862 3.31687 -2.19123e-17)
(17.724 3.44696 2.27616e-20)
(17.9797 3.55857 1.55557e-17)
(18.2539 3.64722 -3.16243e-17)
(18.5461 3.70838 -4.52143e-19)
(18.8573 3.73874 2.10081e-17)
(19.1858 3.7305 -8.82449e-18)
(19.523 3.67381 1.84674e-17)
(19.8587 3.5617 -2.78439e-17)
(20.1829 3.39233 4.78746e-18)
(20.4838 3.16791 0)
(20.7499 2.89301 2.34867e-17)
(20.9713 2.57451 -2.0891e-17)
(21.1403 2.22124 -2.13302e-17)
(21.2518 1.84345 4.01412e-17)
(21.3018 1.4518 -2.12972e-17)
(21.2946 1.09402 9.99527e-19)
(21.2465 0.782581 8.4349e-20)
(21.166 0.491679 1.06062e-17)
(21.0579 0.222909 -2.1029e-17)
(20.9263 -0.0228214 1.11678e-17)
(20.7752 -0.245037 -9.65805e-18)
(20.6083 -0.443655 1.16131e-17)
(20.4284 -0.618856 1.13689e-17)
(20.2383 -0.770944 -1.01242e-17)
(20.04 -0.900236 -2.4797e-18)
(19.8358 -1.007 -3.63195e-18)
(19.6274 -1.09143 1.08542e-17)
(19.4167 -1.15367 -9.49745e-18)
(19.205 -1.1939 4.70732e-18)
(18.9947 -1.21197 2.29345e-18)
(18.7884 -1.2079 0)
(18.5884 -1.18204 2.19845e-18)
(18.3964 -1.13509 2.15358e-18)
(18.2188 -1.0676 2.1395e-18)
(18.0507 -0.986346 -2.05001e-18)
(16.7835 2.22507 -9.17348e-20)
(16.9527 2.40516 -8.27584e-19)
(17.1214 2.55689 -3.20442e-18)
(17.2902 2.68917 6.58465e-18)
(17.4643 2.81033 -2.55233e-17)
(17.6454 2.92036 2.60379e-17)
(17.8361 3.01834 -3.24241e-17)
(18.0386 3.10294 -2.0209e-17)
(18.2536 3.17143 6.19477e-18)
(18.4813 3.22097 -6.02308e-19)
(18.7231 3.24958 2.8257e-17)
(18.9788 3.25188 8.68731e-20)
(19.2435 3.22046 0)
(19.5115 3.14938 7.91183e-18)
(19.7765 3.03571 -8.00575e-18)
(20.0303 2.87883 8.05634e-18)
(20.2639 2.6797 0)
(20.4688 2.44129 -1.72639e-17)
(20.6373 2.16865 3.69017e-17)
(20.7631 1.86849 -1.3073e-17)
(20.8406 1.54843 1.74693e-17)
(20.8674 1.24836 -1.90436e-17)
(20.8551 0.980964 -5.30017e-19)
(20.8126 0.726663 1.95916e-19)
(20.7437 0.487915 -1.70019e-17)
(20.6516 0.266472 1.70202e-17)
(20.5398 0.0635905 -5.32557e-19)
(20.4116 -0.119957 -1.05379e-18)
(20.2698 -0.283778 8.19542e-18)
(20.1171 -0.427725 -9.21758e-18)
(19.9558 -0.551803 1.01418e-18)
(19.788 -0.656102 -9.99396e-19)
(19.6158 -0.740764 3.89918e-18)
(19.441 -0.806018 -1.99462e-18)
(19.2652 -0.852267 -7.60685e-18)
(19.0905 -0.879662 1.90154e-18)
(18.9192 -0.888573 -1.82791e-18)
(18.753 -0.879782 3.63761e-18)
(18.5935 -0.854221 -1.78542e-18)
(18.4447 -0.812707 -1.73766e-18)
(18.3039 -0.760625 0)
(17.0502 2.05331 9.07937e-18)
(17.1943 2.19394 -1.68862e-17)
(17.3372 2.31022 -1.75561e-17)
(17.4789 2.41034 4.52721e-17)
(17.6231 2.50117 -1.67869e-17)
(17.7711 2.58299 3.97109e-17)
(17.925 2.65541 -3.40977e-17)
(18.0862 2.7178 5.16481e-17)
(18.2556 2.76851 -5.24106e-17)
(18.4335 2.80581 -4.00575e-19)
(18.6213 2.82852 2.39547e-17)
(18.8192 2.83307 3.1184e-18)
(19.0244 2.81428 2.53912e-17)
(19.2339 2.76765 -2.544e-17)
(19.4438 2.69051 2.65649e-17)
(19.649 2.58129 -3.0117e-17)
(19.8432 2.43934 0)
(20.02 2.26536 2.45891e-17)
(20.1729 2.06158 -2.99581e-17)
(20.2962 1.83186 2.68933e-17)
(20.3841 1.58102 1.28194e-19)
(20.4306 1.34019 -4.16397e-17)
(20.4429 1.12073 4.60332e-19)
(20.4292 0.908307 1.41681e-17)
(20.3921 0.70563 2.69081e-23)
(20.3338 0.514815 0)
(20.2573 0.337527 1.35979e-17)
(20.165 0.174967 -1.33732e-17)
(20.0596 0.0279307 0)
(19.9433 -0.103089 8.36417e-19)
(19.8184 -0.217822 0)
(19.6867 -0.316168 -6.4279e-18)
(19.5504 -0.398162 7.22136e-18)
(19.4111 -0.464005 6.25722e-18)
(19.2703 -0.514141 -1.24126e-17)
(19.1299 -0.548823 6.91724e-18)
(18.9918 -0.568501 7.52699e-19)
(18.8573 -0.574064 -1.47986e-18)
(18.7277 -0.566412 1.45515e-18)
(18.6055 -0.546333 0)
(18.4896 -0.517791 1.40325e-18)
(17.2556 1.90462 0)
(17.3789 2.01487 2.30417e-17)
(17.5005 2.10422 2.02308e-19)
(17.6202 2.18034 -3.13596e-17)
(17.7407 2.24866 -2.10581e-17)
(17.8631 2.30956 2.08997e-17)
(17.9888 2.36292 -2.10996e-17)
(18.1191 2.40849 -2.12909e-17)
(18.2546 2.44527 -4.33915e-17)
(18.3957 2.47216 5.43145e-17)
(18.5434 2.48846 -5.53349e-18)
(18.6981 2.49179 -5.61916e-18)
(18.8581 2.47857 2.31214e-17)
(19.0216 2.4456 -1.73684e-17)
(19.1865 2.39078 -2.67584e-17)
(19.3495 2.31257 2.0905e-17)
(19.5063 2.20986 2.77033e-17)
(19.6525 2.08236 -2.77325e-17)
(19.7832 1.93083 0)
(19.8939 1.75722 -3.14787e-18)
(19.9795 1.56429 -3.14786e-18)
(20.0328 1.37546 -2.54304e-17)
(20.0581 1.20014 5.02488e-17)
(20.0623 1.02791 -2.53943e-17)
(20.047 0.861253 -1.23903e-17)
(20.0137 0.702234 4.29183e-19)
(19.9645 0.55256 1.22431e-17)
(19.9013 0.413549 -1.91556e-19)
(19.8261 0.286163 -1.15921e-20)
(19.7409 0.171069 -1.17197e-17)
(19.6475 0.0686997 1.17763e-17)
(19.5476 -0.0207101 5.7686e-18)
(19.443 -0.0970876 -6.10625e-18)
(19.3351 -0.160553 5.6248e-18)
(19.2254 -0.211488 -4.9101e-18)
(19.1152 -0.250119 -4.11282e-18)
(19.0063 -0.276826 2.04785e-18)
(18.8996 -0.29242 -6.68201e-19)
(18.796 -0.297637 0)
(18.6973 -0.293115 0)
(18.6032 -0.281598 7.04113e-21)
(17.4076 1.78232 1.01902e-17)
(17.5145 1.86995 -1.11027e-17)
(17.6192 1.93954 4.89775e-18)
(17.7217 1.99819 9.7204e-18)
(17.824 2.0502 0)
(17.9269 2.09593 -1.96448e-17)
(18.0316 2.13545 4.97107e-17)
(18.1391 2.16868 -2.97835e-17)
(18.2498 2.19499 1.01038e-17)
(18.3641 2.21367 -1.02802e-17)
(18.4828 2.22428 5.22569e-18)
(18.6062 2.22522 4.77757e-17)
(18.7332 2.21399 -8.55609e-17)
(18.8626 2.18833 3.76086e-17)
(18.9932 2.14672 5.5498e-18)
(19.1228 2.0879 2.23889e-17)
(19.2487 2.01085 -7.06512e-17)
(19.3676 1.91499 3.11352e-17)
(19.4762 1.80043 4.90231e-17)
(19.5709 1.66811 -2.02635e-17)
(19.6479 1.51956 5.83375e-18)
(19.7002 1.37215 0)
(19.7304 1.23332 0)
(19.7439 1.09539 2.29065e-17)
(19.7417 0.96045 -2.27894e-17)
(19.7247 0.830283 -3.58332e-19)
(19.6944 0.706425 0)
(19.6522 0.590111 -1.10914e-17)
(19.5997 0.482285 1.10483e-17)
(19.5385 0.383646 -8.59701e-20)
(19.4698 0.294678 8.3616e-20)
(19.3953 0.215682 0)
(19.3162 0.146798 -4.95849e-18)
(19.2339 0.0879871 5.22504e-18)
(19.1494 0.0389609 -6.45315e-19)
(19.064 -0.000435449 6.36459e-19)
(18.9788 -0.0304754 0)
(18.8948 -0.0518217 6.18679e-19)
(18.8127 -0.065033 1.2155e-18)
(18.7336 -0.0705872 -6.08163e-19)
(18.6577 -0.0703019 -1.75091e-18)
(17.5224 1.68095 0)
(17.6159 1.75134 0)
(17.7071 1.80614 1.82562e-17)
(17.7958 1.8518 3.64836e-17)
(17.8837 1.89174 -5.44851e-17)
(17.9715 1.92632 4.6025e-17)
(18.0601 1.95567 1.88493e-17)
(18.1502 1.97982 -3.73064e-17)
(18.2423 1.99838 3.80834e-17)
(18.3366 2.01084 -3.82585e-17)
(18.4337 2.01696 0)
(18.5338 2.01559 0)
(18.6363 2.00499 -4.01186e-17)
(18.7403 1.98354 8.07038e-17)
(18.8449 1.95018 -8.1648e-17)
(18.9487 1.90396 4.10976e-17)
(19.0499 1.84406 5.17706e-18)
(19.1462 1.76993 -5.016e-17)
(19.2352 1.68144 3.43778e-17)
(19.3143 1.57905 0)
(19.3806 1.46359 -2.70278e-18)
(19.4281 1.34804 0)
(19.4584 1.23814 2.24265e-17)
(19.4758 1.12808 -4.33563e-17)
(19.4806 1.01951 2.09325e-17)
(19.4736 0.913907 0)
(19.4558 0.812548 0)
(19.4283 0.716497 -9.58921e-18)
(19.3922 0.626591 1.01685e-17)
(19.3487 0.54347 1.00326e-17)
(19.2988 0.467596 -1.00586e-17)
(19.2437 0.399275 -9.82844e-18)
(19.1845 0.338677 9.80997e-18)
(19.1222 0.285815 0)
(19.0577 0.240486 7.40777e-20)
(18.992 0.202604 0)
(18.926 0.171992 1.80999e-20)
(18.8603 0.148136 7.15414e-20)
(18.7956 0.130629 -2.40081e-18)
(18.7326 0.119129 3.35894e-18)
(18.6718 0.112486 -1.08674e-18)
(17.6106 1.59565 0)
(17.6931 1.65265 2.09517e-18)
(17.7731 1.69616 0)
(17.8506 1.73198 -1.67227e-17)
(17.9268 1.76283 1.68838e-17)
(18.0025 1.78904 0)
(18.0783 1.81081 -1.72977e-17)
(18.1549 1.8282 -1.76585e-17)
(18.2325 1.84096 4.42352e-17)
(18.3114 1.84876 0)
(18.392 1.85142 -3.66216e-17)
(18.4745 1.84814 7.38674e-17)
(18.5584 1.83766 -3.71708e-17)
(18.643 1.81886 0)
(18.7277 1.79096 3.81583e-17)
(18.8116 1.7533 -4.29986e-17)
(18.8934 1.70528 -4.36928e-17)
(18.9714 1.64644 4.86131e-17)
(19.044 1.57664 4.95187e-18)
(19.1092 1.4961 0)
(19.1649 1.40529 0)
(19.2064 1.31402 2.43504e-18)
(19.2344 1.22667 -1.22807e-18)
(19.2524 1.13876 -1.93425e-17)
(19.2606 1.05156 -1.19279e-18)
(19.2595 0.966233 1.91493e-17)
(19.2497 0.883803 -1.89952e-17)
(19.2321 0.805127 1.82917e-17)
(19.2075 0.7309 1.05056e-17)
(19.1767 0.661666 -9.29069e-18)
(19.1407 0.597827 9.17566e-18)
(19.1002 0.539663 -9.12366e-18)
(19.0561 0.487344 0)
(19.0093 0.440913 9.45636e-18)
(18.9604 0.400231 -8.918e-18)
(18.9101 0.365258 0)
(18.8592 0.335894 -1.69291e-20)
(18.8081 0.31175 -2.19772e-18)
(18.7574 0.292535 2.24746e-18)
(18.7077 0.278013 -9.75027e-19)
(18.6593 0.267502 1.01102e-18)
(17.6796 1.52299 0)
(17.7528 1.5694 -1.91093e-18)
(17.8234 1.60416 1.54303e-17)
(17.8915 1.6324 -3.10775e-17)
(17.9582 1.65628 6.27182e-17)
(18.024 1.67613 -3.16939e-17)
(18.0895 1.69216 0)
(18.1551 1.70447 -1.63649e-17)
(18.2213 1.71289 -9.98038e-17)
(18.288 1.7172 6.71061e-17)
(18.3557 1.71727 0)
(18.4245 1.71254 8.614e-18)
(18.4939 1.70209 -2.62846e-17)
(18.5635 1.68513 -2.1766e-19)
(18.6329 1.66111 3.53388e-17)
(18.7013 1.62958 -4.02209e-17)
(18.7678 1.59011 3.58541e-17)
(18.8312 1.54238 -3.63132e-17)
(18.8903 1.48626 3.62554e-17)
(18.9438 1.42189 3.65546e-17)
(18.9901 1.34956 -3.17388e-17)
(19.0253 1.27678 1.58723e-17)
(19.0502 1.20688 -2.01785e-17)
(19.0672 1.13636 1.90124e-17)
(19.0765 1.06619 3.33218e-18)
(19.0785 0.997248 -1.76694e-17)
(19.0737 0.930341 0)
(19.0627 0.866139 0)
(19.046 0.805193 1.61601e-17)
(19.0243 0.74794 -1.71359e-17)
(18.9983 0.694712 0)
(18.9687 0.645743 -1.04526e-18)
(18.9359 0.601184 -1.03576e-18)
(18.9008 0.561085 -8.75013e-18)
(18.8638 0.525353 8.69274e-18)
(18.8254 0.493977 4.03784e-18)
(18.7863 0.466905 -4.0131e-18)
(18.7468 0.443849 1.48537e-18)
(18.7072 0.424608 -3.92582e-18)
(18.6681 0.409018 1.88465e-18)
(18.6298 0.39672 2.34562e-19)
(17.7343 1.46046 -1.4103e-17)
(17.7995 1.49839 -1.76973e-17)
(17.8622 1.52629 -7.73576e-20)
(17.9224 1.5486 0)
(17.9811 1.56708 0)
(18.0386 1.58204 0)
(18.0956 1.59369 0)
(18.1523 1.60215 6.11663e-17)
(18.2092 1.60731 -1.08459e-16)
(18.2662 1.60901 6.27274e-17)
(18.3236 1.60718 -6.39611e-17)
(18.3815 1.60141 4.0188e-17)
(18.4395 1.59104 -7.34942e-17)
(18.4973 1.57549 9.01907e-17)
(18.5546 1.55439 -3.29826e-17)
(18.6108 1.52744 -2.49992e-17)
(18.6652 1.49434 3.33799e-17)
(18.717 1.4549 -4.22514e-18)
(18.7653 1.40902 4.19612e-18)
(18.8091 1.35681 -4.227e-17)
(18.8472 1.29848 -3.79911e-17)
(18.8768 1.23984 6.29664e-17)
(18.8982 1.18346 2.09472e-18)
(18.9135 1.12655 0)
(18.9228 1.06984 -2.0717e-18)
(18.9264 1.014 2.03185e-18)
(18.9245 0.959643 1.42005e-17)
(18.9177 0.907284 -1.61043e-17)
(18.9064 0.857349 1.59517e-17)
(18.8912 0.810177 -1.58389e-17)
(18.8724 0.76603 -1.56684e-17)
(18.8506 0.725095 1.65341e-17)
(18.8263 0.687496 9.67116e-19)
(18.7999 0.653281 -7.61641e-18)
(18.7719 0.622385 6.15124e-18)
(18.7427 0.594811 0)
(18.7126 0.570537 0)
(18.6821 0.549348 4.60492e-19)
(18.6513 0.531101 -9.07644e-19)
(18.6207 0.515686 -8.99305e-19)
(18.5904 0.502949 -2.18438e-19)
(17.7781 1.40616 0)
(17.8364 1.43725 3.21241e-18)
(17.8923 1.4597 -2.61493e-17)
(17.9458 1.47735 2.63104e-17)
(17.9976 1.4916 5.38599e-17)
(18.0482 1.50275 -5.46279e-17)
(18.0981 1.51104 -2.80383e-17)
(18.1475 1.51656 5.66709e-17)
(18.1967 1.51926 5.79273e-17)
(18.2457 1.51904 -5.85644e-17)
(18.2947 1.51583 0)
(18.3439 1.50936 3.01498e-17)
(18.3928 1.49915 -6.09788e-17)
(18.4412 1.48478 6.88269e-17)
(18.4889 1.466 0)
(18.5354 1.44261 7.73185e-18)
(18.5802 1.41444 -7.76325e-18)
(18.6227 1.38135 0)
(18.6623 1.3433 -3.93615e-18)
(18.6982 1.30041 7.88478e-18)
(18.7295 1.25282 -3.50879e-17)
(18.7541 1.2051 3.50695e-17)
(18.7723 1.15924 -3.84065e-18)
(18.7857 1.11299 -2.87948e-17)
(18.7943 1.06689 2.85976e-17)
(18.7984 1.02147 -1.90467e-18)
(18.7983 0.977177 1.69175e-17)
(18.7942 0.934406 -1.49156e-17)
(18.7866 0.893477 -1.84025e-18)
(18.7757 0.854649 0)
(18.7621 0.818121 0)
(18.746 0.784037 0)
(18.7279 0.752493 7.12273e-18)
(18.708 0.723529 -7.07067e-18)
(18.6868 0.697097 8.78401e-19)
(18.6645 0.673207 6.92585e-18)
(18.6414 0.651851 -7.73146e-18)
(18.6177 0.632868 0)
(18.5938 0.616158 4.14201e-21)
(18.5698 0.601643 1.67141e-18)
(18.5459 0.589298 -8.08331e-19)
(17.8135 1.35864 -1.17424e-17)
(17.8658 1.38417 0)
(17.9158 1.40227 5.99674e-17)
(17.9634 1.4162 -4.853e-17)
(18.0095 1.42712 0)
(18.0542 1.43531 -5.08468e-17)
(18.098 1.44099 -1.04396e-19)
(18.1413 1.44427 -5.29401e-17)
(18.1841 1.44512 8.06126e-17)
(18.2265 1.44348 5.48303e-17)
(18.2686 1.43931 -5.5455e-17)
(18.3106 1.43242 -1.40897e-17)
(18.3521 1.42245 0)
(18.3929 1.40911 0)
(18.4329 1.39224 1.43537e-17)
(18.4716 1.37172 -6.51735e-17)
(18.5088 1.34745 1.30576e-16)
(18.5439 1.31935 -5.80838e-17)
(18.5764 1.28743 -7.25744e-18)
(18.6059 1.25178 -7.25768e-18)