/*--------------------------------*- C++ -*----------------------------------*\
| =========                 |                                                 |
| \\      /  F ield         | OpenFOAM: The Open Source CFD Toolbox           |
|  \\    /   O peration     | Version:  5.x                                   |
|   \\  /    A nd           | Web:      www.OpenFOAM.org                      |
|    \\/     M anipulation  |                                                 |
\*---------------------------------------------------------------------------*/
FoamFile
{
    version     2.0;
    format      ascii;
    class       volVectorField;
    location    "450";
    object      U;
}
// * * * * * * * * * * * * * * * * * * * * * * * * * * * * * * * * * * * * * //

dimensions      [0 1 -1 0 0 0 0];

internalField   nonuniform List<vector> 
11040
(
(-4.50635 25.0857 0)
(-0.631749 30.5746 -1.53211e-19)
(5.69789 33.7762 1.58441e-17)
(11.5755 32.7402 1.83057e-17)
(16.0348 29.4365 3.7998e-17)
(19.1031 25.2781 -1.81817e-17)
(21.0025 20.932 -1.77068e-17)
(21.9289 16.7912 1.76627e-17)
(22.0564 13.0687 3.86083e-17)
(21.4747 9.79801 1.24247e-18)
(19.875 6.69433 1.67433e-17)
(17.6962 4.20265 -7.10876e-19)
(15.8117 2.69586 1.0289e-17)
(14.4999 1.91625 6.87419e-18)
(13.2072 1.32286 2.84596e-18)
(11.5975 0.757052 -5.97593e-19)
(9.68055 0.288092 3.13069e-18)
(7.55961 -0.0363066 8.30416e-19)
(5.25915 -0.223173 -9.78264e-19)
(2.78701 -0.276594 -1.45813e-17)
(0.486952 -0.156862 -2.22671e-17)
(-1.11333 0.0315752 -3.1749e-17)
(-1.99749 0.14914 -6.02585e-17)
(-2.53331 0.23541 -3.8282e-18)
(-2.83137 0.305103 -1.63972e-20)
(-2.97406 0.360324 2.00753e-18)
(-3.0358 0.408719 -1.30729e-16)
(-3.0695 0.45812 2.05231e-18)
(-3.10606 0.508862 -1.33792e-16)
(-3.16408 0.560617 1.29007e-16)
(-3.25486 0.617114 2.0007e-18)
(-3.38772 0.680929 9.58659e-19)
(-3.56601 0.751502 -9.04502e-19)
(-3.77586 0.822871 0)
(-3.96971 0.88098 2.02186e-16)
(-4.05345 0.903849 0)
(-3.91914 0.867937 0)
(-3.54083 0.759459 -3.69524e-19)
(-2.75686 0.492508 4.41972e-19)
(-1.62774 -0.14141 -2.16173e-16)
(-1.56518 -0.998641 -1.9526e-16)
(-0.274034 24.3923 0)
(4.02862 28.5163 0)
(11.7116 30.0598 -8.96028e-18)
(18.2437 28.779 9.33403e-18)
(22.9248 26.685 -2.25034e-17)
(26.1916 24.3317 2.28422e-17)
(28.303 21.6598 1.08331e-17)
(29.3768 18.7243 1.38892e-18)
(29.5619 15.6781 -9.00848e-19)
(29.0204 12.6888 1.05359e-17)
(27.6362 9.65941 -1.17205e-18)
(25.3324 7.05282 0)
(22.7308 5.18365 0)
(20.4182 3.88558 -3.15898e-18)
(18.3668 2.8213 -1.50573e-18)
(16.2812 1.96076 5.75051e-19)
(14.0295 1.29973 0)
(11.5579 0.805787 -3.54591e-19)
(8.82333 0.461981 1.32864e-18)
(5.87057 0.260401 1.29337e-18)
(2.86251 0.182413 7.68527e-18)
(0.509556 0.196896 1.11226e-17)
(-0.909262 0.232304 1.68426e-18)
(-1.81536 0.273401 -2.95009e-17)
(-2.37183 0.319181 2.79452e-17)
(-2.69735 0.366008 2.00238e-18)
(-2.90143 0.416414 6.737e-17)
(-3.05281 0.470142 -1.09143e-18)
(-3.18689 0.527078 7.25162e-17)
(-3.32654 0.588724 -7.21227e-17)
(-3.47951 0.655885 -7.25595e-17)
(-3.64684 0.728753 7.14418e-17)
(-3.82034 0.804281 -1.39571e-21)
(-3.98001 0.874839 -1.45412e-18)
(-4.08852 0.927146 -5.77022e-17)
(-4.09059 0.939838 0)
(-3.93849 0.893525 -3.98712e-19)
(-3.52523 0.777484 9.46458e-17)
(-2.56126 0.555275 9.64508e-17)
(-0.748096 -0.0329725 9.00135e-17)
(-0.279149 -1.14692 1.27706e-16)
(1.51393 23.462 0)
(5.46984 26.5975 0)
(10.8822 28.1989 2.34435e-18)
(15.9442 28.0828 -6.76817e-18)
(20.0416 26.7045 6.97909e-18)
(23.4035 24.6111 -8.31692e-18)
(26.09 22.1183 -6.31709e-18)
(28.0371 19.4037 0)
(29.2161 16.5962 -9.67344e-18)
(29.6694 13.8079 -5.39236e-18)
(29.3377 10.9684 0)
(28.0524 8.44076 0)
(26.1346 6.47748 -3.55191e-18)
(24.0565 4.98795 -2.24201e-18)
(21.9305 3.72764 -5.04265e-20)
(19.6795 2.7008 5.2885e-20)
(17.2654 1.91173 0)
(14.6651 1.32793 0)
(11.8175 0.918859 -2.91183e-19)
(8.69024 0.648188 8.20102e-19)
(5.36869 0.478528 -9.2484e-19)
(2.56119 0.378856 4.38912e-18)
(0.647755 0.32007 -3.53782e-20)
(-0.674098 0.299832 -1.40244e-17)
(-1.53212 0.311851 -1.14176e-18)
(-2.08023 0.344153 -1.24177e-18)
(-2.44799 0.391769 -1.60992e-21)
(-2.70925 0.447812 1.38897e-18)
(-2.91436 0.509182 0)
(-3.09533 0.574861 0)
(-3.26794 0.643834 9.52213e-17)
(-3.43963 0.715347 -9.28722e-17)
(-3.61111 0.78597 4.42732e-17)
(-3.7744 0.848763 0)
(-3.90456 0.892363 3.95431e-17)
(-3.94824 0.893414 3.72096e-17)
(-3.83799 0.816906 0)
(-3.4795 0.642126 1.32276e-19)
(-2.58654 0.336182 -2.19856e-19)
(-0.793917 -0.36573 0)
(-0.21219 -1.70183 -5.49524e-17)
(3.33166 22.4001 1.03243e-19)
(7.03095 24.8569 -1.06588e-19)
(11.2582 26.2119 2.96384e-19)
(15.6855 26.3202 0)
(19.5499 25.2821 -7.23712e-18)
(22.6756 23.556 0)
(25.1456 21.4167 1.40638e-17)
(26.9857 19.0277 1.18737e-20)
(28.2174 16.5279 1.35848e-18)
(28.8921 14.0326 8.26434e-18)
(29.0142 11.5053 1.18863e-18)
(28.4406 9.18703 2.76154e-18)
(27.2842 7.31295 6.30049e-18)
(25.8351 5.8473 1.74942e-18)
(24.1798 4.57345 0)
(22.2527 3.48149 1.75247e-19)
(20.0338 2.60096 2.52608e-19)
(17.5394 1.92874 7.02007e-19)
(14.7482 1.44638 4.71215e-19)
(11.6213 1.11277 -5.00978e-19)
(8.16771 0.87084 -2.74836e-18)
(5.02533 0.671987 -3.93435e-18)
(2.61344 0.506514 0)
(0.798195 0.39818 2.51277e-17)
(-0.442104 0.349796 -1.52201e-17)
(-1.26348 0.346692 1.42569e-17)
(-1.81871 0.376453 -2.98183e-17)
(-2.20539 0.424689 0)
(-2.49431 0.483227 0)
(-2.72558 0.547656 0)
(-2.92572 0.61579 -3.39544e-17)
(-3.11269 0.686735 3.47211e-17)
(-3.29738 0.756859 -1.00531e-18)
(-3.48012 0.817925 -3.18258e-17)
(-3.64111 0.856053 -2.78689e-17)
(-3.72856 0.843981 -2.74282e-17)
(-3.6766 0.739215 -4.80714e-17)
(-3.40604 0.513781 -4.20585e-17)
(-2.65954 0.141404 -1.51281e-19)
(-1.07815 -0.602359 -3.49334e-17)
(-0.506051 -2.03228 2.12242e-17)
(5.15192 21.2348 0)
(8.39431 23.1622 1.5366e-19)
(11.766 24.2789 -5.22437e-20)
(15.4063 24.6005 2.86699e-19)
(18.8006 24.0279 5.43477e-18)
(21.7089 22.7712 -5.05655e-18)
(24.1162 21.021 -1.853e-18)
(25.9831 18.9259 -6.51066e-18)
(27.2844 16.6426 0)
(28.0552 14.3098 -7.61483e-18)
(28.3338 11.9468 0)
(28.0635 9.7453 -1.68456e-18)
(27.3175 7.92313 -3.3992e-18)
(26.3101 6.48757 0)
(25.1354 5.25969 5.4815e-19)
(23.716 4.19479 0)
(21.9806 3.31246 0)
(19.9056 2.6159 -3.7303e-19)
(17.4581 2.09502 -5.53099e-19)
(14.5899 1.71617 0)
(11.2522 1.41602 2.05941e-18)
(7.98568 1.13219 0)
(5.17964 0.852586 0)
(2.82186 0.61895 -8.36775e-18)
(1.06143 0.468533 0)
(-0.150761 0.399292 1.15054e-17)
(-0.968877 0.390157 2.41129e-17)
(-1.53133 0.41623 0)
(-1.93675 0.46277 0)
(-2.24167 0.520397 0)
(-2.48661 0.584739 2.76188e-17)
(-2.70043 0.654106 2.34387e-17)
(-2.90429 0.724167 -2.43539e-17)
(-3.1079 0.784488 -7.58389e-19)
(-3.29922 0.81744 6.99344e-19)
(-3.43338 0.791657 0)
(-3.45187 0.658947 3.76803e-17)
(-3.2908 0.383718 -3.28338e-17)
(-2.73079 -0.051696 2.96134e-17)
(-1.4543 -0.813536 2.67245e-17)
(-0.962924 -2.22465 3.59941e-20)
(6.82482 20.0074 -2.30039e-19)
(9.58861 21.5142 -2.75112e-20)
(12.3239 22.4223 7.07397e-19)
(15.2805 22.8448 -1.3975e-19)
(18.1952 22.6018 -6.50002e-19)
(20.8278 21.7572 4.96108e-18)
(23.1107 20.4259 -6.10913e-18)
(24.976 18.7089 5.32136e-18)
(26.3586 16.7323 2.40755e-18)
(27.2509 14.6252 -1.2235e-18)
(27.6728 12.4359 0)
(27.5952 10.3279 0)
(27.0738 8.51126 6.1925e-19)
(26.2873 7.04704 -6.56536e-19)
(25.3686 5.82274 -8.25242e-19)
(24.2989 4.78367 -2.32408e-19)
(23.0112 3.9313 7.81893e-19)
(21.455 3.26283 1.50096e-19)
(19.5639 2.76234 1.13315e-18)
(17.2457 2.39371 -2.55376e-18)
(14.3675 2.08552 3.814e-18)
(11.3159 1.76307 -2.0574e-18)
(8.38283 1.39799 1.21669e-18)
(5.59009 1.0286 1.50607e-18)
(3.23967 0.732837 -9.11329e-18)
(1.4774 0.546791 1.19721e-20)
(0.247319 0.46043 -2.28331e-17)
(-0.594441 0.441287 -1.88331e-17)
(-1.18544 0.461342 0)
(-1.61211 0.502914 0)
(-1.93509 0.557887 -1.99469e-17)
(-2.19606 0.622566 -4.33934e-17)
(-2.42743 0.691198 -1.27496e-18)
(-2.65116 0.750669 1.94017e-17)
(-2.86884 0.779281 1.92862e-17)
(-3.0494 0.741445 -1.75636e-17)
(-3.14526 0.583723 4.84045e-19)
(-3.10829 0.263258 5.38006e-17)
(-2.76017 -0.229599 -4.79934e-17)
(-1.8426 -1.00593 8.24304e-20)
(-1.48691 -2.32307 1.55951e-17)
(8.33052 18.756 0)
(10.6513 19.9283 -5.96496e-19)
(12.8883 20.6641 -1.31489e-18)
(15.2803 21.107 -2.75786e-19)
(17.7213 21.0804 -2.24616e-19)
(20.0304 20.565 7.75483e-19)
(22.1261 19.6131 -2.80492e-18)
(23.9302 18.2812 1.20531e-18)
(25.3584 16.6564 0)
(26.371 14.8417 1.51475e-18)
(26.9616 12.89 -2.90549e-18)
(27.093 10.9319 2.6047e-18)
(26.7856 9.15405 -2.8119e-19)
(26.1716 7.65586 0)
(25.3923 6.39659 2.80836e-19)
(24.4934 5.33997 2.28932e-19)
(23.459 4.48366 -2.06941e-19)
(22.2688 3.82797 -5.79752e-19)
(20.8794 3.35909 3.99183e-19)
(19.2022 3.04027 9.70797e-19)
(17.0505 2.78823 -1.08214e-18)
(14.5993 2.50734 -1.48881e-18)
(11.9684 2.13862 0)
(9.10257 1.68373 2.13028e-18)
(6.31121 1.23251 5.14436e-18)
(3.92305 0.87497 -7.77475e-18)
(2.10102 0.649649 5.61633e-18)
(0.80629 0.538437 1.74242e-17)
(-0.0972085 0.502731 -2.39646e-18)
(-0.736579 0.51046 -2.4132e-21)
(-1.20196 0.544763 -1.41549e-17)
(-1.55395 0.597637 -4.60047e-18)
(-1.83893 0.661039 -1.5416e-17)
(-2.09347 0.718745 0)
(-2.33749 0.744406 -1.53737e-17)
(-2.56016 0.69813 1.52289e-17)
(-2.732 0.522008 -1.37001e-17)
(-2.82469 0.166581 -4.57718e-17)
(-2.70126 -0.372279 2.00062e-17)
(-2.16819 -1.16309 6.97678e-20)
(-2.00108 -2.36553 -2.82151e-17)
(9.66044 17.5121 1.40199e-18)
(11.5948 18.4211 -4.01203e-19)
(13.4328 19.0158 -2.80836e-19)
(15.3703 19.4326 1.12442e-18)
(17.3796 19.5299 -3.99658e-19)
(19.3466 19.2578 -8.49407e-19)
(21.2044 18.6242 1.79439e-18)
(22.8814 17.6481 1.76179e-18)
(24.2921 16.3788 -1.43189e-18)
(25.3808 14.888 0)
(26.1231 13.2212 -8.53556e-19)
(26.469 11.4768 1.35414e-19)
(26.4004 9.80596 -9.8687e-21)
(25.9939 8.3206 3.58835e-19)
(25.3671 7.03526 -2.13406e-20)
(24.5941 5.94421 2.22035e-20)
(23.6989 5.05161 0)
(22.6994 4.36605 0)
(21.6041 3.88613 -1.78338e-18)
(20.3915 3.59206 1.56993e-18)
(18.9318 3.40992 -1.0559e-18)
(17.2562 3.23101 1.09904e-18)
(15.3162 2.96375 1.31031e-18)
(12.9179 2.54938 0)
(10.183 2.02964 1.77337e-18)
(7.41359 1.50481 -2.11365e-18)
(4.9541 1.07646 -5.14119e-18)
(3.01237 0.793561 0)
(1.59319 0.641869 0)
(0.583887 0.5781 2.06094e-18)
(-0.137811 0.567556 1.75952e-17)
(-0.664532 0.592204 1.50933e-17)
(-1.06191 0.639854 3.0532e-17)
(-1.38346 0.691137 1.89309e-18)
(-1.67081 0.714895 0)
(-1.93848 0.665931 -7.92536e-19)
(-2.18205 0.482015 1.25321e-17)
(-2.39771 0.108535 6.78173e-20)
(-2.49418 -0.457418 1.7936e-17)
(-2.34138 -1.25521 1.52892e-17)
(-2.41617 -2.34723 1.29918e-17)
(10.8201 16.3029 -8.443e-19)
(12.4282 17.0066 -1.0367e-20)
(13.9429 17.4856 1.11748e-18)
(15.5163 17.8547 -2.10968e-18)
(17.1538 18.0097 0)
(18.7922 17.8989 -5.20111e-19)
(20.3887 17.5086 1.3983e-18)
(21.889 16.8338 -1.11759e-18)
(23.2184 15.8935 3.89751e-19)
(24.3199 14.7282 8.36601e-19)
(25.1606 13.3691 3.92318e-20)
(25.6849 11.8841 -1.49165e-18)
(25.8475 10.386 0)
(25.6748 8.9786 -6.40962e-20)
(25.2459 7.71005 -2.40063e-19)
(24.6324 6.60458 2.63771e-19)
(23.8747 5.67621 6.11824e-19)
(23.0072 4.94111 -6.31237e-19)
(22.0672 4.40842 5.24401e-19)
(21.0894 4.07805 0)
(20.0531 3.90856 -2.00258e-18)
(18.9857 3.80945 3.60886e-18)
(17.7879 3.68291 -3.06349e-18)
(16.2017 3.42898 -2.18787e-20)
(14.1292 3.01244 2.49858e-18)
(11.6348 2.46864 -2.84587e-18)
(8.9618 1.88865 0)
(6.43884 1.37836 1.01763e-17)
(4.32681 1.00844 4.89423e-18)
(2.71316 0.78714 2.87181e-18)
(1.53569 0.678176 -1.3193e-17)
(0.683524 0.640729 -3.65735e-18)
(0.0618531 0.648459 3.89148e-18)
(-0.405093 0.67845 -1.85534e-18)
(-0.784221 0.695071 -1.00296e-17)
(-1.12066 0.647549 -1.50374e-18)
(-1.44129 0.469633 0)
(-1.76988 0.101134 1.9747e-17)
(-2.06422 -0.465214 -1.67407e-17)
(-2.25466 -1.25057 -1.4209e-17)
(-2.60829 -2.24754 0)
(11.8214 15.1501 0)
(13.1585 15.6951 0)
(14.4099 16.0791 0)
(15.6918 16.3934 5.83063e-18)
(17.0201 16.564 -3.32758e-18)
(18.364 16.5493 1.49016e-18)
(19.7018 16.3298 1.33345e-18)
(20.9987 15.8898 -3.47384e-19)
(22.1981 15.2285 -3.43262e-19)
(23.2508 14.3623 1.1421e-19)
(24.1245 13.3065 -1.12405e-19)
(24.7654 12.1015 5.17534e-19)
(25.1153 10.8234 -1.24974e-19)
(25.1651 9.55575 1.28841e-19)
(24.9551 8.35892 6.82628e-19)
(24.5382 7.27893 -5.79301e-19)
(23.9543 6.34167 -1.06823e-18)
(23.2391 5.56889 1.10102e-18)
(22.4343 4.97637 -8.63828e-19)
(21.5889 4.57318 0)
(20.745 4.3472 -2.9098e-18)
(19.9856 4.24545 2.07447e-18)
(19.262 4.19361 8.31946e-19)
(18.3767 4.09833 -1.67815e-18)
(17.1678 3.88721 3.63828e-18)
(15.5097 3.52039 0)
(13.3918 3.00818 0)
(10.9576 2.41405 -2.59985e-18)
(8.46768 1.83289 -1.53643e-17)
(6.19791 1.35242 -7.31543e-18)
(4.32943 1.01871 8.59599e-18)
(2.90049 0.826642 2.48574e-18)
(1.84744 0.739521 -1.3912e-17)
(1.07637 0.713705 -2.98569e-18)
(0.495102 0.703276 1.83718e-17)
(0.0242656 0.652812 -2.99259e-18)
(-0.402518 0.492061 -1.09891e-17)
(-0.846275 0.15316 1.2194e-18)
(-1.31298 -0.381897 1.50481e-17)
(-1.78386 -1.12591 0)
(-2.41798 -2.03678 0)
(12.6796 14.07 0)
(13.7929 14.4927 0)
(14.8295 14.7989 -2.15191e-19)
(15.8772 15.0595 -4.08376e-18)
(16.9538 15.2223 0)
(18.0459 15.2578 -3.34621e-18)
(19.1464 15.1487 -9.8572e-19)
(20.2366 14.8773 0)
(21.2787 14.4339 1.21043e-18)
(22.2354 13.8198 -1.05484e-18)
(23.0811 13.0381 -2.46066e-19)
(23.77 12.1071 -1.33168e-19)
(24.2434 11.0711 2.89531e-22)
(24.4724 9.98857 0)
(24.467 8.91568 1.25837e-18)
(24.2557 7.90713 -1.02494e-18)
(23.8687 6.99894 0)
(23.3363 6.21847 0)
(22.6945 5.58652 -8.44793e-19)
(21.9863 5.11553 3.45506e-18)
(21.2623 4.80767 -1.84475e-18)
(20.6324 4.64157 0)
(20.1041 4.56885 2.61012e-18)
(19.5749 4.52553 9.81148e-20)
(18.9532 4.45777 -2.831e-18)
(18.1077 4.30876 1.50474e-18)
(16.9076 4.03158 0)
(15.2817 3.60906 0)
(13.2665 3.06701 -1.9886e-18)
(11.0112 2.46993 9.01931e-18)
(8.73514 1.8998 -5.23275e-18)
(6.6546 1.42825 6.12652e-18)
(4.91507 1.09413 3.52971e-18)
(3.55963 0.894493 0)
(2.5416 0.788202 6.52122e-18)
(1.77031 0.705669 6.53588e-21)
(1.14054 0.561053 2.08387e-17)
(0.543422 0.272955 0)
(-0.0830477 -0.197397 -1.76304e-17)
(-0.770206 -0.867592 1.43474e-17)
(-1.6593 -1.68923 0)
(13.4107 13.073 0)
(14.3395 13.4018 -2.34292e-18)
(15.2003 13.6447 2.13438e-18)
(16.0594 13.8565 0)
(16.933 14.0005 3.36875e-18)
(17.8167 14.057 -9.63387e-19)
(18.7115 14.0135 -1.14914e-17)
(19.6095 13.8548 1.28412e-17)
(20.4878 13.5694 -6.94387e-18)
(21.3219 13.1514 -4.48495e-18)
(22.0941 12.5973 3.01272e-18)
(22.7704 11.9107 7.28549e-19)
(23.3 11.1119 -1.10761e-18)
(23.6476 10.2356 6.66367e-19)
(23.8045 9.3246 -1.72307e-18)
(23.778 8.42971 1.29416e-18)
(23.584 7.59041 9.20997e-19)
(23.2435 6.83814 5.41062e-19)
(22.7845 6.19802 2.34536e-18)
(22.2406 5.6861 -5.40346e-18)
(21.6521 5.31091 3.07829e-18)
(21.121 5.07201 1.19358e-19)
(20.6761 4.93534 5.18882e-19)
(20.2702 4.8536 0)
(19.8835 4.80199 -3.46899e-18)
(19.4639 4.74983 1.15709e-18)
(18.923 4.65717 3.74662e-18)
(18.1525 4.48001 -2.59755e-18)
(17.0578 4.1844 5.56896e-18)
(15.5977 3.76188 -2.99534e-18)
(13.81 3.23687 0)
(11.8094 2.66133 -5.53779e-18)
(9.75934 2.0995 -2.09414e-18)
(7.82732 1.60921 2.37395e-18)
(6.13932 1.22512 -1.61045e-17)
(4.75876 0.944766 -3.00027e-18)
(3.66476 0.717439 -6.39778e-18)
(2.75187 0.454096 6.82483e-18)
(1.89855 0.0741564 7.25722e-18)
(1.02969 -0.478398 -1.42335e-17)
(-0.0819537 -1.18705 -4.08577e-19)
(14.0303 12.1648 0)
(14.8065 12.4213 1.28176e-19)
(15.5232 12.6133 1.93859e-18)
(16.23 12.7829 7.09395e-18)
(16.9407 12.9043 -4.16459e-18)
(17.6553 12.9651 2.37813e-18)
(18.3784 12.9572 2.08994e-18)
(19.1083 12.8695 -1.10597e-17)
(19.8326 12.6915 2.11212e-18)
(20.5366 12.4157 4.11765e-18)
(21.2102 12.0364 -5.54483e-18)
(21.8308 11.5498 3.42349e-18)
(22.3593 10.9609 1.72859e-18)
(22.7635 10.2861 -5.72252e-19)
(23.0266 9.5529 0)
(23.1422 8.80043 0)
(23.113 8.06405 -4.37919e-18)
(22.9492 7.37488 -8.6161e-19)
(22.6693 6.75988 4.14919e-18)
(22.2981 6.23864 -3.04942e-19)
(21.865 5.82448 3.21718e-18)
(21.4513 5.53294 -6.36039e-18)
(21.0882 5.3393 3.26843e-18)
(20.7499 5.19956 0)
(20.4411 5.10015 -4.64798e-19)
(20.1575 5.02949 3.90297e-18)
(19.8771 4.97338 -4.95617e-18)
(19.5542 4.90989 4.13804e-18)
(19.1188 4.80801 -3.16389e-18)
(18.4902 4.63353 0)
(17.5994 4.35993 2.32005e-18)
(16.4132 3.97874 4.91717e-18)
(14.9499 3.50399 -2.65011e-18)
(13.2782 2.96821 2.88771e-18)
(11.4977 2.41237 1.56335e-18)
(9.72948 1.87758 -3.58448e-18)
(8.08124 1.39016 5.90256e-18)
(6.60044 0.94448 -4.26341e-18)
(5.27141 0.507027 -3.49719e-18)
(4.06081 0.0147816 -6.40235e-19)
(2.69393 -0.554897 1.04287e-17)
(14.5528 11.3469 -2.032e-18)
(15.2028 11.5477 -7.57333e-18)
(15.8008 11.6989 7.44528e-18)
(16.3842 11.8331 0)
(16.9643 11.9323 -2.08915e-19)
(17.5431 11.9888 0)
(18.1264 11.9978 -1.72231e-17)
(18.7156 11.952 1.38897e-17)
(19.3046 11.8432 9.92596e-18)
(19.8855 11.6649 -1.18011e-17)
(20.4536 11.4115 4.08751e-18)
(20.9953 11.0767 -2.0785e-18)
(21.4834 10.6579 -1.50458e-18)
(21.8928 10.1599 -3.33037e-18)
(22.2064 9.59762 2.94392e-20)
(22.4121 8.99686 3.33794e-18)
(22.504 8.38413 -2.6339e-18)
(22.4833 7.78556 3.61974e-18)
(22.3589 7.22607 0)
(22.1465 6.7262 4.52728e-18)
(21.8663 6.30236 3.24196e-20)
(21.5781 5.98278 -4.95141e-18)
(21.3106 5.75269 4.38067e-20)
(21.0503 5.57086 0)
(20.8039 5.4259 3.8294e-19)
(20.5762 5.30935 3.97636e-19)
(20.3692 5.21557 0)
(20.1785 5.13952 0)
(19.9879 5.07281 2.40285e-21)
(19.7649 5.00019 0)
(19.4611 4.89926 -2.68568e-18)
(19.0202 4.74444 0)
(18.3907 4.51377 3.81678e-18)
(17.5404 4.195 -3.97951e-18)
(16.4606 3.78741 0)
(15.1779 3.30438 2.20231e-18)
(13.7468 2.76835 -2.36452e-18)
(12.2239 2.19889 1.33115e-18)
(10.6515 1.61685 4.29808e-18)
(9.11434 1.02436 -3.94373e-19)
(7.37823 0.424466 -9.92067e-18)
(14.9919 10.6178 5.3954e-18)
(15.5369 10.7755 2.09195e-19)
(16.037 10.8941 -3.29574e-18)
(16.52 10.9993 -6.30137e-18)
(16.9953 11.0784 -1.48144e-17)
(17.4656 11.1268 1.76096e-17)
(17.9366 11.1421 -4.25772e-19)
(18.4111 11.1196 -1.02612e-17)
(18.8863 11.0535 2.02765e-17)
(19.3588 10.9389 -5.52366e-19)
(19.8271 10.7715 -1.10125e-17)
(20.2836 10.5451 3.98191e-18)
(20.7108 10.2543 -7.45422e-18)
(21.0911 9.89823 1.13363e-17)
(21.411 9.48342 -1.89827e-18)
(21.6582 9.02469 0)
(21.8235 8.53912 -7.90489e-18)
(21.9027 8.04548 7.15458e-18)
(21.8972 7.56347 7.6846e-18)
(21.8149 7.1113 -1.48386e-17)
(21.6674 6.70523 8.13424e-18)
(21.4941 6.38091 -4.26114e-19)
(21.3201 6.13334 -3.63562e-20)
(21.1422 5.92726 -5.01697e-18)
(20.9663 5.7542 1.0192e-17)
(20.7968 5.60638 -5.53918e-18)
(20.6371 5.47761 5.12237e-18)
(20.4902 5.364 -6.20505e-18)
(20.3576 5.26337 -6.39612e-18)
(20.2375 5.17365 5.72859e-18)
(20.121 5.09025 1.46331e-18)
(19.989 5.00398 2.226e-18)
(19.8122 4.90049 -6.75481e-18)
(19.5545 4.76208 6.09989e-18)
(19.1772 4.57004 -3.12409e-18)
(18.6484 4.31022 -1.63167e-18)
(17.95 3.97626 0)
(17.0768 3.56647 -1.71813e-18)
(16.0183 3.0894 -1.81302e-18)
(14.8545 2.56206 -2.01574e-18)
(13.359 1.97628 2.07835e-18)
(15.3591 9.97337 1.45438e-20)
(15.8166 10.0975 7.56082e-19)
(16.2355 10.1901 2.88305e-18)
(16.6367 10.2719 -5.47745e-18)
(17.0276 10.3337 2.18369e-17)
(17.4113 10.3729 -2.03332e-17)
(17.7929 10.3886 2.56874e-17)
(18.1753 10.378 1.42803e-17)
(18.558 10.3372 -5.76065e-18)
(18.9395 10.2627 -7.90964e-19)
(19.32 10.1517 -1.78298e-17)
(19.6959 9.99911 2.43828e-19)
(20.0563 9.79945 0)
(20.39 9.5496 -3.40738e-18)
(20.6875 9.25162 3.54581e-18)
(20.9393 8.913 -3.71906e-18)
(21.1364 8.54329 0)
(21.2725 8.1542 7.05308e-18)
(21.3454 7.75923 -1.52241e-17)
(21.3569 7.3722 5.41941e-18)
(21.312 7.00647 -7.62739e-18)
(21.2325 6.69892 8.57062e-18)
(21.1383 6.45166 2.60076e-19)
(21.0331 6.23662 -1.01431e-19)
(20.9226 6.04921 8.74618e-18)
(20.8111 5.88428 -8.81318e-18)
(20.7013 5.73659 2.82482e-19)
(20.5954 5.60148 5.77478e-19)
(20.495 5.47539 -4.77207e-18)
(20.402 5.35614 5.40587e-18)
(20.3181 5.24267 -6.0584e-19)
(20.2432 5.13412 6.12881e-19)
(20.1736 5.02852 -2.49893e-18)
(20.1003 4.92148 1.23284e-18)
(20.0076 4.80508 5.12042e-18)
(19.8742 4.66907 -1.30781e-18)
(19.675 4.50247 1.32677e-18)
(19.3871 4.29411 -2.71292e-18)
(18.9732 4.03431 1.41038e-18)
(18.4603 3.72921 1.40823e-18)
(17.6864 3.34503 0)
(15.6643 9.40706 -8.26748e-18)
(16.0486 9.50459 1.52121e-17)
(16.3998 9.57674 1.50652e-17)
(16.7338 9.63993 -3.99341e-17)
(17.0564 9.68757 1.49623e-17)
(17.3707 9.7182 -3.29181e-17)
(17.6811 9.73177 2.76189e-17)
(17.9905 9.72667 -4.10837e-17)
(18.299 9.70033 3.97384e-17)
(18.6064 9.65037 -5.52726e-19)
(18.9136 9.57503 -1.70315e-17)
(19.2192 9.47075 -1.87109e-18)
(19.5165 9.33284 -1.48913e-17)
(19.7987 9.158 1.47372e-17)
(20.0599 8.94628 -1.3756e-17)
(20.2934 8.70103 1.53096e-17)
(20.4923 8.42693 0)
(20.6508 8.13039 -1.17066e-17)
(20.7651 7.81958 1.42889e-17)
(20.8341 7.50362 -1.28897e-17)
(20.8585 7.19193 -2.00033e-19)
(20.8471 6.91785 2.07892e-17)
(20.814 6.68724 -1.06528e-19)
(20.7659 6.47853 -7.40652e-18)
(20.7079 6.29003 -1.40278e-23)
(20.6438 6.11932 0)
(20.5765 5.96346 -7.8395e-18)
(20.5081 5.81923 7.74905e-18)
(20.4396 5.68341 0)
(20.3717 5.55309 -5.04344e-19)
(20.3051 5.42598 0)
(20.2405 5.30058 4.21312e-18)
(20.179 5.17619 -4.74719e-18)
(20.1206 5.05255 -4.30886e-18)
(20.0642 4.92905 8.66871e-18)
(20.0062 4.80485 -4.91767e-18)
(19.9394 4.67805 -5.62488e-19)
(19.8545 4.54526 1.10211e-18)
(19.7325 4.40029 -1.11906e-18)
(19.5727 4.24545 0)
(19.3138 4.05602 -1.1988e-18)
(15.9058 8.93377 0)
(16.2311 9.01118 -2.0676e-17)
(16.5281 9.06807 5.4494e-19)
(16.8089 9.11742 2.8588e-17)
(17.0782 9.15422 1.83039e-17)
(17.339 9.17785 -1.87023e-17)
(17.595 9.18871 1.79176e-17)
(17.8487 9.18587 1.76569e-17)
(18.1007 9.16762 3.4554e-17)
(18.3511 9.13234 -4.38036e-17)
(18.6013 9.07887 4.35341e-18)
(18.8505 9.00463 4.15661e-18)
(19.0949 8.90601 -1.53738e-17)
(19.3302 8.78022 1.13085e-17)
(19.5529 8.62665 1.64486e-17)
(19.7586 8.44669 -1.26383e-17)
(19.9425 8.24246 -1.5695e-17)
(20.1 8.0172 1.57762e-17)
(20.2276 7.77551 0)
(20.3232 7.52293 1.76713e-18)
(20.3856 7.26548 1.75943e-18)
(20.4155 7.03096 1.39829e-17)
(20.4222 6.82638 -2.79784e-17)
(20.4132 6.63526 1.43047e-17)
(20.3922 6.45741 7.20837e-18)
(20.362 6.29206 -1.54571e-19)
(20.3254 6.13796 -7.32303e-18)
(20.2844 5.99349 1.14592e-19)
(20.2401 5.85681 7.48619e-21)
(20.1932 5.72599 7.61541e-18)
(20.144 5.59913 -7.6907e-18)
(20.0925 5.47454 -3.92466e-18)
(20.0384 5.35088 4.18119e-18)
(19.9818 5.22724 -4.01044e-18)
(19.9225 5.10308 3.50319e-18)
(19.8606 4.97887 3.06717e-18)
(19.7957 4.85569 -1.54406e-18)
(19.7269 4.73439 5.27758e-19)
(19.6509 4.61534 0)
(19.5659 4.50211 0)
(19.464 4.38884 -2.55213e-20)
(16.0904 8.55508 -9.27263e-18)
(16.3699 8.61768 1.04098e-17)
(16.625 8.66325 -4.51753e-18)
(16.865 8.70213 -8.88254e-18)
(17.0939 8.73048 0)
(17.3144 8.74821 1.75778e-17)
(17.5298 8.75595 -4.32444e-17)
(17.7421 8.7532 2.65324e-17)
(17.952 8.73879 -8.7402e-18)
(18.16 8.71164 8.39607e-18)
(18.3673 8.67104 -4.16991e-18)
(18.5737 8.61512 -3.68137e-17)
(18.7767 8.54113 6.35814e-17)
(18.9737 8.44676 -2.72838e-17)
(19.1624 8.33129 -3.61024e-18)
(19.3401 8.19518 -1.44915e-17)
(19.5035 8.03928 4.46089e-17)
(19.6491 7.86514 -1.95096e-17)
(19.7742 7.67527 -2.97722e-17)
(19.8765 7.47292 1.22479e-17)
(19.9544 7.26178 -3.43746e-18)
(20.0047 7.06429 0)
(20.0332 6.88728 0)
(20.047 6.71798 -1.40222e-17)
(20.0486 6.55688 1.4033e-17)
(20.04 6.40403 2.17346e-19)
(20.0232 6.2591 0)
(20.0001 6.12144 7.25144e-18)
(19.9716 5.9902 -7.26347e-18)
(19.9388 5.8644 5.65345e-20)
(19.9019 5.74305 -5.8742e-20)
(19.8611 5.62515 0)
(19.8163 5.5098 3.58861e-18)
(19.7671 5.39619 -3.79211e-18)
(19.7129 5.28354 4.73619e-19)
(19.6535 5.17178 -4.78249e-19)
(19.5887 5.06143 0)
(19.5182 4.95288 -4.88042e-19)
(19.4422 4.8472 -1.00513e-18)
(19.3605 4.74686 4.96661e-19)
(19.2756 4.65219 1.5003e-18)
(16.2346 8.24802 0)
(16.4778 8.29933 0)
(16.6995 8.33619 -1.68135e-17)
(16.9075 8.36703 -3.33419e-17)
(17.105 8.3888 5.09386e-17)
(17.2944 8.40177 -4.17628e-17)
(17.4785 8.40667 -1.64122e-17)
(17.6591 8.40324 3.39305e-17)
(17.837 8.39067 -3.35588e-17)
(18.0127 8.36819 3.38608e-17)
(18.1872 8.33538 0)
(18.3606 8.29088 0)
(18.5312 8.2326 3.16979e-17)
(18.6974 8.15876 -6.18444e-17)
(18.8578 8.06868 6.01527e-17)
(19.0105 7.96243 -2.95668e-17)
(19.1532 7.84025 -3.67586e-18)
(19.2835 7.70284 3.36862e-17)
(19.3992 7.55147 -2.29178e-17)
(19.4984 7.38802 0)
(19.5793 7.21464 1.6812e-18)
(19.6373 7.04927 0)
(19.676 6.89798 -1.46638e-17)
(19.7018 6.75074 2.84768e-17)
(19.7159 6.60831 -1.38153e-17)
(19.7201 6.47111 0)
(19.7156 6.3393 0)
(19.7039 6.21278 6.60551e-18)
(19.6858 6.09126 -7.04768e-18)
(19.6623 5.97435 -7.1406e-18)
(19.6337 5.86162 7.19061e-18)
(19.6006 5.75264 7.23573e-18)
(19.5629 5.64705 -7.25708e-18)
(19.5207 5.54447 0)
(19.4738 5.44443 -5.80926e-20)
(19.422 5.34693 0)
(19.365 5.25221 -1.47254e-20)
(19.3025 5.16016 -5.92963e-20)
(19.2346 5.07116 2.02401e-18)
(19.1613 4.98625 -2.8621e-18)
(19.0839 4.90552 9.44148e-19)
(16.3495 7.9942 0)
(16.563 8.03666 -1.96653e-18)
(16.7577 8.06668 0)
(16.9398 8.09121 1.57639e-17)
(17.1121 8.1078 -1.58387e-17)
(17.2767 8.11692 0)
(17.436 8.11933 1.59762e-17)
(17.5917 8.11493 1.58423e-17)
(17.7445 8.10315 -4.10368e-17)
(17.8949 8.08344 0)
(18.0437 8.05552 3.24881e-17)
(18.1912 8.01843 -6.54072e-17)
(18.3362 7.97057 3.18809e-17)
(18.4775 7.91057 0)
(18.6144 7.83786 -2.97367e-17)
(18.7455 7.75237 3.30934e-17)
(18.8693 7.65411 3.21147e-17)
(18.9839 7.54331 -3.54629e-17)
(19.0877 7.42064 -3.42218e-18)
(19.1793 7.28714 0)
(19.2569 7.14402 0)
(19.3157 7.00564 -1.73893e-18)
(19.3579 6.87714 8.32305e-19)
(19.3889 6.75051 1.36242e-17)
(19.4094 6.62655 9.01724e-19)
(19.4207 6.50582 -1.35915e-17)
(19.4236 6.3887 1.3682e-17)
(19.4192 6.27539 -1.32415e-17)
(19.4082 6.16591 -7.76183e-18)
(19.3914 6.0602 6.88127e-18)
(19.3692 5.95816 -6.95194e-18)
(19.342 5.85968 6.93983e-18)
(19.3102 5.76464 0)
(19.274 5.67295 -7.49773e-18)
(19.2334 5.5844 7.09203e-18)
(19.1886 5.49909 0)
(19.1396 5.41731 1.37965e-20)
(19.0864 5.3389 1.85589e-18)
(19.029 5.26403 -1.90755e-18)
(18.9675 5.19318 8.53141e-19)
(18.9025 5.12618 -8.91884e-19)
(16.4425 7.7811 0)
(16.6313 7.81647 1.81174e-18)
(16.8036 7.84102 -1.47267e-17)
(16.9644 7.86052 2.94308e-17)
(17.116 7.87296 -5.99753e-17)
(17.2604 7.87895 3.05183e-17)
(17.3996 7.87927 0)
(17.5353 7.87388 1.53443e-17)
(17.6679 7.86237 9.31171e-17)
(17.7979 7.84437 -6.3101e-17)
(17.9261 7.8197 0)
(18.0528 7.78764 -7.99476e-18)
(18.1771 7.74697 2.31356e-17)
(18.2982 7.69664 -2.89231e-19)
(18.4156 7.63621 -2.95608e-17)
(18.5283 7.56557 3.24324e-17)
(18.6353 7.48462 -2.84095e-17)
(18.7352 7.39343 2.77195e-17)
(18.8268 7.29231 -2.76649e-17)
(18.909 7.18188 -2.73064e-17)
(18.9803 7.06281 2.36148e-17)
(19.0361 6.94664 -1.18014e-17)
(19.0779 6.83764 1.50267e-17)
(19.1101 6.72935 -1.4136e-17)
(19.1332 6.62246 -2.52658e-18)
(19.1479 6.51759 1.32805e-17)
(19.1551 6.41517 0)
(19.1553 6.31552 0)
(19.1492 6.21882 -1.25568e-17)
(19.1374 6.1252 1.33498e-17)
(19.1203 6.03472 0)
(19.0984 5.94742 8.49155e-19)
(19.072 5.86334 8.51281e-19)
(19.0414 5.78249 7.20484e-18)
(19.0068 5.70478 -7.19384e-18)
(18.9684 5.63034 -3.41533e-18)
(18.9265 5.55946 3.40528e-18)
(18.8813 5.492 -1.28751e-18)
(18.8329 5.42808 3.43777e-18)
(18.7815 5.368 -1.66507e-18)
(18.7277 5.31176 -2.13209e-19)
(16.5187 7.59987 1.31936e-17)
(16.6868 7.62949 1.64845e-17)
(16.8401 7.64959 -1.76419e-19)
(16.983 7.66501 0)
(17.1173 7.67412 0)
(17.2449 7.67757 0)
(17.3676 7.67613 0)
(17.4866 7.66983 -5.85393e-17)
(17.6027 7.65837 1.04255e-16)
(17.7161 7.64148 -6.03827e-17)
(17.8275 7.61905 6.03737e-17)
(17.9372 7.59055 -3.8368e-17)
(18.0445 7.55505 6.80908e-17)
(18.1489 7.51175 -8.11803e-17)
(18.25 7.46029 2.88592e-17)
(18.3472 7.40058 2.11139e-17)
(18.4396 7.33252 -2.77699e-17)
(18.5263 7.25609 3.36528e-18)
(18.6063 7.17145 -3.41255e-18)
(18.6788 7.07897 3.35012e-17)
(18.7426 6.97902 2.96082e-17)
(18.7936 6.88097 -4.93086e-17)
(18.8328 6.78835 -1.60459e-18)
(18.8639 6.69587 0)
(18.8872 6.60413 1.5971e-18)
(18.9031 6.5137 -1.63515e-18)
(18.9122 6.42501 -1.13171e-17)
(18.9152 6.33841 1.29158e-17)
(18.9124 6.25415 -1.29627e-17)
(18.9043 6.17242 1.29264e-17)
(18.8914 6.09337 1.29912e-17)
(18.8739 6.0171 -1.37544e-17)
(18.8524 5.94372 -8.03975e-19)
(18.827 5.8733 6.52603e-18)
(18.798 5.80578 -5.27779e-18)
(18.7657 5.74131 0)
(18.7305 5.6801 0)
(18.6924 5.62204 -4.06229e-19)
(18.6518 5.56719 8.25014e-19)
(18.609 5.51577 8.258e-19)
(18.5642 5.46789 2.00013e-19)
(16.5819 7.44409 0)
(16.7322 7.46896 -3.0882e-18)
(16.8693 7.4854 2.52005e-17)
(16.9969 7.4975 -2.59253e-17)
(17.1166 7.50389 -5.24566e-17)
(17.2299 7.50529 5.40716e-17)
(17.3387 7.5024 2.70756e-17)
(17.4439 7.49531 -5.60054e-17)
(17.5461 7.4838 -5.63495e-17)
(17.6457 7.46769 5.75353e-17)
(17.7431 7.44691 0)
(17.8387 7.42105 -2.91864e-17)
(17.932 7.38942 5.84773e-17)
(18.0225 7.35141 -6.45521e-17)
(18.11 7.30674 0)
(18.194 7.25535 -6.89291e-18)
(18.2738 7.19714 6.78288e-18)
(18.3489 7.1321 0)
(18.4184 7.06029 3.24444e-18)
(18.4816 6.98197 -6.43299e-18)
(18.5377 6.89734 2.89576e-17)
(18.5832 6.8141 -2.87357e-17)
(18.6188 6.73514 3.19483e-18)
(18.6476 6.6561 2.36344e-17)
(18.6696 6.57748 -2.35521e-17)
(18.6852 6.49978 1.54998e-18)
(18.695 6.42341 -1.40897e-17)
(18.6993 6.34869 1.25022e-17)
(18.6986 6.27589 1.57719e-18)
(18.6931 6.20521 0)
(18.6833 6.13681 0)
(18.6696 6.07084 0)
(18.6521 6.00741 -6.26512e-18)
(18.6313 5.94661 6.24247e-18)
(18.6074 5.8884 -7.75395e-19)
(18.5807 5.83291 -6.27178e-18)
(18.5514 5.78032 7.03399e-18)
(18.5198 5.73051 0)
(18.4861 5.68351 9.32727e-21)
(18.4507 5.63946 -1.56234e-18)
(18.4135 5.59854 7.6275e-19)
(16.6348 7.30893 1.12002e-17)
(16.7696 7.32985 0)
(16.8928 7.34326 -5.83595e-17)
(17.0071 7.35264 4.82392e-17)
(17.1142 7.35682 0)
(17.2155 7.35654 5.02953e-17)
(17.3123 7.35248 -2.25337e-19)
(17.4058 7.34473 5.24886e-17)
(17.4962 7.33316 -8.07363e-17)
(17.5841 7.31764 -5.42457e-17)
(17.6698 7.29814 5.53656e-17)
(17.7536 7.27435 1.38369e-17)
(17.835 7.24574 0)
(17.9138 7.21184 0)
(17.9898 7.17248 -1.35697e-17)
(18.0625 7.1276 5.92854e-17)
(18.1316 7.07714 -1.17037e-16)
(18.1965 7.02108 5.14584e-17)
(18.2567 6.95948 6.40326e-18)
(18.3115 6.89251 6.35333e-18)
(18.3604 6.8203 -3.08263e-18)
(18.4003 6.74923 4.63242e-17)
(18.432 6.68167 -7.95951e-17)
(18.4578 6.61399 1.50503e-18)
(18.4778 6.54661 2.27966e-17)
(18.4925 6.47995 0)