/*--------------------------------*- C++ -*----------------------------------*\
| =========                 |                                                 |
| \\      /  F ield         | OpenFOAM: The Open Source CFD Toolbox           |
|  \\    /   O peration     | Version:  5.x                                   |
|   \\  /    A nd           | Web:      www.OpenFOAM.org                      |
|    \\/     M anipulation  |                                                 |
\*---------------------------------------------------------------------------*/
FoamFile
{
    version     2.0;
    format      ascii;
    class       volVectorField;
    location    "450";
    object      U;
}
// * * * * * * * * * * * * * * * * * * * * * * * * * * * * * * * * * * * * * //

dimensions      [0 1 -1 0 0 0 0];

internalField   nonuniform List<vector> 
41860
(
(163.752 249.936 0)
(243.838 187.865 4.31996e-16)
(281.884 114.609 1.38515e-16)
(254.627 85.5203 -3.83454e-16)
(240.239 67.4023 -9.52283e-22)
(224.428 54.357 -2.70355e-16)
(209.156 44.6125 -3.2639e-16)
(196.17 37.3962 3.833e-16)
(184.978 31.8495 0)
(175.147 27.4206 -4.94134e-16)
(166.29 23.8213 5.57538e-16)
(158.4 20.8233 5.9499e-16)
(150.935 18.2752 -5.14438e-21)
(145.148 16.2101 6.78744e-16)
(139.475 14.3861 -7.70197e-16)
(136.02 12.9814 -7.63099e-16)
(132.292 11.6625 8.0892e-16)
(129.211 10.5301 -8.34207e-16)
(126.562 9.51319 -8.37514e-16)
(123.385 8.54539 8.92866e-16)
(121.43 7.73253 -8.71735e-16)
(118.681 6.92234 -2.51942e-21)
(116.748 6.22299 -5.68928e-21)
(114.871 5.56537 3.45285e-21)
(112.801 4.94346 1.85286e-15)
(111.513 4.3904 -8.96678e-16)
(109.688 3.84623 0)
(108.168 3.34765 -4.48915e-16)
(106.856 2.88002 4.49617e-16)
(105.614 2.43806 0)
(104.268 2.01763 3.3376e-21)
(102.77 1.61389 -3.30441e-21)
(101.657 1.24078 -2.88132e-21)
(100.834 0.88277 6.36983e-21)
(99.6436 0.543456 2.04979e-16)
(98.9196 0.217675 0)
(97.9415 -0.0901879 -2.45471e-17)
(97.1047 -0.38825 1.93724e-16)
(96.7319 -0.671648 -1.86147e-16)
(96.2614 -0.949743 3.62467e-16)
(95.7128 -1.2106 0)
(95.266 -1.46722 -1.36723e-15)
(90.5398 -1.61025 0)
(90.1558 -1.79641 3.85688e-21)
(89.2284 -1.95345 9.29542e-16)
(88.9418 -2.11945 -1.77187e-21)
(88.3621 -2.26814 1.76901e-21)
(87.7739 -2.40745 9.3643e-16)
(87.2293 -2.54292 -1.87953e-15)
(86.6939 -2.66688 -9.44371e-16)
(86.1937 -2.79113 -1.81209e-21)
(85.7197 -2.90321 9.51613e-16)
(85.2671 -3.01724 -9.54786e-16)
(84.858 -3.12115 1.83021e-21)
(84.4616 -3.22741 6.43337e-24)
(83.7397 -3.31016 6.44481e-24)
(83.4097 -3.40842 -1.85309e-21)
(83.2682 -3.50732 0)
(82.7345 -3.58931 -1.95073e-15)
(82.5648 -3.68302 -1.86294e-21)
(82.3729 -3.77516 1.93483e-15)
(81.9178 -3.86232 -1.9575e-15)
(81.3624 -3.95085 1.96568e-15)
(81.1696 -4.05089 -3.92827e-15)
(80.5848 -4.13449 1.97647e-15)
(80.4667 -4.23588 -1.96399e-15)
(79.813 -4.3128 0)
(79.392 -4.39573 9.46231e-22)
(78.9768 -4.48179 3.44996e-24)
(78.4867 -4.56239 -1.97003e-15)
(77.6742 -4.62189 -3.69907e-24)
(77.1773 -4.70226 9.6038e-22)
(76.5459 -4.77253 3.9994e-15)
(75.4076 -4.81031 -4.88064e-22)
(74.5144 -4.86312 4.15234e-15)
(73.6898 -4.92093 0)
(72.42 -4.94731 -8.3591e-15)
(70.9535 -4.95909 -2.52609e-22)
(69.5471 -4.97213 4.33092e-15)
(67.1332 -4.91272 -4.32829e-15)
(68.6649 -5.13132 4.41326e-15)
(-0.420929 -0.21132 -7.52018e-15)
(210.373 310.619 0)
(299.311 230.654 -1.86125e-16)
(328.482 133.788 -5.68658e-17)
(293.406 99.0355 1.55844e-16)
(279.61 78.6006 0)
(264.222 64.1382 4.40106e-22)
(251.188 53.7049 2.72666e-16)
(240.593 45.9815 6.05117e-22)
(231.649 39.9947 1.90208e-16)
(224.013 35.173 2.18459e-16)
(217.557 31.2621 -2.51652e-16)
(211.287 27.8669 -5.47105e-16)
(206.461 25.0866 5.1825e-23)
(201.132 22.5436 -2.42886e-21)
(198.143 20.5162 0)
(194.872 18.6699 0)
(192.848 17.0691 -3.87742e-16)
(191.084 15.6363 0)
(189.163 14.278 4.01301e-16)
(188.19 13.0906 0)
(186.298 11.9154 8.33043e-16)
(185.144 10.8492 -4.39709e-16)
(183.678 9.83757 -4.33521e-16)
(182.017 8.8624 0)
(180.836 7.96665 -1.98031e-21)
(178.852 7.07924 -4.33911e-16)
(177.569 6.26309 0)
(175.962 5.47955 0)
(174.271 4.72786 -6.46133e-22)
(172.534 4.0122 0)
(170.907 3.33499 0)
(169.448 2.68728 0)
(167.714 2.07071 2.08311e-16)
(165.852 1.47429 0)
(164.256 0.916861 -1.00927e-16)
(162.396 0.376733 1.53113e-21)
(160.751 -0.129565 -1.47896e-21)
(159.039 -0.618934 -4.80617e-17)
(157.17 -1.07605 9.25143e-17)
(155.253 -1.51746 -2.04698e-22)
(153.581 -1.92902 -1.3406e-21)
(151.694 -2.32529 6.8044e-16)
(153.057 -2.71006 0)
(152.501 -3.02549 4.6326e-16)
(151.785 -3.31061 -4.66995e-16)
(150.622 -3.57806 1.79033e-21)
(149.631 -3.82977 4.72052e-16)
(148.68 -4.06747 -4.76096e-16)
(147.725 -4.29644 3.04222e-22)
(146.796 -4.50616 4.80834e-16)
(145.877 -4.71466 0)
(144.972 -4.9013 -4.85002e-16)
(144.088 -5.09036 1.86026e-21)
(143.206 -5.25932 6.64768e-24)
(142.342 -5.43118 -1.86298e-21)
(141.695 -5.59336 9.42625e-22)
(140.845 -5.74878 -1.87794e-21)
(139.865 -5.88456 9.41715e-22)
(139.207 -6.0329 9.86268e-16)
(138.271 -6.16225 9.48916e-22)
(137.443 -6.29329 -9.856e-16)
(136.727 -6.44059 9.95935e-16)
(136.041 -6.60039 -9.44699e-22)
(135.071 -6.73553 9.98148e-16)
(134.335 -6.88693 -9.96964e-16)
(133.279 -7.0108 -9.50599e-22)
(132.538 -7.15633 0)
(131.57 -7.28 9.98195e-16)
(130.493 -7.40048 -1.75357e-24)
(129.451 -7.5196 2.31057e-22)
(128.521 -7.64253 1.0161e-15)
(127.276 -7.75 0)
(126.031 -7.85256 -2.03231e-15)
(124.898 -7.96192 -2.13704e-24)
(123.529 -8.05701 -2.10009e-15)
(121.872 -8.13313 -2.1119e-15)
(120.304 -8.21256 2.1206e-15)
(118.338 -8.26488 -2.16301e-15)
(116.478 -8.3212 -2.21195e-15)
(112.896 -8.25471 0)
(114.977 -8.57036 -2.25266e-15)
(6.08682 -0.679242 1.20438e-14)
(231.42 340.065 -4.60285e-18)
(328.632 253.45 0)
(353.982 144.3 4.33719e-17)
(314.832 106.381 1.18124e-16)
(300.987 84.6594 0)
(285.662 69.3824 0)
(273.656 58.5401 -9.91376e-17)
(264.222 50.5236 0)
(256.399 44.2905 -1.33233e-16)
(249.872 39.2528 -1.16624e-21)
(244.607 35.1667 1.70231e-16)
(239.15 31.5573 7.05573e-21)
(235.44 28.6221 2.07724e-16)
(230.293 25.8247 2.12276e-16)
(227.944 23.6129 0)
(224.524 21.5205 2.32653e-16)
(222.585 19.7095 0)
(220.797 18.0753 2.43911e-16)
(218.766 16.5191 2.42334e-16)
(217.81 15.1571 -2.50559e-16)
(215.76 13.8052 -2.44302e-16)
(214.685 12.5853 2.53387e-16)
(212.959 11.4105 2.47855e-16)
(211.326 10.2936 2.49796e-16)
(209.875 9.24981 -1.17256e-21)
(207.913 8.23304 2.45847e-16)
(206.519 7.28768 0)
(204.605 6.37468 -1.21079e-16)
(202.961 5.50905 -3.79477e-22)
(201.091 4.67911 0)
(199.323 3.89223 1.84446e-21)
(197.564 3.13576 1.18604e-16)
(195.682 2.41825 1.16989e-16)
(193.822 1.72517 5.86508e-17)
(191.896 1.07328 0)
(190.001 0.442833 1.75304e-21)
(187.994 -0.149468 -6.95265e-18)
(186.066 -0.722261 -2.7627e-17)
(183.909 -1.25739 -5.38487e-17)
(181.832 -1.77546 -1.07102e-16)
(179.695 -2.25527 -3.16688e-21)
(177.438 -2.71914 2.87756e-21)
(179.725 -3.18179 8.99467e-24)
(179.107 -3.55211 -2.61559e-16)
(178.116 -3.88376 2.61438e-16)
(176.982 -4.2032 -2.65926e-16)
(175.86 -4.49995 -2.67261e-16)
(174.78 -4.78039 0)
(173.689 -5.05049 2.71325e-16)
(172.62 -5.29784 2.73129e-16)
(171.56 -5.54371 1.05018e-21)
(170.512 -5.76376 -9.02112e-22)
(169.482 -5.98655 2.77689e-16)
(168.457 -6.18571 -1.06699e-21)
(167.442 -6.38791 -5.60213e-16)
(166.513 -6.57207 -1.07138e-21)
(165.507 -6.75461 5.60949e-16)
(164.507 -6.92046 0)
(163.561 -7.08751 0)
(162.603 -7.24589 5.73084e-16)
(161.615 -7.39926 0)
(160.743 -7.57102 1.10133e-21)
(159.773 -7.75101 -1.63215e-21)
(158.758 -7.91593 5.51765e-22)
(157.743 -8.08616 0)
(156.643 -8.23901 5.82372e-16)
(155.614 -8.40143 -5.81177e-16)
(154.464 -8.54597 -1.16119e-15)
(153.359 -8.69646 -5.94818e-16)
(152.081 -8.83321 -4.35676e-22)
(150.898 -8.97232 -5.92459e-16)
(149.587 -9.10765 0)
(148.118 -9.22763 -2.85544e-22)
(146.711 -9.35136 1.20824e-15)
(145.154 -9.46649 -1.22566e-15)
(143.375 -9.56689 1.2408e-15)
(141.478 -9.65662 1.23847e-15)
(139.281 -9.72622 1.26133e-15)
(137.205 -9.80027 3.88063e-22)
(133.322 -9.74743 0)
(135.49 -10.0715 0)
(19.2973 -1.68485 -1.30972e-14)
(247.505 363.988 1.06877e-17)
(355.368 274.359 0)
(379.109 154.715 1.32549e-20)
(335.848 113.559 -1.09691e-16)
(321.172 90.3869 0)
(305.733 74.2938 5.73706e-22)
(294.046 62.9284 -6.17893e-22)
(284.94 54.5056 0)
(277.426 47.9386 -1.6384e-21)
(271.205 42.6168 1.73991e-21)
(266.22 38.2846 1.28193e-16)
(261.147 34.4687 1.37453e-16)
(257.559 31.3188 -1.52231e-16)
(252.725 28.3466 -3.14758e-16)
(249.933 25.8961 -2.58917e-21)
(246.331 23.6152 -1.70476e-16)
(243.892 21.5997 0)
(241.704 19.79 -1.76615e-16)
(239.387 18.0787 -1.75382e-16)
(237.923 16.559 1.80256e-16)
(235.726 15.0849 -1.76208e-16)
(234.281 13.7358 -3.6277e-16)
(232.357 12.4518 -1.09605e-21)
(230.569 11.2327 -3.58075e-16)
(228.864 10.0885 -1.79083e-16)
(226.884 8.98591 0)
(225.284 7.95139 0)
(223.276 6.95793 1.74686e-16)
(221.556 6.01526 -8.86216e-17)
(219.639 5.11217 8.7305e-17)
(217.792 4.25427 0)
(215.911 3.42833 -8.59475e-17)
(213.988 2.6458 -8.49339e-17)
(212.136 1.88951 -4.25857e-17)
(210.127 1.17653 0)
(208.24 0.486646 2.55868e-21)
(206.159 -0.162632 -2.47429e-21)
(204.182 -0.791312 2.03184e-17)
(202.031 -1.38 -3.98553e-17)
(199.953 -1.9511 0)
(197.739 -2.48042 0)
(195.429 -2.99495 -3.06055e-16)
(197.079 -3.48959 0)
(196.42 -3.89491 1.90683e-16)
(195.303 -4.25781 0)
(194.167 -4.61058 -1.32647e-21)
(192.982 -4.93731 1.48714e-21)
(191.832 -5.24604 -1.97317e-16)
(190.675 -5.54367 1.98626e-16)
(189.538 -5.81633 -2.00129e-16)
(188.411 -6.0875 0)
(187.296 -6.33038 2.02829e-16)
(186.199 -6.57631 -2.04078e-16)
(185.109 -6.79647 0)
(184.028 -7.01997 1.88294e-22)
(182.968 -7.2208 1.58133e-21)
(181.898 -7.42287 -8.2918e-16)
(180.879 -7.60852 8.02943e-22)
(179.817 -7.79127 -7.96097e-22)
(178.833 -7.96845 -4.24413e-16)
(177.79 -8.13913 8.0847e-22)
(176.831 -8.32805 -8.14924e-22)
(175.736 -8.5247 0)
(174.689 -8.70951 4.31165e-16)
(173.545 -8.89546 -2.7878e-24)
(172.422 -9.0682 -4.3411e-16)
(171.258 -9.24523 4.34482e-16)
(170.021 -9.4059 4.3464e-16)
(168.86 -9.57462 4.44286e-16)
(167.479 -9.72665 8.76967e-16)
(166.152 -9.87846 4.44227e-16)
(164.774 -10.0313 -4.2886e-22)
(163.193 -10.1657 8.95794e-16)
(161.605 -10.2997 -9.06052e-16)
(159.922 -10.4284 1.83883e-15)
(158.041 -10.5442 -4.42213e-22)
(155.951 -10.643 -9.29042e-16)
(153.571 -10.7227 -9.45004e-16)
(151.32 -10.8064 9.63467e-16)
(147.182 -10.7602 9.76727e-16)
(149.48 -11.0751 9.85235e-16)
(37.4615 -3.18111 1.3587e-14)
(259.553 382.225 -5.77858e-18)
(377.653 291.932 -1.03475e-16)
(401.97 164.275 -3.44137e-17)
(354.96 120.121 9.22267e-17)
(338.407 95.3017 5.20478e-17)
(322.625 78.4444 5.82984e-17)
(310.482 66.479 6.58279e-17)
(301.021 57.6069 -1.08388e-21)
(293.293 50.7003 8.02168e-17)
(286.969 45.1096 1.3139e-21)
(281.903 40.5532 -9.63076e-17)
(277.051 36.5789 3.18859e-21)
(273.397 33.2545 -3.44786e-21)
(268.994 30.18 1.19121e-16)
(265.914 27.5593 4.02221e-21)
(262.344 25.1571 -8.02523e-21)
(259.623 22.9985 8.29902e-21)
(257.231 21.0664 -4.18652e-21)
(254.792 19.2464 0)
(253.053 17.6159 0)
(250.819 16.0544 2.80299e-16)
(249.15 14.611 1.44565e-16)
(247.174 13.249 -1.43024e-16)
(245.288 11.9528 1.43691e-16)
(243.49 10.7361 -1.44713e-16)
(241.488 9.56702 2.18312e-21)
(239.779 8.46555 -2.21348e-21)
(237.773 7.41219 -2.93939e-22)
(235.984 6.40933 -2.20568e-21)
(234.054 5.44994 -1.4212e-16)
(232.172 4.53731 0)
(230.267 3.65836 7.03967e-17)
(228.332 2.82516 1.39355e-23)
(226.455 2.019 3.48422e-17)
(224.446 1.25859 3.42295e-17)
(222.536 0.521909 8.56748e-18)
(220.462 -0.172116 4.19841e-18)
(218.466 -0.844893 0)
(216.332 -1.47592 3.28815e-17)
(214.241 -2.08878 -2.00175e-21)
(212.035 -2.658 1.95253e-21)
(209.718 -3.21347 2.53541e-16)
(210.784 -3.73233 0)
(210.093 -4.16513 0)
(208.938 -4.55396 -1.58318e-16)
(207.76 -4.93223 1.60611e-16)
(206.533 -5.28291 0)
(205.337 -5.61428 1.63397e-16)
(204.137 -5.93397 1.13239e-21)
(202.955 -6.22697 -2.5315e-21)
(201.783 -6.51848 -4.797e-24)
(200.624 -6.77978 -1.68322e-16)
(199.481 -7.04439 -1.29045e-21)
(198.347 -7.28148 0)
(197.222 -7.52224 3.42911e-16)
(196.109 -7.73842 -3.45078e-16)
(194.997 -7.95637 6.91767e-16)
(193.929 -8.15646 3.49817e-16)
(192.823 -8.35381 -3.49132e-16)
(191.787 -8.54466 1.35108e-21)
(190.704 -8.72938 4.37737e-24)
(189.688 -8.93256 -3.56886e-16)
(188.543 -9.14491 -1.35274e-21)
(187.437 -9.34404 -3.5989e-16)
(186.237 -9.54494 6.85927e-22)
(185.056 -9.73161 3.62551e-16)
(183.827 -9.92266 0)
(182.527 -10.0966 0)
(181.289 -10.2781 0)
(179.841 -10.4433 -3.6681e-16)
(178.43 -10.6072 -3.72552e-16)
(176.967 -10.7723 0)
(175.304 -10.9187 -7.49656e-16)
(173.61 -11.0633 0)
(171.821 -11.2028 -7.713e-16)
(169.829 -11.3289 1.7834e-24)
(167.617 -11.4373 -7.43241e-22)
(165.088 -11.5248 7.92291e-16)
(162.692 -11.6158 8.07424e-16)
(158.312 -11.5731 -8.15485e-16)
(160.752 -11.8686 9.57462e-22)
(57.4278 -4.83793 0)
(268.547 395.871 1.0589e-17)
(395.5 306.182 1.75076e-16)
(420.4 172.097 0)
(370.505 125.517 -1.48483e-16)
(352.016 99.217 -8.32784e-17)
(335.875 81.7247 -9.32117e-17)
(323.257 69.2574 -1.05162e-16)
(313.467 60.0218 3.55513e-21)
(305.569 52.8486 -1.28596e-16)
(299.186 47.0512 7.05086e-17)
(294.103 42.3258 2.40297e-21)
(289.444 38.2299 -2.51266e-21)
(285.816 34.7782 0)
(281.79 31.6273 0)
(278.675 28.8923 3.30994e-21)
(275.249 26.404 -1.09099e-16)
(272.423 24.1404 3.444e-21)
(269.948 22.115 -1.16167e-16)
(267.47 20.2103 1.16498e-16)
(265.579 18.4936 -3.71906e-21)
(263.349 16.8617 -1.19391e-16)
(261.553 15.343 3.78679e-21)
(259.567 13.9178 -3.72485e-21)
(257.631 12.5584 1.23378e-16)
(255.794 11.2825 2.49486e-16)
(253.789 10.058 1.22864e-16)
(252.02 8.90119 -1.25854e-16)
(250.036 7.7978 -6.15963e-17)
(248.204 6.7444 3.79543e-21)
(246.276 5.73758 6.16577e-17)
(244.382 4.77878 0)
(242.476 3.8551 -6.13043e-17)
(240.541 2.97889 3.69221e-21)
(238.646 2.13028 -3.0351e-17)
(236.653 1.32952 -2.98823e-17)
(234.727 0.55292 -7.46983e-18)
(232.674 -0.179298 0)
(230.673 -0.889796 0)
(228.557 -1.55704 2.87771e-17)
(226.461 -2.20569 -1.74093e-21)
(224.277 -2.80923 0)
(221.967 -3.40018 -1.60262e-22)
(222.551 -3.94033 -2.08082e-21)
(221.829 -4.39656 2.10452e-21)
(220.657 -4.80793 1.39227e-16)
(219.442 -5.20806 1.41126e-16)
(218.185 -5.57946 4.33688e-21)
(216.955 -5.93046 8.7401e-24)
(215.722 -6.26929 -1.44804e-16)
(214.506 -6.57996 -8.52874e-24)
(213.301 -6.88914 4.49192e-21)
(212.107 -7.16648 1.48266e-16)
(210.931 -7.44734 1.4931e-16)
(209.763 -7.69919 0)
(208.603 -7.95499 -3.02363e-16)
(207.457 -8.18489 3.04747e-16)
(206.311 -8.41671 -6.1111e-16)
(205.199 -8.62918 -1.54579e-22)
(204.065 -8.83957 3.0861e-16)
(202.982 -9.04216 0)
(201.868 -9.23913 0)
(200.807 -9.45488 3.1535e-16)
(199.63 -9.68134 2.39822e-21)
(198.47 -9.89269 -1.21163e-21)
(197.232 -10.107 0)
(195.996 -10.3055 -8.90834e-23)
(194.718 -10.5091 0)
(193.366 -10.6947 3.22659e-16)
(192.058 -10.8871 3.28606e-16)
(190.559 -11.0641 3.24681e-16)
(189.08 -11.2387 3.30114e-16)
(187.542 -11.4142 0)
(185.811 -11.5713 -6.34342e-22)
(184.033 -11.7256 6.73738e-16)
(182.153 -11.8743 0)
(180.062 -12.0092 0)
(177.752 -12.1262 0)
(175.094 -12.2206 0)
(172.573 -12.3177 -7.15146e-16)
(167.981 -12.2787 7.20748e-16)
(170.538 -12.546 -1.46798e-15)
(76.2103 -6.41552 2.44726e-14)
(275.083 405.937 -9.27493e-18)
(410.129 318.067 -1.53657e-16)
(435.427 178.616 -3.68868e-22)
(383.316 130.031 6.20447e-17)
(363.229 102.482 7.97313e-21)
(346.778 84.451 3.93514e-17)
(333.829 71.5765 8.92444e-17)
(323.819 62.0454 -4.9732e-17)
(315.818 54.6541 5.49497e-17)
(309.419 48.6869 -2.92014e-21)
(304.358 43.8235 6.67481e-17)
(299.865 39.6244 4.42576e-21)
(296.304 36.0703 -4.82525e-21)
(292.583 32.8527 5.13757e-21)
(289.535 30.0308 -1.1364e-20)
(286.29 27.4745 1.40868e-20)
(283.454 25.1278 8.75972e-23)
(280.96 23.0261 1.02111e-16)
(278.487 21.0506 -1.02759e-16)
(276.513 19.262 6.51198e-21)
(274.309 17.5699 -1.05965e-16)
(272.443 15.9878 6.67225e-21)
(270.464 14.5077 1.09416e-16)
(268.512 13.0939 -9.19445e-22)
(266.657 11.7666 -1.45147e-20)
(264.665 10.4937 -2.20224e-16)
(262.864 9.28852 1.12981e-16)
(260.905 8.1409 3.3924e-21)
(259.054 7.04313 -3.41507e-21)
(257.137 5.99431 0)
(255.241 4.99466 -3.40051e-21)
(253.341 4.03123 5.533e-17)
(251.413 3.11677 -5.48193e-17)
(249.512 2.23041 2.74154e-17)
(247.535 1.39368 0)
(245.603 0.581482 0)
(243.57 -0.184833 0)
(241.57 -0.92903 -3.24696e-21)
(239.472 -1.62865 -2.60655e-17)
(237.379 -2.30935 3.15424e-21)
(235.218 -2.94357 -3.12023e-21)
(232.921 -3.56651 -1.82874e-22)
(233.109 -4.12652 7.53569e-21)
(232.354 -4.60362 1.25592e-16)
(231.171 -5.03521 1.26636e-16)
(229.928 -5.45508 -1.28361e-16)
(228.647 -5.84517 -3.93786e-21)
(227.39 -6.2139 -1.308e-16)
(226.131 -6.57002 4.01535e-21)
(224.889 -6.89669 0)
(223.656 -7.22186 0)
(222.435 -7.51371 0)
(221.23 -7.8093 -2.72183e-16)
(220.034 -8.07452 2.74253e-16)
(218.846 -8.34395 5.51468e-16)
(217.672 -8.58626 0)
(216.498 -8.83067 -1.96848e-21)
(215.351 -9.05446 -2.81739e-16)
(214.191 -9.27661 2.81785e-16)
(213.07 -9.48997 -2.85074e-16)
(211.929 -9.69804 -2.84541e-16)
(210.831 -9.92525 2.87997e-16)
(209.625 -10.1644 0)
(208.421 -10.387 0)
(207.148 -10.6135 0)
(205.865 -10.8226 -2.93011e-16)
(204.544 -11.0376 -1.12224e-21)
(203.147 -11.2338 -2.95007e-16)
(201.78 -11.4363 -3.0036e-16)
(200.236 -11.624 -2.9682e-16)
(198.697 -11.8082 -3.01878e-16)
(197.093 -11.9932 0)
(195.303 -12.1601 0)
(193.45 -12.3232 -6.16158e-16)
(191.49 -12.4802 -1.19233e-21)
(189.311 -12.6232 5.98908e-22)
(186.914 -12.748 0)
(184.143 -12.8488 6.41557e-16)
(181.51 -12.951 -6.23238e-22)
(176.731 -12.9169 -6.57733e-16)
(179.378 -13.1475 6.72126e-16)
(92.5236 -7.82419 -2.13302e-14)
(279.603 413.117 1.4436e-17)
(422.404 328.274 6.9454e-17)
(448.36 184.387 2.10714e-22)
(394.522 134.05 -5.45034e-17)
(373.084 105.394 3.12283e-17)
(356.344 86.8716 -3.50134e-17)
(343.146 73.6414 -7.308e-21)
(332.969 63.8499 4.45066e-17)
(324.893 56.2648 4.92026e-17)
(318.487 50.1458 -1.08204e-16)
(313.454 45.1597 -5.98143e-17)
(309.092 40.8657 0)
(305.606 37.2217 4.41501e-21)
(302.127 33.9411 -4.49888e-21)
(299.179 31.0463 8.34705e-17)
(296.12 28.4316 8.52227e-17)
(293.328 26.0152 8.97751e-17)
(290.853 23.8476 9.24395e-17)
(288.411 21.8102 0)
(286.394 19.9589 9.77041e-17)
(284.226 18.213 1.46608e-21)
(282.324 16.5749 0)
(280.362 15.0454 -1.00161e-16)
(278.413 13.583 -1.01062e-16)
(276.554 12.2093 -1.02575e-16)
(274.585 10.8925 1.01224e-16)
(272.769 9.64376 6.37093e-21)
(270.836 8.45574 -6.20267e-21)
(268.98 7.31771 0)
(267.077 6.23054 5.12361e-17)
(265.186 5.19356 6.27975e-21)
(263.295 4.19373 -5.11271e-17)
(261.377 3.24423 1.01358e-16)
(259.478 2.3233 -5.07137e-17)
(257.516 1.45354 -2.49936e-17)
(255.584 0.608671 -6.09022e-21)
(253.57 -0.188965 0)
(251.575 -0.96413 0)
(249.495 -1.69351 2.41564e-17)
(247.409 -2.4037 0)
(245.268 -3.0661 -4.72784e-17)
(242.987 -3.71866 -1.7446e-22)
(242.845 -4.29771 0)
(242.054 -4.7939 -1.16684e-16)
(240.861 -5.24407 -2.3547e-16)
(239.598 -5.68223 -3.65038e-21)
(238.298 -6.08963 -1.20274e-16)
(237.019 -6.47479 2.43399e-16)
(235.737 -6.84693 -1.22702e-16)
(234.473 -7.18843 1.23818e-16)
(233.216 -7.52843 -3.80311e-21)
(231.972 -7.83376 -3.84694e-21)
(230.743 -8.14302 1.26776e-16)
(229.522 -8.42065 -2.55525e-16)
(228.309 -8.70274 -2.56942e-16)
(227.11 -8.95654 0)
(225.911 -9.21263 2.59992e-16)
(224.734 -9.44701 -4.01473e-21)
(223.551 -9.68004 -2.62779e-16)
(222.398 -9.90349 2.65859e-16)
(221.232 -10.1219 2.65412e-16)
(220.102 -10.3597 -5.37323e-16)
(218.871 -10.6107 -4.08968e-21)
(217.627 -10.8437 2.0655e-21)
(216.323 -11.0814 -2.0721e-21)
(214.999 -11.3006 2.73441e-16)
(213.638 -11.526 -2.75052e-16)
(212.201 -11.7322 0)
(210.78 -11.944 0)
(209.198 -12.1417 0)
(207.602 -12.3348 -2.81791e-16)
(205.939 -12.5288 -1.0883e-21)
(204.096 -12.7046 1.07821e-21)
(202.175 -12.8759 -5.75118e-16)
(200.141 -13.0408 0)
(197.885 -13.1913 5.61543e-22)
(195.407 -13.3232 5.89163e-16)
(192.533 -13.43 4.41449e-22)
(189.799 -13.5367 0)
(184.854 -13.5087 -2.93391e-22)
(187.561 -13.6934 2.98204e-22)
(106.613 -9.08672 -8.97167e-15)
(282.558 418.079 -1.26488e-17)
(432.813 337.199 6.44441e-17)
(459.975 189.745 -1.89867e-17)
(404.815 137.818 9.9895e-17)
(382.171 108.125 -1.8507e-21)
(365.138 89.128 3.23555e-17)
(351.729 75.5661 -3.68723e-17)
(341.405 65.5308 -2.57084e-21)
(333.256 57.7626 -4.54995e-17)
(326.835 51.4997 4.99739e-17)
(321.821 46.3973 5.51775e-17)
(317.556 42.0116 0)
(314.137 38.2838 -8.12194e-21)
(310.849 34.9409 -6.83001e-17)
(308.006 31.9804 -7.66433e-17)
(305.122 29.3123 9.47942e-21)
(302.403 26.8346 -8.2736e-17)
(299.969 24.6082 -8.54198e-17)
(297.572 22.5147 -2.10769e-20)
(295.539 20.6068 9.14092e-21)
(293.413 18.8113 1.60023e-21)
(291.498 17.1223 9.35104e-17)
(289.559 15.5472 0)
(287.623 14.04 9.43265e-17)
(285.77 12.6233 0)
(283.827 11.2659 1.16036e-20)
(282.008 9.97676 -1.18377e-20)
(280.101 8.75104 0)
(278.249 7.57559 0)
(276.362 6.45261 -9.6145e-17)
(274.481 5.38079 -5.85535e-21)
(272.6 4.34692 0)
(270.694 3.36466 -4.76228e-17)
(268.801 2.41138 2.38288e-17)
(266.854 1.51068 5.81216e-21)
(264.927 0.635222 0)
(262.929 -0.191757 -5.67123e-21)
(260.94 -0.995943 1.15728e-17)
(258.878 -1.7532 -2.2755e-17)
(256.802 -2.49105 5.50856e-21)
(254.68 -3.17985 4.45485e-17)
(252.417 -3.86032 -8.8108e-17)
(251.994 -4.45791 5.39955e-17)
(251.16 -4.97191 6.73408e-21)
(249.96 -5.43948 2.22278e-16)
(248.681 -5.89487 0)
(247.364 -6.31855 1.13609e-16)
(246.066 -6.71922 -7.19231e-21)
(244.766 -7.10645 1.15949e-16)
(243.481 -7.46195 -1.17015e-16)
(242.204 -7.81594 0)
(240.94 -8.134 0)
(239.689 -8.45616 3.66494e-21)
(238.446 -8.74552 -3.68066e-21)
(237.211 -9.03955 3.71503e-21)
(235.989 -9.30419 1.29654e-23)
(234.767 -9.57132 -2.45999e-16)
(233.564 -9.81575 -2.48551e-16)
(232.359 -10.059 -2.48689e-16)
(231.178 -10.292 -2.5163e-16)
(229.989 -10.5201 0)
(228.83 -10.7681 2.54334e-16)
(227.574 -11.0301 0)
(226.296 -11.2731 0)
(224.961 -11.5213 0)
(223.601 -11.75 -2.58914e-16)
(222.203 -11.9853 2.60457e-16)
(220.728 -12.2007 -3.97889e-21)
(219.26 -12.4215 2.65457e-16)
(217.641 -12.6286 -2.62379e-16)
(215.993 -12.8302 2.66835e-16)
(214.277 -13.0326 8.16597e-24)
(212.384 -13.2169 -2.04183e-21)
(210.4 -13.3959 5.4449e-16)
(208.298 -13.5681 0)
(205.97 -13.7257 -5.55909e-16)
(203.419 -13.8644 -5.57531e-16)
(200.45 -13.9769 -1.12917e-22)
(197.623 -14.0876 0)
(192.526 -14.067 0)
(195.263 -14.195 1.41942e-22)
(119.218 -10.2624 7.46232e-15)
(284.352 421.407 0)
(441.621 345.071 3.28825e-19)
(470.687 194.885 1.78719e-17)
(414.598 141.485 -4.70831e-17)
(390.832 110.78 -1.57886e-21)
(373.489 91.3054 -3.06677e-17)
(359.883 77.4199 -4.11988e-21)
(349.416 67.1461 0)
(341.185 59.1976 0)
(334.732 52.7924 -4.71488e-17)
(329.721 47.5756 -5.19851e-17)
(325.521 43.0979 6.67307e-21)
(322.152 39.2884 -6.17631e-17)
(319.01 35.8824 1.27692e-16)
(316.266 32.8596 0)
(313.538 30.1404 8.99641e-21)
(310.907 27.6069 1.36475e-22)
(308.527 25.326 -1.95472e-20)
(306.184 23.1804 9.83611e-21)
(304.153 21.2202 -8.53121e-17)
(302.071 19.3781 8.46107e-17)
(300.157 17.6416 -8.82157e-17)
(298.244 16.0236 0)
(296.328 14.4743 -8.91652e-17)
(294.486 13.0171 -1.10233e-20)
(292.573 11.6213 -1.09894e-20)
(290.757 10.294 1.12204e-20)
(288.877 9.03255 4.53263e-17)
(287.033 7.82172 -4.60893e-17)
(285.164 6.66476 2.47552e-22)
(283.296 5.55991 1.11265e-20)
(281.427 4.49372 1.11808e-20)
(279.535 3.48032 -1.10203e-20)
(277.649 2.49633 0)
(275.716 1.56623 2.23766e-17)
(273.796 0.661698 5.61406e-18)
(271.814 -0.193177 6.51433e-23)
(269.833 -1.02495 -1.10283e-17)
(267.787 -1.80871 0)
(265.722 -2.57286 0)
(263.617 -3.28673 0)
(261.373 -3.99384 0)
(260.708 -4.6097 -6.42306e-21)
(259.828 -5.14057 1.05016e-16)
(258.62 -5.62462 -2.16816e-22)
(257.328 -6.09643 -6.58175e-21)
(255.996 -6.53566 6.60773e-21)
(254.681 -6.95112 -1.74706e-22)
(253.363 -7.35278 -1.10755e-16)
(252.061 -7.72165 -1.11805e-16)
(250.766 -8.089 6.8705e-21)
(249.482 -8.41923 0)
(248.212 -8.75371 -7.00608e-21)
(246.949 -9.05428 -2.30996e-16)
(245.694 -9.35973 2.49414e-23)
(244.45 -9.63472 -7.14249e-21)
(243.207 -9.91239 4.70472e-16)
(241.98 -10.1664 -7.07685e-21)
(240.754 -10.4195 2.37871e-16)
(239.547 -10.6617 2.40696e-16)
(238.338 -10.8991 3.6733e-21)
(237.151 -11.1567 1.19514e-23)
(235.872 -11.4291 -3.69857e-21)
(234.563 -11.6817 0)
(233.2 -11.9399 2.45642e-16)
(231.805 -12.1778 2.47738e-16)
(230.372 -12.4225 0)
(228.863 -12.6468 3.81406e-21)
(227.351 -12.8761 -2.5398e-16)
(225.697 -13.0922 5.02104e-16)
(224 -13.3018 -2.5529e-16)
(222.234 -13.5123 -7.81204e-24)
(220.295 -13.7047 3.91475e-21)
(218.253 -13.8911 8.59302e-24)
(216.086 -14.0703 5.28099e-16)
(213.692 -14.2347 1.06303e-15)
(211.071 -14.3797 0)
(208.015 -14.4978 -5.40901e-16)
(205.101 -14.6118 0)
(199.868 -14.6005 -5.28619e-22)
(202.598 -14.6594 8.12598e-22)
(130.98 -11.4036 6.26292e-15)
(285.277 423.532 -7.33196e-22)
(448.981 352.031 -5.6386e-17)
(480.719 199.927 1.73508e-17)
(424.114 145.148 0)
(399.286 113.429 -3.39601e-21)
(381.609 93.4614 2.96426e-17)
(367.804 79.2492 3.375e-17)
(357.187 68.735 0)
(348.86 60.6038 -1.0285e-20)
(342.356 54.0541 4.52128e-17)
(337.326 48.7211 0)
(333.161 44.1491 -5.2798e-17)
(329.823 40.2576 5.87253e-17)
(326.787 36.7863 -6.04993e-17)
(324.126 33.7022 0)
(321.533 30.9325 0)
(318.994 28.3461 -7.32973e-17)
(316.675 26.014 7.59052e-17)
(314.391 23.8188 7.69606e-17)
(312.373 21.8092 8.10637e-17)
(310.336 19.9225 0)
(308.433 18.1411 8.3989e-17)
(306.548 16.4818 -1.96045e-22)
(304.656 14.8923 -8.50408e-17)
(302.831 13.3965 8.65921e-17)
(300.947 11.9638 8.57022e-17)
(299.14 10.6002 8.82322e-17)
(297.285 9.30433 -4.34032e-17)
(295.454 8.05962 4.41488e-17)
(293.604 6.87002 -2.1065e-20)
(291.749 5.73345 4.3853e-17)
(289.893 4.63621 -1.07197e-20)
(288.015 3.59291 -6.95651e-23)
(286.138 2.57941 -2.17498e-17)
(284.22 1.62104 0)
(282.306 0.688571 -5.36896e-18)
(280.34 -0.193115 -2.6683e-18)
(278.367 -1.0514 1.05838e-17)
(276.337 -1.86063 1.01389e-20)
(274.282 -2.65006 0)
(272.194 -3.388 4.08144e-17)
(269.969 -4.12078 9.83202e-21)
(269.094 -4.75479 -4.94625e-17)
(268.162 -5.30184 -1.00981e-16)
(266.946 -5.80167 -1.02043e-16)
(265.642 -6.28925 0)
(264.297 -6.74345 -1.27731e-20)
(262.967 -7.17317 -2.11426e-16)
(261.634 -7.58873 -1.28656e-20)
(260.315 -7.9705 1.07677e-16)
(259.002 -8.35074 0)
(257.701 -8.6927 0)
(256.412 -9.03907 1.10382e-16)
(255.131 -9.35046 2.22572e-16)
(253.857 -9.66692 -2.23901e-16)
(252.592 -9.9519 6.88289e-21)
(251.33 -10.2397 -4.53425e-16)
(250.081 -10.5031 7.18198e-21)
(248.835 -10.7655 -2.29288e-16)
(247.604 -11.0167 -7.09206e-21)
(246.374 -11.263 2.3171e-16)
(245.162 -11.5299 7.14755e-21)
(243.861 -11.8124 7.15588e-21)
(242.523 -12.0741 2.36855e-16)
(241.133 -12.342 -2.36853e-16)
(239.706 -12.5887 -7.44642e-23)
(238.24 -12.8425 -2.40283e-16)
(236.698 -13.0754 0)
(235.144 -13.3129 0)
(233.457 -13.5375 -2.42043e-16)
(231.716 -13.755 2.46095e-16)
(229.902 -13.9732 -3.78567e-21)
(227.919 -14.1733 0)
(225.822 -14.3669 0)
(223.595 -14.5528 -5.08785e-16)
(221.139 -14.7238 -5.11968e-16)
(218.452 -14.8748 1.95294e-21)
(215.315 -14.9984 9.96011e-22)
(212.319 -15.1151 5.29877e-16)
(206.963 -15.1149 0)
(209.643 -15.0911 5.4901e-16)
(142.345 -12.5478 -5.36517e-15)
(285.55 424.769 2.34859e-17)
(455.008 358.198 -5.37412e-17)
(490.185 204.951 -1.68632e-17)
(433.522 148.88 -1.78042e-21)
(407.68 116.129 0)
(389.641 95.6394 2.90143e-17)
(375.626 81.0891 -3.30222e-17)
(364.849 70.3269 0)
(356.407 62.0067 0)
(349.831 55.307 0)
(344.76 49.8537 -4.80501e-17)
(340.599 45.1834 5.08828e-17)
(337.271 41.2077 -5.6415e-17)
(334.305 37.6679 -1.42758e-20)
(331.708 34.522 1.56615e-20)
(329.226 31.7009 0)
(326.776 29.0632 6.99874e-17)
(324.52 26.6814 -7.25293e-17)
(322.295 24.4384 -1.47155e-16)
(320.299 22.3814 -2.37786e-21)
(318.307 20.4514 -3.76406e-20)
(316.421 18.6268 -8.05373e-17)
(314.564 16.9275 8.06727e-17)
(312.699 15.2992 8.17185e-17)
(310.892 13.766 -8.32488e-17)
(309.038 12.2975 -8.23898e-17)
(307.244 10.8987 -8.49573e-17)
(305.413 9.56947 -4.17541e-17)
(303.597 8.29196 1.51327e-22)
(301.765 7.0707 4.21148e-17)
(299.925 5.90338 -4.22505e-17)
(298.083 4.77604 0)
(296.218 3.70373 -4.1927e-17)
(294.351 2.66162 1.32526e-22)
(292.446 1.67584 -2.07428e-17)
(290.541 0.716286 -5.21748e-18)
(288.588 -0.191395 1.994e-20)
(286.624 -1.07538 -2.00848e-20)
(284.609 -1.90929 1.96075e-20)
(282.566 -2.72322 -4.00726e-17)
(280.492 -3.48445 -3.95344e-17)
(278.288 -4.24216 1.90279e-20)
(277.23 -4.89431 -4.78192e-17)
(276.24 -5.45707 -9.76386e-17)
(275.013 -5.97209 -9.8759e-17)
(273.699 -6.47494 -1.22115e-20)
(272.343 -6.94366 -1.01104e-16)
(270.998 -7.38724 1.02373e-16)
(269.65 -7.81629 1.03282e-16)
(268.316 -8.21059 0)
(266.987 -8.60335 0)
(265.67 -8.95671 0)
(264.363 -9.31464 -1.06952e-16)
(263.065 -9.63653 0)
(261.772 -9.96369 2.16978e-16)
(260.488 -10.2584 0)
(259.207 -10.5561 2.19741e-16)
(257.937 -10.8285 2.15717e-22)
(256.671 -11.1001 1.82635e-22)
(255.418 -11.3599 -2.24939e-16)
(254.168 -11.6148 -2.24646e-16)
(252.933 -11.8907 6.92999e-21)
(251.61 -12.183 -2.26985e-16)
(250.245 -12.4537 -4.59302e-16)
(248.829 -12.7309 -7.02053e-21)
(247.372 -12.9862 -4.63195e-16)
(245.874 -13.2487 2.32969e-16)
(244.301 -13.4899 -2.33232e-16)
(242.708 -13.7355 -2.37366e-16)
(240.989 -13.9683 0)
(239.205 -14.1934 0)
(237.346 -14.4192 0)
(235.321 -14.6267 0)
(233.172 -14.8271 3.71791e-21)
(230.889 -15.0196 -7.52055e-21)
(228.374 -15.1968 3.77386e-21)
(225.625 -15.3535 0)
(222.412 -15.4826 -5.03831e-16)
(219.338 -15.6012 -5.12591e-16)
(213.873 -15.6146 -5.12087e-16)
(216.451 -15.4932 -5.31641e-16)
(153.589 -13.7194 4.69793e-15)
(285.331 425.351 -2.15575e-17)
(459.822 363.695 5.05961e-17)
(499.126 210.016 0)
(442.92 152.739 4.31404e-17)
(416.124 118.925 -2.568e-17)
(397.692 97.876 -2.86955e-17)
(383.451 82.9686 3.25691e-17)
(372.5 71.9462 -3.61131e-17)
(363.925 63.4274 0)
(357.253 56.5697 -4.28758e-17)
(352.116 50.9898 3.1486e-20)
(347.932 46.2155 -2.38024e-20)
(344.59 42.1519 5.46404e-17)
(341.661 38.5396 5.59221e-17)
(339.107 35.3298 6.22746e-17)
(336.711 32.4556 -4.94504e-22)
(334.34 29.7668 3.25736e-20)
(332.144 27.336 3.42362e-20)
(329.977 25.0459 7.0722e-17)
(328.007 22.9427 -1.49306e-16)
(326.057 20.9702 -7.42402e-17)
(324.192 19.1034 -7.76224e-17)
(322.364 17.365 -7.7755e-17)
(320.526 15.6987 -3.83233e-20)
(318.739 14.1289 0)
(316.913 12.6254 0)
(315.134 11.1923 4.02461e-20)