/*--------------------------------*- C++ -*----------------------------------*\
| =========                 |                                                 |
| \\      /  F ield         | OpenFOAM: The Open Source CFD Toolbox           |
|  \\    /   O peration     | Version:  5.x                                   |
|   \\  /    A nd           | Web:      www.OpenFOAM.org                      |
|    \\/     M anipulation  |                                                 |
\*---------------------------------------------------------------------------*/
FoamFile
{
    version     2.0;
    format      ascii;
    class       volVectorField;
    location    "450";
    object      wallShearStress;
}
// * * * * * * * * * * * * * * * * * * * * * * * * * * * * * * * * * * * * * //

dimensions      [0 2 -2 0 0 0 0];

internalField   uniform (0 0 0);

boundaryField
{
    inlet
    {
        type            calculated;
        value           uniform (0 0 0);
    }
    outlet
    {
        type            calculated;
        value           uniform (0 0 0);
    }
    walls
    {
        type            calculated;
        value           nonuniform List<vector> 
164
(
(-626.13 -968.562 4.81482e-35)
(-1109.54 -855.021 -1.96609e-15)
(-1617.94 -657.764 -7.9503e-16)
(-1449.43 -486.08 2.18263e-15)
(-1355.9 -380.266 5.38059e-21)
(-1232.51 -298.367 1.4847e-15)
(-1109.68 -236.561 1.73165e-15)
(-1003.16 -191.113 -1.96006e-15)
(-911.819 -156.886 4.16482e-33)
(-833.527 -130.395 2.35157e-15)
(-765.376 -109.55 -2.56612e-15)
(-706.844 -92.8386 -2.65506e-15)
(-654.32 -79.147 2.23012e-20)
(-613.027 -68.3921 -2.86662e-15)
(-574.989 -59.2401 3.17512e-15)
(-548.865 -52.3218 3.07922e-15)
(-523.39 -46.0853 -3.20033e-15)
(-502.085 -40.8667 3.24152e-15)
(-483.848 -36.3234 3.20181e-15)
(-464.514 -32.1286 -3.3614e-15)
(-450.991 -28.6803 3.23761e-15)
(-435.114 -25.3432 6.47712e-21)
(-423.069 -22.5177 1.81806e-20)
(-411.808 -19.9215 -1.23782e-20)
(-400.29 -17.5145 -6.57511e-15)
(-392.128 -15.4134 3.1531e-15)
(-382.308 -13.3817 -2.70834e-35)
(-373.918 -11.5504 1.55182e-15)
(-366.549 -9.85967 -1.54232e-15)
(-359.647 -8.28375 -5.26621e-36)
(-352.554 -6.80465 -1.12853e-20)
(-345.091 -5.40312 1.10958e-20)
(-339.128 -4.1247 1.00097e-20)
(-334.301 -2.91311 -2.11183e-20)
(-328.269 -1.7776 -6.7529e-16)
(-323.943 -0.701129 -1.5493e-35)
(-318.788 0.304738 7.98979e-17)
(-314.175 1.26632 -6.2678e-16)
(-311.168 2.16984 5.98799e-16)
(-307.849 3.04601 -1.15919e-15)
(-304.268 3.8567 1.50463e-36)
(-301.039 4.64173 4.32043e-15)
(-283.813 5.05333 3.61112e-35)
(-281.202 5.61056 -1.16579e-20)
(-276.844 6.06766 -2.88404e-15)
(-274.618 6.55013 5.47088e-21)
(-271.466 6.97419 -5.43476e-21)
(-268.317 7.36495 -2.86259e-15)
(-265.338 7.74054 5.71725e-15)
(-262.41 8.07731 2.85848e-15)
(-259.623 8.41192 5.45818e-21)
(-256.933 8.70651 -2.85233e-15)
(-254.335 9.00415 2.84794e-15)
(-251.886 9.26866 -5.43267e-21)
(-249.496 9.53769 -1.90197e-23)
(-246.112 9.7325 -1.89564e-23)
(-243.959 9.97241 5.41998e-21)
(-242.392 10.2131 3.00927e-35)
(-239.639 10.3995 5.65025e-15)
(-238.004 10.6196 5.37019e-21)
(-236.31 10.833 -5.55062e-15)
(-233.838 11.028 5.58777e-15)
(-231.084 11.2238 -5.5829e-15)
(-229.422 11.4521 1.11031e-14)
(-226.609 11.6288 -5.55795e-15)
(-225.184 11.8563 5.49618e-15)
(-222.197 12.0092 -1.80556e-35)
(-219.905 12.1776 -2.62094e-21)
(-217.644 12.3529 -9.51394e-24)
(-215.18 12.5105 5.40106e-15)
(-211.806 12.6051 1.00932e-23)
(-209.358 12.7576 -2.60521e-21)
(-206.543 12.8797 -1.07915e-14)
(-202.32 12.9081 1.30948e-21)
(-198.82 12.9775 -1.10793e-14)
(-195.539 13.0597 2.98808e-31)
(-191.054 13.0535 2.20525e-14)
(-186.071 13.0067 6.62451e-22)
(-181.301 12.963 -1.12902e-14)
(-173.854 12.7255 1.12089e-14)
(-177.097 13.213 -1.13824e-14)
(1.06121 0.799963 1.87839e-14)
(531.28 -998.643 0)
(-272.23 175.866 -1.23363e-14)
(-508.949 221.685 0)
(-610.125 205.337 6.63212e-32)
(-627.258 174.474 -1.38474e-31)
(-627.357 149.971 5.81733e-15)
(-632.177 132.485 2.19575e-20)
(-623.851 116.4 -3.67342e-40)
(-606.1 101.787 -3.45658e-20)
(-586.02 89.1964 -5.54337e-15)
(-564.844 78.4094 -2.14753e-20)
(-549.908 69.8156 -5.39009e-15)
(-532.003 62.0029 2.12769e-20)
(-521.371 55.8446 -1.97735e-20)
(-505.314 49.81 -5.44408e-15)
(-494.918 44.9559 5.10814e-15)
(-481.689 40.2579 -1.96286e-20)
(-469.658 36.1264 5.06983e-15)
(-459.409 32.4376 -1.85373e-20)
(-446.348 28.8898 6.05326e-21)
(-438.453 25.9431 4.72445e-15)
(-427.168 23.0172 -3.61112e-35)
(-419.88 20.5305 -4.61315e-15)
(-411.475 18.1413 -4.52643e-15)
(-403.55 15.946 -1.99883e-20)
(-398.332 13.9869 -4.2238e-15)
(-390.537 12.0604 -1.85311e-32)
(-385.513 10.3475 2.01721e-15)
(-380.123 8.71376 -3.96094e-15)
(-375.154 7.1753 -1.37615e-20)
(-368.34 5.70467 -1.87057e-15)
(-363.448 4.33902 -9.0731e-16)
(-360.82 3.07964 -1.31428e-20)
(-355.647 1.84326 4.20509e-16)
(-351.773 0.700923 2.01091e-16)
(-346.778 -0.399093 -2.41888e-20)
(-345.152 -1.43162 1.1395e-20)
(-341.774 -2.42856 7.24259e-16)
(-337.933 -3.35341 -1.39217e-15)
(-335.844 -4.26723 -1.01968e-20)
(-333.96 -5.12454 2.53359e-15)
(-331.474 -5.95091 -2.42977e-15)
(-315.173 -6.36126 -4.1327e-32)
(-313.441 -6.95855 -3.16071e-15)
(-311.073 -7.47931 -3.13324e-15)
(-307.794 -7.95795 -3.13917e-15)
(-305.254 -8.4132 6.22807e-15)
(-302.801 -8.83879 -3.1035e-15)
(-300.471 -9.24998 -3.08199e-15)
(-298.218 -9.62098 3.0644e-15)
(-296.047 -9.99123 -3.46771e-37)
(-293.971 -10.3182 3.02618e-15)
(-293.204 -10.6966 5.69385e-21)
(-291.403 -10.9989 5.93015e-15)
(-289.647 -11.3055 5.87829e-15)
(-287.868 -11.5764 -6.01853e-36)
(-286.274 -11.8563 1.74517e-31)
(-284.547 -12.1032 -5.50277e-21)
(-283.06 -12.3613 1.13815e-14)
(-281.335 -12.5829 5.51588e-21)
(-279.587 -12.8074 -1.12256e-14)
(-277.932 -12.9726 -5.61212e-15)
(-276.825 -13.1482 -1.20371e-35)
(-275.07 -13.2798 -2.63363e-21)
(-274.035 -13.4469 -5.43796e-15)
(-271.427 -13.5269 -5.45556e-15)
(-269.428 -13.6384 -5.47588e-15)
(-269.988 -13.8674 5.30804e-15)
(-268.426 -13.998 5.34069e-15)
(-266.027 -14.0824 2.51418e-21)
(-264.412 -14.2015 -1.31045e-31)
(-263.05 -14.3401 -1.26686e-21)
(-262.971 -14.5501 -5.09675e-15)
(-260.456 -14.6295 2.45659e-21)
(-259.397 -14.7921 5.11059e-15)
(-257.666 -14.9236 -2.41208e-21)
(-255.76 -15.0478 1.18908e-21)
(-253.289 -15.1443 5.95088e-22)
(-250.918 -15.2509 -9.98835e-15)
(-246.429 -15.2352 9.86464e-15)
(-251.716 -15.755 4.41326e-22)
(-25.7818 -2.10695 -1.91014e-14)
)
;
    }
    frontAndBack
    {
        type            empty;
    }
}


// ************************************************************************* //
