/*--------------------------------*- C++ -*----------------------------------*\
| =========                 |                                                 |
| \\      /  F ield         | OpenFOAM: The Open Source CFD Toolbox           |
|  \\    /   O peration     | Version:  5.x                                   |
|   \\  /    A nd           | Web:      www.OpenFOAM.org                      |
|    \\/     M anipulation  |                                                 |
\*---------------------------------------------------------------------------*/
FoamFile
{
    version     2.0;
    format      ascii;
    class       volVectorField;
    location    "450";
    object      wallShearStress;
}
// * * * * * * * * * * * * * * * * * * * * * * * * * * * * * * * * * * * * * //

dimensions      [0 2 -2 0 0 0 0];

internalField   uniform (0 0 0);

boundaryField
{
    inlet
    {
        type            calculated;
        value           uniform (0 0 0);
    }
    outlet
    {
        type            calculated;
        value           uniform (0 0 0);
    }
    walls
    {
        type            calculated;
        value           nonuniform List<vector> 
82
(
(-0.0428537 -0.033228 0)
(-0.0937905 -0.229181 3.21106e-21)
(-0.202937 -0.538008 -4.69254e-19)
(-0.394507 -0.802639 -7.4447e-19)
(-0.630605 -0.988961 -2.25723e-18)
(-0.877845 -1.08421 1.36579e-18)
(-1.10775 -1.09988 1.50237e-18)
(-1.30625 -1.05748 -1.60383e-18)
(-1.45614 -0.966944 -3.98696e-18)
(-1.54037 -0.835301 -1.34752e-19)
(-1.52411 -0.653024 -2.16487e-18)
(-1.44603 -0.46754 1.33128e-19)
(-1.38238 -0.337108 -2.12409e-18)
(-1.36208 -0.261859 -2.2267e-18)
(-1.34631 -0.204718 -1.95079e-18)
(-1.31385 -0.149853 -1.28102e-18)
(-1.26717 -0.10008 1.12727e-18)
(-1.21373 -0.056793 1.19893e-19)
(-1.15699 -0.0195301 -1.19354e-19)
(-1.09828 0.012255 -9.03237e-19)
(-1.03764 0.0388279 -8.63819e-19)
(-0.984425 0.0589939 -8.80993e-19)
(-0.937214 0.0731396 -1.66012e-18)
(-0.891433 0.0842006 -1.0394e-19)
(-0.847041 0.092796 1.39856e-21)
(-0.804071 0.099315 4.93693e-20)
(-0.762425 0.104059 -3.0334e-18)
(-0.721883 0.107284 4.52419e-20)
(-0.682217 0.109187 -2.88504e-18)
(-0.643166 0.109914 2.70137e-18)
(-0.604424 0.109572 4.197e-20)
(-0.565604 0.108217 1.96116e-20)
(-0.526257 0.105857 -1.94747e-20)
(-0.485875 0.102441 -3.00927e-36)
(-0.443594 0.0978342 4.504e-18)
(-0.398716 0.091855 3.00927e-36)
(-0.349995 0.0841148 3.52648e-38)
(-0.297097 0.0743291 -7.30732e-21)
(-0.23431 0.0610498 -1.32134e-21)
(-0.172305 0.0449955 -3.32389e-18)
(-0.0710119 0.027828 -5.44616e-18)
(-0.0697699 0.0452676 2.66938e-21)
(-0.166584 0.193441 1.01223e-20)
(-0.314682 0.348367 8.23747e-19)
(-0.479237 0.433963 6.84166e-19)
(-0.619955 0.444507 8.06514e-19)
(-0.721445 0.412713 9.71421e-19)
(-0.788355 0.369016 2.09957e-18)
(-0.834095 0.331564 1.02155e-18)
(-0.870652 0.305747 -9.80042e-19)
(-0.929343 0.307497 -7.05514e-20)
(-1.01229 0.313188 2.57146e-18)
(-1.05919 0.279166 -1.28977e-18)
(-1.06638 0.226784 1.92015e-23)
(-1.06206 0.180988 -8.85267e-19)
(-1.05533 0.142631 -1.42844e-18)
(-1.04387 0.108015 9.02503e-20)
(-1.02655 0.0763566 -1.50463e-36)
(-1.00482 0.0477933 6.20502e-19)
(-0.979955 0.0223725 4.41343e-20)
(-0.952586 3.67667e-05 3.41036e-19)
(-0.92243 -0.0192432 2.91599e-22)
(-0.895019 -0.0346893 1.88079e-37)
(-0.869606 -0.0459876 7.14432e-19)
(-0.844553 -0.0552078 6.19606e-19)
(-0.82009 -0.0627843 -1.29844e-18)
(-0.796259 -0.0689907 -1.27331e-18)
(-0.773046 -0.0740313 -2.49547e-18)
(-0.750369 -0.0780783 -1.22202e-18)
(-0.728101 -0.081279 -3.71308e-20)
(-0.706109 -0.0837566 1.20671e-18)
(-0.684256 -0.0856117 1.16106e-18)
(-0.662332 -0.0869233 -2.24991e-18)
(-0.640047 -0.0877389 -2.19368e-18)
(-0.617009 -0.0880683 2.13629e-18)
(-0.592638 -0.0878761 -1.59437e-20)
(-0.566296 -0.0870748 1.57967e-20)
(-0.53641 -0.0854216 0)
(-0.501968 -0.0826426 0)
(-0.457063 -0.0776984 -3.38444e-21)
(-0.402773 -0.0686598 1.67451e-18)
(-0.290425 -0.0574452 -1.51937e-21)
)
;
    }
    frontAndBack
    {
        type            empty;
    }
}


// ************************************************************************* //
