/*--------------------------------*- C++ -*----------------------------------*\
| =========                 |                                                 |
| \\      /  F ield         | OpenFOAM: The Open Source CFD Toolbox           |
|  \\    /   O peration     | Version:  5.x                                   |
|   \\  /    A nd           | Web:      www.OpenFOAM.org                      |
|    \\/     M anipulation  |                                                 |
\*---------------------------------------------------------------------------*/
FoamFile
{
    version     2.0;
    format      ascii;
    class       volVectorField;
    location    "450";
    object      wallShearStress;
}
// * * * * * * * * * * * * * * * * * * * * * * * * * * * * * * * * * * * * * //

dimensions      [0 2 -2 0 0 0 0];

internalField   uniform (0 0 0);

boundaryField
{
    inlet
    {
        type            calculated;
        value           uniform (0 0 0);
    }
    outlet
    {
        type            calculated;
        value           uniform (0 0 0);
    }
    walls
    {
        type            calculated;
        value           nonuniform List<vector> 
82
(
(0.116202 -0.818208 -3.76158e-37)
(-0.0277409 -1.20673 7.14292e-21)
(-0.216724 -1.53286 -8.36483e-19)
(-0.496542 -1.57467 -9.43911e-19)
(-0.728982 -1.47932 -2.20234e-18)
(-0.898864 -1.30386 1.1031e-18)
(-1.00378 -1.09525 1.06332e-18)
(-1.05275 -0.8846 -9.97743e-19)
(-1.05776 -0.690386 -2.2607e-18)
(-1.02473 -0.519029 -7.32793e-20)
(-0.931942 -0.354046 -1.00709e-18)
(-0.814142 -0.219897 5.0854e-20)
(-0.72603 -0.140851 -7.72932e-19)
(-0.679124 -0.102648 -7.10657e-19)
(-0.639507 -0.0763899 -5.53377e-19)
(-0.590743 -0.0511352 -3.16186e-19)
(-0.535649 -0.0290695 2.387e-19)
(-0.479865 -0.0113967 1.88483e-20)
(-0.425067 0.00219911 -1.88144e-20)
(-0.371355 0.0121573 -9.5767e-20)
(-0.318586 0.0188365 -6.15895e-20)
(-0.273443 0.0220483 -3.5884e-20)
(-0.235152 0.0230598 -2.01732e-20)
(-0.199149 0.022785 2.61853e-21)
(-0.165411 0.0214825 1.34133e-21)
(-0.13404 0.0193598 -3.68925e-21)
(-0.105179 0.0166027 2.974e-19)
(-0.0791956 0.0134081 -6.11561e-21)
(-0.0565532 0.0101876 4.10635e-19)
(-0.036885 0.00715584 -4.37739e-19)
(-0.0208394 0.00436134 -7.14863e-21)
(-0.00896469 0.00205922 -3.9949e-21)
(-0.00218066 0.000557059 3.71756e-21)
(0.00143832 -0.000257641 -7.52316e-37)
(0.00499976 -0.00113209 -1.25504e-18)
(0.00881195 -0.00239772 0)
(0.0155215 -0.00473953 -1.02856e-37)
(0.027888 -0.00788487 2.47967e-21)
(0.0422236 -0.00831337 -2.57685e-21)
(0.0459534 -0.000332483 1.18581e-18)
(0.0213078 0.00976082 1.17499e-18)
(0.142725 -0.532031 -2.28778e-19)
(0.0876748 -0.239967 -3.23582e-20)
(0.0325748 -0.0849348 -1.54531e-18)
(-0.000171658 -0.0157836 -6.54294e-19)
(-0.0165909 0.00153977 -7.97041e-19)
(-0.0500952 0.0202207 -1.02737e-18)
(-0.0894786 0.0369488 -2.12066e-18)
(-0.128387 0.0490804 -9.88462e-19)
(-0.16508 0.0581028 8.75387e-19)
(-0.205105 0.0691744 5.91026e-20)
(-0.251511 0.0786354 -1.74269e-18)
(-0.292617 0.0774572 7.78042e-19)
(-0.324115 0.069606 2.09805e-21)
(-0.350532 0.0610154 4.68588e-19)
(-0.373972 0.0523458 7.13437e-19)
(-0.393758 0.0429955 -4.32467e-20)
(-0.409618 0.0331085 2.82119e-37)
(-0.421859 0.0230348 -2.7174e-19)
(-0.430806 0.0130588 -1.89791e-20)
(-0.436838 0.00340032 -1.41409e-19)
(-0.439973 -0.00570206 3.52971e-22)
(-0.441324 -0.013831 -2.35099e-37)
(-0.440904 -0.0202666 -2.84193e-19)
(-0.439732 -0.0259021 -2.4445e-19)
(-0.43804 -0.0308972 5.08033e-19)
(-0.435972 -0.0353391 4.95602e-19)
(-0.433664 -0.0392871 9.681e-19)
(-0.431232 -0.0428034 4.73052e-19)
(-0.428748 -0.0459502 1.43494e-20)
(-0.426275 -0.04879 -4.65924e-19)
(-0.42388 -0.0513835 -4.48641e-19)
(-0.42163 -0.0537929 8.70029e-19)
(-0.41957 -0.0560759 8.49662e-19)
(-0.417726 -0.0582819 -8.29308e-19)
(-0.416085 -0.0604545 6.24021e-21)
(-0.414686 -0.0626344 -6.15391e-21)
(-0.413433 -0.0648594 -1.17549e-38)
(-0.412818 -0.0672179 -1.46937e-39)
(-0.411164 -0.0696958 1.40559e-21)
(-0.416761 -0.0727783 -7.13708e-19)
(-0.399063 -0.0758884 6.51974e-22)
)
;
    }
    frontAndBack
    {
        type            empty;
    }
}


// ************************************************************************* //
