/*--------------------------------*- C++ -*----------------------------------*\
| =========                 |                                                 |
| \\      /  F ield         | OpenFOAM: The Open Source CFD Toolbox           |
|  \\    /   O peration     | Version:  5.x                                   |
|   \\  /    A nd           | Web:      www.OpenFOAM.org                      |
|    \\/     M anipulation  |                                                 |
\*---------------------------------------------------------------------------*/
FoamFile
{
    version     2.0;
    format      ascii;
    class       volVectorField;
    location    "450";
    object      wallShearStress;
}
// * * * * * * * * * * * * * * * * * * * * * * * * * * * * * * * * * * * * * //

dimensions      [0 2 -2 0 0 0 0];

internalField   uniform (0 0 0);

boundaryField
{
    inlet
    {
        type            calculated;
        value           uniform (0 0 0);
    }
    outlet
    {
        type            calculated;
        value           uniform (0 0 0);
    }
    walls
    {
        type            calculated;
        value           nonuniform List<vector> 
82
(
(0.310664 -1.72047 -1.50463e-36)
(0.0100639 -2.40135 1.13864e-20)
(-0.341337 -2.93552 -1.43845e-18)
(-0.841708 -2.9253 -1.54664e-18)
(-1.21457 -2.61296 -3.35034e-18)
(-1.45378 -2.18147 1.60327e-18)
(-1.57318 -1.73386 1.47322e-18)
(-1.59608 -1.32539 -1.31108e-18)
(-1.54548 -0.978866 -2.81024e-18)
(-1.43259 -0.693589 -8.80208e-20)
(-1.22684 -0.43785 -1.04798e-18)
(-0.991452 -0.243279 3.96679e-20)
(-0.811783 -0.136392 -5.32426e-19)
(-0.697044 -0.0882829 -3.30926e-19)
(-0.59179 -0.0574871 -1.28682e-19)
(-0.471904 -0.0299381 2.44657e-20)
(-0.345418 -0.00979679 -1.11673e-19)
(-0.226172 0.00122568 -2.49937e-20)
(-0.122397 0.00508664 2.28313e-20)
(-0.0430544 0.00415305 2.25282e-19)
(-0.0035311 0.000992598 1.6017e-19)
(0.0103634 -0.000563446 2.96914e-19)
(0.0251027 -0.0021261 7.58713e-19)
(0.0365578 -0.00353893 5.53589e-20)
(0.0436664 -0.00474246 2.49767e-22)
(0.0472043 -0.0056863 -3.18698e-20)
(0.0487073 -0.00650908 2.09872e-18)
(0.0494839 -0.00737887 -3.31095e-20)
(0.0503395 -0.00830891 2.17037e-18)
(0.0517702 -0.00930342 -2.11308e-18)
(0.0541031 -0.0104605 -3.32997e-20)
(0.0576502 -0.011862 -1.63357e-20)
(0.0626021 -0.0135157 1.59015e-20)
(0.0686713 -0.0152651 0)
(0.0744691 -0.0166591 -3.7947e-18)
(0.0769349 -0.0169461 -3.00927e-36)
(0.0725649 -0.0154304 -2.35099e-37)
(0.0611791 -0.0119964 6.35624e-21)
(0.0405387 -0.00560189 -4.30234e-21)
(0.0179221 0.00357637 2.26078e-18)
(0.0172423 0.0197078 2.20358e-18)
(0.380417 -1.19788 -4.56408e-19)
(0.269679 -0.601516 -6.71314e-20)
(0.141649 -0.258406 -3.4486e-18)
(0.0405261 -0.0781507 -1.69061e-18)
(-0.00178689 -0.0116583 -1.13536e-18)
(-0.0289073 0.00515821 -1.96014e-18)
(-0.0789078 0.0286858 -4.59099e-18)
(-0.136675 0.0505297 -2.19665e-18)
(-0.195124 0.0676086 1.97773e-18)
(-0.259614 0.0865502 1.3733e-19)
(-0.334586 0.103569 -4.22416e-18)
(-0.404886 0.106527 1.93853e-18)
(-0.463338 0.0995205 3.84705e-21)
(-0.514843 0.090179 1.21112e-18)
(-0.561948 0.0795757 1.87089e-18)
(-0.603603 0.0670637 -1.14378e-19)
(-0.639294 0.0529839 4.70198e-37)
(-0.669327 0.0379511 -7.36387e-19)
(-0.694084 0.0224902 -5.16306e-20)
(-0.714109 0.0070256 -3.89212e-19)
(-0.729355 -0.00797541 6.8911e-22)
(-0.740586 -0.0218336 -9.40395e-37)
(-0.747597 -0.0330762 -7.90258e-19)
(-0.752939 -0.0431152 -6.81251e-19)
(-0.757122 -0.0521993 1.41742e-18)
(-0.760487 -0.0604768 1.38199e-18)
(-0.763377 -0.0680391 2.69535e-18)
(-0.766041 -0.0749755 1.31418e-18)
(-0.768661 -0.0813786 3.97264e-20)
(-0.7714 -0.0873465 -1.28702e-18)
(-0.774423 -0.0929801 -1.23487e-18)
(-0.7779 -0.0983864 2.38575e-18)
(-0.781994 -0.10368 2.31952e-18)
(-0.786897 -0.108971 -2.25189e-18)
(-0.792787 -0.11438 1.67812e-20)
(-0.799936 -0.120026 -1.65274e-20)
(-0.808565 -0.126053 0)
(-0.819944 -0.132735 -5.87747e-39)
(-0.832043 -0.140185 3.59796e-21)
(-0.860924 -0.150079 -1.80141e-18)
(-0.857668 -0.15967 1.63121e-21)
)
;
    }
    frontAndBack
    {
        type            empty;
    }
}


// ************************************************************************* //
