/*--------------------------------*- C++ -*----------------------------------*\
| =========                 |                                                 |
| \\      /  F ield         | OpenFOAM: The Open Source CFD Toolbox           |
|  \\    /   O peration     | Version:  5.x                                   |
|   \\  /    A nd           | Web:      www.OpenFOAM.org                      |
|    \\/     M anipulation  |                                                 |
\*---------------------------------------------------------------------------*/
FoamFile
{
    version     2.0;
    format      ascii;
    class       volScalarField;
    location    "1150";
    object      nuTilda;
}
// * * * * * * * * * * * * * * * * * * * * * * * * * * * * * * * * * * * * * //

dimensions      [0 2 -1 0 0 0 0];

internalField   nonuniform List<scalar> 
41860
(
4.13047e-05
4.37062e-05
5.51393e-05
5.81308e-05
5.37839e-05
4.98092e-05
4.43107e-05
3.9665e-05
3.59193e-05
3.28176e-05
3.00789e-05
2.8123e-05
2.59695e-05
2.50004e-05
2.33635e-05
2.28611e-05
2.19959e-05
2.13887e-05
2.09982e-05
1.97053e-05
1.95417e-05
2.87514e-05
1.89821e-05
2.98329e-05
1.86056e-05
3.03535e-05
3.06829e-05
1.82871e-05
3.07445e-05
3.07031e-05
3.06827e-05
1.79639e-05
1.79275e-05
3.04125e-05
1.78837e-05
3.01111e-05
1.79015e-05
1.79131e-05
1.79924e-05
2.89495e-05
1.81705e-05
1.82823e-05
3.00951e-05
3.0132e-05
1.71612e-05
3.00688e-05
3.00316e-05
2.9998e-05
2.99533e-05
2.99105e-05
2.98651e-05
2.98195e-05
2.97734e-05
2.97266e-05
2.96741e-05
1.71142e-05
1.71344e-05
2.95183e-05
1.71712e-05
2.94226e-05
2.93558e-05
2.93219e-05
1.72557e-05
2.91771e-05
1.72815e-05
2.90166e-05
1.72885e-05
1.73009e-05
2.87803e-05
2.86096e-05
1.7264e-05
2.84381e-05
2.82526e-05
1.71675e-05
1.70951e-05
2.78206e-05
1.69484e-05
1.68018e-05
1.66425e-05
2.66709e-05
1.63792e-05
1.05845e-05
0.000190875
0.00022385
0.000287185
0.000303952
0.000280978
0.000259904
0.000230586
0.000205786
0.00018578
0.000169211
0.000154579
0.000144144
0.000132642
0.000127487
0.000118738
0.000116054
0.000110981
0.000107158
0.000104512
9.82392e-05
9.67009e-05
9.68888e-05
9.11337e-05
9.39862e-05
8.75935e-05
9.17657e-05
9.01316e-05
8.504e-05
8.88169e-05
8.84954e-05
8.79848e-05
8.28832e-05
8.27786e-05
8.73194e-05
8.28377e-05
8.75497e-05
8.34636e-05
8.38051e-05
8.47833e-05
9.00322e-05
8.69538e-05
8.83054e-05
8.27543e-05
8.26864e-05
7.80629e-05
8.24666e-05
8.24344e-05
8.2359e-05
8.23567e-05
8.23665e-05
8.24094e-05
8.24792e-05
8.25678e-05
8.26806e-05
8.28257e-05
7.84229e-05
7.8644e-05
8.32624e-05
7.90501e-05
8.36433e-05
8.3999e-05
8.40835e-05
7.99534e-05
8.44743e-05
8.03213e-05
8.48448e-05
8.05674e-05
8.0795e-05
8.50266e-05
8.54555e-05
8.09258e-05
8.51444e-05
8.53286e-05
8.07915e-05
8.04699e-05
8.43788e-05
8.00239e-05
7.93277e-05
7.85407e-05
8.12739e-05
7.73139e-05
1.27815e-05
0.000240077
0.00027829
0.00036307
0.00038688
0.000358001
0.000330857
0.000292963
0.000260907
0.000235193
0.000214183
0.000196304
0.00018341
0.000171587
0.000165409
0.000160527
0.000158759
0.000157846
0.000157344
0.000156759
0.000156053
0.000155071
0.000157409
0.000153982
0.000156139
0.000152715
0.000154513
0.000154026
0.000149933
0.000151971
0.000150824
0.000149804
0.000146057
0.000145031
0.000146728
0.000143208
0.000144936
0.000141724
0.000141131
0.000140741
0.000142692
0.000140444
0.00014057
0.000140344
0.000139995
0.000137292
0.00013931
0.000138988
0.000138687
0.000138419
0.000138184
0.000137981
0.000137812
0.000137672
0.000137564
0.000137486
0.00013517
0.000135167
0.000137371
0.000135214
0.000137422
0.000137543
0.000137557
0.000135496
0.000137646
0.000135572
0.000137699
0.000135558
0.000135584
0.000137507
0.000137609
0.000135265
0.000137089
0.000136963
0.000134496
0.00013398
0.000135409
0.000132832
0.000131782
0.000130621
0.000130535
0.00012851
1.54219e-05
0.000327753
0.000371078
0.000436589
0.00047386
0.000463927
0.00043376
0.000406305
0.000383804
0.000363829
0.000345459
0.000329419
0.000309466
0.000297288
0.000279257
0.000276368
0.000270167
0.000269
0.000266881
0.000264047
0.000262416
0.000258932
0.000258473
0.000254132
0.000253076
0.00024921
0.0002478
0.000245784
0.000241356
0.000240637
0.000238026
0.000235673
0.000231941
0.000229676
0.000228965
0.000225585
0.00022506
0.000222081
0.000220581
0.000219288
0.00021927
0.000217337
0.000216724
0.000215351
0.000214296
0.0002123
0.000212713
0.000211968
0.000211278
0.000210647
0.000210078
0.00020957
0.000209121
0.000208725
0.000208386
0.000208097
0.00020673
0.000206556
0.000207463
0.000206304
0.000207248
0.000207266
0.000207181
0.000206159
0.000207076
0.000206026
0.000206921
0.000205777
0.000205684
0.000206352
0.000206327
0.000204893
0.000205433
0.000205108
0.000203432
0.000202592
0.000202618
0.00020064
0.000199018
0.000197218
0.000195183
0.000193507
1.85961e-05
0.000453193
0.000548165
0.000643264
0.000697804
0.000719007
0.000679568
0.000654856
0.00062926
0.000601007
0.000571558
0.000543773
0.000508961
0.000485366
0.000451676
0.00043848
0.0004229
0.000416592
0.000409901
0.000402938
0.000398217
0.000391188
0.000387095
0.000380571
0.000375973
0.000370507
0.000365768
0.000361614
0.000355903
0.000352401
0.000347897
0.000343814
0.00033926
0.000335424
0.000332461
0.000328475
0.000325919
0.000322476
0.000319871
0.000317532
0.000315909
0.000313727
0.000312372
0.000309425
0.000307311
0.000305382
0.000304514
0.000303215
0.000302011
0.000300903
0.000299898
0.000298989
0.000298172
0.000297441
0.000296798
0.000296232
0.00029526
0.000294859
0.000294911
0.000294209
0.000294344
0.000294225
0.000294004
0.000293491
0.000293652
0.000293093
0.000293237
0.000292555
0.00029232
0.000292202
0.000292032
0.000290972
0.000290687
0.000290129
0.00028871
0.000287493
0.000286542
0.00028463
0.000282368
0.000279828
0.00027621
0.000273965
2.24073e-05
0.000618936
0.000788733
0.00099194
0.00107887
0.00111229
0.00104979
0.00100629
0.000961131
0.000912779
0.000863499
0.000816756
0.000762943
0.000722913
0.000672146
0.000644868
0.000616924
0.00060256
0.000589206
0.000576527
0.000566931
0.000555207
0.00054666
0.000536543
0.000528012
0.000519632
0.000511387
0.000504397
0.000496388
0.000490003
0.000483141
0.000476876
0.000470652
0.000464892
0.000459764
0.00045447
0.000450012
0.000445491
0.000441565
0.000438028
0.000435015
0.000432134
0.00043
0.000424959
0.000421385
0.000418948
0.000417015
0.000415024
0.000413176
0.000411477
0.000409926
0.000408521
0.000407248
0.000406102
0.000405082
0.000404176
0.000403187
0.000402511
0.00040201
0.000401378
0.000401012
0.000400728
0.00040034
0.000399978
0.000399701
0.000399276
0.000398986
0.000398409
0.000398016
0.000397412
0.000397086
0.000396047
0.000395224
0.00039441
0.000392894
0.000391249
0.000389577
0.000387374
0.000384405
0.000381023
0.00037607
0.000372329
2.69767e-05
0.000848424
0.0010855
0.00143675
0.00156648
0.00159618
0.00150392
0.00143254
0.00136188
0.00128922
0.00121667
0.00114775
0.00107253
0.00101317
0.000943592
0.00089988
0.000857114
0.000832029
0.000809937
0.000789869
0.000773774
0.000756077
0.000742088
0.000727097
0.000713943
0.000701509
0.000689267
0.000678697
0.000667476
0.000657857
0.000648075
0.000639111
0.000630498
0.000622382
0.000614915
0.000607729
0.000601251
0.000595145
0.00058963
0.000584673
0.000580255
0.000576322
0.000573328
0.000565757
0.000560247
0.000556846
0.000553865
0.000551019
0.000548377
0.00054595
0.000543731
0.000541717
0.000539884
0.000538231
0.000536749
0.00053543
0.00053417
0.00053316
0.000532233
0.000531447
0.000530714
0.00053023
0.000529642
0.000529235
0.000528672
0.000528189
0.000527617
0.000526952
0.000526388
0.000525437
0.000524937
0.000523734
0.000522501
0.000521404
0.000519599
0.000517478
0.00051519
0.000512488
0.000508748
0.000504416
0.000498277
0.000492059
3.24462e-05
0.00118355
0.00144466
0.00196398
0.00214311
0.00216197
0.00203606
0.00193277
0.00183398
0.00173497
0.00163716
0.00154394
0.00144532
0.0013643
0.001274
0.00121169
0.00115176
0.00111325
0.00108012
0.00105073
0.00102637
0.00100119
0.000980475
0.000959269
0.000940482
0.000922862
0.000905798
0.000890784
0.000875451
0.000861968
0.000848593
0.000836301
0.000824616
0.000813611
0.000803407
0.000793782
0.000784958
0.000776801
0.000769357
0.00076268
0.000756665
0.000751373
0.000747383
0.000736867
0.000728866
0.00072408
0.000719907
0.00071601
0.000712392
0.000709072
0.000706033
0.000703274
0.000700759
0.000698487
0.000696443
0.00069462
0.00069293
0.000691514
0.000690172
0.0006891
0.000688025
0.000687296
0.000686472
0.000685921
0.000685121
0.000684489
0.000683685
0.000682841
0.000682089
0.000680834
0.000680142
0.00067869
0.000677081
0.000675676
0.000673489
0.000670845
0.000667955
0.000664638
0.000660074
0.00065468
0.000647479
0.000637654
3.89804e-05
0.00163123
0.00188215
0.00257886
0.00281287
0.00281657
0.0026535
0.00251554
0.00238693
0.00226012
0.00213552
0.0020162
0.0018923
0.00178746
0.00167434
0.00159123
0.00151175
0.00145697
0.00141019
0.00136916
0.00133451
0.0013
0.00127095
0.00124198
0.00121624
0.00119215
0.00116915
0.00114865
0.00112818
0.00110998
0.00109217
0.00107578
0.00106027
0.00104572
0.00103219
0.00101953
0.00100787
0.000997164
0.00098736
0.000978573
0.000970646
0.000963656
0.000958476
0.000944634
0.000933494
0.000926856
0.00092123
0.000916036
0.000911219
0.000906805
0.000902763
0.000899092
0.000895744
0.000892716
0.000889985
0.000887548
0.000885304
0.000883393
0.000881584
0.000880131
0.000878679
0.000877651
0.000876546
0.000875795
0.000874761
0.000873929
0.0008729
0.00087183
0.000870874
0.00086932
0.000868413
0.000866681
0.000864692
0.000862952
0.000860343
0.000857139
0.000853625
0.000849624
0.000844198
0.000837636
0.000829537
0.000814749
4.67681e-05
0.0022123
0.00242547
0.00329425
0.00358803
0.00357284
0.00336882
0.00319371
0.00303385
0.00287809
0.00272537
0.00257833
0.00242729
0.00229653
0.00215839
0.00205213
0.00195059
0.00187654
0.00181317
0.00175778
0.0017104
0.00166431
0.00162493
0.00158635
0.00155196
0.00151986
0.00148951
0.00146223
0.00143541
0.00141137
0.0013881
0.00136666
0.00134643
0.00132749
0.0013099
0.00129349
0.00127836
0.00126448
0.00125178
0.00124039
0.00123012
0.00122102
0.00121439
0.00119688
0.00118186
0.0011728
0.00116535
0.00115855
0.00115226
0.0011465
0.00114123
0.00113644
0.00113207
0.00112812
0.00112455
0.00112137
0.00111844
0.00111592
0.00111356
0.00111163
0.00110974
0.00110834
0.00110691
0.00110591
0.00110462
0.00110356
0.00110229
0.00110097
0.0010998
0.00109794
0.00109679
0.00109477
0.00109239
0.0010903
0.00108725
0.00108347
0.00107931
0.00107458
0.00106828
0.00106045
0.00105171
0.00103038
5.60239e-05
0.00295854
0.00311295
0.00412784
0.00448543
0.00444726
0.00419804
0.00398329
0.0037909
0.00360524
0.00342328
0.00324708
0.0030671
0.00290837
0.0027429
0.00261103
0.00248477
0.0023883
0.00230506
0.00223212
0.00216913
0.00210873
0.00205658
0.0020061
0.00196099
0.00191897
0.0018795
0.00184382
0.00180913
0.00177789
0.00174786
0.00172016
0.0016941
0.00166976
0.00164715
0.00162609
0.00160668
0.00158889
0.00157261
0.00155798
0.00154482
0.0015331
0.00152465
0.00150317
0.00148346
0.00147124
0.00146148
0.00145269
0.00144458
0.00143717
0.00143038
0.00142422
0.00141861
0.00141352
0.00140893
0.00140483
0.00140106
0.00139781
0.00139478
0.00139227
0.00138985
0.001388
0.00138617
0.00138487
0.00138331
0.00138199
0.00138047
0.00137888
0.00137747
0.00137531
0.00137391
0.00137161
0.00136884
0.00136638
0.00136291
0.00135854
0.00135372
0.00134825
0.0013411
0.00133193
0.00132293
0.00129334
6.69875e-05
0.00391056
0.00398123
0.0051016
0.00552576
0.00545961
0.0051603
0.00490333
0.00467731
0.00446109
0.00424906
0.00404247
0.00383192
0.00364327
0.00344811
0.00328807
0.00313424
0.00301206
0.00290538
0.00281125
0.00272926
0.00265128
0.00258339
0.00251821
0.00245979
0.0024055
0.00235468
0.00230862
0.00226416
0.00222398
0.00218557
0.00215013
0.00211685
0.00208581
0.00205698
0.00203017
0.00200546
0.0019828
0.00196208
0.00194344
0.00192667
0.00191167
0.00190093
0.0018752
0.0018499
0.00183363
0.00182093
0.00180965
0.00179929
0.00178983
0.00178118
0.00177334
0.00176618
0.00175971
0.00175386
0.00174863
0.00174385
0.00173969
0.00173585
0.00173262
0.00172957
0.00172717
0.00172486
0.0017232
0.00172134
0.00171972
0.00171795
0.00171608
0.00171443
0.00171197
0.00171031
0.00170776
0.00170462
0.0017018
0.00169793
0.00169301
0.00168756
0.00168136
0.00167344
0.00166287
0.00165415
0.00161477
7.99215e-05
0.00511861
0.00506662
0.00624188
0.00673381
0.00663309
0.00627805
0.00597622
0.00571573
0.00546869
0.00522616
0.00498836
0.00474584
0.0045255
0.00429831
0.00410746
0.00392305
0.00377169
0.00363774
0.00351837
0.00341348
0.00331407
0.00322683
0.00314358
0.00306866
0.00299918
0.00293427
0.00287533
0.00281875
0.00276745
0.00271866
0.00267358
0.00263135
0.00259198
0.00255545
0.00252148
0.00249018
0.00246146
0.00243522
0.00241154
0.00239028
0.00237116
0.00235746
0.00232724
0.00229544
0.00227401
0.00225754
0.00224313
0.00222997
0.00221799
0.00220703
0.0021971
0.00218805
0.00217987
0.00217247
0.00216585
0.00215982
0.00215455
0.00214972
0.00214561
0.0021418
0.00213872
0.00213584
0.00213374
0.00213154
0.0021296
0.00212756
0.0021254
0.00212353
0.0021208
0.00211888
0.00211613
0.00211265
0.0021095
0.00210531
0.00209991
0.00209388
0.00208701
0.00207847
0.00206651
0.00205872
0.00200877
9.51065e-05
0.00664402
0.00641681
0.00757983
0.00813886
0.00799479
0.00757748
0.0072281
0.00693268
0.00665513
0.00638226
0.00611293
0.00583746
0.00558395
0.00532248
0.00509817
0.00488
0.00469583
0.00453056
0.00438152
0.00424935
0.00412405
0.00401323
0.00390785
0.00381256
0.00372433
0.00364192
0.003567
0.00349537
0.00343024
0.00336853
0.00331148
0.00325811
0.00320836
0.00316224
0.00311936
0.00307986
0.00304355
0.00301042
0.00298043
0.00295351
0.0029292
0.00291166
0.00287668
0.00283744
0.00280956
0.00278827
0.0027699
0.00275325
0.00273812
0.00272431
0.0027118
0.0027004
0.0026901
0.00268079
0.00267246
0.0026649
0.00265825
0.00265222
0.00264702
0.00264228
0.00263837
0.00263479
0.00263215
0.00262956
0.00262728
0.00262495
0.00262252
0.00262043
0.00261748
0.00261532
0.00261244
0.00260872
0.0026053
0.0026009
0.00259515
0.00258867
0.00258125
0.0025723
0.00255901
0.00255293
0.00249334
0.000112832
0.00856108
0.00809359
0.00915278
0.00977321
0.00957556
0.00908855
0.008689
0.00835878
0.00805186
0.00774966
0.00744922
0.0071404
0.00685268
0.00655489
0.0062945
0.00603929
0.00581854
0.00561772
0.0054343
0.00527001
0.00511387
0.00497455
0.00484228
0.004722
0.00461069
0.00450664
0.00441192
0.00432163
0.0042393
0.00416153
0.00408954
0.00402231
0.00395963
0.00390154
0.00384752
0.00379777
0.00375198
0.0037102
0.00367227
0.00363824
0.00360736
0.00358479
0.00354471
0.00349713
0.0034613
0.00343386
0.00341048
0.00338946
0.00337041
0.00335304
0.00333732
0.00332301
0.00331008
0.0032984
0.00328795
0.00327849
0.00327014
0.00326262
0.00325609
0.0032502
0.00324527
0.00324084
0.00323753
0.00323448
0.00323182
0.00322922
0.00322653
0.00322425
0.00322115
0.0032188
0.00321589
0.00321206
0.00320849
0.00320403
0.00319811
0.00319139
0.0031836
0.00317457
0.00316011
0.00315657
0.00309112
0.000133385
0.0109592
0.0101742
0.0110067
0.0116624
0.0114035
0.0108408
0.0103896
0.0100266
0.00969343
0.00936454
0.00903473
0.00869316
0.00837093
0.00803524
0.0077364
0.00744093
0.00717978
0.00693908
0.00671638
0.00651489
0.00632248
0.00614917
0.0059846
0.00583394
0.00569442
0.00556377
0.00544459
0.00533125
0.00522755
0.00512984
0.00503926
0.00495475
0.00487594
0.00480293
0.00473499
0.00467242
0.00461472
0.00456208
0.00451415
0.00447113
0.00443194
0.00440275
0.00435707
0.00430031
0.00425489
0.00421966
0.00418992
0.0041634
0.00413944
0.00411764
0.00409791
0.00407998
0.00406378
0.00404915
0.00403606
0.00402425
0.00401379
0.00400442
0.00399624
0.00398895
0.00398274
0.00397727
0.00397312
0.00396953
0.00396642
0.00396354
0.00396062
0.0039582
0.00395505
0.0039526
0.00394979
0.00394603
0.00394247
0.00393818
0.00393237
0.0039257
0.00391783
0.00390915
0.00389378
0.00389357
0.00382903
0.000268469
0.0139457
0.0127534
0.0131993
0.0138117
0.0134756
0.0128387
0.0123418
0.0119568
0.0116082
0.0112609
0.0109074
0.0105364
0.0101813
0.00980748
0.00946867
0.00913028
0.00882519
0.00854049
0.00827368
0.00802984
0.00779557
0.00758239
0.00737957
0.00719247
0.00701886
0.0068558
0.00670667
0.00656502
0.00643494
0.00631254
0.0061989
0.00609293
0.00599403
0.00590241
0.00581707
0.00573847
0.00566585
0.00559955
0.00553902
0.00548461
0.00543489
0.00539701
0.00534492
0.00527821
0.00522145
0.0051765
0.00513872
0.00510527
0.00507516
0.0050478
0.00502308
0.00500062
0.00498034
0.00496203
0.00494563
0.0049309
0.0049178
0.00490615
0.0048959
0.00488687
0.0048791
0.00487231
0.0048671
0.00486283
0.00485922
0.00485603
0.00485292
0.00485041
0.00484735
0.00484491
0.00484237
0.00483893
0.00483562
0.00483178
0.00482645
0.00482023
0.00481265
0.00480489
0.00478898
0.00479285
0.00473665
0.000495535
0.0176489
0.015946
0.015802
0.0162163
0.0157509
0.0150397
0.0145117
0.0141287
0.0137917
0.0134499
0.0130905
0.0127024
0.0123222
0.0119145
0.0115371
0.0111553
0.0108041
0.0104723
0.0101573
0.00986647
0.00958505
0.00932616
0.00907897
0.008849
0.00863485
0.00843291
0.00824755
0.0080715
0.00790913
0.00775645
0.00761437
0.00748187
0.00735809
0.00724334
0.00713636
0.00703774
0.00694646
0.00686303
0.00678664
0.00671783
0.0066548
0.00660554
0.00654576
0.00646837
0.00639852
0.00634162
0.00629374
0.00625159
0.00621376
0.00617946
0.00614847
0.00612036
0.00609497
0.00607207
0.00605154
0.00603314
0.00601675
0.00600223
0.00598941
0.00597821
0.0059685
0.00596008
0.0059535
0.00594835
0.00594411
0.00594059
0.00593731
0.00593478
0.00593195
0.00592968
0.00592763
0.0059248
0.00592204
0.00591901
0.00591461
0.00590935
0.00590255
0.00589639
0.00588043
0.00588912
0.0058395
0.00272453
0.022223
0.0198893
0.0189004
0.0188783
0.0181924
0.0173942
0.0168471
0.0164903
0.0161983
0.0158987
0.0155684
0.0151926
0.0148099
0.0143841
0.0139781
0.0135585
0.0131633
0.0127845
0.0124196
0.012079
0.0117466
0.0114371
0.0111401
0.0108611
0.0105999
0.0103524
0.010124
0.00990694
0.0097057
0.00951635
0.00933965
0.0091747
0.00902038
0.00887713
0.00874342
0.00861998
0.0085055
0.00840067
0.00830443
0.0082175
0.00813769
0.00807363
0.00800426
0.00791541
0.00783081
0.00775955
0.00769913
0.00764607
0.0075986
0.00755563
0.00751681
0.00748164
0.00744987
0.00742122
0.00739552
0.00737253
0.00735202
0.00733391
0.00731789
0.00730396
0.00729183
0.00728135
0.00727303
0.00726671
0.00726166
0.00725771
0.00725427
0.00725178
0.00724934
0.00724742
0.00724609
0.00724422
0.00724239
0.0072406
0.00723764
0.00723394
0.00722851
0.00722469
0.00720925
0.00722353
0.00718148
0.00437297
0.0278554
0.024744
0.0225892
0.0218108
0.0207789
0.0198677
0.019307
0.0189933
0.0187727
0.0185496
0.0182878
0.0179654
0.0176185
0.0172077
0.0167984
0.0163598
0.0159332
0.0155153
0.0151048
0.0147166
0.0143331
0.0139711
0.013621
0.0132886
0.0129752
0.012676
0.0123983
0.0121336
0.0118867
0.011654
0.011436
0.0112321
0.0110409
0.010863
0.0106967
0.0105429
0.0103999
0.0102686
0.0101478
0.0100382
0.00993745
0.00985443
0.00977272
0.00967143
0.00957059
0.00948253
0.00940683
0.0093403
0.00928085
0.00922712
0.00917858
0.00913462
0.00909489
0.00905909
0.00902693
0.00899821
0.00897254
0.00894994
0.0089299
0.00891256
0.00889741
0.00888434
0.00887378
0.00886588
0.00885973
0.00885519
0.00885154
0.00884911
0.00884721
0.00884583
0.00884546
0.00884491
0.00884443
0.00884433
0.00884338
0.00884191
0.00883846
0.00883777
0.00882339
0.0088441
0.00880406
0.00639548
0.0347661
0.0306919
0.0269539
0.0250305
0.0234986
0.0224363
0.021862
0.0216021
0.0214702
0.0213482
0.0211865
0.0209558
0.0206867
0.0203334
0.0199604
0.0195376
0.0191077
0.0186725
0.0182325
0.0178084
0.0173819
0.0169721
0.0165712
0.0161853
0.0158178
0.0154637
0.0151324
0.014815
0.0145168
0.0142345
0.0139689
0.0137196
0.0134851
0.0132663
0.0130612
0.0128709
0.0126935
0.0125301
0.0123792
0.0122419
0.0121153
0.0120085
0.0119108
0.0117957
0.0116774
0.0115703
0.0114764
0.0113936
0.0113195
0.0112525
0.011192
0.0111372
0.0110877
0.011043
0.0110029
0.010967
0.010935
0.0109068
0.0108817
0.0108601
0.0108412
0.0108249
0.0108115
0.0108014
0.0107938
0.0107883
0.0107843
0.0107819
0.0107806
0.0107799
0.0107808
0.0107819
0.0107831
0.0107852
0.0107868
0.0107882
0.0107873
0.0107904
0.0107775
0.0108053
0.0107593
0.00877631
0.0429845
0.037905
0.0320233
0.0285416
0.0263385
0.0250766
0.024486
0.0242873
0.0242557
0.0242509
0.024211
0.0241006
0.023944
0.0236875
0.0233929
0.0230282
0.0226352
0.0222183
0.0217794
0.0213449
0.0208961
0.0204545
0.0200149
0.0195839
0.0191678
0.0187614
0.0183771
0.018006
0.017654
0.0173188
0.0170012
0.0167016
0.0164185
0.0161532
0.0159035
0.0156709
0.0154534
0.0152523
0.0150658
0.0148952
0.0147376
0.0146016
0.0144835
0.0143528
0.014216
0.0140881
0.0139735
0.0138714
0.0137798
0.013697
0.0136221
0.0135542
0.0134927
0.0134373
0.0133873
0.0133427
0.0133028
0.0132677
0.0132365
0.0132096
0.0131861
0.0131658
0.0131487
0.0131358
0.0131261
0.0131193
0.0131147
0.0131121
0.0131114
0.0131115
0.0131136
0.0131166
0.0131199
0.0131245
0.013129
0.0131337
0.0131359
0.0131432
0.0131317
0.0131671
0.0131069
0.0115544
0.0520039
0.0462734
0.0377029
0.0323058
0.0292696
0.0277566
0.0271471
0.0270168
0.0270948
0.0272181
0.0273146
0.0273451
0.0273262
0.0271969
0.0270157
0.0267479
0.0264337
0.0260763
0.0256781
0.0252701
0.0248319
0.0243872
0.0239335
0.0234781
0.0230296
0.0225837
0.0221559
0.0217376
0.021336
0.0209499
0.0205808
0.02023
0.0198962
0.0195815
0.0192837
0.0190049
0.0187429
0.0184993
0.0182724
0.0180637
0.0178703
0.0177002
0.0175568
0.0174083
0.0172524
0.0171027
0.0169656
0.0168419
0.0167301
0.0166289
0.016537
0.0164536
0.016378
0.0163098
0.0162482
0.0161932
0.0161438
0.0161004
0.0160618
0.0160285
0.0159994
0.0159743
0.0159527
0.0159362
0.0159235
0.0159149
0.0159091
0.015906
0.0159057
0.0159064
0.0159099
0.0159148
0.0159203
0.0159276
0.0159352
0.0159435
0.0159486
0.0159601
0.0159494
0.0159919
0.0159103
0.0147661
0.0613817
0.0552656
0.0437212
0.0361857
0.032221
0.0304236
0.0298015
0.0297487
0.0299453
0.0302048
0.0304477
0.0306351
0.0307731
0.0307934
0.0307523
0.0306127
0.0304135
0.0301533
0.0298358
0.0294941
0.0291054
0.0286946
0.0282613
0.027813
0.0273601
0.026899
0.0264483
0.0259999
0.0255626
0.0251366
0.0247243
0.0243283
0.023948
0.0235863
0.0232416
0.0229165
0.0226091
0.0223214
0.0220519
0.0218022
0.0215699
0.0213621
0.0211895
0.0210211
0.0208458
0.0206747
0.0205147
0.020368
0.0202345
0.0201128
0.020002
0.0199014
0.0198097
0.019727
0.019652
0.019585
0.0195248
0.0194718
0.0194245
0.0193838
0.0193482
0.0193174
0.0192905
0.0192695
0.0192531
0.0192418
0.0192342
0.0192301
0.0192298
0.0192309
0.0192354
0.0192421
0.0192497
0.0192594
0.01927
0.0192815
0.0192892
0.019304
0.0192927
0.0193407
0.0192329
0.0184366
0.0708198
0.0643646
0.0495347
0.0398334
0.0350314
0.0329862
0.032388
0.032428
0.0327528
0.0331532
0.0335489
0.0339069
0.0342167
0.0344042
0.0345242
0.0345382
0.0344844
0.0343532
0.0341519
0.0339135
0.0336117
0.0332726
0.0328977
0.0324936
0.0320713
0.0316279
0.0311846
0.0307334
0.0302845
0.0298396
0.0294023
0.0289766
0.0285624
0.0281643
0.027781
0.0274162
0.0270683
0.0267401
0.0264302
0.0261409
0.0258702
0.0256244
0.025421
0.0252318
0.0250381
0.0248474
0.0246661
0.0244975
0.0243422
0.0241998
0.0240694
0.0239506
0.0238421
0.0237438
0.0236545
0.0235746
0.0235026
0.0234391
0.0233825
0.0233336
0.0232909
0.0232539
0.0232211
0.023195
0.0231742
0.0231595
0.0231495
0.0231437
0.0231429
0.0231439
0.0231491
0.0231571
0.0231662
0.023178
0.0231908
0.0232047
0.0232138
0.0232305
0.0232164
0.0232667
0.0231305
0.0225848
0.0800383
0.0729351
0.0551177
0.0431147
0.037685
0.0354894
0.0349288
0.0350378
0.0354546
0.035993
0.0365421
0.0370821
0.0375736
0.0379405
0.0382385
0.0384279
0.0385464
0.0385711
0.0385182
0.0384169
0.0382359
0.0380035
0.0377238
0.0374012
0.0370458
0.0366566
0.0362561
0.0358353
0.0354063
0.0349716
0.0345361
0.0341047
0.0336785
0.0332631
0.0328581
0.0324682
0.0320923
0.0317342
0.031393
0.0310715
0.0307684
0.0304896
0.030258
0.0300496
0.0298403
0.0296341
0.0294358
0.029249
0.0290748
0.0289139
0.0287655
0.0286298
0.0285052
0.0283921
0.0282889
0.0281965
0.0281128
0.0280391
0.0279732
0.0279163
0.0278666
0.0278236
0.027785
0.0277537
0.0277282
0.0277098
0.0276969
0.0276892
0.0276873
0.0276878
0.0276932
0.0277019
0.027712
0.027725
0.0277392
0.0277543
0.0277634
0.0277798
0.0277601
0.0278085
0.0276441
0.0272345
0.0886929
0.0804822
0.0615923
0.047341
0.040845
0.0384323
0.0378228
0.0379061
0.0383169
0.0388895
0.0395042
0.0401414
0.0407505
0.0412962
0.0417828
0.0421647
0.0424795
0.0426817
0.0428083
0.0428759
0.0428459
0.042753
0.0426042
0.0423988
0.0421456
0.0418477
0.0415265
0.0411717
0.0407973
0.0404065
0.040005
0.0395983
0.0391885
0.0387822
0.0383798
0.037987
0.0376034
0.0372335
0.0368772
0.0365378
0.0362151
0.0359144
0.0356629
0.0354411
0.0352219
0.0350068
0.0347986
0.0346005
0.0344138
0.0342399
0.0340782
0.0339295
0.0337924
0.0336676
0.0335532
0.0334505
0.0333574
0.0332753
0.0332018
0.0331384
0.0330832
0.0330355
0.0329923
0.0329568
0.0329274
0.0329058
0.0328904
0.0328808
0.0328781
0.032878
0.0328834
0.0328927
0.0329033
0.032917
0.0329317
0.0329468
0.0329544
0.0329684
0.0329409
0.0329824
0.0327934
0.0324189
0.0963436
0.0870072
0.0691054
0.0540457
0.046221
0.0430727
0.0419555
0.0417137
0.0418934
0.042307
0.042831
0.0434189
0.0440244
0.044617
0.045188
0.0456766
0.0461496
0.0465348
0.0468719
0.0471359
0.0472814
0.0473591
0.0473773
0.0473228
0.0472057
0.0470371
0.0468321
0.0465793
0.0462958
0.045985
0.0456528
0.0453047
0.0449442
0.0445785
0.0442085
0.0438408
0.0434758
0.0431188
0.0427702
0.042434
0.0421108
0.041806
0.0415487
0.0413239
0.0411043
0.0408898
0.0406817
0.0404824
0.0402929
0.0401149
0.039948
0.0397938
0.0396508
0.0395203
0.0394003
0.0392924
0.0391943
0.0391079
0.0390307
0.0389643
0.0389067
0.0388574
0.0388124
0.0387754
0.0387444
0.0387216
0.0387054
0.0386954
0.0386929
0.0386932
0.0386995
0.0387099
0.0387215
0.038736
0.0387512
0.0387661
0.0387716
0.038782
0.038746
0.0387761
0.0385705
0.0381635
0.102521
0.0930736
0.0774123
0.0629733
0.0544569
0.0501799
0.0480435
0.0470829
0.0467445
0.0467654
0.0470018
0.0473537
0.0477972
0.0482731
0.0487868
0.0492627
0.0497572
0.0502072
0.0506399
0.0510305
0.0513549
0.0516314
0.0518518
0.0519747
0.0520244
0.0520246
0.051972
0.0518566
0.0517017
0.051509
0.0512833
0.0510305
0.0507555
0.0504656
0.0501621
0.0498522
0.0495372
0.0492228
0.0489102
0.0486039
0.0483054
0.0480199
0.0477766
0.0475642
0.0473578
0.0471568
0.0469617
0.046774
0.0465942
0.0464243
0.0462638
0.0461149
0.045976
0.045849
0.0457318
0.0456267
0.045531
0.0454471
0.0453724
0.0453089
0.0452544
0.0452085
0.0451667
0.0451328
0.0451046
0.0450846
0.0450712
0.0450639
0.0450646
0.045068
0.0450775
0.0450912
0.0451057
0.0451229
0.0451401
0.045156
0.0451609
0.0451683
0.0451262
0.0451423
0.0449328
0.0444611
0.107137
0.0992775
0.086186
0.0731088
0.0641994
0.0587082
0.0554613
0.0536758
0.0527322
0.052277
0.0521251
0.0521343
0.0523038
0.0525405
0.0528689
0.0532101
0.0535935
0.0539821
0.0543827
0.0547806
0.0551546
0.0555142
0.0558381
0.0561311
0.0563707
0.0565808
0.0567069
0.0567591
0.0567703
0.0567338
0.0566517
0.0565323
0.0563816
0.0562055
0.0560057
0.0557903
0.0555608
0.0553234
0.0550799
0.0548354
0.0545921
0.0543549
0.0541503
0.0539705
0.0537954
0.0536247
0.0534586
0.0532982
0.0531437
0.0529969
0.0528574
0.0527275
0.0526059
0.0524948
0.0523923
0.0523008
0.0522179
0.0521462
0.0520832
0.0520309
0.0519874
0.0519525
0.0519212
0.0518975
0.0518788
0.0518678
0.0518631
0.0518642
0.0518732
0.0518845
0.0519018
0.0519231
0.0519448
0.0519685
0.0519917
0.0520125
0.0520208
0.052029
0.0519866
0.0519899
0.0517935
0.051256
0.111532
0.105432
0.0949653
0.083298
0.0733361
0.0665098
0.0625831
0.0603231
0.059009
0.0582229
0.0577434
0.0574505
0.0573581
0.057347
0.0574463
0.0575873
0.0577845
0.0580236
0.0582936
0.058595
0.0589049
0.0592326
0.0595556
0.0598852
0.0601992
0.0605055
0.0607849
0.0610208
0.0612328
0.0613809
0.0614713
0.0615198
0.0615306
0.0615052
0.0614467
0.0613638
0.0612578
0.0611348
0.0609971
0.0608502
0.060697
0.0605419
0.0604056
0.0602832
0.0601621
0.0600425
0.059925
0.0598109
0.0596999
0.0595942
0.0594931
0.0593991
0.0593111
0.0592314
0.0591584
0.0590946
0.059038
0.0589912
0.0589518
0.0589222
0.0589004
0.0588866
0.0588757
0.0588717
0.0588718
0.0588788
0.0588914
0.0589091
0.0589341
0.0589609
0.0589933
0.0590291
0.0590649
0.0591021
0.0591381
0.0591705
0.0591899
0.0592062
0.0591739
0.0591706
0.0590068
0.0584285
0.116331
0.111627
0.103312
0.0932867
0.0837845
0.076117
0.0703947
0.0669528
0.0650204
0.0638577
0.063161
0.0627281
0.0625076
0.0623396
0.0622484
0.0622017
0.0622206
0.0622932
0.0623957
0.0625432
0.0627159
0.0629269
0.0631613
0.0634254
0.0637077
0.064006
0.0643133
0.0646136
0.0649145
0.0651969
0.0654596
0.0656986
0.0658952
0.0660437
0.0661551
0.066237
0.066288
0.0663137
0.0663174
0.0663042
0.0662771
0.0662402
0.0662041
0.0661665
0.0661251
0.0660809
0.0660348
0.0659886
0.0659424
0.0658982
0.0658555
0.0658169
0.0657813
0.0657514
0.0657255
0.0657066
0.0656924
0.0656861
0.0656853
0.0656925
0.065706
0.0657263
0.0657484
0.0657763
0.0658072
0.0658439
0.065885
0.0659303
0.0659819
0.0660347
0.0660924
0.0661528
0.0662126
0.0662733
0.0663322
0.0663869
0.0664285
0.0664646
0.0664572
0.0664605
0.0663495
0.0657783
0.120468
0.117181
0.110861
0.102875
0.0947756
0.0875446
0.0814456
0.0766593
0.0730279
0.0705962
0.0691955
0.0683067
0.0677063
0.0672489
0.0669704
0.0667976
0.0667233
0.0666661
0.0666089
0.0665916
0.0666025
0.0666588
0.066754
0.0668897
0.0670627
0.0672662
0.0675008
0.0677558
0.0680357
0.0683294
0.0686364
0.0689482
0.069259
0.069558
0.0698437
0.070101
0.0703201
0.0705112
0.0706784
0.0708243
0.0709509
0.0710615
0.0711537
0.0712257
0.0712879
0.0713421
0.0713899
0.0714335
0.0714733
0.0715115
0.0715479
0.0715849
0.0716219
0.0716613
0.0717019
0.0717462
0.0717928
0.0718443
0.071899
0.0719593
0.0720237
0.0720929
0.0721629
0.0722371
0.072313
0.0723933
0.0724766
0.072563
0.0726544
0.0727462
0.0728422
0.0729399
0.0730368
0.0731343
0.0732295
0.0733203
0.0733995
0.0734715
0.0735077
0.0735386
0.0735008
0.0730019
0.123925
0.121716
0.117293
0.111471
0.104989
0.0985656
0.0928368
0.0880145
0.0840318
0.0807876
0.0782253
0.0760649
0.0743642
0.0731138
0.0723534
0.0718481
0.0714827
0.0711875