/*--------------------------------*- C++ -*----------------------------------*\
| =========                 |                                                 |
| \\      /  F ield         | OpenFOAM: The Open Source CFD Toolbox           |
|  \\    /   O peration     | Version:  5.x                                   |
|   \\  /    A nd           | Web:      www.OpenFOAM.org                      |
|    \\/     M anipulation  |                                                 |
\*---------------------------------------------------------------------------*/
FoamFile
{
    version     2.0;
    format      ascii;
    class       surfaceScalarField;
    location    "1150";
    object      phi;
}
// * * * * * * * * * * * * * * * * * * * * * * * * * * * * * * * * * * * * * //

dimensions      [0 3 -1 0 0 0 0];

internalField   nonuniform List<scalar> 
83317
(
0.000496158
0.000108965
-0.000606423
0.000401641
9.45169e-05
0.000326632
7.50088e-05
0.00029478
3.18519e-05
0.000277275
1.75052e-05
0.000263251
1.40236e-05
0.000252793
1.04585e-05
0.000244955
7.83717e-06
0.00023859
6.3653e-06
0.000232954
5.63555e-06
0.000227986
4.96546e-06
0.000222808
5.17907e-06
0.000218754
4.05087e-06
0.000214746
4.00871e-06
0.000212296
2.44713e-06
0.000210481
1.81575e-06
0.000208596
1.88247e-06
0.000207151
1.44659e-06
0.000205163
1.98445e-06
0.000203547
1.61824e-06
0.00020187
1.67551e-06
0.000200053
1.81635e-06
0.000198698
1.35423e-06
0.000197031
1.6665e-06
0.000195724
1.30627e-06
0.000194435
1.28758e-06
0.000192874
1.56016e-06
0.000191604
1.26975e-06
0.000190543
1.05982e-06
0.000189372
1.17041e-06
0.00018791
1.45993e-06
0.000186571
1.32715e-06
0.00018581
7.67085e-07
0.000184947
8.61821e-07
0.000184133
8.08001e-07
0.000183531
6.0391e-07
0.000182797
7.23328e-07
0.000182499
2.97709e-07
0.000182568
-7.52891e-08
0.000182635
-6.49516e-08
0.000182678
-5.29054e-08
0.00017816
4.52015e-06
0.000174333
3.81651e-06
0.000173831
4.91042e-07
0.000173419
4.10071e-07
0.000173349
8.25185e-08
0.000172944
3.8492e-07
0.000172571
3.79095e-07
0.00017225
3.06883e-07
0.000171973
2.83564e-07
0.000171739
2.19521e-07
0.00017155
1.93956e-07
0.000171395
1.35558e-07
0.000171289
1.27175e-07
0.000170855
4.07031e-07
0.000170482
3.70381e-07
0.000170784
-3.05987e-07
0.000170818
-2.11643e-08
0.000170832
-3.54153e-08
0.000171219
-3.61982e-07
0.000171291
-1.05263e-07
0.000171037
2.64639e-07
0.000170986
2.41121e-08
0.000170899
1.09594e-07
0.000170761
9.98473e-08
0.000170528
2.69217e-07
0.000170029
4.48559e-07
0.000169855
2.15355e-07
0.000169725
6.97229e-08
0.000168952
8.30178e-07
0.000168093
7.88366e-07
0.00016756
6.14139e-07
0.000166266
1.18481e-06
0.000164563
1.8236e-06
0.000163156
1.27765e-06
0.000161298
2.04139e-06
0.000158564
2.51378e-06
0.000155481
3.40387e-06
0.000151445
3.68127e-06
0.000148634
3.54348e-06
7.735e-05
7.07445e-05
-0.000328587
0.000405794
0.000749623
0.000252467
-0.00089313
0.000577942
0.000266198
0.0004591
0.000193851
0.00041186
7.90918e-05
0.000391523
3.78418e-05
0.000377508
2.80387e-05
0.00036998
1.79861e-05
0.000366122
1.16951e-05
0.000364177
8.31078e-06
0.00036343
6.38204e-06
0.000363119
5.27587e-06
0.000362844
5.4534e-06
0.000362993
3.90075e-06
0.000363242
3.76019e-06
0.000365119
5.68167e-07
0.000366769
1.66743e-07
0.000369363
-7.13125e-07
0.000371499
-6.8956e-07
0.000373788
-3.05675e-07
0.000375827
-4.20091e-07
0.000377074
4.27783e-07
0.000378523
3.67238e-07
0.000379035
8.41087e-07
0.000379528
1.1735e-06
0.000379472
1.36153e-06
0.00037894
1.81988e-06
0.00037871
1.78916e-06
0.000377746
2.23278e-06
0.000376548
2.25773e-06
0.0003752
2.51806e-06
0.000374051
2.60815e-06
0.000372697
2.67395e-06
0.000370769
2.69799e-06
0.000368948
2.68294e-06
0.000367034
2.71811e-06
0.000365044
2.59507e-06
0.000363158
2.60264e-06
0.000361035
2.42059e-06
0.000358617
2.33999e-06
0.000356398
2.15489e-06
0.000354193
2.14587e-06
0.000355774
2.94018e-06
0.000358356
1.22948e-06
0.000358548
2.92751e-07
0.000357977
9.793e-07
0.000357053
1.01273e-06
0.000356357
1.07097e-06
0.000355682
1.05634e-06
0.000355005
9.76454e-07
0.000354354
9.37863e-07
0.000353718
8.47424e-07
0.000353111
8.02852e-07
0.000352525
7.11199e-07
0.000351961
7.02421e-07
0.000351659
6.94599e-07
0.000351375
6.52226e-07
0.000350636
4.30856e-07
0.000350154
4.67308e-07
0.000349701
4.06398e-07
0.000349047
3.05116e-07
0.00034863
2.93007e-07
0.000348378
5.22224e-07
0.000347786
6.00667e-07
0.00034714
7.68051e-07
0.000346403
8.15232e-07
0.000345623
1.06853e-06
0.000344913
1.13075e-06
0.000343747
1.40263e-06
0.000342437
1.34635e-06
0.000341272
2.02476e-06
0.000339889
2.13301e-06
0.000338007
2.53794e-06
0.00033617
2.96218e-06
0.000334149
3.9088e-06
0.00033136
3.9974e-06
0.000328172
5.32426e-06
0.000324424
6.1415e-06
0.000320001
7.99689e-06
0.000313435
1.0055e-05
0.000309463
7.91493e-06
0.000172722
0.000207207
-0.000658011
0.000501942
0.00099322
0.00043039
-0.00117114
0.000758419
0.000500999
0.000595864
0.000356406
0.000533721
0.000141235
0.00050919
6.23721e-05
0.000493875
4.33536e-05
0.000487823
2.40384e-05
0.00048659
1.29283e-05
0.0004878
7.10098e-06
0.000490635
3.54625e-06
0.000493757
2.15362e-06
0.000496891
2.31949e-06
0.000499907
8.8381e-07
0.000502496
1.17115e-06
0.000506674
-3.61082e-06
0.000509842
-3.00083e-06
0.000514221
-5.09308e-06
0.000517737
-4.20543e-06
0.000521387
-3.95625e-06
0.000524627
-3.65997e-06
0.000526889
-1.83425e-06
0.00052923
-1.97424e-06
0.000530298
-2.2633e-07
0.000531286
1.85253e-07
0.000531547
1.0998e-06
0.000531392
1.97434e-06
0.000531167
2.01462e-06
0.000530193
3.20662e-06
0.000529148
3.3024e-06
0.000527662
4.00389e-06
0.000526176
4.0937e-06
0.000524396
4.45014e-06
0.000522323
4.77295e-06
0.00052013
4.87497e-06
0.00051775
5.09621e-06
0.000515242
5.10409e-06
0.000512574
5.26696e-06
0.000509749
5.24524e-06
0.000506626
5.46171e-06
0.000503505
5.27588e-06
0.0005001
5.54803e-06
0.000503342
-3.0105e-07
0.000507942
-3.3739e-06
0.000508071
1.60498e-07
0.000507398
1.65105e-06
0.000506501
1.9138e-06
0.000505645
1.9212e-06
0.000504806
1.89697e-06
0.00050395
1.82776e-06
0.000503115
1.77501e-06
0.000502288
1.67008e-06
0.000501486
1.60627e-06
0.000500702
1.48886e-06
0.00049993
1.48106e-06
0.000499278
1.33822e-06
0.000498636
1.29358e-06
0.000497833
1.23256e-06
0.000497141
1.16322e-06
0.000496476
1.06491e-06
0.00049575
1.03899e-06
0.000495118
9.14536e-07
0.000494497
1.1468e-06
0.000493625
1.46439e-06
0.000492693
1.70728e-06
0.000491621
1.87496e-06
0.000490519
2.18193e-06
0.000489291
2.3431e-06
0.000487881
2.82639e-06
0.000486238
2.9701e-06
0.000484412
3.86901e-06
0.000482561
3.96135e-06
0.000480157
4.96885e-06
0.000477478
5.60553e-06
0.00047464
6.7866e-06
0.000471102
7.49315e-06
0.000466844
9.64291e-06
0.00046172
1.11948e-05
0.000455947
1.38743e-05
0.000447472
1.84172e-05
0.000442412
1.32141e-05
0.000268325
0.000381118
-0.00101916
0.000629277
0.00128878
0.000642725
-0.00150112
0.000985113
0.000804665
0.000768336
0.000573184
0.000686656
0.000222915
0.000656023
9.30044e-05
0.000638494
6.08829e-05
0.000633067
2.9465e-05
0.000633676
1.23199e-05
0.000637297
3.47956e-06
0.000642874
-2.0305e-06
0.00064887
-3.84378e-06
0.000654658
-3.46854e-06
0.00066017
-4.62864e-06
0.000664391
-3.04916e-06
0.000669826
-9.04701e-06
0.000673824
-6.99842e-06
0.000678872
-1.01422e-05
0.000683067
-8.39994e-06
0.000687156
-8.04641e-06
0.000690883
-7.38579e-06
0.000693537
-4.48954e-06
0.00069616
-4.59749e-06
0.000697499
-1.56583e-06
0.000698609
-9.24925e-07
0.000699006
7.02623e-07
0.000698938
2.04256e-06
0.000698637
2.31516e-06
0.000697606
4.23759e-06
0.000696549
4.35908e-06
0.00069494
5.61268e-06
0.000693195
5.83752e-06
0.000691139
6.50339e-06
0.000688931
6.98252e-06
0.000686507
7.29857e-06
0.000683849
7.75205e-06
0.000681059
7.89441e-06
0.000677979
8.3439e-06
0.00067481
8.414e-06
0.00067137
8.90108e-06
0.000667839
8.80596e-06
0.000663867
9.51809e-06
0.000666835
-3.26897e-06
0.000671589
-8.13025e-06
0.00067174
5.96964e-09
0.00067099
2.40091e-06
0.000670076
2.8295e-06
0.00066909
2.90326e-06
0.00066812
2.86799e-06
0.000667131
2.81329e-06
0.000666165
2.74184e-06
0.000665207
2.62413e-06
0.000664279
2.53549e-06
0.00066337
2.39268e-06
0.000662476
2.38003e-06
0.000661603
2.20425e-06
0.000660745
2.15081e-06
0.000659918
2.05874e-06
0.000659114
1.96951e-06
0.000658331
1.84266e-06
0.000657591
1.78486e-06
0.000656846
1.65129e-06
0.000656001
1.99366e-06
0.000654937
2.52101e-06
0.000653794
2.85548e-06
0.000652467
3.19224e-06
0.000651088
3.56871e-06
0.000649451
3.96674e-06
0.000647761
4.52547e-06
0.00064579
4.92663e-06
0.000643379
6.29226e-06
0.00064099
6.33308e-06
0.000638026
7.95089e-06
0.000634503
9.10026e-06
0.000630733
1.05858e-05
0.000626266
1.19286e-05
0.000620796
1.51546e-05
0.00061409
1.7845e-05
0.00060661
2.14303e-05
0.000595745
2.91948e-05
0.000589278
1.98639e-05
0.000390244
0.000580033
-0.00142407
0.000794913
0.00164251
0.000883878
-0.00188365
0.00126179
0.00118538
0.000981506
0.000853472
0.000873854
0.000330567
0.000834065
0.000132793
0.000812622
8.23257e-05
0.000806149
3.59378e-05
0.000807397
1.10717e-05
0.000812634
-1.75706e-06
0.000820385
-9.78185e-06
0.000829066
-1.25247e-05
0.000837471
-1.1874e-05
0.000845796
-1.29538e-05
0.000852212
-9.46462e-06
0.000859418
-1.62535e-05
0.000864818
-1.23987e-05
0.000870998
-1.63222e-05
0.000876324
-1.37264e-05
0.000881315
-1.30372e-05
0.000885956
-1.20266e-05
0.000889323
-7.85722e-06
0.000892576
-7.85051e-06
0.000894455
-3.44498e-06
0.000895944
-2.41355e-06
0.000896672
-2.63689e-08
0.000896776
1.93873e-06
0.00089662
2.47067e-06
0.000895636
5.22224e-06
0.000894569
5.42569e-06
0.000892892
7.2891e-06
0.000891017
7.71263e-06
0.000888795
8.72324e-06
0.000886381
9.397e-06
0.000883725
9.95429e-06
0.000880791
1.06858e-05
0.000877709
1.09763e-05
0.00087429
1.17603e-05
0.000870772
1.19324e-05
0.000866945
1.27272e-05
0.000863011
1.27401e-05
0.000858559
1.39676e-05
0.000861132
-5.84139e-06
0.000865957
-1.29571e-05
0.000866262
-3.01455e-07
0.000865459
3.20424e-06
0.000864451
3.83889e-06
0.000863341
4.0101e-06
0.000862245
3.96491e-06
0.000861129
3.92694e-06
0.000860035
3.83662e-06
0.000858953
3.70342e-06
0.000857904
3.58558e-06
0.000856877
3.41609e-06
0.000855866
3.39433e-06
0.000854865
3.20049e-06
0.000853884
3.13139e-06
0.000852956
2.98544e-06
0.00085205
2.87812e-06
0.00085116
2.72893e-06
0.000850335
2.61407e-06
0.000849489
2.49135e-06
0.000848503
2.98165e-06
0.000847245
3.77442e-06
0.000845875
4.22936e-06
0.000844274
4.78608e-06
0.000842589
5.26072e-06
0.000840583
5.96311e-06
0.000838488
6.62774e-06
0.000836061
7.34245e-06
0.000833064
9.29998e-06
0.000830043
9.34184e-06
0.000826345
1.16635e-05
0.000821909
1.35165e-05
0.000817107
1.54098e-05
0.000811446
1.7566e-05
0.000804528
2.21072e-05
0.000796002
2.63306e-05
0.000786452
3.10394e-05
0.000772616
4.29675e-05
0.000764407
2.82095e-05
0.00054823
0.000796113
-0.00188129
0.00100526
0.00206373
0.00115096
-0.00233081
0.00159366
0.00165545
0.00123768
0.00120945
0.00109819
0.00047005
0.0010466
0.000184387
0.00102008
0.000108841
0.00101204
4.39807e-05
0.00101391
9.19945e-06
0.00102105
-8.89929e-06
0.00103147
-2.01942e-05
0.00104341
-2.44686e-05
0.00105507
-2.35345e-05
0.00106691
-2.47941e-05
0.00107634
-1.88941e-05
0.00108624
-2.61557e-05
0.00109379
-1.99489e-05
0.00110175
-2.42797e-05
0.00110874
-2.07145e-05
0.0011151
-1.93996e-05
0.00112108
-1.80057e-05
0.00112551
-1.22852e-05
0.00112972
-1.20605e-05
0.0011324
-6.12789e-06
0.0011345
-4.51193e-06
0.00113575
-1.27956e-06
0.00113617
1.51592e-06
0.00113631
2.33086e-06
0.00113547
6.06323e-06
0.00113447
6.4281e-06
0.00113278
8.97742e-06
0.00113083
9.65881e-06
0.00112849
1.10631e-05
0.00112587
1.20175e-05
0.00112299
1.28375e-05
0.00111977
1.39015e-05
0.00111639
1.436e-05
0.00111263
1.55198e-05
0.00110874
1.58202e-05
0.00110449
1.69774e-05
0.00110012
1.71025e-05
0.00109517
1.89168e-05
0.00109732
-7.9886e-06
0.00110223
-1.78711e-05
0.00110276
-8.28084e-07
0.00110193
4.03185e-06
0.00110082
4.94856e-06
0.00109959
5.2368e-06
0.00109837
5.18366e-06
0.00109713
5.1681e-06
0.00109591
5.05463e-06
0.0010947
4.90726e-06
0.00109353
4.75508e-06
0.00109239
4.55687e-06
0.00109127
4.5216e-06
0.00109016
4.30506e-06
0.00108907
4.214e-06
0.00108803
4.03059e-06
0.00108702
3.88651e-06
0.00108603
3.72056e-06
0.0010851
3.54162e-06
0.00108416
3.4321e-06
0.00108304
4.0966e-06
0.00108157
5.24051e-06
0.00107995
5.85552e-06
0.00107804
6.68979e-06
0.001076
7.30472e-06
0.00107358
8.36971e-06
0.001071
9.21958e-06
0.00106802
1.03105e-05
0.00106434
1.29812e-05
0.00106057
1.31085e-05
0.00105598
1.62635e-05
0.00105046
1.90097e-05
0.00104443
2.14604e-05
0.00103731
2.46642e-05
0.00102865
3.08011e-05
0.00101793
3.70047e-05
0.00100587
4.31522e-05
0.00098841
6.03691e-05
0.000978036
3.8706e-05
0.000747428
0.00102665
-0.00239913
0.00126503
0.0025674
0.00144109
-0.00285752
0.00199393
0.00222891
0.00154635
0.00165704
0.00136866
0.000647745
0.00130266
0.000250387
0.00127005
0.000141452
0.00126029
5.37404e-05
0.00126307
6.41841e-06
0.00127265
-1.84812e-05
0.00128643
-3.39705e-05
0.00130241
-4.04501e-05
0.00131812
-3.92455e-05
0.0013343
-4.09791e-05
0.00134758
-3.21713e-05
0.00136111
-3.96853e-05
0.00137161
-3.04511e-05
0.00138206
-3.47285e-05
0.00139131
-2.99608e-05
0.00139956
-2.76583e-05
0.00140735
-2.5794e-05
0.00141325
-1.81789e-05
0.00141878
-1.75965e-05
0.00142257
-9.91323e-06
0.00142554
-7.48709e-06
0.00142755
-3.2835e-06
0.00142847
5.89763e-07
0.00142906
1.73819e-06
0.00142849
6.63917e-06
0.00142765
7.26414e-06
0.00142603
1.06026e-05
0.00142406
1.16224e-05
0.00142164
1.34891e-05
0.00141883
1.48194e-05
0.00141574
1.59367e-05
0.00141223
1.74033e-05
0.00140854
1.80537e-05
0.00140441
1.96454e-05
0.00140013
2.01001e-05
0.00139543
2.16816e-05
0.0013906
2.19247e-05
0.00138511
2.44083e-05
0.00138681
-9.68549e-06
0.00139184
-2.29011e-05
0.00139264
-1.63012e-06
0.00139182
4.84935e-06
0.00139062
6.14661e-06
0.00138928
6.5743e-06
0.00138795
6.52103e-06
0.00138658
6.53215e-06
0.00138524
6.39536e-06
0.00138391
6.23537e-06
0.00138262
6.04116e-06
0.00138136
5.81496e-06
0.00138013
5.76107e-06
0.00137891
5.51872e-06
0.00137773
5.39732e-06
0.00137656
5.19352e-06
0.00137546
4.99451e-06
0.00137435
4.81947e-06
0.00137333
4.56454e-06
0.00137229
4.47274e-06
0.00137104
5.34688e-06
0.00136933
6.94671e-06
0.00136742
7.76813e-06
0.00136515
8.95462e-06
0.0013627
9.76188e-06
0.0013598
1.12619e-05
0.00135663
1.23917e-05
0.001353
1.39355e-05
0.00134852
1.74698e-05
0.00134383
1.77892e-05
0.00133817
2.19336e-05
0.00133136
2.58092e-05
0.00132383
2.89992e-05
0.00131495
3.35348e-05
0.00130416
4.16143e-05
0.00129079
5.03472e-05
0.00127566
5.83183e-05
0.00125379
8.21953e-05
0.00124071
5.1876e-05
0.000993203
0.0012741
-0.0029859
0.00157981
0.00317136
0.00175011
-0.00348038
0.00247991
0.00292036
0.00192159
0.00221536
0.0016977
0.000871634
0.00161396
0.00033413
0.00157391
0.000181495
0.00156218
6.54692e-05
0.00156617
2.43713e-06
0.00157879
-3.11069e-05
0.00159674
-5.19199e-05
0.00161769
-6.13968e-05
0.0016384
-5.99588e-05
0.00165993
-6.25079e-05
0.00167801
-5.02532e-05
0.0016962
-5.78762e-05
0.00171058
-4.48303e-05
0.00172435
-4.85029e-05
0.00173657
-4.21806e-05
0.00174735
-3.84307e-05
0.00175751
-3.59616e-05
0.00176536
-2.60197e-05
0.00177265
-2.48951e-05
0.00177791
-1.51711e-05
0.00178208
-1.16607e-05
0.00178511
-6.31083e-06
0.00178677
-1.06934e-06
0.00178801
4.98161e-07
0.00178785
6.79954e-06
0.00178732
7.79673e-06
0.00178585
1.20712e-05
0.00178394
1.35316e-05
0.00178148
1.59506e-05
0.00177853
1.77639e-05
0.00177524
1.9231e-05
0.00177145
2.11842e-05
0.00176745
2.20597e-05
0.00176294
2.41534e-05
0.00175825
2.47906e-05
0.00175306
2.68653e-05
0.00174775
2.72356e-05
0.00174167
3.04863e-05
0.00174287
-1.08867e-05
0.00174804
-2.80643e-05
0.00174917
-2.76467e-06
0.00174841
5.60851e-06
0.00174715
7.40575e-06
0.00174571
8.01189e-06
0.00174427
7.96594e-06
0.00174278
8.01273e-06
0.00174133
7.85292e-06
0.00173988
7.68165e-06
0.00173848
7.43926e-06
0.00173711
7.18494e-06
0.00173576
7.1071e-06
0.00173444
6.84208e-06
0.00173315
6.67984e-06
0.00173188
6.46901e-06
0.00173067
6.198e-06
0.00172947
6.02067e-06
0.00172836
5.67576e-06
0.00172722
5.61055e-06
0.00172582
6.74212e-06
0.00172385
8.91885e-06
0.00172161
1.00092e-05
0.00171892
1.16353e-05
0.00171599
1.27009e-05
0.00171251
1.4729e-05
0.00170866
1.6252e-05
0.00170425
1.83345e-05
0.00169879
2.29318e-05
0.00169301
2.3568e-05
0.00168606
2.88896e-05
0.00167767
3.41835e-05
0.00166833
3.83545e-05
0.00165729
4.45527e-05
0.00164392
5.50026e-05
0.00162731
6.6928e-05
0.00160845
7.72164e-05
0.00158122
0.000109385
0.00156474
6.84429e-05
0.00129499
0.00154381
-0.00365044
0.00195934
0.00389677
0.00207311
-0.00421976
0.0030719
0.00374522
0.00238024
0.00290702
0.00210018
0.0011517
0.00199432
0.000439985
0.00194508
0.000230733
0.00193099
7.95641e-05
0.00193645
-3.02761e-06
0.00195281
-4.74651e-05
0.00197589
-7.49937e-05
0.00200291
-8.84202e-05
0.00202976
-8.68131e-05
0.00205785
-9.05918e-05
0.00208188
-7.42834e-05
0.00210594
-8.19434e-05
0.0021253
-6.41855e-05
0.00214341
-6.66094e-05
0.00215948
-5.82499e-05
0.00217352
-5.24784e-05
0.00218676
-4.92022e-05
0.00219714
-3.64002e-05
0.00220674
-3.44935e-05
0.00221393
-2.23617e-05
0.0022197
-1.74277e-05
0.0022241
-1.07096e-05
0.00222677
-3.74222e-06
0.00222891
-1.63783e-06
0.00222936
6.349e-06
0.0022293
7.85829e-06
0.00222811
1.32532e-05
0.00222636
1.5288e-05
0.00222393
1.83732e-05
0.0022209
2.0798e-05
0.00221745
2.26806e-05
0.0022134
2.5229e-05
0.0022091
2.63669e-05
0.0022042
2.90547e-05
0.00219908
2.99037e-05
0.0021934
3.25498e-05
0.00218757
3.30619e-05
0.00218087
3.71895e-05
0.00218151
-1.15332e-05
0.0021868
-3.33547e-05
0.00218833
-4.29496e-06
0.00218769
6.25093e-06
0.0021864
8.69242e-06
0.00218488
9.5294e-06
0.00218335
9.50321e-06
0.00218176
9.59858e-06
0.0021802
9.41594e-06
0.00217864
9.23618e-06
0.00217714
8.94159e-06
0.00217566
8.65867e-06
0.00217422
8.55169e-06
0.00217279
8.26872e-06
0.00217141
8.05587e-06
0.00217003
7.84997e-06
0.00216874
7.48724e-06
0.00216744
7.32192e-06
0.00216626
6.86405e-06
0.00216502
6.83997e-06
0.00216347
8.29076e-06
0.0021612
1.11904e-05
0.00215859
1.26263e-05
0.00215542
1.48018e-05
0.00215191
1.62095e-05
0.00214775
1.88806e-05
0.00214308
2.09295e-05
0.00213775
2.36632e-05
0.00213112
2.95628e-05
0.002124
3.06781e-05
0.0021155
3.74008e-05
0.0021052
4.44747e-05
0.00209365
4.99166e-05
0.00208
5.81856e-05
0.00206349
7.15281e-05
0.00204294
8.74639e-05
0.00201951
0.000100667
0.00198575
0.000143122
0.00196498
8.92775e-05
0.00166733
0.00184142
-0.00440133
0.00241813
0.00476902
0.00240416
-0.00510007
0.00379397
0.00472027
0.00294256
0.00375844
0.00259406
0.00150019
0.00246045
0.000573603
0.00239971
0.000291465
0.00238266
9.66148e-05
0.0023899
-1.0264e-05
0.00241079
-6.83544e-05
0.00244011
-0.000104314
0.00247455
-0.000122859
0.00250891
-0.00012118
0.00254502
-0.0001267
0.00257638
-0.000105638
0.00260776
-0.000113332
0.00263342
-8.98408e-05
0.00265709
-9.02784e-05
0.00267809
-7.92541e-05
0.00269635
-7.07381e-05
0.00271353
-6.63818e-05
0.00272719
-5.00548e-05
0.00273976
-4.70636e-05
0.00274945
-3.20559e-05
0.00275731
-2.5289e-05
0.00276351
-1.69138e-05
0.00276756
-7.78932e-06
0.00277091
-4.98888e-06
0.00277222
5.03634e-06
0.00277285
7.22929e-06
0.00277213
1.39793e-05
0.00277066
1.67524e-05
0.00276838
2.06514e-05
0.00276534
2.38404e-05
0.00276179
2.62282e-05
0.00275752
2.94999e-05
0.00275294
3.09497e-05
0.00274765
3.4343e-05
0.00274211
3.5438e-05
0.00273592
3.87461e-05
0.00272956
3.94174e-05
0.00272221
4.45437e-05
0.00272222
-1.15473e-05
0.00272761
-3.87469e-05
0.0027296
-6.2897e-06
0.00272915
6.69993e-06
0.00272789
9.95816e-06
0.00272632
1.10953e-05
0.00272472
1.11076e-05
0.00272304
1.12682e-05
0.0027214
1.10633e-05
0.00271975
1.08835e-05
0.00271816
1.05268e-05
0.0027166
1.02196e-05
0.00271508
1.00768e-05
0.00271356
9.78655e-06
0.0027121
9.50861e-06
0.00271063
9.32327e-06
0.00270927
8.84795e-06
0.00270788
8.7075e-06
0.00270663
8.11274e-06
0.00270532
8.14903e-06
0.00270362
9.99262e-06
0.00270101
1.37938e-05
0.00269797
1.56714e-05
0.00269423
1.85307e-05
0.00269006
2.03838e-05
0.0026851
2.38403e-05
0.00267945
2.65814e-05
0.00267301
3.00961e-05
0.00266498
3.75993e-05
0.00265626
3.93896e-05
0.00264587
4.77903e-05
0.00263326
5.70767e-05
0.00261902
6.41676e-05
0.0026022
7.49907e-05
0.00258187
9.18706e-05
0.00255652
0.000112799
0.00252753
0.000129678
0.00248582
0.000184797
0.00245958
0.00011559
0.00212934
0.00217163
-0.00524674
0.0029746
0.00581841
0.00273544
-0.00614969
0.00467504
0.00586364
0.00363318
0.0048003
0.00320143
0.00193194
0.00303278
0.000742249
0.00295756
0.000366693
0.00293674
0.000117435
0.00294602
-1.95491e-05
0.00297236
-9.46944e-05
0.00300925
-0.000141207
0.0030527
-0.000166309
0.00309623
-0.000164703
0.00314213
-0.0001726
0.00318246
-0.000145971
0.00322292
-0.000153787
0.00325647
-0.000123393
0.00328719
-0.000121005
0.00331447
-0.00010653
0.00333811
-9.43794e-05
0.0033603
-8.85718e-05
0.00337815
-6.79009e-05
0.00339452
-6.34387e-05
0.00340744
-4.49742e-05
0.00341802
-3.5869e-05
0.00342658
-2.54761e-05
0.00343246
-1.36642e-05
0.00343743
-9.96039e-06
0.00343993
2.53513e-06
0.00344153
5.62437e-06
0.00344149
1.40254e-05
0.0034405
1.77429e-05
0.00343851
2.26371e-05
0.00343557
2.67807e-05
0.00343201
2.97843e-05
0.00342758
3.3938e-05
0.00342276
3.57607e-05
0.00341711
3.99939e-05
0.00341118
4.13742e-05
0.00340447
4.54529e-05
0.00339759
4.6301e-05
0.00338957
5.25623e-05
0.00338886
-1.08458e-05
0.00339431
-4.41919e-05
0.00339683
-8.81309e-06
0.00339667
6.86164e-06
0.00339549
1.11366e-05
0.00339392
1.26638e-05
0.00339229
1.27411e-05
0.00339057
1.29886e-05
0.00338886
1.27653e-05
0.00338715
1.25941e-05
0.00338551
1.21677e-05
0.00338389
1.18416e-05
0.00338231
1.16551e-05
0.00338072
1.13716e-05
0.00337922
1.10152e-05
0.00337767
1.0867e-05
0.00337627
1.02545e-05
0.00337481
1.01614e-05
0.00337353
9.39664e-06
0.00337216
9.51785e-06
0.0033703
1.1847e-05
0.00336733
1.67628e-05
0.0033638
1.9202e-05
0.00335942
2.29132e-05
0.00335446
2.53415e-05
0.00334854
2.97573e-05
0.00334173
3.3394e-05
0.00333397
3.7853e-05
0.00332425
4.73221e-05
0.0033136
5.00378e-05
0.00330094
6.0451e-05
0.00328553
7.24828e-05
0.00326803
8.16771e-05
0.00324735
9.56593e-05
0.00322238
0.000116852
0.00319119
0.000143983
0.00315542
0.000165459
0.00310408
0.000236128
0.00307081
0.000148902
0.00270507
0.00253734
-0.00619271
0.00365099
0.00708126
0.00305624
-0.00740206
0.00575026
0.00719464
0.00448234
0.00606822
0.00394959
0.00246469
0.00373664
0.000955208
0.00364299
0.000460343
0.00361725
0.000143168
0.00362884
-3.11333e-05
0.00366168
-0.000127535
0.0037077
-0.00018723
0.00376206
-0.000220673
0.0038167
-0.000219343
0.00387452
-0.000230421
0.00392582
-0.000197267
0.00397743
-0.000205398
0.0040208
-0.000166766
0.00406041
-0.000160611
0.0040956
-0.000141723
0.00412606
-0.000124841
0.0041546
-0.000117105
0.00417777
-9.10779e-05
0.004199
-8.46618e-05
0.00421604
-6.20168e-05
0.00423013
-4.99569e-05
0.00424174
-3.70883e-05
0.00425002
-2.19413e-05
0.00425713
-1.70738e-05
0.00426123
-1.57032e-06
0.00426418
2.67709e-06
0.00426511
1.30981e-05
0.00426484
1.80126e-05
0.00426334
2.41311e-05
0.00426066
2.94626e-05
0.00425723
3.32192e-05
0.00425271
3.84517e-05
0.00424775
4.07206e-05
0.00424179
4.59558e-05
0.00423549
4.7669e-05
0.0042283
5.26463e-05
0.00422091
5.36928e-05
0.00421224
6.12299e-05
0.00421074
-9.34474e-06
0.00421616
-4.96184e-05
0.00421927
-1.19265e-05
0.00421952
6.6193e-06
0.00421851
1.21391e-05
0.00421701
1.41684e-05
0.0042154
1.43474e-05
0.00421368
1.47084e-05
0.00421197
1.4475e-05
0.00421024
1.43233e-05
0.00420859
1.38198e-05
0.00420694
1.34824e-05
0.00420536
1.32453e-05
0.00420374
1.29871e-05
0.00420222
1.2533e-05
0.00420064
1.2448e-05
0.00419923
1.1667e-05
0.00419774
1.16479e-05
0.00419646
1.06792e-05
0.00419506
1.09133e-05
0.00419307
1.3837e-05
0.0041897
2.01287e-05
0.00418562
2.32805e-05
0.00418048
2.80466e-05
0.00417461
3.12132e-05
0.00416757
3.67999e-05
0.00415938
4.15852e-05
0.00415004
4.71854e-05
0.0041383
5.90653e-05
0.00412532
6.30108e-05
0.00410992
7.5852e-05
0.00409113
9.12667e-05
0.00406967
0.000103141
0.00404431
0.000121009
0.00401371
0.000147468
0.00397542
0.000182249
0.00393141
0.000209486
0.00386839
0.00029913
0.00382602
0.000191323
0.00342509
0.00293826
-0.00724234
0.00447461
0.00860148
0.00335156
-0.00889679
0.00706269
0.00873342
0.00552723
0.00760368
0.00487252
0.0031194
0.00460342
0.0012243
0.00448619
0.000577574
0.00445396
0.000175402
0.00446802
-4.51911e-05
0.00450854
-0.000168056
0.0045655
-0.000244193
0.00463303
-0.000288202
0.00470111
-0.000287425
0.00477339
-0.000302701
0.00483802
-0.000261892
0.00490329
-0.000270671
0.00495879
-0.000222264
0.00500948
-0.000211297
0.0050546
-0.000186843
0.00509365
-0.000163896
0.00513017
-0.000153628
0.00516009
-0.000120995
0.00518746
-0.000112028
0.00520974
-8.43037e-05
0.00522832
-6.8532e-05
0.00524386
-5.26247e-05
0.00525526
-3.33462e-05
0.00526517
-2.69819e-05
0.00527141
-7.81573e-06
0.00527617
-2.07904e-06
0.00527845
1.08128e-05
0.00527923
1.72412e-05
0.00527849
2.48683e-05
0.00527628
3.16738e-05
0.00527314
3.63585e-05
0.00526868
4.29053e-05
0.00526369
4.57139e-05
0.0052575
5.21451e-05
0.00525092
5.42486e-05
0.00524329
6.02723e-05
0.00523545
6.15399e-05
0.00522617
7.05027e-05
0.0052238
-6.97224e-06
0.00522911
-5.49301e-05
0.00523286
-1.56755e-05
0.00523364
5.83844e-06
0.00523293
1.28468e-05
0.00523158
1.55184e-05
0.00523008
1.58451e-05
0.00522843
1.63601e-05
0.00522679
1.6121e-05
0.0052251
1.60113e-05
0.0052235
1.54177e-05
0.0052219
1.50841e-05
0.00522036
1.47851e-05
0.00521877
1.4578e-05
0.00521729
1.40072e-05
0.00521572
1.40143e-05
0.00521436
1.30309e-05
0.00521289
1.31212e-05
0.00521166
1.19036e-05
0.00521029
1.22894e-05
0.00520818
1.59376e-05
0.00520439
2.39226e-05
0.0051997
2.79678e-05
0.0051937
3.40472e-05
0.00518677
3.81488e-05
0.00517839
4.51702e-05
0.00516857
5.14132e-05
0.00515735
5.83991e-05
0.00514319
7.32236e-05
0.00512742
7.8783e-05
0.00510872
9.45545e-05
0.00508585
0.000114134
0.00505961
0.000129384
0.00502858
0.000152038
0.00499114
0.000184912
0.00494427
0.000229117
0.00489024
0.000263523
0.00481311
0.000376252
0.00475887
0.000245588
0.00432884
0.00336829
-0.00839333
0.00547982
0.0104325
0.00359997
-0.0106809
0.00866527
0.0105006
0.00681379
0.00945515
0.00601251
0.00392069
0.00567231
0.0015645
0.00552471
0.000725173
0.00548376
0.00021635
0.00550032
-6.17475e-05
0.00554982
-0.000217558
0.00561981
-0.000314188
0.00570315
-0.000371535
0.00578741
-0.000371694
0.00587718
-0.000392464
0.00595794
-0.00034265
0.00603986
-0.000352597
0.00611024
-0.000292641
0.00617465
-0.000275714
0.00623214
-0.000244325
0.00628195
-0.000213708
0.00632847
-0.000200153
0.00636687
-0.000159394
0.00640198
-0.000147134
0.0064309
-0.000113223
0.00645519
-9.28226e-05
0.00647573
-7.31664e-05
0.00649117
-4.87882e-05
0.0065047
-4.05128e-05
0.00651376
-1.68716e-05
0.00652092
-9.24643e-06
0.00652505
6.6831e-06
0.00652729
1.5009e-05
0.00652765
2.45028e-05
0.00652619
3.31305e-05
0.00652359
3.8961e-05
0.00651939
4.71085e-05
0.00651453
5.05735e-05
0.00650824
5.84313e-05
0.00650149
6.09939e-05
0.00649353
6.82388e-05
0.00648531
6.97537e-05
0.00647552
8.0292e-05
0.00647223
-3.68345e-06
0.00647732
-6.00179e-05
0.00648173
-2.00894e-05
0.0064832
4.36758e-06
0.00648294
1.31085e-05
0.00648187
1.65852e-05
0.00648059
1.71249e-05
0.00647911
1.78423e-05
0.00647762
1.76069e-05
0.00647607
1.75666e-05
0.00647461
1.68699e-05
0.00647313
1.65612e-05
0.00647174
1.61852e-05
0.00647025
1.60663e-05
0.0064689
1.53511e-05
0.00646742
1.54936e-05
0.00646619
1.42631e-05
0.0064648
1.45096e-05
0.00646371
1.29917e-05
0.00646242
1.35762e-05
0.00646026
1.8104e-05
0.00645601
2.81624e-05
0.00645065
3.33264e-05
0.00644367
4.10327e-05
0.0064355
4.63146e-05
0.00642557
5.50929e-05
0.00641382
6.31727e-05
0.00640037
7.18435e-05
0.00638333
9.02642e-05
0.0063642
9.79031e-05
0.00634153
0.00011723
0.00631375
0.000141906
0.00628174
0.000161399
0.00624385
0.000189927
0.00619814
0.000230619
0.00614088
0.000286369
0.00607471
0.000329704
0.00598059
0.000470354
0.00591079
0.000315431
0.00546787
0.00381121
-0.00963633
0.00671076
0.0126393
0.00377065
-0.01281
0.0106232
0.0125167
0.0083988
0.0116795
0.00742237
0.00489713
0.00699225
0.00199462
0.00680531
0.000912106
0.00675255
0.000269114
0.00677138
-8.05841e-05
0.00683125
-0.000277423
0.00691665
-0.00039959
0.00701887
-0.000473749
0.00712253
-0.000475359
0.00723335
-0.000503285
0.00733356
-0.000442855
0.00743569
-0.00045473
0.00752421
-0.000381166
0.00760552
-0.000357025
0.0076783
-0.000317101
0.00774148
-0.000276892
0.00780047
-0.000259138
0.00784947
-0.000208392
0.00789427
-0.000191939
0.00793153
-0.000150481
0.00796304
-0.000124332
0.00798993
-0.00010006
0.00801054
-6.93989e-05
0.00802872
-5.86929e-05
0.00804144
-2.95846e-05
0.00805177
-1.95762e-05
0.00805836
8.61754e-08
0.00806259
1.07825e-05
0.00806451
2.25839e-05
0.00806418
3.34641e-05
0.00806243
4.07078e-05
0.00805873
5.0807e-05
0.00805423
5.50686e-05
0.00804803
6.46331e-05
0.00804129
6.77313e-05
0.00803313
7.6404e-05
0.00802469
7.81935e-05
0.00801453
9.04551e-05
0.00801032
5.21639e-07
0.00801507
-6.47637e-05
0.00802014
-2.51656e-05
0.00802247
2.0423e-06
0.00802284
1.27324e-05
0.00802222
1.72063e-05
0.00802131
1.80364e-05
0.00802013
1.90202e-05
0.00801893
1.88027e-05
0.00801763
1.88656e-05
0.00801645
1.80525e-05
0.00801522
1.77952e-05
0.00801408
1.73252e-05
0.0080128
1.7342e-05
0.0080117
1.64487e-05
0.00801041
1.67817e-05
0.00800942
1.5253e-05
0.00800822
1.57144e-05
0.00800738
1.38357e-05
0.00800627
1.46785e-05
0.00800411
2.02665e-05
0.00799941
3.28575e-05
0.00799333
3.94128e-05
0.00798522
4.9138e-05
0.00797564
5.58979e-05
0.0079639
6.68294e-05
0.00794986
7.72092e-05
0.00793377
8.79351e-05
0.0079133
0.000110735
0.00789018
0.000121027
0.00786274
0.000144669
0.00782906
0.00017558
0.00779011
0.000200359
0.00774393
0.000236099
0.00768825
0.000286304
0.00761845
0.000356171
0.00753759
0.000410569
0.00742307
0.000584864
0.00733293
0.000405598
0.00690419
0.00423994
-0.0109585
0.00822643
0.0153016
0.00381898
-0.01535
0.013017
0.0148013
0.0103527
0.0143439
0.00916817
0.00608166
0.00862461
0.00253819
0.00838651
0.00115021
0.0083176
0.000338025
0.00833807
-0.000101061
0.00840971
-0.000349062
0.00851318
-0.000503059
0.00863782
-0.000598392
0.00876462
-0.000602153
0.0089007
-0.000639367