# Forces     
# CofR       : (5.000000e-01 0.000000e+00 0.000000e+00)
# Time       forces(pressure viscous porous)	moments(pressure viscous porous)
1            	((1.157740e-03 4.842418e-03 2.555247e-22) (1.274457e-03 2.770716e-04 -6.047136e-23) (0.000000e+00 0.000000e+00 0.000000e+00)) ((-7.263627e-04 1.736610e-04 2.560498e-04) (-4.156074e-05 1.911685e-04 -4.908864e-05) (0.000000e+00 0.000000e+00 0.000000e+00))
2            	((7.601607e-04 3.528640e-03 1.913984e-22) (7.108101e-04 -9.050406e-06 -4.634854e-23) (0.000000e+00 0.000000e+00 0.000000e+00)) ((-5.292960e-04 1.140241e-04 1.672575e-04) (1.357561e-06 1.066215e-04 -3.578799e-05) (0.000000e+00 0.000000e+00 0.000000e+00))
3            	((-2.129256e-04 -5.178450e-04 -3.074697e-23) (4.693969e-04 -1.086353e-04 5.947030e-24) (0.000000e+00 0.000000e+00 0.000000e+00)) ((7.767675e-05 -3.193884e-05 -5.591119e-05) (1.629529e-05 7.040954e-05 -2.940115e-05) (0.000000e+00 0.000000e+00 0.000000e+00))
4            	((-6.422010e-04 -2.754578e-03 -1.404105e-22) (3.665210e-04 -7.446365e-05 3.315262e-23) (0.000000e+00 0.000000e+00 0.000000e+00)) ((4.131868e-04 -9.633016e-05 -1.633433e-04) (1.116955e-05 5.497815e-05 -2.300401e-05) (0.000000e+00 0.000000e+00 0.000000e+00))
5            	((-3.348789e-04 -1.769011e-03 -1.056871e-22) (3.199868e-04 9.918664e-07 2.558059e-23) (0.000000e+00 0.000000e+00 0.000000e+00)) ((2.653516e-04 -5.023183e-05 -9.184895e-05) (-1.487800e-07 4.799801e-05 -1.670929e-05) (0.000000e+00 0.000000e+00 0.000000e+00))
6            	((1.726702e-04 5.130117e-04 1.445317e-23) (2.876272e-04 4.009479e-05 -3.170160e-24) (0.000000e+00 0.000000e+00 0.000000e+00)) ((-7.695176e-05 2.590054e-05 4.175267e-05) (-6.014218e-06 4.314408e-05 -1.250579e-05) (0.000000e+00 0.000000e+00 0.000000e+00))
7            	((3.370223e-04 1.596086e-03 6.787593e-23) (2.549655e-04 2.785090e-05 -1.687930e-23) (0.000000e+00 0.000000e+00 0.000000e+00)) ((-2.394129e-04 5.055334e-05 9.226487e-05) (-4.177634e-06 3.824483e-05 -1.104260e-05) (0.000000e+00 0.000000e+00 0.000000e+00))
8            	((1.383533e-04 9.079375e-04 4.428522e-23) (2.247230e-04 -2.892406e-06 -1.152508e-23) (0.000000e+00 0.000000e+00 0.000000e+00)) ((-1.361906e-04 2.075299e-05 3.825236e-05) (4.338610e-07 3.370845e-05 -1.115568e-05) (0.000000e+00 0.000000e+00 0.000000e+00))
9            	((-1.117204e-04 -3.610039e-04 6.765320e-24) (2.024505e-04 -1.777073e-05 -1.761132e-24) (0.000000e+00 0.000000e+00 0.000000e+00)) ((5.415058e-05 -1.675806e-05 -4.113734e-05) (2.665609e-06 3.036757e-05 -1.121454e-05) (0.000000e+00 0.000000e+00 0.000000e+00))
10           	((-1.737578e-04 -8.700279e-04 -1.986746e-23) (1.887030e-04 -1.003092e-05 5.151399e-24) (0.000000e+00 0.000000e+00 0.000000e+00)) ((1.305042e-04 -2.606367e-05 -6.536536e-05) (1.504638e-06 2.830545e-05 -1.045676e-05) (0.000000e+00 0.000000e+00 0.000000e+00))
11           	((-6.033955e-05 -4.147210e-04 -1.702755e-23) (1.794845e-04 4.720464e-06 4.225016e-24) (0.000000e+00 0.000000e+00 0.000000e+00)) ((6.220814e-05 -9.050932e-06 -2.961600e-05) (-7.080696e-07 2.692268e-05 -9.216834e-06) (0.000000e+00 0.000000e+00 0.000000e+00))
12           	((6.588988e-05 2.730471e-04 2.890642e-24) (1.704691e-04 1.072269e-05 -1.026520e-24) (0.000000e+00 0.000000e+00 0.000000e+00)) ((-4.095707e-05 9.883482e-06 1.597306e-05) (-1.608403e-06 2.557036e-05 -8.210650e-06) (0.000000e+00 0.000000e+00 0.000000e+00))
13           	((8.565634e-05 4.962698e-04 8.126876e-24) (1.604659e-04 5.895853e-06 -2.540631e-24) (0.000000e+00 0.000000e+00 0.000000e+00)) ((-7.444047e-05 1.284845e-05 2.838181e-05) (-8.843780e-07 2.406989e-05 -7.770888e-06) (0.000000e+00 0.000000e+00 0.000000e+00))
14           	((1.830574e-05 2.094618e-04 -1.065573e-24) (1.509563e-04 -1.458028e-06 -1.820020e-25) (0.000000e+00 0.000000e+00 0.000000e+00)) ((-3.141928e-05 2.745861e-06 7.282998e-06) (2.187042e-07 2.264345e-05 -7.687363e-06) (0.000000e+00 0.000000e+00 0.000000e+00))
15           	((-4.616095e-05 -1.537226e-04 -1.152678e-23) (1.434157e-04 -3.846026e-06 2.514790e-24) (0.000000e+00 0.000000e+00 0.000000e+00)) ((2.305839e-05 -6.924143e-06 -1.844685e-05) (5.769038e-07 2.151236e-05 -7.565044e-06) (0.000000e+00 0.000000e+00 0.000000e+00))
16           	((-5.133064e-05 -2.396301e-04 -1.342317e-23) (1.378173e-04 -9.494143e-07 2.915168e-24) (0.000000e+00 0.000000e+00 0.000000e+00)) ((3.594452e-05 -7.699596e-06 -2.567181e-05) (1.424122e-07 2.067260e-05 -7.219868e-06) (0.000000e+00 0.000000e+00 0.000000e+00))
17           	((-9.428628e-06 -6.213916e-05 4.557067e-25) (1.329737e-04 2.685455e-06 -4.305136e-25) (0.000000e+00 0.000000e+00 0.000000e+00)) ((9.320874e-06 -1.414294e-06 -1.428228e-05) (-4.028183e-07 1.994605e-05 -6.758393e-06) (0.000000e+00 0.000000e+00 0.000000e+00))
18           	((2.381741e-05 1.251456e-04 5.862161e-24) (1.279229e-04 3.473443e-06 -1.743150e-24) (0.000000e+00 0.000000e+00 0.000000e+00)) ((-1.877185e-05 3.572612e-06 -3.135074e-07) (-5.210164e-07 1.918844e-05 -6.378737e-06) (0.000000e+00 0.000000e+00 0.000000e+00))
19           	((2.350988e-05 1.495940e-04 6.314406e-24) (1.227091e-04 1.677020e-06 -1.668234e-24) (0.000000e+00 0.000000e+00 0.000000e+00)) ((-2.243910e-05 3.526482e-06 3.901680e-06) (-2.515530e-07 1.840636e-05 -6.161316e-06) (0.000000e+00 0.000000e+00 0.000000e+00))
20           	((8.635062e-07 4.392038e-05 3.051553e-24) (1.178055e-04 -1.877474e-07 -7.241318e-25) (0.000000e+00 0.000000e+00 0.000000e+00)) ((-6.588057e-06 1.295259e-07 -1.843532e-06) (2.816211e-08 1.767082e-05 -6.036216e-06) (0.000000e+00 0.000000e+00 0.000000e+00))
21           	((-1.632848e-05 -4.849631e-05 3.426133e-25) (1.135870e-04 -4.203289e-07 -1.201314e-25) (0.000000e+00 0.000000e+00 0.000000e+00)) ((7.274446e-06 -2.449272e-06 -9.079940e-06) (6.304934e-08 1.703805e-05 -5.893208e-06) (0.000000e+00 0.000000e+00 0.000000e+00))
22           	((-1.489693e-05 -4.854015e-05 4.124316e-25) (1.099850e-04 6.060841e-07 -3.470610e-25) (0.000000e+00 0.000000e+00 0.000000e+00)) ((7.281023e-06 -2.234539e-06 -1.163385e-05) (-9.091262e-08 1.649776e-05 -5.690583e-06) (0.000000e+00 0.000000e+00 0.000000e+00))
23           	((-3.414154e-06 1.363768e-05 -7.734212e-25) (1.067014e-04 1.500011e-06 -2.637430e-25) (0.000000e+00 0.000000e+00 0.000000e+00)) ((-2.045652e-06 -5.121231e-07 -8.968884e-06) (-2.250017e-07 1.600522e-05 -5.466796e-06) (0.000000e+00 0.000000e+00 0.000000e+00))
24           	((4.972114e-06 5.898466e-05 5.668478e-25) (1.035188e-04 1.467137e-06 -5.262379e-25) (0.000000e+00 0.000000e+00 0.000000e+00)) ((-8.847699e-06 7.458171e-07 -5.312945e-06) (-2.200705e-07 1.552782e-05 -5.277427e-06) (0.000000e+00 0.000000e+00 0.000000e+00))
25           	((2.974416e-06 5.142888e-05 3.354659e-25) (1.004132e-04 8.332587e-07 -2.924273e-25) (0.000000e+00 0.000000e+00 0.000000e+00)) ((-7.714332e-06 4.461624e-07 -4.062516e-06) (-1.249888e-07 1.506198e-05 -5.138005e-06) (0.000000e+00 0.000000e+00 0.000000e+00))
26           	((-4.024509e-06 1.637139e-05 -7.115759e-25) (9.752601e-05 3.647095e-07 7.897070e-26) (0.000000e+00 0.000000e+00 0.000000e+00)) ((-2.455709e-06 -6.036764e-07 -5.334188e-06) (-5.470642e-08 1.462890e-05 -5.022378e-06) (0.000000e+00 0.000000e+00 0.000000e+00))
27           	((-7.874900e-06 -3.681949e-06 -1.329088e-24) (9.492178e-05 4.191507e-07 1.858531e-25) (0.000000e+00 0.000000e+00 0.000000e+00)) ((5.522923e-07 -1.181235e-06 -7.092642e-06) (-6.287260e-08 1.423827e-05 -4.899585e-06) (0.000000e+00 0.000000e+00 0.000000e+00))
28           	((-6.131268e-06 5.209024e-06 -1.103944e-24) (9.253795e-05 7.548694e-07 -6.559081e-27) (0.000000e+00 0.000000e+00 0.000000e+00)) ((-7.813536e-07 -9.196902e-07 -7.730511e-06) (-1.132304e-07 1.388069e-05 -4.763228e-06) (0.000000e+00 0.000000e+00 0.000000e+00))
29           	((-2.318959e-06 2.522435e-05 -5.364575e-25) (9.026656e-05 9.543249e-07 -2.439973e-25) (0.000000e+00 0.000000e+00 0.000000e+00)) ((-3.783652e-06 -3.478439e-07 -7.225809e-06) (-1.431487e-07 1.353998e-05 -4.628517e-06) (0.000000e+00 0.000000e+00 0.000000e+00))
30           	((-7.080269e-07 3.370383e-05 -2.717760e-25) (8.805222e-05 8.640248e-07 -2.894924e-25) (0.000000e+00 0.000000e+00 0.000000e+00)) ((-5.055575e-06 -1.062040e-07 -6.491927e-06) (-1.296037e-07 1.320783e-05 -4.511017e-06) (0.000000e+00 0.000000e+00 0.000000e+00))
31           	((-2.023169e-06 2.657894e-05 -4.456849e-25) (8.591301e-05 6.496291e-07 -1.533885e-25) (0.000000e+00 0.000000e+00 0.000000e+00)) ((-3.986841e-06 -3.034753e-07 -6.274163e-06) (-9.744436e-08 1.288695e-05 -4.411385e-06) (0.000000e+00 0.000000e+00 0.000000e+00))
32           	((-3.583145e-06 1.599643e-05 6.147779e-25) (8.387585e-05 5.362718e-07 -2.988218e-25) (0.000000e+00 0.000000e+00 0.000000e+00)) ((-2.399464e-06 -5.374717e-07 -6.447727e-06) (-8.044077e-08 1.258138e-05 -4.319307e-06) (0.000000e+00 0.000000e+00 0.000000e+00))
33           	((-4.168047e-06 1.375123e-05 5.321608e-25) (8.195296e-05 5.847019e-07 -2.811552e-25) (0.000000e+00 0.000000e+00 0.000000e+00)) ((-2.062684e-06 -6.252071e-07 -6.696619e-06) (-8.770529e-08 1.229294e-05 -4.225461e-06) (0.000000e+00 0.000000e+00 0.000000e+00))
34           	((-3.333525e-06 1.959638e-05 6.582944e-25) (8.013869e-05 6.865237e-07 -3.730621e-25) (0.000000e+00 0.000000e+00 0.000000e+00)) ((-2.939457e-06 -5.000288e-07 -6.800369e-06) (-1.029786e-07 1.202080e-05 -4.129595e-06) (0.000000e+00 0.000000e+00 0.000000e+00))
35           	((-2.449908e-06 2.558144e-05 7.943250e-25) (7.839669e-05 7.212548e-07 -4.618407e-25) (0.000000e+00 0.000000e+00 0.000000e+00)) ((-3.837215e-06 -3.674862e-07 -6.822386e-06) (-1.081882e-07 1.175950e-05 -4.037470e-06) (0.000000e+00 0.000000e+00 0.000000e+00))
36           	((-2.497909e-06 2.572967e-05 7.933338e-25) (7.671517e-05 6.699874e-07 -4.659141e-25) (0.000000e+00 0.000000e+00 0.000000e+00)) ((-3.859450e-06 -3.746864e-07 -6.863070e-06) (-1.004981e-07 1.150728e-05 -3.953344e-06) (0.000000e+00 0.000000e+00 0.000000e+00))
37           	((-3.432802e-06 2.183149e-05 -3.652001e-26) (7.511097e-05 5.995361e-07 -2.451457e-25) (0.000000e+00 0.000000e+00 0.000000e+00)) ((-3.274724e-06 -5.149203e-07 -6.879794e-06) (-8.993041e-08 1.126665e-05 -3.876233e-06) (0.000000e+00 0.000000e+00 0.000000e+00))
38           	((-3.938078e-06 1.901412e-05 -9.550107e-26) (7.359435e-05 5.725519e-07 -1.961565e-25) (0.000000e+00 0.000000e+00 0.000000e+00)) ((-2.852118e-06 -5.907117e-07 -6.845362e-06) (-8.588279e-08 1.103915e-05 -3.802429e-06) (0.000000e+00 0.000000e+00 0.000000e+00))
39           	((-3.812407e-06 2.009841e-05 -5.990827e-26) (7.215268e-05 5.912278e-07 -1.993159e-25) (0.000000e+00 0.000000e+00 0.000000e+00)) ((-3.014762e-06 -5.718611e-07 -6.743253e-06) (-8.868416e-08 1.082290e-05 -3.729443e-06) (0.000000e+00 0.000000e+00 0.000000e+00))
40           	((-3.400309e-06 2.311237e-05 8.798963e-27) (7.077576e-05 6.155298e-07 -2.367121e-25) (0.000000e+00 0.000000e+00 0.000000e+00)) ((-3.466855e-06 -5.100463e-07 -6.709977e-06) (-9.232947e-08 1.061636e-05 -3.657597e-06) (0.000000e+00 0.000000e+00 0.000000e+00))
41           	((-3.194806e-06 2.497369e-05 3.768860e-26) (6.945060e-05 6.134580e-07 -2.663841e-25) (0.000000e+00 0.000000e+00 0.000000e+00)) ((-3.746054e-06 -4.792208e-07 -6.786128e-06) (-9.201870e-08 1.041759e-05 -3.588715e-06) (0.000000e+00 0.000000e+00 0.000000e+00))
42           	((-3.383255e-06 2.420275e-05 2.147298e-27) (6.817087e-05 5.878955e-07 -2.620029e-25) (0.000000e+00 0.000000e+00 0.000000e+00)) ((-3.630412e-06 -5.074882e-07 -6.923679e-06) (-8.818433e-08 1.022563e-05 -3.523782e-06) (0.000000e+00 0.000000e+00 0.000000e+00))
43           	((-3.695548e-06 2.234523e-05 -4.846661e-26) (6.693665e-05 5.632469e-07 -2.366415e-25) (0.000000e+00 0.000000e+00 0.000000e+00)) ((-3.351784e-06 -5.543321e-07 -7.001638e-06) (-8.448704e-08 1.004050e-05 -3.462111e-06) (0.000000e+00 0.000000e+00 0.000000e+00))
44           	((-3.815937e-06 2.159387e-05 -5.994518e-26) (6.574861e-05 5.556568e-07 -2.196964e-25) (0.000000e+00 0.000000e+00 0.000000e+00)) ((-3.239081e-06 -5.723906e-07 -6.964860e-06) (-8.334852e-08 9.862292e-06 -3.402462e-06) (0.000000e+00 0.000000e+00 0.000000e+00))
45           	((-3.680313e-06 2.258071e-05 -2.657746e-26) (6.460427e-05 5.606589e-07 -2.249562e-25) (0.000000e+00 0.000000e+00 0.000000e+00)) ((-3.387107e-06 -5.520469e-07 -6.870377e-06) (-8.409883e-08 9.690641e-06 -3.344270e-06) (0.000000e+00 0.000000e+00 0.000000e+00))
46           	((-3.499849e-06 2.409173e-05 1.131953e-26) (6.349898e-05 5.638418e-07 -2.422273e-25) (0.000000e+00 0.000000e+00 0.000000e+00)) ((-3.613760e-06 -5.249774e-07 -6.829292e-06) (-8.457628e-08 9.524848e-06 -3.287851e-06) (0.000000e+00 0.000000e+00 0.000000e+00))
47           	((-3.460481e-06 2.457332e-05 1.742659e-26) (6.242903e-05 5.573692e-07 -2.504168e-25) (0.000000e+00 0.000000e+00 0.000000e+00)) ((-3.685998e-06 -5.190721e-07 -6.858104e-06) (-8.360538e-08 9.364355e-06 -3.233701e-06) (0.000000e+00 0.000000e+00 0.000000e+00))
48           	((-3.607100e-06 2.440282e-05 -3.550782e-27) (6.139303e-05 5.455114e-07 -2.514472e-25) (0.000000e+00 0.000000e+00 0.000000e+00)) ((-3.660423e-06 -5.410650e-07 -6.959587e-06) (-8.182672e-08 9.208955e-06 -3.181836e-06) (0.000000e+00 0.000000e+00 0.000000e+00))
49           	((-3.723119e-06 2.396584e-05 -2.012968e-26) (6.039061e-05 5.352128e-07 -2.456566e-25) (0.000000e+00 0.000000e+00 0.000000e+00)) ((-3.594876e-06 -5.584679e-07 -7.000567e-06) (-8.028192e-08 9.058592e-06 -3.131945e-06) (0.000000e+00 0.000000e+00 0.000000e+00))
50           	((-3.811307e-06 2.367605e-05 -2.930988e-26) (5.942123e-05 5.302220e-07 -2.380410e-25) (0.000000e+00 0.000000e+00 0.000000e+00)) ((-3.551408e-06 -5.716960e-07 -7.008947e-06) (-7.953330e-08 8.913185e-06 -3.083546e-06) (0.000000e+00 0.000000e+00 0.000000e+00))
51           	((-3.824281e-06 2.387386e-05 -2.240407e-26) (5.848345e-05 5.292486e-07 -2.327510e-25) (0.000000e+00 0.000000e+00 0.000000e+00)) ((-3.581079e-06 -5.736422e-07 -6.974543e-06) (-7.938729e-08 8.772518e-06 -3.036327e-06) (0.000000e+00 0.000000e+00 0.000000e+00))
52           	((-3.780900e-06 2.424973e-05 -1.012784e-26) (5.757512e-05 5.283027e-07 -2.350481e-25) (0.000000e+00 0.000000e+00 0.000000e+00)) ((-3.637459e-06 -5.671350e-07 -6.957203e-06) (-7.924541e-08 8.636268e-06 -2.990355e-06) (0.000000e+00 0.000000e+00 0.000000e+00))
53           	((-3.720158e-06 2.494684e-05 9.606362e-27) (5.669417e-05 5.246146e-07 -2.438558e-25) (0.000000e+00 0.000000e+00 0.000000e+00)) ((-3.742026e-06 -5.580237e-07 -6.951418e-06) (-7.869219e-08 8.504126e-06 -2.945904e-06) (0.000000e+00 0.000000e+00 0.000000e+00))
54           	((-3.739573e-06 2.506947e-05 9.338489e-27) (5.583917e-05 5.183304e-07 -2.473307e-25) (0.000000e+00 0.000000e+00 0.000000e+00)) ((-3.760421e-06 -5.609359e-07 -6.976337e-06) (-7.774956e-08 8.375876e-06 -2.903099e-06) (0.000000e+00 0.000000e+00 0.000000e+00))
55           	((-3.827084e-06 2.509629e-05 1.049564e-27) (5.500941e-05 5.124331e-07 -2.493044e-25) (0.000000e+00 0.000000e+00 0.000000e+00)) ((-3.764443e-06 -5.740626e-07 -7.020753e-06) (-7.686497e-08 8.251411e-06 -2.861722e-06) (0.000000e+00 0.000000e+00 0.000000e+00))
56           	((-3.879548e-06 2.500803e-05 -6.267441e-27) (5.420413e-05 5.086676e-07 -2.474828e-25) (0.000000e+00 0.000000e+00 0.000000e+00)) ((-3.751204e-06 -5.819321e-07 -7.035253e-06) (-7.630015e-08 8.130619e-06 -2.821506e-06) (0.000000e+00 0.000000e+00 0.000000e+00))
57           	((-3.913215e-06 2.504534e-05 -9.013512e-27) (5.342219e-05 5.063513e-07 -2.449312e-25) (0.000000e+00 0.000000e+00 0.000000e+00)) ((-3.756801e-06 -5.869822e-07 -7.035708e-06) (-7.595269e-08 8.013328e-06 -2.782340e-06) (0.000000e+00 0.000000e+00 0.000000e+00))
58           	((-3.941410e-06 2.530587e-05 -5.848859e-27) (5.266226e-05 5.041810e-07 -2.422430e-25) (0.000000e+00 0.000000e+00 0.000000e+00)) ((-3.795881e-06 -5.912116e-07 -7.024589e-06) (-7.562716e-08 7.899339e-06 -2.744215e-06) (0.000000e+00 0.000000e+00 0.000000e+00))
59           	((-3.935342e-06 2.545214e-05 -7.141650e-28) (5.192311e-05 5.011689e-07 -2.424069e-25) (0.000000e+00 0.000000e+00 0.000000e+00)) ((-3.817821e-06 -5.903012e-07 -7.025259e-06) (-7.517533e-08 7.788466e-06 -2.707190e-06) (0.000000e+00 0.000000e+00 0.000000e+00))
60           	((-3.933429e-06 2.571070e-05 7.917253e-27) (5.120381e-05 4.976251e-07 -2.453939e-25) (0.000000e+00 0.000000e+00 0.000000e+00)) ((-3.856606e-06 -5.900144e-07 -7.036682e-06) (-7.464376e-08 7.680571e-06 -2.671258e-06) (0.000000e+00 0.000000e+00 0.000000e+00))
61           	((-3.950033e-06 2.575852e-05 8.592130e-27) (5.050359e-05 4.941852e-07 -2.470123e-25) (0.000000e+00 0.000000e+00 0.000000e+00)) ((-3.863778e-06 -5.925049e-07 -7.052001e-06) (-7.412778e-08 7.575539e-06 -2.636342e-06) (0.000000e+00 0.000000e+00 0.000000e+00))
62           	((-3.984384e-06 2.583438e-05 6.841573e-27) (4.982179e-05 4.914195e-07 -2.487268e-25) (0.000000e+00 0.000000e+00 0.000000e+00)) ((-3.875157e-06 -5.976577e-07 -7.068974e-06) (-7.371292e-08 7.473269e-06 -2.602343e-06) (0.000000e+00 0.000000e+00 0.000000e+00))
63           	((-4.028243e-06 2.609557e-05 6.510835e-27) (4.915767e-05 4.893215e-07 -2.506812e-25) (0.000000e+00 0.000000e+00 0.000000e+00)) ((-3.914335e-06 -6.042365e-07 -7.080749e-06) (-7.339822e-08 7.373651e-06 -2.569195e-06) (0.000000e+00 0.000000e+00 0.000000e+00))
64           	((-4.042435e-06 2.618568e-05 5.586223e-27) (4.851048e-05 4.874870e-07 -2.501033e-25) (0.000000e+00 0.000000e+00 0.000000e+00)) ((-3.927851e-06 -6.063652e-07 -7.084459e-06) (-7.312305e-08 7.276572e-06 -2.536878e-06) (0.000000e+00 0.000000e+00 0.000000e+00))
65           	((-4.050959e-06 2.628774e-05 6.377029e-27) (4.787946e-05 4.854640e-07 -2.488337e-25) (0.000000e+00 0.000000e+00 0.000000e+00)) ((-3.943161e-06 -6.076438e-07 -7.087069e-06) (-7.281960e-08 7.181919e-06 -2.505426e-06) (0.000000e+00 0.000000e+00 0.000000e+00))
66           	((-4.074799e-06 2.647472e-05 9.538151e-27) (4.726391e-05 4.831879e-07 -2.477447e-25) (0.000000e+00 0.000000e+00 0.000000e+00)) ((-3.971208e-06 -6.112199e-07 -7.091355e-06) (-7.247818e-08 7.089586e-06 -2.474835e-06) (0.000000e+00 0.000000e+00 0.000000e+00))
67           	((-4.087419e-06 2.652056e-05 1.113448e-26) (4.666324e-05 4.808534e-07 -2.479753e-25) (0.000000e+00 0.000000e+00 0.000000e+00)) ((-3.978085e-06 -6.131129e-07 -7.098387e-06) (-7.212801e-08 6.999486e-06 -2.445057e-06) (0.000000e+00 0.000000e+00 0.000000e+00))
68           	((-4.110268e-06 2.659149e-05 1.269444e-26) (4.607698e-05 4.788258e-07 -2.495757e-25) (0.000000e+00 0.000000e+00 0.000000e+00)) ((-3.988723e-06 -6.165401e-07 -7.109235e-06) (-7.182388e-08 6.911547e-06 -2.416009e-06) (0.000000e+00 0.000000e+00 0.000000e+00))
69           	((-4.141733e-06 2.682177e-05 1.549307e-26) (4.550460e-05 4.772134e-07 -2.530636e-25) (0.000000e+00 0.000000e+00 0.000000e+00)) ((-4.023266e-06 -6.212599e-07 -7.121065e-06) (-7.158200e-08 6.825690e-06 -2.387636e-06) (0.000000e+00 0.000000e+00 0.000000e+00))
70           	((-4.156071e-06 2.691580e-05 1.529518e-26) (4.494561e-05 4.758962e-07 -2.537250e-25) (0.000000e+00 0.000000e+00 0.000000e+00)) ((-4.037371e-06 -6.234107e-07 -7.127857e-06) (-7.138444e-08 6.741842e-06 -2.359907e-06) (0.000000e+00 0.000000e+00 0.000000e+00))
71           	((-4.173588e-06 2.710783e-05 1.561115e-26) (4.439947e-05 4.745957e-07 -2.535307e-25) (0.000000e+00 0.000000e+00 0.000000e+00)) ((-4.066174e-06 -6.260382e-07 -7.136711e-06) (-7.118936e-08 6.659921e-06 -2.332848e-06) (0.000000e+00 0.000000e+00 0.000000e+00))
72           	((-4.187529e-06 2.724489e-05 1.610819e-26) (4.386569e-05 4.731943e-07 -2.524150e-25) (0.000000e+00 0.000000e+00 0.000000e+00)) ((-4.086734e-06 -6.281294e-07 -7.143385e-06) (-7.097915e-08 6.579853e-06 -2.306459e-06) (0.000000e+00 0.000000e+00 0.000000e+00))
73           	((-4.197178e-06 2.726685e-05 1.619063e-26) (4.334382e-05 4.717768e-07 -2.519517e-25) (0.000000e+00 0.000000e+00 0.000000e+00)) ((-4.090027e-06 -6.295767e-07 -7.148827e-06) (-7.076652e-08 6.501574e-06 -2.280711e-06) (0.000000e+00 0.000000e+00 0.000000e+00))
74           	((-4.217793e-06 2.731038e-05 1.713447e-26) (4.283349e-05 4.705233e-07 -2.523129e-25) (0.000000e+00 0.000000e+00 0.000000e+00)) ((-4.096558e-06 -6.326690e-07 -7.158272e-06) (-7.057849e-08 6.425024e-06 -2.255562e-06) (0.000000e+00 0.000000e+00 0.000000e+00))
75           	((-4.255553e-06 2.748363e-05 1.994183e-26) (4.233428e-05 4.695071e-07 -2.543348e-25) (0.000000e+00 0.000000e+00 0.000000e+00)) ((-4.122544e-06 -6.383330e-07 -7.170072e-06) (-7.042607e-08 6.350142e-06 -2.230980e-06) (0.000000e+00 0.000000e+00 0.000000e+00))
76           	((-4.276966e-06 2.767410e-05 2.278864e-26) (4.184582e-05 4.686815e-07 -2.562753e-25) (0.000000e+00 0.000000e+00 0.000000e+00)) ((-4.151115e-06 -6.415449e-07 -7.177105e-06) (-7.030222e-08 6.276872e-06 -2.206938e-06) (0.000000e+00 0.000000e+00 0.000000e+00))
77           	((-4.283301e-06 2.775474e-05 2.329638e-26) (4.136776e-05 4.679102e-07 -2.567449e-25) (0.000000e+00 0.000000e+00 0.000000e+00)) ((-4.163211e-06 -6.424952e-07 -7.181122e-06) (-7.018653e-08 6.205165e-06 -2.183431e-06) (0.000000e+00 0.000000e+00 0.000000e+00))
78           	((-4.293916e-06 2.791230e-05 2.397484e-26) (4.089977e-05 4.671364e-07 -2.570337e-25) (0.000000e+00 0.000000e+00 0.000000e+00)) ((-4.186844e-06 -6.440874e-07 -7.187854e-06) (-7.007046e-08 6.134965e-06 -2.160460e-06) (0.000000e+00 0.000000e+00 0.000000e+00))
79           	((-4.311932e-06 2.803143e-05 2.407787e-26) (4.044147e-05 4.663830e-07 -2.570160e-25) (0.000000e+00 0.000000e+00 0.000000e+00)) ((-4.204714e-06 -6.467898e-07 -7.197113e-06) (-6.995746e-08 6.066220e-06 -2.138011e-06) (0.000000e+00 0.000000e+00 0.000000e+00))
80           	((-4.332731e-06 2.811359e-05 2.424468e-26) (3.999255e-05 4.657345e-07 -2.570279e-25) (0.000000e+00 0.000000e+00 0.000000e+00)) ((-4.217038e-06 -6.499096e-07 -7.207063e-06) (-6.986017e-08 5.998883e-06 -2.116055e-06) (0.000000e+00 0.000000e+00 0.000000e+00))
81           	((-4.353509e-06 2.819371e-05 2.506525e-26) (3.955272e-05 4.652369e-07 -2.573766e-25) (0.000000e+00 0.000000e+00 0.000000e+00)) ((-4.229056e-06 -6.530263e-07 -7.216146e-06) (-6.978553e-08 5.932908e-06 -2.094564e-06) (0.000000e+00 0.000000e+00 0.000000e+00))
82           	((-4.373251e-06 2.830077e-05 2.662688e-26) (3.912170e-05 4.648734e-07 -2.581982e-25) (0.000000e+00 0.000000e+00 0.000000e+00)) ((-4.245115e-06 -6.559876e-07 -7.223910e-06) (-6.973101e-08 5.868256e-06 -2.073520e-06) (0.000000e+00 0.000000e+00 0.000000e+00))
83           	((-4.390944e-06 2.843575e-05 2.853485e-26) (3.869922e-05 4.645937e-07 -2.593145e-25) (0.000000e+00 0.000000e+00 0.000000e+00)) ((-4.265362e-06 -6.586416e-07 -7.231014e-06) (-6.968906e-08 5.804883e-06 -2.052914e-06) (0.000000e+00 0.000000e+00 0.000000e+00))
84           	((-4.406742e-06 2.857221e-05 3.009745e-26) (3.828501e-05 4.643610e-07 -2.603417e-25) (0.000000e+00 0.000000e+00 0.000000e+00)) ((-4.285832e-06 -6.610113e-07 -7.238767e-06) (-6.965414e-08 5.742751e-06 -2.032742e-06) (0.000000e+00 0.000000e+00 0.000000e+00))
85           	((-4.422497e-06 2.868959e-05 3.096333e-26) (3.787880e-05 4.641751e-07 -2.610447e-25) (0.000000e+00 0.000000e+00 0.000000e+00)) ((-4.303438e-06 -6.633745e-07 -7.247498e-06) (-6.962627e-08 5.681821e-06 -2.012996e-06) (0.000000e+00 0.000000e+00 0.000000e+00))
86           	((-4.439635e-06 2.879002e-05 3.133487e-26) (3.748037e-05 4.640594e-07 -2.614507e-25) (0.000000e+00 0.000000e+00 0.000000e+00)) ((-4.318503e-06 -6.659452e-07 -7.256391e-06) (-6.960891e-08 5.622056e-06 -1.993665e-06) (0.000000e+00 0.000000e+00 0.000000e+00))
87           	((-4.458345e-06 2.888793e-05 3.166463e-26) (3.708948e-05 4.640310e-07 -2.617404e-25) (0.000000e+00 0.000000e+00 0.000000e+00)) ((-4.333190e-06 -6.687517e-07 -7.264970e-06) (-6.960465e-08 5.563422e-06 -1.974730e-06) (0.000000e+00 0.000000e+00 0.000000e+00))
88           	((-4.477470e-06 2.899307e-05 3.229942e-26) (3.670590e-05 4.640881e-07 -2.621005e-25) (0.000000e+00 0.000000e+00 0.000000e+00)) ((-4.348960e-06 -6.716204e-07 -7.273283e-06) (-6.961322e-08 5.505886e-06 -1.956176e-06) (0.000000e+00 0.000000e+00 0.000000e+00))
89           	((-4.495728e-06 2.910647e-05 3.332621e-26) (3.632943e-05 4.642173e-07 -2.626451e-25) (0.000000e+00 0.000000e+00 0.000000e+00)) ((-4.365971e-06 -6.743592e-07 -7.281567e-06) (-6.963260e-08 5.449415e-06 -1.937990e-06) (0.000000e+00 0.000000e+00 0.000000e+00))
90           	((-4.512935e-06 2.922268e-05 3.456947e-26) (3.595986e-05 4.644085e-07 -2.633724e-25) (0.000000e+00 0.000000e+00 0.000000e+00)) ((-4.383402e-06 -6.769402e-07 -7.290047e-06) (-6.966127e-08 5.393979e-06 -1.920165e-06) (0.000000e+00 0.000000e+00 0.000000e+00))
91           	((-4.529841e-06 2.933486e-05 3.575331e-26) (3.559699e-05 4.646621e-07 -2.641839e-25) (0.000000e+00 0.000000e+00 0.000000e+00)) ((-4.400229e-06 -6.794761e-07 -7.298810e-06) (-6.969931e-08 5.339549e-06 -1.902690e-06) (0.000000e+00 0.000000e+00 0.000000e+00))
92           	((-4.547216e-06 2.944144e-05 3.671960e-26) (3.524064e-05 4.649843e-07 -2.649632e-25) (0.000000e+00 0.000000e+00 0.000000e+00)) ((-4.416217e-06 -6.820824e-07 -7.307732e-06) (-6.974764e-08 5.286096e-06 -1.885558e-06) (0.000000e+00 0.000000e+00 0.000000e+00))
93           	((-4.582431e-06 2.953195e-05 -2.107993e-26) (3.489121e-05 4.653606e-07 -2.526556e-25) (0.000000e+00 0.000000e+00 0.000000e+00)) ((-4.429793e-06 -6.873646e-07 -7.316529e-06) (-6.980409e-08 5.233681e-06 -1.868750e-06) (0.000000e+00 0.000000e+00 0.000000e+00))
94           	((-4.599213e-06 2.965512e-05 -2.012425e-26) (3.454850e-05 4.657872e-07 -2.533593e-25) (0.000000e+00 0.000000e+00 0.000000e+00)) ((-4.448267e-06 -6.898820e-07 -7.325358e-06) (-6.986808e-08 5.182276e-06 -1.852260e-06) (0.000000e+00 0.000000e+00 0.000000e+00))
95           	((-4.614146e-06 2.977157e-05 -1.928312e-26) (3.421153e-05 4.662700e-07 -2.539356e-25) (0.000000e+00 0.000000e+00 0.000000e+00)) ((-4.465735e-06 -6.921218e-07 -7.334161e-06) (-6.994049e-08 5.131729e-06 -1.836084e-06) (0.000000e+00 0.000000e+00 0.000000e+00))
96           	((-4.628717e-06 2.987405e-05 -1.860933e-26) (3.388032e-05 4.668063e-07 -2.544087e-25) (0.000000e+00 0.000000e+00 0.000000e+00)) ((-4.481107e-06 -6.943075e-07 -7.342887e-06) (-7.002094e-08 5.082048e-06 -1.820215e-06) (0.000000e+00 0.000000e+00 0.000000e+00))
97           	((-4.644161e-06 2.997048e-05 -1.794605e-26) (3.355470e-05 4.674032e-07 -2.549048e-25) (0.000000e+00 0.000000e+00 0.000000e+00)) ((-4.495572e-06 -6.966241e-07 -7.351495e-06) (-7.011048e-08 5.033205e-06 -1.804649e-06) (0.000000e+00 0.000000e+00 0.000000e+00))
98           	((-4.660694e-06 3.007146e-05 -1.714456e-26) (3.323443e-05 4.680678e-07 -2.555168e-25) (0.000000e+00 0.000000e+00 0.000000e+00)) ((-4.510719e-06 -6.991040e-07 -7.360178e-06) (-7.021017e-08 4.985165e-06 -1.789378e-06) (0.000000e+00 0.000000e+00 0.000000e+00))
99           	((-4.677778e-06 3.017956e-05 -1.621768e-26) (3.291932e-05 4.688004e-07 -2.562255e-25) (0.000000e+00 0.000000e+00 0.000000e+00)) ((-4.526935e-06 -7.016666e-07 -7.369094e-06) (-7.032007e-08 4.937898e-06 -1.774392e-06) (0.000000e+00 0.000000e+00 0.000000e+00))
100          	((-4.694931e-06 3.029003e-05 -1.529798e-26) (3.260924e-05 4.695954e-07 -2.569394e-25) (0.000000e+00 0.000000e+00 0.000000e+00)) ((-4.543505e-06 -7.042396e-07 -7.378159e-06) (-7.043931e-08 4.891386e-06 -1.759682e-06) (0.000000e+00 0.000000e+00 0.000000e+00))
101          	((-4.712116e-06 3.039717e-05 -1.450179e-26) (3.230411e-05 4.704455e-07 -2.575838e-25) (0.000000e+00 0.000000e+00 0.000000e+00)) ((-4.559575e-06 -7.068174e-07 -7.387155e-06) (-7.056682e-08 4.845616e-06 -1.745240e-06) (0.000000e+00 0.000000e+00 0.000000e+00))
102          	((-4.729508e-06 3.049939e-05 -1.383462e-26) (3.200386e-05 4.713461e-07 -2.581529e-25) (0.000000e+00 0.000000e+00 0.000000e+00)) ((-4.574908e-06 -7.094262e-07 -7.395967e-06) (-7.070192e-08 4.800579e-06 -1.731060e-06) (0.000000e+00 0.000000e+00 0.000000e+00))
103          	((-4.747205e-06 3.059975e-05 -1.320146e-26) (3.170841e-05 4.722958e-07 -2.586982e-25) (0.000000e+00 0.000000e+00 0.000000e+00)) ((-4.589962e-06 -7.120807e-07 -7.404661e-06) (-7.084436e-08 4.756262e-06 -1.717137e-06) (0.000000e+00 0.000000e+00 0.000000e+00))
104          	((-4.765157e-06 3.070194e-05 -1.250689e-26) (3.141768e-05 4.732938e-07 -2.592739e-25) (0.000000e+00 0.000000e+00 0.000000e+00)) ((-4.605291e-06 -7.147736e-07 -7.413370e-06) (-7.099407e-08 4.712652e-06 -1.703464e-06) (0.000000e+00 0.000000e+00 0.000000e+00))
105          	((-4.794463e-06 3.079762e-05 -4.940215e-26) (3.113195e-05 4.743283e-07 -2.515492e-25) (0.000000e+00 0.000000e+00 0.000000e+00)) ((-4.619643e-06 -7.191694e-07 -7.422180e-06) (-7.114924e-08 4.669792e-06 -1.690028e-06) (0.000000e+00 0.000000e+00 0.000000e+00))
106          	((-4.811182e-06 3.091307e-05 -4.841210e-26) (3.085109e-05 4.753981e-07 -2.522951e-25) (0.000000e+00 0.000000e+00 0.000000e+00)) ((-4.636961e-06 -7.216773e-07 -7.430902e-06) (-7.130971e-08 4.627663e-06 -1.676823e-06) (0.000000e+00 0.000000e+00 0.000000e+00))
107          	((-4.827085e-06 3.102409e-05 -4.748763e-26) (3.057447e-05 4.765080e-07 -2.530250e-25) (0.000000e+00 0.000000e+00 0.000000e+00)) ((-4.653613e-06 -7.240627e-07 -7.439770e-06) (-7.147620e-08 4.586170e-06 -1.663848e-06) (0.000000e+00 0.000000e+00 0.000000e+00))
108          	((-4.843148e-06 3.112149e-05 -4.681002e-26) (3.030211e-05 4.776617e-07 -2.536369e-25) (0.000000e+00 0.000000e+00 0.000000e+00)) ((-4.668224e-06 -7.264721e-07 -7.448855e-06) (-7.164926e-08 4.545316e-06 -1.651097e-06) (0.000000e+00 0.000000e+00 0.000000e+00))
109          	((-4.859553e-06 3.121201e-05 -4.626911e-26) (3.003389e-05 4.788664e-07 -2.541729e-25) (0.000000e+00 0.000000e+00 0.000000e+00)) ((-4.681801e-06 -7.289329e-07 -7.457694e-06) (-7.182996e-08 4.505084e-06 -1.638567e-06) (0.000000e+00 0.000000e+00 0.000000e+00))
110          	((-4.876261e-06 3.130467e-05 -4.571191e-26) (2.976967e-05 4.801196e-07 -2.547044e-25) (0.000000e+00 0.000000e+00 0.000000e+00)) ((-4.695701e-06 -7.314392e-07 -7.466243e-06) (-7.201794e-08 4.465451e-06 -1.626253e-06) (0.000000e+00 0.000000e+00 0.000000e+00))