# Forces     
# CofR       : (5.000000e-01 0.000000e+00 0.000000e+00)
# Time       forces(pressure viscous porous)	moments(pressure viscous porous)
1            	((9.343039e-04 6.367351e-03 2.316198e-22) (1.004547e-03 3.754475e-04 -6.685177e-23) (0.000000e+00 0.000000e+00 0.000000e+00)) ((-9.551027e-04 1.401456e-04 1.876633e-04) (-5.631713e-05 1.506821e-04 -4.438088e-05) (0.000000e+00 0.000000e+00 0.000000e+00))
2            	((6.151727e-04 4.586984e-03 1.826673e-22) (5.596320e-04 -7.935243e-06 -5.163385e-23) (0.000000e+00 0.000000e+00 0.000000e+00)) ((-6.880475e-04 9.227590e-05 1.127308e-04) (1.190286e-06 8.394480e-05 -3.015690e-05) (0.000000e+00 0.000000e+00 0.000000e+00))
3            	((-1.678875e-04 -7.310276e-04 -1.453958e-23) (3.688291e-04 -1.413853e-04 4.888838e-24) (0.000000e+00 0.000000e+00 0.000000e+00)) ((1.096541e-04 -2.518312e-05 -5.157118e-05) (2.120779e-05 5.532436e-05 -2.369038e-05) (0.000000e+00 0.000000e+00 0.000000e+00))
4            	((-5.163028e-04 -3.632090e-03 -1.148196e-22) (2.876508e-04 -9.641717e-05 3.431006e-23) (0.000000e+00 0.000000e+00 0.000000e+00)) ((5.448136e-04 -7.744542e-05 -1.235803e-04) (1.446258e-05 4.314762e-05 -1.857607e-05) (0.000000e+00 0.000000e+00 0.000000e+00))
5            	((-2.693253e-04 -2.299008e-03 -7.808092e-23) (2.510536e-04 3.517666e-06 2.313679e-23) (0.000000e+00 0.000000e+00 0.000000e+00)) ((3.448512e-04 -4.039880e-05 -6.575328e-05) (-5.276500e-07 3.765804e-05 -1.404331e-05) (0.000000e+00 0.000000e+00 0.000000e+00))
6            	((1.302309e-04 7.049880e-04 -3.136754e-24) (2.257788e-04 5.512395e-05 -9.979125e-25) (0.000000e+00 0.000000e+00 0.000000e+00)) ((-1.057482e-04 1.953464e-05 3.536427e-05) (-8.268592e-06 3.386682e-05 -1.095802e-05) (0.000000e+00 0.000000e+00 0.000000e+00))
7            	((2.662123e-04 2.105131e-03 4.539324e-23) (2.004817e-04 3.854605e-05 -1.562999e-23) (0.000000e+00 0.000000e+00 0.000000e+00)) ((-3.157697e-04 3.993185e-05 7.056121e-05) (-5.781908e-06 3.007225e-05 -9.644712e-06) (0.000000e+00 0.000000e+00 0.000000e+00))
8            	((1.054927e-04 1.164787e-03 1.997689e-23) (1.769780e-04 -2.500701e-06 -7.785011e-24) (0.000000e+00 0.000000e+00 0.000000e+00)) ((-1.747180e-04 1.582391e-05 2.537617e-05) (3.751052e-07 2.654670e-05 -9.418084e-06) (0.000000e+00 0.000000e+00 0.000000e+00))
9            	((-9.806214e-05 -5.065638e-04 -2.081613e-23) (1.598667e-04 -2.234485e-05 5.638965e-24) (0.000000e+00 0.000000e+00 0.000000e+00)) ((7.598457e-05 -1.470932e-05 -3.638222e-05) (3.351728e-06 2.398000e-05 -9.272057e-06) (0.000000e+00 0.000000e+00 0.000000e+00))
10           	((-1.452680e-04 -1.158988e-03 -3.498463e-23) (1.494856e-04 -1.209793e-05 1.065638e-23) (0.000000e+00 0.000000e+00 0.000000e+00)) ((1.738482e-04 -2.179021e-05 -5.436285e-05) (1.814690e-06 2.242285e-05 -8.682098e-06) (0.000000e+00 0.000000e+00 0.000000e+00))
11           	((-4.938864e-05 -5.414179e-04 -1.876676e-23) (1.424388e-04 7.437072e-06 5.461606e-24) (0.000000e+00 0.000000e+00 0.000000e+00)) ((8.121269e-05 -7.408296e-06 -2.531732e-05) (-1.115561e-06 2.136581e-05 -7.793143e-06) (0.000000e+00 0.000000e+00 0.000000e+00))
12           	((5.392348e-05 3.702390e-04 3.187221e-24) (1.360644e-04 1.531513e-05 -1.850046e-24) (0.000000e+00 0.000000e+00 0.000000e+00)) ((-5.553585e-05 8.088521e-06 1.236070e-05) (-2.297270e-06 2.040965e-05 -7.072104e-06) (0.000000e+00 0.000000e+00 0.000000e+00))
13           	((7.028116e-05 6.527449e-04 9.064037e-24) (1.279661e-04 8.846472e-06 -3.818421e-24) (0.000000e+00 0.000000e+00 0.000000e+00)) ((-9.791174e-05 1.054217e-05 2.266119e-05) (-1.326971e-06 1.919491e-05 -6.675203e-06) (0.000000e+00 0.000000e+00 0.000000e+00))
14           	((1.529266e-05 2.641860e-04 -9.662167e-25) (1.201504e-04 -9.494651e-07 -4.720780e-25) (0.000000e+00 0.000000e+00 0.000000e+00)) ((-3.962790e-05 2.293899e-06 5.539381e-06) (1.424198e-07 1.802256e-05 -6.524666e-06) (0.000000e+00 0.000000e+00 0.000000e+00))
15           	((-3.802777e-05 -2.189696e-04 -1.254868e-23) (1.138875e-04 -4.141443e-06 3.333669e-24) (0.000000e+00 0.000000e+00 0.000000e+00)) ((3.284544e-05 -5.704165e-06 -1.648249e-05) (6.212165e-07 1.708313e-05 -6.376188e-06) (0.000000e+00 0.000000e+00 0.000000e+00))
16           	((-4.311956e-05 -3.249660e-04 -1.467623e-23) (1.092290e-04 -3.215906e-07 3.899562e-24) (0.000000e+00 0.000000e+00 0.000000e+00)) ((4.874489e-05 -6.467934e-06 -2.334453e-05) (4.823859e-08 1.638435e-05 -6.101472e-06) (0.000000e+00 0.000000e+00 0.000000e+00))
17           	((-1.189089e-05 -8.467761e-05 -8.607368e-24) (1.053017e-04 4.461016e-06 1.800587e-24) (0.000000e+00 0.000000e+00 0.000000e+00)) ((1.270164e-05 -1.783633e-06 -1.429485e-05) (-6.691524e-07 1.579526e-05 -5.752739e-06) (0.000000e+00 0.000000e+00 0.000000e+00))
18           	((1.541081e-05 1.645490e-04 -2.629896e-24) (1.013377e-04 5.457322e-06 -8.818581e-26) (0.000000e+00 0.000000e+00 0.000000e+00)) ((-2.468235e-05 2.311622e-06 -2.001715e-06) (-8.185983e-07 1.520065e-05 -5.448428e-06) (0.000000e+00 0.000000e+00 0.000000e+00))
19           	((1.802423e-05 1.939962e-04 4.469665e-24) (9.719955e-05 3.030836e-06 -1.516711e-24) (0.000000e+00 0.000000e+00 0.000000e+00)) ((-2.909943e-05 2.703634e-06 2.672100e-06) (-4.546254e-07 1.457993e-05 -5.246528e-06) (0.000000e+00 0.000000e+00 0.000000e+00))
20           	((-3.118784e-07 4.978240e-05 8.843215e-25) (9.324911e-05 5.273152e-07 -2.264226e-25) (0.000000e+00 0.000000e+00 0.000000e+00)) ((-7.467360e-06 -4.678175e-08 -1.830787e-06) (-7.909728e-08 1.398737e-05 -5.112871e-06) (0.000000e+00 0.000000e+00 0.000000e+00))
21           	((-1.491851e-05 -7.501038e-05 -2.138119e-24) (8.987104e-05 1.996740e-07 6.567618e-25) (0.000000e+00 0.000000e+00 0.000000e+00)) ((1.125156e-05 -2.237776e-06 -8.578422e-06) (-2.995110e-08 1.348066e-05 -4.980234e-06) (0.000000e+00 0.000000e+00 0.000000e+00))
22           	((-1.444050e-05 -7.287840e-05 -2.066693e-24) (8.699017e-05 1.541805e-06 4.293971e-25) (0.000000e+00 0.000000e+00 0.000000e+00)) ((1.093176e-05 -2.166075e-06 -1.158401e-05) (-2.312708e-07 1.304853e-05 -4.818626e-06) (0.000000e+00 0.000000e+00 0.000000e+00))
23           	((-4.607413e-06 1.280603e-05 1.795871e-26) (8.434336e-05 2.701650e-06 -3.559487e-25) (0.000000e+00 0.000000e+00 0.000000e+00)) ((-1.920905e-06 -6.911120e-07 -9.470839e-06) (-4.052474e-07 1.265150e-05 -4.644731e-06) (0.000000e+00 0.000000e+00 0.000000e+00))
24           	((2.106967e-06 7.347166e-05 1.483921e-24) (8.175117e-05 2.632000e-06 -7.553573e-25) (0.000000e+00 0.000000e+00 0.000000e+00)) ((-1.102075e-05 3.160451e-07 -6.016426e-06) (-3.948001e-07 1.226267e-05 -4.490051e-06) (0.000000e+00 0.000000e+00 0.000000e+00))
25           	((7.123897e-07 6.258011e-05 1.234635e-24) (7.922968e-05 1.769019e-06 -4.983177e-25) (0.000000e+00 0.000000e+00 0.000000e+00)) ((-9.387016e-06 1.068585e-07 -4.272627e-06) (-2.653529e-07 1.188445e-05 -4.365829e-06) (0.000000e+00 0.000000e+00 0.000000e+00))
26           	((-4.907497e-06 1.395230e-05 6.950548e-26) (7.689069e-05 1.129659e-06 -1.613806e-26) (0.000000e+00 0.000000e+00 0.000000e+00)) ((-2.092845e-06 -7.361245e-07 -5.173987e-06) (-1.694489e-07 1.153360e-05 -4.259401e-06) (0.000000e+00 0.000000e+00 0.000000e+00))
27           	((-8.276304e-06 -1.389110e-05 -6.197068e-25) (7.479029e-05 1.187118e-06 1.540096e-25) (0.000000e+00 0.000000e+00 0.000000e+00)) ((2.083664e-06 -1.241446e-06 -7.003339e-06) (-1.780677e-07 1.121854e-05 -4.152438e-06) (0.000000e+00 0.000000e+00 0.000000e+00))
28           	((-7.260333e-06 -1.656233e-06 -3.670362e-25) (7.288065e-05 1.618608e-06 -6.945184e-26) (0.000000e+00 0.000000e+00 0.000000e+00)) ((2.484349e-07 -1.089050e-06 -8.016161e-06) (-2.427912e-07 1.093210e-05 -4.039989e-06) (0.000000e+00 0.000000e+00 0.000000e+00))
29           	((-4.426484e-06 2.629033e-05 2.741460e-25) (7.107292e-05 1.867936e-06 -3.743444e-25) (0.000000e+00 0.000000e+00 0.000000e+00)) ((-3.943549e-06 -6.639726e-07 -7.722856e-06) (-2.801905e-07 1.066094e-05 -3.930012e-06) (0.000000e+00 0.000000e+00 0.000000e+00))
30           	((-3.127435e-06 3.840020e-05 5.689559e-25) (6.931805e-05 1.731678e-06 -4.481159e-25) (0.000000e+00 0.000000e+00 0.000000e+00)) ((-5.760030e-06 -4.691153e-07 -6.874589e-06) (-2.597517e-07 1.039771e-05 -3.831624e-06) (0.000000e+00 0.000000e+00 0.000000e+00))
31           	((-4.065476e-06 2.858752e-05 3.639222e-25) (6.762648e-05 1.429838e-06 -2.848139e-25) (0.000000e+00 0.000000e+00 0.000000e+00)) ((-4.288127e-06 -6.098213e-07 -6.360459e-06) (-2.144757e-07 1.014397e-05 -3.745503e-06) (0.000000e+00 0.000000e+00 0.000000e+00))
32           	((-5.578649e-06 1.326756e-05 2.429015e-26) (6.602895e-05 1.263081e-06 -9.291097e-26) (0.000000e+00 0.000000e+00 0.000000e+00)) ((-1.990134e-06 -8.367974e-07 -6.367892e-06) (-1.894622e-07 9.904342e-06 -3.665271e-06) (0.000000e+00 0.000000e+00 0.000000e+00))
33           	((-6.057833e-06 9.363857e-06 -7.823598e-26) (6.453433e-05 1.312765e-06 -6.456798e-26) (0.000000e+00 0.000000e+00 0.000000e+00)) ((-1.404579e-06 -9.086749e-07 -6.724149e-06) (-1.969147e-07 9.680150e-06 -3.584952e-06) (0.000000e+00 0.000000e+00 0.000000e+00))
34           	((-5.436479e-06 1.722253e-05 7.353854e-26) (6.312188e-05 1.434728e-06 -1.791859e-25) (0.000000e+00 0.000000e+00 0.000000e+00)) ((-2.583379e-06 -8.154718e-07 -7.040422e-06) (-2.152093e-07 9.468282e-06 -3.504187e-06) (0.000000e+00 0.000000e+00 0.000000e+00))
35           	((-4.745497e-06 2.594055e-05 2.485802e-25) (6.176506e-05 1.468466e-06 -2.937643e-25) (0.000000e+00 0.000000e+00 0.000000e+00)) ((-3.891082e-06 -7.118245e-07 -7.149823e-06) (-2.202699e-07 9.264760e-06 -3.426378e-06) (0.000000e+00 0.000000e+00 0.000000e+00))
36           	((-4.785306e-06 2.681924e-05 2.577415e-25) (6.045303e-05 1.388261e-06 -3.027351e-25) (0.000000e+00 0.000000e+00 0.000000e+00)) ((-4.022886e-06 -7.177959e-07 -7.131417e-06) (-2.082392e-07 9.067954e-06 -3.354495e-06) (0.000000e+00 0.000000e+00 0.000000e+00))
37           	((-5.306620e-06 2.161835e-05 1.496770e-25) (5.919135e-05 1.282105e-06 -2.294483e-25) (0.000000e+00 0.000000e+00 0.000000e+00)) ((-3.242753e-06 -7.959930e-07 -7.005659e-06) (-1.923158e-07 8.878703e-06 -3.288322e-06) (0.000000e+00 0.000000e+00 0.000000e+00))
38           	((-5.701684e-06 1.704496e-05 6.157464e-26) (5.798814e-05 1.234092e-06 -1.605617e-25) (0.000000e+00 0.000000e+00 0.000000e+00)) ((-2.556744e-06 -8.552526e-07 -6.865855e-06) (-1.851138e-07 8.698220e-06 -3.225524e-06) (0.000000e+00 0.000000e+00 0.000000e+00))
39           	((-5.642257e-06 1.768507e-05 8.084105e-26) (5.684262e-05 1.248694e-06 -1.608184e-25) (0.000000e+00 0.000000e+00 0.000000e+00)) ((-2.652761e-06 -8.463386e-07 -6.813696e-06) (-1.873041e-07 8.526393e-06 -3.164213e-06) (0.000000e+00 0.000000e+00 0.000000e+00))
40           	((-5.577309e-06 2.170510e-05 -5.760965e-25) (5.575319e-05 1.271497e-06 -4.883936e-26) (0.000000e+00 0.000000e+00 0.000000e+00)) ((-3.255766e-06 -8.365963e-07 -6.863342e-06) (-1.907245e-07 8.362978e-06 -3.104101e-06) (0.000000e+00 0.000000e+00 0.000000e+00))
41           	((-5.426463e-06 2.438819e-05 -5.313879e-25) (5.471052e-05 1.259140e-06 -8.825245e-26) (0.000000e+00 0.000000e+00 0.000000e+00)) ((-3.658229e-06 -8.139695e-07 -6.982546e-06) (-1.888709e-07 8.206578e-06 -3.046086e-06) (0.000000e+00 0.000000e+00 0.000000e+00))
42           	((-5.597239e-06 2.371729e-05 -5.604491e-25) (5.370093e-05 1.216061e-06 -8.561099e-26) (0.000000e+00 0.000000e+00 0.000000e+00)) ((-3.557594e-06 -8.395858e-07 -7.106285e-06) (-1.824092e-07 8.055139e-06 -2.990817e-06) (0.000000e+00 0.000000e+00 0.000000e+00))
43           	((-5.856955e-06 2.135885e-05 -6.160257e-25) (5.272823e-05 1.174113e-06 -5.405259e-26) (0.000000e+00 0.000000e+00 0.000000e+00)) ((-3.203828e-06 -8.785433e-07 -7.122624e-06) (-1.761170e-07 7.909235e-06 -2.938084e-06) (0.000000e+00 0.000000e+00 0.000000e+00))
44           	((-5.959520e-06 2.006096e-05 -6.396513e-25) (5.179321e-05 1.154889e-06 -2.957181e-26) (0.000000e+00 0.000000e+00 0.000000e+00)) ((-3.009144e-06 -8.939280e-07 -7.049376e-06) (-1.732333e-07 7.768981e-06 -2.887272e-06) (0.000000e+00 0.000000e+00 0.000000e+00))
45           	((-5.862041e-06 2.089752e-05 -6.168314e-25) (5.089276e-05 1.152865e-06 -3.207575e-26) (0.000000e+00 0.000000e+00 0.000000e+00)) ((-3.134628e-06 -8.793062e-07 -6.970225e-06) (-1.729297e-07 7.633914e-06 -2.838046e-06) (0.000000e+00 0.000000e+00 0.000000e+00))
46           	((-5.718959e-06 2.270052e-05 -5.784511e-25) (5.002202e-05 1.148941e-06 -5.267168e-26) (0.000000e+00 0.000000e+00 0.000000e+00)) ((-3.405078e-06 -8.578438e-07 -6.951165e-06) (-1.723411e-07 7.503303e-06 -2.790508e-06) (0.000000e+00 0.000000e+00 0.000000e+00))
47           	((-5.706595e-06 2.366515e-05 -5.651103e-25) (4.917753e-05 1.132370e-06 -6.854331e-26) (0.000000e+00 0.000000e+00 0.000000e+00)) ((-3.549773e-06 -8.559892e-07 -7.004461e-06) (-1.698555e-07 7.376629e-06 -2.744865e-06) (0.000000e+00 0.000000e+00 0.000000e+00))
48           	((-5.783491e-06 2.336849e-05 -5.758724e-25) (4.835845e-05 1.107957e-06 -6.802644e-26) (0.000000e+00 0.000000e+00 0.000000e+00)) ((-3.505274e-06 -8.675236e-07 -7.047836e-06) (-1.661935e-07 7.253768e-06 -2.701093e-06) (0.000000e+00 0.000000e+00 0.000000e+00))
49           	((-6.001299e-06 2.233055e-05 -6.083947e-25) (4.756530e-05 1.086714e-06 -5.550779e-26) (0.000000e+00 0.000000e+00 0.000000e+00)) ((-3.349583e-06 -9.001949e-07 -7.104781e-06) (-1.630071e-07 7.134795e-06 -2.658869e-06) (0.000000e+00 0.000000e+00 0.000000e+00))
50           	((-6.072001e-06 2.204449e-05 -6.165052e-25) (4.679818e-05 1.074340e-06 -4.843405e-26) (0.000000e+00 0.000000e+00 0.000000e+00)) ((-3.306673e-06 -9.108002e-07 -7.096791e-06) (-1.611510e-07 7.019728e-06 -2.617812e-06) (0.000000e+00 0.000000e+00 0.000000e+00))
51           	((-6.069560e-06 2.239946e-05 -6.074423e-25) (4.605591e-05 1.066440e-06 -4.509521e-26) (0.000000e+00 0.000000e+00 0.000000e+00)) ((-3.359918e-06 -9.104339e-07 -7.056840e-06) (-1.599660e-07 6.908386e-06 -2.577877e-06) (0.000000e+00 0.000000e+00 0.000000e+00))
52           	((-6.038234e-06 2.287781e-05 -5.965316e-25) (4.533678e-05 1.057438e-06 -4.831368e-26) (0.000000e+00 0.000000e+00 0.000000e+00)) ((-3.431672e-06 -9.057351e-07 -7.044255e-06) (-1.586156e-07 6.800517e-06 -2.539082e-06) (0.000000e+00 0.000000e+00 0.000000e+00))
53           	((-6.005395e-06 2.356865e-05 -5.813777e-25) (4.463931e-05 1.044829e-06 -5.625514e-26) (0.000000e+00 0.000000e+00 0.000000e+00)) ((-3.535297e-06 -9.008093e-07 -7.040649e-06) (-1.567244e-07 6.695896e-06 -2.501580e-06) (0.000000e+00 0.000000e+00 0.000000e+00))
54           	((-6.044425e-06 2.358226e-05 -5.842075e-25) (4.396247e-05 1.029682e-06 -5.869037e-26) (0.000000e+00 0.000000e+00 0.000000e+00)) ((-3.537339e-06 -9.066638e-07 -7.062408e-06) (-1.544523e-07 6.594371e-06 -2.465422e-06) (0.000000e+00 0.000000e+00 0.000000e+00))
55           	((-6.150146e-06 2.345712e-05 -5.942955e-25) (4.330580e-05 1.015853e-06 -5.902453e-26) (0.000000e+00 0.000000e+00 0.000000e+00)) ((-3.518568e-06 -9.225219e-07 -7.089609e-06) (-1.523779e-07 6.495870e-06 -2.430445e-06) (0.000000e+00 0.000000e+00 0.000000e+00))
56           	((-6.203736e-06 2.335564e-05 -5.997680e-25) (4.266870e-05 1.005192e-06 -5.715677e-26) (0.000000e+00 0.000000e+00 0.000000e+00)) ((-3.503346e-06 -9.305604e-07 -7.093797e-06) (-1.507789e-07 6.400305e-06 -2.396468e-06) (0.000000e+00 0.000000e+00 0.000000e+00))
57           	((-6.242506e-06 2.343043e-05 -6.002584e-25) (4.205019e-05 9.962020e-07 -5.513582e-26) (0.000000e+00 0.000000e+00 0.000000e+00)) ((-3.514564e-06 -9.363759e-07 -7.087381e-06) (-1.494303e-07 6.307528e-06 -2.363424e-06) (0.000000e+00 0.000000e+00 0.000000e+00))
58           	((-6.286243e-06 2.365689e-05 -5.969641e-25) (4.144915e-05 9.870803e-07 -5.302986e-26) (0.000000e+00 0.000000e+00 0.000000e+00)) ((-3.548533e-06 -9.429365e-07 -7.076313e-06) (-1.480620e-07 6.217372e-06 -2.331285e-06) (0.000000e+00 0.000000e+00 0.000000e+00))
59           	((-6.290656e-06 2.377833e-05 -5.936226e-25) (4.086456e-05 9.767978e-07 -5.333046e-26) (0.000000e+00 0.000000e+00 0.000000e+00)) ((-3.566750e-06 -9.435984e-07 -7.076371e-06) (-1.465197e-07 6.129684e-06 -2.300069e-06) (0.000000e+00 0.000000e+00 0.000000e+00))
60           	((-6.299222e-06 2.393450e-05 -5.901618e-25) (4.029570e-05 9.661955e-07 -5.507500e-26) (0.000000e+00 0.000000e+00 0.000000e+00)) ((-3.590175e-06 -9.448833e-07 -7.080558e-06) (-1.449293e-07 6.044356e-06 -2.269737e-06) (0.000000e+00 0.000000e+00 0.000000e+00))
61           	((-6.322909e-06 2.394329e-05 -5.921119e-25) (3.974198e-05 9.562428e-07 -5.610522e-26) (0.000000e+00 0.000000e+00 0.000000e+00)) ((-3.591493e-06 -9.484363e-07 -7.090828e-06) (-1.434364e-07 5.961296e-06 -2.240225e-06) (0.000000e+00 0.000000e+00 0.000000e+00))
62           	((-6.367622e-06 2.410943e-05 -5.934678e-25) (3.920283e-05 9.473939e-07 -5.784165e-26) (0.000000e+00 0.000000e+00 0.000000e+00)) ((-3.616415e-06 -9.551433e-07 -7.095863e-06) (-1.421091e-07 5.880424e-06 -2.211488e-06) (0.000000e+00 0.000000e+00 0.000000e+00))
63           	((-6.395909e-06 2.417581e-05 -5.949500e-25) (3.867767e-05 9.394356e-07 -5.771762e-26) (0.000000e+00 0.000000e+00 0.000000e+00)) ((-3.626372e-06 -9.593864e-07 -7.098260e-06) (-1.409153e-07 5.801651e-06 -2.183488e-06) (0.000000e+00 0.000000e+00 0.000000e+00))
64           	((-6.436174e-06 2.434467e-05 -5.936280e-25) (3.816587e-05 9.315728e-07 -5.694561e-26) (0.000000e+00 0.000000e+00 0.000000e+00)) ((-3.651700e-06 -9.654261e-07 -7.094634e-06) (-1.397359e-07 5.724880e-06 -2.156243e-06) (0.000000e+00 0.000000e+00 0.000000e+00))
65           	((-6.450294e-06 2.440490e-05 -5.921236e-25) (3.766680e-05 9.233866e-07 -5.650675e-26) (0.000000e+00 0.000000e+00 0.000000e+00)) ((-3.660735e-06 -9.675441e-07 -7.094157e-06) (-1.385080e-07 5.650020e-06 -2.129754e-06) (0.000000e+00 0.000000e+00 0.000000e+00))
66           	((-6.471666e-06 2.444433e-05 -5.907577e-25) (3.717997e-05 9.151586e-07 -5.618627e-26) (0.000000e+00 0.000000e+00 0.000000e+00)) ((-3.666649e-06 -9.707498e-07 -7.096497e-06) (-1.372738e-07 5.576996e-06 -2.103982e-06) (0.000000e+00 0.000000e+00 0.000000e+00))
67           	((-6.571889e-06 2.453951e-05 -7.802925e-25) (3.670684e-05 9.071970e-07 -1.456534e-26) (0.000000e+00 0.000000e+00 0.000000e+00)) ((-3.680927e-06 -9.857834e-07 -7.095780e-06) (-1.360796e-07 5.506027e-06 -2.078847e-06) (0.000000e+00 0.000000e+00 0.000000e+00))
68           	((-6.583613e-06 2.458732e-05 -7.808843e-25) (3.624693e-05 8.997428e-07 -1.510324e-26) (0.000000e+00 0.000000e+00 0.000000e+00)) ((-3.688098e-06 -9.875419e-07 -7.098071e-06) (-1.349614e-07 5.437040e-06 -2.054297e-06) (0.000000e+00 0.000000e+00 0.000000e+00))
69           	((-6.593856e-06 2.475739e-05 -7.808957e-25) (3.579714e-05 8.927423e-07 -1.639531e-26) (0.000000e+00 0.000000e+00 0.000000e+00)) ((-3.713609e-06 -9.890783e-07 -7.095839e-06) (-1.339113e-07 5.369571e-06 -2.030323e-06) (0.000000e+00 0.000000e+00 0.000000e+00))
70           	((-6.603207e-06 2.482905e-05 -7.816833e-25) (3.535770e-05 8.860324e-07 -1.649944e-26) (0.000000e+00 0.000000e+00 0.000000e+00)) ((-3.724357e-06 -9.904810e-07 -7.097888e-06) (-1.329049e-07 5.303655e-06 -2.006912e-06) (0.000000e+00 0.000000e+00 0.000000e+00))
71           	((-6.626669e-06 2.497703e-05 -7.801635e-25) (3.492812e-05 8.794451e-07 -1.629179e-26) (0.000000e+00 0.000000e+00 0.000000e+00)) ((-3.746554e-06 -9.940004e-07 -7.100184e-06) (-1.319168e-07 5.239218e-06 -1.984085e-06) (0.000000e+00 0.000000e+00 0.000000e+00))
72           	((-6.640196e-06 2.501277e-05 -7.795950e-25) (3.450776e-05 8.729448e-07 -1.585482e-26) (0.000000e+00 0.000000e+00 0.000000e+00)) ((-3.751916e-06 -9.960294e-07 -7.104396e-06) (-1.309417e-07 5.176164e-06 -1.961832e-06) (0.000000e+00 0.000000e+00 0.000000e+00))
73           	((-6.666060e-06 2.506882e-05 -7.782870e-25) (3.409611e-05 8.666638e-07 -1.559926e-26) (0.000000e+00 0.000000e+00 0.000000e+00)) ((-3.760323e-06 -9.999090e-07 -7.106874e-06) (-1.299996e-07 5.114417e-06 -1.940125e-06) (0.000000e+00 0.000000e+00 0.000000e+00))
74           	((-6.682307e-06 2.510709e-05 -7.776800e-25) (3.369287e-05 8.606804e-07 -1.584125e-26) (0.000000e+00 0.000000e+00 0.000000e+00)) ((-3.766064e-06 -1.002346e-06 -7.106534e-06) (-1.291021e-07 5.053931e-06 -1.918931e-06) (0.000000e+00 0.000000e+00 0.000000e+00))
75           	((-6.708641e-06 2.525432e-05 -7.765094e-25) (3.329793e-05 8.549750e-07 -1.695014e-26) (0.000000e+00 0.000000e+00 0.000000e+00)) ((-3.788148e-06 -1.006296e-06 -7.097400e-06) (-1.282462e-07 4.994689e-06 -1.898229e-06) (0.000000e+00 0.000000e+00 0.000000e+00))
76           	((-6.727923e-06 2.538172e-05 -7.762520e-25) (3.291117e-05 8.494888e-07 -1.763806e-26) (0.000000e+00 0.000000e+00 0.000000e+00)) ((-3.807258e-06 -1.009189e-06 -7.094539e-06) (-1.274233e-07 4.936676e-06 -1.878001e-06) (0.000000e+00 0.000000e+00 0.000000e+00))
77           	((-6.739248e-06 2.541537e-05 -7.769359e-25) (3.253252e-05 8.441479e-07 -1.745983e-26) (0.000000e+00 0.000000e+00 0.000000e+00)) ((-3.812305e-06 -1.010887e-06 -7.097544e-06) (-1.266222e-07 4.879877e-06 -1.858237e-06) (0.000000e+00 0.000000e+00 0.000000e+00))
78           	((-6.766210e-06 2.550631e-05 -7.768869e-25) (3.216176e-05 8.389463e-07 -1.689681e-26) (0.000000e+00 0.000000e+00 0.000000e+00)) ((-3.825947e-06 -1.014932e-06 -7.105541e-06) (-1.258419e-07 4.824264e-06 -1.838925e-06) (0.000000e+00 0.000000e+00 0.000000e+00))
79           	((-6.791150e-06 2.558514e-05 -7.760856e-25) (3.179866e-05 8.339073e-07 -1.657967e-26) (0.000000e+00 0.000000e+00 0.000000e+00)) ((-3.837771e-06 -1.018673e-06 -7.109091e-06) (-1.250861e-07 4.769798e-06 -1.820038e-06) (0.000000e+00 0.000000e+00 0.000000e+00))
80           	((-6.805944e-06 2.561259e-05 -7.757029e-25) (3.144300e-05 8.290705e-07 -1.662953e-26) (0.000000e+00 0.000000e+00 0.000000e+00)) ((-3.841889e-06 -1.020892e-06 -7.109132e-06) (-1.243606e-07 4.716450e-06 -1.801555e-06) (0.000000e+00 0.000000e+00 0.000000e+00))
81           	((-6.830838e-06 2.570780e-05 -7.743580e-25) (3.109458e-05 8.244362e-07 -1.727950e-26) (0.000000e+00 0.000000e+00 0.000000e+00)) ((-3.856170e-06 -1.024626e-06 -7.102819e-06) (-1.236654e-07 4.664186e-06 -1.783468e-06) (0.000000e+00 0.000000e+00 0.000000e+00))
82           	((-6.874381e-06 2.581857e-05 -8.444155e-25) (3.075389e-05 8.199674e-07 -2.314145e-27) (0.000000e+00 0.000000e+00 0.000000e+00)) ((-3.872786e-06 -1.031157e-06 -7.097816e-06) (-1.229951e-07 4.613084e-06 -1.765757e-06) (0.000000e+00 0.000000e+00 0.000000e+00))
83           	((-6.889116e-06 2.590604e-05 -8.439348e-25) (3.042071e-05 8.156166e-07 -2.582798e-27) (0.000000e+00 0.000000e+00 0.000000e+00)) ((-3.885906e-06 -1.033367e-06 -7.099286e-06) (-1.223425e-07 4.563107e-06 -1.748420e-06) (0.000000e+00 0.000000e+00 0.000000e+00))
84           	((-6.902443e-06 2.597191e-05 -8.439189e-25) (3.009380e-05 8.113848e-07 -2.462823e-27) (0.000000e+00 0.000000e+00 0.000000e+00)) ((-3.895786e-06 -1.035366e-06 -7.103318e-06) (-1.217077e-07 4.514070e-06 -1.731455e-06) (0.000000e+00 0.000000e+00 0.000000e+00))
85           	((-6.918533e-06 2.602773e-05 -8.438796e-25) (2.977317e-05 8.072820e-07 -2.220803e-27) (0.000000e+00 0.000000e+00 0.000000e+00)) ((-3.904160e-06 -1.037780e-06 -7.105721e-06) (-1.210923e-07 4.465976e-06 -1.714851e-06) (0.000000e+00 0.000000e+00 0.000000e+00))
86           	((-6.936766e-06 2.608780e-05 -8.434753e-25) (2.945859e-05 8.033346e-07 -2.127905e-27) (0.000000e+00 0.000000e+00 0.000000e+00)) ((-3.913169e-06 -1.040515e-06 -7.104932e-06) (-1.205002e-07 4.418789e-06 -1.698597e-06) (0.000000e+00 0.000000e+00 0.000000e+00))
87           	((-6.954813e-06 2.616181e-05 -8.426672e-25) (2.914976e-05 7.995562e-07 -2.280292e-27) (0.000000e+00 0.000000e+00 0.000000e+00)) ((-3.924272e-06 -1.043222e-06 -7.102269e-06) (-1.199334e-07 4.372465e-06 -1.682681e-06) (0.000000e+00 0.000000e+00 0.000000e+00))
88           	((-6.971686e-06 2.624542e-05 -8.417600e-25) (2.884644e-05 7.959391e-07 -2.565117e-27) (0.000000e+00 0.000000e+00 0.000000e+00)) ((-3.936813e-06 -1.045753e-06 -7.100183e-06) (-1.193909e-07 4.326966e-06 -1.667091e-06) (0.000000e+00 0.000000e+00 0.000000e+00))
89           	((-6.988275e-06 2.632541e-05 -8.411039e-25) (2.854846e-05 7.924654e-07 -2.796260e-27) (0.000000e+00 0.000000e+00 0.000000e+00)) ((-3.948811e-06 -1.048241e-06 -7.100136e-06) (-1.188698e-07 4.282269e-06 -1.651817e-06) (0.000000e+00 0.000000e+00 0.000000e+00))
90           	((-7.005627e-06 2.639436e-05 -8.407494e-25) (2.825573e-05 7.891217e-07 -2.886288e-27) (0.000000e+00 0.000000e+00 0.000000e+00)) ((-3.959153e-06 -1.050844e-06 -7.101512e-06) (-1.183683e-07 4.238359e-06 -1.636850e-06) (0.000000e+00 0.000000e+00 0.000000e+00))
91           	((-7.023788e-06 2.645679e-05 -8.404552e-25) (2.796816e-05 7.859037e-07 -2.883866e-27) (0.000000e+00 0.000000e+00 0.000000e+00)) ((-3.968519e-06 -1.053568e-06 -7.102560e-06) (-1.178856e-07 4.195224e-06 -1.622184e-06) (0.000000e+00 0.000000e+00 0.000000e+00))
92           	((-7.042081e-06 2.652027e-05 -8.400014e-25) (2.768567e-05 7.828105e-07 -2.881995e-27) (0.000000e+00 0.000000e+00 0.000000e+00)) ((-3.978041e-06 -1.056312e-06 -7.102173e-06) (-1.174216e-07 4.152851e-06 -1.607809e-06) (0.000000e+00 0.000000e+00 0.000000e+00))
93           	((-7.060048e-06 2.658678e-05 -8.394236e-25) (2.740815e-05 7.798393e-07 -2.919888e-27) (0.000000e+00 0.000000e+00 0.000000e+00)) ((-3.988017e-06 -1.059007e-06 -7.100787e-06) (-1.169759e-07 4.111223e-06 -1.593719e-06) (0.000000e+00 0.000000e+00 0.000000e+00))
94           	((-7.077890e-06 2.665441e-05 -8.388828e-25) (2.713548e-05 7.769841e-07 -2.976470e-27) (0.000000e+00 0.000000e+00 0.000000e+00)) ((-3.998162e-06 -1.061684e-06 -7.099549e-06) (-1.165476e-07 4.070322e-06 -1.579905e-06) (0.000000e+00 0.000000e+00 0.000000e+00))
95           	((-7.113709e-06 2.670824e-05 -8.968220e-25) (2.686813e-05 7.742226e-07 9.866816e-27) (0.000000e+00 0.000000e+00 0.000000e+00)) ((-4.006236e-06 -1.067056e-06 -7.099780e-06) (-1.161334e-07 4.030219e-06 -1.566351e-06) (0.000000e+00 0.000000e+00 0.000000e+00))
96           	((-7.128814e-06 2.679226e-05 -8.959896e-25) (2.660595e-05 7.715535e-07 9.692708e-27) (0.000000e+00 0.000000e+00 0.000000e+00)) ((-4.018839e-06 -1.069322e-06 -7.098301e-06) (-1.157330e-07 3.990893e-06 -1.553051e-06) (0.000000e+00 0.000000e+00 0.000000e+00))
97           	((-7.143429e-06 2.685971e-05 -8.954772e-25) (2.634801e-05 7.689911e-07 9.605439e-27) (0.000000e+00 0.000000e+00 0.000000e+00)) ((-4.028957e-06 -1.071514e-06 -7.098795e-06) (-1.153487e-07 3.952201e-06 -1.540001e-06) (0.000000e+00 0.000000e+00 0.000000e+00))
98           	((-7.158399e-06 2.691597e-05 -8.951318e-25) (2.609437e-05 7.665431e-07 9.596268e-27) (0.000000e+00 0.000000e+00 0.000000e+00)) ((-4.037395e-06 -1.073760e-06 -7.099298e-06) (-1.149815e-07 3.914156e-06 -1.527196e-06) (0.000000e+00 0.000000e+00 0.000000e+00))
99           	((-7.174143e-06 2.696974e-05 -8.948002e-25) (2.584490e-05 7.642097e-07 9.642927e-27) (0.000000e+00 0.000000e+00 0.000000e+00)) ((-4.045460e-06 -1.076122e-06 -7.098875e-06) (-1.146315e-07 3.876735e-06 -1.514634e-06) (0.000000e+00 0.000000e+00 0.000000e+00))
100          	((-7.190157e-06 2.702792e-05 -8.943771e-25) (2.559941e-05 7.619851e-07 9.692196e-27) (0.000000e+00 0.000000e+00 0.000000e+00)) ((-4.054188e-06 -1.078523e-06 -7.097648e-06) (-1.142978e-07 3.839911e-06 -1.502311e-06) (0.000000e+00 0.000000e+00 0.000000e+00))
101          	((-7.206113e-06 2.709012e-05 -8.939144e-25) (2.535772e-05 7.598617e-07 9.718178e-27) (0.000000e+00 0.000000e+00 0.000000e+00)) ((-4.063518e-06 -1.080917e-06 -7.096517e-06) (-1.139793e-07 3.803657e-06 -1.490219e-06) (0.000000e+00 0.000000e+00 0.000000e+00))
102          	((-7.222195e-06 2.715074e-05 -8.935393e-25) (2.511974e-05 7.578348e-07 9.738424e-27) (0.000000e+00 0.000000e+00 0.000000e+00)) ((-4.072611e-06 -1.083329e-06 -7.096130e-06) (-1.136752e-07 3.767961e-06 -1.478353e-06) (0.000000e+00 0.000000e+00 0.000000e+00))
103          	((-7.238587e-06 2.720590e-05 -8.932839e-25) (2.488542e-05 7.559028e-07 9.773311e-27) (0.000000e+00 0.000000e+00 0.000000e+00)) ((-4.080885e-06 -1.085788e-06 -7.096233e-06) (-1.133854e-07 3.732814e-06 -1.466705e-06) (0.000000e+00 0.000000e+00 0.000000e+00))
104          	((-7.255323e-06 2.726184e-05 -8.929636e-25) (2.465474e-05 7.540648e-07 9.797783e-27) (0.000000e+00 0.000000e+00 0.000000e+00)) ((-4.089277e-06 -1.088298e-06 -7.095888e-06) (-1.131097e-07 3.698211e-06 -1.455270e-06) (0.000000e+00 0.000000e+00 0.000000e+00))
105          	((-7.272259e-06 2.732109e-05 -8.925295e-25) (2.442765e-05 7.523190e-07 9.817098e-27) (0.000000e+00 0.000000e+00 0.000000e+00)) ((-4.098164e-06 -1.090839e-06 -7.094978e-06) (-1.128478e-07 3.664147e-06 -1.444040e-06) (0.000000e+00 0.000000e+00 0.000000e+00))
106          	((-7.288988e-06 2.738151e-05 -8.920443e-25) (2.420408e-05 7.506613e-07 9.844151e-27) (0.000000e+00 0.000000e+00 0.000000e+00)) ((-4.107227e-06 -1.093348e-06 -7.093888e-06) (-1.125992e-07 3.630611e-06 -1.433010e-06) (0.000000e+00 0.000000e+00 0.000000e+00))
107          	((-7.321452e-06 2.744115e-05 -9.412532e-25) (2.398438e-05 7.490747e-07 2.083197e-26) (0.000000e+00 0.000000e+00 0.000000e+00)) ((-4.116172e-06 -1.098218e-06 -7.092736e-06) (-1.123612e-07 3.597657e-06 -1.422170e-06) (0.000000e+00 0.000000e+00 0.000000e+00))
108          	((-7.334947e-06 2.750088e-05 -9.407388e-25) (2.376861e-05 7.475503e-07 2.084794e-26) (0.000000e+00 0.000000e+00 0.000000e+00)) ((-4.125132e-06 -1.100242e-06 -7.091898e-06) (-1.121325e-07 3.565291e-06 -1.411516e-06) (0.000000e+00 0.000000e+00 0.000000e+00))
109          	((-7.348051e-06 2.754443e-05 -9.406017e-25) (2.355600e-05 7.461017e-07 2.093397e-26) (0.000000e+00 0.000000e+00 0.000000e+00)) ((-4.131664e-06 -1.102208e-06 -7.092110e-06) (-1.119153e-07 3.533400e-06 -1.401046e-06) (0.000000e+00 0.000000e+00 0.000000e+00))
110          	((-7.362748e-06 2.758650e-05 -9.405203e-25) (2.334657e-05 7.447328e-07 2.104139e-26) (0.000000e+00 0.000000e+00 0.000000e+00)) ((-4.137976e-06 -1.104412e-06 -7.092069e-06) (-1.117099e-07 3.501985e-06 -1.390758e-06) (0.000000e+00 0.000000e+00 0.000000e+00))