/*--------------------------------*- C++ -*----------------------------------*\
| =========                 |                                                 |
| \\      /  F ield         | OpenFOAM: The Open Source CFD Toolbox           |
|  \\    /   O peration     | Version:  5.x                                   |
|   \\  /    A nd           | Web:      www.OpenFOAM.org                      |
|    \\/     M anipulation  |                                                 |
\*---------------------------------------------------------------------------*/
FoamFile
{
    version     2.0;
    format      ascii;
    class       volScalarField;
    location    "900";
    object      nuTilda;
}
// * * * * * * * * * * * * * * * * * * * * * * * * * * * * * * * * * * * * * //

dimensions      [0 2 -1 0 0 0 0];

internalField   nonuniform List<scalar> 
41860
(
4.13224e-05
4.37191e-05
5.51474e-05
5.81422e-05
5.37961e-05
4.98219e-05
4.43218e-05
3.96761e-05
3.59313e-05
3.28297e-05
3.00904e-05
2.81299e-05
2.59741e-05
2.49996e-05
2.33591e-05
2.28544e-05
2.19886e-05
2.13809e-05
2.09902e-05
1.96972e-05
1.95336e-05
2.87433e-05
1.89739e-05
2.98237e-05
1.85974e-05
3.03438e-05
3.0673e-05
1.82791e-05
3.07346e-05
3.06934e-05
3.0673e-05
1.79566e-05
1.79204e-05
3.04035e-05
1.7877e-05
3.01022e-05
1.78955e-05
1.79082e-05
1.79863e-05
2.89445e-05
1.81654e-05
1.82774e-05
3.00888e-05
3.01261e-05
1.7157e-05
3.00636e-05
3.00268e-05
2.99936e-05
2.99493e-05
2.99069e-05
2.9862e-05
2.98169e-05
2.97713e-05
2.9725e-05
2.9673e-05
1.71137e-05
1.71342e-05
2.95189e-05
1.71719e-05
2.94244e-05
2.93582e-05
2.9325e-05
1.72586e-05
2.91816e-05
1.72857e-05
2.90233e-05
1.72942e-05
1.73074e-05
2.87907e-05
2.86203e-05
1.72741e-05
2.84527e-05
2.8269e-05
1.71831e-05
1.71133e-05
2.78459e-05
1.69744e-05
1.68332e-05
1.66846e-05
2.67242e-05
1.6505e-05
1.20183e-05
0.000190892
0.000223924
0.000287226
0.000304011
0.000281042
0.00025997
0.000230645
0.000205845
0.000185844
0.000169277
0.000154641
0.000144181
0.000132668
0.000127484
0.000118716
0.00011602
0.000110943
0.000107117
0.00010447
9.81966e-05
9.66582e-05
9.6845e-05
9.10918e-05
9.3942e-05
8.75524e-05
9.17219e-05
9.0088e-05
8.50005e-05
8.87746e-05
8.84539e-05
8.79441e-05
8.28467e-05
8.2743e-05
8.72819e-05
8.2804e-05
8.75144e-05
8.34318e-05
8.3773e-05
8.47549e-05
9.00031e-05
8.6927e-05
8.82799e-05
8.27288e-05
8.26624e-05
7.80421e-05
8.24456e-05
8.2415e-05
8.23411e-05
8.23404e-05
8.23519e-05
8.23965e-05
8.24681e-05
8.25585e-05
8.26732e-05
8.28204e-05
7.84199e-05
7.8643e-05
8.32637e-05
7.90534e-05
8.36496e-05
8.40081e-05
8.40955e-05
7.99673e-05
8.44927e-05
8.03419e-05
8.48712e-05
8.05961e-05
8.08286e-05
8.50681e-05
8.55029e-05
8.09773e-05
8.52075e-05
8.54014e-05
8.08712e-05
8.05634e-05
8.44956e-05
8.01576e-05
7.94894e-05
7.87578e-05
8.15234e-05
7.79647e-05
1.45143e-05
0.000240166
0.000278381
0.000363119
0.000386954
0.000358084
0.000330944
0.000293042
0.000260988
0.000235284
0.00021428
0.000196401
0.000183474
0.000171639
0.000165416
0.000160506
0.000158719
0.000157798
0.000157291
0.000156704
0.000155995
0.000155012
0.000157348
0.000153922
0.000156078
0.000152655
0.000154452
0.000153965
0.000149875
0.000151912
0.000150766
0.000149747
0.000146003
0.000144979
0.000146675
0.000143159
0.000144887
0.000141678
0.000141086
0.000140699
0.000142651
0.000140406
0.000140534
0.000140308
0.000139962
0.000137261
0.000139281
0.00013896
0.000138662
0.000138396
0.000138163
0.000137962
0.000137795
0.000137659
0.000137553
0.000137478
0.000135165
0.000135165
0.000137371
0.000135217
0.000137429
0.000137554
0.000137572
0.000135515
0.00013767
0.0001356
0.000137734
0.000135598
0.000135631
0.000137562
0.000137673
0.000135337
0.000137174
0.000137061
0.000134608
0.000134112
0.000135567
0.00013302
0.000132008
0.000130923
0.000130868
0.000129412
1.75149e-05
0.000327896
0.000371194
0.000436639
0.00047395
0.00046406
0.000433926
0.000406498
0.00038402
0.00036406
0.000345696
0.000329658
0.000309691
0.000297495
0.000279372
0.000276386
0.000270126
0.000268936
0.000266806
0.000263966
0.000262331
0.000258845
0.000258383
0.000254041
0.000252984
0.000249119
0.000247709
0.000245693
0.000241268
0.000240549
0.000237939
0.000235589
0.000231859
0.000229596
0.000228887
0.00022551
0.000224987
0.000222011
0.000220514
0.000219224
0.000219209
0.000217279
0.00021667
0.000215297
0.000214245
0.000212252
0.000212667
0.000211926
0.000211239
0.000210611
0.000210045
0.000209541
0.000209095
0.000208703
0.000208368
0.000208083
0.00020672
0.00020655
0.000207461
0.000206308
0.000207257
0.000207281
0.0002072
0.000206185
0.000207109
0.000206066
0.000206969
0.000205834
0.000205751
0.000206431
0.000206418
0.000204998
0.000205555
0.000205249
0.000203595
0.000202785
0.000202846
0.000200915
0.00019935
0.000197662
0.000195667
0.000194821
2.11226e-05
0.000453351
0.000548327
0.000643331
0.000697936
0.000719222
0.000679844
0.00065519
0.000629635
0.000601407
0.00057197
0.000544186
0.000509355
0.000485737
0.000451959
0.000438601
0.000422888
0.000416528
0.000409816
0.00040284
0.000398111
0.000391077
0.000386981
0.000380454
0.000375855
0.000370388
0.000365649
0.000361496
0.000355786
0.000352285
0.000347783
0.000343702
0.00033915
0.000335317
0.000332357
0.000328374
0.000325821
0.000322383
0.00031978
0.000317445
0.000315826
0.000313649
0.000312298
0.000309351
0.000307241
0.000305316
0.000304452
0.000303156
0.000301956
0.000300853
0.000299852
0.000298948
0.000298135
0.000297409
0.00029677
0.00029621
0.000295243
0.000294848
0.000294906
0.00029421
0.000294352
0.00029424
0.000294027
0.000293523
0.000293693
0.000293144
0.000293298
0.000292629
0.000292406
0.000292304
0.000292149
0.00029111
0.000290846
0.000290315
0.000288927
0.00028775
0.000286844
0.000284998
0.000282811
0.00028042
0.000276862
0.000275707
2.54552e-05
0.000619086
0.000788947
0.000992038
0.00107907
0.00111262
0.00105022
0.00100681
0.000961712
0.000913397
0.000864131
0.000817388
0.000763548
0.000723486
0.00067262
0.000645143
0.000616988
0.000602527
0.000589131
0.000576429
0.00056682
0.000555086
0.000546532
0.00053641
0.000527876
0.000519494
0.000511247
0.000504257
0.000496248
0.000489864
0.000483004
0.00047674
0.000470518
0.000464761
0.000459635
0.000454345
0.00044989
0.000445374
0.000441451
0.000437919
0.00043491
0.000432034
0.000429905
0.000424864
0.000421294
0.000418862
0.000416933
0.000414947
0.000413103
0.00041141
0.000409864
0.000408465
0.000407197
0.000406057
0.000405043
0.000404144
0.000403161
0.000402492
0.000401998
0.000401375
0.000401017
0.000400742
0.000400363
0.000400012
0.000399746
0.000399334
0.000399057
0.000398495
0.000398119
0.000397535
0.000397228
0.000396215
0.00039542
0.000394641
0.000393163
0.00039157
0.000389957
0.000387838
0.000384965
0.000381769
0.000376906
0.000374489
3.06512e-05
0.000848495
0.00108576
0.00143688
0.00156677
0.00159666
0.00150454
0.00143328
0.0013627
0.0012901
0.00121757
0.00114865
0.0010734
0.00101398
0.000944295
0.000900355
0.000857308
0.000832068
0.000809906
0.000789799
0.00077368
0.000755967
0.000741965
0.000726965
0.000713804
0.000701364
0.000689118
0.000678545
0.000667323
0.000657703
0.000647921
0.000638958
0.000630345
0.000622232
0.000614766
0.000607584
0.000601108
0.000595007
0.000589495
0.000584543
0.000580129
0.000576202
0.000573212
0.00056564
0.000560134
0.000556739
0.000553763
0.000550923
0.000548286
0.000545864
0.00054365
0.000541643
0.000539816
0.000538171
0.000536696
0.000535384
0.000534132
0.00053313
0.000532211
0.000531436
0.000530712
0.000530239
0.000529662
0.000529268
0.000528718
0.000528251
0.000527695
0.000527049
0.000526505
0.000525578
0.000525102
0.00052393
0.000522731
0.000521678
0.00051992
0.000517862
0.000515646
0.000513048
0.000509426
0.000505317
0.000499315
0.000494594
3.68728e-05
0.00118356
0.00144494
0.00196416
0.00214349
0.00216261
0.00203689
0.00193376
0.0018351
0.00173615
0.00163838
0.00154516
0.0014465
0.00136542
0.00127498
0.00121242
0.00115215
0.00111342
0.00108018
0.00105072
0.00102633
0.00100112
0.000980384
0.000959162
0.000940362
0.000922731
0.000905659
0.000890638
0.0008753
0.000861813
0.000848436
0.000836142
0.000824455
0.000813451
0.000803247
0.000793624
0.000784801
0.000776648
0.000769205
0.000762533
0.000756521
0.000751234
0.000747249
0.000736731
0.000728732
0.000723953
0.000719784
0.000715893
0.00071228
0.000708966
0.000705933
0.000703181
0.000700673
0.000698409
0.000696371
0.000694557
0.000692876
0.000691469
0.000690136
0.000689076
0.000688011
0.000687295
0.000686483
0.000685948
0.000685163
0.000684549
0.000683764
0.000682942
0.000682213
0.000680987
0.000680323
0.00067891
0.00067734
0.000675986
0.000673856
0.000671288
0.000668484
0.000665291
0.000660868
0.000655731
0.00064874
0.000640467
4.43082e-05
0.0016312
0.00188241
0.00257909
0.00281337
0.0028174
0.00265457
0.00251683
0.00238838
0.00226167
0.00213712
0.0020178
0.00189385
0.00178895
0.00167567
0.00159227
0.0015124
0.00145733
0.0014104
0.00136928
0.00133457
0.00130002
0.00127093
0.00124194
0.00121617
0.00119206
0.00116905
0.00114853
0.00112806
0.00110984
0.00109203
0.00107563
0.00106012
0.00104556
0.00103204
0.00101938
0.00100771
0.000997005
0.000987201
0.000978417
0.000970491
0.000963505
0.000958328
0.000944482
0.000933343
0.00092671
0.000921088
0.0009159
0.000911087
0.000906679
0.000902642
0.000898979
0.000895636
0.000892617
0.000889893
0.000887465
0.000885229
0.000883329
0.00088153
0.000880089
0.000878648
0.000877635
0.000876544
0.00087581
0.000874791
0.000873981
0.000872972
0.000871928
0.000870997
0.000869476
0.000868602
0.000866914
0.000864971
0.000863291
0.000860747
0.000857633
0.000854218
0.000850361
0.000845101
0.00083882
0.000831049
0.000817664
5.31741e-05
0.00221226
0.00242567
0.00329453
0.00358866
0.00357387
0.00337017
0.00319535
0.00303569
0.00288006
0.00272741
0.00258039
0.00242929
0.00229846
0.00216013
0.00205356
0.0019516
0.0018772
0.00181362
0.00175809
0.00171063
0.00166447
0.00162504
0.00158642
0.001552
0.00151986
0.00148949
0.00146218
0.00143534
0.00141129
0.00138801
0.00136655
0.00134631
0.00132737
0.00130977
0.00129335
0.00127821
0.00126433
0.00125163
0.00124024
0.00122996
0.00122087
0.00121424
0.00119672
0.0011817
0.00117264
0.00116519
0.0011584
0.00115211
0.00114636
0.00114109
0.00113631
0.00113194
0.001128
0.00112444
0.00112126
0.00111834
0.00111584
0.00111348
0.00111157
0.00110968
0.00110831
0.00110688
0.0011059
0.00110463
0.00110359
0.00110235
0.00110106
0.00109991
0.00109809
0.00109698
0.00109501
0.00109268
0.00109065
0.00108768
0.001084
0.00107995
0.00107538
0.00106928
0.00106174
0.00105351
0.0010331
6.37169e-05
0.00295847
0.00311308
0.00412818
0.0044862
0.00444853
0.00419971
0.00398532
0.00379319
0.0036077
0.00342584
0.00324967
0.00306965
0.00291083
0.00274515
0.00261295
0.00248623
0.00238935
0.00230585
0.00223272
0.00216962
0.00210913
0.0020569
0.00200635
0.00196119
0.00191912
0.00187961
0.0018439
0.00180917
0.00177791
0.00174785
0.00172013
0.00169405
0.0016697
0.00164707
0.001626
0.00160657
0.00158877
0.00157248
0.00155785
0.00154468
0.00153296
0.00152451
0.00150301
0.00148329
0.00147108
0.00146132
0.00145253
0.00144442
0.00143701
0.00143022
0.00142407
0.00141846
0.00141338
0.00140879
0.00140469
0.00140094
0.0013977
0.00139467
0.00139217
0.00138976
0.00138793
0.00138612
0.00138484
0.00138329
0.00138199
0.0013805
0.00137894
0.00137756
0.00137544
0.00137408
0.00137184
0.00136912
0.00136673
0.00136334
0.00135909
0.00135439
0.0013491
0.00134217
0.00133328
0.00132507
0.00129543
7.62127e-05
0.00391047
0.00398135
0.00510201
0.00552668
0.00546113
0.00516233
0.0049058
0.00468012
0.00446413
0.00425223
0.00404571
0.00383511
0.00364636
0.00345098
0.00329058
0.00313627
0.00301363
0.00290663
0.00281227
0.00273013
0.00265201
0.00258401
0.00251874
0.00246024
0.00240588
0.002355
0.00230889
0.00226438
0.00222416
0.00218571
0.00215023
0.00211692
0.00208585
0.002057
0.00203017
0.00200543
0.00198276
0.00196202
0.00194336
0.00192658
0.00191157
0.00190081
0.00187506
0.00184976
0.00183348
0.00182078
0.00180949
0.00179912
0.00178967
0.00178102
0.00177317
0.00176602
0.00175955
0.0017537
0.00174847
0.0017437
0.00173955
0.00173571
0.00173249
0.00172945
0.00172707
0.00172477
0.00172313
0.00172128
0.00171969
0.00171793
0.00171609
0.00171448
0.00171206
0.00171044
0.00170795
0.00170486
0.00170212
0.00169835
0.00169355
0.00168823
0.00168222
0.00167455
0.00166423
0.00165669
0.00161551
9.09645e-05
0.00511851
0.00506679
0.00624238
0.0067349
0.00663491
0.00628049
0.0059792
0.00571915
0.00547241
0.00523006
0.00499234
0.0047498
0.00452936
0.00430194
0.00411071
0.00392579
0.00377393
0.00363962
0.00351996
0.00341487
0.00331528
0.00322789
0.00314452
0.00306949
0.00299991
0.00293491
0.00287589
0.00281924
0.00276788
0.00271902
0.0026739
0.00263162
0.0025922
0.00255562
0.00252162
0.00249029
0.00246154
0.00243527
0.00241156
0.00239027
0.00237113
0.0023574
0.00232716
0.00229533
0.0022739
0.00225742
0.00224299
0.00222982
0.00221783
0.00220687
0.00219694
0.00218788
0.0021797
0.00217229
0.00216568
0.00215965
0.00215438
0.00214955
0.00214545
0.00214164
0.00213857
0.0021357
0.00213362
0.00213143
0.00212952
0.00212749
0.00212536
0.00212352
0.00212083
0.00211895
0.00211626
0.00211284
0.00210977
0.00210568
0.0021004
0.00209452
0.00208785
0.00207957
0.00206778
0.00206177
0.00200715
0.000108296
0.00664391
0.00641709
0.00758043
0.00814015
0.00799694
0.00758038
0.00723167
0.00693679
0.00665963
0.006387
0.0061178
0.00584234
0.00558874
0.00532703
0.00510232
0.00488362
0.00469893
0.00453325
0.00438388
0.00425144
0.00412592
0.00401491
0.00390935
0.00381392
0.00372555
0.00364302
0.00356799
0.00349626
0.00343104
0.00336924
0.00331211
0.00325867
0.00320885
0.00316267
0.00311973
0.00308017
0.00304382
0.00301064
0.00298061
0.00295365
0.0029293
0.00291172
0.0028767
0.00283742
0.00280952
0.00278821
0.00276981
0.00275315
0.00273801
0.00272418
0.00271166
0.00270025
0.00268994
0.00268061
0.00267228
0.00266471
0.00265806
0.00265202
0.00264683
0.00264208
0.00263817
0.0026346
0.00263197
0.00262939
0.00262713
0.00262482
0.00262241
0.00262035
0.00261743
0.00261531
0.00261248
0.00260883
0.00260549
0.00260118
0.00259555
0.00258922
0.002582
0.00257333
0.00256009
0.00255663
0.00248791
0.000128543
0.00856099
0.00809404
0.00915353
0.00977472
0.00957809
0.00909197
0.00869325
0.00836369
0.00805726
0.00775539
0.00745515
0.00714637
0.00685858
0.00656056
0.00629977
0.00604402
0.00582272
0.00562144
0.00543764
0.00527304
0.00511662
0.00497706
0.00484457
0.00472409
0.00461259
0.00450838
0.0044135
0.00432308
0.00424062
0.00416273
0.00409063
0.00402328
0.00396051
0.00390234
0.00384823
0.00379841
0.00375254
0.00371069
0.0036727
0.0036386
0.00360766
0.00358504
0.0035449
0.00349726
0.0034614
0.00343391
0.0034105
0.00338945
0.00337037
0.00335297
0.00333723
0.0033229
0.00330995
0.00329825
0.00328778
0.00327831
0.00326995
0.00326241
0.00325587
0.00324998
0.00324504
0.0032406
0.0032373
0.00323425
0.00323159
0.003229
0.00322633
0.00322407
0.003221
0.00321868
0.00321582
0.00321204
0.00320855
0.00320417
0.00319838
0.0031918
0.0031842
0.00317548
0.00316087
0.00316107
0.00308016
0.000152032
0.0109592
0.0101749
0.0110077
0.0116642
0.0114065
0.0108448
0.0103946
0.0100325
0.00969989
0.00937144
0.00904192
0.00870044
0.00837818
0.00804227
0.00774304
0.00744702
0.0071853
0.00694411
0.00672098
0.00651913
0.00632639
0.00615278
0.00598793
0.00583701
0.00569726
0.00556639
0.00544701
0.00533348
0.0052296
0.00513172
0.005041
0.00495634
0.0048774
0.00480426
0.0047362
0.00467352
0.00461572
0.00456298
0.00451495
0.00447183
0.00443256
0.00440329
0.00435752
0.00430068
0.0042552
0.00421991
0.00419013
0.00416356
0.00413956
0.00411771
0.00409794
0.00407997
0.00406374
0.00404908
0.00403595
0.00402411
0.00401362
0.00400423
0.00399603
0.00398871
0.00398249
0.003977
0.00397284
0.00396924
0.00396613
0.00396324
0.00396033
0.00395791
0.00395479
0.00395235
0.00394958
0.00394586
0.00394237
0.00393815
0.00393245
0.00392591
0.0039182
0.00390986
0.00389406
0.00389904
0.00381155
0.000179061
0.0139458
0.0127545
0.0132006
0.0138139
0.0134791
0.0128434
0.0123477
0.0119637
0.0116158
0.0112692
0.010916
0.0105452
0.0101902
0.00981618
0.009477
0.00913806
0.00883238
0.00854717
0.00827989
0.00803564
0.00780099
0.00758745
0.00738427
0.00719686
0.00702294
0.0068596
0.00671021
0.00656831
0.00643799
0.00631538
0.00620153
0.00609536
0.00599629
0.00590448
0.00581899
0.00574023
0.00566747
0.00560103
0.00554037
0.00548582
0.00543599
0.005398
0.00534578
0.00527895
0.0052221
0.00517707
0.00513922
0.0051057
0.00507553
0.0050481
0.00502332
0.0050008
0.00498046
0.0049621
0.00494566
0.00493087
0.00491773
0.00490603
0.00489574
0.00488667
0.00487887
0.00487205
0.00486681
0.00486251
0.00485888
0.00485567
0.00485255
0.00485002
0.00484697
0.00484452
0.00484201
0.00483859
0.00483532
0.00483153
0.00482629
0.00482018
0.00481272
0.00480533
0.00478864
0.00479939
0.00471333
0.000457702
0.0176493
0.0159477
0.0158038
0.0162191
0.015755
0.0150451
0.0145184
0.0141366
0.0138007
0.0134596
0.0131008
0.012713
0.012333
0.0119252
0.0115475
0.0111652
0.0108134
0.010481
0.0101655
0.00987423
0.00959237
0.00933305
0.00908545
0.00885509
0.00864058
0.00843828
0.00825258
0.00807621
0.00791355
0.00776058
0.00761823
0.00748547
0.00736145
0.00724646
0.00713927
0.00704044
0.00694896
0.00686534
0.00678877
0.00671979
0.00665659
0.00660717
0.00654723
0.00646968
0.0063997
0.00634269
0.0062947
0.00625244
0.00621452
0.00618013
0.00614905
0.00612085
0.00609538
0.0060724
0.0060518
0.00603332
0.00601686
0.00600228
0.0059894
0.00597813
0.00596836
0.00595988
0.00595326
0.00594806
0.00594377
0.0059402
0.00593689
0.00593432
0.00593147
0.00592917
0.00592711
0.00592428
0.00592154
0.00591853
0.00591418
0.005909
0.00590227
0.0058965
0.00587934
0.00589671
0.00581831
0.00110389
0.0222239
0.0198918
0.0189029
0.0188819
0.0181972
0.0174003
0.0168547
0.0164992
0.0162085
0.0159099
0.0155804
0.0152052
0.0148228
0.0143971
0.0139908
0.0135708
0.0131751
0.0127957
0.0124302
0.0120892
0.0117563
0.0114463
0.0111488
0.0108693
0.0106078
0.0103598
0.010131
0.00991353
0.00971192
0.0095222
0.00934515
0.00917987
0.00902523
0.00888169
0.00874769
0.00862397
0.00850922
0.00840415
0.00830766
0.00822049
0.00814046
0.00807619
0.00800661
0.00791755
0.00783277
0.00776135
0.00770078
0.00764758
0.00759997
0.00755687
0.00751794
0.00748264
0.00745075
0.007422
0.00739619
0.00737309
0.00735248
0.00733427
0.00731815
0.00730413
0.00729191
0.00728134
0.00727294
0.00726654
0.00726141
0.00725738
0.00725388
0.00725131
0.00724883
0.00724684
0.00724547
0.00724356
0.00724171
0.0072399
0.00723695
0.00723329
0.00722785
0.00722447
0.00720735
0.00723209
0.00715689
0.00362289
0.0278572
0.0247476
0.0225928
0.0218153
0.0207845
0.0198746
0.0193154
0.0190033
0.018784
0.0185622
0.0183014
0.0179799
0.0176336
0.017223
0.0168137
0.0163749
0.0159478
0.0155295
0.0151184
0.0147297
0.0143457
0.0139832
0.0136326
0.0132996
0.0129857
0.012686
0.0124078
0.0121426
0.0118953
0.0116621
0.0114437
0.0112393
0.0110477
0.0108695
0.0107028
0.0105486
0.0104053
0.0102737
0.0101525
0.0100427
0.00994161
0.00985831
0.00977632
0.00967476
0.00957368
0.0094854
0.0094095
0.00934278
0.00928315
0.00922924
0.00918053
0.00913641
0.00909652
0.00906057
0.00902825
0.00899939
0.00897358
0.00895084
0.00893066
0.00891319
0.00889791
0.00888472
0.00887403
0.00886601
0.00885975
0.00885509
0.00885133
0.00884879
0.00884679
0.00884531
0.00884486
0.00884422
0.00884367
0.0088435
0.00884251
0.00884103
0.00883749
0.00883729
0.00882073
0.00885351
0.00878048
0.0057345
0.0347694
0.0306971
0.0269589
0.025036
0.0235051
0.022444
0.0218713
0.021613
0.0214826
0.021362
0.0212016
0.020972
0.0207038
0.0203511
0.0199784
0.0195556
0.0191254
0.0186899
0.0182495
0.0178249
0.0173979
0.0169876
0.0165861
0.0161996
0.0158316
0.0154769
0.0151451
0.014827
0.0145283
0.0142455
0.0139794
0.0137296
0.0134946
0.0132753
0.0130697
0.012879
0.0127012
0.0125374
0.0123861
0.0122484
0.0121214
0.0120142
0.0119161
0.0118007
0.0116821
0.0115747
0.0114806
0.0113975
0.0113231
0.011256
0.0111952
0.0111402
0.0110905
0.0110456
0.0110052
0.0109692
0.0109369
0.0109085
0.0108833
0.0108615
0.0108424
0.010826
0.0108123
0.0108022
0.0107943
0.0107887
0.0107846
0.010782
0.0107805
0.0107797
0.0107804
0.0107814
0.0107825
0.0107844
0.0107859
0.0107872
0.0107862
0.0107899
0.0107743
0.0108156
0.0107377
0.00823089
0.0429883
0.0379121
0.0320302
0.0285485
0.026346
0.0250853
0.0244961
0.0242991
0.0242691
0.0242659
0.0242275
0.0241184
0.0239629
0.0237074
0.0234134
0.023049
0.0226561
0.0222391
0.0217999
0.0213651
0.0209159
0.0204738
0.0200337
0.0196021
0.0191854
0.0187785
0.0183936
0.0180218
0.0176692
0.0173334
0.0170152
0.0167151
0.0164313
0.0161654
0.0159152
0.0156821
0.0154641
0.0152624
0.0150754
0.0149044
0.0147463
0.0146099
0.0144912
0.0143602
0.0142229
0.0140947
0.0139798
0.0138774
0.0137854
0.0137023
0.0136271
0.0135589
0.0134971
0.0134414
0.0133912
0.0133464
0.0133062
0.0132709
0.0132394
0.0132123
0.0131885
0.013168
0.0131507
0.0131376
0.0131276
0.0131206
0.0131157
0.0131129
0.013112
0.0131119
0.0131138
0.0131166
0.0131198
0.0131242
0.0131285
0.0131332
0.013135
0.0131431
0.0131286
0.0131786
0.0130871
0.0111307
0.0520063
0.0462817
0.0377119
0.0323143
0.0292783
0.0277663
0.0271582
0.0270295
0.0271093
0.0272342
0.0273323
0.0273643
0.0273469
0.0272187
0.0270384
0.0267714
0.0264576
0.0261003
0.0257022
0.0252941
0.0248557
0.0244107
0.0239566
0.0235007
0.0230517
0.0226053
0.0221769
0.0217579
0.0213557
0.0209689
0.0205991
0.0202477
0.0199132
0.0195978
0.0192994
0.01902
0.0187573
0.0185132
0.0182857
0.0180764
0.0178824
0.0177117
0.0175678
0.0174189
0.0172624
0.0171123
0.0169748
0.0168506
0.0167385
0.0166368
0.0165445
0.0164609
0.0163849
0.0163164
0.0162544
0.0161991
0.0161494
0.0161057
0.0160667
0.0160331
0.0160037
0.0159783
0.0159564
0.0159396
0.0159267
0.0159177
0.0159116
0.0159083
0.0159077
0.0159082
0.0159113
0.015916
0.0159213
0.0159283
0.0159357
0.0159439
0.0159487
0.0159611
0.0159473
0.0160055
0.0158927
0.0144692
0.0613822
0.0552743
0.0437321
0.036196
0.0322311
0.0304344
0.0298137
0.0297625
0.0299608
0.0302219
0.0304666
0.0306557
0.0307953
0.030817
0.0307771
0.0306386
0.0304402
0.0301805
0.0298633
0.0295218
0.0291331
0.0287222
0.0282888
0.0278402
0.0273869
0.0269253
0.0264741
0.0260252
0.0255873
0.0251606
0.0247476
0.0243511
0.02397
0.0236077
0.0232622
0.0229365
0.0226283
0.0223399
0.0220697
0.0218194
0.0215864
0.0213779
0.0212047
0.0210358
0.0208599
0.0206882
0.0205277
0.0203806
0.0202465
0.0201244
0.0200131
0.019912
0.01982
0.0197368
0.0196614
0.0195941
0.0195334
0.01948
0.0194324
0.0193913
0.0193553
0.0193241
0.0192968
0.0192755
0.0192588
0.0192471
0.0192392
0.0192347
0.019234
0.0192348
0.019239
0.0192454
0.0192527
0.0192621
0.0192725
0.0192839
0.0192913
0.0193073
0.019293
0.0193575
0.0192187
0.0182685
0.0708188
0.0643738
0.0495477
0.0398454
0.0350431
0.0329985
0.0324014
0.0324429
0.0327693
0.0331713
0.0335689
0.0339287
0.0342403
0.0344294
0.0345509
0.0345663
0.0345135
0.0343832
0.0341825
0.0339447
0.0336433
0.0333043
0.0329295
0.0325254
0.0321029
0.0316592
0.0312156
0.030764
0.0303146
0.0298692
0.0294313
0.0290049
0.0285901
0.0281913
0.0278074
0.0274418
0.0270932
0.0267642
0.0264536
0.0261636
0.0258921
0.0256456
0.0254416
0.0252517
0.0250574
0.0248661
0.0246842
0.024515
0.0243591
0.0242162
0.0240852
0.0239659
0.0238569
0.0237581
0.0236683
0.023588
0.0235154
0.0234515
0.0233944
0.0233451
0.023302
0.0232645
0.0232313
0.0232048
0.0231835
0.0231684
0.023158
0.0231518
0.0231506
0.0231512
0.023156
0.0231636
0.0231725
0.023184
0.0231966
0.0232104
0.0232195
0.0232376
0.0232208
0.0232887
0.0231223
0.0225329
0.0800367
0.0729463
0.055132
0.0431283
0.0376984
0.0355035
0.0349438
0.0350539
0.0354721
0.0360121
0.036563
0.0371049
0.0375983
0.0379671
0.0382668
0.0384578
0.0385777
0.0386036
0.0385517
0.0384513
0.0382709
0.038039
0.0377597
0.0374374
0.037082
0.0366929
0.0362922
0.0358713
0.0354419
0.0350069
0.034571
0.0341391
0.0337123
0.0332964
0.0328907
0.0325002
0.0321236
0.0317648
0.0314229
0.0311006
0.0307967
0.0305172
0.0302849
0.0300758
0.0298659
0.029659
0.0294601
0.0292726
0.0290978
0.0289363
0.0287873
0.028651
0.0285258
0.0284122
0.0283085
0.0282155
0.0281313
0.028057
0.0279906
0.0279332
0.0278831
0.0278396
0.0278004
0.0277687
0.0277427
0.0277238
0.0277105
0.0277022
0.0277
0.0277
0.027705
0.0277134
0.0277232
0.0277359
0.02775
0.0277652
0.0277743
0.0277927
0.027771
0.0278378
0.0276459
0.0272747
0.0886916
0.0804974
0.0616072
0.0473541
0.0408606
0.0384487
0.0378397
0.0379237
0.0383357
0.0389097
0.039526
0.040165
0.0407761
0.0413238
0.0418123
0.042196
0.0425126
0.0427162
0.0428442
0.0429129
0.0428839
0.0427919
0.0426438
0.042439
0.0421861
0.0418886
0.0415675
0.0412128
0.0408383
0.0404474
0.0400458
0.0396388
0.0392286
0.0388219
0.038419
0.0380257
0.0376415
0.037271
0.0369141
0.036574
0.0362506
0.0359492
0.0356971
0.0354746
0.0352548
0.035039
0.0348302
0.0346314
0.0344441
0.0342695
0.0341072
0.0339579
0.0338202
0.0336948
0.0335798
0.0334766
0.0333829
0.0333002
0.0332262
0.0331622
0.0331065
0.0330583
0.0330145
0.0329785
0.0329486
0.0329265
0.0329106
0.0329005
0.0328974
0.0328968
0.0329018
0.0329108
0.0329212
0.0329347
0.0329494
0.0329648
0.0329728
0.0329892
0.0329606
0.0330213
0.0328092
0.0325207
0.0963438
0.0870249
0.069121
0.0540582
0.0462384
0.0430916
0.0419747
0.0417332
0.0419135
0.0423282
0.0428536
0.0434432
0.0440507
0.0446452
0.0452182
0.0457088
0.0461837
0.0465707
0.0469094
0.047175
0.0473217
0.0474007
0.04742
0.0473664
0.04725
0.047082
0.0468775
0.0466251
0.0463418
0.0460313
0.0456991
0.045351
0.0449904
0.0446245
0.0442543
0.0438863
0.0435209
0.0431634
0.0428143
0.0424777
0.0421539
0.0418485
0.0415907
0.0413653
0.0411451
0.0409301
0.0407214
0.0405215
0.0403313
0.0401527
0.0399853
0.0398305
0.0396869
0.0395558
0.0394352
0.0393268
0.0392281
0.0391412
0.0390634
0.0389964
0.0389383
0.0388884
0.0388429
0.0388054
0.0387739
0.0387506
0.0387339
0.0387234
0.0387205
0.0387204
0.0387263
0.0387365
0.0387479
0.0387624
0.0387777
0.0387932
0.0387994
0.0388128
0.0387768
0.0388267
0.0386036
0.0383012
0.102524
0.0930844
0.0774255
0.062985
0.0544749
0.0502002
0.0480643
0.047104
0.046766
0.0467878
0.0470253
0.0473787
0.0478239
0.0483016
0.0488172
0.0492951
0.0497916
0.0502436
0.0506782
0.0510706
0.0513966
0.0516746
0.0518965
0.0520206
0.0520715
0.0520726
0.0520209
0.0519063
0.051752
0.0515598
0.0513345
0.051082
0.0508073
0.0505175
0.050214
0.0499041
0.0495889
0.0492743
0.0489615
0.0486549
0.0483561
0.0480702
0.0478265
0.0476137
0.0474069
0.0472055
0.0470099
0.0468217
0.0466414
0.046471
0.0463101
0.0461606
0.0460212
0.0458936
0.045776
0.0456703
0.0455741
0.0454898
0.0454146
0.0453505
0.0452955
0.0452491
0.0452068
0.0451725
0.0451438
0.0451233
0.0451094
0.0451017
0.0451021
0.0451051
0.0451143
0.0451278
0.0451423
0.0451596
0.0451772
0.0451939
0.0451999
0.0452109
0.0451698
0.045206
0.0449855
0.0446189
0.107141
0.0992836
0.0861952
0.0731185
0.0642151
0.0587276
0.0554823
0.0536976
0.0527546
0.0523002
0.0521492
0.0521596
0.0523305
0.0525688
0.0528989
0.0532421
0.0536274
0.054018
0.0544206
0.0548205
0.0551964
0.0555578
0.0558834
0.0561781
0.0564191
0.0566306
0.056758
0.0568114
0.0568236
0.056788
0.0567067
0.056588
0.0564379
0.0562622
0.0560629
0.0558477
0.0556185
0.0553812
0.0551378
0.0548932
0.0546499
0.0544126
0.0542078
0.0540279
0.0538527
0.0536817
0.0535153
0.0533546
0.0531997
0.0530526
0.0529128
0.0527825
0.0526605
0.052549
0.0524461
0.0523542
0.0522709
0.0521988
0.0521353
0.0520827
0.0520388
0.0520035
0.0519718
0.0519476
0.0519285
0.0519172
0.0519121
0.0519129
0.0519216
0.0519326
0.0519498
0.051971
0.0519928
0.0520168
0.0520406
0.0520625
0.0520724
0.0520845
0.0520443
0.0520671
0.0518665
0.0514247
0.111533
0.105434
0.0949704
0.0833044
0.0733444
0.0665266
0.062603
0.0603446
0.0590314
0.0582461
0.0577676
0.0574757
0.0573844
0.0573745
0.0574753
0.0576179
0.0578169
0.0580579
0.0583299
0.0586332
0.0589452
0.0592748
0.0595998
0.0599313
0.0602471
0.0605553
0.0608363
0.0610738
0.0612872
0.0614367
0.0615283
0.0615779
0.0615898
0.0615653
0.0615076
0.0614254
0.06132
0.0611976
0.0610603
0.0609138
0.0607609
0.0606061
0.0604699
0.0603476
0.0602266
0.0601071
0.0599895
0.0598753
0.0597643
0.0596585
0.0595572
0.0594631
0.0593748
0.059295
0.0592217
0.0591577
0.0591008
0.0590538
0.0590141
0.0589843
0.0589622
0.0589482
0.058937
0.0589327
0.0589325
0.0589393
0.0589516
0.0589691
0.058994
0.0590207
0.059053
0.059089
0.059125
0.0591627
0.0591994
0.0592333
0.0592545
0.059275
0.0592459
0.0592608
0.0590991
0.058603
0.116332
0.111628
0.103315
0.0932903
0.0837888
0.0761235
0.0704043
0.0669702
0.0650408
0.0638797
0.0631844
0.0627525
0.0625326
0.0623654
0.0622754
0.0622301
0.0622506
0.0623248
0.062429
0.0625782
0.0627528
0.0629658
0.0632023
0.0634684
0.0637528
0.0640531
0.0643625
0.0646646
0.0649674
0.0652516
0.065516
0.0657566
0.0659547
0.0661046
0.0662173
0.0663005
0.0663526
0.0663793
0.0663838
0.0663715
0.0663452
0.0663089
0.0662735
0.0662363
0.0661954
0.0661515
0.0661057
0.0660598
0.0660137
0.0659697
0.0659271
0.0658886
0.0658532
0.0658233
0.0657975
0.0657785
0.0657643
0.065758
0.0657571
0.0657643
0.0657777
0.0657979
0.0658199
0.0658477
0.0658785
0.0659151
0.0659562
0.0660014
0.0660531
0.0661059
0.0661638
0.0662244
0.0662847
0.0663461
0.0664059
0.0664621
0.0665058
0.0665461
0.0665426
0.066562
0.066458
0.0659533
0.120468
0.117181
0.110861
0.102877
0.0947777
0.0875472
0.0814486
0.0766639
0.0730351
0.0706104
0.0692144
0.0683274
0.0677276
0.0672713
0.0669943
0.0668228
0.0667497
0.0666936
0.0666376
0.0666217
0.0666342
0.0666924
0.0667895
0.0669273
0.0671023
0.0673079
0.0675446
0.0678018
0.0680838
0.0683797
0.0686888
0.0690027
0.0693155
0.0696164
0.0699039
0.0701629
0.0703837
0.0705764
0.070745
0.0708923
0.0710201
0.0711319
0.0712252
0.0712981
0.0713611
0.071416
0.0714646
0.0715088
0.0715492
0.0715879
0.0716248
0.0716623
0.0716997
0.0717394
0.0717804
0.071825
0.0718719
0.0719236
0.0719786
0.072039
0.0721036
0.0721731
0.0722432
0.0723175
0.0723936
0.072474
0.0725575
0.072644
0.0727356
0.0728277
0.072924
0.0730222
0.0731197
0.0732179
0.0733142
0.0734066
0.0734879
0.0735638
0.0736043
0.0736485
0.0736204
0.0731722
0.123925
0.121717
0.117294
0.111472
0.10499
0.0985668
0.092838
0.0880157
0.0840331
0.0807897
0.0782288
0.07607
0.0743725
0.0731278
0.0723714
0.0718682
0.0715037
0.0712088
0.0709509