/*--------------------------------*- C++ -*----------------------------------*\
| =========                 |                                                 |
| \\      /  F ield         | OpenFOAM: The Open Source CFD Toolbox           |
|  \\    /   O peration     | Version:  5.x                                   |
|   \\  /    A nd           | Web:      www.OpenFOAM.org                      |
|    \\/     M anipulation  |                                                 |
\*---------------------------------------------------------------------------*/
FoamFile
{
    version     2.0;
    format      ascii;
    class       volScalarField;
    location    "900";
    object      p;
}
// * * * * * * * * * * * * * * * * * * * * * * * * * * * * * * * * * * * * * //

dimensions      [0 2 -2 0 0 0 0];

internalField   nonuniform List<scalar> 
41860
(
0.0871194
51996.3
29564.8
92401.2
103395
114004
122436
129272
135174
140214
144595
148449
151944
155051
157941
160509
162943
165188
167287
169275
171126
172904
174583
176200
177748
179239
180680
182070
183428
184742
186037
187291
188534
189743
190947
192120
193291
194437
195582
196705
197833
198931
199947
200838
201722
202569
203410
204232
205034
205834
206605
207384
208131
208889
209619
210360
211077
211801
212508
213216
213914
214604
215303
216033
216759
217512
218265
219049
219840
220660
221511
222382
223300
224260
225265
226329
227482
228706
230101
231486
233549
234225
377.116
52009.8
29552.5
92345.4
103382
113992
122426
129264
135167
140209
144590
148445
151941
155048
157939
160506
162941
165187
167286
169274
171125
172903
174582
176199
177747
179238
180680
182069
183428
184742
186036
187291
188534
189743
190947
192120
193290
194436
195582
196705
197833
198931
199947
200838
201722
202569
203410
204232
205034
205833
206605
207383
208131
208889
209619
210359
211076
211801
212508
213215
213914
214604
215303
216033
216759
217512
218265
219049
219840
220660
221511
222382
223300
224260
225265
226329
227482
228706
230101
231486
233549
234222
947.094
52033.6
29548
92276.5
103366
113977
122415
129255
135160
140202
144585
148440
151937
155045
157936
160504
162939
165185
167284
169272
171123
172902
174581
176198
177746
179237
180679
182069
183427
184742
186036
187290
188534
189742
190946
192120
193290
194436
195582
196705
197833
198930
199946
200837
201722
202569
203410
204232
205034
205833
206605
207383
208131
208889
209619
210359
211076
211801
212508
213215
213914
214604
215303
216033
216758
217512
218265
219049
219840
220660
221511
222382
223300
224260
225265
226329
227482
228706
230101
231486
233549
234219
1648.72
52069.6
29552.5
92204.2
103350
113963
122403
129245
135152
140196
144579
148436
151933
155041
157933
160502
162937
165183
167282
169271
171122
172900
174580
176197
177746
179236
180679
182068
183427
184741
186035
187290
188533
189742
190946
192119
193290
194436
195582
196705
197833
198930
199946
200837
201721
202569
203410
204232
205034
205833
206605
207383
208131
208889
209619
210359
211076
211801
212508
213215
213914
214604
215303
216033
216758
217512
218265
219049
219840
220660
221511
222382
223300
224260
225265
226329
227482
228706
230101
231486
233550
234215
2531.88
52123.5
29567.4
92121.8
103333
113946
122390
129235
135143
140189
144574
148431
151929
155038
157930
160499
162934
165181
167281
169269
171121
172899
174579
176196
177745
179236
180678
182067
183426
184740
186035
187290
188533
189741
190946
192119
193290
194435
195581
196704
197833
198930
199946
200837
201721
202568
203410
204231
205033
205833
206604
207383
208131
208888
209619
210359
211076
211801
212507
213215
213914
214604
215303
216033
216758
217512
218265
219049
219840
220660
221511
222382
223300
224260
225265
226329
227481
228706
230101
231486
233550
234210
3646.6
52201.6
29597.1
92024
103315
113928
122376
129223
135133
140180
144566
148425
151924
155033
157926
160496
162931
165178
167278
169267
171119
172898
174578
176195
177744
179235
180677
182067
183425
184740
186034
187289
188532
189741
190945
192119
193289
194435
195581
196704
197832
198930
199946
200837
201721
202568
203409
204231
205033
205833
206604
207383
208131
208888
209618
210359
211076
211801
212507
213215
213914
214604
215303
216033
216758
217512
218265
219049
219840
220660
221511
222382
223300
224260
225265
226329
227481
228706
230101
231486
233550
234204
5027.47
52309.8
29644.8
91907.2
103293
113906
122358
129209
135121
140170
144558
148418
151918
155028
157921
160492
162928
165175
167276
169265
171117
172896
174576
176193
177742
179233
180676
182066
183424
184739
186034
187288
188532
189740
190945
192118
193289
194435
195581
196704
197832
198929
199945
200836
201721
202568
203409
204231
205033
205833
206604
207383
208130
208888
209618
210359
211076
211801
212507
213215
213914
214604
215303
216033
216758
217512
218265
219049
219840
220660
221511
222382
223300
224260
225265
226329
227481
228706
230101
231486
233550
234198
6713.4
52455.5
29714.2
91767.1
103267
113880
122338
129192
135107
140158
144548
148409
151910
155022
157916
160487
162924
165172
167273
169262
171115
172894
174574
176191
177741
179232
180675
182064
183423
184738
186033
187288
188531
189740
190944
192118
193288
194434
195580
196703
197832
198929
199945
200836
201720
202568
203409
204231
205033
205832
206604
207383
208130
208888
209618
210359
211076
211800
212507
213215
213914
214604
215303
216033
216758
217512
218265
219049
219840
220660
221511
222382
223300
224260
225264
226329
227481
228706
230101
231486
233550
234190
8753.68
52647.5
29810.5
91599.1
103238
113850
122313
129171
135090
140144
144536
148399
151902
155014
157910
160482
162919
165168
167269
169259
171112
172891
174572
176189
177739
179230
180673
182063
183422
184737
186032
187287
188530
189739
190943
192117
193288
194434
195580
196703
197831
198929
199945
200836
201720
202567
203409
204230
205033
205832
206604
207382
208130
208888
209618
210359
211076
211800
212507
213215
213914
214604
215303
216033
216758
217511
218265
219049
219840
220660
221511
222382
223300
224260
225264
226329
227481
228706
230101
231485
233551
234181
11207
52897.6
29941
91397.5
103202
113814
122284
129147
135069
140127
144522
148387
151891
155006
157902
160475
162914
165163
167265
169255
171108
172888
174569
176187
177737
179229
180671
182062
183421
184736
186031
187286
188529
189738
190943
192116
193287
194433
195579
196702
197831
198928
199944
200835
201720
202567
203408
204230
205032
205832
206603
207382
208130
208888
209618
210358
211076
211800
212507
213215
213914
214604
215303
216032
216758
217511
218265
219049
219840
220660
221511
222381
223300
224259
225264
226329
227481
228706
230101
231485
233551
234170
14140.9
53220.9
30114.9
91156.2
103160
113771
122250
129119
135045
140107
144505
148373
151879
154995
157893
160468
162907
165157
167260
169251
171105
172885
174566
176184
177735
179226
180670
182060
183419
184734
186029
187284
188528
189737
190942
192115
193286
194432
195578
196702
197830
198928
199944
200835
201719
202567
203408
204230
205032
205832
206603
207382
208130
208887
209618
210358
211075
211800
212507
213215
213913
214603
215303
216032
216758
217511
218265
219049
219840
220660
221511
222381
223299
224259
225264
226328
227481
228705
230101
231485
233551
234157
17632.1
53636.4
30343.9
90867.8
103111
113720
122209
129085
135017
140084
144486
148356
151865
154983
157883
160459
162899
165150
167254
169245
171100
172881
174563
176181
177732
179224
180667
182058
183417
184733
186028
187283
188527
189736
190941
192114
193285
194432
195578
196701
197829
198927
199943
200834
201719
202566
203407
204229
205032
205831
206603
207382
208129
208887
209617
210358
211075
211800
212506
213214
213913
214603
215303
216032
216758
217511
218265
219048
219840
220660
221511
222381
223299
224259
225264
226328
227481
228705
230101
231485
233551
234142
21766.5
54169.2
30642.6
90524
103052
113661
122161
129045
134983
140056
144462
148336
151848
154969
157870
160448
162890
165142
167247
169239
171095
172876
174558
176178
177728
179221
180665
182056
183415
184731
186026
187282
188525
189735
190939
192113
193284
194431
195577
196700
197829
198926
199942
200834
201718
202566
203407
204229
205031
205831
206603
207381
208129
208887
209617
210358
211075
211799
212506
213214
213913
214603
215303
216032
216758
217511
218265
219048
219840
220660
221510
222381
223299
224259
225264
226328
227481
228705
230101
231485
233551
234125
26639.6
54851.6
31029.8
90115.5
102983
113591
122104
128998
134943
140023
144434
148313
151828
154952
157856
160436
162879
165133
167239
169232
171089
172871
174553
176173
177725
179218
180662
182053
183413
184729
186024
187280
188524
189733
190938
192112
193283
194430
195576
196700
197828
198926
199942
200833
201717
202565
203406
204228
205031
205830
206602
207381
208129
208886
209617
210357
211075
211799
212506
213214
213913
214603
215302
216032
216758
217511
218265
219048
219840
220660
221510
222381
223299
224259
225264
226328
227481
228705
230101
231484
233551
234105
32354.8
55725.8
31529.4
89631.7
102900
113508
122036
128942
134896
139984
144402
148285
151804
154932
157838
160421
162866
165122
167229
169224
171081
172864
174548
176168
177720
179214
180658
182050
183410
184726
186022
187278
188522
189732
190936
192111
193282
194428
195575
196699
197827
198925
199941
200832
201717
202565
203406
204228
205030
205830
206602
207380
208128
208886
209616
210357
211074
211799
212506
213214
213913
214603
215302
216032
216758
217511
218265
219048
219840
220660
221511
222381
223299
224259
225264
226329
227481
228705
230101
231484
233550
234084
39021.6
56847.1
32172.4
89061.3
102801
113412
121957
128876
134840
139937
144363
148253
151777
154908
157818
160403
162851
165109
167218
169214
171073
172857
174541
176162
177715
179209
180654
182046
183407
184723
186019
187275
188520
189730
190935
192109
193280
194427
195573
196697
197826
198924
199940
200831
201716
202564
203405
204227
205030
205829
206601
207380
208128
208886
209616
210357
211074
211799
212506
213214
213913
214603
215302
216032
216758
217511
218265
219048
219840
220660
221511
222382
223300
224260
225265
226329
227481
228706
230101
231484
233549
234060
46752.3
58287.6
32999.3
88392.4
102682
113299
121863
128798
134775
139883
144318
148214
151744
154880
157794
160383
162834
165094
167205
169202
171063
172848
174533
176156
177709
179204
180649
182042
183403
184720
186016
187273
188517
189728
190933
192107
193279
194426
195572
196696
197825
198923
199939
200830
201715
202563
203404
204227
205029
205829
206601
207379
208127
208885
209616
210356
211074
211798
212505
213213
213913
214603
215302
216032
216758
217511
218265
219048
219840
220660
221511
222382
223300
224260
225265
226329
227482
228706
230102
231483
233548
234034
55655.9
60140.9
34063.3
87613.8
102538
113169
121753
128707
134698
139819
144264
148169
151705
154847
157766
160359
162813
165076
167190
169189
171051
172838
174525
176148
177702
179198
180644
182037
183399
184716
186013
187270
188515
189725
190930
192105
193277
194424
195571
196695
197824
198922
199938
200829
201714
202562
203404
204226
205028
205828
206600
207379
208127
208885
209615
210356
211074
211798
212505
213213
213912
214603
215303
216032
216758
217511
218265
219049
219840
220660
221511
222382
223300
224260
225265
226329
227482
228706
230102
231483
233547
234005
65829.8
62528.4
35434.7
86717
102362
113017
121625
128600
134607
139744
144202
148116
151660
154809
157733
160331
162789
165055
167172
169174
171038
172826
174514
176139
177694
179191
180638
182032
183394
184712
186009
187266
188512
189722
190928
192103
193275
194422
195569
196693
197822
198921
199936
200828
201713
202561
203403
204225
205028
205827
206600
207378
208127
208884
209615
210356
211073
211798
212505
213213
213912
214603
215303
216032
216758
217511
218265
219049
219840
220661
221511
222382
223300
224260
225265
226329
227482
228706
230102
231483
233548
233974
77347.6
65604.8
37206.9
85700.8
102145
112843
121475
128474
134501
139657
144128
148055
151608
154765
157695
160299
162761
165031
167151
169156
171023
172813
174503
176129
177685
179183
180631
182026
183389
184707
186005
187263
188508
189720
190925
192101
193273
194420
195567
196692
197821
198920
199935
200827
201712
202560
203402
204224
205027
205827
206599
207378
208126
208884
209615
210355
211073
211798
212505
213213
213912
214603
215303
216033
216759
217512
218266
219049
219841
220661
221512
222383
223301
224261
225266
226330
227483
228707
230103
231482
233549
233948
90247
69564.6
39505
84576
101879
112646
121301
128328
134377
139554
144043
147983
151547
154713
157650
160262
162729
165003
167128
169135
171005
172797
174489
176117
177675
179174
180623
182019
183383
184702
186000
187259
188505
189716
190922
192098
193270
194418
195565
196690
197819
198919
199934
200826
201710
202559
203401
204223
205026
205826
206599
207377
208126
208883
209615
210355
211073
211797
212505
213213
213913
214604
215304
216033
216759
217512
218266
219050
219841
220662
221512
222384
223302
224262
225267
226331
227483
228707
230104
231482
233551
233932
104524
74647.7
42495.6
83375.7
101550
112426
121103
128160
134234
139436
143944
147900
151476
154654
157599
160218
162692
164972
167101
169112
170985
172780
174474
176104
177664
179164
180615
182011
183376
184696
185995
187254
188501
189713
190919
192096
193268
194416
195563
196689
197818
198917
199933
200824
201709
202558
203400
204223
205026
205825
206598
207377
208126
208883
209614
210355
211073
211797
212505
213213
213913
214605
215304
216034
216760
217513
218267
219051
219842
220663
221513
222385
223302
224263
225268
226332
227484
228708
230104
231482
233554
233928
120109
81142.6
46399.9
82169.2
101148
112187
120881
127969
134070
139300
143831
147805
151395
154586
157541
160169
162649
164935
167070
169085
170962
172760
174457
176089
177651
179153
180605
182003
183369
184690
185990
187250
188496
189709
190916
192093
193265
194414
195561
196687
197816
198916
199931
200823
201708
202558
203399
204222
205025
205825
206598
207376
208126
208883
209615
210355
211073
211797
212505
213213
213913
214605
215306
216035
216761
217514
218268
219052
219844
220664
221515
222386
223304
224264
225269
226333
227486
228709
230105
231481
233557
233938
136823
89375.9
51507.6
81085.3
100665
111934
120639
127756
133886
139147
143703
147698
151304
154509
157475
160114
162602
164895
167035
169055
170937
172739
174438
176073
177637
179142
180595
181994
183362
184683
185984
187245
188492
189706
190913
192090
193263
194412
195559
196685
197815
198916
199930
200822
201707
202557
203398
204221
205025
205824
206598
207376
208126
208883
209615
210355
211074
211798
212506
213214
213914
214607
215307
216036
216763
217515
218270
219053
219845
220665
221516
222388
223305
224266
225271
226335
227487
228711
230107
231481
233560
233963
154322
99675.8
58186
80347.9
100107
111678
120389
127525
133683
138977
143561
147579
151202
154424
157402
160053
162550
164850
166998
169023
170910
172715
174418
176056
177623
179129
180585
181985
183354
184677
185978
187240
188488
189703
190909
192088
193260
194410
195558
196684
197814
198915
199930
200822
201706
202557
203398
204221
205025
205824
206598
207376
208126
208883
209615
210355
211074
211798
212507
213215
213916
214609
215309
216038
216765
217517
218272
219055
219848
220668
221519
222390
223308
224268
225273
226337
227489
228712
230108
231480
233563
234001
172071
112301
66876.4
80323.5
99520
111439
120153
127288
133467
138795
143408
147450
151092
154332
157322
159986
162493
164802
166958
168988
170881
172691
174397
176039
177608
179117
180574
181976
183346
184670
185973
187236
188484
189700
190907
192086
193259
194409
195557
196684
197813
198915
199929
200822
201706
202557
203398
204221
205025
205825
206599
207376
208127
208884
209617
210356
211076
211799
212508
213216
213917
214611
215312
216040
216768
217520
218275
219058
219851
220670
221521
222393
223310
224271
225276
226339
227491
228714
230109
231480
233564
234049
189343
127312
78058
81569.2
99038.1
111248
119969
127068
133252
138609
143250
147317
150977
154236
157240
159918
162435
164753
166917
168953
170852
172666
174376
176021
177593
179105
180564
181968
183340
184665
185968
187233
188481
189698
190905
192085
193258
194409
195556
196684
197813
198916
199930
200822
201706
202558
203399
204222
205026
205826
206600
207377
208129
208885
209618
210357
211078
211801
212510
213219
213920
214614
215316
216044
216772
217523
218279
219061
219854
220674
221525
222397
223314
224274
225279
226342
227494
228716
230109
231479
233562
234104
205263
144399
92155.4
84854.5
98952.4
111167
119896
126909
133063
138436
143100
147189
150865
154142
157159
159851
162378
164705
166878
168920
170825
172644
174358
176006
177581
179095
180557
181962
183335
184662
185966
187231
188480
189698
190905
192086
193258
194410
195557
196685
197814
198919
199931
200824
201707
202560
203400
204224
205028
205827
206603
207379
208131
208887
209621
210360
211080
211804
212513
213222
213923
214619
215320
216048
216777
217528
218284
219066
219859
220679
221530
222402
223318
224278
225283
226346
227496
228718
230109
231477
233555
234166
218919
162729
109351
91126
99807.2
111320
120010
126882
132943
138302
142977
147083
150769
154062
157088
159794
162330
164665
166845
168893
170804
172627
174345
175996
177574
179090
180554
181960
183335
184663
185967
187234
188483
189701
190908
192089
193262
194414
195560
196689
197818
198923
199935
200827
201710
202563
203403
204228
205032
205831
206606
207382
208135
208890
209625
210363
211084
211807
212517
213226
213928
214625
215327
216054
216783
217534
218290
219072
219865
220685
221535
222407
223323
224283
225288
226350
227499
228720
230108
231475
233540
234232
229585
180937
129302
101339
102501
112000
120413
127085
132967
138253
142913
147021
150708
154010
157041
159756
162299
164640
166827
168879
170795
172621
174342
175996
177575
179093
180558
181965
183341
184669
185974
187241
188490
189709
190915
192097
193268
194421
195567
196696
197824
198930
199941
200833
201715
202569
203409
204233
205038
205836
206612
207387
208141
208895
209631
210368
211090
211812
212523
213232
213934
214632
215335
216062
216791
217541
218298
219079
219873
220692
221542
222414
223330
224289
225293
226354
227502
228721
230104
231470
233514
234300
237021
197468
150881
116067
108276
113842
121303
127646
133251
138368
142956
147041
150712
154010
157036
159755
162299
164642
166833
168887
170806
172633
174355
176010
177590
179109
180574
181982
183357
184685
185989
187257
188504
189724
190928
192111
193281
194434
195579
196708
197834
198942
199951
200843
201724
202578
203417
204241
205046
205843
206620
207395
208149
208902
209639
210375
211098
211820
212531
213239
213943
214642
215346
216071
216801
217551
218308
219089
219883
220701
221551
222423
223337
224296
225299
226358
227503
228720
230097
231462
233473
234362
241567
211040
172221
134943
118388
117957
123141
128759
133950
138773
143195
147199
150822
154096
157102
159813
162350
164689
166878
168929
170847
172673
174394
176048
177626
179144
180608
182015
183388
184716
186018
187285
188531
189749
190952
192133
193302
194454
195597
196726
197851
198959
199966
200858
201737
202592
203430
204254
205059
205855
206633
207406
208161
208913
209650
210385
211109
211830
212542
213250
213954
214655
215359
216084
216815
217564
218321
219101
219895
220712
221562
222433
223346
224304
225305
226362
227503
228717
230083
231447
233411
234408
243954
221102
191212
156264
133362
125755
126852
130826
135280
139643
143767
147595
151110
154319
157278
159962
162479
164802
166981
169022
170935
172755
174470
176119
177693
179208
180668
182072
183442
184767
186066
187330
188573
189790
190989
192169
193335
194486
195626
196754
197877
198985
199990
200880
201758
202612
203450
204272
205077
205872
206650
207421
208177
208928
209666
210400
211124
211844
212556
213265
213970
214671
215377
216101
216832
217580
218337
219116
219909
220726
221575
222445
223356
224312
225311
226365
227501
228709
230062
231423
233322
234422
244937
227993
206324
177259
152166
138188
133763
134671
137647
141219
144857
148372
151684
154761
157627
160251
162723
165013
167168
169188
171087
172893
174598
176238
177803
179311
180764
182163
183526
184847
186140
187400
188638
189851
191047
192223
193385
194533
195670
196795
197915
199022
200024
200913
201788
202642
203477
204299
205103
205896
206674
207444
208200
208949
209687
210420
211144
211864
212576
213285
213990
214693
215400
216123
216854
217600
218358
219135
219928
220743
221590
222459
223368
224321
225316
226366
227494
228694
230029
231384
233201
234388
245055
232477
217203
195231
172127
154688
144882
141498
141856
143955
146742
149729
152698
155543
158245
160754
163140
165367
167476
169459
171330
173112
174798
176421
177971
179467
180908
182297
183651
184964
186249
187503
188734
189941
191130
192301
193458
194601
195733
196855
197970
199075
200073
200959
201831
202683
203517
204336
205139
205931
206708
207476
208231
208979
209716
210448
211172
211890
212603
213311
214017
214721
215429
216151
216881
217627
218383
219159
219950
220764
221609
222475
223381
224329
225319
226362
227480
228669
229978
231321
233039
234286
244637
235216
224434
208839
190168
172858
159755
152134
148976
148674
149956
152004
154381
156833
159263
161578
163818
165936
167962
169880
171702
173443
175096
176690
178217
179693
181116
182490
183829
185129
186403
187646
188867
190065
191246
192410
193559
194696
195821
196938
198047
199148
200142
201024
201891
202741
203572
204389
205190
205979
206754
207520
208274
209020
209756
210486
211209
211926
212638
213347
214052
214757
215466
216186
216916
217660
218415
219188
219978
220789
221630
222493
223393
224336
225318
226351
227455
228627
229904
231223
232829
234099
243883
236730
228963
218175
204380
189718
176200
165965
159504
156250
155309
155805
157151
158918
160885
162879
164881
166820
168708
170519
172257
173932
175530
177080
178569
180013
181408
182758
184077
185358
186614
187842
189050
190235
191404
192557
193696
194824
195941
197050
198151
199246
200234
201111
201973
202819
203647
204460
205257
206043
206816
207579
208331
209074
209809
210537
211258
211974
212685
213393
214098
214804
215512
216231
216959
217701
218454
219224
220010
220818
221654
222512
223405
224339
225311
226329
227413
228562
229798
231080
232563
233814
242915
237390
231647
224132
214408
203247
191502
180910
172556
166779
163391
161843
161638
162284
163465
164914
166521
168170
169836
171477
173081
174647
176160
177638
179068
180462
181815
183130
184417
185670
186902
188108
189296
190464
191616
192754
193880
194995
196100
197198
198289
199376
200356
201226
202082
202922
203745
204553
205347
206128
206898
207657
208406
209146
209878
210604
211323
212036
212746
213452
214157
214862
215570
216287
217013
217751
218501
219267
220048
220851
221680
222530
223414
224336
225292
226292
227350
228465
229651
230878
232231
233428
241817
237471
233110
227741
220941
212919
203803
194560
186102
179090
173868
170350
168346
167495
167510
168093
169052
170226
171534
172903
174295
175693
177071
178438
179776
181094
182382
183643
184882
186096
187292
188466
189626
190768
191898
193015
194122
195219
196309
197392
198470
199545
200515
201377
202224
203057
203873
204675
205463
206239
207004
207758
208503
209239
209967
210689
211405
212116
212823
213527
214230
214933
215640
216354
217077
217811
218556
219317
220091
220887
221707
222546
223417
224322
225258
226232
227256
228329
229452
230609
231830
232943
240651
237171
233775
229814
224974
219297
212641
205407
198101
191255
185351
180599
177106
174754
173407
172853
172885
173337
174083
175022
176081
177217
178386
179583
180783
181984
183176
184354
185524
186677
187820
188949
190068
191175
192272
193360
194441
195515
196583
197646
198706
199764
200721
201572
202408
203231
204038
204832
205612
206381
207139
207887
208626
209357
210080
210797
211509
212215
212919
213620
214320
215021
215725
216435
217153
217881
218620
219373
220139
220924
221732
222556
223410
224294
225203
226145
227127
228146
229197
230268
231360
232368
239466
236635
233927
230910
227362
223291
218519
213174
207454
201648
196116
191120
186895
183516
181008
179315
178291
177834
177814
178133
178693
179430
180282
181221
182210
183238
184286
185343
186409
187474
188541
189604
190664
191720
192772
193819
194863
195904
196942
197979
199014
200049
200988
201824
202646
203456
204251
205034
205804
206563
207312
208052
208783
209507
210223
210934
211639
212340
213038
213734
214430
215126
215825
216530
217241
217962
218691
219434
220189
220960
221752
222558
223389
224245
225122
226022
226954
227910
228881
229858
230826
231721
238312
235976
233772
231406
228720
225720
222264
218379
214115
209585
204983
200493
196321
192615
189479
186986
185075
183736
182886
182465
182387
182582
182985
183550
184232
185004
185839
186718
187634
188570
189527
190494
191471
192454
193441
194432
195425
196420
197417
198416
199417
200422
201335
202151
202954
203746
204525
205293
206049
206796
207533
208262
208983
209696
210404
211105
211802
212495
213186
213875
214563
215253
215944
216641
217343
218053
218771
219500
220239
220993
221764
222546
223348
224171
225007
225859
226732
227617
228504
229383
230236
231022
237238
235282
233452
231542
229438
227147
224568
221700
218543
215124
211527
207848
204211
200748
197558
194770
192375
190433
188920
187826
187106
186708
186585
186687
186971
187402
187948
188582
189288
190046
190849
191683
192545
193426
194325
195237
196160
197093
198034
198983
199938
200901
201781
202569
203348
204116
204874
205622
206360
207090
207811
208525
209232
209932
210627
211317
212003
212685
213365
214044
214722
215401
216082
216767
217456
218152
218855
219567
220286
221017
221763
222515
223283
224066
224855
225653
226462
227273
228075
228861
229613
230304
236287
234615
233058
231467
229756
227931
225922
223722
221320
218715
215935
213023
210039
207071
204184
201501
199029
196854
194987
193457
192258
191368
190766
190413
190283
190339
190554
190898
191350
191888
192498
193165
193881
194634
195420
196232
197067
197921
198791
199676
200574
201485
202323
203077
203824
204563
205294
206018
206733
207441
208143
208838
209527
210211
210890
211565
212236
212905
213571
214237
214902
215567
216234
216904
217578
218257
218940
219631
220327
221032
221748
222467
223197
223936
224676
225419
226164
226904
227629
228332
229000
229613
235467
234010
232656
231296
229858
228353
226725
224972
223079
221038
218857
216550
214143
211689
209219
206830
204525
202387
200437
198722
197260
196050
195099
194384
193894
193606
193498
193548
193732
194030
194426
194904
195451
196055
196709
197403
198133
198893
199679
200489
201319
202167
202955
203668
204377
205082
205781
206475
207163
207846
208523
209196
209865
210529
211189
211846
212500
213152
213802
214451
215099
215748
216399
217051
217706
218364
219026
219693
220363
221039
221723
222407
223097
223792
224483
225171
225857
226533
227189
227823
228422
228974
234760
233472
232278
231091
229856
228580
227222
225780
224241
222597
220847
218995
217049
215039
212976
210930
208894
206937
205079
203364
201821
200461
199308
198351
197597
197033
196649
196432
196362
196423
196600
196878
197244
197685
198191
198754
199365
200018
200707
201429
202180
202956
203684
204350
205015
205679
206341
207000
207656
208309
208959
209606
210249
210890
211528
212163
212797
213429
214059
214689
215318
215947
216578
217209
217842
218478
219115
219755
220396
221042
221692
222339
222989
223639
224283
224919
225550
226168
226765
227339
227882
228383
234147
232998
231932
230882
229803
228699
227541
226326
225043
223686
222251
220738
219146
217494
215781
214056
212307
210584
208902
207297
205799
204421
203192
202112
201197
200445
199855
199423
199136
198986
198958
199043
199228
199502
199854
200275
200757
201293
201876
202500
203162
203857
204518
205128
205742
206360
206979
207598
208217
208836
209454
210070
210685
211299
211911
212521
213131
213739
214347
214954
215560
216167
216774
217382
217990
218600
219210
219822
220432
221045
221659
222268
222878
223485
224083
224671
225251
225817
226362
226885
227380
227840
233616
232581
231622
230683
229727
228759
227755
226711
225621
224478
223277
222019
220698
219326
217899
216449
214963
213476
211997
210554
209170
207857
206645
205537
204553
203698
202977
202395
201944
201623
201422
201335
201353
201467
201668
201947
202297
202710
203179
203699
204264
204870
205457
206006
206564
207128
207699
208274
208851
209431
210012
210594
211176
211759
212341
212923
213505
214087
214668
215249
215830
216411
216992
217573
218154
218735
219315
219896
220475
221053
221631
222203
222772
223337
223891
224434
224967
225487
225986
226465
226919
227343
233153
232216
231347
230501
229647
228788
227904
226995
226054
225075
224054
222990
221878
220726
219526
218303
217043
215770
214489
213218
211978
210775
209636
208565
207582
206694
205911
205241
204682
204238
203904
203678
203554
203526
203589
203734
203956
204248
204602
205015
205479
205991
206499
206981
207477
207985
208502
209028
209559
210095
210636
211179
211725
212273
212822
213372
213923
214474
215026
215578
216130
216682
217234
217786
218337
218887
219436
219985
220529
221072
221614
222147
222677
223202
223714
224215
224706
225183
225642
226082
226500
226892
232749
231897
231105
230338
229568
228800
228015
227214
226391
225541
224661
223749
222801
221821
220803
219765
218693
217604
216500
215394
214301
213224
212187
211190
210253
209383
208591
207888
207272
206753
206328
206000
205765
205622
205567
205594
205699
205877
206122
206429
206793
207209
207635
208048
208480
208926
209387
209859
210340
210830
211325
211827
212333
212842
213354
213869
214386
214904
215423
215943
216463
216984
217504
218024
218543
219061
219577
220091
220601
221108
221613
222109
222601
223086
223559
224021
224473
224912
225333
225739
226125
226489
232396
231618
230894
230195
229497
228804
228103
227390
226663
225917
225150
224359
223541
222700
221827
220938
220021
219087
218136
217178
216223
215273
214345
213441
212575
211755
210991
210292
209662
209108
208632
208238
207927
207697
207549
207479
207484
207561
207706
207914
208183
208507
208851
209195
209560
209944
210346
210763
211191
211631
212079