/*--------------------------------*- C++ -*----------------------------------*\
| =========                 |                                                 |
| \\      /  F ield         | OpenFOAM: The Open Source CFD Toolbox           |
|  \\    /   O peration     | Version:  5.x                                   |
|   \\  /    A nd           | Web:      www.OpenFOAM.org                      |
|    \\/     M anipulation  |                                                 |
\*---------------------------------------------------------------------------*/
FoamFile
{
    version     2.0;
    format      ascii;
    class       surfaceScalarField;
    location    "900";
    object      phi;
}
// * * * * * * * * * * * * * * * * * * * * * * * * * * * * * * * * * * * * * //

dimensions      [0 3 -1 0 0 0 0];

internalField   nonuniform List<scalar> 
83317
(
0.000496502
0.000108239
-0.000608352
0.000401813
9.46843e-05
0.000326748
7.50661e-05
0.000294862
3.18856e-05
0.00027733
1.75324e-05
0.00026328
1.40493e-05
0.0002528
1.048e-05
0.000244947
7.85267e-06
0.00023857
6.37682e-06
0.000232926
5.64432e-06
0.000227946
4.96005e-06
0.000222754
5.2088e-06
0.000218683
4.05115e-06
0.000214648
4.05624e-06
0.000212173
2.45438e-06
0.000210338
1.85446e-06
0.000208441
1.87631e-06
0.000206988
1.4727e-06
0.000204996
1.97017e-06
0.000203377
1.63968e-06
0.000201698
1.67856e-06
0.00019988
1.81817e-06
0.000198525
1.35479e-06
0.000196858
1.66657e-06
0.000195553
1.30554e-06
0.000194267
1.28576e-06
0.000192708
1.55914e-06
0.00019144
1.26768e-06
0.000190383
1.05674e-06
0.000189215
1.1676e-06
0.000187757
1.45738e-06
0.000186421
1.30675e-06
0.000185665
7.79405e-07
0.000184807
8.41305e-07
0.000183998
8.22348e-07
0.000183401
5.86136e-07
0.000182672
7.39292e-07
0.000182379
2.77018e-07
0.000182455
-6.13713e-08
0.000182527
-8.56431e-08
0.000182576
-3.94782e-08
0.000178064
4.50306e-06
0.000174243
3.82797e-06
0.000173746
4.78035e-07
0.00017334
4.19905e-07
0.000173275
6.61515e-08
0.000172876
3.94079e-07
0.000172509
3.63358e-07
0.000172195
3.15436e-07
0.000171924
2.66476e-07
0.000171696
2.2627e-07
0.000171514
1.80845e-07
0.000171366
1.45339e-07
0.000171267
1.07808e-07
0.000170841
4.15308e-07
0.000170476
3.52384e-07
0.000170786
-2.99234e-07
0.000170829
-3.87109e-08
0.000170852
-2.90886e-08
0.00017125
-3.80727e-07
0.000171332
-9.99938e-08
0.000171089
2.48757e-07
0.00017105
3.02968e-08
0.000170977
8.94425e-08
0.000170852
1.05659e-07
0.000170635
2.44203e-07
0.000170153
4.53199e-07
0.000169998
1.88842e-07
0.000169889
7.23838e-08
0.00016914
7.89962e-07
0.000168309
7.88576e-07
0.000167808
5.76968e-07
0.000166553
1.17761e-06
0.000164897
1.74663e-06
0.000163545
1.26095e-06
0.000161759
1.95053e-06
0.000159118
2.47272e-06
0.000156186
3.19564e-06
0.000152279
3.63808e-06
0.000150246
2.44872e-06
7.76737e-05
7.22666e-05
-0.000354536
0.00043216
0.000750038
0.00025118
-0.000893022
0.00057818
0.00026654
0.000459256
0.000193991
0.000411963
7.9178e-05
0.000391587
3.79085e-05
0.000377534
2.81024e-05
0.000369973
1.8041e-05
0.000366086
1.17391e-05
0.000364116
8.34667e-06
0.000363349
6.41119e-06
0.00036302
5.27859e-06
0.000362731
5.50646e-06
0.000362863
3.90844e-06
0.000363087
3.84324e-06
0.000364937
5.93699e-07
0.000366563
2.3937e-07
0.000369141
-7.13448e-07
0.000371269
-6.44209e-07
0.000373552
-3.24476e-07
0.000375588
-3.86232e-07
0.000376833
4.33231e-07
0.000378281
3.69601e-07
0.000378795
8.4104e-07
0.000379289
1.17206e-06
0.000379236
1.35856e-06
0.000378707
1.8151e-06
0.000378481
1.78485e-06
0.000377522
2.22685e-06
0.000376328
2.25032e-06
0.000374985
2.51069e-06
0.000373841
2.60061e-06
0.000372494
2.6392e-06
0.000370571
2.71291e-06
0.000368756
2.648e-06
0.000366849
2.7358e-06
0.000364865
2.56432e-06
0.000362987
2.62299e-06
0.000360871
2.38446e-06
0.00035846
2.35625e-06
0.000356249
2.11871e-06
0.000354053
2.16115e-06
0.000355644
2.90727e-06
0.000358234
1.24091e-06
0.000358433
2.68001e-07
0.00035787
9.89384e-07
0.000356954
9.83044e-07
0.000356266
1.0799e-06
0.000355599
1.02737e-06
0.000354931
9.84335e-07
0.000354288
9.06299e-07
0.000353661
8.51985e-07
0.000353064
7.77333e-07
0.000352487
7.20223e-07
0.000351932
6.6682e-07
0.000351641
7.00736e-07
0.000351368
6.18278e-07
0.000350641
4.34113e-07
0.000350171
4.3342e-07
0.00034973
4.08233e-07
0.000349089
2.68433e-07
0.000348687
2.92229e-07
0.00034845
4.89123e-07
0.000347875
6.00139e-07
0.000347246
7.26677e-07
0.00034653
8.12185e-07
0.00034577
1.01772e-06
0.000345084
1.12382e-06
0.000343944
1.34645e-06
0.000342664
1.33278e-06
0.000341532
1.94364e-06
0.000340188
2.11031e-06
0.00033835
2.45509e-06
0.000336565
2.92062e-06
0.000334606
3.7536e-06
0.000331894
3.92457e-06
0.000328806
5.12629e-06
0.000325185
6.00393e-06
0.000320967
7.55432e-06
0.000314579
9.88127e-06
0.00031168
5.57999e-06
0.000171822
0.000211973
-0.000715086
0.000532296
0.000993752
0.000429455
-0.00117198
0.000758727
0.000501563
0.000596063
0.000356655
0.000533849
0.000141391
0.000509267
6.24908e-05
0.000493901
4.34677e-05
0.000487804
2.41385e-05
0.00048653
1.30131e-05
0.000487703
7.17357e-06
0.000490507
3.6071e-06
0.000493605
2.17386e-06
0.000496721
2.39589e-06
0.000499721
9.02215e-07
0.000502287
1.28461e-06
0.000506434
-3.56027e-06
0.000509574
-2.89351e-06
0.000513934
-5.08017e-06
0.000517438
-4.14204e-06
0.00052108
-3.97377e-06
0.000524316
-3.61606e-06
0.000526576
-1.82646e-06
0.000528917
-1.97151e-06
0.000529985
-2.27379e-07
0.000530976
1.81598e-07
0.000531241
1.09375e-06
0.00053109
1.96564e-06
0.000530869
2.00561e-06
0.000529901
3.19542e-06
0.000528862
3.28932e-06
0.000527382
3.99026e-06
0.000525903
4.07916e-06
0.000524131
4.40327e-06
0.000522065
4.78552e-06
0.000519881
4.82732e-06
0.00051751
5.11145e-06
0.00051501
5.06088e-06
0.000512351
5.28491e-06
0.000509536
5.19481e-06
0.000506422
5.4741e-06
0.000503312
5.22499e-06
0.000499918
5.55886e-06
0.000503172
-3.50146e-07
0.000507783
-3.36826e-06
0.000507922
1.23579e-07
0.00050726
1.65594e-06
0.000506373
1.87088e-06
0.000505527
1.92457e-06
0.000504698
1.85443e-06
0.000503854
1.82941e-06
0.00050303
1.72902e-06
0.000502214
1.66747e-06
0.000501424
1.56694e-06
0.000500653
1.49091e-06
0.000499894
1.42868e-06
0.000499255
1.33599e-06
0.000498627
1.24245e-06
0.000497839
1.22579e-06
0.000497163
1.11095e-06
0.000496514
1.05522e-06
0.000495806
9.81863e-07
0.000495192
9.00231e-07
0.000494591
1.09232e-06
0.00049374
1.44818e-06
0.000492832
1.64037e-06
0.000491785
1.853e-06
0.000490711
2.10021e-06
0.000489513
2.31285e-06
0.000488137
2.73345e-06
0.000486532
2.92636e-06
0.000484749
3.73931e-06
0.000482948
3.89851e-06
0.000480601
4.82639e-06
0.00047799
5.50647e-06
0.000475232
6.54006e-06
0.000471795
7.33333e-06
0.000467665
9.30916e-06
0.000462704
1.09114e-05
0.000457196
1.31464e-05
0.000448949
1.80438e-05
0.00044528
9.37988e-06
0.000266279
0.000390874
-0.00111368
0.000664804
0.00128946
0.000642366
-0.0015024
0.000985507
0.000805518
0.000768588
0.000573575
0.000686815
0.000223164
0.000656114
9.31918e-05
0.000638517
6.10638e-05
0.000633029
2.96264e-05
0.000633581
1.24612e-05
0.000637151
3.60338e-06
0.000642683
-1.92508e-06
0.000648647
-3.79542e-06
0.000654412
-3.36435e-06
0.000659906
-4.5968e-06
0.000664106
-2.91078e-06
0.000669511
-8.9698e-06
0.000673477
-6.85466e-06
0.000678502
-1.01104e-05
0.000682682
-8.31721e-06
0.000686762
-8.05917e-06
0.000690482
-7.3323e-06
0.000693135
-4.47868e-06
0.000695757
-4.59409e-06
0.000697098
-1.56802e-06
0.000698211
-9.31243e-07
0.000698612
6.92742e-07
0.000698548
2.02886e-06
0.000698254
2.30032e-06
0.000697229
4.21965e-06
0.00069618
4.33868e-06
0.000694579
5.59104e-06
0.000692844
5.81406e-06
0.000690797
6.44343e-06
0.000688598
6.98881e-06
0.000686184
7.23712e-06
0.000683538
7.76066e-06
0.000680759
7.83741e-06
0.000677691
8.3551e-06
0.000674534
8.34776e-06
0.000671106
8.90513e-06
0.00066759
8.73835e-06
0.000663631
9.51951e-06
0.000666615
-3.3369e-06
0.000671383
-8.13492e-06
0.000671548
-4.55851e-08
0.00067081
2.39625e-06
0.00066991
2.77108e-06
0.000668936
2.89655e-06
0.00066798
2.80955e-06
0.000667006
2.8042e-06
0.000666055
2.67872e-06
0.000665112
2.60941e-06
0.000664199
2.47941e-06
0.000663306
2.38254e-06
0.000662428
2.30812e-06
0.000661574
2.18817e-06
0.000660734
2.07932e-06
0.000659926
2.03623e-06
0.000659142
1.89527e-06
0.000658381
1.81528e-06
0.000657663
1.70317e-06
0.000656942
1.6166e-06
0.000656123
1.91287e-06
0.000655087
2.48154e-06
0.000653974
2.75722e-06
0.00065268
3.14248e-06
0.000651337
3.44936e-06
0.00064974
3.90274e-06
0.000648094
4.38723e-06
0.000646171
4.84019e-06
0.000643817
6.10325e-06
0.000641491
6.21373e-06
0.000638601
7.73434e-06
0.000635167
8.92229e-06
0.000631502
1.02268e-05
0.000627164
1.16498e-05
0.000621861
1.46511e-05
0.000615366
1.73652e-05
0.00060823
2.03452e-05
0.000597659
2.85498e-05
0.000593003
1.41431e-05
0.000387353
0.000596463
-0.00156352
0.000837112
0.00164337
0.000884467
-0.00188542
0.00126229
0.00118659
0.000981823
0.000854044
0.00087405
0.000330938
0.00083417
0.000133071
0.000812639
8.25947e-05
0.000806086
3.618e-05
0.00080726
1.12871e-05
0.00081243
-1.5663e-06
0.000820123
-9.61812e-06
0.000828759
-1.24348e-05
0.000837132
-1.17341e-05
0.000845434
-1.29028e-05
0.000851832
-9.30504e-06
0.00085901
-1.61505e-05
0.000864377
-1.22182e-05
0.000870529
-1.62666e-05
0.000875838
-1.36224e-05
0.000880816
-1.30412e-05
0.00088545
-1.19628e-05
0.000888814
-7.84271e-06
0.000892066
-7.84617e-06
0.000893947
-3.44841e-06
0.000895438
-2.42306e-06
0.000896172
-4.087e-08
0.000896282
1.91884e-06
0.000896134
2.44868e-06
0.000895157
5.19596e-06
0.0008941
5.39614e-06
0.000892434
7.25742e-06
0.000890569
7.67805e-06
0.000888359
8.64937e-06
0.000885958
9.39383e-06
0.000883315
9.87755e-06
0.000880394
1.06841e-05
0.000877326
1.09033e-05
0.000873923
1.17603e-05
0.00087042
1.18481e-05
0.000866609
1.27184e-05
0.000862692
1.26532e-05
0.000858258
1.39549e-05
0.000860851
-5.93142e-06
0.000865694
-1.29764e-05
0.000866016
-3.70373e-07
0.000865228
3.18585e-06
0.000864238
3.76208e-06
0.000863145
3.98907e-06
0.000862066
3.88738e-06
0.000860968
3.90249e-06
0.000859893
3.75327e-06
0.00085883
3.67217e-06
0.0008578
3.50884e-06
0.000856794
3.38859e-06
0.000855805
3.29878e-06
0.000854826
3.16504e-06
0.000853869
3.03491e-06
0.000852966
2.94106e-06
0.000852085
2.77648e-06
0.000851223
2.67709e-06
0.000850427
2.50168e-06
0.000849612
2.42877e-06
0.000848659
2.86708e-06
0.000847436
3.70274e-06
0.000846105
4.09132e-06
0.000844546
4.69823e-06
0.000842907
5.09359e-06
0.000840951
5.85289e-06
0.000838913
6.43158e-06
0.000836549
7.19813e-06
0.000833623
9.03578e-06
0.000830683
9.14644e-06
0.00082708
1.13507e-05
0.000822757
1.32321e-05
0.00081809
1.49093e-05
0.000812594
1.71302e-05
0.000805889
2.13849e-05
0.000797635
2.55906e-05
0.000788525
2.95006e-05
0.000775064
4.19651e-05
0.000769182
2.00961e-05
0.000544551
0.000821039
-0.00207479
0.00105576
0.00206481
0.00115265
-0.00233302
0.00159429
0.00165712
0.00123807
0.00121026
0.00109843
0.000470578
0.00104672
0.000184781
0.0010201
0.000109222
0.00101195
4.43264e-05
0.00101373
9.50938e-06
0.00102078
-8.62328e-06
0.00103112
-1.99561e-05
0.00104301
-2.43233e-05
0.00105462
-2.33484e-05
0.00106643
-2.47157e-05
0.00107584
-1.87122e-05
0.00108572
-2.60286e-05
0.00109323
-1.97318e-05
0.00110116
-2.41966e-05
0.00110813
-2.05865e-05
0.00111448
-1.93922e-05
0.00112045
-1.79305e-05
0.00112487
-1.22657e-05
0.00112908
-1.20546e-05
0.00113176
-6.13255e-06
0.00113386
-4.52504e-06
0.00113512
-1.29951e-06
0.00113555
1.48861e-06
0.0011357
2.30028e-06
0.00113487
6.02676e-06
0.00113388
6.38732e-06
0.0011322
8.9334e-06
0.00113027
9.61054e-06
0.00112794
1.09726e-05
0.00112534
1.20012e-05
0.00112247
1.27426e-05
0.00111927
1.38855e-05
0.0011159
1.42679e-05
0.00111216
1.55045e-05
0.00110829
1.57144e-05
0.00110406
1.6951e-05
0.00109972
1.69922e-05
0.00109479
1.88846e-05
0.00109696
-8.10557e-06
0.0011019
-1.791e-05
0.00110244
-9.18629e-07
0.00110164
3.99489e-06
0.00110055
4.84914e-06
0.00109934
5.19637e-06
0.00109815
5.0827e-06
0.00109692
5.12311e-06
0.00109573
4.94616e-06
0.00109455
4.85368e-06
0.0010934
4.65269e-06
0.00109229
4.50598e-06
0.00109119
4.39716e-06
0.00109011
4.24375e-06
0.00108905
4.08677e-06
0.00108804
3.95739e-06
0.00108707
3.75117e-06
0.0010861
3.6366e-06
0.00108522
3.39143e-06
0.00108431
3.33295e-06
0.00108324
3.94024e-06
0.00108181
5.12694e-06
0.00108024
5.6682e-06
0.00107838
6.55236e-06
0.0010764
7.07862e-06
0.00107405
8.19962e-06
0.00107153
8.95166e-06
0.00106863
1.00915e-05
0.00106505
1.26241e-05
0.00106138
1.2815e-05
0.00105691
1.58316e-05
0.00105154
1.85892e-05
0.00104568
2.07842e-05
0.00103877
2.4027e-05
0.00103037
2.98068e-05
0.00102
3.59328e-05
0.00100849
4.10466e-05
0.000991507
5.89098e-05
0.000984092
2.75829e-05
0.000742663
0.00106243
-0.00265769
0.00132547
0.00256875
0.0014442
-0.00286025
0.00199472
0.00223114
0.00154684
0.00165813
0.00136895
0.000648471
0.00130281
0.000250926
0.00127005
0.000141975
0.00126016
5.42164e-05
0.00126283
6.84723e-06
0.0012723
-1.8098e-05
0.00128598
-3.36386e-05
0.00130189
-4.02318e-05
0.00131754
-3.9e-05
0.00133369
-4.08625e-05
0.00134694
-3.19635e-05
0.00136045
-3.95336e-05
0.00137091
-3.01982e-05
0.00138133
-3.4614e-05
0.00139055
-2.98059e-05
0.00139879
-2.76353e-05
0.00140657
-2.57056e-05
0.00141246
-1.81535e-05
0.00141799
-1.75885e-05
0.00142178
-9.91908e-06
0.00142476
-7.50432e-06
0.00142677
-3.30982e-06
0.0014277
5.53585e-07
0.0014283
1.69729e-06
0.00142774
6.59042e-06
0.00142692
7.20972e-06
0.00142531
1.05435e-05
0.00142336
1.15574e-05
0.00142095
1.33798e-05
0.00141817
1.47861e-05
0.00141509
1.58207e-05
0.00141161
1.73686e-05
0.00140794
1.79387e-05
0.00140383
1.96094e-05
0.00139958
1.99688e-05
0.0013949
2.16321e-05
0.0013901
2.17865e-05
0.00138464
2.43507e-05
0.00138636
-9.83466e-06
0.00139142
-2.29649e-05
0.00139225
-1.74678e-06
0.00139145
4.78837e-06
0.00139028
6.01986e-06
0.00138897
6.50886e-06
0.00138766
6.39151e-06
0.00138632
6.46053e-06
0.00138501
6.25659e-06
0.00138371
6.15339e-06
0.00138246
5.90707e-06
0.00138123
5.73377e-06
0.00138003
5.60121e-06
0.00137885
5.42405e-06
0.0013777
5.23212e-06
0.00137658
5.08313e-06
0.00137551
4.81721e-06
0.00137445
4.69408e-06
0.00137348
4.36722e-06
0.00137248
4.32659e-06
0.00137129
5.13773e-06
0.00136963
6.77893e-06
0.00136778
7.51894e-06
0.00136558
8.75329e-06
0.0013632
9.46165e-06
0.00136038
1.10146e-05
0.0013573
1.20333e-05
0.00135377
1.36207e-05
0.0013494
1.6996e-05
0.00134484
1.73699e-05
0.00133933
2.13502e-05
0.0013327
2.52138e-05
0.00132539
2.81032e-05
0.00131677
3.26412e-05
0.00130632
4.0276e-05
0.00129338
4.88522e-05
0.00127895
5.55019e-05
0.00125768
8.01567e-05
0.00124833
3.69705e-05
0.000986977
0.00132376
-0.00332287
0.00165212
0.00317301
0.00175487
-0.00348371
0.00248088
0.00292327
0.0019222
0.00221682
0.00169806
0.000872605
0.00161414
0.00033485
0.00157392
0.000182193
0.00156203
6.61072e-05
0.00156586
3.01391e-06
0.00157835
-3.05904e-05
0.00159619
-5.14711e-05
0.00161704
-6.10857e-05
0.00163768
-5.96375e-05
0.00165915
-6.23401e-05
0.0016772
-5.0012e-05
0.00169537
-5.76986e-05
0.00170971
-4.45415e-05
0.00172345
-4.83546e-05
0.00173564
-4.19955e-05
0.00174639
-3.83892e-05
0.00175655
-3.5858e-05
0.00176438
-2.59865e-05
0.00177168
-2.48839e-05
0.00177693
-1.51779e-05
0.00178111
-1.16825e-05
0.00178415
-6.3445e-06
0.00178582
-1.1159e-06
0.00178707
4.45034e-07
0.00178692
6.73604e-06
0.00178641
7.72592e-06
0.00178496
1.19939e-05
0.00178307
1.34464e-05
0.00178063
1.58184e-05
0.0017777
1.7709e-05
0.00177443
1.90895e-05
0.00177068
2.11256e-05
0.0017667
2.19171e-05
0.00176222
2.40915e-05
0.00175756
2.46281e-05
0.0017524
2.67864e-05
0.00174712
2.70633e-05
0.00174108
3.03962e-05
0.00174232
-1.10752e-05
0.00174751
-2.81596e-05
0.00174868
-2.91377e-06
0.00174795
5.51697e-06
0.00174673
7.24531e-06
0.00174532
7.91453e-06
0.00174391
7.80125e-06
0.00174246
7.90736e-06
0.00174104
7.6765e-06
0.00173963
7.56333e-06
0.00173827
7.26588e-06
0.00173694
7.06512e-06
0.00173564
6.90371e-06
0.00173435
6.70499e-06
0.00173312
6.46778e-06
0.00173189
6.31166e-06
0.00173074
5.96904e-06
0.00172959
5.84295e-06
0.00172854
5.42041e-06
0.00172746
5.40502e-06
0.00172613
6.4679e-06
0.00172422
8.6829e-06
0.00172206
9.68365e-06
0.00171946
1.13536e-05
0.00171661
1.23094e-05
0.00171324
1.43847e-05
0.00170949
1.57819e-05
0.00170521
1.78992e-05
0.0016999
2.23141e-05
0.00169427
2.29908e-05
0.00168751
2.81197e-05
0.00167934
3.33697e-05
0.00167027
3.71865e-05
0.00165956
4.33374e-05
0.00164662
5.32391e-05
0.00163055
6.49041e-05
0.00161256
7.35189e-05
0.00158606
0.000106623
0.00157427
4.88139e-05
0.00128708
0.00161093
-0.00408171
0.00204586
0.00389879
0.00207992
-0.00422379
0.0030731
0.00374896
0.00238099
0.00290893
0.00210062
0.00115297
0.00199455
0.000440927
0.00194509
0.000231646
0.0019308
8.04023e-05
0.00193608
-2.26804e-06
0.00195227
-4.67838e-05
0.0019752
-7.44e-05
0.00200211
-8.79914e-05
0.00202887
-8.63958e-05
0.00205688
-9.0356e-05
0.00208087
-7.3999e-05
0.0021049
-8.17353e-05
0.00212422
-6.38606e-05
0.00214229
-6.6424e-05
0.00215833
-5.80313e-05
0.00217235
-5.24137e-05
0.00218558
-4.90806e-05
0.00219595
-3.63575e-05
0.00220554
-3.44783e-05
0.00221273
-2.23693e-05
0.00221851
-1.74544e-05
0.00222291
-1.07517e-05
0.0022256
-3.80095e-06
0.00222775
-1.70542e-06
0.00222822
6.26798e-06
0.00222817
7.76788e-06
0.00222701
1.31539e-05
0.00222528
1.51784e-05
0.00222288
1.82147e-05
0.00221988
2.07166e-05
0.00221646
2.2509e-05
0.00221244
2.51406e-05
0.00220817
2.61912e-05
0.0022033
2.89597e-05
0.00219822
2.97041e-05
0.00219258
3.24339e-05
0.00218679
3.28487e-05
0.00218013
3.70586e-05
0.00218082
-1.17691e-05
0.00218615
-3.34891e-05
0.00218772
-4.4833e-06
0.00218712
6.12114e-06
0.00218587
8.49115e-06
0.0021844
9.39214e-06
0.0021829
9.29564e-06
0.00218136
9.45081e-06
0.00217984
9.19395e-06
0.00217833
9.07271e-06
0.00217688
8.71993e-06
0.00217545
8.49034e-06
0.00217406
8.29498e-06
0.00217269
8.0784e-06
0.00217137
7.78612e-06
0.00217005
7.63361e-06
0.00216882
7.19436e-06
0.00216759
7.07843e-06
0.00216647
6.53685e-06
0.00216531
6.55989e-06
0.00216385
7.93532e-06
0.00216166
1.08685e-05
0.00215914
1.22058e-05
0.00215607
1.44188e-05
0.00215268
1.57042e-05
0.00214865
1.84141e-05
0.00214411
2.03201e-05
0.00213893
2.30765e-05
0.00213248
2.8766e-05
0.00212557
2.99025e-05
0.0021173
3.63969e-05
0.00210728
4.33857e-05
0.00209606
4.84111e-05
0.00208282
5.65677e-05
0.00206684
6.92335e-05
0.00204695
8.47771e-05
0.00202462
9.58747e-05
0.00199176
0.000139459
0.00197684
6.37602e-05
0.00165761
0.00193014
-0.00494562
0.00252151
0.00477149
0.00241332
-0.00510492
0.00379546
0.00472499
0.00294348
0.00376092
0.00259461
0.00150184
0.00246072
0.000574817
0.00239973
0.000292642
0.00238243
9.76981e-05
0.00238944
-9.28004e-06
0.00241013
-6.74706e-05
0.00243927
-0.000103541
0.00247356
-0.000122283
0.00250781
-0.000120642
0.00254383
-0.000126376
0.00257513
-0.000105296
0.00260648
-0.000113087
0.00263209
-8.94772e-05
0.00265572
-9.00532e-05
0.00267669
-7.89978e-05
0.00269492
-7.06466e-05
0.00271208
-6.62391e-05
0.00272572
-4.99999e-05
0.00273829
-4.70427e-05
0.00274798
-3.20636e-05
0.00275585
-2.5321e-05
0.00276206
-1.69654e-05
0.00276612
-7.86206e-06
0.00276949
-5.07334e-06
0.00277082
4.9346e-06
0.00277148
7.1156e-06
0.00277078
1.38539e-05
0.00276934
1.66136e-05
0.00276709
2.04608e-05
0.00276408
2.37264e-05
0.00276057
2.60203e-05
0.00275634
2.93751e-05
0.00275179
3.07339e-05
0.00274655
3.42075e-05
0.00274106
3.51932e-05
0.00273491
3.85847e-05
0.0027286
3.91541e-05
0.0027213
4.43623e-05
0.00272137
-1.18409e-05
0.00272681
-3.89294e-05
0.00272885
-6.52641e-06
0.00272845
6.52276e-06
0.00272723
9.70675e-06
0.00272571
1.09085e-05
0.00272416
1.08474e-05
0.00272254
1.10679e-05
0.00272095
1.0785e-05
0.00271936
1.06636e-05
0.00271783
1.02457e-05
0.00271633
9.99085e-06
0.00271487
9.75469e-06
0.00271342
9.53006e-06
0.00271204
9.16791e-06
0.00271064
9.03378e-06
0.00270936
8.47662e-06
0.00270805
8.38246e-06
0.00270689
7.69734e-06
0.00270567
7.77642e-06
0.00270407
9.53747e-06
0.00270157
1.33654e-05
0.00269865
1.5134e-05
0.00269504
1.80221e-05
0.00269101
1.97389e-05
0.0026862
2.32225e-05
0.00268072
2.58007e-05
0.00267447
2.93219e-05
0.00266666
3.65824e-05
0.00265819
3.83682e-05
0.00264809
4.64993e-05
0.00263582
5.56477e-05
0.002622
6.22461e-05
0.00260568
7.28735e-05
0.00258601
8.89228e-05
0.00256148
0.000109292
0.00253383
0.000123537
0.00249325
0.000180021
0.00247429
8.27667e-05
0.00211771
0.00228671
-0.00592564
0.00309767
0.00582141
0.00274748
-0.00615552
0.00467686
0.00586953
0.00363431
0.00480347
0.00320211
0.00193404
0.00303313
0.000743794
0.00295758
0.000368189
0.00293646
0.000118817
0.00294548
-1.82912e-05
0.00297157
-9.35628e-05
0.00300824
-0.000140215
0.00305151
-0.000165551
0.00309488
-0.000164014
0.00314067
-0.000172164
0.00318093
-0.000145553
0.00322133
-0.000153494
0.00325484
-0.000122986
0.00328553
-0.000120735
0.00331276
-0.000106232
0.00333637
-9.42556e-05
0.00335853
-8.84041e-05
0.00337637
-6.78312e-05
0.00339273
-6.34102e-05
0.00340565
-4.49814e-05
0.00341624
-3.59065e-05
0.00342481
-2.55384e-05
0.0034307
-1.3753e-05
0.00343569
-1.00645e-05
0.00343822
2.40912e-06
0.00343985
5.48323e-06
0.00343983
1.3869e-05
0.00343888
1.75693e-05
0.00343693
2.24092e-05
0.00343403
2.66275e-05
0.00343051
2.95336e-05
0.00342612
3.37685e-05
0.00342136
3.54969e-05
0.00341576
3.98085e-05
0.00340988
4.10754e-05
0.00340323
4.52356e-05
0.0033964
4.59776e-05
0.00338844
5.2319e-05
0.00338781
-1.12086e-05
0.00339332
-4.4433e-05
0.0033959
-9.10819e-06
0.00339579
6.6262e-06
0.00339468
1.08245e-05
0.00339317
1.2416e-05
0.0033916
1.24169e-05
0.00338994
1.27234e-05
0.00338831
1.24188e-05
0.00338667
1.23051e-05
0.0033851
1.18138e-05
0.00338355
1.15383e-05
0.00338206
1.12531e-05
0.00338055
1.10334e-05
0.00337913
1.05876e-05
0.00337768
1.0487e-05
0.00337637
9.7867e-06
0.00337502
9.73531e-06
0.00337384
8.87272e-06
0.00337259
9.03061e-06
0.00337086
1.12685e-05
0.00336802
1.62022e-05
0.00336463
1.85205e-05
0.00336041
2.22488e-05
0.00335562
2.45241e-05
0.00334989
2.89515e-05
0.00334329
3.24013e-05
0.00333577
3.68458e-05
0.00332632
4.60332e-05
0.00331597
4.87112e-05
0.00330367
5.88035e-05
0.00328869
7.06308e-05
0.00327169
7.92427e-05
0.00325164
9.2924e-05
0.00322747
0.000113096
0.0031973
0.00013946
0.00316319
0.000157655
0.00311322
0.00022998
0.00308897
0.000107035
0.00269142
0.00268425
-0.00703101
0.00379678
0.00708487
0.00307162
-0.00740904
0.00575249
0.00720191
0.00448372
0.00607224
0.00395043
0.00246732
0.00373707
0.000957151
0.00364304
0.000462224
0.00361694
0.000144912
0.0036282
-2.95426e-05
0.00366074
-0.000126102
0.00370649
-0.000185971
0.00376063
-0.000219691
0.00381508
-0.000218465
0.00387276
-0.000229842
0.00392395
-0.000196749
0.0039755
-0.000205043
0.00401882
-0.000166308
0.00405838
-0.000160292
0.00409353
-0.000141377
0.00412395
-0.00012468
0.00415245
-0.000116908
0.00417561
-9.09896e-05
0.00419683
-8.46233e-05
0.00421387
-6.20221e-05
0.00422796
-4.99998e-05
0.00423958
-3.7162e-05
0.00424788
-2.20482e-05
0.00425501
-1.72004e-05
0.00425915
-1.72459e-06
0.00426213
2.50384e-06
0.00426309
1.29051e-05
0.00426286
1.77979e-05
0.00426141
2.38583e-05
0.00425878
2.92621e-05
0.00425539
3.29169e-05
0.00425093
3.82286e-05
0.00424603
4.03991e-05
0.00424013
4.57103e-05
0.0042339
4.73049e-05
0.00422677
5.23613e-05
0.00421945
5.32964e-05
0.00421086
6.0911e-05
0.00420944
-9.79132e-06
0.00421494
-4.99306e-05
0.00421812
-1.22929e-05
0.00421844
6.3127e-06
0.00421751
1.17531e-05
0.00421608
1.38458e-05
0.00421455
1.39451e-05
0.00421291
1.4364e-05
0.00421128
1.4045e-05
0.00420964
1.39492e-05
0.00420807
1.3377e-05
0.00420652
1.30875e-05
0.00420503
1.27458e-05
0.00420352
1.25484e-05
0.0042021
1.19991e-05
0.00420063
1.1957e-05
0.00419934
1.10814e-05
0.00419798
1.10978e-05
0.00419683
1.00227e-05
0.00419557
1.02853e-05
0.00419373
1.31078e-05
0.00419053
1.94058e-05
0.00418663
2.24226e-05
0.00418168
2.71908e-05
0.00417602
3.01847e-05
0.00416921
3.57631e-05
0.00416128
4.03332e-05
0.00415223
4.5892e-05
0.00414082
5.74433e-05
0.00412822
6.13089e-05
0.00411326
7.37684e-05
0.00409499
8.88956e-05
0.00407416
0.000100077
0.00404957
0.000117513
0.00401995
0.000142721
0.00398292
0.000176479
0.00394095
0.000199645
0.00387961
0.000291301
0.00384837
0.000138308
0.00340903
0.00312359
-0.00826817
0.00464615
0.00860583
0.00337097
-0.00890514
0.00706541
0.00874234
0.00552892
0.00760873
0.00487355
0.00312268
0.00460398
0.00122672
0.00448629
0.000579916
0.00445362
0.000177581
0.00446728
-4.3198e-05
0.00450743
-0.000166257
0.00456407
-0.000242609
0.00463132
-0.000286943
0.00469917
-0.000286315
0.00477127
-0.000301941
0.00483577
-0.000261244
0.00490096
-0.000270233
0.00495639
-0.000221743
0.00500702
-0.00021092
0.00505209
-0.000186442
0.0050911
-0.000163689
0.00512758
-0.000153395
0.00515748
-0.000120884
0.00518483
-0.000111976
0.00520711
-8.43054e-05
0.00522569
-6.85798e-05
0.00524124
-5.27108e-05
0.00525267
-3.34734e-05
0.0052626
-2.7134e-05
0.00526888
-8.00251e-06
0.00527367
-2.28957e-06
0.005276
1.0577e-05
0.00527682
1.69783e-05
0.00527614
2.45435e-05
0.00527398
3.14172e-05
0.0052709
3.59958e-05
0.00526651
4.26177e-05
0.00526159
4.53239e-05
0.00525547
5.18266e-05
0.00524897
5.38068e-05
0.00524143
5.99051e-05
0.00523367
6.10564e-05
0.00522449
7.00923e-05
0.00522221
-7.51897e-06
0.00522761
-5.53282e-05
0.00523145
-1.61276e-05
0.00523231
5.44538e-06
0.00523169
1.23717e-05
0.00523044
1.5105e-05
0.00522903
1.53485e-05
0.00522748
1.59189e-05
0.00522593
1.55902e-05
0.00522435
1.55337e-05
0.00522286
1.48667e-05
0.00522137
1.45771e-05
0.00521995
1.41671e-05
0.00521848
1.40164e-05
0.00521713
1.33437e-05
0.0052157
1.33872e-05
0.00521448
1.23014e-05
0.00521316
1.24189e-05
0.0052121
1.10849e-05
0.0052109
1.14885e-05
0.00520898
1.50234e-05
0.00520539
2.3e-05
0.00520092
2.68936e-05
0.00519515
3.29558e-05
0.00518848
3.68613e-05
0.00518039
4.38491e-05
0.00517088
4.98423e-05
0.00516002
5.67532e-05
0.00514627
7.11926e-05
0.00513096
7.66192e-05
0.0051128
9.19335e-05
0.00509057
0.000111123
0.0050651
0.000125548
0.005035
0.000147607
0.00499878
0.000178947
0.00495345
0.000221811
0.00490191
0.000251186
0.00482685
0.000366358
0.00478628
0.000178884
0.00430888
0.00360097
-0.00963861
0.00567933
0.0104377
0.00362409
-0.0106908
0.00866858
0.0105115
0.00681585
0.00946146
0.00601379
0.00392474
0.00567302
0.00156749
0.00552488
0.000728063
0.00548341
0.00021905
0.00549948
-5.92704e-05
0.00554854
-0.000215317
0.00561814
-0.000312209
0.00570113
-0.000369939
0.00578512
-0.000370297
0.00587465
-0.000391478
0.00595524
-0.000341834
0.00603706
-0.000352048
0.00610735
-0.000292039
0.0061717
-0.000275266
0.00622912
-0.000243859
0.00627887
-0.000213448
0.00632536
-0.000199877
0.00636373
-0.000159253
0.00639881
-0.000147064
0.00642773
-0.000113218
0.00645202
-9.28741e-05
0.00647257
-7.32651e-05
0.00648804
-4.89375e-05
0.0065016
-4.06935e-05
0.00651069
-1.70955e-05
0.0065179
-9.49981e-06
0.00652208
6.3977e-06
0.00652437
1.46899e-05
0.00652479
2.41162e-05
0.0065234
3.28076e-05
0.00652087
3.85264e-05
0.00651675
4.67445e-05
0.00651197
5.01018e-05
0.00650577
5.80262e-05
0.00649912
6.0459e-05
0.00649125
6.77735e-05
0.00648314
6.91654e-05
0.00647346
7.97714e-05
0.00647029
-4.35057e-06
0.00647548
-6.05192e-05
0.00648
-2.06452e-05
0.00648157
3.87001e-06
0.00648142
1.25257e-05
0.00648046
1.60618e-05
0.00647929
1.6514e-05
0.00647793
1.72838e-05
0.00647657
1.69535e-05
0.00647514
1.69629e-05
0.00647381
1.61875e-05
0.00647247
1.5918e-05
0.00647122
1.54233e-05
0.00646988
1.53552e-05
0.00646869
1.453e-05
0.00646738
1.47011e-05
0.00646632
1.33586e-05
0.00646512
1.3622e-05
0.00646423
1.19758e-05
0.00646315
1.25645e-05
0.00646121
1.69647e-05
0.00645721
2.69965e-05
0.00645212
3.19886e-05
0.00644542
3.96541e-05
0.00643757
4.47115e-05
0.00642799
5.34247e-05
0.00641662
6.12131e-05
0.0064036
6.97671e-05
0.00638706
8.77341e-05
0.00636851
9.51746e-05
0.00634649
0.000113954
0.0063195
0.000138113
0.00628843
0.00015662
0.00625168
0.000184352
0.00620746
0.000223168
0.00615208
0.000277189
0.00608895
0.000314325
0.00599737
0.000457932
0.00594426
0.000232016
0.00544
0.00410524
-0.0111367
0.00693809
0.0126456
0.00380041
-0.0128219
0.0106272
0.0125298
0.00840132
0.0116874
0.00742397
0.00490209
0.00699317
0.00199829
0.00680559
0.000915645
0.0067522
0.000272435
0.00677046
-7.75274e-05
0.00682979
-0.000274651
0.00691472
-0.000397135
0.00701652
-0.000471742
0.00711984
-0.00047361
0.00723037
-0.000502017
0.00733036
-0.000441821
0.00743235
-0.000454033
0.00752077
-0.000380457
0.00760199
-0.000356487
0.00767468
-0.000316556
0.0077378
-0.000276565
0.00779673
-0.000258809
0.00784569
-0.000208214
0.00789048
-0.000191845
0.00792772
-0.000150465
0.00795923
-0.000124385
0.00798614
-0.000100171
0.00800678
-6.95717e-05
0.00802499
-5.89051e-05
0.00803774
-2.985e-05
0.00804812
-1.98783e-05
0.00805477
-2.56227e-07
0.00805907
1.03986e-05
0.00806105
2.21265e-05
0.0080608
3.30634e-05
0.00805914
4.01896e-05
0.00805553
5.03525e-05
0.00805113
5.45006e-05
0.00804503
6.41245e-05
0.0080384
6.70865e-05
0.00803036
7.58213e-05
0.00802204
7.7481e-05
0.00801201
8.98025e-05
0.00800795
-2.88446e-07
0.00801282
-6.53885e-05
0.00801802
-2.58454e-05
0.00802047
1.41895e-06
0.00802097
1.20206e-05
0.00802049
1.65501e-05
0.00801971
1.72882e-05
0.00801868
1.832e-05
0.00801763
1.80021e-05
0.00801648
1.81098e-05
0.00801546
1.72114e-05
0.00801439
1.69869e-05
0.00801342
1.63897e-05
0.00801233
1.64494e-05
0.00801142
1.54369e-05
0.00801033
1.5788e-05
0.00800956
1.41361e-05
0.00800858
1.46012e-05
0.00800797
1.25801e-05
0.00800713
1.34099e-05
0.00800524
1.88529e-05
0.00800084
3.13945e-05
0.00799508
3.7754e-05
0.00798732
4.74084e-05
0.00797812
5.39098e-05
0.00796681
6.47371e-05
0.00795325
7.47747e-05
0.00793769
8.53323e-05
0.00791782
0.000107596
0.00789539
0.000117608
0.00786875
0.000140591
0.00783604
0.00017083
0.00779823
0.000194428
0.00775345
0.000229126
0.00769959
0.000277037
0.00763207
0.000344701
0.00755491
0.000391489
0.00744351
0.000569334
0.00737355
0.000301981
0.00686581
0.00461297
-0.0127462
0.00847525
0.0153092
0.00385533
-0.0153641
0.0130219
0.0148171
0.0103558
0.0143535
0.00917017
0.0060877
0.0086258
0.00254266
0.00838694
0.00115451
0.00831729
0.000342079
0.00833708
-9.73139e-05
0.00840808
-0.000345655
0.00851098
-0.000500031
0.00863512
-0.000595889
0.00876149
-0.000599972