/*--------------------------------*- C++ -*----------------------------------*\
| =========                 |                                                 |
| \\      /  F ield         | OpenFOAM: The Open Source CFD Toolbox           |
|  \\    /   O peration     | Version:  5.x                                   |
|   \\  /    A nd           | Web:      www.OpenFOAM.org                      |
|    \\/     M anipulation  |                                                 |
\*---------------------------------------------------------------------------*/
FoamFile
{
    version     2.0;
    format      ascii;
    class       volScalarField;
    location    "500";
    object      nut;
}
// * * * * * * * * * * * * * * * * * * * * * * * * * * * * * * * * * * * * * //

dimensions      [0 2 -1 0 0 0 0];

internalField   nonuniform List<scalar> 
11040
(
0.0033297
0.00390968
0.00420052
0.00424574
0.00406844
0.00380378
0.00357752
0.00338136
0.00317812
0.00294518
0.00265457
0.00237998
0.00216568
0.00199929
0.00182999
0.00164693
0.00143824
0.00108355
0.000776945
0.000632561
0.000547392
0.000466623
0.000404097
0.000440628
0.000541835
0.000546312
0.000498566
0.00043378
0.000416559
0.000415138
0.000422605
0.000438714
0.000464085
0.000497188
0.000532675
0.000557317
0.000541386
0.000458409
0.000441599
0.000527569
0.000891767
0.00771753
0.00824207
0.00749559
0.00672143
0.00599144
0.00536204
0.00528654
0.00531991
0.00528472
0.00514342
0.00495239
0.00480239
0.00469548
0.00457404
0.00439372
0.00419019
0.00398233
0.00373838
0.003478
0.00327214
0.00298125
0.00256997
0.00215304
0.00192746
0.00170094
0.00148627
0.00132045
0.00116665
0.00105998
0.000980682
0.000937604
0.00093209
0.000969642
0.00105367
0.0011871
0.00137022
0.00158926
0.00182167
0.00211747
0.00273748
0.00433484
0.0157421
0.0165419
0.0154627
0.0141355
0.0126557
0.0111913
0.00987803
0.00875158
0.007818
0.00699415
0.00649478
0.00632056
0.00626177
0.00625634
0.0062255
0.00615191
0.00603743
0.00588327
0.00570014
0.00552174
0.00532082
0.00511878
0.00489429
0.00454386
0.00402022
0.00351805
0.00316188
0.00283907
0.00260595
0.0024233
0.00230384
0.00226931
0.0023359
0.00251457
0.00280856
0.00321283
0.00370375
0.00424311
0.00485111
0.00594914
0.00888888
0.0249223
0.025789
0.0246124
0.0228877
0.0208853
0.0188208
0.0168217
0.0149366
0.0132072
0.011613
0.0101145
0.00888088
0.00821183
0.00796825
0.00786176
0.00780201
0.00774651
0.00767064
0.00756497
0.00744545
0.00733206
0.0072772
0.00725396
0.00717119
0.00694901
0.0065346
0.00594125
0.0053565
0.00493535
0.00460217
0.00436865
0.00427374
0.00434974
0.00462287
0.00510353
0.00578323
0.0066153
0.00753734
0.00854725
0.0101891
0.0143321
0.0349321
0.0357494
0.0345733
0.0326168
0.030236
0.0276747
0.0250948
0.0225372
0.0201042
0.0178089
0.0155466
0.0135086
0.0119151
0.0107002
0.010065
0.00970429
0.00948298
0.00933485
0.00922033
0.00912753
0.00907781
0.00913217
0.00929068
0.00948798
0.00961066
0.00955923
0.00929311
0.00885231
0.00831006
0.00777904
0.00737697
0.00717457
0.00722514
0.00757811
0.00825747
0.00925715
0.0104875
0.0118508
0.0132934
0.0154458
0.02043
0.0453881
0.0461093
0.0449967
0.0429726
0.0403928
0.0374388
0.0343181
0.031183
0.0281431
0.0252189
0.0222893
0.0195578
0.017246
0.0153341
0.0137329
0.0124995
0.0118211
0.0113574
0.0110146
0.0107731
0.010657
0.0107215
0.0109834
0.011415
0.0118955
0.0122685
0.0124262
0.0123507
0.0120885
0.0117207
0.0113597
0.0111441
0.0112129
0.0116534
0.0125181
0.0138566
0.0155154
0.0173518
0.0191947
0.0217242
0.0270603
0.0559768
0.0565646
0.0555484
0.0535892
0.0509554
0.0478408
0.044452
0.040942
0.037441
0.0339895
0.0304704
0.0271012
0.0241404
0.0216054
0.0193206
0.0172627
0.0154731
0.0143372
0.0135113
0.0128616
0.0124078
0.0122428
0.0124011
0.012893
0.0136421
0.0144581
0.0151347
0.0155554
0.015716
0.0156838
0.0155768
0.0155677
0.0158761
0.0166885
0.0180647
0.0198945
0.0219744
0.0242814
0.026408
0.0291023
0.034101
0.0663474
0.0668147
0.0659181
0.0641147
0.0615884
0.0585355
0.0551257
0.051486
0.047744
0.0439493
0.0399957
0.0361042
0.0325671
0.029442
0.0265644
0.0238839
0.0213554
0.0190654
0.0174153
0.016093
0.0149981
0.0142684
0.0139762
0.0141508
0.0148249
0.0158867
0.0170799
0.0181318
0.0188963
0.0193745
0.0196665
0.0199649
0.0205598
0.0217678
0.0237964
0.0266172
0.0298791
0.0329552
0.0351679
0.0377275
0.0417151
0.0762593
0.0766102
0.0758332
0.0742347
0.0719384
0.0691121
0.0658844
0.0623456
0.0586034
0.0546985
0.0505339
0.046314
0.0423433
0.0387178
0.0353142
0.0320959
0.0290229
0.0260315
0.0233304
0.0211436
0.0192314
0.0177065
0.0166435
0.0160447
0.0160581
0.0167536
0.0180331
0.0196087
0.0211261
0.0223582
0.0232837
0.0240536
0.0249724
0.0264637
0.0289214
0.0324746
0.0368803
0.041539
0.0454839
0.0478501
0.0505618
0.0854705
0.0857226
0.0850625
0.08369
0.0816889
0.0791908
0.0762865
0.07303
0.0695008
0.0657009
0.0615582
0.0572439
0.0530465
0.0490932
0.0453225
0.0416885
0.0381733
0.0347286
0.0313459
0.0283151
0.0255993
0.0232908
0.0214002
0.0198238
0.0187396
0.0183437
0.0187733
0.0200112
0.0218265
0.0238327
0.0256764
0.0272374
0.0286957
0.0304806
0.0331393
0.0370569
0.0421983
0.0480827
0.0538709
0.0585263
0.0612406
0.0938215
0.0939972
0.0934468
0.0922982
0.0906096
0.0884812
0.0859741
0.0830995
0.0799131
0.0764297
0.0725614
0.0684275
0.0642708
0.0602181
0.0562354
0.052336
0.048518
0.0447693
0.0410109
0.0373757
0.0340368
0.0311467
0.0286413
0.0262768
0.0241605
0.022473
0.021435
0.02125
0.0220196
0.0236631
0.0258987
0.0283414
0.0307159
0.0330896
0.0359317
0.039851
0.0451629
0.0516649
0.0586662
0.0651623
0.0701529
0.101236
0.101356
0.100902
0.0999577
0.0985655
0.0968016
0.0947073
0.0922703
0.0895324
0.0864955
0.0830761
0.0793464
0.0754876
0.071602
0.0676686
0.06372
0.0597751
0.0558408
0.0518915
0.0478946
0.0440861
0.0408391
0.0380034
0.0352269
0.0325179
0.0299551
0.0276836
0.025908
0.0248577
0.0247271
0.0256033
0.0274105
0.0299201
0.0328711
0.0361872
0.040126
0.0451521
0.0515358
0.0589799
0.0666434
0.0734548
0.107708
0.107784
0.107409
0.106639
0.105509
0.104076
0.102368
0.100366
0.0981008
0.0955656
0.0926858
0.089498
0.0861113
0.0826068
0.078973
0.0752483
0.0714394
0.0675583
0.0636079
0.0595632
0.0554395
0.0517899
0.0487476
0.0458482
0.0429878
0.0401376
0.0373301
0.0346559
0.0322649
0.0303547
0.029141
0.0288087
0.0294594
0.0310854
0.033613
0.0370043
0.0413759
0.0469951
0.0539666
0.0618955
0.0699187
0.113272
0.11331
0.112996
0.112373
0.111465
0.110316
0.108947
0.107338
0.105512
0.103462
0.101127
0.0985046
0.0956844
0.0927074
0.089556
0.0862517
0.0828086
0.0792453
0.07555
0.0717162
0.0677236
0.0640062
0.0606772
0.0575595
0.0546619
0.0518456
0.0490339
0.0462094
0.043403
0.0406925
0.0382042
0.0361046
0.0345778
0.0337917
0.0338724
0.0349014
0.0369494
0.0401631
0.0447529
0.0508438
0.0582779
0.11798
0.117995
0.117736
0.117233
0.116511
0.115598
0.11451
0.113234
0.111788
0.110164
0.108306
0.106225
0.10397
0.101561
0.0989754
0.0962194
0.0932987
0.0902174
0.0869756
0.0835692
0.0799922
0.0766
0.0734599
0.0703376
0.0672721
0.0643533
0.0616194
0.0589572
0.0562956
0.0536122
0.0509221
0.0482762
0.0457622
0.0434978
0.0416148
0.0402572
0.0395536
0.0396227
0.0406157
0.0427111
0.0462122
0.121947
0.121944
0.121727
0.121321
0.120754
0.120027
0.119165
0.118158
0.117023
0.115752
0.114304
0.112687
0.110931
0.109046
0.107
0.104803
0.102461
0.0999607
0.0972961
0.0944604
0.0914449
0.0885545
0.0858531
0.083119
0.0803572
0.0775916
0.0748584
0.0721718
0.0695961
0.0671302
0.0647025
0.0622729
0.0598288
0.0573866
0.0549818
0.0526872
0.0505938
0.0487821
0.0473527
0.0464189
0.0461241
0.125272
0.125257
0.125073
0.124743
0.124288
0.123711
0.123031
0.122241
0.121354
0.120366
0.119249
0.118007
0.116661
0.115208
0.113637
0.111945
0.11013
0.108186
0.106111
0.103889
0.101507
0.0991975
0.0970197
0.0948051
0.0925537
0.0902652
0.0879438
0.0855983
0.0832487
0.0809163
0.0786085
0.0763284
0.0740983
0.0719214
0.0697701
0.0676292
0.0655003
0.063386
0.0613183
0.0593592
0.0574468
0.127924
0.127903
0.127749
0.127479
0.127111
0.126649
0.126104
0.125482
0.124779
0.123999
0.123123
0.122158
0.121118
0.119999
0.118792
0.117498
0.116111
0.114627
0.113039
0.111339
0.109517
0.107742
0.106058
0.104342
0.102596
0.100819
0.0990107
0.0971734
0.0953045
0.0934069
0.0914871
0.0895522
0.087612
0.0856745
0.0837362
0.0817994
0.0798647
0.0779145
0.0759496
0.0740701
0.072125
0.129963
0.129939
0.129808
0.129584
0.129281
0.128908
0.128463
0.127956
0.127387
0.126759
0.126064
0.125298
0.124476
0.123594
0.122649
0.12164
0.120564
0.119418
0.118197
0.116893
0.115501
0.114141
0.11285
0.111536
0.110201
0.108845
0.107467
0.106068
0.104647
0.103202
0.101735
0.100244
0.0987304
0.0971947
0.0956336
0.0940522
0.0924564
0.0908352
0.0891846
0.0875227
0.085779
0.131561
0.131536
0.131424
0.131237
0.130982
0.13067
0.130301
0.129881
0.129417
0.128901
0.128334
0.127713
0.127049
0.126345
0.12559
0.124787
0.123936
0.123034
0.122078
0.121063
0.119986
0.118934
0.117936
0.116923
0.115898
0.114861
0.113811
0.112748
0.111672
0.110583
0.109479
0.10836
0.107225
0.106074
0.104901
0.103706
0.102492
0.101251
0.099981
0.0986857
0.0973229
0.132844
0.13282
0.132725
0.132565
0.132349
0.132084
0.131776
0.131423
0.131033
0.130603
0.130132
0.129623
0.129078
0.128502
0.127888
0.127239
0.126554
0.125833
0.125072
0.124269
0.123423
0.122597
0.121814
0.121024
0.120227
0.119424
0.118612
0.117794
0.116973
0.116146
0.115312
0.11447
0.11362
0.112762
0.111891
0.111006
0.11011
0.109194
0.108256
0.1073
0.106303
0.133895
0.133874
0.133793
0.133655
0.13347
0.133242
0.132978
0.13268
0.132349
0.131988
0.131591
0.131165
0.13071
0.130232
0.129728
0.129195
0.128636
0.128049
0.127434
0.12679
0.126114
0.125456
0.124834
0.124208
0.123577
0.122948
0.122313
0.121675
0.121037
0.1204
0.119761
0.11912
0.118475
0.117829
0.117176
0.116516
0.11585
0.115173
0.114484
0.113783
0.113062
0.13477
0.134753
0.134682
0.134563
0.134402
0.134205
0.133976
0.133719
0.133437
0.133128
0.132793
0.132431
0.13205
0.131647
0.131226
0.130784
0.130324
0.129841
0.129338
0.128813
0.128266
0.127735
0.127232
0.12673
0.126225
0.125724
0.12522
0.124717
0.124214
0.123714
0.123217
0.122722
0.122228
0.121734
0.121236
0.120736
0.120235
0.119728
0.119214
0.118695
0.118168
0.135509
0.135494
0.135433
0.135329
0.135188
0.135017
0.134817
0.134594
0.134349
0.134082
0.133793
0.133483
0.133158
0.132819
0.132463
0.132091
0.131706
0.131307
0.130893
0.130461
0.130014
0.129579
0.129169
0.12876
0.128354
0.127949
0.127545
0.127142
0.126742
0.126345
0.125951
0.12556
0.125175
0.124791
0.124407
0.124024
0.123641
0.123256
0.122867
0.122478
0.122088
0.13614
0.136127
0.136073
0.135982
0.135859
0.135709
0.135534
0.135339
0.135125
0.134894
0.134644
0.134378
0.134098
0.133806
0.133504
0.13319
0.132864
0.132527
0.13218
0.131823
0.131455
0.131096
0.130758
0.130421
0.130088
0.129758
0.129429
0.129104
0.128781
0.128463
0.128148
0.127837
0.12753
0.127227
0.126926
0.126629
0.126333
0.126038
0.125741
0.125445
0.125151
0.136684
0.136672
0.136625
0.136546
0.136437
0.136305
0.136152
0.13598
0.135792
0.135589
0.135373
0.135142
0.1349
0.134649
0.134388
0.134119
0.133842
0.133558
0.133265
0.132964
0.132656
0.132358
0.132078
0.131799
0.131523
0.131251
0.130981
0.130715
0.130452
0.130194
0.129939
0.129689
0.129442
0.1292
0.128961
0.128725
0.128493
0.128264
0.128036
0.127808
0.127585
0.137155
0.137145
0.137105
0.137035
0.13694
0.136824
0.136689
0.136537
0.136371
0.136193
0.136002
0.135801
0.135591
0.135373
0.135148
0.134918
0.13468
0.134436
0.134187
0.133934
0.133675
0.133423
0.133187
0.132954
0.132725
0.132498
0.132274
0.132055
0.131839
0.131627
0.131419
0.131216
0.131016
0.130821
0.130629
0.13044
0.130256
0.130073
0.129893
0.129716
0.129544
0.137566
0.137559
0.137524
0.137464
0.137381
0.137279
0.137159
0.137025
0.136878
0.13672
0.136552
0.136375
0.136191
0.136002
0.135807
0.135607
0.135402
0.135193
0.13498
0.134763
0.134544
0.134332
0.134132
0.133935
0.133742
0.133551
0.133364
0.133182
0.133003
0.132828
0.132657
0.13249
0.132327
0.132168
0.132013
0.131861
0.131712
0.131566
0.131423
0.131282
0.131147
0.137928
0.137923
0.137894
0.137843
0.13777
0.13768
0.137574
0.137455
0.137324
0.137184
0.137035
0.136878
0.136716
0.136549
0.136378
0.136204
0.136027
0.135846
0.135663
0.135478
0.135291
0.13511
0.13494
0.134772
0.134608
0.134448
0.134291
0.134137
0.133988
0.133842
0.133701
0.133563
0.133429
0.133299
0.133172
0.133048
0.132928
0.132811
0.132695
0.132583
0.132476
0.138247
0.138246
0.138223
0.138179
0.138116
0.138036
0.137942
0.137836
0.137719
0.137594
0.137461
0.137322
0.137178
0.137031
0.13688
0.136727
0.136572
0.136415
0.136258
0.136098
0.135938
0.135783
0.135636
0.135493
0.135353
0.135217
0.135084
0.134954
0.134829
0.134707
0.134589
0.134474
0.134364
0.134256
0.134152
0.134051
0.133953
0.133858
0.133765
0.133674
0.133589
0.138531
0.138533
0.138516
0.138479
0.138423
0.138352
0.138268
0.138174
0.13807
0.137958
0.13784
0.137716
0.137588
0.137457
0.137324
0.137189
0.137052
0.136915
0.136777
0.136639
0.136502
0.136368
0.136242
0.136119
0.135999
0.135882
0.135769
0.135659
0.135553
0.13545
0.135351
0.135255
0.135163
0.135074
0.134988
0.134904
0.134824
0.134746
0.134671
0.134597
0.134529
0.138784
0.138791
0.138778
0.138747
0.138698
0.138635
0.13856
0.138475
0.138382
0.138283
0.138177
0.138067
0.137953
0.137837
0.137719
0.137599
0.137479
0.137358
0.137237
0.137117
0.136998
0.136881
0.136772
0.136665
0.136562
0.136462
0.136365
0.136271
0.136181
0.136094
0.13601
0.13593
0.135852
0.135778
0.135706
0.135637
0.135571
0.135507
0.135446
0.135386
0.135331
0.139012
0.139022
0.139014
0.138987
0.138944
0.138888
0.138821
0.138746
0.138663
0.138574
0.138481
0.138382
0.138281
0.138178
0.138073
0.137967
0.137861
0.137754
0.137648
0.137542
0.137439
0.137337
0.137242
0.137149
0.13706
0.136973
0.13689
0.136809
0.136732
0.136658
0.136587
0.136519
0.136453
0.136391
0.136331
0.136274
0.136219
0.136166
0.136115
0.136066
0.136022
0.139217
0.139231
0.139226
0.139202
0.139165
0.139115
0.139057
0.138991
0.138918
0.13884
0.138757
0.13867
0.13858
0.138489
0.138395
0.138301
0.138207
0.138113
0.138019
0.137927
0.137836
0.137747
0.137663
0.137583
0.137505
0.137429
0.137357
0.137288
0.137221
0.137158
0.137097
0.137039
0.136984
0.136931
0.136881
0.136833
0.136787
0.136743
0.136701
0.136661
0.136625
0.139402
0.139419
0.139416
0.139396
0.139364
0.139322
0.139273
0.139216
0.139154
0.139086
0.139013
0.138937
0.138857
0.138776
0.138694
0.13861
0.138527
0.138443
0.13836
0.138279
0.138199
0.138121
0.138047
0.137976
0.137908
0.137843
0.13778
0.13772
0.137662
0.137608
0.137556
0.137506
0.137459
0.137414
0.137372
0.137331
0.137293
0.137256
0.137222
0.137188
0.137159
0.13957
0.139588
0.139587
0.139571
0.139546
0.139513
0.139474
0.139428
0.139375
0.139318
0.139255
0.139189
0.139119
0.139048
0.138975
0.138901
0.138827
0.138753
0.13868
0.138607
0.138537
0.138468
0.138403
0.138341
0.138281
0.138223
0.138168
0.138116
0.138066
0.138019
0.137974
0.137931
0.137891
0.137853
0.137817
0.137783
0.13775
0.13772
0.137691
0.137663
0.137639
0.139722
0.13974
0.139739
0.139729
0.139713
0.139692
0.139663
0.139629
0.139588
0.139542
0.13949
0.139434
0.139375
0.139313
0.139249
0.139184
0.139118
0.139053
0.138988
0.138924
0.138861
0.138801
0.138743
0.138688
0.138635
0.138584
0.138536
0.138489
0.138446
0.138405
0.138365
0.138329
0.138294
0.138261
0.138231
0.138202
0.138175
0.138149
0.138126
0.138103
0.138084
0.139856
0.139871
0.139873
0.139872
0.139866
0.139855
0.139839
0.139817
0.13979
0.139758
0.13972
0.139679
0.139633
0.139584
0.139532
0.139477
0.139421
0.139365
0.139309
0.139254
0.1392
0.139147
0.139097
0.139048
0.139001
0.138956
0.138914
0.138875
0.138837
0.138802
0.13877
0.13874
0.138712
0.138687
0.138663
0.138642
0.138623
0.138606
0.138591
0.138578
0.138568
0.139962
0.139974
0.139979
0.139982
0.139983
0.13998
0.139974
0.139965
0.139953
0.139937
0.139919
0.139897
0.139873
0.139846
0.139817
0.139786
0.139753
0.139719
0.139683
0.139646
0.139611
0.139574
0.139538
0.139503
0.139469
0.139436
0.139405
0.139375
0.139348
0.139322
0.139299
0.139277
0.139258
0.13924
0.139225
0.139211
0.139199
0.139189
0.13918
0.139172
0.139168
0.140019
0.140027
0.140033
0.140037
0.14004
0.14004
0.140039
0.140037
0.140032
0.140026
0.140019
0.140009
0.139999
0.139987
0.139973
0.139959
0.139943
0.139927
0.13991
0.139893
0.139876
0.139858
0.13984
0.139822
0.139804
0.139787
0.13977
0.139754
0.139738
0.139724
0.139711
0.139699
0.139688
0.139678
0.139669
0.139661
0.139654
0.139648
0.139643
0.139639
0.139637
0.140047
0.140054
0.14006
0.140066
0.14007
0.140073
0.140075
0.140076
0.140076
0.140076
0.140074
0.140071
0.140067
0.140062
0.140057
0.14005
0.140044
0.140036
0.140029
0.140021
0.140013
0.140006
0.139998
0.13999
0.139982
0.139974
0.139967
0.13996
0.139953
0.139946
0.13994
0.139935
0.13993
0.139925
0.139921
0.139917
0.139914
0.139912
0.13991
0.139908
0.139907
0.140061
0.140068
0.140074
0.14008
0.140085
0.14009
0.140094
0.140098
0.140101
0.140104
0.140106
0.140107
0.140107
0.140107
0.140106
0.140105
0.140103
0.140101
0.140098
0.140095
0.140093
0.140089
0.140086
0.140083
0.14008
0.140077
0.140074
0.140071
0.140068
0.140065
0.140063
0.140061
0.140059
0.140057
0.140056
0.140054
0.140053
0.140053
0.140052
0.140052
0.140052
0.140066
0.140073
0.140079
0.140085
0.140091
0.140097
0.140103
0.140109
0.140114
0.140119
0.140124
0.140128
0.140131
0.140134
0.140137
0.140139
0.14014
0.140141
0.140142
0.140142
0.140143
0.140143
0.140142
0.140142
0.140141
0.140141
0.14014
0.14014
0.140139
0.140138
0.140138
0.140138
0.140137
0.140137
0.140137
0.140137
0.140137
0.140137
0.140138
0.140138
0.140139
0.140065
0.140071
0.140077
0.140083
0.140089
0.140096
0.140103
0.14011
0.140117
0.140124
0.14013
0.140137
0.140143
0.140148
0.140153
0.140158
0.140162
0.140165
0.140169
0.140172
0.140174
0.140176
0.140178
0.14018
0.140181
0.140183
0.140184
0.140185
0.140186
0.140187
0.140188
0.140188
0.140189
0.14019
0.140191
0.140192
0.140192
0.140193
0.140194
0.140195
0.140196
0.140058
0.140064
0.140069
0.140074
0.140081
0.140088
0.140095
0.140103
0.140111
0.140119
0.140127
0.140135
0.140142
0.14015
0.140157
0.140163
0.140169
0.140175
0.14018
0.140185
0.14019
0.140194
0.140198
0.140201
0.140204
0.140207
0.14021
0.140212
0.140215
0.140217
0.140219
0.14022
0.140222
0.140224
0.140225
0.140227
0.140228
0.140229
0.140231
0.140232
0.140233
0.140047
0.140051
0.140055
0.14006
0.140066
0.140073
0.14008
0.140087
0.140095
0.140103
0.140112
0.140121
0.140129
0.140138
0.140146
0.140155
0.140162
0.14017
0.140177
0.140184
0.14019
0.140196
0.140201
0.140206
0.140211
0.140215
0.140219
0.140223
0.140226
0.140229
0.140232
0.140234
0.140237
0.140239
0.140241
0.140243
0.140245
0.140246
0.140248
0.14025
0.140251
0.140031
0.140034
0.140037
0.140041
0.140045
0.14005
0.140055
0.140061
0.140068
0.140075
0.140083
0.140091
0.140099
0.140108
0.140117
0.140126
0.140134
0.140143
0.140151
0.14016
0.140168
0.140176
0.140183
0.14019
0.140197
0.140204
0.14021
0.140216
0.140221
0.140226
0.140231
0.140235
0.140239
0.140243
0.140247
0.14025
0.140253
0.140256
0.140258
0.140261
0.140263
0.140011
0.140012
0.140013
0.140015
0.140017
0.140019
0.140021
0.140024
0.140027
0.140031
0.140035
0.140039
0.140044
0.140049
0.140055
0.140061
0.140065
0.140068
0.14007
0.140074
0.140077
0.140081
0.140085
0.14009
0.140094
0.140099
0.140103
0.140108
0.140112
0.140116
0.14012
0.140124
0.140128
0.140131
0.140134
0.140137
0.14014
0.140143
0.140145
0.140148
0.14015
0.00615382
0.00821732
0.00901555
0.0102382
0.0126582
0.0160569
0.0200134
0.0242711
0.0286733
0.0331292
0.0375841
0.042001
0.0463526
0.0506184
0.0547841
0.0588402
0.0627805
0.066601
0.0702995
0.0738748
0.0773264
0.0806541
0.083858
0.0869383
0.0898956
0.0927306
0.095444
0.0980369
0.100511
0.102867
0.105108
0.107236
0.109253
0.111162
0.112966
0.114668
0.116272
0.117781
0.1192
0.120532
0.121781
0.122953
0.12405
0.125077
0.126039
0.12694
0.127783
0.128573
0.129316
0.130023
0.130697
0.131338
0.131944
0.132517
0.133056
0.133565
0.134045
0.134498
0.134926
0.13533
0.135712
0.136073
0.136414
0.136738
0.137044
0.137333
0.137608
0.13787
0.138119
0.138356
0.138583
0.138799
0.138986
0.139249
0.0131035
0.0159255
0.0154916
0.0141876
0.0140465
0.0158446
0.0190825
0.0230528
0.0273516
0.0317789
0.0362398
0.0406785
0.0450611
0.0493633
0.0535687
0.0576667
0.0616501
0.0655144
0.0692571
0.0728768
0.0763727
0.0797444
0.0829919
0.0861155
0.0891153
0.0919921
0.0947464
0.0973793
0.099892
0.102286
0.104563
0.106726
0.108777
0.110718
0.112552
0.114283
0.115915
0.11745
0.118893
0.120248
0.121519
0.12271
0.123826
0.12487
0.125848
0.126763
0.12762
0.128422
0.129176
0.129893
0.130576
0.131226
0.13184
0.13242
0.132967
0.133482
0.133967
0.134426
0.134858
0.135267
0.135653
0.136018
0.136363
0.136689
0.136998
0.137291
0.137569
0.137832
0.138084
0.138323
0.138551
0.13877
0.138958
0.139227
0.0203625
0.024944
0.0247474
0.0220574
0.0191234
0.0178886
0.0190802
0.0220774
0.025992
0.0302705
0.0346924
0.0391347
0.0435439
0.0478843
0.0521347
0.0562819
0.0603168
0.0642339
0.0680301
0.0717036
0.0752532
0.0786784
0.0819788
0.0851545
0.0882056
0.0911326
0.0939361
0.0966168
0.0991759
0.101615
0.103935
0.106139
0.10823
0.110208
0.112079
0.113844
0.115508
0.117073
0.118545
0.119926
0.121222
0.122436
0.123573
0.124638
0.125634
0.126565
0.127437
0.128254
0.129021
0.129749
0.130443
0.131102
0.131725
0.132314
0.132868
0.13339
0.133882
0.134346
0.134784
0.135198
0.135589
0.135958
0.136307
0.136637
0.136949
0.137245
0.137526
0.137792
0.138045
0.138287
0.138517
0.138738
0.138928
0.139204
0.0270944
0.0339071
0.0349542
0.0323519
0.0280419
0.0239453
0.0218226
0.0223821
0.0250325
0.0287844
0.0330047
0.0373744
0.0417816
0.0461495
0.0504442
0.0546458
0.0587399
0.062719
0.066579
0.0703173
0.0739318
0.0774215
0.0807858
0.0840246
0.0871378
0.0901255
0.0929881
0.0957263
0.098341
0.100834
0.103206
0.105459
0.107597
0.10962
0.111533
0.113339
0.115041
0.116642
0.118147
0.11956
0.120884
0.122125
0.123287
0.124375
0.125392
0.126343
0.127233
0.128065
0.128847
0.129589
0.130295
0.130965
0.131599
0.132196
0.132759
0.133289
0.133789
0.13426
0.134704
0.135123
0.135519
0.135892
0.136246
0.13658
0.136896
0.137196
0.137479
0.137748
0.138004
0.138248
0.138481
0.138704
0.138896
0.139178
0.0333893
0.0425102
0.0451898
0.0435685
0.0393272
0.0339198
0.0289604
0.0260224
0.0258467
0.0279729
0.0314449
0.0355149
0.0398132
0.0441525
0.0484699
0.0527207
0.0568762
0.0609239
0.0648577
0.0686723
0.0723642
0.0759313
0.0793727
0.0826877
0.0858758
0.0889369
0.0918709
0.0946784
0.0973602
0.0999173
0.102351
0.104664
0.106858
0.108936
0.1109
0.112753
0.1145
0.116144
0.117689
0.119138
0.120497
0.12177
0.122961
0.124075
0.125117
0.126091
0.127001
0.127853
0.128653
0.12941
0.130129
0.130812
0.131457
0.132066
0.132639
0.133178
0.133686
0.134164
0.134615
0.13504
0.135442
0.135821
0.136179
0.136518
0.136838
0.137142
0.137429
0.137701
0.13796
0.138207
0.138441
0.138667
0.138861
0.13915
0.0393433
0.0505791
0.054934
0.0547495
0.051487
0.0462351
0.0401128
0.0344752
0.0307198
0.0296401
0.0310199
0.034012
0.0378278
0.0419785
0.0462391
0.0504981
0.0546938
0.0588052
0.0628176
0.066718
0.070499
0.0741571
0.0776902
0.0810966
0.0843749
0.0875245
0.0905449
0.0934363
0.096199
0.0988342
0.101343
0.103728
0.10599
0.108132
0.110157
0.112069
0.11387
0.115564
0.117156
0.11865
0.120049
0.12136
0.122586
0.123732
0.124803
0.125803
0.126738
0.127612
0.128433
0.129208
0.129944
0.13064
0.131299
0.13192
0.132504
0.133054
0.133571
0.134058
0.134517
0.134949
0.135357
0.135742
0.136106
0.13645
0.136775
0.137083
0.137374
0.13765
0.137912
0.138161
0.138399
0.138628
0.138824
0.13912
0.044992
0.0577882
0.0637071
0.065177
0.0634133
0.0592607
0.0534776
0.0469425
0.040774
0.0361886
0.0340396
0.0343915
0.036639
0.040002
0.0439075
0.0480316
0.0522052
0.0563506
0.0604273
0.06441
0.0682845
0.0720437
0.0756821
0.0791957
0.0825813
0.0858368
0.088961
0.0919534
0.094814
0.0975434
0.100143
0.102614
0.104959
0.10718
0.109279
0.11126
0.113127
0.114883
0.116532
0.118078
0.119527
0.120883
0.12215
0.123334
0.12444
0.125472
0.126436
0.127336
0.128182
0.128979
0.129733
0.130447
0.131121
0.131756
0.132354
0.132915
0.133443
0.13394
0.134408
0.134848
0.135264
0.135656
0.136026
0.136375
0.136706
0.137018
0.137314
0.137594
0.137859
0.138112
0.138353
0.138585
0.138783
0.139086
0.0501679
0.0636866
0.0709865
0.0741556
0.0741588
0.0716635
0.0671937
0.0612851
0.0546188
0.0480908
0.042732
0.0394083
0.0384625
0.0396136
0.0422303
0.0456928
0.0495666
0.0536043
0.0576763
0.0617122
0.0656728
0.0695362
0.0732894
0.0769236
0.0804328
0.0838125
0.08706
0.0901731
0.0931511
0.0959943
0.0987033
0.101279
0.103725
0.106041
0.10823
0.110297
0.112243
0.114074
0.115792
0.117404
0.118912
0.120322
0.12164
0.12287
0.124017
0.125088
0.126086
0.127019
0.127894
0.128717
0.129494
0.130227
0.130919
0.131571
0.132184
0.132759
0.1333
0.133808
0.134286
0.134736
0.13516
0.13556
0.135937
0.136293
0.13663
0.136947
0.137248
0.137532
0.137802
0.138059
0.138303
0.138538
0.138739
0.139049
0.0561383
0.0678664
0.0762029
0.0809579
0.0827759
0.0822288
0.0796525
0.0753443
0.0696871
0.063196
0.0565572
0.0506019
0.0461462
0.0437303
0.0434284
0.044891
0.0475756
0.0509817
0.0547573
0.0586888
0.0626547
0.0665861
0.0704437
0.0742033
0.0778497
0.0813727
0.0847654
0.0880232
0.091143
0.0941235
0.0969646
0.0996674
0.102234
0.104666
0.106966
0.109137
0.111181
0.113104
0.114907
0.116598
0.118179
0.119656
0.121036
0.122322
0.12352
0.124637
0.125677
0.126649
0.127559
0.128414
0.129217
0.129975
0.130688
0.13136
0.13199
0.132582
0.133138
0.133659
0.134149
0.13461
0.135044
0.135453
0.135839
0.136202
0.136545
0.136869
0.137176
0.137465
0.13774
0.138
0.138248
0.138487
0.138691
0.139009
0.063708
0.0704891
0.0789822
0.0849465
0.0883353
0.0897642
0.0893574
0.0871916
0.0834702
0.078457
0.0725051
0.0661018
0.0598782
0.0545383
0.0507022
0.0487267
0.0486103
0.0500493
0.0526028
0.055853
0.0594854
0.0632942
0.0671542
0.0709908
0.0747582
0.078428
0.0819817
0.0854071
0.0886962
0.0918439
0.0948476
0.0977064
0.100421
0.102994
0.105428
0.107726
0.109891
0.111926
0.113836
0.115624
0.117296
0.118856
0.120311
0.121667
0.122929
0.124102
0.125195
0.126214
0.127167
0.128059
0.128896
0.129682
0.130422
0.131117
0.131769
0.13238
0.132953
0.13349
0.133995
0.134469
0.134914
0.135333
0.135728
0.136101
0.136452
0.136783
0.137096
0.137391
0.137671
0.137937
0.138188
0.138432
0.138639
0.138965
0.0736141
0.0768362
0.080194
0.08628
0.0902696
0.0932808
0.0949628
0.0950529
0.0937078
0.0910083
0.087058
0.0820532
0.0763179
0.070301
0.0645515
0.0596491
0.0560895
0.054164
0.0538949
0.0550676
0.057336
0.0603398
0.0637812
0.0674473
0.0711984
0.0749459
0.0786339
0.0822268
0.0857014
0.0890429
0.0922417
0.0952924
0.0981925
0.100942
0.103542
0.105996
0.108308
0.110483
0.112523
0.114433
0.116218
0.117882
0.119433
0.120875
0.122215
0.12346
0.124618
0.125696
0.126702
0.127641
0.128519
0.129341
0.130112
0.130835
0.131513
0.132147
0.132741
0.133297
0.133819
0.134308
0.134767
0.135199
0.135605
0.135987
0.136347
0.136687
0.137007
0.13731
0.137596
0.137867
0.138123
0.138372
0.138582
0.138916
0.0783958
0.082055
0.0852033
0.0879531
0.0895683
0.0929772
0.0959108
0.0976301
0.0985245
0.0984042
0.0970869
0.0945461
0.0909011
0.0863387
0.0811263
0.0756323
0.0703145
0.0656639
0.062118
0.0599694
0.0593077
0.0600218
0.0618596
0.0645147
0.0677003
0.0711884
0.0748159
0.0784731
0.0820885
0.0856156
0.0890245
0.0922963
0.0954193
0.0983872
0.101197
0.10385
0.106349
0.108696
0.110898
0.11296
0.114886
0.116681
0.118352
0.119904
0.121344
0.12268
0.123919
0.125071
0.126143
0.12714
0.128069
0.128936
0.129746
0.130504
0.131213
0.131876
0.132496
0.133075
0.133616
0.134124
0.134599
0.135046
0.135465
0.135859
0.13623
0.136579
0.136908
0.137219
0.137512
0.13779
0.138052
0.138306
0.13852
0.138862
0.0760115
0.0804322
0.0844024
0.0878089
0.0905148
0.0929155
0.0946728
0.0956692
0.0975632
0.0994193
0.10044
0.100456
0.0995691
0.0977091
0.0948424
0.0910583
0.0865705
0.0816895
0.0767995
0.0723237
0.0686682
0.0661513
0.0649439
0.065046
0.0663086
0.0684912
0.0713273
0.0745758
0.0780459
0.0815994
0.085142
0.0886113
0.091967
0.0951837
0.0982463
0.101147
0.103882
0.106454
0.108864
0.111118
0.113221
0.115182
0.117004
0.118696
0.120264
0.121716
0.123061
0.124306
0.125461
0.126532
0.127526
0.128449
0.129309
0.130111
0.130859
0.131557
0.132208
0.132815
0.133382
0.133911
0.134406
0.13487
0.135305
0.135714
0.136098
0.136458
0.136798
0.137118
0.137419
0.137704
0.137973
0.138233
0.138452
0.138804
0.0645609
0.0696936
0.0746374
0.0792998
0.083567
0.087408
0.0907181
0.0934082
0.0956482
0.0973111
0.0982775
0.0989869
0.100277
0.101157
0.101154
0.100174
0.0982755
0.0955135
0.0919911
0.0879088
0.0835679
0.079337
0.0756018
0.0727076
0.0709019
0.0702956
0.0708544
0.0724253
0.074786
0.0776982
0.0809476
0.0843633
0.0878205
0.0912334
0.0945455
0.0977213
0.10074
0.10359
0.106267
0.108772
0.111109
0.113283
0.115302
0.117174
0.118907
0.120508
0.121987
0.123354
0.124616
0.125782
0.126859
0.127856
0.128779
0.129637
0.130435
0.131177
0.131867
0.132509
0.133106
0.133663
0.134182
0.134668
0.135122
0.135548
0.135947
0.136321
0.136673
0.137004
0.137315
0.137609
0.137886
0.138153
0.138377
0.138739
0.0494703
0.0526414
0.0562973
0.0604789
0.0651574
0.0702456
0.0755742
0.0808861
0.0858935
0.0902874
0.0937966
0.0963383
0.0981613
0.0993467
0.0998785
0.100333
0.100963
0.10117
0.100559
0.0990288
0.0966572
0.0935884
0.090033
0.0862769
0.0826613
0.0795376
0.0772119
0.0758955
0.0756745
0.0765065
0.0782463
0.0806889
0.0836152
0.0868267
0.0901636
0.0935081
0.0967797
0.0999261
0.102916
0.105733
0.108369
0.110825
0.113105
0.115215
0.117165
0.118962
0.120619
0.122143
0.123546
0.124837
0.126025
0.127118
0.128126
0.129056
0.129918
0.130716
0.131456
0.132142
0.132778
0.133369
0.133919
0.134431
0.134909
0.135356
0.135773
0.136164
0.136531
0.136875
0.137198
0.137502
0.137788
0.138064
0.138295
0.138668
0.0465921
0.047401
0.0485266
0.0499975
0.0518756
0.054236
0.0571585
0.0607118
0.0649282
0.0697673
0.075075
0.0805721
0.0859022
0.0906743
0.0945344
0.0973754
0.0993161
0.100438
0.100746
0.100867
0.101009
0.10075
0.099768
0.0979914
0.0955251
0.092574
0.0894132
0.0863638
0.0837532
0.0818649
0.0808943
0.0809222
0.081912
0.0837321
0.0861936
0.0890915
0.0922371
0.0954765
0.0986958
0.101817
0.104792
0.107593
0.110208
0.112633
0.114874
0.116936
0.118831