/*--------------------------------*- C++ -*----------------------------------*\
| =========                 |                                                 |
| \\      /  F ield         | OpenFOAM: The Open Source CFD Toolbox           |
|  \\    /   O peration     | Version:  5.x                                   |
|   \\  /    A nd           | Web:      www.OpenFOAM.org                      |
|    \\/     M anipulation  |                                                 |
\*---------------------------------------------------------------------------*/
FoamFile
{
    version     2.0;
    format      ascii;
    class       volScalarField;
    location    "500";
    object      nuTilda;
}
// * * * * * * * * * * * * * * * * * * * * * * * * * * * * * * * * * * * * * //

dimensions      [0 2 -1 0 0 0 0];

internalField   nonuniform List<scalar> 
41860
(
4.12388e-05
4.37072e-05
5.52573e-05
5.82501e-05
5.38417e-05
4.98539e-05
4.43421e-05
3.97006e-05
3.59635e-05
3.28603e-05
3.01132e-05
2.81315e-05
2.59663e-05
2.49828e-05
2.33428e-05
2.2843e-05
2.19844e-05
2.13834e-05
2.09996e-05
1.97131e-05
1.95556e-05
2.87791e-05
1.90079e-05
2.98748e-05
1.86421e-05
3.04666e-05
3.08534e-05
1.83305e-05
3.0918e-05
3.09236e-05
3.06827e-05
1.80494e-05
1.80303e-05
3.03568e-05
1.79981e-05
2.99372e-05
1.8047e-05
1.80953e-05
1.80497e-05
2.92566e-05
1.82901e-05
1.84039e-05
3.02816e-05
3.03269e-05
1.72989e-05
3.02612e-05
3.02419e-05
3.02179e-05
3.01811e-05
3.012e-05
3.0071e-05
3.00263e-05
2.99765e-05
2.99949e-05
2.99756e-05
1.72924e-05
1.73079e-05
2.97133e-05
1.73454e-05
2.95655e-05
2.98419e-05
2.93887e-05
1.75141e-05
2.91172e-05
1.75583e-05
2.96524e-05
1.74793e-05
1.74815e-05
2.95419e-05
2.86615e-05
1.74893e-05
2.91069e-05
2.88537e-05
1.75057e-05
1.74037e-05
2.82986e-05
1.73039e-05
1.71789e-05
1.70592e-05
2.71637e-05
1.70497e-05
1.44811e-05
0.0001909
0.000223871
0.000287822
0.000304598
0.000281296
0.000260152
0.000230764
0.000205987
0.000186026
0.00016945
0.000154771
0.000144197
0.000132633
0.000127399
0.000118632
0.000115961
0.000110917
0.000107126
0.000104513
9.82701e-05
9.67636e-05
9.69893e-05
9.12566e-05
9.41495e-05
8.77743e-05
9.20038e-05
9.0414e-05
8.53179e-05
8.91541e-05
8.88711e-05
8.83239e-05
8.32216e-05
8.31202e-05
8.77128e-05
8.32244e-05
8.79538e-05
8.38611e-05
8.41723e-05
8.54071e-05
9.06752e-05
8.75359e-05
8.89245e-05
8.34515e-05
8.34036e-05
7.87373e-05
8.32218e-05
8.32156e-05
8.31637e-05
8.31841e-05
8.32081e-05
8.32703e-05
8.33611e-05
8.34696e-05
8.36262e-05
8.38045e-05
7.93404e-05
7.95984e-05
8.42735e-05
8.00671e-05
8.46861e-05
8.51817e-05
8.51537e-05
8.09802e-05
8.55598e-05
8.13978e-05
8.62228e-05
8.1875e-05
8.21711e-05
8.65568e-05
8.67964e-05
8.24022e-05
8.67832e-05
8.70016e-05
8.23059e-05
8.21336e-05
8.62325e-05
8.18633e-05
8.12956e-05
8.07097e-05
8.36651e-05
8.07951e-05
1.74912e-05
0.000240211
0.000278333
0.000363928
0.000387752
0.000358447
0.000331216
0.000293235
0.000261219
0.000235579
0.000214572
0.000196641
0.000183543
0.000171627
0.000165314
0.000160388
0.000158626
0.000157744
0.00015728
0.000156738
0.000156071
0.000155133
0.000157516
0.000154129
0.000156332
0.000152945
0.000154785
0.000154337
0.000150284
0.000152361
0.000151249
0.000150278
0.000146542
0.000145543
0.00014731
0.000143786
0.000145589
0.000142354
0.000141774
0.000141501
0.000143464
0.000141238
0.000141404
0.000141259
0.000140938
0.000138234
0.000140311
0.000140017
0.000139747
0.000139508
0.000139303
0.000139131
0.000138992
0.000138884
0.000138807
0.00013876
0.000136448
0.000136483
0.000138747
0.000136604
0.000138869
0.000139025
0.000139081
0.000136995
0.000139253
0.000137153
0.000139396
0.000137305
0.000137397
0.000139365
0.000139527
0.000137248
0.000139148
0.000139103
0.000136662
0.000136282
0.000137865
0.000135392
0.000134513
0.000133629
0.000133733
0.000133342
2.1111e-05
0.00032802
0.000371195
0.000437815
0.000475229
0.000465064
0.000434833
0.000407431
0.00038499
0.000365012
0.000346548
0.000330346
0.000310141
0.00029769
0.000279275
0.000276148
0.000269903
0.000268768
0.0002667
0.000263929
0.000262359
0.000258942
0.000258548
0.000254272
0.000253279
0.000249477
0.000248124
0.000246167
0.000241799
0.000241137
0.000238577
0.000236295
0.000232611
0.000230398
0.000229748
0.000226406
0.000225949
0.000223
0.000221553
0.000220287
0.000220314
0.000218434
0.000217869
0.00021662
0.000215606
0.000213644
0.000214106
0.000213402
0.000212755
0.000212165
0.000211642
0.000211178
0.000210772
0.000210421
0.000210123
0.000209877
0.000208553
0.000208425
0.000209393
0.000208271
0.000209284
0.000209332
0.000209328
0.000208342
0.000209349
0.000208333
0.000209285
0.000208224
0.000208207
0.000208942
0.000209038
0.000207683
0.000208318
0.000208111
0.000206573
0.000205887
0.00020609
0.000204323
0.000202953
0.000201562
0.000199747
0.000200512
2.54643e-05
0.000453593
0.000548474
0.000645231
0.000699994
0.000720978
0.00068146
0.000656882
0.000631381
0.000603099
0.000573475
0.000545398
0.000510169
0.000486124
0.000451879
0.00043818
0.000422424
0.000416127
0.000409496
0.000402616
0.000397972
0.000391031
0.000387024
0.000380586
0.000376073
0.000370692
0.000366031
0.00036196
0.000356328
0.000352904
0.000348472
0.000344472
0.000339993
0.000336226
0.000333336
0.000329414
0.000326932
0.00032355
0.000321017
0.000318714
0.000317156
0.000315041
0.00031375
0.000310964
0.000308907
0.000307032
0.000306222
0.000304977
0.000303831
0.00030278
0.000301834
0.000300982
0.000300224
0.000299551
0.000298966
0.000298458
0.000297551
0.00029721
0.000297332
0.000296689
0.000296901
0.000296836
0.000296706
0.000296263
0.000296515
0.000296031
0.000296247
0.000295668
0.000295531
0.000295516
0.000295482
0.000294543
0.000294391
0.000293989
0.000292764
0.000291751
0.00029103
0.000289414
0.000287492
0.000285504
0.00028219
0.00028318
3.06936e-05
0.000619436
0.000789368
0.000995066
0.00108235
0.00111542
0.00105279
0.00100949
0.000964448
0.000916032
0.00086647
0.000819267
0.000764824
0.000724111
0.000672558
0.000644497
0.000616164
0.000601743
0.000588435
0.000575848
0.000566336
0.000554717
0.000546272
0.00053626
0.000527834
0.00051956
0.000511416
0.00050453
0.000496621
0.000490336
0.000483569
0.000477404
0.000471277
0.000465605
0.000460571
0.00045536
0.000450995
0.000446553
0.000442717
0.000439245
0.000436316
0.000433513
0.000431461
0.000426624
0.000423128
0.000420758
0.000418899
0.000416979
0.000415205
0.000413577
0.000412102
0.00041077
0.000409572
0.000408499
0.000407554
0.000406722
0.000405815
0.000405215
0.000404798
0.000404245
0.000403969
0.000403762
0.000403477
0.000403206
0.000403037
0.000402712
0.000402526
0.000402074
0.000401807
0.000401339
0.000401166
0.000400292
0.000399644
0.000399028
0.00039775
0.000396372
0.000394996
0.000393173
0.000390642
0.000387961
0.000383445
0.000383667
3.69669e-05
0.000848802
0.00108659
0.00144135
0.00157161
0.00160074
0.00150829
0.00143715
0.00136664
0.00129388
0.00122093
0.00115136
0.00107525
0.00101492
0.000944264
0.000899453
0.000856007
0.000830724
0.000808627
0.000788637
0.000772617
0.000755033
0.000741154
0.000726282
0.000713248
0.000700937
0.000688816
0.00067837
0.000667271
0.000657774
0.00064811
0.000639267
0.000630774
0.000622765
0.000615418
0.000608334
0.000601973
0.000595963
0.000590559
0.000585694
0.000581379
0.000577541
0.000574646
0.000567324
0.000561917
0.000558598
0.00055571
0.000552951
0.000550403
0.000548062
0.000545936
0.00054401
0.00054227
0.000540707
0.000539318
0.000538089
0.000536927
0.00053601
0.000535184
0.000534495
0.000533869
0.000533482
0.000533012
0.000532716
0.00053228
0.000531921
0.000531484
0.000530967
0.000530556
0.000529776
0.000529453
0.000528456
0.000527442
0.000526588
0.000525069
0.000523281
0.000521361
0.000519128
0.000515934
0.000512454
0.000506945
0.000505265
4.4481e-05
0.00118379
0.0014463
0.00197036
0.0021502
0.00216822
0.00204204
0.00193905
0.00184047
0.00174132
0.00164297
0.00154887
0.00144907
0.00136674
0.00127501
0.00121123
0.00115026
0.00111131
0.00107807
0.0010487
0.00102439
0.000999308
0.000978697
0.000957614
0.000938955
0.000921469
0.000904543
0.00088967
0.000874477
0.000861137
0.000847902
0.000835753
0.000824213
0.000813336
0.000803277
0.000793775
0.000785093
0.000777052
0.000769742
0.000763178
0.00075729
0.000752107
0.000748236
0.000738018
0.000730149
0.000725461
0.000721401
0.000717609
0.000714103
0.000710888
0.000707961
0.000705306
0.000702902
0.000700735
0.000698802
0.000697085
0.000695511
0.000694203
0.00069298
0.000692021
0.000691071
0.000690459
0.00068977
0.000689348
0.000688696
0.000688209
0.000687567
0.000686895
0.000686323
0.000685274
0.000684785
0.000683581
0.000682234
0.000681118
0.000679271
0.000677029
0.000674583
0.00067183
0.000667925
0.000663534
0.000657239
0.000652224
5.34649e-05
0.00163149
0.00188434
0.00258732
0.00282228
0.0028248
0.00266136
0.00252378
0.00239544
0.00226847
0.00214319
0.00202274
0.00189731
0.00179077
0.0016758
0.00159078
0.00150982
0.00145426
0.00140718
0.00136607
0.00133138
0.00129693
0.00126796
0.0012391
0.00121348
0.00118952
0.00116667
0.00114632
0.00112601
0.00110796
0.00109032
0.00107409
0.00105875
0.00104434
0.00103099
0.00101848
0.00100698
0.000996408
0.000986762
0.000978108
0.000970329
0.000963465
0.000958421
0.000944929
0.000933958
0.000927434
0.000921941
0.00091687
0.000912186
0.000907894
0.000903982
0.000900433
0.000897213
0.000894306
0.000891704
0.000889389
0.000887276
0.000885489
0.000883816
0.00088249
0.000881181
0.000880286
0.000879333
0.000878727
0.00087786
0.000877194
0.00087635
0.000875477
0.000874725
0.000873409
0.000872734
0.000871288
0.000869604
0.000868201
0.000865985
0.000863254
0.000860261
0.000856922
0.000852277
0.00084685
0.000840066
0.000829836
6.41826e-05
0.00221265
0.00242799
0.00330516
0.00360016
0.00358337
0.00337889
0.00320425
0.00304473
0.0028888
0.00273524
0.0025868
0.00243384
0.00230091
0.00216042
0.00205175
0.00194822
0.00187295
0.00180897
0.0017533
0.00170576
0.00165964
0.00162028
0.00158176
0.00154747
0.00151549
0.00148528
0.00145814
0.00143149
0.00140762
0.00138452
0.00136326
0.00134322
0.00132445
0.00130705
0.0012908
0.00127586
0.00126214
0.00124962
0.00123838
0.00122828
0.00121932
0.00121284
0.00119573
0.00118092
0.00117199
0.00116469
0.00115804
0.0011519
0.00114628
0.00114116
0.00113651
0.00113228
0.00112847
0.00112504
0.00112199
0.00111921
0.00111683
0.00111462
0.00111283
0.00111109
0.00110985
0.00110857
0.00110773
0.00110663
0.00110575
0.00110469
0.00110359
0.00110264
0.00110104
0.00110016
0.00109846
0.00109643
0.00109471
0.00109211
0.00108887
0.00108531
0.00108134
0.00107594
0.00106935
0.00106253
0.00104465
7.69347e-05
0.00295902
0.00311555
0.00414161
0.00450072
0.00446049
0.00421069
0.00399651
0.00380458
0.00361874
0.00343579
0.00325787
0.00307552
0.00291408
0.00274567
0.00261081
0.00248197
0.00238373
0.00229945
0.00222594
0.00216258
0.002102
0.00204975
0.00199925
0.00195417
0.00191223
0.00187286
0.00183732
0.00180278
0.0017717
0.00174185
0.00171434
0.00168849
0.00166432
0.00164192
0.00162104
0.00160183
0.00158421
0.00156813
0.00155367
0.00154069
0.00152912
0.00152083
0.0014998
0.00148035
0.00146829
0.0014587
0.00145006
0.00144213
0.00143487
0.00142825
0.00142224
0.00141678
0.00141185
0.00140741
0.00140345
0.00139985
0.00139674
0.00139387
0.0013915
0.00138925
0.00138756
0.0013859
0.00138477
0.0013834
0.00138227
0.00138098
0.00137962
0.00137845
0.00137658
0.00137546
0.00137351
0.00137112
0.00136908
0.0013661
0.00136234
0.00135819
0.00135357
0.00134746
0.00133957
0.00133336
0.00130483
9.2059e-05
0.00391123
0.00398406
0.00511874
0.00554474
0.00547598
0.00517596
0.00491969
0.00469426
0.00447788
0.00426468
0.00405604
0.00384261
0.00365063
0.00345186
0.00328815
0.00313108
0.00300646
0.00289819
0.00280306
0.00272038
0.00264197
0.00257378
0.00250845
0.00244995
0.00239565
0.00234487
0.00229889
0.00225455
0.00221451
0.00217627
0.002141
0.00210794
0.00207706
0.00204846
0.00202183
0.00199733
0.00197485
0.00195435
0.00193587
0.00191929
0.00190445
0.00189385
0.00186863
0.00184365
0.00182755
0.00181504
0.00180392
0.00179375
0.00178446
0.00177599
0.0017683
0.00176131
0.001755
0.00174931
0.00174423
0.00173961
0.0017356
0.00173192
0.00172884
0.00172596
0.00172372
0.00172159
0.00172009
0.00171842
0.00171701
0.00171545
0.00171382
0.00171242
0.00171026
0.00170889
0.00170672
0.00170397
0.0017016
0.00169827
0.00169401
0.00168928
0.00168401
0.00167725
0.00166793
0.00166327
0.00162055
0.000109927
0.00511956
0.00506996
0.00626301
0.00675709
0.00665313
0.00629723
0.00599624
0.00573652
0.00548935
0.00524549
0.00500525
0.00475928
0.0045349
0.00430333
0.00410804
0.00391963
0.00376507
0.00362885
0.00350791
0.00340186
0.00330165
0.00321383
0.0031302
0.00305501
0.00298538
0.00292039
0.00286144
0.00280491
0.0027537
0.00270502
0.00266009
0.00261805
0.00257883
0.0025425
0.00250871
0.00247763
0.00244907
0.00242304
0.00239952
0.00237844
0.00235947
0.0023459
0.00231622
0.00228479
0.00226356
0.00224728
0.00223304
0.00222008
0.00220826
0.00219749
0.00218772
0.00217884
0.00217081
0.00216357
0.0021571
0.00215123
0.0021461
0.00214143
0.00213746
0.0021338
0.00213087
0.00212816
0.00212621
0.00212419
0.00212245
0.00212061
0.00211869
0.00211705
0.00211462
0.00211299
0.00211061
0.00210755
0.00210486
0.00210123
0.00209652
0.00209126
0.00208538
0.0020781
0.00206723
0.00206532
0.00200467
0.000130936
0.00664537
0.00642093
0.00760566
0.00816719
0.00801912
0.00760078
0.00725241
0.00695796
0.00668035
0.00640599
0.00613381
0.00585425
0.0055959
0.00532917
0.00509953
0.00487653
0.0046883
0.00451995
0.00436861
0.00423466
0.00410806
0.00399623
0.00389012
0.00379428
0.00370565
0.00362298
0.00354789
0.00347618
0.00341103
0.00334935
0.00329236
0.00323913
0.00318949
0.00314353
0.00310078
0.00306147
0.0030253
0.00299235
0.00296249
0.00293574
0.00291154
0.00289409
0.00285967
0.00282085
0.00279318
0.00277207
0.00275387
0.00273741
0.00272245
0.00270881
0.00269645
0.00268521
0.00267505
0.00266589
0.00265769
0.00265026
0.00264374
0.00263784
0.00263276
0.00262815
0.00262436
0.00262092
0.00261841
0.00261597
0.00261384
0.0026117
0.00260948
0.0026076
0.00260492
0.00260303
0.0026005
0.00259718
0.00259422
0.00259036
0.0025853
0.00257962
0.0025732
0.00256561
0.0025531
0.00255542
0.00247349
0.000155495
0.00856301
0.00809876
0.00918403
0.00980749
0.00960493
0.00911668
0.00871835
0.00838935
0.00808246
0.00777861
0.0074749
0.00716127
0.00686784
0.0065638
0.0062971
0.00603611
0.00581035
0.0056055
0.00541891
0.00525207
0.00509392
0.004953
0.00481951
0.00469826
0.0045862
0.00448159
0.00438643
0.00429586
0.00421332
0.00413543
0.00406338
0.00399617
0.0039335
0.00387549
0.00382153
0.0037719
0.00372618
0.00368452
0.00364667
0.00361273
0.00358191
0.00355935
0.00351981
0.0034727
0.00343708
0.00340981
0.00338657
0.00336572
0.00334681
0.00332959
0.00331399
0.00329981
0.00328699
0.00327542
0.00326506
0.00325571
0.00324744
0.00324001
0.00323355
0.00322775
0.00322289
0.00321855
0.00321531
0.00321236
0.00320979
0.00320732
0.00320478
0.00320266
0.00319978
0.00319765
0.00319503
0.00319155
0.00318839
0.00318443
0.00317918
0.00317324
0.00316641
0.00315883
0.0031446
0.00315286
0.00304781
0.000184001
0.010962
0.0101808
0.011044
0.0117037
0.0114389
0.0108747
0.0104249
0.0100635
0.00973046
0.00939978
0.00906627
0.00871913
0.00839024
0.00804721
0.00774097
0.00743865
0.00717141
0.00692563
0.00669871
0.00649371
0.00629842
0.00612273
0.00595625
0.00580402
0.00566323
0.00553157
0.00541158
0.00529762
0.00519343
0.00509534
0.00500448
0.00491981
0.00484084
0.00476776
0.00469973
0.00463716
0.00457942
0.00452679
0.00447882
0.00443579
0.00439655
0.00436726
0.00432204
0.00426577
0.00422054
0.00418543
0.00415579
0.00412939
0.00410552
0.00408381
0.00406416
0.0040463
0.00403015
0.00401557
0.00400251
0.00399073
0.00398028
0.00397094
0.00396275
0.00395547
0.00394926
0.00394378
0.00393961
0.00393603
0.00393294
0.00393008
0.00392723
0.00392486
0.00392185
0.00391951
0.0039169
0.00391341
0.00391016
0.00390628
0.00390106
0.00389509
0.00388807
0.0038809
0.00386494
0.00388088
0.00375417
0.000216805
0.0139498
0.012762
0.0132431
0.0138605
0.0135178
0.0128792
0.0123841
0.0120011
0.0116529
0.0113038
0.0109462
0.010569
0.0102062
0.00982383
0.00947641
0.00912996
0.00881756
0.00852657
0.00825434
0.00800584
0.0077676
0.00755103
0.00734539
0.00715591
0.00698031
0.00681561
0.0066651
0.00652234
0.00639132
0.00626817
0.0061539
0.00604745
0.00594813
0.00585618
0.00577054
0.00569171
0.00561885
0.00555238
0.00549164
0.00543704
0.0053871
0.00534893
0.00529715
0.0052309
0.00517428
0.00512937
0.0050916
0.00505818
0.00502807
0.00500072
0.00497597
0.0049535
0.00493317
0.00491481
0.00489834
0.00488353
0.00487033
0.00485858
0.00484822
0.00483908
0.00483118
0.00482427
0.0048189
0.0048145
0.00481076
0.00480746
0.00480427
0.00480167
0.0047986
0.00479612
0.00479363
0.0047903
0.00478715
0.00478356
0.00477866
0.00477299
0.00476608
0.00475983
0.00474224
0.00476739
0.00462586
0.000254165
0.017655
0.0159573
0.0158526
0.0162722
0.0158001
0.0150872
0.0145615
0.014181
0.0138453
0.013502
0.0131386
0.0127436
0.0123549
0.0119374
0.0115501
0.0111588
0.0107989
0.0104593
0.0101375
0.00984066
0.00955395
0.00929042
0.00903925
0.00880583
0.00858873
0.00838425
0.00819672
0.00801884
0.0078549
0.00770089
0.00755766
0.00742422
0.00729958
0.00718412
0.00707647
0.0069773
0.00688546
0.00680156
0.00672467
0.00665541
0.00659189
0.00654204
0.00648233
0.00640528
0.00633548
0.00627848
0.00623046
0.00618818
0.0061502
0.00611576
0.00608461
0.00605633
0.00603074
0.00600763
0.00598687
0.00596824
0.00595159
0.00593681
0.0059237
0.00591221
0.00590219
0.00589346
0.00588654
0.00588106
0.00587649
0.00587264
0.00586907
0.00586624
0.00586318
0.00586065
0.00585841
0.00585547
0.00585265
0.00584963
0.0058454
0.00584046
0.00583403
0.00582933
0.00581028
0.00584571
0.00570193
0.000440582
0.0222322
0.0199045
0.0189579
0.0189405
0.0182483
0.0174488
0.0169044
0.0165508
0.0162609
0.015961
0.0156274
0.0152451
0.0148533
0.0144168
0.0139994
0.0135688
0.0131633
0.0127751
0.0124016
0.0120534
0.0117141
0.0113984
0.011096
0.0108122
0.0105468
0.0102955
0.0100639
0.00984399
0.00964026
0.00944874
0.00927013
0.00910355
0.00894773
0.00880319
0.00866826
0.00854375
0.00842824
0.00832249
0.00822532
0.00813751
0.00805681
0.00799176
0.00792205
0.0078333
0.00774855
0.00767698
0.00761618
0.00756276
0.00751491
0.00747158
0.00743237
0.0073968
0.0073646
0.00733553
0.00730936
0.0072859
0.00726489
0.00724628
0.00722971
0.00721525
0.00720255
0.0071915
0.00718257
0.00717563
0.00716997
0.0071654
0.00716138
0.00715828
0.00715531
0.00715282
0.00715098
0.00714866
0.00714644
0.0071443
0.00714117
0.00713745
0.00713196
0.00712949
0.0071093
0.00715545
0.00702319
0.000644454
0.0278694
0.0247646
0.0226531
0.0218779
0.020841
0.0199294
0.0193718
0.0190621
0.0188443
0.0186221
0.0183584
0.0180307
0.0176755
0.0172539
0.0168324
0.0163814
0.0159428
0.0155137
0.0150927
0.0146949
0.0143026
0.0139325
0.0135752
0.0132361
0.0129169
0.0126124
0.01233
0.0120611
0.0118105
0.0115744
0.0113534
0.0111469
0.0109532
0.0107732
0.0106049
0.0104493
0.0103045
0.0101717
0.0100492
0.00993818
0.00983592
0.00975131
0.00966866
0.00956705
0.00946573
0.00937702
0.00930059
0.00923334
0.00917317
0.00911873
0.00906946
0.00902477
0.00898429
0.00894772
0.00891476
0.00888523
0.00885872
0.00883527
0.00881435
0.00879611
0.00878004
0.00876604
0.00875449
0.0087456
0.00873844
0.00873289
0.00872825
0.00872481
0.00872194
0.00871958
0.00871825
0.00871681
0.00871547
0.00871457
0.00871294
0.00871099
0.00870692
0.00870738
0.00868644
0.00874332
0.00861286
0.00419752
0.034787
0.0307202
0.027022
0.025101
0.0235665
0.022505
0.0219346
0.0216791
0.0215509
0.0214309
0.0212688
0.0210346
0.0207589
0.0203959
0.0200112
0.0195755
0.0191323
0.0186842
0.0182319
0.0177961
0.0173586
0.0169385
0.0165282
0.0161335
0.0157581
0.0153967
0.0150588
0.0147354
0.0144317
0.0141446
0.0138744
0.0136211
0.0133829
0.0131607
0.0129524
0.0127592
0.012579
0.0124131
0.0122597
0.01212
0.0119911
0.0118818
0.0117823
0.0116662
0.0115469
0.0114386
0.0113435
0.0112594
0.011184
0.0111159
0.0110542
0.0109982
0.0109474
0.0109015
0.0108601
0.0108229
0.0107896
0.01076
0.0107336
0.0107106
0.0106903
0.0106726
0.0106577
0.0106461
0.0106369
0.01063
0.0106244
0.0106204
0.0106176
0.0106154
0.0106147
0.0106143
0.0106141
0.0106147
0.010615
0.0106153
0.0106131
0.0106171
0.0105958
0.010663
0.010535
0.0067611
0.0430074
0.0379423
0.032092
0.0286143
0.0264117
0.0251526
0.0245666
0.0243728
0.0243455
0.0243436
0.0243048
0.0241928
0.0240317
0.0237676
0.0234628
0.023086
0.0226798
0.0222493
0.0217967
0.0213489
0.020887
0.0204329
0.0199814
0.0195393
0.0191128
0.0186968
0.0183035
0.0179241
0.0175646
0.0172223
0.0168983
0.0165928
0.0163041
0.0160337
0.0157793
0.0155423
0.0153206
0.0151155
0.0149252
0.014751
0.0145898
0.0144502
0.0143291
0.0141964
0.0140577
0.0139278
0.0138113
0.0137072
0.0136136
0.0135289
0.013452
0.0133822
0.0133188
0.0132615
0.0132096
0.0131631
0.0131212
0.0130841
0.0130509
0.013022
0.0129964
0.012974
0.0129547
0.0129397
0.0129277
0.0129187
0.0129118
0.012907
0.012904
0.0129018
0.0129017
0.0129024
0.0129035
0.0129059
0.0129084
0.0129112
0.0129112
0.0129191
0.0128975
0.0129745
0.0128379
0.00986188
0.052022
0.0463132
0.0377694
0.0323798
0.0293479
0.0278399
0.0272361
0.027111
0.0271938
0.0273208
0.0274195
0.0274503
0.0274293
0.0272947
0.0271055
0.0268275
0.0265013
0.0261308
0.0257189
0.0252968
0.0248443
0.0243855
0.023918
0.0234491
0.0229879
0.0225297
0.0220904
0.0216612
0.0212494
0.0208538
0.0204757
0.0201166
0.019775
0.019453
0.0191483
0.018863
0.0185949
0.0183455
0.018113
0.0178989
0.0177003
0.017525
0.0173771
0.0172252
0.0170661
0.0169133
0.0167731
0.0166463
0.0165316
0.0164274
0.0163326
0.0162464
0.016168
0.0160969
0.0160325
0.0159747
0.0159224
0.0158762
0.0158347
0.0157985
0.0157664
0.0157383
0.0157137
0.0156942
0.0156784
0.0156666
0.0156577
0.0156514
0.0156479
0.0156455
0.0156457
0.0156474
0.0156498
0.0156539
0.0156585
0.015664
0.0156661
0.0156777
0.0156557
0.0157412
0.0155845
0.0134086
0.0613938
0.0553041
0.0437856
0.0362612
0.0323044
0.0305145
0.0298991
0.029852
0.0300535
0.0303172
0.0305635
0.0307529
0.0308908
0.0309082
0.0308617
0.0307143
0.0305051
0.0302334
0.0299031
0.0295478
0.0291448
0.0287193
0.0282712
0.027808
0.0273405
0.0268649
0.0264003
0.0259386
0.0254884
0.0250502
0.0246262
0.0242192
0.0238283
0.0234567
0.0231025
0.0227685
0.0224524
0.0221565
0.021879
0.0216218
0.0213821
0.021167
0.0209879
0.0208142
0.0206341
0.0204583
0.0202936
0.0201425
0.0200045
0.0198786
0.0197636
0.0196588
0.0195631
0.0194763
0.0193973
0.0193263
0.019262
0.019205
0.0191537
0.0191089
0.0190693
0.0190343
0.0190033
0.0189782
0.0189576
0.018942
0.0189301
0.0189217
0.0189171
0.0189139
0.018914
0.0189164
0.0189196
0.0189251
0.0189316
0.0189393
0.0189429
0.0189576
0.0189342
0.0190262
0.0188413
0.0174106
0.0708273
0.0644033
0.0496004
0.039912
0.0351209
0.0330855
0.0324946
0.0325403
0.0328699
0.0332749
0.0336748
0.0340363
0.0343479
0.034535
0.0346522
0.0346609
0.0345995
0.034459
0.0342467
0.0339962
0.0336812
0.0333278
0.0329382
0.0325189
0.0320811
0.0316221
0.0311634
0.0306969
0.030233
0.0297735
0.0293219
0.0288825
0.0284551
0.0280442
0.0276486
0.027272
0.0269126
0.0265734
0.0262529
0.0259533
0.0256725
0.0254169
0.0252046
0.0250078
0.0248071
0.0246097
0.0244219
0.0242469
0.0240854
0.023937
0.0238006
0.023676
0.0235618
0.0234579
0.023363
0.0232776
0.0232
0.023131
0.0230689
0.0230145
0.0229663
0.0229238
0.0228855
0.0228538
0.0228274
0.022807
0.0227914
0.02278
0.0227734
0.0227687
0.0227682
0.0227705
0.022774
0.0227802
0.0227877
0.0227967
0.0228008
0.022817
0.0227905
0.0228857
0.0226703
0.0218616
0.080044
0.0729803
0.0551794
0.0431958
0.0377822
0.0355983
0.0350447
0.0351587
0.0355801
0.0361232
0.0366771
0.0372217
0.0377168
0.0380856
0.0383833
0.0385701
0.0386838
0.0387017
0.0386402
0.0385288
0.0383361
0.0380909
0.0377975
0.0374604
0.0370897
0.0366848
0.0362683
0.0358314
0.0353861
0.0349352
0.0344837
0.0340364
0.0335946
0.033164
0.0327441
0.0323396
0.0319495
0.0315775
0.0312228
0.030888
0.030572
0.0302804
0.0300372
0.0298187
0.0295999
0.0293846
0.0291774
0.028982
0.0287995
0.0286304
0.028474
0.0283304
0.0281981
0.0280775
0.0279668
0.0278669
0.0277759
0.0276949
0.0276217
0.0275575
0.0275006
0.0274504
0.0274045
0.027366
0.0273332
0.0273075
0.0272873
0.0272722
0.027263
0.0272562
0.0272542
0.0272557
0.0272587
0.0272647
0.0272721
0.0272812
0.0272842
0.0272997
0.027268
0.0273619
0.0271197
0.026735
0.0887001
0.0805419
0.0616488
0.0474011
0.0409465
0.0385509
0.0379476
0.0380347
0.0384495
0.0390267
0.0396466
0.0402893
0.0409034
0.041453
0.0419418
0.0423238
0.0426368
0.042835
0.0429557
0.0430156
0.0429762
0.0428726
0.0427118
0.0424932
0.0422258
0.041913
0.0415761
0.0412053
0.0408143
0.0404068
0.0399883
0.0395645
0.0391376
0.0387143
0.038295
0.0378853
0.0374852
0.0370989
0.0367264
0.0363711
0.0360326
0.0357163
0.0354505
0.035216
0.0349846
0.0347578
0.0345383
0.0343292
0.0341317
0.0339473
0.0337753
0.0336164
0.0334694
0.0333347
0.0332107
0.0330984
0.0329958
0.0329042
0.0328214
0.0327487
0.0326842
0.0326272
0.0325748
0.0325301
0.0324915
0.0324607
0.0324361
0.0324172
0.0324053
0.032396
0.0323922
0.0323925
0.0323943
0.0323993
0.0324057
0.0324136
0.032414
0.0324266
0.0323877
0.0324749
0.0322146
0.0320398
0.0963564
0.087078
0.0691618
0.0540915
0.0463174
0.0431928
0.0420839
0.0418463
0.04203
0.0424485
0.0429782
0.0435724
0.0441842
0.0447824
0.0453577
0.0458489
0.046323
0.0467071
0.0470414
0.0473008
0.0474395
0.047509
0.0475175
0.0474519
0.0473224
0.0471403
0.0469209
0.0466529
0.0463534
0.0460262
0.0456769
0.0453114
0.0449332
0.0445495
0.0441615
0.0437756
0.0433924
0.0430171
0.0426503
0.0422959
0.0419546
0.0416316
0.0413576
0.0411179
0.0408837
0.040655
0.0404332
0.0402204
0.0400176
0.0398267
0.0396472
0.0394805
0.0393252
0.0391825
0.0390504
0.0389306
0.0388207
0.0387226
0.0386338
0.0385558
0.0384867
0.0384259
0.0383695
0.0383211
0.0382788
0.0382446
0.0382171
0.0381957
0.0381819
0.038171
0.038166
0.0381654
0.0381662
0.0381703
0.0381755
0.0381816
0.0381787
0.0381871
0.0381403
0.0382156
0.0379497
0.0378155
0.102544
0.0931218
0.0774616
0.0630129
0.0545415
0.0502892
0.0481649
0.0472116
0.0468792
0.0469065
0.0471497
0.0475091
0.0479599
0.0484429
0.0489627
0.0494437
0.0499418
0.0503937
0.0508266
0.0512156
0.0515364
0.0518077
0.0520215
0.0521358
0.0521757
0.0521646
0.0520996
0.0519707
0.0518011
0.051593
0.051351
0.0510814
0.0507889
0.050481
0.0501591
0.0498305
0.0494963
0.0491626
0.0488305
0.0485045
0.0481862
0.0478806
0.0476187
0.0473896
0.0471666
0.0469493
0.0467383
0.046535
0.0463398
0.0461547
0.0459793
0.0458155
0.045662
0.0455206
0.0453891
0.0452697
0.04516
0.0450621
0.0449735
0.044896
0.0448277
0.0447681
0.0447126
0.0446651
0.0446233
0.0445896
0.0445625
0.0445417
0.0445289
0.0445188
0.0445148
0.0445154
0.044517
0.0445217
0.0445271
0.0445325
0.0445275
0.0445318
0.0444793
0.0445386
0.0442829
0.0440921
0.107165
0.0993097
0.0862234
0.0731421
0.0642658
0.0588007
0.0555695
0.0537947
0.0528596
0.0524125
0.0522688
0.0522866
0.0524645
0.0527094
0.0530454
0.0533936
0.0537831
0.0541763
0.0545801
0.0549795
0.0553532
0.0557108
0.0560311
0.056319
0.0565518
0.0567538
0.0568702
0.0569113
0.0569102
0.0568602
0.0567636
0.0566286
0.0564616
0.0562683
0.0560507
0.0558168
0.0555683
0.0553113
0.0550478
0.0547828
0.0545187
0.0542604
0.054036
0.0538382
0.0536452
0.0534567
0.0532729
0.0530951
0.0529234
0.0527595
0.0526031
0.0524564
0.0523182
0.0521906
0.0520716
0.0519638
0.0518647
0.0517768
0.0516977
0.0516293
0.0515698
0.0515189
0.0514717
0.0514321
0.0513974
0.0513706
0.0513499
0.0513352
0.0513284
0.0513239
0.0513255
0.0513314
0.0513379
0.051347
0.0513563
0.0513646
0.0513613
0.0513647
0.0513121
0.0513542
0.0511269
0.0508436
0.111539
0.105446
0.0949886
0.0833216
0.0733658
0.0665867
0.0626798
0.0604329
0.0591283
0.0583509
0.0578806
0.0575967
0.0575127
0.0575098
0.0576173
0.0577665
0.0579716
0.0582176
0.0584932
0.0587988
0.0591115
0.0594406
0.0597636
0.0600916
0.0604024
0.0607041
0.0609772
0.0612054
0.0614083
0.0615459
0.0616243
0.0616598
0.0616564
0.0616157
0.061541
0.0614408
0.0613168
0.061175
0.0610177
0.0608506
0.0606765
0.0605001
0.0603435
0.0602025
0.0600628
0.0599245
0.0597883
0.0596556
0.0595261
0.0594019
0.0592824
0.0591701
0.0590638
0.0589659
0.0588747
0.0587928
0.0587181
0.0586532
0.0585958
0.0585481
0.0585084
0.0584765
0.0584476
0.0584256
0.0584076
0.0583966
0.0583911
0.0583907
0.0583977
0.0584065
0.0584209
0.0584391
0.0584574
0.0584776
0.0584974
0.0585152
0.0585208
0.05853
0.0584871
0.0585155
0.0583352
0.0579683
0.116336
0.111632
0.103324
0.0933019
0.0837988
0.0761413
0.070437
0.0670415
0.0651288
0.0639788
0.0632929
0.062868
0.0626534
0.0624923
0.0624093
0.0623714
0.0623987
0.0624788
0.062588
0.0627413
0.0629192
0.0631347
0.0633725
0.0636387
0.0639217
0.0642191
0.064524
0.0648203
0.065116
0.0653917
0.0656462
0.0658759
0.0660616
0.0661978
0.0662957
0.0663629
0.0663981
0.0664069
0.0663926
0.0663606
0.0663138
0.0662562
0.0662005
0.0661446
0.0660847
0.0660217
0.0659567
0.0658915
0.0658261
0.0657627
0.0657007
0.0656428
0.065588
0.0655387
0.0654934
0.065455
0.0654214
0.0653956
0.0653752
0.0653628
0.0653567
0.0653572
0.0653596
0.0653676
0.0653786
0.0653953
0.0654164
0.0654416
0.0654732
0.0655059
0.0655435
0.065584
0.0656241
0.0656655
0.0657058
0.0657432
0.0657688
0.0657946
0.0657752
0.0658008
0.0656839
0.0652755
0.120471
0.117183
0.110865
0.102883
0.0947837
0.087553
0.0814554
0.076678
0.0730634
0.0706786
0.0693083
0.0684307
0.0678356
0.0673871
0.067119
0.0669553
0.0668881
0.0668365
0.0667849
0.0667735
0.0667911
0.0668542
0.0669554
0.0670962
0.0672729
0.0674789
0.0677148
0.0679701
0.068249
0.0685404
0.0688438
0.0691505
0.0694547
0.0697457
0.0700219
0.0702684
0.0704753
0.0706528
0.0708051
0.070935
0.0710442
0.0711365
0.0712107
0.0712658
0.0713106
0.0713471
0.0713768
0.0714019
0.071423
0.0714422
0.0714594
0.071477
0.0714945
0.0715141
0.0715348
0.0715591
0.0715856
0.0716168
0.0716511
0.0716907
0.0717344
0.0717828
0.0718318
0.0718849
0.0719395
0.0719983
0.0720601
0.0721248
0.0721944
0.0722644
0.0723383
0.0724142
0.0724892
0.0725651
0.0726393
0.0727102
0.0727704
0.0728281
0.07285
0.0728917
0.0728525
0.0724662
0.123927
0.121718
0.117295
0.111474
0.104993
0.0985698
0.0928403
0.0880179
0.0840359
0.0807977
0.0782455
0.076097
0.074422
0.0732128
0.0724801