/*--------------------------------*- C++ -*----------------------------------*\
| =========                 |                                                 |
| \\      /  F ield         | OpenFOAM: The Open Source CFD Toolbox           |
|  \\    /   O peration     | Version:  5.x                                   |
|   \\  /    A nd           | Web:      www.OpenFOAM.org                      |
|    \\/     M anipulation  |                                                 |
\*---------------------------------------------------------------------------*/
FoamFile
{
    version     2.0;
    format      ascii;
    class       volScalarField;
    location    "500";
    object      nuTilda;
}
// * * * * * * * * * * * * * * * * * * * * * * * * * * * * * * * * * * * * * //

dimensions      [0 2 -1 0 0 0 0];

internalField   nonuniform List<scalar> 
11040
(
0.00235769
0.00115776
0.000409195
0.000541804
0.000460685
0.000451152
0.000414023
0.000382205
0.000356337
0.000335355
0.000322003
0.000313982
0.000310578
0.000311194
0.000315268
0.000322867
0.000333856
0.000348081
0.00036489
0.000383316
0.000401978
0.000418951
0.000433433
0.000445837
0.000456567
0.000469121
0.000488431
0.000518415
0.000526728
0.000494419
0.000404373
0.000307343
0.000317503
0.000329243
0.000350828
0.000376147
0.000402618
0.000440118
0.000494549
0.000558197
0.000214942
0.0049808
0.00365877
0.00272998
0.00263957
0.00197318
0.0016288
0.00119339
0.000967745
0.000828715
0.000717837
0.000647316
0.000601472
0.000575461
0.000566141
0.00056757
0.000578312
0.000597774
0.000626625
0.000664022
0.000709488
0.000762623
0.000820473
0.000880551
0.000945162
0.00101408
0.00108591
0.00116159
0.00124121
0.00131806
0.00139245
0.00146284
0.00153393
0.00161751
0.00170757
0.00180007
0.00189584
0.00198801
0.00206565
0.00215636
0.00225755
0.00205151
0.0102439
0.00752422
0.00540258
0.00452298
0.00440754
0.00382835
0.0028688
0.00226749
0.00193314
0.00166016
0.00148205
0.00136375
0.0012913
0.00126175
0.0012601
0.00128715
0.00133774
0.00141076
0.00150518
0.00162049
0.00175494
0.00190069
0.0020512
0.00220906
0.00237169
0.00253679
0.00270372
0.00287195
0.00304013
0.00320939
0.0033806
0.00355939
0.00375155
0.00395798
0.00417545
0.00440312
0.00463848
0.00488168
0.00513784
0.00539652
0.00544222
0.017233
0.0129386
0.00932093
0.00701963
0.00625072
0.00615424
0.00547474
0.00432362
0.00368081
0.00313622
0.00276653
0.0025188
0.00235441
0.00228529
0.00227201
0.00231763
0.00241082
0.0025472
0.00272314
0.00293764
0.00318553
0.00345322
0.00372921
0.00401715
0.00431265
0.00461151
0.00491201
0.00521308
0.00551503
0.00582126
0.0061343
0.00645987
0.00680536
0.00717741
0.00757402
0.00799244
0.00843079
0.00889241
0.00937625
0.00987787
0.0102741
0.0251844
0.0204174
0.0150114
0.011103
0.0088119
0.00814587
0.0081763
0.00768562
0.0065755
0.00551233
0.004736
0.00425205
0.00390977
0.00375444
0.00369834
0.00374978
0.00388901
0.00410538
0.00438807
0.0047372
0.00514015
0.0055749
0.00602416
0.00649183
0.00697015
0.00745252
0.0079359
0.0084184
0.00890048
0.0093888
0.0098878
0.0104058
0.0109543
0.0115472
0.0121872
0.0128658
0.0135802
0.0143403
0.0151428
0.0160006
0.0168946
0.0338163
0.0292251
0.0229822
0.0175955
0.0134425
0.0110318
0.0103858
0.0105824
0.0103558
0.0094
0.00798013
0.00704303
0.00628724
0.00587992
0.00566838
0.00568833
0.00586512
0.00617818
0.006596
0.00712488
0.00773648
0.00839451
0.00907574
0.00978364
0.0105051
0.0112301
0.0119539
0.0126736
0.0133882
0.0141096
0.014845
0.0156069
0.0164131
0.0172882
0.0182417
0.0192588
0.0203385
0.0214976
0.0227355
0.0240929
0.0256476
0.0430048
0.0387755
0.0327113
0.0260965
0.0205481
0.0162206
0.0136617
0.0129781
0.0133336
0.0134194
0.0126978
0.0114593
0.0100435
0.00919465
0.0086163
0.00844217
0.00853472
0.00889792
0.00947081
0.0102316
0.0111197
0.0120698
0.0130541
0.0140758
0.0151134
0.0161514
0.0171827
0.0182042
0.0192094
0.0202195
0.0212456
0.0223059
0.023427
0.0246476
0.0259898
0.0274348
0.0289842
0.0306635
0.0324823
0.034514
0.0369198
0.0525764
0.0487625
0.0432944
0.0366748
0.0298178
0.024093
0.0195406
0.0167445
0.015929
0.0164074
0.0168446
0.0164921
0.0155278
0.0142717
0.0130771
0.0125273
0.0123736
0.0126766
0.0133174
0.0142707
0.0154667
0.0167901
0.0181617
0.0195862
0.0210279
0.0224623
0.0238776
0.0252743
0.0266322
0.0279882
0.0293589
0.0307709
0.0322614
0.0338862
0.0356933
0.0376618
0.0397972
0.0421377
0.0447106
0.0476223
0.0511011
0.0623109
0.0589576
0.0541651
0.0481884
0.0413444
0.0343351
0.0283765
0.0235061
0.0203496
0.0192712
0.0197862
0.0206219
0.0207739
0.0202889
0.0194515
0.0185514
0.0179238
0.0180184
0.0186313
0.0197458
0.0212547
0.0229963
0.0248357
0.0267347
0.0286494
0.0305441
0.032394
0.0341989
0.03597
0.0377255
0.0394874
0.0412941
0.0431968
0.0452704
0.0476053
0.0501884
0.0530291
0.0561838
0.0597053
0.0637267
0.0685242
0.0719658
0.0691049
0.064992
0.05982
0.0537121
0.0468111
0.0396889
0.0334721
0.0282124
0.0245751
0.0230719
0.0234754
0.0247037
0.0255693
0.0257736
0.0256615
0.0255215
0.0255515
0.0259916
0.0271843
0.0290077
0.0312177
0.0336236
0.0361004
0.0385839
0.0410312
0.0433926
0.0456608
0.0478656
0.0500323
0.0521873
0.0543856
0.0566985
0.0592232
0.0620945
0.0653501
0.0689978
0.0731122
0.0777832
0.0831644
0.0895472
0.0812992
0.0789222
0.0754826
0.0711131
0.0659064
0.0598694
0.05306
0.0459047
0.0394428
0.0337682
0.0295563
0.0274445
0.0275178
0.0290348
0.030759
0.0319988
0.0329839
0.034058
0.0354378
0.0371923
0.0393792
0.0420525
0.0451154
0.0482797
0.0514231
0.0545196
0.057474
0.06024
0.0628769
0.0654409
0.0679541
0.0704932
0.0731615
0.0760819
0.0794263
0.0833393
0.0878353
0.0930082
0.0989903
0.105945
0.114166
0.090066
0.088141
0.0853452
0.0817497
0.0774264
0.0723902
0.0665771
0.0599815
0.0529118
0.0462623
0.0402264
0.0354018
0.0325284
0.0320155
0.0335523
0.036142
0.0387964
0.0413671
0.0442319
0.0476066
0.0515544
0.0558081
0.0600422
0.0640929
0.0679507
0.0717651
0.0754062
0.0786731
0.0816698
0.0845588
0.0873202
0.0900467
0.0929099
0.0960555
0.0996878
0.104079
0.109315
0.115509
0.122827
0.131459
0.141699
0.0980712
0.0965508
0.0943353
0.0914591
0.0879644
0.0838758
0.079132
0.0736741
0.0674423
0.0606592
0.0536428
0.0473715
0.0420336
0.0383714
0.0370509
0.0382407
0.0414438
0.0457342
0.0504922
0.0558104
0.0619061
0.0685033
0.0751635
0.0816974
0.0878792
0.0934801
0.0981952
0.101982
0.105143
0.108228
0.111039
0.113622
0.116356
0.119384
0.122929
0.127344
0.13292
0.139795
0.148176
0.158281
0.17039
0.105192
0.104016
0.102299
0.100058
0.0973133
0.0940798
0.0903091
0.0859695
0.0809712
0.0752613
0.0688427
0.061962
0.0555155
0.0496977
0.045209
0.0428609
0.0432425
0.0464772
0.052165
0.0595456
0.068073
0.0772802
0.0866478
0.0959702
0.104976
0.113401
0.120998
0.127589
0.133037
0.13723
0.140093
0.142028
0.14416
0.146529
0.149286
0.153038
0.158078
0.164769
0.173348
0.184094
0.197379
0.111382
0.110484
0.109173
0.107455
0.105347
0.102857
0.0999421
0.0965714
0.0927007
0.0882666
0.0831911
0.0773722
0.070973
0.0642548
0.0581701
0.0530194
0.0495975
0.0487778
0.0512786
0.0574916
0.0672279
0.0790574
0.0914331
0.103854
0.115972
0.127491
0.138177
0.147845
0.156353
0.163574
0.169406
0.173786
0.176697
0.178204
0.179185
0.181518
0.184859
0.189861
0.196944
0.20627
0.218174
0.116665
0.115984
0.114992
0.113688
0.112087
0.110199
0.107992
0.10544
0.102512
0.0991697
0.0953602
0.0909833
0.0859307
0.0802633
0.0739344
0.0677595
0.0620835
0.0576124
0.0553095
0.0562812
0.0616666
0.0717917
0.0855441
0.101091
0.1168
0.131916
0.146122
0.159208
0.171027
0.181485
0.19052
0.19808
0.204145
0.208724
0.211854
0.213638
0.214436
0.216647
0.220447
0.225946
0.233494
0.121117
0.120606
0.119859
0.118873
0.117663
0.11624
0.114585
0.112678
0.110502
0.10803
0.105228
0.102041
0.0983837
0.0941817
0.0894791
0.0842323
0.0781307
0.0722507
0.0670159
0.0632718
0.0622364
0.0652235
0.0730363
0.0857914
0.102431
0.120904
0.139294
0.15659
0.172453
0.186774
0.199513
0.210666
0.220243
0.228294
0.234867
0.240014
0.24383
0.246483
0.24807
0.249063
0.251953
0.124672
0.12429
0.123714
0.122954
0.122022
0.120932
0.119672
0.118239
0.116611
0.114776
0.112715
0.110391
0.107759
0.10476
0.101355
0.0975246
0.0932535
0.0883077
0.0824531
0.0768678
0.0720946
0.069218
0.0693802
0.0736277
0.0827455
0.0967631
0.11465
0.134536
0.15452
0.173378
0.190613
0.206115
0.219897
0.232037
0.242592
0.251608
0.259168
0.265426
0.270497
0.274541
0.277841
0.127398
0.127094
0.126639
0.126038
0.125311
0.124454
0.123468
0.122355
0.121101
0.1197
0.118142
0.116404
0.11446
0.112274
0.109806
0.10702
0.103898
0.100591
0.096595
0.0918539
0.0862259
0.0811045
0.0771338
0.0750622
0.0758477
0.080464
0.0896012
0.103316
0.12084
0.140717
0.161283
0.181211
0.199747
0.216635
0.231821
0.245305
0.257132
0.267446
0.27632
0.283818
0.290063
0.129519
0.129271
0.128901
0.128417
0.127831
0.127141
0.126357
0.12547
0.124481
0.123379
0.122163
0.120821
0.119337
0.117691
0.115857
0.113803
0.111496
0.108969
0.106315
0.103295
0.0994936
0.0950883
0.0901942
0.0858051
0.0823866
0.0806205
0.0813248
0.0853217
0.0932312
0.105247
0.120996
0.139561
0.159683
0.18013
0.199909
0.218365
0.23518
0.250365
0.263908
0.275816
0.286171
0.131206
0.130999
0.130695
0.130302
0.12982
0.129255
0.128613
0.127891
0.12709
0.126209
0.125238
0.124174
0.123009
0.121731
0.120326
0.118773
0.117046
0.115122
0.113044
0.11079
0.108465
0.105767
0.102532
0.0988428
0.0948777
0.0910194
0.0878686
0.0859882
0.086027
0.0886545
0.0944475
0.103756
0.116589
0.132599
0.151048
0.170899
0.191056
0.210735
0.229302
0.246342
0.261715
0.132573
0.132401
0.132148
0.131821
0.131421
0.130955
0.130422
0.129828
0.129168
0.128444
0.127656
0.126798
0.125862
0.124844
0.123736
0.122531
0.12121
0.119751
0.118139
0.116371
0.114502
0.112644
0.110746
0.108567
0.106001
0.103044
0.0998149
0.0964786
0.0934942
0.0913326
0.0904785
0.0914579
0.0947866
0.100918
0.110142
0.122478
0.137622
0.155094
0.174073
0.193583
0.212756
0.133703
0.133557
0.13335
0.133074
0.132739
0.132346
0.131902
0.131403
0.130854
0.130254
0.129601
0.128895
0.128132
0.127308
0.126419
0.125458
0.124419
0.123288
0.12205
0.120687
0.119194
0.117651
0.116124
0.114695
0.113215
0.111542
0.109596
0.107329
0.104785
0.102079
0.099379
0.0970007
0.0953645
0.0948559
0.0959012
0.0989219
0.104272
0.11225
0.122926
0.136099
0.151249
0.134648
0.134527
0.134352
0.134119
0.133836
0.133506
0.133128
0.132707
0.132242
0.131737
0.131191
0.130604
0.129974
0.129297
0.12857
0.12779
0.126954
0.126056
0.125087
0.124033
0.122883
0.121658
0.120402
0.119157
0.117938
0.116824
0.115702
0.114473
0.113066
0.111436
0.109567
0.107487
0.105284
0.103088
0.10105
0.0995381
0.0988704
0.0993639
0.101351
0.105125
0.11092
0.135451
0.135351
0.135204
0.135008
0.134769
0.134485
0.134163
0.133802
0.133406
0.132977
0.132516
0.13202
0.13149
0.130925
0.130324
0.129684
0.129002
0.128276
0.127501
0.12667
0.125775
0.124828
0.123846
0.122833
0.121805
0.120799
0.119829
0.118943
0.118096
0.117212
0.116238
0.11513
0.113861
0.112411
0.110783
0.109028
0.107238
0.105515
0.104016
0.102964
0.10265
0.13614
0.13606
0.135937
0.135769
0.135562
0.135319
0.135041
0.134731
0.134392
0.134026
0.133631
0.133208
0.132759
0.132283
0.13178
0.131247
0.130684
0.130087
0.129455
0.128785
0.128073
0.12733
0.126568
0.125782
0.124973
0.124148
0.123318
0.122508
0.121732
0.121
0.120342
0.119698
0.11903
0.118303
0.11749
0.116567
0.115521
0.114338
0.113032
0.111639
0.110179
0.13674
0.136676
0.136572
0.136428
0.136249
0.136038
0.135797
0.13553
0.135238
0.134922
0.134582
0.13422
0.133837
0.133432
0.133005
0.132556
0.132084
0.131588
0.131067
0.130519
0.129942
0.129345
0.128741
0.128128
0.127506
0.126877
0.126231
0.125571
0.124903
0.124243
0.12361
0.123013
0.122472
0.121968
0.12148
0.120988
0.120472
0.119911
0.119289
0.118593
0.11778
0.137265
0.137214
0.137127
0.137004
0.13685
0.136666
0.136457
0.136223
0.135968
0.135692
0.135398
0.135086
0.134756
0.13441
0.134045
0.133663
0.133265
0.132849
0.132414
0.131961
0.131486
0.130999
0.13051
0.130025
0.129547
0.129076
0.128605
0.128124
0.127632
0.127127
0.126612
0.12609
0.12557
0.125062
0.12458
0.124132
0.12372
0.123332
0.122957
0.122586
0.12219
0.137726
0.137687
0.137616
0.137513
0.137382
0.137224
0.137042
0.136838
0.136613
0.136371
0.136112
0.135838
0.135551
0.13525
0.134936
0.134609
0.13427
0.133918
0.133552
0.133172
0.132778
0.132377
0.13198
0.131593
0.131215
0.130846
0.130482
0.13012
0.129756
0.129388
0.129012
0.128627
0.128232
0.12783
0.127422
0.127015
0.126611
0.126214
0.125833
0.125476
0.125116
0.138134
0.138107
0.138053
0.137971
0.137862
0.137727
0.13757
0.137391
0.137193
0.136979
0.13675
0.136508
0.136254
0.135989
0.135714
0.13543
0.135136
0.134834
0.134523
0.134203
0.133874
0.133544
0.133221
0.132907
0.132601
0.132301
0.132006
0.131716
0.131428
0.131142
0.130855
0.130567
0.130276
0.12998
0.129678
0.129368
0.129052
0.128729
0.1284
0.128072
0.127729
0.138496
0.138484
0.13845
0.138389
0.138301
0.138188
0.138052
0.137896
0.137722
0.137532
0.137329
0.137113
0.136887
0.136652
0.136409
0.136158
0.135901
0.135637
0.135368
0.135094
0.134818
0.134544
0.134278
0.134019
0.133767
0.133518
0.133273
0.133032
0.132792
0.132555
0.132319
0.132084
0.13185
0.131614
0.131377
0.131136
0.130892
0.130643
0.130388
0.13013
0.129861
0.138822
0.138829
0.138816
0.138776
0.138708
0.138614
0.138497
0.138361
0.138208
0.138039
0.137858
0.137666
0.137465
0.137255
0.137038
0.136816
0.136588
0.136356
0.136122
0.135885
0.135653
0.135422
0.135198
0.134979
0.134764
0.134553
0.134344
0.134138
0.133932
0.133728
0.133524
0.13332
0.133116
0.132911
0.132706
0.1325
0.132295
0.132091
0.131892
0.131699
0.131524
0.139119
0.139151
0.139158
0.139136
0.139086
0.139011
0.138914
0.138797
0.138664
0.138515
0.138353
0.138181
0.138
0.137811
0.137617
0.137419
0.137217
0.137014
0.136811
0.136608
0.13641
0.136212
0.136018
0.135828
0.13564
0.135454
0.13527
0.135087
0.134905
0.134722
0.134539
0.134356
0.134172
0.133989
0.13381
0.133638
0.133474
0.133314
0.13316
0.133013
0.132904
0.139397
0.139452
0.139476
0.13947
0.13944
0.139389
0.139317
0.139226
0.139115
0.138987
0.138845
0.138692
0.138529
0.138358
0.138183
0.138006
0.137827
0.137647
0.137469
0.137291
0.137117
0.136942
0.13677
0.136599
0.13643
0.136261
0.136093
0.135925
0.135756
0.135587
0.135419
0.135252
0.135091
0.134938
0.134791
0.13465
0.134515
0.134384
0.13426
0.134149
0.134085
0.139656
0.139727
0.139763
0.139776
0.139771
0.13975
0.139713
0.139661
0.139592
0.139506
0.139402
0.139281
0.139145
0.138996
0.138837
0.138672
0.138502
0.138331
0.138159
0.137989
0.137822
0.137656
0.137493
0.137332
0.137171
0.137011
0.13685
0.136689
0.136526
0.136366
0.136212
0.136066
0.135928
0.135797
0.135671
0.13555
0.135435
0.135328
0.135239
0.135174
0.135143
0.139874
0.139954
0.139996
0.140019
0.140028
0.140026
0.140013
0.13999
0.139957
0.139913
0.139856
0.139784
0.139697
0.139594
0.139476
0.139346
0.139204
0.139053
0.138895
0.138734
0.138572
0.138409
0.138247
0.138085
0.137924
0.137761
0.137597
0.137431
0.137268
0.137112
0.136967
0.136832
0.136705
0.136585
0.136472
0.136365
0.136269
0.136194
0.136143
0.136103
0.136081
0.140026
0.140091
0.140127
0.140149
0.140162
0.140169
0.140169
0.140163
0.14015
0.140131
0.140105
0.140072
0.14003
0.139978
0.139915
0.13984
0.139752
0.139652
0.139539
0.139417
0.139286
0.139147
0.139003
0.138855
0.138702
0.138542
0.138375
0.138203
0.138033
0.137875
0.137729
0.137592
0.137466
0.137348
0.137238
0.137141
0.13707
0.137016
0.136973
0.136937
0.136918
0.140122
0.140167
0.140198
0.140222
0.140241
0.140254
0.140263
0.140268
0.140267
0.140262
0.140252
0.140237
0.140217
0.140193
0.140164
0.140128
0.140085
0.140033
0.139973
0.139902
0.139823
0.139732
0.139632
0.139524
0.139406
0.139276
0.139131
0.13897
0.138807
0.138651
0.138504
0.138366
0.138237
0.138116
0.138007
0.137924
0.137859
0.137805
0.137759
0.137719
0.137695
0.140171
0.140211
0.140242
0.140269
0.140292
0.140312
0.140328
0.14034
0.140348
0.140352
0.140352
0.140348
0.14034
0.140329
0.140315
0.140298
0.140277
0.140252
0.140223
0.14019
0.14015
0.140104
0.14005
0.139988
0.139918
0.139837
0.139739
0.139618
0.139485
0.139352
0.139221
0.139095
0.138973
0.138859
0.138763
0.138687
0.138621
0.138563
0.138513
0.138468
0.138437
0.140199
0.140236
0.140269
0.140299
0.140327
0.140351
0.140373
0.140392
0.140407
0.140418
0.140426
0.140431
0.140432
0.14043
0.140424
0.140417
0.140406
0.140393
0.140379
0.140361
0.140342
0.14032
0.140293
0.140263
0.140227
0.140187
0.140136
0.140066
0.139975
0.139879
0.13978
0.139682
0.139583
0.139492
0.139418
0.139354
0.139295
0.139242
0.139193
0.139149
0.139116
0.140212
0.140249
0.140283
0.140316
0.140348
0.140378
0.140405
0.14043
0.140451
0.14047
0.140484
0.140496
0.140504
0.140509
0.140511
0.14051
0.140507
0.140502
0.140494
0.140485
0.140474
0.140461
0.140447
0.14043
0.140412
0.14039
0.140366
0.140333
0.140282
0.140218
0.140152
0.140084
0.140014
0.139952
0.139903
0.139857
0.139815
0.139775
0.139737
0.139701
0.139675
0.140214
0.140251
0.140287
0.140323
0.140359
0.140393
0.140426
0.140457
0.140485
0.140509
0.140531
0.140549
0.140563
0.140574
0.140583
0.140588
0.140591
0.140592
0.14059
0.140586
0.140581
0.140574
0.140565
0.140554
0.140542
0.140529
0.140514
0.140497
0.140472
0.140431
0.140386
0.140339
0.140291
0.140251
0.140221
0.140193
0.140167
0.140142
0.140119
0.140096
0.14008
0.140207
0.140243
0.140281
0.140319
0.140359
0.140399
0.140437
0.140474
0.140509
0.14054
0.140568
0.140592
0.140613
0.14063
0.140644
0.140655
0.140664
0.140669
0.140673
0.140674
0.140674
0.140671
0.140666
0.14066
0.140652
0.140643
0.140632
0.140619
0.140605
0.140584
0.14055
0.140515
0.140479
0.14045
0.140429
0.140412
0.140397
0.140383
0.140369
0.140357
0.140351
0.140191
0.140227
0.140265
0.140306
0.140349
0.140394
0.140439
0.140483
0.140525
0.140563
0.140599
0.14063
0.140657
0.140681
0.140701
0.140717
0.14073
0.140741
0.140749
0.140754
0.140758
0.140759
0.140759
0.140756
0.140752
0.140745
0.140738
0.140728
0.140718
0.140706
0.140686
0.140657
0.140627
0.1406
0.140584
0.140571
0.14056
0.140551
0.140543
0.140535
0.140534
0.140167
0.1402
0.140238
0.140279
0.140326
0.140376
0.140429
0.140482
0.140533
0.140581
0.140626
0.140665
0.140701
0.140731
0.140757
0.140779
0.140797
0.140812
0.140823
0.140832
0.140839
0.140844
0.140846
0.140847
0.140845
0.140842
0.140838
0.140831
0.140823
0.140814
0.140803
0.140785
0.14076
0.140735
0.140719
0.140707
0.140698
0.14069
0.140683
0.140677
0.140678
0.140134
0.140163
0.140197
0.140237
0.140285
0.140339
0.1404
0.140464
0.14053
0.140593
0.140651
0.140703
0.140749
0.140789
0.140823
0.140851
0.140874
0.140892
0.140906
0.140917
0.140925
0.14093
0.140933
0.140934
0.140932
0.14093
0.140925
0.140919
0.140912
0.140903
0.140894
0.140881
0.140861
0.140838
0.140823
0.140812
0.140803
0.140796
0.14079
0.140786
0.140786
0.140089
0.140111
0.140137
0.140171
0.140214
0.140266
0.14033
0.140406
0.14049
0.14058
0.140665
0.140744
0.140814
0.140876
0.14093
0.140976
0.141015
0.141046
0.141072
0.141092
0.141106
0.141117
0.141124
0.141127
0.141127
0.141125
0.141121
0.141116
0.141108
0.141099
0.141089
0.141078
0.141065
0.141051
0.141035
0.141014
0.140993
0.140978
0.140966
0.140956
0.140952
0.140033
0.140041
0.140053
0.140069
0.140092
0.140122
0.140164
0.140222
0.140301
0.140403
0.140562
0.140642
0.1407
0.140753
0.140804
0.140854
0.140901
0.140946
0.140987
0.141024
0.141056
0.141084
0.141108
0.141127
0.141142
0.141154
0.141162
0.141167
0.141169
0.141168
0.141165
0.14116
0.141153
0.141142
0.141126
0.141113
0.141102
0.141093
0.141085
0.141078
0.141074
0.0134126
0.0418079
0.0786511
0.111378
0.134743
0.150259
0.161605
0.172028
0.183409
0.196095
0.209243
0.221663
0.232382
0.240883
0.247076
0.25114
0.253363
0.254047
0.25347
0.251873
0.249466
0.246431
0.242931
0.239111
0.235097
0.231005
0.22693
0.22295
0.219128
0.215508
0.212117
0.208966
0.206043
0.203327
0.200789
0.198401
0.196136
0.193969
0.191886
0.189875
0.187933
0.18606
0.184255
0.182518
0.180849
0.179251
0.177726
0.176275
0.174897
0.173592
0.172358
0.171193
0.170096
0.169063
0.16809
0.167178
0.166326
0.165537
0.164817
0.164173
0.163612
0.163147
0.162788
0.162545
0.162427
0.162438
0.162586
0.162865
0.16328
0.163816
0.164517
0.165292
0.165675
0.163557
0.0164203
0.0462224
0.0837365
0.116539
0.139762
0.155092
0.166217
0.176419
0.187672
0.200321
0.213414
0.225676
0.236134
0.244325
0.250213
0.254007
0.256006
0.256513
0.255797
0.254094
0.251609
0.248517
0.244978
0.241131
0.237104
0.233006
0.228931
0.224956
0.22114
0.217526
0.21414
0.210989
0.20806
0.205331
0.202769
0.200346
0.198034
0.195809
0.193655
0.191566
0.189538
0.187575
0.185676
0.183846
0.182087
0.180401
0.178795
0.177269
0.175823
0.174455
0.173166
0.171951
0.170809
0.169733
0.168721
0.167771
0.166882
0.166058
0.165302
0.164622
0.164028
0.16353
0.16314
0.162869
0.162728
0.162718
0.162846
0.163107
0.1635
0.164008
0.164659
0.165344
0.165582
0.16332
0.0200148
0.0512311
0.0895885
0.122584
0.145794
0.161033
0.171932
0.181777
0.192662
0.205014
0.217832
0.229788
0.239913
0.247778
0.253378
0.256934
0.258747
0.25911
0.258286
0.256505
0.253962
0.250832
0.24727
0.243412
0.239384
0.235293
0.231231
0.227273
0.223477
0.219884
0.216517
0.213381
0.210462
0.207732
0.20516
0.202712
0.200362
0.198083
0.195862
0.193691
0.191572
0.189509
0.187507
0.18557
0.183705
0.181917
0.180213
0.178596
0.177067
0.175624
0.174266
0.17299
0.17179
0.170662
0.169599
0.168599
0.167661
0.166786
0.165978
0.165244
0.164594
0.164041
0.163596
0.163274
0.163085
0.163033
0.163124
0.16335
0.163707
0.164174
0.164768
0.165362
0.165462
0.163074
0.0253312
0.0571183
0.0964377
0.129652
0.152884
0.168081
0.178746
0.188121
0.19842
0.210217
0.222542
0.234048
0.243768
0.25129
0.256617
0.259968
0.261629
0.261883
0.260982
0.259148
0.256573
0.253425
0.249857
0.246005
0.241991
0.237922
0.233888
0.229963
0.226203
0.222646
0.219314
0.21621
0.213315
0.210601
0.208031
0.205571
0.203191
0.200865
0.198577
0.196323
0.194105
0.191931
0.189809
0.187749
0.185759
0.183848
0.182026
0.180299
0.178669
0.177133
0.175691
0.174338
0.173069
0.171874
0.170749
0.169687
0.168686
0.167745
0.166868
0.166061
0.165334
0.164701
0.164177
0.163777
0.163515
0.163397
0.163429
0.163602
0.16391
0.164327
0.164855
0.165358
0.16533
0.16283
0.0324567
0.0642794
0.104585
0.137892
0.161069
0.176207
0.186625
0.195451
0.204985
0.215992
0.227611
0.238521
0.247762
0.25492
0.259986
0.263157
0.264699
0.264877
0.263931
0.262072
0.259488
0.256344
0.25279
0.248961
0.244979
0.240948
0.236959
0.233083
0.229375
0.225871
0.222592
0.219536
0.216683
0.214
0.211448
0.208988
0.206588
0.204219
0.201866
0.199525
0.1972
0.194902
0.192645
0.19044
0.188302
0.186244
0.18428
0.182418
0.180663
0.179013
0.177467
0.176021
0.174666
0.173392
0.172191
0.171055
0.169978
0.168958
0.167995
0.167096
0.166271
0.165534
0.164904
0.164398
0.164036
0.163826
0.163775
0.163876
0.164118
0.164473
0.164931
0.165343
0.165197
0.162599
0.0417103
0.0734826
0.114389
0.147452
0.170371
0.185362
0.195506
0.203739
0.212385
0.222407
0.233124
0.243293
0.251973
0.258737
0.263544
0.266557
0.268009
0.268142
0.267179
0.265324
0.262756
0.259639
0.25612
0.252334
0.248401
0.244426
0.240499
0.23669
0.233051
0.229618
0.226409
0.223419
0.220624
0.217989
0.215469
0.213022
0.210611
0.208207
0.205792
0.20336
0.200919
0.198484
0.196071
0.193699
0.191387
0.189153
0.187016
0.18499
0.183081
0.181291
0.179619
0.178058
0.176599
0.175231
0.173942
0.172719
0.171555
0.170443
0.169382
0.168375
0.167431
0.166567
0.165802
0.165162
0.164668
0.164337
0.164177
0.164183
0.164342
0.164624
0.165004
0.165326
0.165072
0.162388
0.0535256
0.0855385
0.126193
0.158455
0.180791
0.195473
0.205291
0.212921
0.220621
0.229523
0.239171
0.248462
0.256496
0.262825
0.267366
0.270231
0.271615
0.271729
0.270778
0.268952
0.266426
0.26336
0.259898
0.256175
0.252312
0.248412
0.244564
0.240838
0.237286
0.233941
0.230818
0.227911
0.225191
0.222619
0.220146
0.217725
0.215315
0.212882
0.210407
0.207883
0.205318
0.202731
0.200143
0.197578
0.195062
0.192619
0.190275
0.188049
0.185954
0.183993
0.182165
0.180465
0.178882
0.177403
0.17601
0.174691
0.17343
0.172217
0.171046
0.169917
0.168839
0.167825
0.166901
0.166096
0.165438
0.164952
0.164653
0.164538
0.164594
0.164788
0.165084
0.165316
0.164962
0.162202
0.0683513
0.100789
0.14022
0.170955
0.192286
0.206439
0.215853
0.222886
0.229651
0.237372
0.245839
0.254137
0.261437
0.267281
0.271534
0.274251
0.275579
0.275694
0.274778
0.273008
0.270549
0.267558
0.264176
0.260538
0.256764
0.252957
0.249206
0.245581
0.242132
0.238891
0.23587
0.233059
0.230429
0.227934
0.225521
0.223139
0.22074
0.218287
0.215756
0.213139
0.210444
0.207692
0.204909
0.202125
0.199373
0.196686
0.194096
0.19163
0.189309
0.187139
0.185121
0.183253
0.181522
0.179911
0.178401
0.176973
0.175607
0.174287
0.173001
0.171743
0.170518
0.169338
0.168231
0.16723
0.166374
0.165697
0.165223
0.164958
0.164886
0.164975
0.165179
0.165319
0.164873
0.162044
0.0865806
0.119436
0.156489
0.184878
0.204743
0.218108
0.22702
0.233478
0.239376
0.245942
0.253183
0.260411
0.266904
0.272208
0.276139
0.278694
0.279967
0.280095
0.279234
0.277541
0.275174
0.272282
0.269005
0.265474
0.261809
0.258115
0.254479
0.25097
0.247638
0.244514
0.241607
0.238905
0.236376
0.23397
0.231629
0.229296
0.226919
0.224453
0.221872
0.219163
0.216334
0.213406
0.21041
0.207381
0.204361
0.201391
0.198513
0.195764
0.193171
0.190748
0.188502
0.18643
0.18452
0.182755
0.181111
0.179563
0.178086
0.176657
0.175254
0.173866
0.172488
0.171132
0.169822
0.168599
0.167511
0.166604
0.165916
0.165463
0.165234
0.165197
0.165296
0.165342
0.16481
0.161915
0.108467
0.141364
0.174672
0.199959
0.217933
0.23026
0.238566
0.244482
0.249632
0.255149
0.26121
0.267351
0.27299
0.277702
0.281272
0.28364
0.284847
0.284991
0.284195
0.2826
0.280347
0.277578
0.274429
0.271029
0.267496
0.263933
0.260428
0.257051
0.253848
0.250851
0.248067
0.245483
0.243062
0.240752
0.238491
0.236216
0.233868
0.231398
0.228772
0.225974
0.223009
0.219897
0.216671
0.213375
0.210056
0.206766
0.203557
0.200476
0.197562
0.194838
0.192316
0.189998
0.187875
0.185927
0.184128
0.182449
0.180856
0.179317
0.177803
0.17629
0.174764
0.173229
0.171707
0.170239
0.168885
0.167708
0.166761
0.166078
0.165657
0.165468
0.165446
0.165391
0.164776
0.161818
0.133921
0.165463
0.193972
0.215688
0.231479
0.242574
0.250195
0.255622
0.260179
0.264832
0.269845
0.274959
0.279744
0.283836
0.287005
0.289154
0.290277
0.290429
0.289706
0.288222
0.286104
0.283483
0.280488
0.277243
0.273864
0.270453
0.267097
0.263863
0.2608
0.257938
0.255282
0.252818
0.250507
0.248295
0.246117
0.243903
0.241588
0.239119
0.236454
0.23357
0.230468
0.227167
0.2237
0.220117
0.216472
0.212826
0.209243
0.205782
0.202495
0.199416
0.196567
0.193956
0.191577
0.189412
0.187434
0.185607
0.183893
0.182249
0.180633
0.179009
0.177349
0.175645
0.17391
0.172185
0.170538
0.16905
0.167797
0.166836
0.166178
0.165802
0.165639
0.165474
0.164775
0.161751
0.162238
0.189867
0.213224
0.231308
0.244828
0.25461
0.261538
0.266569
0.270717
0.274737
0.278914
0.283141
0.287137
0.290615
0.293365
0.295267
0.296283
0.296434
0.295784
0.294424
0.292462
0.290015
0.287201
0.284139
0.28094
0.277702
0.274512
0.271435
0.26852
0.265795
0.263268
0.260921
0.258717
0.256598
0.254497
0.252341
0.250059
0.247591
0.244888
0.24192
0.238682
0.235188
0.231473
0.227588
0.223594
0.219562
0.215567
0.211681
0.207969
0.204481
0.201248
0.198291
0.195609
0.193187
0.190999
0.189007
0.187164
0.185418
0.183715
0.182002
0.180234
0.178384
0.176451
0.174468
0.17251
0.170675
0.169066
0.167771
0.166826
0.166221
0.165888
0.165597
0.164809
0.161715
0.189884
0.212464
0.231104
0.245884
0.257282
0.265841
0.27217
0.276946
0.280886
0.28453
0.288131
0.291679
0.295015
0.29794
0.300284
0.301931
0.302828
0.302972
0.302401
0.301181
0.2994
0.297157
0.294558
0.291712
0.288722
0.285684
0.282679
0.279773
0.277013
0.274428
0.272025
0.269789
0.267679
0.265641
0.263605
0.261494
0.259235
0.256761
0.254016
0.250962
0.247585
0.243895
0.239925
0.235727
0.231368
0.226927
0.222488
0.218138
0.213956
0.210006
0.206336
0.202977
0.19994
0.197217
0.194783
0.1926
0.190618
0.188774
0.187002
0.185229
0.18339
0.181433
0.179335
0.177113
0.174839
0.172629
0.170616
0.168928
0.167635
0.166749
0.166209
0.16577
0.164882
0.161709
0.213773
0.231544
0.246361
0.258442
0.268098
0.275691
0.281623
0.286332
0.290272
0.293794
0.297091
0.300202
0.303059
0.305545
0.307545
0.308968
0.309765
0.30992
0.309451
0.308402
0.306838
0.304839
0.302498
0.299908
0.297166
0.29436
0.291566
0.288848
0.286253
0.283809
0.281525
0.279387
0.277356
0.275378
0.273385
0.271299
0.269043
0.266546
0.263745
0.260593
0.257068
0.253175
0.248941
0.244421
0.239685
0.234817
0.229913
0.225069
0.22038
0.215927
0.211771
0.20796
0.204518
0.201446
0.198727
0.196326
0.19419
0.192251
0.190428
0.188631
0.186769
0.18476
0.182549
0.180128
0.177556
0.174958
0.172499
0.170356
0.168646
0.167415
0.16662
0.166003
0.164997
0.161733
0.231825
0.245987
0.258042
0.268165
0.276602
0.283615
0.289443
0.294307
0.29844
0.302047
0.30527
0.308171
0.310746
0.31295
0.314723
0.316014
0.316786
0.31702
0.316718
0.315902
0.314616
0.312922
0.310894
0.308615
0.30617
0.303638
0.301089
0.298583
0.296167
0.29387
0.291701
0.289649
0.287678
0.285737
0.283759
0.281667
0.279384
0.276835
0.273951
0.270677
0.266985
0.26287
0.258356
0.253499
0.248373
0.243065
0.237679
0.232324
0.227106
0.22212
0.217446
0.213144
0.209254
0.205791
0.202749
0.2001
0.197794
0.195759
0.193904
0.192122
0.190295
0.188305
0.186057
0.183503
0.180675
0.177698
0.174766
0.17211
0.169908
0.168258
0.167146
0.166308
0.165159
0.161785
0.24404
0.255779
0.265899
0.27468
0.282416
0.28932
0.295403
0.300613
0.305023
0.308784
0.312038
0.31488
0.317351
0.319454
0.321182
0.322522
0.323443
0.323911
0.323906
0.323431
0.322514
0.321204
0.319563
0.317661
0.315571
0.313364
0.311102
0.308841
0.306629
0.304494
0.302446
0.300477
0.298552
0.296624
0.294632
0.292499
0.290151
0.287511
0.284504
0.281068
0.277169
0.272794
0.267968
0.262744
0.2572
0.251432
0.245549
0.23967
0.233914
0.228387
0.22318
0.218368
0.214004
0.210122
0.206729
0.203807
0.201315
0.199185
0.197317
0.195592
0.193865
0.191979
0.189791
0.187198
0.18419
0.180874
0.177463
0.174244
0.171474
0.169319
0.167817
0.166703
0.165373
0.161865
0.257621
0.264997
0.272176
0.279244
0.286351
0.293688
0.300335
0.305706
0.310017
0.313636
0.316797
0.319606
0.322109
0.324332
0.326303
0.328045
0.329441
0.330395
0.330865
0.330858