/*--------------------------------*- C++ -*----------------------------------*\
| =========                 |                                                 |
| \\      /  F ield         | OpenFOAM: The Open Source CFD Toolbox           |
|  \\    /   O peration     | Version:  5.x                                   |
|   \\  /    A nd           | Web:      www.OpenFOAM.org                      |
|    \\/     M anipulation  |                                                 |
\*---------------------------------------------------------------------------*/
FoamFile
{
    version     2.0;
    format      ascii;
    class       volScalarField;
    location    "500";
    object      nuTilda;
}
// * * * * * * * * * * * * * * * * * * * * * * * * * * * * * * * * * * * * * //

dimensions      [0 2 -1 0 0 0 0];

internalField   nonuniform List<scalar> 
11040
(
0.0023596
0.00283652
0.00306842
0.00311728
0.00302675
0.00287136
0.0027006
0.00256109
0.0024401
0.00230991
0.00213614
0.00196199
0.00182911
0.00173459
0.00164482
0.00155596
0.00146805
0.0013838
0.00130304
0.00122418
0.00114552
0.00107528
0.00101235
0.000949417
0.000885505
0.000819565
0.000748314
0.000646832
0.000472769
0.000412456
0.000366215
0.000334427
0.000308505
0.000280968
0.000255936
0.000239136
0.000246934
0.000295206
0.000349039
0.000388857
0.000566217
0.00622311
0.00666412
0.00607901
0.00547981
0.00488154
0.00436553
0.00392151
0.0038251
0.00382606
0.00378974
0.00369209
0.0035456
0.00342502
0.00330612
0.00316239
0.00301455
0.00287721
0.00275373
0.00264264
0.00254168
0.00244934
0.00237226
0.00230523
0.00224231
0.00218319
0.0021266
0.0020697
0.0019991
0.00188625
0.0018019
0.00173951
0.0017112
0.00162437
0.00152319
0.00138637
0.001269
0.00122919
0.00132451
0.00151092
0.00182727
0.00245586
0.012811
0.0134938
0.0126675
0.0116317
0.0104874
0.00935364
0.00830968
0.00738145
0.0065852
0.00589766
0.00526246
0.00474414
0.00463098
0.00459101
0.00452787
0.00445456
0.00437368
0.0042905
0.00421055
0.00413637
0.00406795
0.00401291
0.00396336
0.00391337
0.00386295
0.00381215
0.00376006
0.00370306
0.00363419
0.00356981
0.00351121
0.00346453
0.00340716
0.00334635
0.00323877
0.00306491
0.00301828
0.00323952
0.00353254
0.00387401
0.00470546
0.0204956
0.0212626
0.0203587
0.0189958
0.0174077
0.015774
0.0141982
0.0127085
0.0113303
0.0100564
0.0088151
0.00773371
0.00693695
0.00634301
0.00604918
0.00592164
0.00582952
0.00575858
0.00570283
0.00565757
0.00561963
0.00559312
0.00557005
0.00554505
0.00551673
0.00548474
0.00544843
0.00540656
0.00535732
0.00530492
0.00525198
0.00520455
0.00516367
0.00513853
0.00510366
0.00500426
0.00496026
0.00521448
0.00567903
0.0063774
0.00721052
0.0290438
0.0298098
0.0289083
0.0273403
0.0254187
0.0233445
0.0212547
0.0191822
0.0172181
0.0153743
0.0135629
0.0119416
0.0106479
0.00962841
0.00877651
0.00807095
0.00763892
0.00743173
0.00731036
0.00723252
0.00718401
0.00715984
0.00714602
0.00713435
0.00712191
0.00710713
0.00708835
0.00706392
0.00703247
0.00699476
0.00695318
0.00691408
0.00688667
0.00688703
0.00691184
0.00690489
0.00690804
0.00718215
0.00783123
0.0089196
0.0100007
0.0381962
0.0389207
0.0380704
0.0364205
0.0342946
0.0318439
0.0292533
0.0266618
0.0241642
0.0217769
0.0194002
0.0172108
0.0153892
0.0139248
0.01267
0.0115795
0.0106676
0.00988248
0.00942046
0.00915897
0.00900197
0.00891018
0.00885161
0.00880864
0.00877755
0.00875415
0.00873414
0.00871387
0.00869051
0.00866278
0.00863166
0.00860242
0.00858587
0.00860142
0.0086645
0.00874271
0.00882694
0.00911347
0.00983986
0.0111453
0.0131746
0.0477304
0.048375
0.0476007
0.0459715
0.0437462
0.0411005
0.0382306
0.0352753
0.0323492
0.0294844
0.0265824
0.0238353
0.0214677
0.0194975
0.0177737
0.01625
0.0149051
0.0137067
0.0126705
0.0118682
0.0114186
0.0111403
0.0109409
0.0107924
0.0106841
0.0106004
0.0105331
0.0104767
0.0104267
0.0103806
0.0103377
0.0103016
0.0102812
0.0102945
0.0103659
0.0104951
0.0106629
0.01097
0.0116667
0.0129543
0.0152347
0.0573717
0.0579385
0.0572563
0.0557218
0.0535289
0.0508692
0.0479137
0.0447816
0.0415907
0.0383823
0.0350658
0.0318383
0.028958
0.0264762
0.0242557
0.0222577
0.0204594
0.0188354
0.0173624
0.0160365
0.0149036
0.0141692
0.0137117
0.0133844
0.0131318
0.0129255
0.0127498
0.0125959
0.0124585
0.0123346
0.0122243
0.0121305
0.0120611
0.0120307
0.0120632
0.0121804
0.012382
0.012704
0.013316
0.0144185
0.0164519
0.0669133
0.0673923
0.0667993
0.0654043
0.063353
0.0608204
0.0579441
0.0548183
0.0515476
0.0481689
0.0446014
0.0410327
0.0377352
0.0347941
0.0321053
0.0296423
0.0273883
0.0253233
0.0234256
0.0216746
0.0200571
0.0187394
0.0177908
0.0171083
0.0165961
0.0161794
0.015817
0.0154883
0.0151834
0.0148983
0.0146334
0.0143928
0.0141857
0.0140261
0.0139347
0.0139399
0.0140646
0.0143299
0.0148197
0.0156629
0.0171881
0.0761123
0.076507
0.0759995
0.0747692
0.0729267
0.0706185
0.067949
0.0649843
0.0618061
0.0584215
0.0547779
0.05104
0.0474729
0.0441924
0.041148
0.0382972
0.0356357
0.0331582
0.0308503
0.0286953
0.0266746
0.0249635
0.0235752
0.0224325
0.0215312
0.0207969
0.0201641
0.0195907
0.0190528
0.0185385
0.018044
0.0175718
0.0171308
0.0167355
0.0164055
0.01617
0.0160634
0.0161162
0.016378
0.0169107
0.0178794
0.0847695
0.0850893
0.0846616
0.0836032
0.0819999
0.0799695
0.077588
0.0748798
0.071912
0.0687096
0.0652041
0.0615203
0.0578913
0.054437
0.0511296
0.0479839
0.0450064
0.0422067
0.0395538
0.0370387
0.0346525
0.0326143
0.0309077
0.0293708
0.0280669
0.0269735
0.0260265
0.0251716
0.024372
0.0236043
0.022856
0.0221226
0.0214074
0.0207206
0.0200773
0.0195044
0.0190374
0.018712
0.0185759
0.0186739
0.0190516
0.0927391
0.0929953
0.0926377
0.0917439
0.0903819
0.0886452
0.0865888
0.0842123
0.0815738
0.0786848
0.0754809
0.072048
0.0685712
0.0651544
0.0617851
0.0584979
0.0553179
0.052263
0.049338
0.0465407
0.0438682
0.0415594
0.0395916
0.0377484
0.036057
0.0346022
0.0333427
0.0322152
0.0311699
0.0301726
0.0292008
0.0282415
0.0272892
0.026345
0.025414
0.0245145
0.0236747
0.0229217
0.0222992
0.021857
0.0215629
0.0999344
0.100133
0.0998317
0.0990856
0.0979491
0.0964956
0.094765
0.0927468
0.0904874
0.0879901
0.0851952
0.0821549
0.0789911
0.075796
0.0725704
0.06936
0.0661786
0.0630492
0.0599902
0.0570132
0.0541238
0.0515982
0.0494339
0.0473922
0.045457
0.0436344
0.0419743
0.0405275
0.0392415
0.0380524
0.0369153
0.0358016
0.0346974
0.0335908
0.0324755
0.031359
0.0302576
0.029182
0.0281596
0.0272386
0.0263123
0.106317
0.106457
0.106199
0.105582
0.104646
0.10345
0.102022
0.100349
0.0984692
0.0963805
0.0940313
0.0914356
0.0887
0.0858794
0.0829697
0.0800037
0.0770075
0.0740141
0.0710247
0.0680533
0.0651129
0.0624985
0.0602293
0.058073
0.0560143
0.0540401
0.0521461
0.0503418
0.0486712
0.0471912
0.045856
0.0446032
0.0433914
0.0421946
0.0409929
0.0397817
0.0385641
0.0373353
0.0361035
0.0349045
0.0335752
0.111865
0.111965
0.111747
0.111241
0.110481
0.109508
0.108344
0.106981
0.105447
0.103741
0.101808
0.0996748
0.0974062
0.095033
0.0925458
0.0899637
0.0873057
0.0845905
0.0818342
0.0790504
0.0762586
0.0737304
0.0714909
0.0693366
0.0672625
0.065268
0.0633364
0.0614581
0.0596316
0.057867
0.0561808
0.0546353
0.0532405
0.0519389
0.0506773
0.0494303
0.0481863
0.0469271
0.0456465
0.0443648
0.0429063
0.116647
0.116714
0.116528
0.116113
0.115507
0.114716
0.113773
0.112673
0.111438
0.110066
0.108515
0.106804
0.104977
0.103049
0.101
0.0988497
0.096619
0.0943062
0.0919197
0.0894693
0.0869649
0.0846592
0.0825895
0.080577
0.0786201
0.0767162
0.0748613
0.0730498
0.0712751
0.0695314
0.0678149
0.0661365
0.0645023
0.0629211
0.0614359
0.0600707
0.0587846
0.0575252
0.0562651
0.0550061
0.053592
0.120736
0.120777
0.120617
0.120275
0.119782
0.119144
0.118386
0.117506
0.116521
0.115429
0.114201
0.112851
0.111409
0.109873
0.10824
0.106518
0.104711
0.102823
0.100867
0.0988356
0.0967315
0.0947621
0.0929673
0.0912045
0.0894744
0.087776
0.0861081
0.084469
0.0828557
0.0812645
0.0796911
0.0781315
0.0765828
0.075043
0.0735109
0.0719992
0.0705183
0.0690672
0.0676901
0.0664072
0.0650489
0.12405
0.124076
0.123939
0.123657
0.123253
0.122735
0.12212
0.121416
0.12062
0.119741
0.118759
0.117685
0.116542
0.115324
0.114032
0.112668
0.111234
0.10973
0.108159
0.10652
0.104814
0.1032
0.101713
0.100242
0.098788
0.0973525
0.0959348
0.0945388
0.0931586
0.0917915
0.0904355
0.0890878
0.087746
0.0864062
0.0850596
0.0837067
0.0823506
0.0809829
0.0796083
0.0782427
0.0768185
0.126634
0.126649
0.126533
0.126298
0.125962
0.12554
0.125031
0.12445
0.123797
0.123079
0.122287
0.121419
0.120495
0.119515
0.118478
0.117385
0.116239
0.115038
0.113781
0.112469
0.111101
0.109797
0.108588
0.107386
0.106196
0.105016
0.103847
0.10269
0.101542
0.100404
0.0992778
0.0981576
0.0970414
0.0959266
0.0948063
0.0936803
0.0925494
0.0914033
0.0902385
0.089058
0.0878177
0.12868
0.128689
0.12859
0.128391
0.128107
0.127752
0.127326
0.12684
0.126301
0.125705
0.12505
0.124336
0.12358
0.122784
0.121939
0.121051
0.120122
0.119152
0.118139
0.117083
0.115984
0.114931
0.113952
0.112978
0.112011
0.111053
0.110103
0.109161
0.108226
0.107298
0.106376
0.10546
0.104548
0.103641
0.102732
0.101819
0.100904
0.0999791
0.0990405
0.0980895
0.0970992
0.130337
0.130344
0.130258
0.130088
0.129846
0.129541
0.129183
0.128771
0.128315
0.127812
0.127263
0.126673
0.126044
0.125385
0.124687
0.123958
0.123196
0.122404
0.121579
0.120722
0.119832
0.118978
0.118182
0.117391
0.116607
0.11583
0.115056
0.11429
0.113534
0.112785
0.112042
0.111304
0.110571
0.109843
0.109114
0.108384
0.107655
0.106919
0.106175
0.105424
0.104651
0.131704
0.131709
0.131636
0.131489
0.131279
0.131015
0.130706
0.130356
0.129966
0.12954
0.129075
0.128575
0.128046
0.127492
0.126914
0.126307
0.125677
0.125022
0.124344
0.123642
0.122916
0.122218
0.121567
0.12092
0.120278
0.119645
0.119016
0.118393
0.117778
0.117173
0.116575
0.115983
0.115396
0.114815
0.114235
0.113657
0.11308
0.1125
0.111916
0.111328
0.11073
0.132848
0.132854
0.132789
0.132661
0.132477
0.132247
0.131978
0.131674
0.13134
0.130973
0.130576
0.130149
0.129702
0.129232
0.128743
0.128236
0.127712
0.127166
0.126603
0.126022
0.125424
0.12485
0.124313
0.123781
0.123254
0.122736
0.122222
0.121714
0.121213
0.12072
0.120236
0.119762
0.119293
0.118828
0.118366
0.117907
0.117451
0.116994
0.116536
0.116077
0.115617
0.133819
0.133823
0.133766
0.133653
0.133492
0.13329
0.133054
0.132788
0.132496
0.132177
0.131834
0.131466
0.131082
0.130684
0.130267
0.129837
0.129394
0.128938
0.12847
0.127986
0.12749
0.127012
0.126567
0.126127
0.125694
0.125268
0.124845
0.124429
0.124019
0.123616
0.123221
0.122835
0.122457
0.122085
0.121717
0.121352
0.120991
0.120632
0.120273
0.119916
0.119562
0.13465
0.134653
0.134603
0.134503
0.13436
0.134182
0.133974
0.13374
0.133483
0.133206
0.132907
0.13259
0.132257
0.131913
0.131557
0.131191
0.130813
0.130426
0.130029
0.129625
0.129213
0.128814
0.12844
0.128073
0.127713
0.127358
0.127009
0.126666
0.126329
0.125999
0.125676
0.125361
0.125052
0.124751
0.124455
0.124165
0.12388
0.123597
0.123316
0.123037
0.122762
0.135367
0.13537
0.135325
0.135236
0.13511
0.134952
0.134768
0.13456
0.134333
0.134089
0.133829
0.133552
0.133264
0.132965
0.132656
0.13234
0.132018
0.131689
0.131352
0.131008
0.130661
0.130326
0.130014
0.129706
0.129404
0.129107
0.128816
0.128531
0.128253
0.127981
0.127715
0.127457
0.127204
0.126959
0.126718
0.126484
0.126255
0.126031
0.12581
0.125592
0.125379
0.135991
0.135993
0.135954
0.135875
0.135762
0.135622
0.135458
0.135273
0.135072
0.134855
0.134625
0.134384
0.134131
0.133871
0.133605
0.133333
0.133054
0.13277
0.132483
0.132192
0.131896
0.131612
0.131347
0.131087
0.130833
0.130584
0.13034
0.130102
0.12987
0.129644
0.129425
0.129211
0.129004
0.128803
0.128606
0.128416
0.12823
0.128049
0.127872
0.127699
0.127533
0.136536
0.136539
0.136504
0.136434
0.136334
0.136208
0.136062
0.135897
0.135718
0.135525
0.135321
0.135107
0.134886
0.134659
0.134428
0.13419
0.133949
0.133705
0.133457
0.133207
0.132956
0.132714
0.132488
0.132267
0.132051
0.13184
0.131634
0.131434
0.13124
0.131051
0.130869
0.130692
0.130521
0.130355
0.130194
0.130038
0.129887
0.12974
0.129597
0.129457
0.129325
0.137016
0.13702
0.136989
0.136926
0.136837
0.136724
0.136593
0.136446
0.136286
0.136114
0.135932
0.135742
0.135546
0.135346
0.135142
0.134934
0.134725
0.134513
0.134299
0.134085
0.133869
0.133662
0.133468
0.133279
0.133094
0.132915
0.13274
0.132571
0.132408
0.13225
0.132097
0.13195
0.131808
0.13167
0.131538
0.13141
0.131286
0.131166
0.13105
0.130938
0.130832
0.137441
0.137445
0.137418
0.137362
0.137282
0.137181
0.137064
0.136932
0.136788
0.136634
0.136472
0.136303
0.136129
0.135951
0.13577
0.135588
0.135404
0.135219
0.135034
0.134848
0.134663
0.134485
0.134317
0.134154
0.133996
0.133842
0.133694
0.13355
0.133412
0.133278
0.13315
0.133026
0.132908
0.132794
0.132684
0.132578
0.132477
0.132379
0.132284
0.132192
0.132107
0.137819
0.137823
0.137799
0.137749
0.137677
0.137587
0.137482
0.137363
0.137234
0.137097
0.136952
0.136801
0.136646
0.136488
0.136327
0.136166
0.136003
0.135841
0.135679
0.135518
0.135359
0.135204
0.135059
0.134918
0.134781
0.134649
0.134522
0.134399
0.134282
0.134169
0.13406
0.133956
0.133857
0.133761
0.13367
0.133582
0.133498
0.133417
0.13334
0.133265
0.133197
0.138155
0.13816
0.13814
0.138095
0.13803
0.137949
0.137855
0.137749
0.137633
0.13751
0.13738
0.137246
0.137107
0.136967
0.136824
0.136681
0.136537
0.136394
0.136251
0.13611
0.135972
0.135837
0.13571
0.135588
0.13547
0.135356
0.135247
0.135142
0.135041
0.134945
0.134853
0.134765
0.134681
0.134601
0.134524
0.134451
0.134382
0.134315
0.134251
0.13419
0.134134
0.138456
0.138462
0.138444
0.138404
0.138346
0.138274
0.138189
0.138094
0.137991
0.137881
0.137766
0.137645
0.137522
0.137396
0.13727
0.137142
0.137015
0.136889
0.136763
0.136639
0.136518
0.1364
0.136289
0.136183
0.13608
0.135982
0.135887
0.135797
0.13571
0.135628
0.135549
0.135475
0.135404
0.135336
0.135272
0.135211
0.135153
0.135098
0.135045
0.134995
0.134949
0.138726
0.138732
0.138717
0.138682
0.13863
0.138566
0.138491
0.138407
0.138315
0.138217
0.138114
0.138007
0.137897
0.137785
0.137672
0.137559
0.137446
0.137334
0.137224
0.137115
0.137008
0.136905
0.136808
0.136715
0.136626
0.13654
0.136458
0.13638
0.136305
0.136235
0.136167
0.136104
0.136043
0.135986
0.135932
0.135881
0.135832
0.135786
0.135743
0.135701
0.135664
0.138968
0.138976
0.138962
0.138931
0.138887
0.13883
0.138764
0.13869
0.138609
0.138523
0.138431
0.138336
0.138238
0.138139
0.138039
0.137938
0.137838
0.137739
0.137641
0.137545
0.137452
0.137361
0.137276
0.137195
0.137117
0.137042
0.136971
0.136903
0.136839
0.136778
0.13672
0.136666
0.136614
0.136566
0.13652
0.136477
0.136436
0.136398
0.136361
0.136327
0.136297
0.139187
0.139194
0.139183
0.139157
0.139119
0.139071
0.139014
0.13895
0.13888
0.138804
0.138723
0.138639
0.138552
0.138464
0.138375
0.138286
0.138198
0.13811
0.138024
0.137939
0.137857
0.137777
0.137703
0.137631
0.137563
0.137497
0.137435
0.137377
0.137321
0.137268
0.137219
0.137172
0.137128
0.137087
0.137048
0.137011
0.136977
0.136945
0.136915
0.136887
0.136862
0.139383
0.139392
0.139383
0.139362
0.139331
0.139292
0.139245
0.139191
0.13913
0.139064
0.138994
0.138921
0.138844
0.138767
0.138688
0.13861
0.138531
0.138454
0.138377
0.138303
0.138231
0.138161
0.138096
0.138033
0.137973
0.137916
0.137861
0.13781
0.137762
0.137716
0.137673
0.137633
0.137596
0.13756
0.137527
0.137497
0.137468
0.137441
0.137416
0.137392
0.137372
0.139561
0.139569
0.139563
0.139549
0.139526
0.139496
0.139459
0.139415
0.139364
0.139309
0.139249
0.139186
0.13912
0.139053
0.138984
0.138915
0.138846
0.138778
0.138711
0.138646
0.138582
0.138521
0.138464
0.138408
0.138356
0.138306
0.138258
0.138214
0.138172
0.138132
0.138095
0.138061
0.138028
0.137998
0.13797
0.137944
0.13792
0.137898
0.137877
0.137857
0.137841
0.139719
0.139727
0.139726
0.139718
0.139704
0.139684
0.139657
0.139624
0.139585
0.139542
0.139494
0.139442
0.139388
0.139332
0.139274
0.139215
0.139156
0.139097
0.139039
0.138982
0.138927
0.138874
0.138823
0.138775
0.138729
0.138686
0.138644
0.138606
0.138569
0.138536
0.138504
0.138475
0.138448
0.138423
0.1384
0.13838
0.138361
0.138345
0.13833
0.138317
0.138307
0.139855
0.139863
0.139866
0.139865
0.139859
0.139848
0.139832
0.139812
0.139787
0.139758
0.139725
0.13969
0.139651
0.13961
0.139568
0.139524
0.139479
0.139433
0.139389
0.139344
0.139302
0.139261
0.139221
0.139184
0.139147
0.139113
0.139081
0.139051
0.139023
0.138998
0.138976
0.138955
0.138937
0.138922
0.138908
0.138897
0.138888
0.13888
0.138875
0.138871
0.13887
0.139953
0.139959
0.139962
0.139963
0.139961
0.139956
0.139949
0.139939
0.139928
0.139914
0.139898
0.139881
0.139862
0.139841
0.139819
0.139796
0.139772
0.139748
0.139724
0.139699
0.139677
0.139653
0.13963
0.139608
0.139587
0.139566
0.139547
0.139529
0.139512
0.139497
0.139484
0.139472
0.139461
0.139452
0.139445
0.139439
0.139433
0.13943
0.139427
0.139425
0.139425
0.14
0.140005
0.140008
0.14001
0.14001
0.140008
0.140006
0.140002
0.139997
0.139991
0.139985
0.139977
0.139968
0.139958
0.139948
0.139937
0.139926
0.139914
0.139903
0.139891
0.13988
0.139868
0.139857
0.139847
0.139836
0.139826
0.139817
0.139808
0.1398
0.139792
0.139785
0.139779
0.139774
0.139769
0.139765
0.139761
0.139759
0.139757
0.139755
0.139754
0.139754
0.140025
0.140029
0.140032
0.140034
0.140036
0.140036
0.140037
0.140036
0.140036
0.140034
0.140032
0.140029
0.140026
0.140022
0.140018
0.140013
0.140008
0.140003
0.139998
0.139993
0.139988
0.139982
0.139977
0.139972
0.139968
0.139963
0.139959
0.139955
0.139951
0.139947
0.139944
0.139941
0.139938
0.139936
0.139934
0.139933
0.139932
0.139931
0.13993
0.13993
0.13993
0.140037
0.14004
0.140043
0.140045
0.140048
0.14005
0.140052
0.140054
0.140055
0.140056
0.140057
0.140057
0.140057
0.140057
0.140056
0.140055
0.140054
0.140053
0.140052
0.14005
0.140049
0.140047
0.140045
0.140044
0.140042
0.14004
0.140039
0.140037
0.140036
0.140035
0.140034
0.140032
0.140032
0.140031
0.14003
0.14003
0.14003
0.14003
0.14003
0.14003
0.14003
0.140039
0.140042
0.140044
0.140047
0.14005
0.140053
0.140056
0.140058
0.140061
0.140063
0.140066
0.140068
0.14007
0.140072
0.140074
0.140075
0.140077
0.140078
0.140079
0.14008
0.14008
0.140081
0.140082
0.140082
0.140082
0.140083
0.140083
0.140083
0.140084
0.140084
0.140084
0.140084
0.140084
0.140085
0.140085
0.140085
0.140085
0.140086
0.140086
0.140087
0.140087
0.140035
0.140037
0.140039
0.140041
0.140044
0.140047
0.14005
0.140053
0.140056
0.140059
0.140062
0.140065
0.140067
0.14007
0.140073
0.140075
0.140078
0.14008
0.140083
0.140085
0.140088
0.14009
0.140092
0.140094
0.140096
0.140097
0.140099
0.140101
0.140102
0.140103
0.140104
0.140106
0.140107
0.140108
0.140109
0.140109
0.14011
0.140111
0.140112
0.140113
0.140113
0.140024
0.140026
0.140027
0.140029
0.140031
0.140033
0.140036
0.140038
0.140041
0.140043
0.140045
0.140047
0.140049
0.140051
0.140052
0.140054
0.140055
0.140057
0.140058
0.14006
0.140062
0.140064
0.140067
0.140069
0.140072
0.140075
0.140078
0.140081
0.140083
0.140086
0.140089
0.140091
0.140093
0.140095
0.140097
0.140099
0.140101
0.140103
0.140104
0.140105
0.140107
0.140009
0.14001
0.14001
0.140011
0.140012
0.140013
0.140014
0.140015
0.140016
0.140017
0.140017
0.140018
0.140018
0.140017
0.140015
0.140013
0.140008
0.140001
0.13998
0.139968
0.139959
0.139952
0.139945
0.13994
0.139936
0.139934
0.139931
0.13993
0.139929
0.139928
0.139928
0.139929
0.139929
0.139929
0.13993
0.139931
0.139931
0.139932
0.139933
0.139933
0.139934
0.00280546
0.00352297
0.00420124
0.00541276
0.00710978
0.0091091
0.0113089
0.013652
0.0161063
0.0186547
0.0212799
0.0239743
0.0267339
0.0295494
0.0324118
0.0353178
0.0382613
0.0412351
0.0442319
0.0472471
0.0502746
0.0533082
0.0563411
0.0593675
0.0623811
0.0653752
0.0683434
0.0712796
0.0741782
0.0770335
0.0798402
0.0825933
0.085288
0.0879199
0.0904851
0.0929799
0.0954009
0.0977454
0.100011
0.102195
0.104297
0.106315
0.108248
0.110097
0.111861
0.113542
0.115142
0.116663
0.11811
0.119485
0.12079
0.122028
0.123199
0.124306
0.125353
0.12634
0.127272
0.12815
0.128979
0.12976
0.130497
0.131193
0.131849
0.132469
0.133054
0.133607
0.134131
0.134626
0.135096
0.135541
0.135962
0.136373
0.136714
0.137289
0.00590784
0.00636164
0.00604431
0.00611173
0.00697835
0.00851928
0.010481
0.0126919
0.0150657
0.0175612
0.0201515
0.022822
0.0255649
0.0283697
0.0312249
0.0341303
0.0370776
0.040058
0.0430638
0.0460911
0.0491334
0.0521836
0.0552347
0.0582811
0.0613165
0.0643341
0.0673269
0.070289
0.0732146
0.076098
0.0789336
0.0817163
0.0844412
0.0871038
0.0897001
0.0922263
0.0946789
0.097055
0.0993519
0.101568
0.1037
0.105749
0.107713
0.109591
0.111385
0.113094
0.114722
0.11627
0.117743
0.119142
0.12047
0.121728
0.12292
0.124046
0.12511
0.126115
0.127062
0.127955
0.128797
0.129591
0.13034
0.131046
0.131712
0.132341
0.132934
0.133496
0.134026
0.134529
0.135004
0.135455
0.135882
0.136297
0.136642
0.137223
0.00904721
0.00998233
0.00945651
0.00861091
0.00825023
0.0087386
0.0100198
0.0118482
0.0140088
0.0163785
0.0188913
0.0215124
0.0242232
0.0270089
0.0298549
0.0327567
0.035706
0.0386924
0.0417074
0.0447492
0.0478094
0.0508798
0.053953
0.0570241
0.0600865
0.0631327
0.0661556
0.0691492
0.0721075
0.0750248
0.0778951
0.0807133
0.0834742
0.0861734
0.0888065
0.0913697
0.0938594
0.0962724
0.0986062
0.100858
0.103027
0.105112
0.10711
0.109023
0.11085
0.112592
0.114251
0.11583
0.117332
0.118758
0.120112
0.121395
0.122609
0.123758
0.124842
0.125865
0.12683
0.127739
0.128597
0.129405
0.130166
0.130884
0.131562
0.132201
0.132804
0.133374
0.133913
0.134422
0.134905
0.135362
0.135794
0.136215
0.136564
0.137152
0.0112356
0.013134
0.0132105
0.0123266
0.0112599
0.0106095
0.0107269
0.0116627
0.0132512
0.0152804
0.0175911
0.020089
0.0227227
0.025461
0.0282805
0.0311689
0.034115
0.037107
0.0401342
0.0431919
0.0462721
0.0493653
0.052464
0.0555646
0.0586595
0.0617402
0.0647993
0.0678307
0.0708286
0.0737867
0.0766988
0.0795593
0.0823633
0.0851059
0.0877828
0.0903898
0.0929233
0.09538
0.097757
0.100052
0.102263
0.104389
0.106428
0.10838
0.110246
0.112026
0.113722
0.115336
0.116871
0.118329
0.119712
0.121023
0.122263
0.123436
0.124543
0.125587
0.126572
0.1275
0.128375
0.129199
0.129975
0.130707
0.131396
0.132047
0.132661
0.133241
0.133788
0.134306
0.134796
0.135261
0.135699
0.136126
0.13648
0.137074
0.0126495
0.0154721
0.0164017
0.0160878
0.0151351
0.0140311
0.0132058
0.0129883
0.0135247
0.0147679
0.0165592
0.0187317
0.0211629
0.0237752
0.0265184
0.0293621
0.0322855
0.0352714
0.0383051
0.0413775
0.0444793
0.0476003
0.0507313
0.053867
0.0569997
0.0601207
0.0632223
0.0662987
0.0693438
0.0723507
0.0753126
0.0782239
0.0810793
0.0838738
0.0866027
0.0892618
0.0918471
0.0943553
0.0967834
0.0991287
0.101389
0.103564
0.10565
0.107649
0.10956
0.111384
0.113122
0.114777
0.11635
0.117844
0.119261
0.120603
0.121874
0.123075
0.124208
0.125277
0.126285
0.127234
0.128128
0.12897
0.129763
0.13051
0.131214
0.131878
0.132503
0.133094
0.133652
0.134179
0.134678
0.13515
0.135595
0.136029
0.136389
0.136991
0.014107
0.0170499
0.0186552
0.0190625
0.0187313
0.01792
0.0169142
0.0160261
0.0155473
0.0156835
0.0165018
0.0179396
0.0198662
0.0221485
0.0246817
0.0273942
0.0302387
0.0331823
0.0361998
0.039274
0.0423911
0.0455381
0.0487036
0.0518793
0.0550568
0.0582269
0.0613809
0.064512
0.0676133
0.0706779
0.0736989
0.0766703
0.0795867
0.0824429
0.0852338
0.0879548
0.0906018
0.0931712
0.0956597
0.0980646
0.100384
0.102615
0.104758
0.106811
0.108775
0.11065
0.112438
0.114139
0.115757
0.117292
0.118749
0.120129
0.121434
0.122667
0.123831
0.124929
0.125963
0.126936
0.127853
0.128715
0.129528
0.130292
0.131012
0.13169
0.13233
0.132933
0.133502
0.13404
0.134548
0.135029
0.135482
0.135923
0.136289
0.1369
0.0170799
0.0183334
0.0200641
0.0209002
0.0213017
0.0211691
0.020618
0.0198224
0.0189945
0.0183721
0.0181754
0.0185525
0.0195466
0.0211058
0.0231246
0.0254903
0.0281091
0.0309116
0.0338475
0.0368811
0.0399869
0.0431444
0.0463368
0.0495509
0.0527757
0.0560006
0.0592151
0.0624108
0.0655798
0.0687145
0.0718074
0.0748518
0.0778417
0.0807718
0.0836365
0.0864312
0.0891515
0.0917935
0.0943539
0.0968296
0.0992182
0.101518
0.103727
0.105845
0.107871
0.109806
0.111651
0.113407
0.115077
0.116661
0.118164
0.119587
0.120933
0.122204
0.123403
0.124534
0.125598
0.1266
0.127543
0.12843
0.129264
0.130048
0.130787
0.131482
0.132137
0.132754
0.133336
0.133886
0.134405
0.134896
0.135358
0.135808
0.13618
0.136801
0.0187099
0.0202852
0.0214382
0.0218521
0.0227347
0.0231837
0.0233036
0.0230906
0.0225981
0.0219571
0.0213431
0.0209506
0.0209591
0.0214922
0.0225915
0.0242215
0.0262984
0.0287249
0.0314124
0.0342909
0.0373079
0.0404248
0.0436114
0.0468452
0.0501083
0.0533855
0.0566634
0.0599305
0.0631769
0.0663935
0.0695716
0.0727036
0.0757824
0.078802
0.0817563
0.0846402
0.087449
0.0901784
0.0928248
0.0953851
0.0978565
0.100237
0.102525
0.104719
0.106819
0.108825
0.110738
0.112559
0.11429
0.115933
0.11749
0.118964
0.120358
0.121674
0.122915
0.124084
0.125184
0.126219
0.127192
0.128107
0.128967
0.129775
0.130535
0.131249
0.131922
0.132556
0.133153
0.133716
0.134247
0.134749
0.135222
0.135681
0.136061
0.136693
0.0192476
0.0210504
0.0225321
0.0234544
0.0240394
0.0242298
0.0247505
0.025105
0.0251911
0.0250398
0.0246951
0.0242489
0.023843
0.0236427
0.023803
0.0244371
0.0255938
0.0272565
0.0293615
0.031824
0.0345607
0.0375007
0.0405875
0.0437779
0.0470388
0.0503443
0.0536734
0.0570086
0.0603356
0.063642
0.0669169
0.0701504
0.0733341
0.0764603
0.0795223
0.0825141
0.08543
0.0882654
0.0910162
0.0936788
0.0962502
0.098728
0.10111
0.103396
0.105585
0.107676
0.10967
0.111568
0.113373
0.115085
0.116707
0.118242
0.119692
0.121061
0.122352
0.123567
0.12471
0.125784
0.126793
0.12774
0.12863
0.129466
0.13025
0.130988
0.131681
0.132334
0.132948
0.133527
0.134072
0.134587
0.135072
0.135542
0.135931
0.136576
0.0193692
0.020943
0.0225553
0.0240057
0.0251569
0.0258789
0.0263045
0.0264572
0.0266474
0.02691
0.0270432
0.0270032
0.0268291
0.0265889
0.0263868
0.0263575
0.026639
0.0273411
0.0285231
0.0301881
0.0322922
0.0347651
0.0375291
0.0405126
0.0436555
0.0469099
0.050238
0.0536096
0.0570005
0.0603913
0.0637657
0.0671096
0.0704115
0.0736611
0.0768497
0.0799696
0.0830142
0.0859777
0.088855
0.0916419
0.0943348
0.096931
0.0994283
0.101825
0.10412
0.106314
0.108406
0.110398
0.112291
0.114086
0.115787
0.117395
0.118914
0.120347
0.121697
0.122967
0.12416
0.125281
0.126333
0.12732
0.128245
0.129113
0.129928
0.130692
0.13141
0.132084
0.132718
0.133315
0.133877
0.134408
0.134906
0.135388
0.135787
0.136447
0.019983
0.0210826
0.0223396
0.0237032
0.0250909
0.0263727
0.027431
0.0281623
0.0285845
0.0287734
0.028732
0.0287669
0.0288931
0.0289721
0.0289607
0.0289058
0.0288903
0.0290191
0.0294085
0.030163
0.0313515
0.032996
0.0350739
0.0375308
0.0402976
0.043304
0.0464869
0.0497934
0.0531801
0.0566125
0.0600626
0.0635076
0.066929
0.0703112
0.0736415
0.076909
0.0801044
0.0832201
0.0862493
0.0891866
0.0920273
0.0947679
0.0974055
0.0999379
0.102364
0.104683
0.106895
0.109
0.111001
0.112898
0.114694
0.116392
0.117995
0.119505
0.120927
0.122264
0.123519
0.124696
0.125799
0.126833
0.127802
0.128709
0.129558
0.130355
0.131101
0.131802
0.13246
0.133078
0.133659
0.134207
0.134721
0.135217
0.135629
0.136305
0.022026
0.0227085
0.0235094
0.0244049
0.0253987
0.0264862
0.0276312
0.0287554
0.0297574
0.0305457
0.0310414
0.0312708
0.031299
0.0311411
0.031009
0.031023
0.0310957
0.031177
0.0313084
0.0315706
0.0320568
0.0328584
0.0340466
0.0356582
0.0376907
0.0401079
0.0428525
0.0458588
0.0490625
0.0524064
0.0558419
0.0593292
0.0628357
0.0663347
0.0698049
0.0732286
0.0765912
0.0798809
0.0830879
0.0862039
0.0892225
0.0921383
0.0949471
0.0976458
0.100232
0.102706
0.105065
0.107311
0.109444
0.111467
0.113381
0.11519
0.116895
0.118501
0.120012
0.12143
0.12276
0.124007
0.125173
0.126265
0.127285
0.12824
0.129132
0.129967
0.130748
0.13148
0.132166
0.132809
0.133413
0.133982
0.134514
0.135028
0.135453
0.136148
0.0263763
0.0267281
0.0271658
0.0276451
0.0281634
0.0287341
0.0293764
0.0301045
0.030913
0.0317674
0.0326011
0.0333307
0.0338815
0.0341878
0.0342502
0.0341261
0.0338557
0.0335312
0.0334177
0.0334791
0.0336667
0.0340034
0.0345527
0.0353875
0.0365713
0.0381458
0.0401227
0.0424831
0.0451835
0.0481665
0.05137
0.0547344
0.0582067
0.0617416
0.0653014
0.068855
0.0723771
0.0758471
0.0792484
0.0825674
0.0857932
0.0889172
0.0919324
0.0948338
0.0976175
0.100281
0.102823
0.105244
0.107543
0.109722
0.111783
0.113729
0.115563
0.117288
0.118909
0.120429
0.121853
0.123185
0.12443
0.125592
0.126677
0.12769
0.128634
0.129516
0.13034
0.13111
0.131829
0.132503
0.133135
0.133727
0.134282
0.134815
0.135257
0.135975
0.0333282
0.0334134
0.0335653
0.0337307
0.0338973
0.0340651
0.0342421
0.0344438
0.0346914
0.0350067
0.035404
0.0358793
0.0364045
0.0369268
0.037376
0.0376838
0.0377931
0.0376724
0.0373727
0.0369591
0.0364504
0.0361652
0.0361651
0.0364246
0.0369415
0.0377526
0.0389034
0.0404285
0.0423426
0.0446362
0.0472777
0.0502188
0.0534024
0.0567698
0.0602653
0.063839
0.0674481
0.0710564
0.0746342
0.078157
0.0816051
0.0849627
0.0882173
0.0913591
0.0943809
0.0972775
0.100045
0.102683
0.105189
0.107564
0.10981
0.11193
0.113926
0.115802
0.117562
0.11921
0.120752
0.122192
0.123535
0.124786
0.125952
0.127037
0.128047
0.128987
0.129863
0.130679
0.131441
0.132151
0.132816
0.133438
0.134018
0.134576
0.135037
0.135782
0.0424546
0.0423389
0.042274
0.0422098
0.0421332
0.0420392
0.0419264
0.0417965
0.0416554
0.0415146
0.0413918
0.0413088
0.0412869
0.0413411
0.0414712
0.0416571
0.0418579
0.0420144
0.0420611
0.0419465
0.0416208
0.041119
0.0405141
0.0398694
0.0393504
0.0392036
0.0394501
0.0400773
0.0410926
0.042509
0.0443295
0.0465409
0.0491129
0.052001
0.0551519
0.0585087
0.062015
0.0656183
0.0692718
0.0729344
0.0765714
0.0801539
0.0836581
0.0870653
0.0903605
0.0935326
0.0965734
0.0994771
0.102241
0.104862
0.107342
0.109682
0.111884
0.113952
0.11589
0.117703
0.119395
0.120973
0.122441
0.123806
0.125074
0.126251
0.127343
0.128357
0.129299
0.130173
0.130986
0.131743
0.132448
0.133106
0.133718
0.134304
0.134789
0.135566
0.0530241
0.0527684
0.0525506
0.0523278
0.0520892
0.05183
0.0515469
0.0512369
0.0508983
0.0505305
0.0501362
0.0497215
0.049298
0.0488824
0.0484952
0.048157
0.0478839
0.0476805
0.0475343
0.0474142
0.047271
0.0470438
0.0466795
0.0461379
0.0454167
0.0445876