/*--------------------------------*- C++ -*----------------------------------*\
| =========                 |                                                 |
| \\      /  F ield         | OpenFOAM: The Open Source CFD Toolbox           |
|  \\    /   O peration     | Version:  5.x                                   |
|   \\  /    A nd           | Web:      www.OpenFOAM.org                      |
|    \\/     M anipulation  |                                                 |
\*---------------------------------------------------------------------------*/
FoamFile
{
    version     2.0;
    format      ascii;
    class       volScalarField;
    location    "500";
    object      p;
}
// * * * * * * * * * * * * * * * * * * * * * * * * * * * * * * * * * * * * * //

dimensions      [0 2 -2 0 0 0 0];

internalField   nonuniform List<scalar> 
11040
(
-0.00168917
-53.7915
-181.636
-216.4
-228.12
-235.302
-236.158
-230.66
-220.66
-206.757
-188.709
-161.046
-134.437
-115.438
-102.082
-87.8503
-73.4159
-59.7864
-46.8837
-34.4371
-22.4074
-12.0359
-3.38521
4.6873
12.2185
19.2143
25.6648
31.5551
36.8528
41.5038
45.4407
48.6168
51.0519
52.8257
54.0882
54.9337
55.1804
54.8683
54.9332
57.0764
56.9527
19.1684
-32.8916
-115.264
-157.445
-179.687
-196.025
-205.666
-207.894
-204.104
-195.239
-181.434
-158.463
-134.296
-115.628
-101.983
-87.9147
-73.6415
-60.0799
-47.2163
-34.8001
-22.7882
-12.4383
-3.76757
4.32449
11.8767
18.8969
25.3766
31.3016
36.6371
41.3271
45.3057
48.5263
51.0005
52.7973
54.0754
54.9483
55.2248
54.8901
54.7292
56.3242
55.8954
31.9295
-18.6073
-77.9591
-127.333
-156.859
-176.441
-188.64
-193.307
-191.694
-184.886
-173.447
-154.384
-132.559
-114.332
-100.639
-87.0953
-73.2224
-59.8666
-47.1451
-34.8429
-22.9126
-12.6017
-3.95085
4.1279
11.6733
18.6937
25.1807
31.1196
36.4744
41.1895
45.2002
48.4577
50.9655
52.7887
54.0824
54.9763
55.2813
54.9646
54.7183
55.8773
55.2517
40.7754
-4.42169
-48.906
-94.0065
-125.45
-147.803
-163.726
-172.601
-174.837
-171.445
-163.262
-148.304
-129.401
-112.204
-98.6883
-85.7343
-72.3811
-59.3376
-46.8384
-34.7144
-22.9155
-12.6888
-4.08673
3.96024
11.4851
18.4947
24.981
30.9278
36.2989
41.0389
45.0836
48.3813
50.93
52.7885
54.1007
55.004
55.3281
55.0317
54.7429
55.6152
55.1012
47.6686
8.91418
-25.6456
-64.2607
-95.8819
-120.091
-138.483
-150.556
-156.206
-156.149
-151.254
-140.363
-124.861
-109.24
-96.126
-83.7873
-71.0807
-58.476
-46.2887
-34.4188
-22.8186
-12.7276
-4.20725
3.78016
11.2612
18.2412
24.712
30.6564
36.0379
40.8021
44.8854
48.2345
50.841
52.7539
54.1004
55.0157
55.3608
55.0979
54.7833
55.5178
55.3221
52.8713
20.5494
-7.02039
-39.0742
-68.3885
-92.6263
-112.251
-126.724
-135.458
-138.723
-137.221
-130.357
-118.564
-105.075
-92.7551
-81.1439
-69.2192
-57.1945
-45.4209
-33.8881
-22.5607
-12.6589
-4.26363
3.62579
11.03
17.9518
24.3831
30.3056
35.6832
40.4632
44.5838
47.9915
50.6707
52.6593
54.0625
55.0039
55.3851
55.189
54.8866
55.5807
55.7223
56.7849
30.2813
7.90205
-18.3152
-43.9597
-66.7077
-86.265
-101.993
-113.032
-119.231
-120.989
-117.985
-110.067
-99.2901
-88.3193
-77.6605
-66.6699
-55.3875
-44.1567
-33.0608
-22.0919
-12.444
-4.22655
3.52015
10.8083
17.6365
23.9965
29.8698
35.2216
40.0022
44.1531
47.6216
50.3861
52.4725
53.9609
54.9566
55.4041
55.321
55.0946
55.7897
56.247
59.727
38.1605
19.8282
-1.47841
-23.0923
-43.345
-61.7186
-77.535
-89.8684
-98.2705
-102.826
-103.279
-99.1384
-91.4812
-82.4426
-73.0806
-63.2302
-52.8901
-42.3708
-31.8404
-21.3386
-12.0284
-4.05378
3.49551
10.6195
17.3099
23.5579
29.345
34.639
39.3947
43.5592
47.083
49.9401
52.1447
53.7525
54.8472
55.4116
55.5005
55.4246
56.1705
56.8932
61.923
44.3949
29.3045
12.0211
-5.79527
-23.1174
-39.5315
-54.4393
-67.0158
-76.6907
-83.3093
-86.5817
-85.8269
-81.3975
-74.7578
-67.0936
-58.643
-49.4808
-39.8851
-30.0858
-20.1865
-11.3165
-3.66385
3.61806
10.5167
17.0152
23.1009
28.7551
33.9483
38.6413
42.7886
46.3474
49.2912
51.6251
53.3849
54.6342
55.385
55.7223
55.8825
56.7601
57.652
63.5329
49.2514
36.7896
22.7673
8.26092
-6.14945
-20.238
-33.5701
-45.5029
-55.5003
-63.289
-68.5475
-70.5191
-69.08
-65.0514
-59.4288
-52.6523
-44.9137
-36.4812
-27.6179
-18.4887
-10.1832
-2.94731
3.98151
10.5804
16.8227
22.6885
28.1569
33.2001
37.7843
41.8725
45.4304
48.4357
50.8902
52.8186
54.2704
55.2772
55.9444
56.4336
57.5301
58.5208
64.6848
52.9977
42.6779
31.2862
19.5443
7.76292
-3.98268
-15.4301
-26.1242
-35.6551
-43.7434
-50.0818
-53.9402
-54.9375
-53.392
-49.9601
-45.0672
-38.9691
-31.9327
-24.2294
-16.0684
-8.47816
-1.77252
4.70164
10.9122
16.823
22.4043
27.6301
32.4725
36.9014
40.8866
44.402
47.4313
49.9781
52.0652
53.7362
55.0343
56.076
56.9586
58.3305
59.4505
65.4852
55.8736
47.3053
38.0313
28.5455
19.007
9.40233
-0.135598
-9.31592
-17.8642
-25.5635
-32.1611
-37.0328
-39.7144
-40.2049
-38.8291
-35.8609
-31.5246
-26.0607
-19.7211
-12.7308
-6.02341
0.0203437
5.92281
11.6418
17.1326
22.3543
27.2737
31.8611
36.088
39.9285
43.3622
46.3781
48.9822
51.1988
53.0693
54.6409
56.0299
57.2948
58.9279
60.2621
66.0258
58.0832
50.9528
43.3834
35.7166
28.0285
20.2642
12.4761
4.83367
-2.49135
-9.36626
-15.6123
-20.7459
-24.3342
-26.2242
-26.5036
-25.2697
-22.6484
-18.8129
-13.9641
-8.30783
-2.64135
2.60567
7.81325
12.9286
17.8997
22.6755
27.2147
31.4843
35.4557
39.1054
42.4162
45.38
48.0035
50.3102
52.3369
54.1266
55.7797
57.3417
59.1415
60.7235
66.383
59.7929
53.8486
47.654
41.4465
35.2572
29.0177
22.7372
16.5078
10.4286
4.5675
-0.967888
-5.83024
-9.67396
-12.3094
-13.6981
-13.8099
-12.6643
-10.3457
-6.98143
-2.72797
1.79023
6.12998
10.5342
14.9415
19.2942
23.5335
27.6116
31.4919
35.1447
38.5466
41.6814
44.542
47.1334
49.4755
51.596
53.5279
55.3449
57.0864
58.9388
60.6633
66.6157
61.1314
56.1706
51.0887
46.0514
41.0656
36.0633
31.0332
26.0224
21.0832
16.2469
11.5653
7.2731
3.6211
0.775264
-1.18329
-2.16488
-2.11727
-1.04714
0.992739
3.90909
7.26449
10.6456
14.181
17.8066
21.4634
25.0886
28.6302
32.0487
35.3137
38.4015
41.2952
43.9858
46.4748
48.7762
50.9072
52.8882
54.7657
56.5692
58.388
60.1082
66.7773
62.2053
58.0628
53.8834
49.7849
45.7613
41.751
37.7347
33.7344
29.776
25.8699
22.0356
18.4245
15.208
12.509
10.4058
8.99686
8.36248
8.542
9.53811
11.3148
13.6058
16.062
18.732
21.5568
24.4816
27.446
30.398
33.2975
36.1132
38.8208
41.4026
43.8474
46.1523
48.3239
50.3694
52.2972
54.1336
55.8959
57.6215
59.2525
66.9265
63.1123
59.6531
56.209
52.8661
49.6114
46.3908
43.1838
39.9996
36.8495
33.7335
30.6563
27.7119
25.0134
22.6445
20.6644
19.1559
18.1965
17.841
18.1205
19.0368
20.4555
22.1073
23.995
26.0706
28.2878
30.5942
32.9431
35.2971
37.6262
39.9063
42.1185
44.2496
46.2926
48.2482
50.1161
51.896
53.6007
55.238
56.8201
58.3182
67.0585
63.8446
60.925
58.0498
55.2863
52.616
49.9922
47.3961
44.8309
42.3012
39.8035
37.3373
34.9617
32.7494
30.7557
29.0218
27.6091
26.5803
25.9864
25.8657
26.2367
27.0463
28.0983
29.376
30.844
32.4663
34.2007
36.0088
37.8586
39.7234
41.581
43.4132
45.2059
46.9497
48.641
50.2748
51.8462
53.3603
54.8193
56.2243
57.5625
67.1654
64.4158
61.9136
59.4732
57.1483
54.9173
52.7398
50.5991
48.4953
46.4296
44.397
42.3952
40.4638
38.6513
36.9939
35.5201
34.2736
33.3014
32.6446
32.3382
32.4048
32.8337
33.4835
34.3325
35.3565
36.5282
37.8155
39.188
40.6198
42.0886
43.5751
45.0628
46.5383
47.9915
49.4168
50.8071
52.1552
53.4622
54.7269
55.9456
57.1131
67.2632
64.8806
62.7094
60.609
58.6235
56.7298
54.8928
53.0979
51.3436
49.6293
47.9503
46.3034
44.7164
43.2227
41.8464
40.6072
39.5361
38.6673
38.0322
37.6593
37.5693
37.7714
38.1621
38.7212
39.4327
40.2765
41.228
42.2642
43.3647
44.5115
45.6885
46.8816
48.0788
49.2705
50.4505
51.6111
52.7449
53.8509
54.9263
55.9659
56.9671
67.3565
65.2711
63.3682
61.5406
59.8247
58.1975
56.6277
55.1028
53.6205
52.1793
50.7747
49.4038
48.0862
46.8463
45.7
44.6609
43.7516
42.9966
42.4193
42.0416
41.8803
41.9526
42.1803
42.5472
43.0427
43.6518
44.3562
45.1382
45.9823
46.874
47.8005
48.75
49.7124
50.679
51.644
52.6001
53.5405
54.4632
55.3649
56.2403
57.0876
67.4477
65.6073
63.9261
62.3216
60.8246
59.412
58.0564
56.7468
55.4805
54.2557
53.068
51.915
50.8111
49.7738
48.8146
47.9427
47.1744
46.5276
46.0194
45.6662
45.4809
45.4824
45.6096
45.8504
46.1981
46.6412
47.1656
47.7581
48.4067
49.1002
49.8281
50.5812
51.3509
52.1299
52.9131
53.694
54.4667
55.2291
55.9777
56.7079
57.418
67.5372
65.9017
64.4063
62.9873
61.6707
60.4341
59.2534
58.1187
57.0271
55.9766
54.9633
53.985
53.0525
52.1786
51.3718
50.6381
49.9897
49.4395
49
48.6832
48.4989
48.4643
48.5309
48.6897
48.9366
49.2625
49.6566
50.1087
50.6097
51.1507
51.7235
52.3207
52.9353
53.5615
54.1947
54.8294
55.4608
56.0869
56.7045
57.3097
57.9005
67.6249
66.1627
64.8248
63.5619
62.3962
61.3061
60.2701
59.2794
58.3313
57.4234
56.5523
55.716
54.9225
54.1816
53.4993
52.88
52.3322
51.8656
51.4893
51.212
51.0407
50.9904
51.0211
51.1267
51.3047
51.5479
51.8475
52.1958
52.5856
53.0101
53.4627
53.9375
54.429
54.9323
55.4437
55.9587
56.4734
56.986
57.4936
57.9933
58.4825
67.7103
66.3962
65.1931
64.063
63.0247
62.0579
61.1432
60.2728
59.4439
58.6541
57.9003
57.1807
56.5014
55.8697
55.2899
54.7652
54.3016
53.9063
53.5859
53.3467
53.1935
53.1387
53.149
53.2201
53.3509
53.5352
53.7661
54.0373
54.3434
54.6789
55.0386
55.4178
55.8121
56.2176
56.6312
57.0494
57.4688
57.8882
58.3049
58.7167
59.1209
67.7931
66.6064
65.5195
64.5033
63.5738
62.7118
61.8997
61.1308
60.4021
59.7111
59.0552
58.4326
57.8478
57.3065
56.8117
56.3655
55.9724
55.6375
55.3655
55.161
55.0272
54.9741
54.9732
55.0221
55.1202
55.2623
55.4427
55.6564
55.8991
56.1665
56.4544
56.759
57.0768
57.4048
57.7404
58.0807
58.4231
58.7666
59.1088
59.4483
59.782
67.8727
66.7964
65.8105
64.8927
64.0567
63.2844
62.5601
61.8775
61.2337
60.6263
60.0528
59.5115
59.0058
58.5399
58.1159
57.7353
57.4012
57.1172
56.8867
56.713
56.5979
56.5495
56.5431
56.5776
56.6528
56.7643
56.9072
57.0777
57.2722
57.4871
57.7193
57.9657
58.2234
58.4899
58.7634
59.0413
59.3217
59.6036
59.8853
60.1654
60.4411
67.949
66.9689
66.0711
65.2387
64.4837
63.7888
63.1399
62.5313
61.96
61.4239
60.9203
60.4477
60.0087
59.6062
59.2417
58.9161
58.6315
58.3905
58.1953
58.0483
57.9504
57.908
57.8994
57.9246
57.9836
58.0726
58.1875
58.3251
58.4825
58.6569
58.8457
59.0463
59.2565
59.4744
59.6983
59.9262
60.1566
60.3889
60.6213
60.8531
61.0813
68.0218
67.1257
66.305
65.5473
64.8626
64.2349
63.6513
63.1066
62.5978
62.1227
61.6789
61.2649
60.8824
60.5336
60.2193
59.9401
59.6973
59.4926
59.3274
59.2034
59.1209
59.0847
59.0759
59.0951
59.1425
59.2147
59.3083
59.4206
59.5492
59.692
59.8466
60.0112
60.1838
60.3629
60.5471
60.735
60.9252
61.1172
61.3096
61.502
61.6914
68.0907
67.2684
66.5156
65.8233
65.2001
64.631
64.1042
63.6149
63.1602
62.7378
62.3455
61.9816
61.6474
61.3443
61.0727
60.8328
60.6253
60.4513
60.3117
60.2074
60.1383
60.1081
60.1002
60.1154
60.1543
60.2139
60.2911
60.3838
60.4899
60.6077
60.7354
60.8713
61.0139
61.162
61.3144
61.4699
61.6276
61.787
61.9469
62.1071
62.2647
68.1558
67.3984
66.7054
66.0706
65.5013
64.9834
64.5063
64.0653
63.6577
63.2811
62.9333
62.6127
62.32
62.056
61.8209
61.6144
61.4369
61.289
61.1711
61.0836
61.0262
61.0015
60.9949
61.0077
61.0403
61.0902
61.1546
61.2318
61.3202
61.4182
61.5243
61.6373
61.7558
61.8789
62.0056
62.1351
62.2664
62.3992
62.5326
62.6664
62.798
68.217
67.5166
66.8765
66.2924
65.7705
65.2976
64.8641
64.4655
64.099
63.7623
63.4532
63.1701
62.9132
62.683
62.4792
62.3013
62.1494
62.0237
61.9243
61.8511
61.8038
61.7841
61.7791
61.7903
61.8182
61.8604
61.9148
61.9797
62.0539
62.136
62.2248
62.3192
62.4183
62.5212
62.6271
62.7352
62.845
62.9561
63.0678
63.1799
63.2901
68.2743
67.6242
67.0307
66.4913
66.0112
65.578
65.1827
64.8213
64.491
64.1893
63.914
63.6636
63.4378
63.2368
63.0599
62.9067
62.7767
62.67
62.5863
62.5255
62.4867
62.4714
62.468
62.4782
62.5025
62.5388
62.5851
62.6402
62.7029
62.7721
62.8469
62.9263
63.0095
63.0958
63.1847
63.2754
63.3676
63.4608
63.5546
63.6489
63.7413
68.3276
67.7218
67.1696
66.6696
66.2263
65.8281
65.4667
65.1381
64.8396
64.5686
64.3231
64.1012
63.9026
63.7269
63.5734
63.4414
63.3304
63.24
63.1698
63.1194
63.088
63.0765
63.0748
63.0844
63.1059
63.1374
63.1773
63.2243
63.2777
63.3364
63.3997
63.4668
63.537
63.6098
63.6847
63.7611
63.8387
63.9172
63.9962
64.0756
64.1534
68.377
67.8101
67.2943
66.8292
66.4183
66.051
65.7194
65.4199
65.1495
64.9057
64.6863
64.4896
64.3147
64.1612
64.0281
63.9146
63.8199
63.7435
63.6849
63.6435
63.6184
63.6103
63.61
63.6193
63.6385
63.6662
63.7008
63.7413
63.787
63.8371
63.8909
63.9479
64.0074
64.0689
64.1322
64.1968
64.2623
64.3285
64.3952
64.4623
64.5278
68.4225
67.8898
67.406
66.9715
66.5892
66.2492
65.9441
65.6703
65.4248
65.205
65.0088
64.8342
64.6803
64.5462
64.431
64.3335
64.253
64.1888
64.1402
64.1065
64.0869
64.0817
64.0828
64.092
64.1096
64.1341
64.1644
64.1995
64.2389
64.2819
64.3279
64.3765
64.4271
64.4793
64.533
64.5876
64.6431
64.6991
64.7554
64.8122
64.8675
68.4642
67.9612
67.5055
67.098
66.7409
66.4249
66.1432
65.8921
65.6688
65.4704
65.2947
65.1398
65.0044
64.8875
64.7879
64.7045
64.6363
64.5827
64.5427
64.5158
64.5009
64.4981
64.5005
64.5096
64.5258
64.5478
64.5745
64.6051
64.6392
64.6763
64.7158
64.7573
64.8005
64.845
64.8906
64.9369
64.9839
65.0314
65.0791
65.1272
65.1739
68.502
68.0248
67.5935
67.2096
66.8745
66.5798
66.3188
66.088
65.8843
65.705
65.5476
65.4102
65.2912
65.1894
65.1037
65.0327
64.9754
64.9311
64.8987
64.8776
64.8669
64.8665
64.8701
64.8794
64.8945
64.9145
64.9383
64.9653
64.9951
65.0272
65.0613
65.0969
65.1339
65.1719
65.2107
65.2501
65.29
65.3303
65.3707
65.4114
65.4508
68.5362
68.0809
67.6708
67.3073
66.9915
66.7153
66.4727
66.2598
66.0737
65.9114
65.7704
65.6485
65.5441
65.4559
65.3825
65.3225
65.2748
65.2385
65.2128
65.1967
65.1895
65.191
65.1957
65.2051
65.2193
65.2376
65.2589
65.2827
65.3088
65.3368
65.3663
65.397
65.4288
65.4613
65.4944
65.528
65.562
65.5961
65.6304
65.6649
65.6982
68.5666
68.1298
67.7377
67.3918
67.0926
66.8327
66.6062
66.4093
66.2388
66.0917
65.9654
65.8575
65.7663
65.6902
65.6278
65.5776
65.5385
65.5096
65.4898
65.4785
65.4747
65.4781
65.4841
65.4939
65.5077
65.5247
65.5442
65.5656
65.5888
65.6134
65.6391
65.6658
65.6931
65.721
65.7494
65.778
65.8069
65.8359
65.8649
65.8941
65.9222
68.5933
68.1718
67.7948
67.4637
67.1787
66.9329
66.7205
66.5378
66.3812
66.2478
66.1346
66.0394
65.96
65.8948
65.8422
65.8008
65.7693
65.7468
65.7321
65.7247
65.7236
65.7285
65.7354
65.7454
65.7586
65.7744
65.7922
65.8114
65.832
65.8537
65.8762
65.8994
65.9231
65.9472
65.9716
65.9961
66.0207
66.0454
66.07
66.0948
66.1185
68.6164
68.2069
67.8422
67.5234
67.2504
67.0167
66.8166
66.6464
66.5023
66.381
66.2798
66.1959
66.1272
66.072
66.0285
65.9952
65.9709
65.9546
65.9451
65.9419
65.9439
65.9509
65.9593
65.9701
65.9835
65.9989
66.0157
66.0335
66.0523
66.0718
66.0918
66.1122
66.1328
66.1536
66.1745
66.1955
66.2165
66.2374
66.2582
66.2791
66.299
68.6358
68.2351
67.8798
67.5708
67.3077
67.0842
66.8949
66.7357
66.6027
66.4925
66.402
66.3285
66.2696
66.2234
66.188
66.1619
66.1437
66.1323
66.1269
66.1266
66.1306
66.1387
66.1478
66.1589
66.172
66.1865
66.2021
66.2185
66.2355
66.253
66.2708
66.2888
66.3069
66.3251
66.3433
66.3615
66.3795
66.3975
66.4153
66.433
66.4499
68.6515
68.2567
67.9081
67.6064
67.3509
67.1358
66.9555
66.8059
66.6828
66.5827
66.502
66.4381
66.3883
66.3506
66.3232
66.3045
66.2931
66.2878
66.2877
66.2918
66.2994
66.3102
66.3214
66.3341
66.3482
66.3631
66.3787
66.3946
66.4107
66.427
66.4433
66.4595
66.4756
66.4916
66.5074
66.523
66.5383
66.5535
66.5684
66.5833
66.5973
68.6639
68.2725
67.9284
67.6319
67.382
67.1732
67.0002
66.8585
66.7439
66.6524
66.5806
66.5253
66.4838
66.4538
66.4331
66.42
66.4132
66.4115
66.4141
66.4203
66.4294
66.4409
66.4528
66.4657
66.4796
66.4942
66.509
66.5239
66.5389
66.5539
66.5688
66.5835
66.598
66.6123
66.6263
66.6401
66.6537
66.6669
66.6799
66.6927
66.7049
68.6728
68.2815
67.9393
67.646
67.4002
67.1964
67.0294
66.8944
66.787
66.7031
66.639
66.5916
66.5581
66.5362
66.5238
66.5191
66.5204
66.5264
66.5359
66.5479
66.5618
66.5771
66.5922
66.6078
66.6237
66.6396
66.6553
66.6707
66.6858
66.7005
66.7147
66.7285
66.7419
66.7548
66.7672
66.7792
66.7908
66.802
66.8128
66.8233
66.8333
68.6767
68.2796
67.9345
67.6408
67.3965
67.1964
67.0347
66.9063
66.8062
66.7301
66.6737
66.6336
66.6066
66.5902
66.5821
66.5805
66.5842
66.5919
66.603
66.6167
66.6318
66.6478
66.6636
66.6796
66.6957
66.7115
66.727
66.742
66.7566
66.7706
66.7841
66.7971
66.8096
66.8215
66.8329
66.8438
66.8543
66.8643
66.8739
66.8831
66.8921
68.6755
68.2683
67.9166
67.6189
67.3731
67.1739
67.0156
66.8923
66.7988
66.7305
66.6831
66.6532
66.6375
66.6335
66.6386
66.6505
66.6674
66.6873
66.7088
66.7309
66.7528
66.7743
66.795
66.8149
66.8341
66.8523
66.8697
66.8861
66.9015
66.9161
66.9297
66.9426
66.9546
66.9659
66.9765
66.9865
66.9958
67.0046
67.0129
67.0206
67.0282
62.3352
66.4085
69.7651
71.7153
72.9
73.6931
74.1479
74.3554
74.4009
74.3367
74.1996
74.0168
73.8078
73.5854
73.3586
73.1334
72.9138
72.7023
72.5004
72.3088
72.128
71.9578
71.7982
71.6487
71.5089
71.3783
71.2565
71.1428
71.0367
70.9377
70.8452
70.7586
70.6775
70.6014
70.5298
70.4625
70.3991
70.3394
70.2831
70.2301
70.1802
70.1331
70.0889
70.0472
70.0078
69.9707
69.9357
69.9025
69.8711
69.8413
69.813
69.786
69.7603
69.7357
69.7122
69.6896
69.6679
69.6469
69.6267
69.6071
69.5881
69.5697
69.5517
69.5342
69.5172
69.5007
69.4846
69.4693
69.4543
69.4413
69.4268
69.4191
69.4014
69.4098
61.7255
66.1238
69.6237
71.7146
72.9633
73.7652
74.2111
74.4054
74.4374
74.3609
74.2133
74.0218
73.8057
73.5779
73.3468
73.1184
72.8965
72.6833
72.4802
72.288
72.1068
71.9365
71.777
71.6277
71.4883
71.3582
71.2369
71.1238
71.0184
70.92
70.8281
70.7422
70.6618
70.5863
70.5154
70.4486
70.3858
70.3266
70.2708
70.2183
70.1689
70.1223
70.0785
70.0372
69.9983
69.9616
69.9269
69.8941
69.863
69.8335
69.8055
69.7789
69.7534
69.7291
69.7059
69.6835
69.662
69.6413
69.6213
69.6019
69.5831
69.5649
69.5471
69.5298
69.5129
69.4966
69.4806
69.4655
69.4506
69.4377
69.4234
69.4158
69.3983
69.4067
61.267
65.4332
69.2861
71.6351
72.995
73.832
74.2808
74.4642
74.4809
74.3896
74.2292
74.0273
73.8029
73.5687
73.3326
73.1005
72.8759
72.6608
72.4565
72.2635
72.082
71.9117
71.7524
71.6035
71.4646
71.3351
71.2145
71.1022
70.9975
70.8999
70.8088
70.7237
70.644
70.5693
70.4991
70.4331
70.3709
70.3123
70.2572
70.2052
70.1564
70.1103
70.067
70.0262
69.9878
69.9515
69.9173
69.8849
69.8542
69.8251
69.7974
69.7711
69.746
69.722
69.699
69.677
69.6557
69.6353
69.6155
69.5964
69.5778
69.5597
69.5421
69.525
69.5083
69.4922
69.4764
69.4615
69.4467
69.434
69.4198
69.4123
69.395
69.4034
61.0132
64.8306
68.8578
71.4537
72.968
73.8664
74.3356
74.5204
74.527
74.4213
74.2468
74.0327
73.7987
73.5569
73.3151
73.0788
72.8512
72.6341
72.4284
72.2347
72.0529
71.8827
71.7237
71.5754
71.4372
71.3085
71.1887
71.0773
70.9736
70.877
70.7869
70.7027
70.624
70.5501
70.4808
70.4156
70.3542
70.2964
70.242
70.1907
70.1425
70.0971
70.0544
70.0142
69.9763
69.9405
69.9068
69.8748
69.8446
69.8159
69.7886
69.7627
69.7379
69.7143
69.6916
69.6699
69.6489
69.6288
69.6093
69.5904
69.572
69.5542
69.5368
69.5199
69.5035
69.4875
69.4719
69.4571
69.4425
69.4299
69.4159
69.4086
69.3914
69.3999
61.0643
64.5865
68.4985
71.1972
72.8658
73.8515
74.3558
74.552
74.5587
74.4464
74.2614
74.0358
73.7914
73.5413
73.2931
73.0521
72.8212
72.6019
72.3949
72.2005
72.0185
71.8485
71.69
71.5425
71.4052
71.2775
71.1589
71.0487
70.9461
70.8507
70.7618
70.6788
70.6011
70.5284
70.4601
70.3959
70.3354
70.2785
70.2249
70.1745
70.127
70.0823
70.0403
70.0008
69.9635
69.9284
69.8952
69.8638
69.834
69.8058
69.779
69.7535
69.7292
69.7059
69.6836
69.6622
69.6416
69.6217
69.6025
69.5839
69.5659
69.5483
69.5312
69.5145
69.4982
69.4825
69.4671
69.4525
69.4381
69.4257
69.4119
69.4046
69.3877
69.3962
61.2753
64.6292
68.3125
70.9745
72.714
73.7759
74.3304
74.5478
74.5584
74.4451
74.2573
74.0267
73.7756
73.5185
73.2642
73.0184
72.7842
72.5626
72.3544
72.1595
71.9776
71.8081
71.6504
71.5038
71.3678
71.2415
71.1242
71.0154
70.9144
70.8204
70.7329
70.6513
70.575
70.5036
70.4365
70.3735
70.3142
70.2583
70.2057
70.1562
70.1097
70.0659
70.0246
69.9859
69.9493
69.9149
69.8823
69.8516
69.8224
69.7948
69.7685
69.7435
69.7196
69.6968
69.6749
69.6539
69.6337
69.6141
69.5953
69.577
69.5592
69.5419
69.5251
69.5087
69.4927
69.4771
69.462
69.4476
69.4334
69.4212
69.4075
69.4004
69.3837
69.3923
61.5562
64.8323
68.2925
70.8677
72.5815
73.6597
74.2529
74.5011
74.5233
74.4097
74.2192
73.9875
73.7365
73.4787
73.2222
72.9737
72.7371
72.5139
72.3048
72.1098
71.9283
71.7597
71.6032
71.4581
71.3237
71.1991
71.0836
70.9767
70.8774
70.7853
70.6996
70.6197
70.5451
70.4752
70.4096
70.348
70.29
70.2354
70.184
70.1356
70.0901
70.0473
70.0071
69.9692
69.9335
69.8999
69.8681
69.8381
69.8096
69.7826
69.7569
69.7324
69.7091
69.6868
69.6654
69.6448
69.625
69.6059
69.5874
69.5695
69.5521
69.5351
69.5186
69.5024
69.4867
69.4714
69.4565
69.4424
69.4284
69.4163
69.4029
69.396
69.3795
69.3881
61.9301
65.0893
68.3401
70.8396
72.5034
73.5502
74.1431
74.4095
74.4483
74.342
74.1499
73.9138
73.661
73.4052
73.1526
72.9076
72.6732
72.4511
72.2426
72.0485
71.8683
71.7012
71.5466
71.4036
71.2713
71.149
71.0359
70.9312
70.8343
70.7444
70.6609
70.5831
70.5105
70.4425
70.3787
70.3188
70.2624
70.2093
70.1593
70.1123
70.068
70.0265
69.9873
69.9505
69.9159
69.8832
69.8523
69.8231
69.7954
69.7691
69.7441
69.7203
69.6976
69.6758
69.655
69.6349
69.6156
69.5969
69.5789
69.5614
69.5443
69.5277
69.5115
69.4957
69.4803
69.4653
69.4507
69.4368
69.423
69.4112
69.398
69.3912
69.3751
69.3837
62.477
65.3759
68.3343
70.7812
72.4299
73.4524
74.0273
74.2902
74.3352
74.2375
74.0505
73.8139
73.5573
73.298
73.0456
72.8052
72.578
72.3631
72.1604
71.9706
71.7938
71.6297
71.4779
71.3379
71.2087
71.0894
70.9792
70.8776
70.7835
70.6964
70.6156
70.5404
70.4703
70.4046
70.3431
70.2852
70.2307
70.1794
70.1311
70.0857
70.0429
70.0028
69.965
69.9294
69.896
69.8644
69.8345
69.8063
69.7795
69.7541
69.7299
69.7069
69.6848
69.6638
69.6435
69.6241
69.6053
69.5872
69.5696
69.5525
69.5359
69.5197
69.5039
69.4885
69.4734
69.4587
69.4444
69.4308
69.4173
69.4057
69.3928
69.3861
69.3703
69.3791
63.1836
65.6756
68.2407
70.6033
72.2519
73.2792
73.8738
74.1498
74.1993
74.1026
73.9183
73.6852
73.4303
73.1696
72.914
72.6718
72.4466
72.2379
72.0443
71.8644
71.6963
71.5392
71.3931
71.2578
71.1329
71.0177
70.9116
70.8138
70.7234
70.6399
70.5625
70.4905
70.4234
70.3606
70.3016
70.2463
70.1941
70.145
70.0987
70.0552
70.0143
69.9758
69.9396
69.9055
69.8735
69.8432
69.8146
69.7875
69.7618
69.7374
69.7141
69.692
69.6708
69.6504
69.6309
69.6121
69.594
69.5764
69.5594
69.5429
69.5268
69.511
69.4957
69.4806
69.4659
69.4516
69.4376
69.4243
69.4112
69.3998
69.3872
69.3808
69.3653
69.3741
63.8154
65.8774
68.002
70.2211
71.8787
72.9312
73.5709
73.9057
74.004
73.9356
73.7639
73.5351
73.2807
73.0197
72.7638
72.5208
72.2944
72.0855
71.8948
71.7218
71.5637
71.4178
71.2825
71.1566
71.0393
70.9305
70.83
70.7373
70.6518
70.5728
70.4997
70.4317
70.3683
70.309
70.2534
70.201
70.1517
70.1052
70.0613
70.0201
69.9813
69.9449
69.9106
69.8783
69.8479
69.8192
69.792
69.7663
69.7419
69.7186
69.6965
69.6753
69.6551
69.6356
69.617
69.599
69.5815
69.5647
69.5483
69.5324
69.5168
69.5016
69.4867
69.4722
69.4579
69.444
69.4304
69.4174
69.4046
69.3935
69.3812
69.375
69.36
69.3689
64.0337
65.7755
67.5131
69.5037
71.1464
72.2636
72.9885
73.4234
73.6207
73.6371
73.5306
73.3459
73.1147
72.8623
72.607
72.3609
72.1308
71.9193
71.7276
71.5556
71.4013
71.2625
71.1373
71.0234
70.9181
70.8202
70.7291
70.6443
70.5655
70.4925
70.4249
70.362
70.3034
70.2484
70.1968
70.1481
70.1022
70.0589
70.018
69.9795
69.9434
69.9093
69.8773
69.8471
69.8187
69.7918
69.7664
69.7423
69.7193
69.6975
69.6766
69.6567
69.6375
69.6192
69.6014
69.5843
69.5678
69.5517
69.5361
69.5208
69.5059
69.4913
69.477
69.463
69.4492
69.4358
69.4226
69.41
69.3976
69.3868
69.3749
69.3689
69.3543
69.3633
63.7423
65.2724
66.739
68.443
69.9709
71.116
71.9403
72.5165
72.872
73.0384
73.0609
72.9821
72.8344
72.6433
72.4281
72.2026
71.9782
71.7638
71.5652
71.3861
71.227
71.0871
70.965
70.8581
70.763
70.6774
70.5993
70.5267
70.4586
70.3947
70.3349
70.2788
70.2261
70.1767
70.13
70.086
70.0442
70.0048
69.9675
69.9324
69.8993
69.8682
69.8389
69.8113
69.7852
69.7605
69.7372
69.7149
69.6938
69.6735
69.6542
69.6357
69.6179
69.6007
69.5841
69.5681
69.5525
69.5374
69.5226
69.5081
69.494
69.4801
69.4664
69.453
69.4398
69.4268
69.4141
69.402
69.39
69.3796
69.3681
69.3624
69.3483
69.3574
63.0263
64.3902
65.6835
67.1283
68.4885
69.6046
70.4862
71.1719
71.675
72.0096
72.2025
72.2831
72.2764
72.2038
72.0847
71.9354
71.7685
71.5933
71.4163
71.2434
71.0798
70.9301
70.7977
70.6834
70.5865
70.5049
70.4358
70.3756
70.3213
70.271
70.2233
70.1774
70.1332
70.091
70.0507
70.0124
69.9759
69.9413
69.9085
69.8774
69.8481
69.8205
69.7945
69.7699
69.7466
69.7246
69.7036
69.6837
69.6646
69.6463
69.6288
69.6119
69.5957
69.5799
69.5647
69.5499
69.5355
69.5214
69.5076
69.4941
69.4808
69.4677
69.4548
69.4421
69.4295
69.4172
69.405
69.3934
69.3819
69.3719
69.3608
69.3554
69.3418
69.3512
62.0129
63.2361
64.4099
65.6641
66.868
67.9223
68.8171
69.5653
70.1702
70.6362
70.9774
71.2125
71.3592
71.4334
71.4494
71.4195
71.3545
71.2639
71.156
71.0376
70.9141
70.7892
70.6661
70.5486
70.4409
70.3465
70.2676
70.2038
70.1531
70.1125
70.0784
70.0473
70.017
69.9867
69.956
69.9253
69.8952
69.8663
69.8387
69.8126
69.788
69.7648
69.7427
69.7219
69.702
69.6831
69.6651
69.6478
69.6312
69.6153
69.5999
69.585
69.5705
69.5565
69.5428
69.5295
69.5164
69.5036
69.491
69.4785
69.4662
69.4541
69.442
69.4301
69.4183
69.4066
69.3951
69.3841
69.3731
69.3636
69.353
69.348
69.335
69.3447
60.8462
61.9508
63.0246
64.1367
65.2115
66.1933
67.0715
67.8462
68.5139
69.0729
69.5282
69.889
70.1666
70.3723
70.5172
70.6118
70.6649
70.6841
70.6754
70.6442
70.5953
70.5333
70.4624
70.3859
70.3067
70.2266
70.1481
70.0747
70.0099
69.9567
69.9158
69.8858
69.8639
69.8468
69.8312
69.8149
69.7969
69.7776
69.7575
69.7375
69.7181
69.6998
69.6824
69.6659
69.6502
69.635
69.6205
69.6064
69.5928
69.5796
69.5668
69.5542
69.5419
69.5299
69.5181
69.5065
69.495
69.4836
69.4724
69.4612
69.45
69.439
69.4279
69.4169
69.4059
69.3951
69.3843
69.374
69.3636
69.3546
69.3446
69.34
69.3276
69.3378
59.6721
60.668
61.6447
62.6371
63.6019
64.5091
65.3509
66.123
66.8194
67.4357
67.9711
68.4284
68.8125
69.1293
69.3859
69.5899
69.7488
69.8695
69.9582
70.02
70.0592
70.0791
70.0825
70.0723
70.051
70.0212
69.9853
69.945
69.9015
69.8557
69.81
69.7674
69.7312
69.7034
69.6841
69.6718
69.6638
69.6574
69.6507
69.6427
69.6332
69.6227
69.6117
69.6007
69.5899
69.5793
69.5689
69.5586
69.5486
69.5386
69.5288
69.519
69.5093
69.4996
69.49
69.4804
69.4708
69.4611
69.4515
69.4418
69.432
69.4222
69.4123
69.4024
69.3924
69.3825
69.3726
69.3629
69.3533
69.345
69.3356
69.3315
69.3198
69.3305
58.714
59.6019
60.4792
61.3611
62.2246
63.0536
63.8422
64.5856
65.2776
65.9133
66.4897
67.0058
67.4624
67.8614
68.2061
68.5005
68.7494
68.9578
69.1306
69.2727
69.3884
69.4815
69.5551
69.6116
69.6526
69.6799
69.6949
69.6992
69.695
69.6842
69.6686
69.6496
69.6278
69.6043
69.5812
69.5608
69.5453
69.5358
69.5315
69.5305
69.5308
69.5305
69.5289
69.5257
69.5214
69.5163
69.5108
69.505
69.4991
69.4928
69.4864
69.4798
69.473
69.466
69.4589
69.4516
69.4441
69.4364
69.4285
69.4205
69.4123
69.4039
69.3953
69.3866
69.3777
69.3688
69.3598
69.3511
69.3422
69.3346
69.3259
69.3224
69.3115
69.3228
58.089
58.8673
59.6427
60.4191
61.1854
61.933
62.6571
63.3531
64.0159
64.6407
65.224
65.7632
66.2569
66.7046
67.107
67.4653
67.782
68.0596
68.3013
68.5104
68.6902
68.844
68.9749
69.0855
69.1783
69.2552
69.3177
69.3672
69.4049
69.4322
69.4507
69.462
69.4677
69.4692
69.4672
69.4622
69.4549
69.4463
69.4386
69.4335
69.4321
69.4341
69.4381
69.4425
69.446
69.4479
69.4483
69.4475
69.4459
69.4437
69.441
69.4378
69.4341
69.43
69.4255
69.4207
69.4155
69.4099
69.404
69.3977
69.3912
69.3843
69.3772
69.3698
69.3621
69.3543
69.3463
69.3385
69.3305
69.3236
69.3156
69.3127
69.3026
69.3149
57.791
58.4608
59.1335
59.8077
60.4787
61.1419
61.7933
62.429
63.0448
63.6369
64.2016
64.7358
65.2373
65.7042
66.1355
66.5309
66.8908
67.2162
67.5084
67.7693
68.001
68.2057
68.3858
68.5434
68.6809
68.8004
68.9036
68.9924
69.0682
69.1323
69.1856
69.2291
69.264
69.2912
69.3121
69.3279
69.3394
69.3473
69.3518
69.3534
69.3534
69.3532
69.3548
69.3589
69.3652
69.3726
69.3795
69.385
69.3889
69.3914
69.3927
69.3931
69.3927
69.3917
69.3901
69.3878
69.385
69.3817
69.3779
69.3735
69.3687
69.3635
69.3579
69.3519
69.3455
69.3388
69.3319
69.3251
69.318
69.3118
69.3047
69.3025
69.2931
69.3066
57.7788
58.3441
58.9161
59.4922
60.0705
60.6485
61.223
61.7907
62.3484
62.8929
63.4211
63.9299
64.4168
64.8794
65.3161
65.7254
66.1065
66.4591
66.7834
67.0798
67.3493
67.5932
67.8127
68.0094
68.1851
68.3412
68.4796
68.6019
68.7097
68.8044
68.8876
68.9603
69.0234
69.0778
69.1239
69.1624
69.1941
69.2198
69.2406
69.257
69.2697
69.2788
69.2851
69.2897
69.2942
69.3001
69.3079
69.317
69.3261
69.3342
69.3406
69.3453
69.3487
69.351
69.3524
69.3529
69.3527
69.3518
69.3501
69.3478
69.3449
69.3414
69.3374
69.3329
69.3278
69.3224
69.3167
69.3108
69.3047
69.2994
69.2931
69.2917
69.283
69.298
57.9938
58.4627
58.9403
59.4247
59.9152
60.4101
60.9072
61.4039
61.8977
62.3861
62.8666
63.3364
63.793
64.2343
64.658
65.0624
65.446
65.8077
66.1468
66.4628
66.7558
67.026
67.274
67.5004
67.7064
67.893
68.0613
68.2127
68.3484
68.4698
68.5784
68.6752
68.7617
68.8388
68.9073
68.9678
69.0208
69.0665
69.1054
69.138
69.165
69.1873
69.2054
69.2198
69.2309
69.2394
69.2467
69.2543
69.2631
69.2731
69.2835
69.2931
69.3012
69.3075
69.3123
69.3159
69.3184
69.32
69.3207
69.3205
69.3196
69.318
69.3157
69.3127
69.3091
69.3051
69.3005
69.2958
69.2906
69.2862
69.2807
69.2802
69.2723
69.2891
58.3775
58.7607
59.1533
59.5546
59.9645
60.3816
60.8042
61.2308
61.6594
62.0881
62.5148
62.9375
63.3539
63.7619
64.1596
64.545
64.9163
65.2722
65.6113
65.9327
66.2356
66.5197
66.7847
67.0308
67.2583
67.4677
67.6597
67.835
67.9945
68.1392
68.2703
68.3886
68.4955
68.5918
68.6787
68.7571
68.8276
68.8909
68.9473
68.9969
69.04
69.0768
69.108
69.1341
69.1559
69.1738
69.1882
69.1998
69.2094
69.2184
69.2279
69.2385
69.2495
69.2599
69.2689
69.2763
69.282
69.2863
69.2895
69.2916