/*--------------------------------*- C++ -*----------------------------------*\
| =========                 |                                                 |
| \\      /  F ield         | OpenFOAM: The Open Source CFD Toolbox           |
|  \\    /   O peration     | Version:  5.x                                   |
|   \\  /    A nd           | Web:      www.OpenFOAM.org                      |
|    \\/     M anipulation  |                                                 |
\*---------------------------------------------------------------------------*/
FoamFile
{
    version     2.0;
    format      ascii;
    class       volScalarField;
    location    "500";
    object      p;
}
// * * * * * * * * * * * * * * * * * * * * * * * * * * * * * * * * * * * * * //

dimensions      [0 2 -2 0 0 0 0];

internalField   nonuniform List<scalar> 
11040
(
-0.00315352
-99.7371
-337.07
-401.181
-422.366
-435.342
-436.796
-426.498
-407.83
-381.898
-348.215
-296.47
-246.658
-211.18
-186.388
-159.959
-133.115
-107.758
-83.7546
-60.5871
-38.168
-18.8023
-2.6195
12.5256
26.7123
39.9643
52.2772
63.6392
73.9886
83.2257
91.2381
97.9056
103.173
107.107
109.909
111.835
112.625
112.045
111.719
115.207
115.268
36.5742
-59.9134
-212.481
-290.476
-331.385
-361.458
-379.29
-383.473
-376.491
-360.053
-334.368
-291.477
-246.303
-211.47
-186.132
-160.013
-133.477
-108.253
-84.3282
-61.2245
-38.8464
-19.5286
-3.3154
11.8594
26.078
39.3677
51.7257
63.1391
73.5489
82.8574
90.9465
97.6944
103.041
107.036
109.874
111.848
112.707
112.11
111.37
113.833
113.371
61.2522
-32.5028
-142.362
-234.017
-288.797
-325.03
-347.622
-356.289
-353.301
-340.64
-319.326
-283.742
-242.969
-208.961
-183.52
-158.394
-132.622
-107.793
-84.1404
-61.2565
-39.0377
-19.799
-3.62856
11.5155
25.7152
38.9978
51.3608
62.7894
73.2258
82.5744
90.7164
97.5291
102.942
106.995
109.873
111.886
112.809
112.267
111.383
113.047
112.234
78.632
-5.14149
-87.3814
-171.036
-229.426
-270.86
-300.453
-317.071
-321.367
-315.174
-300.016
-272.178
-236.926
-204.868
-179.753
-155.737
-130.954
-106.721
-83.4944
-60.9543
-38.991
-19.9188
-3.84688
11.2303
25.3836
38.6374
50.9889
62.421
72.8764
82.2612
90.4569
97.3386
102.828
106.955
109.885
111.922
112.883
112.401
111.471
112.65
112.007
92.325
20.5629
-43.3278
-114.93
-173.765
-218.798
-253.052
-275.643
-286.312
-286.345
-277.339
-257.135
-228.285
-199.192
-174.823
-151.957
-128.394
-104.994
-82.3619
-60.3085
-38.7293
-19.922
-4.01255
10.9435
25.0047
38.1913
50.5007
61.9129
72.3715
81.7846
90.0352
96.9983
102.589
106.825
109.842
111.915
112.913
112.52
111.587
112.59
112.449
102.743
42.9545
-8.03682
-67.4308
-121.972
-167.095
-203.667
-230.742
-247.188
-253.454
-250.818
-238.18
-216.312
-191.24
-168.363
-146.855
-124.764
-102.46
-80.6089
-59.1943
-38.1367
-19.6943
-4.02933
10.7327
24.6383
37.7024
49.9215
61.2736
71.7033
81.1221
89.4163
96.4639
102.176
106.552
109.698
111.843
112.908
112.669
111.825
112.813
113.221
110.632
61.6473
20.2349
-28.3142
-76.004
-118.363
-154.814
-184.215
-204.949
-216.692
-220.16
-214.759
-200.175
-180.217
-159.88
-140.157
-119.823
-98.92
-78.0919
-57.501
-37.1222
-19.1642
-3.8415
10.6428
24.3191
37.1931
49.2603
60.4978
70.8523
80.2404
88.5551
95.6803
101.524
106.072
109.394
111.668
112.862
112.869
112.247
113.291
114.237
116.573
76.7309
42.7926
3.35554
-36.8097
-74.5062
-108.739
-138.276
-161.394
-177.229
-185.911
-186.969
-179.466
-165.372
-148.669
-131.378
-113.186
-94.0589
-74.5727
-55.0469
-35.5491
-18.23
-3.36887
10.7365
24.0936
36.695
48.5331
59.5842
69.7988
79.1012
87.3948
94.5738
100.549
105.292
108.842
111.325
112.747
113.116
112.87
114.087
115.46
120.992
88.6111
60.665
28.6866
-4.39677
-36.6143
-67.1745
-94.9828
-118.511
-136.683
-149.188
-155.487
-154.304
-146.256
-134.055
-119.944
-104.374
-87.4614
-69.7146
-51.5656
-33.2027
-16.7139
-2.46074
11.1363
24.0614
36.2899
47.8057
58.5826
68.5745
77.715
85.9214
93.1035
99.1815
104.122
107.941
110.722
112.5
113.377
113.677
115.234
116.856
124.205
97.8115
74.7268
48.7907
21.8722
-4.9075
-31.1149
-55.9561
-78.2405
-96.9671
-111.612
-121.578
-125.455
-122.982
-115.662
-105.365
-92.9227
-78.6764
-63.1131
-46.7222
-29.8079
-14.3826
-0.91475
12.0143
24.3688
36.1051
47.1922
57.5973
67.2749
76.1667
84.2041
91.3149
97.4356
102.538
106.631
109.776
112.026
113.548
114.556
116.611
118.41
126.473
104.86
85.7388
64.6739
42.8981
21.0207
-0.809561
-22.116
-42.0568
-59.8692
-75.0282
-86.9587
-94.3094
-96.3509
-93.6503
-87.4332
-78.4977
-67.311
-54.3576
-40.1382
-25.0388
-10.9572
1.51274
13.5837
25.2016
36.3045
46.8417
56.7688
66.0381
74.5958
82.3839
89.3462
95.4362
100.637
104.965
108.477
111.24
113.458
115.259
117.889
119.979
128.021
110.232
94.3531
77.2072
59.6236
41.9222
24.0843
6.34845
-10.748
-26.6942
-41.0886
-53.4563
-62.6458
-67.7836
-68.8489
-66.4425
-61.0767
-53.162
-43.1351
-31.4581
-18.5445
-6.11547
5.11305
16.1085
26.7969
37.0998
46.945
56.2734
65.0318
73.1679
80.6307
87.3751
93.3677
98.6017
103.103
106.93
110.154
112.986
115.51
118.642
121.201
129.043
114.33
101.115
87.1219
72.9154
58.6549
44.2435
29.7727
15.5553
1.91051
-10.9186
-22.5958
-32.2292
-39.0114
-42.6457
-43.2903
-41.1269
-36.3838
-29.3742
-20.4649
-10.0319
0.456481
10.1965
19.89
29.4419
38.7595
47.7508
56.341
64.4695
72.0831
79.1346
85.5858
91.4117
96.6109
101.213
105.27
108.849
112.129
115.185
118.61
121.65
129.699
117.483
106.466
95.0145
83.5151
72.0389
60.4633
48.8008
37.2215
25.9093
14.9881
4.65898
-4.43649
-11.656
-16.6412
-19.316
-19.6248
-17.5992
-13.3891
-7.22499
0.60895
8.96418
17.0151
25.2092
33.4339
41.5855
49.5563
57.2582
64.6237
71.5971
78.1319
84.1932
89.7594
94.8302
99.432
103.604
107.397
110.939
114.3
117.801
121.074
130.113
119.941
110.749
101.353
92.0234
82.7813
73.5043
64.1684
54.8602
45.6769
36.675
27.9514
19.9394
13.1047
7.75839
4.05423
2.15853
2.17166
4.08615
7.80916
13.1731
19.3744
25.6455
32.2224
38.9866
45.8311
52.6408
59.3186
65.7907
71.9994
77.8984
83.4526
88.64
93.4562
97.9197
102.054
105.888
109.503
112.948
116.374
119.611
130.394
121.913
114.237
106.51
98.9192
91.4623
84.027
76.5753
69.1482
61.7932
54.5288
47.3921
40.6621
34.6567
29.6057
25.6566
22.9921
21.7633
22.0469
23.8517
27.1152
31.3489
35.906
40.875
46.1462
51.6197
57.1844
62.7433
68.2211
73.5583
78.7075
83.6325
88.309
92.7268
96.8939
100.818
104.509
108.011
111.353
114.596
117.656
130.657
123.58
117.171
110.803
104.612
98.5813
92.6116
86.6636
80.754
74.9044
69.1136
63.3916
57.9111
52.8814
48.4593
44.7567
41.9263
40.1139
39.4232
39.9151
41.5959
44.2192
47.2872
50.804
54.6798
58.8303
63.1587
67.5776
72.017
76.4199
80.7396
84.9392
88.9912
92.8793
96.602
100.155
103.534
106.761
109.849
112.816
115.622
130.893
124.93
119.522
114.206
109.089
104.142
99.2795
94.466
89.7071
85.0116
80.3722
75.7892
71.3714
67.2532
63.5381
60.304
57.6643
55.7364
54.6166
54.3779
55.0568
56.5564
58.5146
60.899
63.6436
66.6825
69.9381
73.338
76.8222
80.3403
83.8497
87.3151
90.7084
94.0102
97.2121
100.302
103.27
106.123
108.864
111.492
113.992
131.089
125.987
121.354
116.841
112.536
108.404
104.369
100.401
96.4998
92.6672
88.894
85.1765
81.588
78.2178
75.1337
72.3896
70.0665
68.2522
67.0243
66.449
66.5695
67.3668
68.58
70.1681
72.0853
74.2824
76.6993
79.2794
81.9739
84.7407
87.5429
90.3491
93.133
95.8745
98.5623
101.182
103.718
106.173
108.543
110.82
112.997
131.271
126.851
122.831
118.947
115.271
111.764
108.361
105.035
101.783
98.6036
95.4882
92.4316
89.4848
86.7101
84.1521
81.8481
79.8559
78.2392
77.0572
76.3635
76.1974
76.5764
77.3094
78.3584
79.6931
81.2768
83.0643
85.0119
87.0816
89.2392
91.4543
93.7001
95.9534
98.1956
100.415
102.595
104.723
106.795
108.807
110.747
112.613
131.448
127.579
124.057
120.677
117.501
114.488
111.581
108.755
106.008
103.336
100.732
98.1886
95.7439
93.4423
91.3142
89.3848
87.6961
86.2942
85.2228
84.5232
84.2274
84.3667
84.7973
85.4882
86.4198
87.5646
88.8885
90.3584
91.9449
93.6211
95.3625
97.1469
98.9549
100.77
102.581
104.374
106.135
107.861
109.546
111.179
112.757
131.622
128.209
125.097
122.13
119.359
116.744
114.234
111.808
109.462
107.192
104.991
102.853
100.806
98.8819
97.1028
95.4855
94.0607
92.8618
91.9207
91.2683
90.9293
90.9375
91.1815
91.6372
92.2925
93.1264
94.1127
95.2265
96.4451
97.7476
99.1145
100.528
101.972
103.433
104.9
106.362
107.807
109.232
110.629
111.991
113.313
131.794
128.762
125.994
123.37
120.933
118.644
116.458
114.357
112.335
110.389
108.512
106.699
104.97
103.351
101.856
100.496
99.295
98.2766
97.4641
96.8804
96.5435
96.4851
96.6158
96.9182
97.3848
97.9992
98.7408
99.5908
100.532
101.547
102.622
103.742
104.894
106.066
107.251
108.438
109.618
110.787
111.939
113.067
114.167
131.964
129.253
126.777
124.442
122.284
120.267
118.349
116.515
114.759
113.078
111.464
109.915
108.446
107.073
105.81
104.663
103.65
102.787
102.093
101.582
101.27
101.182
101.245
101.448
101.786
102.245
102.809
103.464
104.196
104.992
105.841
106.73
107.651
108.592
109.549
110.511
111.472
112.428
113.375
114.305
115.216
132.129
129.693
127.467
125.377
123.456
121.666
119.973
118.362
116.828
115.366
113.97
112.638
111.38
110.211
109.138
108.168
107.311
106.581
105.99
105.551
105.271
105.175
105.2
105.337
105.586
105.935
106.37
106.88
107.454
108.084
108.758
109.468
110.206
110.964
111.737
112.517
113.3
114.082
114.859
115.626
116.378
132.289
130.09
128.079
126.199
124.48
122.885
121.382
119.959
118.61
117.331
116.118
114.965
113.883
112.882
111.967
111.142
110.416
109.798
109.297
108.922
108.679
108.585
108.588
108.684
108.871
109.14
109.48
109.882
110.338
110.839
111.379
111.949
112.543
113.156
113.783
114.418
115.057
115.697
116.334
116.966
117.588
132.444
130.449
128.625
126.927
125.381
123.952
122.612
121.349
120.158
119.034
117.973
116.971
116.036
115.175
114.391
113.688
113.071
112.548
112.124
111.806
111.597
111.511
111.504
111.572
111.716
111.927
112.197
112.518
112.883
113.286
113.721
114.181
114.663
115.161
115.672
116.19
116.713
117.238
117.763
118.285
118.798
132.592
130.775
129.114
127.575
126.178
124.892
123.692
122.566
121.51
120.518
119.586
118.713
117.901
117.157
116.484
115.883
115.358
114.914
114.556
114.286
114.109
114.034
114.022
114.072
114.186
114.354
114.571
114.83
115.126
115.453
115.806
116.181
116.574
116.981
117.399
117.824
118.254
118.687
119.119
119.551
119.976
132.733
131.072
129.554
128.153
126.886
125.725
124.645
123.638
122.697
121.818
120.998
120.233
119.526
118.881
118.301
117.786
117.339
116.962
116.659
116.432
116.283
116.219
116.206
116.245
116.336
116.473
116.65
116.861
117.103
117.37
117.66
117.968
118.29
118.625
118.968
119.319
119.673
120.031
120.389
120.748
121.1
132.866
131.343
129.95
128.669
127.517
126.464
125.49
124.585
123.744
122.963
122.238
121.566
120.948
120.389
119.888
119.445
119.063
118.743
118.487
118.297
118.172
118.119
118.107
118.138
118.213
118.326
118.472
118.647
118.846
119.067
119.306
119.56
119.827
120.103
120.388
120.678
120.972
121.269
121.566
121.865
122.158
132.992
131.589
130.307
129.133
128.08
127.122
126.24
125.424
124.671
123.975
123.332
122.74
122.199
121.712
121.279
120.898
120.572
120.3
120.084
119.924
119.821
119.778
119.768
119.794
119.857
119.952
120.074
120.219
120.385
120.569
120.767
120.979
121.2
121.43
121.667
121.908
122.153
122.4
122.649
122.898
123.143
133.111
131.813
130.629
129.548
128.583
127.709
126.907
126.17
125.493
124.871
124.3
123.777
123.303
122.878
122.502
122.175
121.896
121.665
121.483
121.35
121.265
121.23
121.223
121.246
121.3
121.381
121.483
121.606
121.745
121.899
122.065
122.242
122.427
122.619
122.817
123.019
123.223
123.43
123.638
123.847
124.053
133.222
132.017
130.919
129.921
129.033
128.232
127.502
126.834
126.223
125.666
125.158
124.695
124.279
123.908
123.582
123.3
123.062
122.866
122.713
122.602
122.533
122.506
122.502
122.523
122.57
122.639
122.727
122.83
122.948
123.078
123.218
123.367
123.522
123.683
123.849
124.019
124.19
124.364
124.539
124.715
124.887
133.325
132.203
131.181
130.256
129.436
128.7
128.032
127.424
126.873
126.372
125.919
125.51
125.144
124.82
124.537
124.294
124.091
123.925
123.797
123.705
123.649
123.63
123.628
123.648
123.689
123.749
123.825
123.914
124.014
124.124
124.243
124.368
124.5
124.636
124.775
124.918
125.063
125.209
125.356
125.504
125.65
133.42
132.37
131.416
130.555
129.795
129.116
128.503
127.95
127.451
127
126.596
126.233
125.91
125.628
125.383
125.174
125
124.861
124.754
124.679
124.634
124.621
124.622
124.641
124.678
124.731
124.796
124.872
124.958
125.052
125.153
125.26
125.371
125.486
125.604
125.725
125.847
125.971
126.095
126.22
126.343
133.508
132.521
131.626
130.822
130.115
129.487
128.923
128.417
127.964
127.558
127.196
126.874
126.591
126.344
126.132
125.953
125.806
125.688
125.6
125.539
125.505
125.496
125.5
125.518
125.552
125.599
125.656
125.723
125.797
125.877
125.964
126.055
126.149
126.247
126.347
126.449
126.553
126.657
126.762
126.868
126.972
133.589
132.657
131.813
131.06
130.399
129.815
129.295
128.831
128.419
128.053
127.729
127.443
127.194
126.979
126.796
126.643
126.518
126.42
126.348
126.299
126.273
126.27
126.275
126.294
126.325
126.367
126.417
126.475
126.539
126.609
126.683
126.761
126.842
126.925
127.01
127.097
127.184
127.273
127.362
127.452
127.539
133.662
132.778
131.979
131.269
130.65
130.105
129.623
129.197
128.821
128.49
128.2
127.947
127.728
127.541
127.383
127.253
127.149
127.068
127.009
126.972
126.953
126.954
126.962
126.98
127.009
127.047
127.092
127.143
127.2
127.26
127.324
127.391
127.46
127.531
127.604
127.677
127.752
127.827
127.903
127.979
128.052
133.728
132.884
132.125
131.453
130.869
130.358
129.91
129.517
129.174
128.875
128.615
128.391
128.199
128.037
127.902
127.792
127.706
127.64
127.593
127.565
127.553
127.557
127.567
127.585
127.613
127.647
127.688
127.733
127.782
127.834
127.89
127.948
128.007
128.068
128.13
128.193
128.256
128.32
128.384
128.448
128.511
133.787
132.977
132.251
131.611
131.058
130.578
130.16
129.796
129.482
129.211
128.978
128.78
128.613
128.473
128.359
128.267
128.196
128.144
128.108
128.089
128.083
128.09
128.103
128.122
128.148
128.181
128.218
128.258
128.302
128.348
128.396
128.446
128.498
128.55
128.603
128.657
128.711
128.765
128.819
128.874
128.926
133.838
133.057
132.359
131.747
131.22
130.766
130.374
130.036
129.748
129.502
129.294
129.119
128.973
128.854
128.758
128.683
128.626
128.585
128.559
128.547
128.546
128.556
128.569
128.589
128.614
128.644
128.678
128.714
128.753
128.794
128.836
128.88
128.925
128.97
129.015
129.061
129.107
129.154
129.2
129.246
129.29
133.883
133.124
132.449
131.859
131.354
130.923
130.553
130.239
129.974
129.751
129.565
129.411
129.285
129.184
129.105
129.045
129.001
128.972
128.955
128.951
128.955
128.969
128.986
129.007
129.033
129.062
129.094
129.127
129.163
129.2
129.237
129.275
129.314
129.353
129.393
129.432
129.471
129.51
129.549
129.588
129.626
133.92
133.178
132.52
131.948
131.462
131.049
130.7
130.406
130.162
129.959
129.793
129.658
129.551
129.466
129.402
129.355
129.323
129.303
129.294
129.294
129.303
129.319
129.336
129.358
129.383
129.41
129.44
129.471
129.503
129.536
129.569
129.603
129.637
129.672
129.706
129.74
129.774
129.807
129.841
129.874
129.906
133.951
133.219
132.573
132.015
131.543
131.146
130.814
130.538
130.312
130.128
129.98
129.863
129.772
129.704
129.654
129.621
129.601
129.593
129.593
129.602
129.617
129.638
129.66
129.684
129.711
129.74
129.769
129.799
129.83
129.86
129.891
129.921
129.952
129.982
130.011
130.041
130.069
130.098
130.126
130.154
130.18
133.975
133.249
132.612
132.064
131.602
131.217
130.898
130.637
130.426
130.258
130.127
130.026
129.951
129.896
129.859
129.837
129.825
129.823
129.829
129.841
129.859
129.881
129.904
129.929
129.955
129.983
130.011
130.039
130.067
130.096
130.124
130.151
130.179
130.206
130.232
130.258
130.283
130.308
130.333
130.357
130.38
133.992
133.267
132.633
132.091
131.636
131.26
130.953
130.704
130.507
130.353
130.236
130.15
130.09
130.051
130.029
130.022
130.026
130.038
130.057
130.08
130.107
130.136
130.165
130.195
130.225
130.255
130.285
130.314
130.342
130.37
130.397
130.423
130.448
130.472
130.495
130.518
130.54
130.561
130.581
130.601
130.619
133.999
133.263
132.625
132.081
131.63
131.261
130.963
130.727
130.544
130.404
130.302
130.229
130.181
130.152
130.139
130.137
130.145
130.16
130.182
130.208
130.237
130.267
130.297
130.328
130.358
130.388
130.417
130.446
130.473
130.499
130.525
130.549
130.573
130.595
130.617
130.637
130.657
130.676
130.694
130.711
130.728
133.997
133.243
132.591
132.041
131.587
131.22
130.928
130.702
130.531
130.406
130.32
130.267
130.24
130.234
130.245
130.269
130.302
130.34
130.382
130.424
130.465
130.506
130.544
130.582
130.618
130.653
130.685
130.716
130.745
130.773
130.798
130.822
130.845
130.866
130.886
130.905
130.923
130.939
130.955
130.969
130.983
125.733
133.168
139.068
142.361
144.217
145.365
145.925
146.063
145.937
145.639
145.236
144.773
144.28
143.78
143.285
142.804
142.342
141.904
141.489
141.099
140.734
140.392
140.072
139.774
139.496
139.238
138.997
138.773
138.564
138.37
138.188
138.019
137.861
137.713
137.574
137.444
137.321
137.206
137.097
136.994
136.898
136.807
136.721
136.641
136.565
136.493
136.425
136.361
136.301
136.243
136.189
136.137
136.087
136.04
135.995
135.951
135.909
135.869
135.83
135.793
135.756
135.721
135.686
135.653
135.62
135.588
135.556
135.527
135.497
135.471
135.442
135.425
135.391
135.403
124.722
132.718
138.884
142.41
144.364
145.516
146.05
146.159
146.004
145.681
145.258
144.778
144.272
143.762
143.259
142.772
142.307
141.866
141.449
141.058
140.692
140.35
140.031
139.734
139.457
139.199
138.959
138.736
138.529
138.336
138.156
137.988
137.831
137.685
137.547
137.418
137.296
137.182
137.074
136.972
136.877
136.786
136.702
136.622
136.547
136.476
136.409
136.345
136.285
136.229
136.175
136.123
136.074
136.028
135.983
135.94
135.899
135.859
135.82
135.783
135.747
135.712
135.678
135.644
135.612
135.58
135.549
135.519
135.49
135.464
135.436
135.419
135.385
135.397
123.971
131.529
138.346
142.325
144.459
145.659
146.189
146.271
146.084
145.731
145.283
144.784
144.262
143.74
143.228
142.735
142.265
141.82
141.402
141.01
140.644
140.302
139.983
139.687
139.411
139.155
138.916
138.695
138.489
138.298
138.119
137.953
137.798
137.652
137.516
137.388
137.268
137.155
137.048
136.948
136.853
136.764
136.68
136.601
136.527
136.457
136.391
136.328
136.269
136.213
136.159
136.109
136.06
136.014
135.97
135.928
135.887
135.847
135.809
135.773
135.737
135.702
135.668
135.635
135.603
135.572
135.541
135.512
135.483
135.457
135.429
135.412
135.379
135.391
123.573
130.505
137.646
142.056
144.453
145.749
146.3
146.376
146.166
145.785
145.31
144.788
144.248
143.712
143.19
142.69
142.215
141.767
141.346
140.953
140.587
140.245
139.928
139.632
139.358
139.104
138.867
138.647
138.444
138.254
138.077
137.913
137.76
137.616
137.482
137.355
137.237
137.125
137.019
136.92
136.827
136.739
136.656
136.579
136.505
136.436
136.371
136.309
136.251
136.196
136.143
136.093
136.045
136
135.956
135.914
135.874
135.835
135.798
135.762
135.726
135.692
135.658
135.626
135.594
135.563
135.533
135.504
135.475
135.45
135.422
135.405
135.372
135.384
123.69
130.118
137.07
141.653
144.311
145.751
146.353
146.438
146.22
145.824
145.329
144.785
144.227
143.676
143.143
142.634
142.153
141.702
141.28
140.886
140.52
140.179
139.863
139.569
139.297
139.044
138.81
138.593
138.391
138.204
138.03
137.868
137.716
137.575
137.442
137.318
137.201
137.091
136.987
136.89
136.798
136.711
136.63
136.553
136.481
136.413
136.349
136.289
136.231
136.177
136.125
136.076
136.029
135.984
135.941
135.9
135.86
135.822
135.785
135.749
135.715
135.681
135.648
135.616
135.584
135.554
135.524
135.495
135.467
135.442
135.414
135.398
135.365
135.377
124.066
130.223
136.784
141.305
144.077
145.64
146.323
146.439
146.22
145.813
145.31
144.757
144.188
143.625
143.081
142.565
142.078
141.624
141.2
140.805
140.439
140.1
139.786
139.494
139.225
138.975
138.743
138.529
138.33
138.146
137.975
137.815
137.667
137.528
137.398
137.276
137.161
137.053
136.951
136.855
136.765
136.68
136.601
136.525
136.455
136.388
136.325
136.266
136.209
136.156
136.105
136.057
136.011
135.967
135.925
135.884
135.846
135.808
135.772
135.737
135.702
135.669
135.637
135.605
135.574
135.544
135.514
135.486
135.458
135.433
135.406
135.39
135.357
135.37
124.565
130.587
136.738
141.134
143.87
145.451
146.194
146.361
146.159
145.747
145.233
144.674
144.102
143.538
142.993
142.473
141.983
141.526
141.102
140.708
140.343
140.006
139.694
139.406
139.14
138.894
138.666
138.455
138.26
138.079
137.911
137.755
137.61
137.474
137.347
137.228
137.115
137.01
136.91
136.817
136.728
136.646
136.568
136.494
136.425
136.36
136.299
136.24
136.185
136.133
136.084
136.036
135.991
135.948
135.907
135.868
135.829
135.793
135.757
135.723
135.689
135.656
135.624
135.593
135.563
135.533
135.504
135.476
135.449
135.424
135.397
135.382
135.349
135.362
125.243
131.013
136.743
141.05
143.731
145.261
146.003
146.199
146.024
145.625
145.107
144.537
143.957
143.392
142.851
142.338
141.855
141.402
140.979
140.588
140.227
139.893
139.585
139.301
139.039
138.798
138.574
138.368
138.178
138.001
137.838
137.686
137.544
137.412
137.288
137.172
137.063
136.961
136.864
136.773
136.687
136.606
136.53
136.459
136.392
136.329
136.269
136.212
136.159
136.108
136.06
136.014
135.97
135.928
135.888
135.849
135.812
135.776
135.741
135.707
135.674
135.642
135.611
135.581
135.551
135.522
135.493
135.466
135.439
135.414
135.388
135.373
135.341
135.353
126.216
131.446
136.604
140.846
143.543
145.059
145.788
145.984
145.822
145.435
144.927
144.356
143.768
143.195
142.65
142.141
141.667
141.227
140.817
140.436
140.082
139.755
139.453
139.175
138.919
138.683
138.466
138.266
138.081
137.91
137.751
137.605
137.468
137.34
137.221
137.109
137.003
136.904
136.811
136.723
136.64
136.562
136.489
136.42
136.355
136.293
136.236
136.181
136.129
136.08
136.033
135.989
135.946
135.905
135.866
135.829
135.793
135.758
135.724
135.691
135.659
135.628
135.597
135.567
135.538
135.509
135.481
135.454
135.428
135.404
135.378
135.363
135.332
135.344
127.367
131.811
136.238
140.352
143.102
144.668
145.459
145.706
145.57
145.191
144.685
144.119
143.536
142.962
142.414
141.899
141.425
140.991
140.594
140.229
139.892
139.58
139.29
139.021
138.774
138.546
138.337
138.144
137.966
137.802
137.65
137.51
137.379
137.257
137.143
137.035
136.934
136.839
136.75
136.665
136.586
136.511
136.441
136.375
136.312
136.254
136.198
136.146
136.096
136.049
136.004
135.961
135.92
135.88
135.843
135.806
135.771
135.738
135.705
135.673
135.642
135.611
135.582
135.553
135.524
135.496
135.469
135.442
135.416
135.393
135.368
135.353
135.322
135.335
128.182
131.854
135.497
139.359
142.195
143.879
144.795
145.179
145.159
144.86
144.394
143.845
143.265
142.69
142.141
141.625
141.151
140.717
140.322
139.965
139.642
139.347
139.077
138.827
138.595
138.38
138.181
137.998
137.83
137.674
137.531
137.398
137.274
137.159
137.051
136.95
136.854
136.764
136.679
136.599
136.524
136.453
136.386
136.323
136.264
136.209
136.156
136.106
136.058
136.013
135.97
135.93
135.89
135.853
135.817
135.782
135.748
135.716
135.684
135.653
135.623
135.594
135.565
135.537
135.509
135.482
135.455
135.43
135.404
135.381
135.357
135.342
135.312
135.325
128.095
131.226
134.22
137.669
140.501
142.356
143.491
144.116
144.325
144.22
143.905
143.462
142.947
142.402
141.86
141.341
140.86
140.42
140.022
139.666
139.348
139.063
138.806
138.575
138.364
138.169
137.989
137.821
137.666
137.522
137.389
137.266
137.151
137.044
136.944
136.85
136.761
136.677
136.598
136.523
136.452
136.386
136.324
136.265
136.21
136.157
136.108
136.061
136.016
135.974
135.933
135.895
135.858
135.822
135.788
135.755
135.723
135.691
135.661
135.632
135.603
135.575
135.547
135.52
135.493
135.466
135.441
135.416
135.391
135.369
135.345
135.331
135.301
135.314
127.065
129.834
132.399
135.346
137.979
139.917
141.272
142.189
142.726
142.936
142.897
142.682
142.35
141.944
141.5
141.04
140.585
140.148
139.741
139.371
139.042
138.751
138.496
138.273
138.077
137.902
137.743
137.597
137.462
137.336
137.218
137.108
137.005
136.909
136.818
136.733
136.652
136.575
136.503
136.434
136.37
136.309
136.252
136.198
136.147
136.099
136.053
136.01
135.968
135.929
135.891
135.855
135.821
135.787
135.755
135.724
135.694
135.665
135.636
135.608
135.581
135.554
135.527
135.501
135.475
135.45
135.425
135.401
135.377
135.355
135.332
135.318
135.29
135.303
125.298
127.774
130.071
132.594
134.955
136.873
138.363
139.502
140.32
140.848
141.133
141.227
141.175
141.011
140.768
140.471
140.142
139.799
139.453
139.113
138.788
138.485
138.211
137.972
137.766
137.591
137.443
137.316
137.203
137.101
137.006
136.916
136.83
136.747
136.669
136.594
136.523
136.455
136.391
136.331
136.273
136.219
136.168
136.12
136.074
136.031
135.99
135.951
135.914
135.878
135.844
135.811
135.779
135.749
135.719
135.69
135.662
135.635
135.608
135.582
135.556
135.531
135.505
135.481
135.456
135.432
135.408
135.385
135.362
135.341
135.318
135.305
135.278
135.291
123.041
125.271
127.382
129.603
131.719
133.559
135.106
136.385
137.409
138.187
138.748
139.125
139.351
139.456
139.464
139.397
139.271
139.1
138.898
138.676
138.442
138.204
137.968
137.739
137.523
137.327
137.157
137.016
136.901
136.809
136.734
136.669
136.608
136.549
136.49
136.431
136.372
136.315
136.261
136.209
136.16
136.114
136.071
136.03
135.99
135.953
135.918
135.884
135.851
135.82
135.79
135.76
135.732
135.705
135.678
135.652
135.627
135.602
135.577
135.553
135.529
135.505
135.482
135.458
135.435
135.412
135.389
135.367
135.345
135.325
135.304
135.291
135.265
135.279
120.552
122.577
124.526
126.52
128.436
130.177
131.724
133.08
134.242
135.209
135.991
136.606
137.075
137.418
137.658
137.811
137.896
137.925
137.908
137.854
137.769
137.66
137.533
137.394
137.247
137.097
136.947
136.801
136.667
136.55
136.455
136.382
136.327
136.286
136.251
136.218
136.184
136.147
136.108
136.069
136.03
135.993
135.958
135.925
135.893
135.863
135.834
135.806
135.779
135.753
135.728
135.703
135.679
135.655
135.632
135.609
135.586
135.564
135.542
135.52
135.499
135.477
135.455
135.434
135.412
135.391
135.369
135.348
135.327
135.309
135.288
135.276
135.251
135.265
118.1
119.935
121.721
123.521
125.262
126.894
128.4
129.777
131.013
132.103
133.048
133.852
134.525
135.078
135.525
135.88
136.155
136.364
136.518
136.627
136.698
136.737
136.75
136.738
136.706
136.657
136.595
136.523
136.445
136.361
136.275
136.19
136.112
136.047
135.997
135.962
135.937
135.92
135.904
135.887
135.869
135.848
135.825
135.803
135.78
135.758
135.737
135.716
135.696
135.676
135.656
135.637
135.617
135.598
135.579
135.56
135.541
135.522
135.503
135.484
135.465
135.446
135.426
135.407
135.387
135.367
135.347
135.328
135.308
135.29
135.271
135.26
135.236
135.252
116.113
117.753
119.367
120.98
122.554
124.061
125.489
126.831
128.077
129.219
130.252
131.176
131.991
132.703
133.317
133.841
134.284
134.654
134.962
135.215
135.421
135.589
135.723
135.829
135.91
135.968
136.004
136.021
136.021
136.007
135.981
135.948
135.908
135.865
135.819
135.775
135.737
135.709
135.691
135.681
135.676
135.673
135.668
135.661
135.652
135.641
135.629
135.616
135.603
135.59
135.577
135.563
135.55
135.535
135.521
135.506
135.491
135.476
135.46
135.444
135.428
135.411
135.394
135.377
135.359
135.342
135.323
135.306
135.287
135.271
135.253
135.243
135.22
135.237
114.803
116.244
117.675
119.103
120.51
121.878
123.2
124.468
125.673
126.806
127.863
128.838
129.73
130.537
131.263
131.909
132.479
132.98
133.415
133.793
134.118
134.396
134.634
134.836
135.007
135.151
135.27
135.367
135.444
135.502
135.543
135.57
135.585
135.589
135.587
135.578
135.565
135.548
135.53
135.514
135.504
135.499
135.501
135.505
135.509
135.512
135.511
135.509
135.504
135.499
135.492
135.485
135.477
135.468
135.459
135.449
135.438
135.426
135.414
135.402
135.389
135.375
135.361
135.346
135.33
135.314
135.298
135.282
135.265
135.25
135.233
135.225
135.203
135.222
114.142
115.384
116.629
117.874
119.11
120.33
121.527
122.692
123.819
124.9
125.93
126.903
127.816
128.665
129.448
130.166
130.82
131.411
131.942
132.416
132.837
133.21
133.539
133.827
134.079
134.299
134.489
134.655
134.797
134.919
135.022
135.108
135.178
135.234
135.278
135.31
135.334
135.349
135.359
135.363
135.362
135.359
135.356
135.357
135.363
135.372
135.382
135.391
135.397
135.401
135.402
135.401
135.399
135.396
135.392
135.387
135.381
135.374
135.366
135.357
135.347
135.336
135.325
135.312
135.299
135.286
135.271
135.257
135.242
135.229
135.213
135.206
135.185
135.206
114.042
115.09
116.15
117.217
118.286
119.353
120.411
121.456
122.482
123.481
124.45
125.382
126.272
127.118
127.916
128.663
129.359
130.003
130.594
131.136
131.628
132.074
132.476
132.836
133.159
133.446
133.701
133.927
134.126
134.302
134.456
134.592
134.711
134.815
134.905
134.981
135.045
135.096
135.138
135.171
135.196
135.214
135.226
135.234
135.239
135.245
135.254
135.266
135.28
135.293
135.304
135.312
135.317
135.32
135.322
135.322
135.321
135.318
135.314
135.309
135.302
135.295
135.286
135.277
135.266
135.255
135.243
135.231
135.217
135.205
135.191
135.185
135.166
135.189
114.384
115.254
116.14
117.038
117.947
118.862
119.781
120.697
121.608
122.508
123.392
124.256
125.095
125.905
126.682
127.424
128.127
128.789
129.411
129.99
130.527
131.022
131.477
131.893
132.272
132.615
132.925
133.205
133.455
133.68
133.88
134.059
134.219
134.362
134.49
134.604
134.705
134.793
134.87
134.935
134.988
135.032
135.068
135.096
135.118
135.134
135.146
135.156
135.168
135.182
135.198
135.214
135.228
135.239
135.247
135.253
135.257
135.258
135.259
135.258
135.255
135.251
135.246
135.239
135.231
135.223
135.213
135.202
135.191
135.181
135.168
135.164
135.146
135.172
115.054
115.766
116.495
117.239
117.999
118.772
119.554
120.343
121.135
121.927
122.714
123.494
124.261
125.012
125.744
126.453
127.136
127.79
128.413
129.004
129.56
130.082
130.57
131.022
131.441
131.827
132.181
132.504
132.799
133.066
133.309
133.527
133.725
133.903
134.064
134.208
134.339
134.457
134.563
134.658
134.741
134.814
134.875
134.927
134.969
135.004
135.032
135.054
135.072
135.086
135.1
135.115
135.132
135.15
135.165
135.178
135.188
135.196
135.201
135.204
135.205
135.205
135.203
135.199
135.194
135.188