/*--------------------------------*- C++ -*----------------------------------*\
| =========                 |                                                 |
| \\      /  F ield         | OpenFOAM: The Open Source CFD Toolbox           |
|  \\    /   O peration     | Version:  5.x                                   |
|   \\  /    A nd           | Web:      www.OpenFOAM.org                      |
|    \\/     M anipulation  |                                                 |
\*---------------------------------------------------------------------------*/
FoamFile
{
    version     2.0;
    format      ascii;
    class       volScalarField;
    location    "500";
    object      p;
}
// * * * * * * * * * * * * * * * * * * * * * * * * * * * * * * * * * * * * * //

dimensions      [0 2 -2 0 0 0 0];

internalField   nonuniform List<scalar> 
11040
(
-0.00161316
-93.5332
-334.041
-377.816
-376.377
-369.504
-353.411
-326.87
-293.303
-254.152
-209.537
-151.523
-97.341
-56.0567
-23.639
9.21978
41.2279
70.397
95.8242
116.223
130.21
136.988
140.15
142.097
143.467
144.504
145.284
145.839
146.203
146.406
146.468
146.4
146.228
146.009
145.914
146.305
147.45
149.283
153.039
159.445
155.132
52.5265
-41.0957
-191.782
-257.535
-281.953
-296.499
-299.903
-289.985
-269.124
-239.461
-202.125
-151.028
-99.8319
-58.5369
-25.5414
7.31493
39.3741
68.7839
94.5658
115.414
129.844
136.867
140.101
142.065
143.439
144.484
145.275
145.841
146.217
146.429
146.498
146.438
146.267
146.038
145.915
146.258
147.343
149.09
152.622
158.678
152.067
88.2046
-6.08013
-112.532
-196.95
-238.476
-260.053
-268.382
-263.399
-247.319
-222.371
-190.058
-145.902
-98.6251
-58.1856
-25.3645
6.70738
38.2904
67.5855
93.4652
114.62
129.461
136.792
140.13
142.094
143.448
144.486
145.28
145.852
146.235
146.455
146.533
146.479
146.313
146.081
145.934
146.218
147.221
148.876
152.184
158.096
150.02
114.953
30.1893
-48.5718
-127.189
-176.045
-205.588
-222.675
-226.706
-218.577
-200.483
-174.349
-137.476
-95.2117
-56.6084
-24.3143
6.73232
37.5424
66.4938
92.3288
113.722
128.986
136.714
140.221
142.189
143.514
144.528
145.309
145.879
146.267
146.492
146.577
146.531
146.368
146.131
145.954
146.16
147.046
148.562
151.587
157.261
148.976
137.074
64.3666
3.30829
-64.6705
-116.706
-152.24
-175.76
-187.114
-186.413
-175.277
-155.652
-126.186
-89.837
-54.0296
-22.6769
7.14752
36.8394
65.1422
90.7396
112.312
128.092
136.42
140.274
142.329
143.643
144.621
145.375
145.933
146.316
146.543
146.634
146.597
146.439
146.195
145.98
146.091
146.821
148.151
150.845
156.041
148.583
154.84
94.3789
45.5635
-11.1786
-60.9297
-98.8839
-126.695
-144.02
-150.251
-146.187
-133.424
-111.46
-81.6879
-49.7035
-20.0182
8.25499
36.4394
63.7041
88.7508
110.306
126.594
135.726
140.181
142.474
143.832
144.781
145.496
146.027
146.394
146.615
146.708
146.679
146.527
146.276
146.02
146.017
146.556
147.657
149.995
154.489
148.595
169.101
119.745
79.9788
33.3874
-10.8842
-47.8895
-77.4438
-98.7372
-110.622
-113.123
-107.219
-92.7482
-70.0643
-42.9817
-15.9265
10.3441
36.6312
62.4298
86.5341
107.745
124.38
134.407
139.73
142.519
144.061
145.025
145.696
146.182
146.518
146.72
146.808
146.782
146.636
146.378
146.079
145.952
146.272
147.115
149.08
152.755
148.847
180.509
140.537
107.862
69.8955
32.2147
-1.5374
-30.4863
-53.5371
-69.2394
-77.0674
-77.3567
-69.9314
-54.4531
-33.1625
-9.80748
13.8279
37.7875
61.668
84.3892
104.826
121.485
132.26
138.569
142.187
144.209
145.346
146.011
146.435
146.715
146.881
146.949
146.918
146.775
146.51
146.169
145.916
146.005
146.583
148.174
151.06
149.161
189.561
157.217
130.265
99.4207
68.1824
38.869
12.3048
-10.4795
-28.0242
-39.496
-44.7472
-43.4276
-34.7356
-19.6661
-0.961328
19.2627
40.3792
61.8792
82.7751
101.993
118.249
129.38
136.467
141.063
143.904
145.561
146.443
146.865
147.055
147.138
147.159
147.108
146.958
146.689
146.313
145.947
145.817
146.141
147.381
149.651
149.463
196.644
170.39
148.109
123.075
97.5603
72.942
49.7274
28.7029
11.0839
-2.22985
-10.8399
-14.2501
-11.389
-2.36346
11.1374
27.2294
44.9292
63.5617
82.1907
99.7756
115.201
126.253
133.698
139.035
142.726
145.167
146.648
147.406
147.672
147.658
147.537
147.392
147.21
146.935
146.54
146.099
145.798
145.902
146.833
148.705
149.773
202.095
180.676
162.217
141.889
121.206
100.959
81.363
62.933
46.535
32.9468
22.6267
16.0978
14.4994
18.2668
26.5991
38.1508
51.9497
67.2419
83.1479
98.6819
112.846
123.465
130.922
136.6
140.818
143.897
146.071
147.48
148.233
148.472
148.364
148.069
147.703
147.314
146.885
146.421
146.039
145.998
146.709
148.35
150.18
206.213
188.638
173.313
156.78
140.062
123.607
107.445
91.8616
77.4138
64.6664
54.0219
45.9261
41.4117
41.1513
44.9568
52.0642
61.7672
73.3964
86.1793
99.2388
111.688
121.517
128.729
134.45
138.878
142.259
144.835
146.761
148.108
148.916
149.245
149.192
148.871
148.374
147.768
147.153
146.672
146.555
147.149
148.73
150.931
209.266
194.767
182.015
168.535
155.022
141.723
128.575
115.706
103.456
92.1785
82.1645
73.7419
67.7372
64.8359
65.1816
68.4619
74.3067
82.2565
91.7156
101.974
112.283
120.917
127.583
133.094
137.532
141.026
143.754
145.885
147.537
148.769
149.607
150.064
150.177
150.006
149.623
149.134
148.653
148.393
148.735
150.13
152.279
211.488
199.469
188.837
177.813
166.871
156.139
145.519
135.045
124.914
115.327
106.46
98.5306
92.1365
87.8517
85.9369
86.349
88.9854
93.6202
99.873
107.238
115.141
122.211
127.985
132.985
137.204
140.673
143.47
145.701
147.471
148.87
149.967
150.797
151.379
151.728
151.866
151.889
151.92
152.125
152.719
154.188
155.926
213.068
203.069
194.192
185.149
176.263
167.596
159.039
150.58
142.326
134.387
126.849
119.839
113.763
109.046
105.94
104.518
104.828
106.822
110.313
114.998
120.486
125.797
130.408
134.606
138.335
141.566
144.305
146.589
148.473
150.016
151.284
152.336
153.228
154.003
154.693
155.355
156.064
156.941
158.072
160.006
161.652
214.178
205.84
198.419
190.977
183.736
176.719
169.821
163.011
156.34
149.869
143.625
137.677
132.286
127.743
124.24
121.875
120.75
120.91
122.303
124.784
128.129
131.719
135.067
138.29
141.314
144.087
146.574
148.772
150.696
152.373
153.838
155.134
156.311
157.424
158.533
159.704
160.998
162.513
164.258
166.642
168.775
214.994
208.03
201.821
195.678
189.755
184.052
178.477
172.99
167.614
162.377
157.283
152.359
147.772
143.71
140.303
137.633
135.8
134.879
134.887
135.779
137.451
139.573
141.749
143.994
146.238
148.423
150.504
152.455
154.271
155.959
157.534
159.02
160.447
161.852
163.282
164.787
166.422
168.267
170.358
172.883
175.551
215.553
209.675
204.421
199.277
194.362
189.658
185.082
180.599
176.216
171.946
167.784
163.734
159.901
156.408
153.34
150.752
148.723
147.326
146.599
146.545
147.129
148.205
149.48
150.922
152.476
154.093
155.728
157.35
158.945
160.506
162.038
163.552
165.061
166.589
168.162
169.809
171.559
173.457
175.533
177.84
180.371
215.911
210.872
206.357
201.977
197.824
193.872
190.047
186.315
182.679
179.141
175.693
172.331
169.125
166.156
163.477
161.126
159.163
157.642
156.605
156.072
156.039
156.465
157.137
158.009
159.043
160.2
161.444
162.744
164.085
165.455
166.851
168.274
169.729
171.227
172.782
174.405
176.108
177.91
179.823
181.852
184.012
216.158
211.783
207.854
204.072
200.509
197.135
193.885
190.728
187.662
184.687
181.792
178.972
176.273
173.75
171.439
169.365
167.569
166.095
164.977
164.24
163.891
163.942
164.238
164.734
165.403
166.219
167.151
168.176
169.276
170.441
171.662
172.935
174.26
175.638
177.073
178.569
180.126
181.753
183.45
185.212
187.042
216.34
212.503
209.051
205.749
202.657
199.741
196.944
194.239
191.622
189.089
186.631
184.243
181.955
179.806
177.821
176.016
174.422
173.069
171.987
171.196
170.71
170.563
170.638
170.897
171.323
171.896
172.593
173.395
174.287
175.258
176.299
177.404
178.567
179.786
181.06
182.386
183.762
185.189
186.663
188.177
189.73
216.483
213.091
210.034
207.126
204.417
201.873
199.441
197.1
194.843
192.666
190.56
188.52
186.568
184.731
183.027
181.468
180.073
178.869
177.875
177.111
176.589
176.351
176.305
176.421
176.69
177.096
177.621
178.25
178.971
179.774
180.648
181.588
182.586
183.638
184.74
185.887
187.074
188.3
189.559
190.845
192.153
216.603
213.585
210.86
208.281
205.889
203.651
201.52
199.477
197.514
195.628
193.81
192.056
190.381
188.805
187.342
185.998
184.789
183.734
182.849
182.149
181.644
181.377
181.273
181.309
181.479
181.772
182.174
182.672
183.255
183.916
184.646
185.436
186.281
187.175
188.113
189.089
190.098
191.137
192.201
193.283
194.378
216.709
214.008
211.566
209.264
207.139
205.157
203.278
201.482
199.765
198.12
196.541
195.024
193.579
192.223
190.964
189.807
188.765
187.851
187.076
186.455
185.994
185.732
185.606
185.6
185.71
185.928
186.241
186.64
187.115
187.66
188.267
188.928
189.638
190.39
191.181
192.004
192.853
193.727
194.619
195.524
196.436
216.806
214.376
212.178
210.113
208.215
206.45
204.783
203.197
201.685
200.243
198.865
197.546
196.295
195.124
194.039
193.044
192.148
191.361
190.692
190.151
189.744
189.504
189.377
189.351
189.427
189.594
189.843
190.167
190.558
191.009
191.514
192.066
192.66
193.291
193.953
194.643
195.354
196.084
196.829
197.583
198.341
216.897
214.702
212.714
210.854
209.15
207.572
206.085
204.677
203.34
202.071
200.863
199.712
198.625
197.611
196.675
195.819
195.049
194.374
193.801
193.336
192.986
192.774
192.657
192.626
192.681
192.814
193.017
193.284
193.608
193.983
194.404
194.866
195.363
195.89
196.444
197.02
197.614
198.223
198.843
199.471
200.1
216.983
214.992
213.188
211.505
209.97
208.552
207.222
205.966
204.78
203.658
202.595
201.587
200.641
199.761
198.952
198.215
197.555
196.978
196.489
196.094
195.796
195.616
195.513
195.483
195.527
195.636
195.805
196.028
196.299
196.613
196.966
197.352
197.768
198.209
198.672
199.153
199.649
200.156
200.673
201.195
201.718
217.065
215.253
213.609
212.082
210.693
209.415
208.22
207.097
206.04
205.045
204.107
203.223
202.396
201.632
200.931
200.297
199.731
199.239
198.825
198.491
198.24
198.09
198.004
197.978
198.015
198.108
198.251
198.439
198.668
198.932
199.229
199.554
199.902
200.272
200.66
201.061
201.475
201.898
202.329
202.764
203.198
217.145
215.489
213.987
212.596
211.335
210.178
209.101
208.093
207.149
206.265
205.435
204.657
203.934
203.268
202.662
202.115
201.631
201.212
200.861
200.581
200.373
200.249
200.178
200.159
200.193
200.274
200.397
200.557
200.751
200.975
201.226
201.499
201.793
202.103
202.428
202.764
203.11
203.464
203.823
204.186
204.547
217.221
215.704
214.326
213.054
211.906
210.856
209.882
208.976
208.13
207.342
206.606
205.921
205.287
204.706
204.181
203.71
203.296
202.94
202.644
202.41
202.238
202.138
202.082
202.069
202.101
202.173
202.279
202.417
202.583
202.774
202.986
203.217
203.465
203.726
203.999
204.281
204.571
204.867
205.167
205.471
205.772
217.294
215.898
214.631
213.465
212.416
211.46
210.577
209.759
209
208.296
207.643
207.038
206.481
205.975
205.52
205.114
204.76
204.458
204.209
204.014
203.874
203.794
203.75
203.743
203.774
203.839
203.932
204.052
204.194
204.357
204.538
204.734
204.943
205.164
205.394
205.631
205.874
206.123
206.374
206.629
206.881
217.364
216.076
214.906
213.834
212.872
211.999
211.197
210.457
209.774
209.144
208.563
208.028
207.539
207.097
206.702
206.353
206.051
205.795
205.587
205.425
205.311
205.249
205.216
205.214
205.244
205.303
205.385
205.489
205.612
205.752
205.907
206.074
206.251
206.438
206.632
206.832
207.037
207.245
207.457
207.67
207.882
217.431
216.238
215.155
214.165
213.28
212.481
211.749
211.078
210.463
209.898
209.38
208.907
208.477
208.092
207.75
207.45
207.192
206.976
206.801
206.669
206.577
206.529
206.505
206.508
206.537
206.591
206.664
206.755
206.862
206.982
207.114
207.257
207.408
207.566
207.73
207.899
208.072
208.248
208.426
208.605
208.783
217.495
216.385
215.379
214.462
213.646
212.911
212.243
211.633
211.076
210.57
210.108
209.689
209.311
208.975
208.679
208.421
208.201
208.019
207.874
207.766
207.692
207.657
207.641
207.647
207.676
207.725
207.79
207.87
207.963
208.067
208.181
208.302
208.431
208.566
208.705
208.848
208.994
209.142
209.292
209.444
209.593
217.555
216.519
215.58
214.728
213.972
213.295
212.683
212.127
211.623
211.168
210.756
210.384
210.052
209.759
209.503
209.282
209.095
208.943
208.823
208.735
208.677
208.652
208.642
208.651
208.679
208.724
208.783
208.853
208.934
209.024
209.122
209.226
209.336
209.451
209.569
209.69
209.814
209.94
210.066
210.194
210.32
217.611
216.64
215.76
214.966
214.264
213.638
213.074
212.567
212.11
211.7
211.332
211.003
210.711
210.456
210.234
210.046
209.888
209.76
209.662
209.591
209.547
209.53
209.526
209.537
209.564
209.606
209.658
209.721
209.791
209.87
209.954
210.044
210.138
210.236
210.336
210.439
210.544
210.65
210.757
210.865
210.971
217.663
216.749
215.922
215.177
214.522
213.941
213.422
212.957
212.542
212.172
211.843
211.552
211.296
211.074
210.883
210.722
210.59
210.484
210.404
210.348
210.314
210.304
210.305
210.318
210.344
210.383
210.43
210.485
210.547
210.615
210.689
210.766
210.846
210.93
211.015
211.103
211.192
211.282
211.372
211.464
211.553
217.712
216.846
216.064
215.364
214.75
214.209
213.728
213.302
212.924
212.59
212.296
212.038
211.813
211.621
211.457
211.321
211.21
211.123
211.059
211.016
210.992
210.988
210.992
211.006
211.032
211.068
211.111
211.16
211.215
211.274
211.338
211.404
211.474
211.545
211.618
211.692
211.768
211.844
211.92
211.998
212.073
217.756
216.932
216.19
215.528
214.95
214.444
213.997
213.605
213.26
212.958
212.695
212.467
212.27
212.104
211.964
211.85
211.758
211.687
211.637
211.604
211.588
211.589
211.596
211.612
211.637
211.67
211.709
211.753
211.801
211.854
211.909
211.966
212.026
212.087
212.149
212.212
212.276
212.341
212.406
212.471
212.534
217.795
217.007
216.298
215.669
215.123
214.647
214.231
213.868
213.553
213.28
213.044
212.843
212.672
212.528
212.41
212.314
212.24
212.184
212.145
212.122
212.113
212.118
212.128
212.145
212.17
212.201
212.237
212.276
212.32
212.365
212.414
212.463
212.515
212.567
212.621
212.674
212.729
212.783
212.838
212.893
212.946
217.83
217.071
216.391
215.79
215.27
214.821
214.431
214.095
213.805
213.558
213.348
213.17
213.021
212.899
212.799
212.721
212.661
212.617
212.589
212.574
212.57
212.579
212.591
212.609
212.633
212.663
212.696
212.731
212.77
212.81
212.852
212.896
212.94
212.985
213.031
213.077
213.123
213.169
213.216
213.262
213.307
217.861
217.125
216.468
215.89
215.393
214.966
214.599
214.286
214.02
213.796
213.607
213.451
213.323
213.219
213.137
213.073
213.027
212.995
212.976
212.969
212.971
212.983
212.998
213.018
213.042
213.071
213.102
213.135
213.169
213.206
213.243
213.281
213.32
213.359
213.398
213.437
213.476
213.515
213.554
213.593
213.63
217.887
217.168
216.528
215.969
215.49
215.082
214.736
214.443
214.198
213.994
213.826
213.689
213.579
213.492
213.425
213.375
213.34
213.318
213.307
213.306
213.313
213.327
213.344
213.364
213.388
213.415
213.444
213.475
213.506
213.539
213.572
213.605
213.639
213.673
213.706
213.74
213.773
213.807
213.84
213.873
213.904
217.908
217.2
216.573
216.028
215.564
215.171
214.842
214.567
214.34
214.155
214.005
213.885
213.792
213.72
213.668
213.632
213.609
213.597
213.595
213.601
213.613
213.632
213.652
213.674
213.699
213.726
213.755
213.784
213.813
213.843
213.873
213.903
213.933
213.962
213.991
214.02
214.049
214.077
214.104
214.132
214.158
217.924
217.224
216.605
216.069
215.616
215.235
214.919
214.659
214.447
214.278
214.144
214.04
213.962
213.905
213.864
213.839
213.825
213.821
213.825
213.835
213.851
213.871
213.893
213.916
213.941
213.967
213.994
214.022
214.049
214.076
214.104
214.131
214.157
214.183
214.209
214.234
214.259
214.283
214.306
214.33
214.352
217.936
217.236
216.622
216.092
215.646
215.274
214.969
214.721
214.523
214.367
214.247
214.158
214.094
214.051
214.025
214.013
214.012
214.019
214.033
214.052
214.075
214.1
214.126
214.153
214.181
214.208
214.236
214.263
214.29
214.317
214.342
214.367
214.391
214.414
214.437
214.459
214.48
214.5
214.52
214.539
214.558
217.941
217.231
216.611
216.081
215.638
215.273
214.977
214.741
214.556
214.414
214.308
214.232
214.179
214.146
214.129
214.124
214.129
214.142
214.16
214.182
214.207
214.234
214.261
214.289
214.317
214.344
214.372
214.398
214.424
214.449
214.473
214.496
214.518
214.54
214.56
214.58
214.599
214.617
214.634
214.651
214.667
217.938
217.21
216.578
216.041
215.595
215.232
214.942
214.715
214.541
214.413
214.322
214.263
214.23
214.218
214.221
214.237
214.262
214.292
214.325
214.359
214.393
214.428
214.461
214.494
214.526
214.556
214.585
214.613
214.639
214.664
214.687
214.71
214.73
214.75
214.768
214.786
214.802
214.818
214.832
214.846
214.859
160.876
165.575
171.803
176.763
181.926
187.352
192.56
197.364
201.686
205.486
208.763
211.543
213.868
215.788
217.35
218.604
219.594
220.363
220.948
221.382
221.692
221.902
222.033
222.1
222.118
222.097
222.048
221.976
221.889
221.79
221.683
221.572
221.46
221.347
221.236
221.128
221.024
220.923
220.826
220.734
220.647
220.563
220.485
220.41
220.339
220.272
220.209
220.15
220.093
220.04
219.99
219.943
219.898
219.856
219.816
219.778
219.743
219.709
219.677
219.647
219.619
219.592
219.567
219.543
219.521
219.5
219.481
219.464
219.448
219.435
219.421
219.418
219.401
219.422
157.204
163.513
170.109
175.639
181.187
186.842
192.22
197.154
201.572
205.44
208.763
211.573
213.916
215.844
217.409
218.661
219.647
220.41
220.989
221.415
221.719
221.923
222.048
222.11
222.124
222.099
222.046
221.972
221.882
221.781
221.673
221.561
221.447
221.334
221.223
221.114
221.009
220.908
220.812
220.72
220.632
220.549
220.471
220.396
220.326
220.26
220.197
220.138
220.082
220.029
219.979
219.932
219.888
219.846
219.806
219.769
219.734
219.7
219.669
219.639
219.611
219.584
219.559
219.536
219.514
219.493
219.475
219.458
219.442
219.429
219.416
219.413
219.397
219.418
153.922
160.277
167.678
174.144
180.249
186.225
191.827
196.92
201.451
205.398
208.775
211.618
213.98
215.917
217.484
218.732
219.712
220.468
221.038
221.456
221.751
221.948
222.066
222.122
222.13
222.102
222.045
221.967
221.875
221.771
221.662
221.548
221.434
221.319
221.207
221.098
220.993
220.892
220.796
220.704
220.617
220.534
220.456
220.382
220.312
220.246
220.183
220.124
220.069
220.016
219.967
219.92
219.876
219.835
219.796
219.759
219.724
219.691
219.66
219.63
219.602
219.576
219.551
219.528
219.507
219.486
219.468
219.451
219.436
219.424
219.411
219.407
219.392
219.414
151.208
157.034
164.825
172.229
179.05
185.464
191.361
196.659
201.329
205.368
208.805
211.685
214.067
216.012
217.578
218.821
219.793
220.538
221.098
221.505
221.79
221.978
222.088
222.137
222.139
222.105
222.043
221.962
221.866
221.761
221.649
221.534
221.418
221.303
221.19
221.081
220.975
220.874
220.778
220.686
220.599
220.517
220.439
220.365
220.296
220.23
220.168
220.11
220.055
220.003
219.954
219.908
219.864
219.823
219.784
219.748
219.713
219.681
219.65
219.621
219.593
219.567
219.543
219.52
219.499
219.479
219.461
219.444
219.429
219.417
219.405
219.402
219.387
219.409
149.569
154.599
162.08
170.029
177.563
184.524
190.8
196.359
201.206
205.36
208.865
211.784
214.186
216.137
217.7
218.935
219.894
220.626
221.171
221.565
221.838
222.014
222.114
222.154
222.149
222.109
222.042
221.956
221.857
221.748
221.634
221.517
221.4
221.284
221.17
221.061
220.955
220.854
220.758
220.666
220.58
220.498
220.42
220.347
220.278
220.213
220.152
220.094
220.039
219.988
219.939
219.894
219.851
219.81
219.772
219.736
219.702
219.669
219.639
219.61
219.583
219.558
219.534
219.511
219.49
219.471
219.453
219.437
219.422
219.411
219.399
219.396
219.381
219.404
148.837
153.065
159.909
167.915
175.913
183.404
190.129
196.007
201.073
205.375
208.969
211.932
214.35
216.303
217.859
219.08
220.022
220.735
221.263
221.64
221.896
222.059
222.146
222.176
222.162
222.114
222.041
221.95
221.846
221.734
221.617
221.498
221.379
221.262
221.148
221.038
220.932
220.831
220.735
220.644
220.558
220.477
220.4
220.327
220.259
220.194
220.133
220.076
220.022
219.971
219.924
219.878
219.836
219.796
219.758
219.723
219.689
219.657
219.628
219.599
219.573
219.548
219.524
219.502
219.481
219.462
219.445
219.429
219.415
219.404
219.392
219.39
219.375
219.398
148.82
152.438
158.628
166.309
174.406
182.23
189.365
195.603
200.926
205.401
209.11
212.137
214.578
216.528
218.068
219.267
220.184
220.873
221.377
221.732
221.969
222.113
222.186
222.202
222.177
222.12
222.039
221.942
221.834
221.718
221.598
221.477
221.356
221.238
221.123
221.012
220.906
220.805
220.71
220.619
220.533
220.453
220.376
220.304
220.237
220.173
220.113
220.057
220.003
219.953
219.906
219.862
219.82
219.781
219.743
219.709
219.676
219.644
219.615
219.587
219.561
219.537
219.514
219.492
219.472
219.453
219.436
219.421
219.407
219.396
219.385
219.383
219.369
219.392
149.47
152.731
158.361
165.543
173.405
181.272
188.638
195.178
200.774
205.446
209.28
212.384
214.866
216.822
218.344
219.511
220.394
221.049
221.521
221.847
222.058
222.181
222.234
222.235
222.196
222.128
222.038
221.934
221.82
221.699
221.575
221.451
221.329
221.209
221.093
220.982
220.876
220.776
220.681
220.591
220.506
220.426
220.35
220.279
220.212
220.15
220.09
220.035
219.982
219.933
219.887
219.843
219.802
219.764
219.727
219.693
219.661
219.63
219.601
219.574
219.549
219.525
219.502
219.481
219.461
219.443
219.427
219.412
219.398
219.388
219.378
219.376
219.363
219.386
150.706
153.895
159.107
165.777
173.218
180.849
188.189
194.858
200.654
205.52
209.491
212.673
215.194
217.168
218.682
219.822
220.663
221.274
221.703
221.992
222.17
222.265
222.294
222.275
222.22
222.138
222.038
221.924
221.803
221.677
221.549
221.422
221.297
221.176
221.06
220.948
220.842
220.742
220.647
220.558
220.474
220.395
220.32
220.251
220.185
220.123
220.065
220.01
219.959
219.911
219.866
219.823
219.783
219.745
219.71
219.676
219.644
219.615
219.587
219.56
219.535
219.512
219.49
219.469
219.45
219.433
219.417
219.402
219.389
219.38
219.37
219.369
219.356
219.38
152.348
155.739
160.781
167.002
173.979
181.212
188.292
194.86
200.685
205.656
209.744
213.008
215.567
217.547
219.052
220.172
220.983
221.552
221.934
222.174
222.31
222.369
222.369
222.325
222.249
222.151
222.037
221.913
221.784
221.651
221.519
221.388
221.26
221.138
221.02
220.908
220.802
220.703
220.609
220.521
220.438
220.36
220.287
220.218
220.154
220.093
220.036
219.983
219.933
219.886
219.842
219.8
219.761
219.725
219.69
219.657
219.627
219.598
219.571
219.545
219.521
219.498
219.477
219.457
219.438
219.421
219.406
219.392
219.38
219.371
219.361
219.361
219.349
219.373
154.076
157.892
163.073
169.07
175.634
182.423
189.117
195.399
201.055
205.966
210.067
213.375
215.974
217.964
219.45
220.535
221.31
221.845
222.191
222.391
222.483
222.498
222.461
222.385
222.285
222.166
222.037
221.9
221.761
221.62
221.482
221.347
221.217
221.092
220.974
220.862
220.756
220.657
220.564
220.477
220.396
220.319
220.248
220.181
220.118
220.059
220.004
219.952
219.904
219.858
219.815
219.775
219.737
219.702
219.668
219.637
219.607
219.579
219.553
219.528
219.505
219.483
219.462
219.443
219.425
219.409
219.394
219.381
219.37
219.361
219.352
219.352
219.341
219.365
155.706
159.964
165.442
171.513
177.884
184.337
190.632
196.537
201.891
206.584
210.555
213.804
216.392
218.385
219.86
220.91
221.638
222.124
222.427
222.592
222.654
222.638
222.567
222.459
222.328
222.185
222.035
221.884
221.732
221.583
221.438
221.299
221.165
221.039
220.919
220.807
220.702
220.604
220.513
220.427
220.347
220.273
220.203
220.138
220.078
220.021
219.967
219.917
219.871
219.827
219.785
219.747
219.71
219.676
219.644
219.614
219.585
219.559
219.533
219.51
219.487
219.466
219.447
219.428
219.411
219.396
219.382
219.369
219.358
219.351
219.342
219.343
219.332
219.357
157.748
162.162
167.685
173.825
180.164
186.471
192.514
198.109
203.136
207.536
211.276
214.361
216.848
218.787
220.231
221.254
221.948
222.389
222.64
222.754
222.776
222.734
222.644
222.518
222.368
222.204
222.033
221.863
221.697
221.538
221.385
221.24
221.103
220.975
220.854
220.742
220.638
220.542
220.452
220.369
220.291
220.219
220.152
220.089
220.031
219.976
219.925
219.878
219.833
219.791
219.752
219.715
219.68
219.648
219.617
219.588
219.561
219.536
219.512
219.489
219.468
219.448
219.43
219.412
219.396
219.382
219.368
219.357
219.347
219.34
219.332
219.333
219.324
219.349
161.867
165.548
170.396
176.291
182.428
188.491
194.302
199.688
204.503
208.661
212.156
215.034
217.358
219.179
220.545
221.522
222.186
222.6
222.815
222.885
222.859
222.775
222.653
222.508
222.349
222.182
222.008
221.83
221.654
221.483
221.321
221.169
221.028
220.897
220.777
220.665
220.562
220.468
220.381
220.3
220.225
220.156
220.092
220.033
219.977
219.925
219.877
219.832
219.79
219.75
219.713
219.679
219.646
219.615
219.587
219.56
219.534
219.51
219.488
219.467
219.447
219.428
219.411
219.395
219.38
219.366
219.354
219.343
219.334
219.328
219.321
219.323
219.314
219.34
167.808
171.028
175.141
180.48
186.069
191.491
196.671
201.494
205.835
209.627
212.867
215.562
217.729
219.419
220.694
221.618
222.255
222.658
222.87
222.936
222.898
222.79
222.634
222.452
222.265
222.082
221.904
221.732
221.563
221.398
221.237
221.082
220.937
220.804
220.682
220.572
220.471
220.38
220.296
220.219
220.148
220.083
220.022
219.966
219.914
219.866
219.821
219.779
219.74
219.704
219.669
219.637
219.607
219.579
219.553
219.528
219.504
219.482
219.461
219.442
219.423
219.406
219.39
219.375
219.362
219.349
219.338
219.328
219.32
219.315
219.309
219.312
219.304
219.33
173.725
176.631
179.967
184.273
188.957
193.65
198.272
202.724
206.852
210.527
213.68
216.287
218.354
219.911
221.025
221.777
222.256
222.54
222.688
222.738
222.713
222.629
222.495
222.326
222.139
221.945
221.752
221.567
221.395
221.237
221.089
220.95
220.817
220.69
220.572
220.463
220.364
220.275
220.195
220.122
220.056
219.996
219.94
219.889
219.841
219.797
219.756
219.718
219.683
219.65
219.619
219.59
219.563
219.538
219.514
219.491
219.47
219.45
219.432
219.414
219.397
219.382
219.367
219.354
219.342
219.33
219.32
219.312
219.305
219.301
219.296
219.3
219.294
219.32
179.013
181.629
184.398
187.632
191.171
194.83
198.534
202.22
205.791
209.146
212.202
214.893
217.176
219.031
220.47
221.524
222.234
222.644
222.81
222.796
222.665
222.477
222.272
222.07
221.879
221.695
221.515
221.337
221.166
221.006
220.859
220.727
220.609
220.504
220.408
220.317
220.232
220.151
220.077
220.009
219.948
219.893
219.843
219.797
219.755
219.717
219.681
219.648
219.617
219.588
219.561
219.536
219.513
219.49
219.47
219.45
219.432
219.414
219.398
219.383
219.368
219.355
219.342
219.33
219.32
219.31
219.302
219.295
219.289
219.286
219.283
219.287
219.282
219.309
182.846
185.059
187.371
189.863
192.539
195.34
198.215
201.117
203.996
206.796
209.463
211.949
214.213
216.217
217.937
219.352
220.459
221.268
221.809
222.123
222.255
222.245
222.13
221.948
221.728
221.501
221.286
221.09
220.917
220.764
220.624
220.498
220.384
220.283
220.194
220.117
220.05
219.988
219.931
219.876
219.825
219.777
219.733
219.694
219.658
219.626
219.596
219.568
219.542
219.519
219.496
219.476
219.456
219.438
219.421
219.405
219.389
219.375
219.361
219.349
219.336
219.325
219.315
219.305
219.296
219.288
219.281
219.276
219.271
219.27
219.268
219.274
219.27
219.298
185.954
187.781
189.697
191.691
193.79
195.985
198.246
200.542
202.843
205.117
207.329
209.444
211.434
213.271
214.937
216.416
217.7
218.785
219.669
220.354
220.849
221.168
221.334
221.377
221.329
221.216
221.063
220.892
220.716
220.551
220.403
220.277
220.169
220.076
219.995
219.923
219.86
219.806
219.759
219.719
219.682
219.647
219.614
219.583
219.554
219.527
219.504
219.482
219.462
219.444
219.427
219.411
219.395
219.381
219.368
219.356
219.344
219.332
219.322
219.312
219.302
219.293
219.285
219.278
219.271
219.265
219.259
219.255
219.253
219.252
219.252
219.26
219.257
219.286
188.648
190.134
191.688
193.29
194.965
196.711
198.513
200.351
202.208
204.065
205.898
207.684
209.4
211.026
212.543
213.938
215.2
216.324
217.307
218.15
218.857
219.432
219.88
220.207
220.42
220.531
220.557
220.52
220.438
220.33
220.209
220.087
219.973
219.873
219.789
219.722
219.667
219.621
219.582
219.549
219.522
219.499
219.478
219.459
219.441
219.423
219.406
219.39
219.376
219.363
219.352
219.341
219.331
219.321
219.312
219.303
219.295
219.287
219.28
219.273
219.266
219.26
219.254
219.248
219.244
219.24
219.236
219.234
219.233
219.234
219.236
219.244
219.244
219.274
191.068
192.265
193.514
194.803
196.148
197.55
198.999
200.484
201.994
203.516
205.037
206.54
208.008
209.427
210.779
212.053
213.237
214.322
215.304
216.181
216.953
217.626
218.203
218.69
219.09
219.407
219.643
219.803
219.892
219.92
219.902
219.85
219.779
219.699
219.619
219.545
219.483
219.434
219.399
219.373
219.354
219.34
219.329
219.32
219.313
219.306
219.3
219.292
219.285
219.278
219.272
219.266
219.261
219.256
219.252
219.247
219.243
219.239
219.235
219.231
219.227
219.224
219.22
219.218
219.215
219.213
219.212
219.211
219.212
219.215
219.218
219.228
219.229
219.261
193.263
194.223
195.223
196.259
197.342
198.472
199.642
200.846
202.078
203.329
204.591
205.852
207.101
208.327
209.517
210.66
211.746
212.766
213.712
214.581
215.368
216.074
216.701
217.251
217.731
218.145
218.499
218.795
219.035
219.219
219.349
219.426
219.458
219.455
219.426
219.383
219.334
219.285
219.242
219.208
219.187
219.176
219.172
219.172
219.174
219.177
219.181
219.184
219.186
219.187
219.187
219.187
219.188
219.188
219.188
219.188
219.188
219.188
219.187
219.187
219.186
219.186
219.185
219.185
219.184
219.185
219.185
219.187
219.19
219.194
219.199
219.211
219.214
219.247
195.295
196.062
196.86
197.691
198.562
199.472
200.416
201.393
202.397
203.424
204.468
205.521
206.577
207.626
208.659
209.669
210.646
211.582
212.469
213.303
214.077
214.788
215.436
216.02
216.542
217.005
217.413
217.77
218.083
218.354
218.585
218.776
218.926
219.035
219.103
219.137
219.143
219.13
219.107
219.079
219.053
219.033
219.023
219.022
219.029
219.04
219.053
219.065
219.077
219.087
219.096
219.104
219.11
219.115
219.12
219.125
219.129
219.133
219.136
219.14
219.142
219.145
219.147
219.15
219.152
219.155
219.158
219.161
219.166
219.173
219.179
219.193
219.198
219.232
197.193
197.802
198.436
199.1
199.799
200.53
201.291
202.081
202.898
203.738