/*--------------------------------*- C++ -*----------------------------------*\
| =========                 |                                                 |
| \\      /  F ield         | OpenFOAM: The Open Source CFD Toolbox           |
|  \\    /   O peration     | Version:  5.x                                   |
|   \\  /    A nd           | Web:      www.OpenFOAM.org                      |
|    \\/     M anipulation  |                                                 |
\*---------------------------------------------------------------------------*/
FoamFile
{
    version     2.0;
    format      ascii;
    class       surfaceScalarField;
    location    "500";
    object      phi;
}
// * * * * * * * * * * * * * * * * * * * * * * * * * * * * * * * * * * * * * //

dimensions      [0 3 -1 0 0 0 0];

internalField   nonuniform List<scalar> 
21876
(
0.011325
0.00946096
-0.0211047
-0.00046074
0.0117856
-0.00403287
0.003572
-0.0041303
9.7412e-05
-0.003745
-0.000385332
-0.00339502
-0.000350064
-0.00317886
-0.000216265
-0.00302907
-0.000149853
-0.00291421
-0.000114886
-0.00282938
-8.48473e-05
-0.00277393
-5.53799e-05
-0.00274251
-3.14196e-05
-0.00273211
-1.03508e-05
-0.0027469
1.46465e-05
-0.00279183
4.49106e-05
-0.00286886
7.6975e-05
-0.0029775
0.000108648
-0.00311364
0.000136051
-0.00326902
0.000155391
-0.00343253
0.000163347
-0.00358293
0.000150273
-0.00368793
0.000105026
-0.00374402
5.59784e-05
-0.00373918
-4.81297e-06
-0.003669
-7.02682e-05
-0.0035341
-0.000134865
-0.00333157
-0.000202595
-0.00305937
-0.000272149
-0.00271566
-0.000343686
-0.0022997
-0.000415969
-0.00181146
-0.000488127
-0.00125171
-0.000559817
-0.000618207
-0.000633495
9.94865e-05
-0.000717606
0.000886711
-0.000787147
0.00172487
-0.000838165
0.00260473
-0.000879802
0.00352039
-0.000915645
0.00446386
-0.000943437
0.00525442
-0.000790328
-0.0013342
0.00658888
0.0243723
0.0103921
-0.0253036
0.0135852
0.0225727
0.00136263
0.0157945
-0.00393648
0.00539647
-0.00457792
0.000256025
-0.00436718
-0.000560913
-0.0041422
-0.00044136
-0.00399014
-0.000301972
-0.00387869
-0.00022637
-0.00379912
-0.000164414
-0.00375347
-0.000101017
-0.00373968
-4.52126e-05
-0.00375675
6.72458e-06
-0.00380658
6.4368e-05
-0.00388722
0.000125517
-0.00399561
0.000185297
-0.00412836
0.000241376
-0.00427799
0.000285572
-0.00443269
0.000310058
-0.00457734
0.000307837
-0.00469176
0.000264549
-0.00475445
0.000167744
-0.00476677
6.82062e-05
-0.00472183
-4.97145e-05
-0.00460696
-0.000185194
-0.00441234
-0.000329433
-0.00413486
-0.000480104
-0.00377227
-0.000634675
-0.00332398
-0.000791985
-0.00279029
-0.000949588
-0.00217227
-0.00110609
-0.00147145
-0.00126055
-0.00068856
-0.00141626
0.000178823
-0.00158487
0.00112112
-0.0017293
0.00213066
-0.00184759
0.00319286
-0.00194183
0.00431605
-0.0020387
0.00546174
-0.00208891
0.00663349
-0.00196176
-0.00251303
0.00781234
0.0314632
0.00741378
-0.0284847
0.0275518
0.0264841
0.0150713
0.028275
0.00249468
0.0179731
-0.00364561
0.00639628
-0.00494813
0.000741553
-0.00500226
-0.000387268
-0.0048982
-0.000406047
-0.00480249
-0.000322066
-0.00472834
-0.00023854
-0.00468539
-0.000143932
-0.00467537
-5.52256e-05
-0.00469623
2.7613e-05
-0.00475011
0.000118198
-0.00483704
0.000212456
-0.00495437
0.000302601
-0.00509859
0.00038562
-0.0052622
0.000449136
-0.00543315
0.000481029
-0.00559546
0.000470092
-0.00572709
0.000396157
-0.00580161
0.00024225
-0.0058151
8.16469e-05
-0.00575493
-0.00010988
-0.00560792
-0.000332248
-0.00536573
-0.000571607
-0.00502417
-0.00082169
-0.00458083
-0.00107799
-0.00403529
-0.00133751
-0.00338807
-0.00159683
-0.00264056
-0.00185356
-0.00179472
-0.00210645
-0.000852937
-0.0023581
0.000186994
-0.0026248
0.00131647
-0.00285879
0.00252792
-0.00305907
0.00380293
-0.00321685
0.0051562
-0.003392
0.00653337
-0.00346612
0.00794168
-0.00336999
-0.00377024
0.00919898
0.0369084
0.00336338
-0.032858
0.0382088
0.0251837
0.0313162
0.0351676
0.0172134
0.0320759
0.00371225
0.0198974
-0.00332013
0.00777387
-0.00527492
0.00156747
-0.00565003
-3.0973e-05
-0.00569419
-0.000277922
-0.00567043
-0.000262302
-0.00564731
-0.000167049
-0.00564747
-5.50587e-05
-0.0056748
5.49375e-05
-0.00573524
0.00017861
-0.00583258
0.000309767
-0.00596516
0.000435151
-0.00613048
0.000550914
-0.0063213
0.000639906
-0.0065248
0.0006845
-0.00672246
0.000667686
-0.00688789
0.00056153
-0.00698676
0.000341112
-0.00701098
0.000105846
-0.00694517
-0.000175672
-0.00677496
-0.000502447
-0.00649096
-0.000855589
-0.00608762
-0.00122501
-0.00556196
-0.00160362
-0.0049133
-0.00198616
-0.00414226
-0.00236784
-0.00325056
-0.00274525
-0.00224076
-0.00311622
-0.00111673
-0.00348209
0.000123847
-0.00386534
0.00147206
-0.00420696
0.00291871
-0.00450567
0.00444245
-0.00474052
0.00606124
-0.00501071
0.0077044
-0.00510916
0.0093974
-0.0050628
-0.00525615
0.0108833
0.0426809
-0.00104769
-0.0382697
0.0464045
0.0214601
0.0457161
0.035856
0.0364262
0.0413658
0.0206201
0.0357036
0.00572127
0.0226726
-0.00262063
0.00990935
-0.00546683
0.00281522
-0.00627809
0.000533353
-0.00651195
-2.84167e-05
-0.0065944
-8.45918e-05
-0.00664698
-2.45462e-06
-0.00670463
0.00011259
-0.00678681
0.000260793
-0.00690711
0.000430054
-0.00706709
0.000595134
-0.00726669
0.000750497
-0.00749948
0.000872687
-0.00775169
0.000936693
-0.008002
0.000917988
-0.00821912
0.000778641
-0.00835863
0.000480594
-0.00840817
0.000155352
-0.00834923
-0.000234614
-0.00816523
-0.000686478
-0.00784464
-0.00117618
-0.00738033
-0.00168933
-0.00676844
-0.0022155
-0.00600788
-0.00274671
-0.00509939
-0.00327633
-0.00404517
-0.00379945
-0.00284872
-0.00431271
-0.00151544
-0.00481541
-4.31835e-05
-0.00533758
0.00155804
-0.00580818
0.00327657
-0.0062242
0.00508884
-0.0065528
0.00701428
-0.00693615
0.00896987
-0.00706476
0.0110023
-0.00709522
-0.00707426
0.0128205
0.0495938
-0.0059758
-0.0446657
0.0541235
0.0169304
0.0572323
0.0327472
0.0547956
0.0438026
0.0435572
0.046942
0.0259431
0.0402867
0.00906424
0.0267883
-0.00122474
0.0131042
-0.00537903
0.00468765
-0.00679884
0.00139139
-0.00731324
0.000429811
-0.0075616
0.000245896
-0.00772284
0.000273831
-0.00786646
0.000404408
-0.00803621
0.000599792
-0.00824473
0.000803646
-0.00849813
0.00100387
-0.00879282
0.00116736
-0.00911501
0.00125888
-0.00944125
0.00124422
-0.00973529
0.00107267
-0.00993953
0.000684833
-0.0100364
0.000252237
-0.0100032
-0.000267768
-0.00982017
-0.000869552
-0.00947284
-0.00152349
-0.00895212
-0.00221004
-0.008253
-0.00291461
-0.00737389
-0.00362581
-0.00631569
-0.00433452
-0.00508128
-0.00503385
-0.00367536
-0.00571863
-0.00210507
-0.00638569
-0.00036927
-0.00707337
0.00152009
-0.00769752
0.00354863
-0.00825271
0.00569118
-0.00869531
0.00796678
-0.00921171
0.0102869
-0.00938486
0.0127093
-0.00951746
-0.00930188
0.0149369
0.0580074
-0.0117642
-0.0522188
0.0630029
0.0119349
0.0674687
0.0282815
0.0698843
0.0413869
0.0661256
0.0507007
0.0533598
0.0530524
0.0338581
0.0462899
0.0144117
0.0325506
0.00136127
0.0177381
-0.00473083
0.0074835
-0.00705591
0.00275487
-0.00803027
0.00122026
-0.0085265
0.000770068
-0.00884469
0.000722594
-0.00912732
0.000882418
-0.0094261
0.00110242
-0.00976671
0.00134447
-0.0101547
0.00155536
-0.010579
0.00168312
-0.0110154
0.00168067
-0.0114234
0.00148059
-0.0117282
0.000989677
-0.0119062
0.000430134
-0.0119288
-0.000245173
-0.0117717
-0.0010266
-0.0114171
-0.00187815
-0.0108531
-0.00277402
-0.0100734
-0.00369433
-0.00907566
-0.00462351
-0.00786112
-0.00554906
-0.0064336
-0.00646135
-0.0047994
-0.00735284
-0.00296776
-0.00821733
-0.000939372
-0.00910174
0.00127076
-0.00990764
0.00364508
-0.010627
0.00615717
-0.0112074
0.00882391
-0.0118784
0.0115592
-0.0121201
0.014413
-0.0123712
-0.0119987
0.0171098
0.0680445
-0.0186609
-0.0611476
0.0738226
0.0061569
0.0787268
0.0233774
0.0830374
0.0370763
0.0849007
0.0488374
0.0803385
0.0576147
0.0665114
0.060117
0.0451711
0.0538909
0.022676
0.0402332
0.00595329
0.0242062
-0.00298559
0.0116938
-0.00680483
0.00503949
-0.00851775
0.00248298
-0.00938617
0.001591
-0.00995959
0.00145582
-0.0104457
0.00158848
-0.0109376
0.00183639
-0.0114713
0.00208907
-0.0120475
0.00225933
-0.012646
0.00227919
-0.0132232
0.0020578
-0.013683
0.00144942
-0.013994
0.00074117
-0.0141206
-0.000118551
-0.0140324
-0.00111482
-0.0137066
-0.00220395
-0.0131282
-0.00335245
-0.0122889
-0.0045336
-0.0111858
-0.00572654
-0.00982058
-0.00691431
-0.00819833
-0.00808358
-0.00632752
-0.00922364
-0.00422023
-0.0103246
-0.00187975
-0.0114422
0.000674623
-0.012462
0.0034212
-0.0133736
0.00633158
-0.0141177
0.00941952
-0.0149663
0.0126066
-0.0153072
0.0159153
-0.0156798
-0.0151993
0.0191159
0.07996
-0.0269113
-0.0717096
0.0868582
-0.000741153
0.0924125
0.0178231
0.0971773
0.0323115
0.101267
0.0447482
0.102831
0.0560506
0.0980155
0.0649322
0.0837078
0.0681986
0.0608344
0.0631067
0.035123
0.0499177
0.0138481
0.0329687
0.000745717
0.0181419
-0.0055712
0.00879986
-0.00846577
0.00448554
-0.00997253
0.00296254
-0.0109413
0.00255727
-0.0117365
0.00263156
-0.0125145
0.00286707
-0.0133238
0.00306863
-0.0141631
0.00311852
-0.0149924
0.00288708
-0.0156887
0.00214575
-0.016213
0.00126543
-0.0165203
0.000188736
-0.0165721
-0.00106302
-0.0163391
-0.00243696
-0.0158017
-0.00388983
-0.0149493
-0.005386
-0.0137783
-0.0068975
-0.012291
-0.00840162
-0.0104945
-0.00988008
-0.00840012
-0.011318
-0.00602389
-0.0127008
-0.00337255
-0.0140935
-0.000471497
-0.015363
0.00265183
-0.0164969
0.00596492
-0.0174308
0.00947852
-0.0184799
0.0131208
-0.0189494
0.0168727
-0.0194316
-0.0188952
0.0205685
0.0941518
-0.0368452
-0.0842178
0.102432
-0.00902104
0.109038
0.0112174
0.114319
0.0270301
0.118825
0.0402425
0.122682
0.0521934
0.124207
0.0634072
0.119696
0.0727093
0.105644
0.0771587
0.081972
0.0735899
0.0533116
0.061629
0.0267041
0.0447494
0.00792658
0.0275773
-0.00241784
0.0148299
-0.00736717
0.00791187
-0.0099464
0.00513644
-0.0115571
0.00424226
-0.012837
0.00414692
-0.0140351
0.00426678
-0.0152415
0.00432487
-0.016447
0.00409264
-0.0175017
0.00320045
-0.0183603
0.00212406
-0.0189671
0.000795484
-0.0192735
-0.000756644
-0.0192409
-0.00246956
-0.0188434
-0.00428737
-0.0180667
-0.00616261
-0.0169066
-0.00805766
-0.0153661
-0.00994207
-0.0134553
-0.0117909
-0.0111896
-0.0135836
-0.00859018
-0.0153002
-0.00566837
-0.0170153
-0.00245898
-0.0185724
0.00100248
-0.0199583
0.00467659
-0.0211049
0.00857089
-0.0223742
0.0126109
-0.0229893
0.0167353
-0.023556
-0.0230077
0.0208478
0.111091
-0.0488855
-0.0990502
0.121056
-0.0189866
0.129006
0.0032678
0.135242
0.0207934
0.140137
0.0353477
0.144279
0.0480514
0.147888
0.0597981
0.149573
0.0710247
0.145882
0.0808496
0.132986
0.0864865
0.109618
0.0849967
0.0786317
0.0757356
0.0466721
0.0595369
0.0208253
0.0406767
0.00441637
0.0243207
-0.00421731
0.0137702
-0.00866432
0.00868922
-0.0113848
0.00686738
-0.0134313
0.00631327
-0.0152737
0.00616721
-0.0170576
0.00587655
-0.0186514
0.00479431
-0.0200244
0.00349703
-0.021111
0.00188204
-0.0218507
-1.69077e-05
-0.0221925
-0.00212779
-0.022101
-0.00437884
-0.0215566
-0.00670696
-0.0205532
-0.00906109
-0.0190952
-0.0114
-0.0171966
-0.0136895
-0.0148786
-0.0159016
-0.0121696
-0.0180092
-0.00908834
-0.0200965
-0.00568028
-0.0219804
-0.00199277
-0.0236458
0.00192278
-0.0250204
0.00606934
-0.0265207
0.0103568
-0.0272767
0.0146941
-0.0278932
-0.0273586
0.0190449
0.131333
-0.0635525
-0.116665
0.14339
-0.0310436
0.152979
-0.00632156
0.160484
0.0132882
0.166225
0.0296066
0.170624
0.0436524
0.174296
0.0561268
0.177597
0.0677237
0.179527
0.078919
0.177059
0.0889549
0.166217
0.0958386
0.14437
0.0975823
0.112573
0.0913343
0.0761227
0.0771267
0.0425574
0.057886
0.017837
0.0384906
0.00300595
0.0235202
-0.00494335
0.0148166
-0.00959556
0.0109654
-0.0129448
0.00951638
-0.0157976
0.00872941
-0.018261
0.00725764
-0.0204288
0.00566488
-0.022263
0.00371624
-0.023703
0.00142313
-0.0246879
-0.0011429
-0.0251691
-0.00389765
-0.0251171
-0.00675896
-0.0245214
-0.00965683
-0.0233876
-0.0125338
-0.0217344
-0.0153427
-0.019591
-0.018045
-0.0169957
-0.0206045
-0.013979
-0.0231132
-0.0105982
-0.0253612
-0.00691542
-0.0273285
-0.00299965
-0.0289362
0.00114367
-0.030664
0.00540234
-0.0315354
0.00967339
-0.0321643
-0.0316475
0.0139624
0.155554
-0.0814836
-0.137623
0.170218
-0.0457076
0.181837
-0.017941
0.19089
0.0042356
0.197791
0.0227054
0.202918
0.0385258
0.206713
0.0523314
0.2098
0.0646368
0.212678
0.0760411
0.214789
0.0868441
0.213729
0.0968979
0.205603
0.105708
0.186758
0.110179
0.156255
0.10763
0.117318
0.0968234
0.0767453
0.0790632
0.0421408
0.0581247
0.0180013
0.0389561
0.00364659
0.02532
-0.00465378
0.0178168
-0.0102561
0.0143317
-0.0144777
0.0114792
-0.0180308
0.00921795
-0.0210844
0.00676983
-0.0236476
0.00398632
-0.025683
0.000892572
-0.0271443
-0.00243637
-0.0279923
-0.00591096
-0.0282092
-0.00943991
-0.0277997
-0.0129433
-0.0267867
-0.0163557
-0.0252084
-0.0196233
-0.0231162
-0.0226966
-0.020558
-0.0256714
-0.0176042
-0.028315
-0.0143319
-0.0306008
-0.0108272
-0.0324408
-0.00711699
-0.0343742
-0.00332667
-0.0353257
0.000449853
-0.0359408
-0.0354479
0.00425018
0.184573
-0.103456
-0.162601
0.202476
-0.0636113
0.216627
-0.0320916
0.227596
-0.00673331
0.235914
0.0143873
0.242062
0.0323778
0.246457
0.0479362
0.249546
0.0615483
0.251935
0.0736524
0.254218
0.0845607
0.256302
0.094814
0.256566
0.105444
0.251527
0.115218
0.236995
0.122162
0.210217
0.123602
0.171886
0.117394
0.126808
0.103203
0.0826238
0.0831405
0.0465907
0.0613532
0.0218494
0.0425579
0.00657288
0.0296082
-0.0026457
0.0206977
-0.00930438
0.0158767
-0.0146935
0.0121589
-0.0192302
0.00852304
-0.0230362
0.0046986
-0.0261364
0.000663797
-0.0285203
-0.00352707
-0.0301763
-0.00778388
-0.0311139
-0.0120057
-0.0313618
-0.0161078
-0.0309682
-0.0200169
-0.0299985
-0.0236662
-0.0285233
-0.0271467
-0.0266262
-0.0302119
-0.0243991
-0.0328279
-0.0219382
-0.0349017
-0.0192944
-0.037018
-0.0165881
-0.0380319
-0.0139059
-0.038623
-0.0381463
-0.0112075
0.219382
-0.130413
-0.192424
0.241297
-0.0855262
0.258596
-0.049391
0.271959
-0.0200959
0.282033
0.00431339
0.289428
0.0249824
0.294676
0.0426877
0.298225
0.0579994
0.300513
0.0713647
0.302091
0.0829832
0.303605
0.0932995
0.305403
0.103646
0.306612
0.114009
0.304558
0.124216
0.295133
0.133027
0.274335
0.138191
0.240342
0.137196
0.195071
0.128411
0.144344
0.11208
0.0962146
0.0906877
0.0574294
0.0683934
0.0318181
0.046309
0.0152647
0.03243
0.00385666
0.023567
-0.00487324
0.0172529
-0.0120384
0.0118638
-0.0180626
0.00668803
-0.023111
0.00152136
-0.0272516
-0.00364329
-0.0305247
-0.00873254
-0.032982
-0.0136505
-0.0346971
-0.0183017
-0.0357576
-0.0226057
-0.0362656
-0.0266386
-0.0363178
-0.0301597
-0.0360172
-0.0331284
-0.0354624
-0.0354564
-0.0347331
-0.0377472
-0.0339128
-0.0388522
-0.0330598
-0.0394759
-0.0390706
-0.0321354
0.261183
-0.163507
-0.22809
0.288049
-0.112392
0.309249
-0.0705914
0.325594
-0.0364409
0.337868
-0.00796027
0.346814
0.0160365
0.353101
0.0364005
0.357303
0.0537973
0.359893
0.068775
0.361284
0.0815918
0.361967
0.0926161
0.362624
0.10299
0.363822
0.11281
0.365407
0.122631
0.365732
0.132702
0.361407
0.142517
0.348046
0.150557
0.32192
0.154537
0.281843
0.152157
0.230434
0.142097
0.173992
0.124836
0.124084
0.0962168
0.0844944
0.0720196
0.05539
0.0526714
0.0343989
0.038244
0.0187605
0.0275022
0.00645231
0.0189963
-0.00370272
0.0116764
-0.0123127
0.0049667
-0.0196755
-0.00136971
-0.0259517
-0.00737417
-0.0312553
-0.0129981
-0.0357063
-0.0181547
-0.0394644
-0.0228804
-0.0426507
-0.0269734
-0.04539
-0.030389
-0.0477894
-0.033057
-0.0499743
-0.0355622
-0.0519644
-0.036862
-0.0537968
-0.0376434
-0.037444
-0.0554234
0.311419
-0.204129
-0.270796
0.344379
-0.145352
0.370401
-0.0966129
0.390452
-0.0564918
0.405477
-0.0229856
0.416376
0.00513762
0.423964
0.0288124
0.428957
0.0488038
0.431964
0.0657679
0.433469
0.0800874
0.433875
0.0922096
0.433654
0.103211
0.433386
0.113078
0.433748
0.122269
0.43512
0.13133
0.436888
0.140749
0.436825
0.15062
0.431082
0.16028
0.415087
0.168151
0.385178
0.172006
0.340388
0.169625
0.287336
0.149269
0.232076
0.127279
0.180558
0.10419
0.136487
0.0823152
0.100791
0.0631985
0.0724861
0.047301
0.0498976
0.034265
0.0314613
0.023403
0.0160039
0.0140878
0.00273678
0.00589294
-0.00883968
-0.00142156
-0.0190463
-0.0079481
-0.0281546
-0.0137721
-0.0363124
-0.0188155
-0.0436777
-0.0230235
-0.0503946
-0.0263402
-0.0566936
-0.0292631
-0.0625457
-0.03101
-0.0680175
-0.0321715
-0.0324009
-0.0730607
0.336983
-0.249246
-0.291866
0.37359
-0.181959
0.402518
-0.125541
0.42482
-0.0787939
0.441529
-0.0396947
0.453626
-0.00695928
0.462003
0.0204355
0.467448
0.0433595
0.47064
0.0625752
0.472145
0.0785824
0.472417
0.0919374
0.471859
0.10377
0.470823
0.114113
0.469755
0.123337
0.469251
0.131834
0.469924
0.140076
0.471943
0.148601
0.474402
0.157821
0.474845
0.167707
0.469371
0.17748
0.453532
0.185465
0.425806
0.176995
0.387313
0.165772
0.3412
0.150303
0.291696
0.131819
0.24294
0.111954
0.198011
0.0922303
0.158476
0.0738003
0.124571
0.0573083
0.0957357
0.0429228
0.0711227
0.0305059
0.0498909
0.0198104
0.0313378
0.010605
0.0148444
0.00272142
7.54017e-05
-0.00404657
-0.0132456
-0.00970246
-0.0253183
-0.0142675
-0.0365016
-0.0180797
-0.0467354
-0.0207762
-0.0561826
-0.0227241
-0.0237389
-0.0648446
0.357805
-0.298218
-0.308832
0.397548
-0.221703
0.428986
-0.156978
0.453244
-0.103052
0.471432
-0.0578836
0.484603
-0.0201297
0.493711
0.0113277
0.499598
0.0374721
0.502994
0.0591791
0.504512
0.0770642
0.504664
0.0917852
0.503896
0.104538
0.502541
0.115468
0.50088
0.124998
0.49923
0.133484
0.498042
0.141264
0.497917
0.148727
0.499391
0.156347
0.502472
0.164626
0.506056
0.173896
0.507523
0.183998
0.503012
0.181505
0.490288
0.178496
0.468237
0.172354
0.43728
0.162775
0.399172
0.150063
0.356494
0.134908
0.312052
0.118243
0.26832
0.101041
0.227076
0.0841663
0.189307
0.0682751
0.155337
0.0537802
0.125064
0.0408774
0.0980294
0.0297565
0.0739267
0.020056
0.0523935
0.0118308
0.0331127
0.00501327
0.0154927
-0.000459628
-0.000414642
-0.00486902
-0.014914
-0.00822474
-0.0105841
-0.0280689
0.380621
-0.351304
-0.327535
0.423715
-0.264798
0.457835
-0.191098
0.484187
-0.129404
0.503966
-0.0776617
0.518297
-0.034461
0.528207
0.00141735
0.534602
0.0310775
0.538262
0.0555184
0.539848
0.0754783
0.539912
0.0917211
0.538942
0.105508
0.537319
0.117092
0.535338
0.126978
0.533231
0.135591
0.531219
0.143276
0.529611
0.150335
0.528878
0.15708
0.529616
0.163888
0.532292
0.171219
0.536747
0.179544
0.540867
0.177385
0.542826
0.176537
0.540451
0.174729
0.531907
0.171319
0.516111
0.165858
0.492901
0.158118
0.462988
0.148156
0.427746
0.136282
0.38893
0.122983
0.348374
0.108831
0.307741
0.0944132
0.268351
0.0802667
0.230939
0.0671692
0.196152
0.0548422
0.164265
0.0437184
0.135335
0.033943
0.108811
0.0260646
0.0849207
0.0190207
0.0632895
0.0134065
0.00888862
0.0438166
0.405473
-0.408787
-0.34799
0.452154
-0.311478
0.489146
-0.22809
0.517744
-0.158002
0.53923
-0.0991483
0.554816
-0.0500465
0.5656
-0.00936727
0.572557
0.0241218
0.576524
0.0515507
0.578212
0.0737901
0.578216
0.0917169
0.577057
0.106668
0.575151
0.118997
0.572839
0.129291
0.570381
0.138048
0.567976
0.145682
0.565781
0.152529
0.563992
0.158869
0.562921
0.164958
0.563056
0.171085
0.564966
0.177633
0.568164
0.174187
0.572381
0.17232
0.576656
0.170454
0.579586
0.168389
0.579607
0.165837
0.575291
0.162434
0.565584
0.157863
0.549945
0.151921
0.528381
0.144547
0.501397
0.135814
0.4699
0.125911
0.43506
0.115106
0.397999
0.10423
0.36007
0.092771
0.322451
0.0813367
0.286121
0.0702729
0.251207
0.0609789
0.218641
0.0515865
0.188449
0.0435982
0.0364388
0.160899
0.43244
-0.470982
-0.370245
0.482966
-0.362004
0.523039
-0.268162
0.554047
-0.18901
0.577371
-0.122472
0.594311
-0.0669861
0.606046
-0.0211021
0.61362
0.0165474
0.617936
0.0472349
0.619755
0.0719701
0.61972
0.0917527
0.618384
0.108003
0.616196
0.121185
0.613523
0.131964
0.610664
0.140907
0.607852
0.148494
0.605258
0.155123
0.603005
0.161122
0.60121
0.166754
0.60005
0.172244
0.599846
0.177837
0.600396
0.173636
0.602093
0.170623
0.605009
0.167538
0.60888
0.164518
0.613085
0.161632
0.616715
0.158804
0.618701
0.155876
0.617975
0.152647
0.613606
0.148916
0.604906
0.144514
0.591493
0.139324
0.573315
0.133284
0.550536
0.127009
0.523724
0.119583
0.493684
0.111376
0.46141
0.102547
0.427398
0.0949904
0.393036
0.085949
0.358961
0.0776737
0.0692544
0.326145
0.461629
-0.538234
-0.394378
0.516284
-0.416658
0.559664
-0.311543
0.593265
-0.22261
0.618566
-0.147774
0.636967
-0.0853866
0.649733
-0.0338682
0.657985
0.00829524
0.662692
0.0425278
0.664673
0.0699889
0.664617
0.091809
0.663116
0.109504
0.660652
0.123649
0.657617
0.134998
0.654334
0.144191
0.65106
0.151767
0.648001
0.158182
0.645308
0.163815
0.643081
0.16898
0.641394
0.173932
0.640331
0.1789
0.639482
0.174485
0.639144
0.17096
0.639552
0.16713
0.640897
0.163173
0.643248
0.159281
0.646486
0.155566
0.650281
0.152081
0.654116
0.148812
0.657334
0.145698
0.659215
0.142633
0.659046
0.139492
0.656196
0.136135
0.650135
0.13307
0.640509
0.129209
0.627184
0.124702
0.610271
0.11946
0.589774
0.115488
0.56637
0.109353
0.540507
0.103536
0.096659
0.513103
0.493166
-0.610917
-0.420482
0.55226
-0.475752
0.5992
-0.358482
0.635589
-0.259
0.663023
-0.175207
0.683002
-0.105366
0.696887
-0.0477529
0.70588
-0.000698355
0.711023
0.037385
0.713195
0.067816
0.713138
0.091867
0.711483
0.111157
0.708749
0.126384
0.705353
0.138393
0.701642
0.147902
0.697891
0.155517
0.694326
0.161748
0.691119
0.167021
0.688406
0.171694
0.686271
0.176066
0.684767
0.180404
0.683371
0.175881
0.682214
0.172118
0.68137
0.167973
0.680963
0.163581
0.681138
0.159106
0.682032
0.154672
0.683728
0.150385
0.686216
0.146324
0.689377
0.142536
0.692977
0.139033
0.696682
0.135787
0.700081
0.132736
0.702739
0.130411
0.704166
0.127782
0.703908
0.124959
0.701587
0.121781
0.696848
0.120226
0.68951
0.116691
0.679439
0.113607
0.109374
0.666724
0.527199
-0.689446
-0.448671
0.591072
-0.539623
0.641843
-0.409254
0.68124
-0.298396
0.710974
-0.204942
0.73266
-0.127052
0.74776
-0.062853
0.757565
-0.0105026
0.763191
0.031758
0.765587
0.0654203
0.765546
0.0919076
0.763749
0.112955
0.760746
0.129387
0.75699
0.142149
0.752848
0.152044
0.748617
0.159748
0.744534
0.16583
0.740791
0.170765
0.737534
0.17495
0.734878
0.178722
0.732899
0.182383
0.731084
0.177695
0.729525
0.173677
0.728213
0.169285
0.727153
0.16464
0.726381
0.159878
0.725961
0.155092
0.725981
0.150365
0.726534
0.14577
0.727701
0.141369
0.729527
0.137206
0.73201
0.133304
0.735085
0.12966
0.738657
0.12684
0.742524
0.123915
0.746444
0.121039
0.750134
0.11809
0.75336
0.117
0.755743
0.114307
0.757003
0.112347
0.109597
0.75678
0.563893
-0.774267
-0.479072
0.632913
-0.608643
0.687817
-0.464157
0.730457
-0.341036
0.762677
-0.237161
0.786212
-0.150587
0.802632
-0.0792733
0.813324
-0.0211945
0.819488
0.025594
0.822141
0.0627666
0.822138
0.0919106
0.820207
0.114886
0.816939
0.132654
0.812819
0.146268
0.808242
0.156621
0.803525
0.164465
0.798922
0.170432
0.794636
0.17505
0.790826
0.178759
0.787617
0.181931
0.785103
0.184896
0.7828
0.179998
0.780813
0.175663
0.779138
0.17096
0.777756
0.166022
0.776648
0.160985
0.775805
0.155934
0.775233
0.150936
0.774958
0.146046
0.775021
0.141306
0.775477
0.13675
0.776383
0.132399
0.777788
0.128255
0.779748
0.124879
0.782262
0.1214
0.785307
0.117994
0.788819
0.114578
0.792789
0.11303
0.797024
0.110072
0.801409
0.107962
0.105302
0.805703
0.603428
-0.865871
-0.511825
0.678
-0.683214
0.737361
-0.523518
0.783506
-0.387179
0.818414
-0.27207
0.843952
-0.176125
0.861808
-0.0971295
0.873471
-0.0328572
0.880229
0.0188345
0.883179
0.0598175
0.883236
0.0918533
0.881182
0.11694
0.87765
0.136185
0.873165
0.150755
0.868144
0.16164
0.862933
0.169677
0.857802
0.175563
0.852969
0.179883
0.848604
0.183124
0.844841
0.185694
0.841783
0.187953
0.838958
0.182823
0.836487
0.178133
0.834382
0.173065
0.832636
0.167767
0.831237
0.162384
0.830164
0.157007
0.829395
0.151705
0.828912
0.146528
0.828706
0.141512
0.828774
0.136681
0.829128
0.132045
0.829785
0.127597
0.830791
0.123874
0.832164
0.120026
0.83393
0.116229
0.836104
0.112404
0.838763
0.110371
0.841855
0.10698
0.845397
0.10442
0.101364
0.849335
0.646004
-0.96479
-0.547086
0.726567
-0.763777
0.790743
-0.587692
0.840674
-0.43711
0.878494
-0.309889
0.906205
-0.203836
0.925623
-0.116548
0.938349
-0.0455831
0.945767
0.0114163
0.949053
0.0565309
0.949194
0.0917118
0.947028
0.119106
0.943237
0.139976
0.938378
0.155612
0.932908
0.167111
0.92719
0.175394
0.92152
0.181233
0.916129
0.185274
0.911202
0.188051
0.906882
0.190013
0.903282
0.191553
0.899934
0.186171
0.896967
0.181099
0.8944
0.175632
0.892238
0.169929
0.890479
0.164143
0.889112
0.158373
0.888122
0.152695
0.887488
0.147162
0.887187
0.141812
0.8872
0.136668
0.887506
0.131738
0.888092
0.127011
0.888964
0.123001
0.890109
0.118881
0.891524
0.114814
0.893209
0.110719
0.895226
0.108353
0.897539
0.104667
0.900183
0.101776
0.098395
0.903151
0.691836
-1.0716
-0.585023
0.77887
-0.85081
0.848249
-0.657071
0.902279
-0.491139
0.943251
-0.350861
0.973323
-0.233907
0.994443
-0.137668
1.00833
-0.059473
1.01648
0.0032685
1.02015
0.0528614
1.0204
0.0914591
1.01814
0.121372
1.01408
0.144027
1.00885
0.160848
1.00291
0.173044
0.996677
0.181631
0.990451
0.187459
0.984487
0.191238
0.978983
0.193554
0.974095
0.1949
0.969946
0.195702
0.96607
0.190046
0.962603
0.184566
0.959566
0.178667
0.956972
0.172522
0.954821
0.166293
0.953108
0.160085
0.951824
0.153978
0.950954
0.148031
0.95048
0.142286
0.950382
0.136766
0.950637
0.131482
0.951224
0.126424
0.952138
0.122087
0.953347
0.117672
0.954828
0.113333
0.956557
0.10899
0.958574
0.106336
0.960819
0.102422
0.963307
0.0992883
0.09569
0.966012
0.741159
-1.18694
-0.625819
0.835186
-0.944837
0.910193
-0.732078
0.968659
-0.549606
1.01305
-0.395254
1.04569
-0.266543
1.06867
-0.160645
1.08383
-0.0746399
1.09279
-0.00568697
1.09689
0.0487572
1.09728
0.0910658
1.09493
0.123724
1.09062
0.148337
1.085
0.166471
1.07859
0.179455
1.07181
0.188407
1.06501
0.194262
1.05845
0.197796
1.05235
0.199655
1.04687
0.200376
1.04215
0.20042
1.03773
0.194466
1.03375
0.188548
1.03023
0.182184
1.02719
0.175563
1.02463
0.168853
1.02254
0.162168
1.02093
0.155593
1.01977
0.149191
1.01905
0.143006
1.01875
0.137066
1.01885
0.131382
1.01932
0.125947
1.02017
0.121236
1.02136
0.116484
1.02286
0.111835
1.02464
0.107213
1.02673
0.104246
1.02905
0.100095
1.03162
0.0967204
0.0929228
1.03439
0.794225
-1.3115
-0.669672
0.895815
-1.04643
0.976913
-0.813177
1.04019
-0.61288
1.08829
-0.443358
1.12372
-0.301969
1.14872
-0.185648
1.16529
-0.0912074
1.17514
-0.0155384
1.17974
0.0441615
1.1803
0.0904978
1.17788
0.126148
1.17331
0.152905
1.16729
0.172489
1.16038
0.186361
1.15305
0.195745
1.14564
0.201667
1.13846
0.204979
1.13173
0.206384
1.12563
0.206469
1.12032
0.205734
1.11532
0.199459
1.11079
0.193074
1.10677
0.186212
1.10325
0.179077
1.10025
0.171849
1.09777
0.164649
1.09579
0.157568
1.09431
0.150675
1.0933
0.144016
1.09274
0.137622
1.09262
0.131505
1.09291
0.12566
1.0936
0.120545
1.09466
0.115424
1.09605
0.110437
1.09776
0.105508
1.0998
0.102201
1.10211
0.0977882
1.10468
0.0941518
0.0901381
1.10746
0.851308
-1.44601
-0.716793
0.96108
-1.1562
1.04878
-0.900873
1.11727
-0.68137
1.1694
-0.495495
1.20787
-0.340433
1.23508
-0.212864
1.25319
-0.109313
1.26403
-0.0263814
1.26918
0.0390102
1.26996
0.0897183
1.26748
0.128626
1.26265
0.15773
1.25623
0.178916
1.24881
0.193782
1.24088
0.203673
1.23283
0.209708
1.22499
0.21282
1.2176
0.213777
1.21085
0.213218
1.20489
0.211685
1.19929
0.205066
1.19417
0.198184
1.1896
0.190791
1.18556
0.183107
1.18209
0.175322
1.17917
0.167569
1.17679
0.159945
1.17494
0.152524
1.1736
0.145357
1.17274
0.138476
1.17235
0.131896
1.1724
0.125614
1.17287
0.120069
1.17374
0.114556
1.17497
0.109207
1.17653
0.103952
1.17844
0.100286
1.18063
0.0955941
1.18311
0.0916789
0.0874342
1.18581
0.912702
-1.59131
-0.767409
1.03134
-1.27483
1.12618
-0.99572
1.20033
-0.755518
1.25685
-0.552015
1.29862
-0.382206
1.32826
-0.242499
1.34805
-0.129108
1.35999
-0.0383237
1.36577
0.0332329
1.3668
0.0886849
1.36429
0.13114
1.3592
0.162812
1.35236
0.185764
1.34439
0.201744
1.33585
0.212222
1.32713
0.218423
1.31859
0.221363
1.31048
0.221882
1.30302
0.220673
1.29638
0.218323
1.29011
0.211338
1.28437
0.20393
1.27918
0.195972
1.27459
0.187702
1.27058
0.179325
1.26717
0.170981
1.26434
0.162777
1.26207
0.154793
1.26034
0.147082
1.25913
0.139682
1.25842
0.132609
1.25817
0.125861
1.25838
0.11986
1.25901
0.11393
1.26001
0.108201
1.26137
0.1026
1.2631
0.0985562
1.26512
0.0935713
1.26743
0.0893638
0.0848767
1.26999
0.978725
-1.74827
-0.821763
1.10696
-1.40306
1.20956
-1.09832
1.28985
-0.835811
1.35114
-0.613302
1.39652
-0.427588
1.4288
-0.27478
1.45045
-0.15076
1.46361
-0.0514835
1.47009
0.0267498
1.47143
0.0873512
1.4689
0.133669
1.46356
0.168149
1.45628
0.193047
1.44775
0.210273
1.43854
0.22143
1.4291
0.227856
1.41981
0.230658
1.41094
0.230752
1.40272
0.228892
1.39533
0.225711
1.38833
0.218335
1.38188
0.210373
1.37604
0.201818
1.37081
0.192928
1.36621
0.183921
1.36224
0.17495
1.35889
0.166129
1.35614
0.157544
1.35396
0.149256
1.35234
0.141303
1.35124
0.133706
1.35064
0.126464
1.35052
0.119979
1.35084
0.11361
1.35156
0.107477
1.35265
0.101512
1.35414
0.0970716
1.35593
0.0917781
1.35803
0.0872644
0.0825234
1.36038
1.04971
-1.91787
-0.880117
1.18835
-1.5417
1.29937
-1.20934
1.38634
-0.922781
1.45281
-0.679781
1.50214
-0.476909
1.53732
-0.309959
1.56101
-0.174456
1.57552
-0.0659945
1.5828
0.0194722
1.58449
0.0856634
1.58197
0.136188
1.57638
0.173741
1.56864
0.200785
1.55951
0.219402
1.5496
0.231341
1.53939
0.23806
1.52928
0.240766
1.51958
0.240455
1.51053
0.237946
1.50231
0.233924
1.49451
0.226136
1.48729
0.217592
1.4807
0.208407
1.47477
0.198862
1.4695
0.189188
1.4649
0.179552
1.46095
0.170077
1.45764
0.160856
1.45494
0.151955
1.45283
0.143417
1.45127
0.135264
1.45024
0.127499
1.44971
0.120503
1.44966
0.113668
1.45003
0.107109
1.45078
0.100759
1.45195
0.0959024
1.45344
0.0902837
1.45526
0.0854485
0.0804407
1.45734
1.12604
-2.10116
-0.942747
1.27596
-1.69162
1.39611
-1.32949
1.49034
-1.01701
1.56248
-0.751916
1.6161
-0.530533
1.65446
-0.348316
1.68041
-0.200404
1.69642
-0.0820056
1.70459
0.0112996
1.7067
0.0835609
1.70421
0.138668
1.69837
0.179586
1.69016
0.208995
1.6804
0.229165
1.66973
0.242003
1.6587
0.249096
1.6477
0.251757
1.63709
0.251068
1.62712
0.247919
1.61799
0.243051
1.6093
0.234829
1.60121
0.225676
1.59379