/*--------------------------------*- C++ -*----------------------------------*\
| =========                 |                                                 |
| \\      /  F ield         | OpenFOAM: The Open Source CFD Toolbox           |
|  \\    /   O peration     | Version:  5.x                                   |
|   \\  /    A nd           | Web:      www.OpenFOAM.org                      |
|    \\/     M anipulation  |                                                 |
\*---------------------------------------------------------------------------*/
FoamFile
{
    version     2.0;
    format      ascii;
    class       volVectorField;
    location    "500";
    object      U;
}
// * * * * * * * * * * * * * * * * * * * * * * * * * * * * * * * * * * * * * //

dimensions      [0 1 -1 0 0 0 0];

internalField   nonuniform List<vector> 
11040
(
(-3.5296 22.5312 0)
(-0.130542 28.3497 -1.72142e-19)
(5.88826 32.0307 1.67631e-17)
(11.6869 31.5813 1.96512e-17)
(16.369 29.212 4.34502e-17)
(19.8286 25.8821 -2.14031e-17)
(22.1831 22.1551 -2.13019e-17)
(23.6088 18.3939 2.17608e-17)
(24.2747 14.8311 4.95055e-17)
(24.2683 11.5547 1.61509e-18)
(23.2726 8.30515 2.44468e-17)
(21.6983 5.61156 -1.31859e-18)
(20.4052 3.92327 2.10491e-17)
(19.7059 3.00808 1.98927e-17)
(19.1032 2.28091 1.58331e-17)
(18.3169 1.57603 9.32218e-18)
(17.3731 0.937015 -7.30628e-18)
(16.3627 0.389206 -6.01377e-19)
(15.3141 -0.0720982 6.25713e-19)
(14.2252 -0.452198 3.29946e-18)
(13.0849 -0.753739 2.1857e-18)
(12.0438 -0.950183 1.23928e-18)
(11.1006 -1.06885 3.8142e-19)
(10.1508 -1.14251 -1.56493e-19)
(9.18978 -1.1756 -6.74075e-20)
(8.21527 -1.17049 2.22432e-19)
(7.22313 -1.13005 -1.93362e-17)
(6.20789 -1.05848 4.38786e-19)
(5.15932 -0.956637 -3.46201e-17)
(4.08225 -0.817303 4.42311e-17)
(3.02275 -0.645151 8.67368e-19)
(1.98695 -0.456576 6.05658e-19)
(1.01822 -0.259967 -7.62275e-19)
(0.141457 -0.0679447 0)
(-0.586126 0.111059 2.80035e-16)
(-1.11089 0.278674 0)
(-1.76423 0.508181 0)
(-2.77122 0.755904 -3.25227e-19)
(-3.80153 0.799344 3.13319e-19)
(-4.14817 0.310275 -1.25995e-16)
(-2.60912 -0.450615 -1.54062e-16)
(0.135654 21.9581 0)
(4.0356 26.3622 0)
(11.3232 28.3534 -9.88622e-18)
(17.7257 27.6557 1.07683e-17)
(22.5234 25.8074 -2.69369e-17)
(26.0742 23.671 2.8393e-17)
(28.605 21.2719 1.37278e-17)
(30.2077 18.6446 1.80785e-18)
(30.9968 15.8828 -1.06764e-18)
(31.112 13.1152 1.55507e-17)
(30.4619 10.2216 -1.75479e-18)
(28.8884 7.68148 0)
(26.9539 5.84341 0)
(25.2684 4.53661 -1.04911e-17)
(23.9063 3.38125 -1.06703e-17)
(22.6217 2.3823 -7.34952e-18)
(21.3447 1.55737 0)
(20.0782 0.872783 3.40457e-19)
(18.8095 0.301759 -9.19919e-19)
(17.5223 -0.166406 -4.46753e-19)
(16.2023 -0.538163 -1.36866e-18)
(14.9978 -0.792359 -6.71849e-19)
(13.9307 -0.95725 1.95207e-20)
(12.8727 -1.06904 -9.62625e-19)
(11.8134 -1.1332 1.9326e-18)
(10.7453 -1.15353 2.16494e-19)
(9.66139 -1.13394 9.3056e-18)
(8.55434 -1.07745 -2.05103e-19)
(7.42147 -0.986609 1.55256e-17)
(6.2599 -0.862458 -1.89141e-17)
(5.06349 -0.707316 -2.30486e-17)
(3.85419 -0.530019 2.78004e-17)
(2.66298 -0.342542 2.26234e-20)
(1.5359 -0.155187 -8.91365e-19)
(0.532024 0.0249449 -4.62957e-17)
(-0.279344 0.196314 0)
(-1.16995 0.447446 -3.75981e-19)
(-2.14472 0.743819 8.19366e-17)
(-2.69852 0.92296 7.24637e-17)
(-2.34266 0.537821 6.73654e-17)
(-1.89249 -0.782023 1.10558e-16)
(2.04516 21.2219 0)
(5.70911 24.5868 0)
(10.8714 26.5216 2.72468e-18)
(15.8306 26.7991 -7.74088e-18)
(19.955 25.8206 8.26106e-18)
(23.4087 24.0613 -1.04971e-17)
(26.2513 21.8189 -8.48315e-18)
(28.4405 19.3005 0)
(29.9631 16.6507 -1.3737e-17)
(30.8604 13.9757 -8.13735e-18)
(31.094 11.203 0)
(30.466 8.72978 0)
(29.2564 6.81986 -8.451e-18)
(27.9334 5.35677 -7.66701e-18)
(26.6381 4.04835 -8.15529e-19)
(25.2977 2.91109 8.4192e-19)
(23.9133 1.9609 0)
(22.5259 1.1683 0)
(21.1429 0.508103 2.23374e-19)
(19.7519 -0.0328131 -2.73188e-19)
(18.3374 -0.463288 2.7825e-19)
(17.0509 -0.767817 -4.24965e-19)
(15.9139 -0.96671 -1.02013e-19)
(14.7927 -1.10412 -5.2711e-19)
(13.6766 -1.1881 -8.50398e-20)
(12.5577 -1.2236 -1.43978e-19)
(11.428 -1.21508 -9.04824e-20)
(10.2795 -1.16597 2.28263e-19)
(9.10631 -1.07931 0)
(7.90407 -0.957964 0)
(6.6696 -0.80612 2.76361e-17)
(5.41232 -0.632137 -3.16485e-17)
(4.1532 -0.447076 1.79926e-17)
(2.92931 -0.263127 0)
(1.787 -0.0876085 2.40997e-17)
(0.806786 0.0919762 2.79713e-17)
(-0.128405 0.331423 0)
(-1.01426 0.542783 2.82065e-19)
(-1.52238 0.59314 -1.96294e-19)
(-1.32866 0.14387 0)
(-1.71055 -1.25532 -5.24445e-17)
(3.929 20.3348 5.32585e-20)
(7.3559 22.9735 -4.93878e-20)
(11.3887 24.5983 7.86363e-19)
(15.6975 25.0248 0)
(19.5745 24.3301 -9.70902e-18)
(22.8387 22.9063 0)
(25.5041 21.0138 1.92986e-17)
(27.5704 18.8145 -6.30301e-20)
(29.0578 16.448 1.93524e-18)
(30.0214 14.0307 1.297e-17)
(30.4733 11.5317 1.91153e-18)
(30.2899 9.21907 5.26728e-18)
(29.6047 7.35298 1.49973e-17)
(28.7372 5.89464 6.09325e-18)
(27.8135 4.59272 0)
(26.7641 3.42136 -1.11859e-18)
(25.5769 2.40528 1.95809e-19)
(24.3021 1.53675 -7.57906e-19)
(22.9728 0.800693 -3.02447e-19)
(21.5988 0.1886 3.08032e-19)
(20.1788 -0.304964 6.70635e-19)
(18.8754 -0.658512 3.86164e-19)
(17.7158 -0.894486 0)
(16.569 -1.06297 1.02952e-18)
(15.427 -1.17279 -1.19712e-18)
(14.2833 -1.22952 1.72819e-18)
(13.1306 -1.23809 -4.7239e-18)
(11.9613 -1.2025 0)
(10.7688 -1.12634 0)
(9.54779 -1.01343 0)
(8.29518 -0.868928 -9.98036e-18)
(7.01411 -0.701193 1.17456e-17)
(5.71637 -0.521695 -4.12296e-19)
(4.42643 -0.343884 -1.49331e-17)
(3.1772 -0.175539 -1.57659e-17)
(2.04918 0.0033245 -1.86177e-17)
(1.04185 0.226963 -4.02108e-17)
(0.163692 0.38302 -4.12035e-17)
(-0.463557 0.36637 -1.61562e-19)
(-0.45124 -0.0808271 -3.71544e-17)
(-1.4361 -1.45726 2.16402e-17)
(5.79031 19.32 0)
(8.81551 21.3897 -4.51557e-20)
(12.04 22.717 -4.73087e-19)
(15.5821 23.283 3.07303e-19)
(18.9644 22.988 7.17023e-18)
(21.9547 22.0104 -7.78262e-18)
(24.5218 20.5078 -1.897e-18)
(26.6049 18.6144 -9.96073e-18)
(28.1617 16.4778 0)
(29.2135 14.2313 -1.20155e-17)
(29.7828 11.8909 0)
(29.8077 9.66583 -3.01797e-18)
(29.3776 7.80382 -7.94595e-18)
(28.7454 6.32176 0)
(28.0596 5.02349 4.20082e-18)
(27.2775 3.85011 0)
(26.3588 2.81576 0)
(25.3221 1.91631 7.86037e-19)
(24.1889 1.13867 6.39343e-19)
(22.9686 0.477253 0)
(21.6643 -0.0681145 -5.46509e-19)
(20.4382 -0.467809 0)
(19.3269 -0.742321 0)
(18.2142 -0.944824 -3.69935e-19)
(17.0968 -1.08415 0)
(15.9713 -1.16617 1.34591e-18)
(14.8327 -1.19612 3.67764e-18)
(13.6752 -1.17843 0)
(12.4929 -1.1172 0)
(11.2807 -1.01694 0)
(10.0354 -0.883557 8.15296e-18)
(8.75658 -0.725903 7.87316e-18)
(7.44894 -0.55607 -9.47593e-18)
(6.12535 -0.387891 -3.25398e-19)
(4.80405 -0.230857 3.73657e-19)
(3.55049 -0.065805 0)
(2.43073 0.132069 2.96006e-17)
(1.48929 0.251179 -3.15687e-17)
(0.695119 0.194234 3.34874e-17)
(0.466021 -0.198657 3.46779e-17)
(-0.871434 -1.47922 4.00238e-20)
(7.50322 18.2219 -1.36211e-19)
(10.0995 19.8391 6.61148e-20)
(12.7214 20.91 3.12212e-20)
(15.5999 21.5179 2.84118e-19)
(18.4933 21.4902 -1.149e-18)
(21.1783 20.8712 7.63036e-18)
(23.5827 19.7551 -9.46392e-18)
(25.6267 18.2289 8.15338e-18)
(27.2345 16.4067 3.99098e-18)
(28.3891 14.4078 -2.0499e-18)
(29.097 12.2718 0)
(29.3101 10.1622 0)
(29.0763 8.30518 1.85374e-18)
(28.5914 6.77188 -1.95507e-18)
(28.0186 5.44305 -6.6788e-18)
(27.3706 4.25403 1.40108e-18)
(26.6186 3.20348 -2.66095e-18)
(25.7687 2.28596 1.42806e-19)
(24.8313 1.48633 -7.89001e-19)
(23.806 0.796343 1.36698e-18)
(22.6865 0.21647 -1.17306e-18)
(21.6119 -0.218698 2.57194e-19)
(20.6186 -0.526048 -7.85762e-20)
(19.6081 -0.760199 1.20201e-19)
(18.5796 -0.929276 -8.089e-19)
(17.5319 -1.03873 -1.43295e-20)
(16.4623 -1.09343 -3.38539e-18)
(15.3668 -1.09773 -3.29093e-18)
(14.2409 -1.05586 0)
(13.0805 -0.972671 0)
(11.882 -0.854509 -5.66951e-18)
(10.6436 -0.710603 -1.40054e-17)
(9.36526 -0.553422 -4.83668e-19)
(8.05117 -0.397042 8.38596e-18)
(6.70664 -0.253187 9.82789e-18)
(5.37396 -0.109972 -1.05799e-17)
(4.13536 0.0507767 3.50159e-19)
(3.07474 0.137162 4.86668e-17)
(2.10701 0.0533372 -5.29832e-17)
(1.55854 -0.272885 1.15275e-19)
(0.099073 -1.35388 2.08643e-17)
(9.04465 17.0799 0)
(11.2398 18.3371 -2.46814e-19)
(13.3918 19.1967 -1.33692e-19)
(15.7247 19.7784 1.6182e-19)
(18.1439 19.9153 1.56549e-18)
(20.4835 19.5797 2.7264e-18)
(22.6658 18.8075 -6.20322e-18)
(24.61 17.6418 2.35351e-18)
(26.2246 16.1592 0)
(27.4643 14.4539 2.99518e-18)
(28.3174 12.5723 -5.95975e-18)
(28.7328 10.6376 5.98452e-18)
(28.7143 8.83898 -2.4796e-19)
(28.3942 7.2808 0)
(27.9251 5.91711 1.44933e-18)
(27.3627 4.70035 1.68224e-19)
(26.7038 3.62157 1.13422e-18)
(25.9583 2.67728 9.08224e-19)
(25.1417 1.8539 -3.54832e-19)
(24.2571 1.14054 -3.858e-19)
(23.2969 0.535111 5.62028e-19)
(22.3748 0.0741556 2.90932e-19)
(21.5195 -0.257735 0)
(20.6446 -0.516926 1.95725e-19)
(19.7482 -0.711298 7.15296e-19)
(18.8283 -0.845963 -9.89856e-19)
(17.8818 -0.92528 9.20051e-19)
(16.9048 -0.953213 3.0144e-18)
(15.893 -0.933741 -4.79443e-19)
(14.8419 -0.871573 -5.7782e-20)
(13.7473 -0.773048 -3.55193e-18)
(12.6053 -0.647249 -1.27729e-18)
(11.4126 -0.506465 -5.15879e-18)
(10.1673 -0.36468 0)
(8.8655 -0.235277 -7.10074e-18)
(7.52729 -0.116263 8.28123e-18)
(6.21555 0.001421 -8.78089e-18)
(5.02485 0.0533155 -3.70869e-17)
(3.8887 -0.0491548 2.01406e-17)
(3.02486 -0.314063 9.09905e-20)
(1.48943 -1.14569 -4.40955e-17)
(10.4061 15.9272 8.94744e-19)
(12.249 16.9003 -2.43794e-19)
(14.0255 17.5872 -2.25306e-19)
(15.9207 18.1061 -3.4193e-19)
(17.9129 18.3242 -1.14046e-18)
(19.8996 18.1889 -3.38031e-18)
(21.8192 17.6979 3.65331e-18)
(23.6027 16.8601 4.97094e-18)
(25.1617 15.7147 -3.53122e-18)
(26.4374 14.3248 0)
(27.404 12.7308 -2.14907e-18)
(28.0057 11.0223 3.74065e-20)
(28.211 9.34656 -9.36361e-20)
(28.0901 7.81546 2.01511e-18)
(27.7636 6.43974 1.86529e-18)
(27.3056 5.20259 -1.93327e-18)
(26.7359 4.09606 0)
(26.0706 3.1196 0)
(25.3315 2.26558 1.28382e-18)
(24.5317 1.52418 -1.07724e-18)
(23.6722 0.892103 1.42599e-19)
(22.8553 0.407177 -3.04982e-19)
(22.1055 0.0539164 -2.67172e-20)
(21.346 -0.226119 0)
(20.5744 -0.441159 2.87603e-19)
(19.7878 -0.596699 -2.93917e-19)
(18.9824 -0.697207 -9.66923e-19)
(18.1534 -0.74661 0)
(17.2955 -0.748785 0)
(16.403 -0.708273 4.3805e-19)
(15.4694 -0.631147 3.83625e-18)
(14.4878 -0.525977 3.70965e-18)
(13.4507 -0.404363 8.59373e-18)
(12.3504 -0.279733 6.10262e-19)
(11.1756 -0.166066 0)
(9.92966 -0.0697064 -3.68876e-19)
(8.64359 0.00755002 6.76496e-18)
(7.38692 0.0238332 -3.09674e-20)
(6.1249 -0.0915958 1.55826e-17)
(5.00931 -0.323047 1.70983e-17)
(3.3713 -0.904966 2.03085e-17)
(11.5923 14.7918 -5.49667e-19)
(13.1358 15.5424 -5.79483e-21)
(14.6082 16.0883 4.80822e-19)
(16.1537 16.5307 -7.15904e-19)
(17.7809 16.7725 0)
(19.4347 16.762 1.03628e-18)
(21.0771 16.4798 -1.92529e-18)
(22.6578 15.9138 -3.02167e-18)
(24.1032 15.0749 2.17969e-18)
(25.3546 13.9963 2.85892e-18)
(26.3798 12.7041 1.85632e-19)
(27.1216 11.2578 -5.81556e-18)
(27.5266 9.76303 0)
(27.6145 8.32 1.32017e-18)
(27.4641 6.97366 -3.08683e-18)
(27.1454 5.73984 -1.28961e-18)
(26.6915 4.62037 -1.12996e-18)
(26.1238 3.61905 1.16755e-18)
(25.4664 2.73493 -4.18439e-19)
(24.7392 1.9624 0)
(23.9519 1.30005 4.44956e-19)
(23.2042 0.788397 -5.89886e-19)
(22.5222 0.411797 -4.22783e-20)
(21.8387 0.109964 -1.0967e-19)
(21.1539 -0.125562 4.69765e-19)
(20.4669 -0.30087 -4.7956e-19)
(19.7755 -0.420888 0)
(19.0764 -0.489873 2.44258e-18)
(18.3652 -0.511929 1.135e-18)
(17.6365 -0.491664 6.24043e-19)
(16.8835 -0.434978 -2.95693e-18)
(16.0975 -0.349893 -8.50315e-19)
(15.2677 -0.24713 8.13267e-19)
(14.3807 -0.139342 -4.91685e-19)
(13.4187 -0.0404477 -3.07916e-18)
(12.3715 0.0381812 -5.45817e-19)
(11.2414 0.0861994 0)
(10.057 0.0743411 1.0477e-17)
(8.7859 -0.0467062 -1.14247e-17)
(7.55245 -0.26346 -1.24805e-17)
(5.83594 -0.6641 0)
(12.6144 13.6968 0)
(13.9075 14.2741 0)
(15.132 14.7047 0)
(16.3978 15.0699 2.1206e-18)
(17.7229 15.3005 -7.33988e-19)
(19.0814 15.3564 1.44403e-19)
(20.4556 15.2146 -1.76971e-19)
(21.8142 14.8548 -4.2543e-19)
(23.1037 14.2713 1.199e-18)
(24.2748 13.4741 1.81176e-18)
(25.2967 12.4742 -1.77119e-18)
(26.1163 11.3043 2.38543e-18)
(26.6708 10.032 -2.21583e-19)
(26.9461 8.73468 2.22396e-18)
(26.9804 7.46917 -3.97399e-18)
(26.8246 6.27514 3.162e-18)
(26.5129 5.16878 1.67382e-18)
(26.0691 4.16077 -1.72535e-18)
(25.5174 3.25734 6.51141e-19)
(24.8799 2.45868 0)
(24.1712 1.76667 5.5388e-19)
(23.4884 1.22687 -4.13348e-19)
(22.8612 0.824682 6.61842e-20)
(22.2329 0.498459 -1.51889e-19)
(21.6069 0.239805 5.47214e-19)
(20.9852 0.0423018 0)
(20.3689 -0.0993358 0)
(19.7579 -0.189675 -7.26256e-19)
(19.1511 -0.233064 -4.54415e-18)
(18.5465 -0.234199 -2.09609e-18)
(17.9401 -0.198763 2.39702e-18)
(17.3261 -0.134125 6.72974e-19)
(16.6948 -0.0499049 -3.52942e-18)
(16.0328 0.0423525 -7.6865e-19)
(15.3201 0.129355 4.80957e-18)
(14.5382 0.197648 -8.32072e-19)
(13.67 0.232728 -3.55565e-18)
(12.7105 0.211539 4.73847e-19)
(11.606 0.100765 7.6173e-18)
(10.4577 -0.0918306 0)
(8.80908 -0.393335 0)
(13.4868 12.6593 0)
(14.5718 13.1021 0)
(15.5933 13.4388 -2.05058e-19)
(16.6343 13.7325 -1.87973e-18)
(17.7136 13.9346 0)
(18.8213 14.017 -8.98457e-19)
(19.9529 13.9605 2.66286e-19)
(21.0923 13.7445 0)
(22.2045 13.3559 -1.5974e-18)
(23.2541 12.7919 1.85298e-19)
(24.2169 12.0519 -4.01322e-19)
(25.049 11.1477 1.32207e-18)
(25.6894 10.1155 -1.66026e-18)
(26.1059 9.00653 0)
(26.3057 7.87214 -2.44405e-18)
(26.3146 6.76153 2.86997e-18)
(26.158 5.7031 0)
(25.857 4.71564 0)
(25.4334 3.81269 3.47806e-19)
(24.9086 3.00127 -1.4123e-18)
(24.299 2.28771 5.842e-19)
(23.6953 1.7235 0)
(23.1305 1.29673 1.34818e-19)
(22.5594 0.945602 2.40596e-19)
(21.9875 0.662171 -3.90915e-19)
(21.4191 0.440037 3.89169e-19)
(20.8579 0.273773 0)
(20.3063 0.15862 0)
(19.7664 0.0900592 -7.59251e-19)
(19.2396 0.0633761 3.38879e-18)
(18.726 0.0731864 -1.88018e-18)
(18.2244 0.112933 1.97048e-18)
(17.7304 0.174399 1.07935e-18)
(17.2361 0.247765 0)
(16.7267 0.321453 1.84775e-18)
(16.1854 0.382651 -1.89996e-20)
(15.5893 0.416829 6.17042e-18)
(14.9195 0.406082 0)
(14.1085 0.32595 -6.03224e-18)
(13.2273 0.184356 6.52855e-18)
(11.8753 -0.0509098 0)
(14.225 11.6915 0)
(15.1372 12.0299 -1.34283e-18)
(15.9917 12.2905 1.18452e-18)
(16.851 12.5216 0)
(17.7321 12.6888 1.28567e-18)
(18.6326 12.7738 -9.46159e-19)
(19.5551 12.7629 -2.51546e-18)
(20.4938 12.6391 1.13052e-18)
(21.4278 12.3882 9.86915e-20)
(22.3347 12.0022 1.58768e-18)
(23.1987 11.4747 -1.76056e-18)
(23.9874 10.8041 -5.64759e-19)
(24.6495 10.0039 1.49282e-18)
(25.1479 9.1018 -7.14077e-19)
(25.4711 8.13514 2.86804e-18)
(25.6234 7.14932 -1.81237e-18)
(25.6157 6.17747 -7.12479e-19)
(25.4618 5.24423 -3.1884e-19)
(25.1778 4.36921 -8.94107e-19)
(24.7823 3.56596 1.73592e-18)
(24.2905 2.84589 -7.45936e-19)
(23.7827 2.26683 -3.13807e-21)
(23.2942 1.82103 1.26789e-20)
(22.7919 1.4483 0)
(22.2829 1.14166 -7.61253e-19)
(21.7729 0.895114 2.35447e-19)
(21.2667 0.703341 1.32526e-18)
(20.7685 0.561566 -9.23479e-19)
(20.2817 0.465222 2.44505e-18)
(19.8094 0.409611 -1.2704e-18)
(19.3542 0.389597 0)
(18.9177 0.399304 -2.43837e-18)
(18.5001 0.431814 -8.55969e-19)
(18.0988 0.479169 9.62831e-19)
(17.7068 0.532198 -5.94727e-18)
(17.3146 0.580753 -1.04126e-18)
(16.9057 0.613194 -2.17158e-18)
(16.464 0.617769 2.23492e-18)
(15.9314 0.576207 2.33459e-18)
(15.3516 0.499783 -4.75924e-18)
(14.4247 0.340031 -1.61726e-19)
(14.8444 10.8007 0)
(15.6126 11.0582 7.61349e-20)
(16.3292 11.2575 1.07263e-18)
(17.0411 11.4356 3.50834e-18)
(17.7625 11.568 -2.34893e-18)
(18.4946 11.6432 4.63187e-19)
(19.243 11.6523 9.48586e-20)
(20.0075 11.5831 -2.96332e-18)
(20.7768 11.4233 2.23051e-20)
(21.5382 11.1638 -3.25691e-20)
(22.2835 10.797 7.53794e-19)
(22.9912 10.3151 -7.52967e-19)
(23.6224 9.71809 -4.44032e-19)
(24.1439 9.01619 6.16879e-19)
(24.5372 8.23173 0)
(24.7927 7.39872 0)
(24.9086 6.54702 2.40246e-18)
(24.8886 5.70218 -6.88887e-21)
(24.7414 4.88665 -1.58303e-18)
(24.4798 4.11848 8.12705e-20)
(24.1156 3.41336 -1.24131e-19)
(23.7153 2.83453 -2.35869e-20)
(23.3143 2.37976 1.41925e-19)
(22.8918 1.9927 0)
(22.4561 1.66795 -1.08151e-19)
(22.0137 1.40042 1.22038e-18)
(21.5703 1.18535 -1.58067e-18)
(21.1306 1.01818 1.76006e-18)
(20.6987 0.894452 -1.30754e-18)
(20.2782 0.809622 0)
(19.8723 0.758855 1.18862e-18)
(19.4833 0.73685 2.66903e-18)
(19.113 0.737689 -1.36018e-18)
(18.7615 0.754882 1.531e-18)
(18.426 0.781325 8.5579e-19)
(18.1029 0.809725 -1.62163e-18)
(17.7839 0.832051 2.55188e-18)
(17.4604 0.841979 -1.78827e-18)
(17.0968 0.827875 -1.38176e-18)
(16.7169 0.801944 -2.30938e-19)
(16.1468 0.72059 3.76157e-18)
(15.3598 9.99032 -1.27211e-18)
(16.0077 10.1852 -4.44275e-18)
(16.6098 10.3355 4.33325e-18)
(17.2014 10.4699 0)
(17.7939 10.5708 -1.87264e-19)
(18.3902 10.631 0)
(18.9965 10.6454 -6.90809e-18)
(19.6153 10.6057 5.11069e-18)
(20.2411 10.5024 2.54899e-18)
(20.8675 10.3278 -2.85121e-18)
(21.4912 10.075 5.10548e-19)
(22.0997 9.7351 -2.96788e-19)
(22.6659 9.30138 3.88468e-19)
(23.164 8.77413 5.51925e-19)
(23.5759 8.16383 1.49994e-19)
(23.8871 7.49186 -7.05676e-19)
(24.0875 6.78012 6.40135e-19)
(24.1729 6.05025 -7.4688e-19)
(24.1442 5.32344 0)
(24.0073 4.61887 -1.39933e-19)
(23.7688 3.95424 3.70041e-19)
(23.4788 3.39535 -2.05086e-19)
(23.1704 2.94599 7.16928e-21)
(22.834 2.55589 0)
(22.4781 2.22166 8.87301e-20)
(22.1097 1.93974 1.25512e-19)
(21.7352 1.70642 0)
(21.3598 1.51784 0)
(20.9879 1.36995 3.6634e-21)
(20.6229 1.25862 0)
(20.2681 1.17947 -1.44594e-18)
(19.9259 1.12783 0)
(19.5981 1.0987 2.266e-18)
(19.2851 1.08681 -2.34278e-18)
(18.9859 1.08661 0)
(18.699 1.09287 1.32669e-18)
(18.4207 1.10028 -1.38061e-18)
(18.1466 1.10541 6.91756e-19)
(17.8597 1.10232 2.19103e-18)
(17.5717 1.10002 -1.93765e-19)
(17.2025 1.07312 -4.53894e-18)
(15.7853 9.26094 3.37944e-18)
(16.3322 9.40723 1.25803e-19)
(16.8388 9.51876 -1.91138e-18)
(17.3316 9.61776 -3.50098e-18)
(17.8198 9.6916 -7.65896e-18)
(18.3067 9.73602 8.89304e-18)
(18.7983 9.74815 -4.08657e-19)
(19.2979 9.72259 -4.11167e-18)
(19.8034 9.65274 7.67298e-18)
(20.3117 9.53257 -6.43519e-19)
(20.8228 9.35688 -3.37785e-18)
(21.3299 9.1176 8.98787e-19)
(21.8152 8.80655 -1.13651e-18)
(22.2607 8.41938 1.90247e-18)
(22.6523 7.95927 -2.96993e-19)
(22.9756 7.43764 0)
(23.2185 6.86795 -6.33393e-20)
(23.3721 6.26549 1.48702e-19)
(23.4317 5.64708 4.1013e-19)
(23.3974 5.02974 -1.01534e-18)
(23.2704 4.43027 7.36168e-19)
(23.0836 3.91262 -7.15139e-20)
(22.8657 3.48572 -5.96091e-21)
(22.6153 3.1071 -1.32908e-18)
(22.3405 2.7755 2.92712e-18)
(22.0482 2.48908 -1.7146e-18)
(21.7448 2.24553 2.02107e-18)
(21.4359 2.0421 -2.47283e-18)
(21.1259 1.87568 -3.02771e-18)
(20.8186 1.74284 2.73409e-18)
(20.517 1.63992 7.82157e-19)
(20.2234 1.56305 1.31455e-18)
(19.9395 1.50821 -4.05388e-18)
(19.6661 1.47124 3.82524e-18)
(19.4024 1.44786 -1.96289e-18)
(19.1478 1.4343 -1.04571e-18)
(18.9008 1.42704 0)
(18.6583 1.42367 -1.1441e-18)
(18.4131 1.42138 -1.1836e-18)
(18.1705 1.42485 -1.20796e-18)
(17.8964 1.42166 1.2556e-18)
(16.1334 8.61049 4.16894e-21)
(16.5952 8.71904 4.58649e-19)
(17.0218 8.8 1.67726e-18)
(17.4331 8.87094 -3.00819e-18)
(17.8365 8.92257 1.18993e-17)
(18.2353 8.9524 -1.0176e-17)
(18.6347 8.95905 1.27956e-17)
(19.0381 8.93913 6.31113e-18)
(19.4451 8.88811 -3.14383e-18)
(19.8545 8.80172 -8.93534e-19)
(20.2676 8.67624 -7.22411e-18)
(20.681 8.50555 2.74723e-19)
(21.0836 8.28212 0)
(21.4638 8.00045 -6.77203e-19)
(21.8115 7.66015 8.2132e-19)
(22.1156 7.26628 -1.00774e-18)
(22.365 6.8258 0)
(22.55 6.34792 1.29566e-18)
(22.6636 5.8441 -2.88721e-18)
(22.7019 5.32728 1.0288e-18)
(22.6623 4.8111 -1.7629e-18)
(22.5625 4.35309 1.9843e-18)
(22.4251 3.9653 7.84074e-20)
(22.2539 3.61359 -3.50334e-20)
(22.0557 3.29857 3.04896e-18)
(21.8368 3.02002 -3.07722e-18)
(21.6028 2.77704 1.08513e-19)
(21.3593 2.56811 2.43604e-19)
(21.1104 2.39119 -2.28842e-18)
(20.86 2.24391 2.60976e-18)
(20.611 2.12358 -3.20337e-19)
(20.3658 2.02732 3.44032e-19)
(20.1262 1.9521 -1.49891e-18)
(19.8931 1.89483 7.03753e-19)
(19.6665 1.85229 3.23604e-18)
(19.4463 1.82188 -8.0676e-19)
(19.2321 1.80122 8.9367e-19)
(19.022 1.78834 -1.80052e-18)
(18.8128 1.78159 9.34328e-19)
(18.6072 1.78275 9.77499e-19)
(18.3898 1.78443 0)
(16.415 8.03413 -5.15123e-18)
(16.8048 8.11322 9.23733e-18)
(17.1639 8.17046 8.70287e-18)
(17.5075 8.21975 -2.29006e-17)
(17.8414 8.25393 8.49335e-18)
(18.1688 8.27164 -1.75414e-17)
(18.4942 8.27239 1.4224e-17)
(18.8205 8.25406 -2.06279e-17)
(19.148 8.21359 1.88657e-17)
(19.4767 8.14804 -6.13766e-19)
(19.808 8.05491 -7.69283e-18)
(20.1406 7.92967 -7.30626e-19)
(20.4676 7.7665 -5.85509e-18)
(20.7816 7.56046 5.7759e-18)
(21.0762 7.30991 -4.58367e-18)
(21.3437 7.01661 4.98695e-18)
(21.5753 6.68357 0)
(21.7629 6.31554 -3.45522e-18)
(21.8993 5.91941 4.25761e-18)
(21.9795 5.50378 -3.98151e-18)
(21.9987 5.07838 -2.32668e-19)
(21.9636 4.69123 6.68847e-18)
(21.8907 4.35502 1.03708e-19)
(21.7857 4.04345 -2.59702e-18)
(21.6541 3.75827 -4.97031e-24)
(21.5007 3.5004 0)
(21.3303 3.2701 -3.4494e-18)
(21.1476 3.06693 3.41043e-18)
(20.9564 2.8899 0)
(20.7602 2.73762 -2.50751e-19)
(20.5616 2.60838 0)
(20.3631 2.5003 2.35111e-18)
(20.1665 2.41133 -2.6603e-18)
(19.9732 2.33937 -2.579e-18)
(19.7834 2.28214 5.2701e-18)
(19.5977 2.23788 -3.0339e-18)
(19.4167 2.205 -3.54311e-19)
(19.2393 2.18186 7.37035e-19)
(19.0643 2.16726 -7.5994e-19)
(18.8932 2.16162 0)
(18.7196 2.15969 -7.80825e-19)
(16.6312 7.54902 0)
(16.9624 7.60631 -1.25327e-17)
(17.2669 7.64643 5.66324e-19)
(17.5563 7.68009 1.67372e-17)
(17.8353 7.70158 1.02433e-17)
(18.107 7.71031 -1.05244e-17)
(18.3751 7.7063 9.57781e-18)
(18.6421 7.68817 9.15899e-18)
(18.9087 7.65384 1.71872e-17)
(19.1751 7.60125 -2.17375e-17)
(19.4427 7.52874 2.11819e-18)
(19.7111 7.43304 2.03209e-18)
(19.9759 7.30968 -7.00457e-18)
(20.2323 7.15476 5.08845e-18)
(20.4765 6.96656 7.08572e-18)
(20.703 6.74547 -5.38498e-18)
(20.9059 6.49254 -6.24346e-18)
(21.0787 6.21005 6.36974e-18)
(21.2157 5.90186 0)
(21.3119 5.57332 7.22298e-19)
(21.3624 5.23084 7.23025e-19)
(21.3676 4.91254 5.52062e-18)
(21.3385 4.63016 -1.11944e-17)
(21.2814 4.36364 5.79772e-18)
(21.2001 4.11514 3.12707e-18)
(21.0982 3.88613 4.56904e-20)
(20.9794 3.67748 -3.298e-18)
(20.8474 3.48949 5.3186e-20)
(20.7054 3.32191 3.75975e-21)
(20.5561 3.17412 3.96586e-18)
(20.4022 3.04521 -4.00672e-18)
(20.2457 2.93404 -2.17657e-18)
(20.0883 2.83936 2.32101e-18)
(19.9314 2.7598 -2.34535e-18)
(19.7759 2.69378 2.04688e-18)
(19.6224 2.64017 1.86748e-18)
(19.472 2.59794 -9.33201e-19)
(19.3243 2.56576 3.25992e-19)
(19.1793 2.54271 0)
(19.0378 2.52868 0)
(18.8978 2.52 8.06973e-21)
(16.7912 7.15873 -5.76653e-18)
(17.0765 7.20053 6.42482e-18)
(17.3383 7.2285 -2.69887e-18)
(17.5858 7.25094 -5.1797e-18)
(17.8229 7.26321 0)
(18.0523 7.26524 9.84799e-18)
(18.2772 7.25731 -2.34887e-17)
(18.4998 7.23851 1.44749e-17)
(18.7207 7.20738 -4.6368e-18)
(18.9404 7.16249 4.19307e-18)
(19.1602 7.10271 -2.01993e-18)
(19.3799 7.02573 -1.80508e-17)
(19.5966 6.92825 3.17702e-17)
(19.8073 6.80726 -1.36388e-17)
(20.0092 6.66128 -1.63561e-18)
(20.199 6.49017 -6.67267e-18)
(20.3723 6.29414 2.02043e-17)
(20.5244 6.07419 -8.79502e-18)
(20.6509 5.83245 -1.3191e-17)
(20.7478 5.57218 5.43851e-18)
(20.8106 5.2975 -1.49938e-18)
(20.8368 5.03812 0)
(20.8338 4.80411 0)
(20.8073 4.58008 -6.43378e-18)
(20.7599 4.36812 6.43675e-18)
(20.6942 4.16978 9.94823e-20)
(20.613 3.98621 0)
(20.5191 3.81803 3.65758e-18)
(20.4149 3.66544 -3.66433e-18)
(20.3028 3.52832 2.9265e-20)
(20.1848 3.40625 -3.17569e-20)
(20.0628 3.29865 0)
(19.9383 3.20479 2.0353e-18)
(19.8125 3.1238 -2.14888e-18)
(19.6864 3.05461 2.77947e-19)
(19.5609 2.99649 -2.85878e-19)
(19.437 2.94876 0)
(19.3148 2.91037 -3.0044e-19)
(19.1946 2.8806 -6.19797e-19)
(19.0772 2.8592 3.02971e-19)
(18.9625 2.8437 9.39195e-19)
(16.9122 6.84089 0)
(17.1609 6.87137 0)
(17.3887 6.8905 -1.00497e-17)
(17.603 6.90479 -1.95023e-17)
(17.8072 6.91041 2.96773e-17)
(18.0036 6.9076 -2.35759e-17)
(18.1951 6.89679 -8.95145e-18)
(18.3836 6.87736 1.87283e-17)
(18.5696 6.84825 -1.80105e-17)
(18.7537 6.80846 1.80044e-17)
(18.9369 6.75718 0)
(19.1192 6.69277 0)
(19.2987 6.61278 1.63129e-17)
(19.4732 6.51496 -3.21867e-17)
(19.6411 6.39816 3.07627e-17)
(19.7998 6.26211 -1.49581e-17)
(19.9464 6.1067 -1.86398e-18)
(20.0776 5.93236 1.63769e-17)
(20.1899 5.74024 -1.11065e-17)
(20.2803 5.53237 0)
(20.3451 5.31134 7.73091e-19)
(20.3807 5.10023 0)
(20.392 4.90733 -7.12013e-18)
(20.3841 4.72066 1.38882e-17)
(20.3588 4.54203 -6.76718e-18)
(20.3177 4.37291 0)
(20.263 4.21442 0)
(20.1967 4.0673 3.44114e-18)
(20.1208 3.93197 -3.67223e-18)
(20.0371 3.80855 -3.85268e-18)
(19.9473 3.69696 3.87894e-18)
(19.8528 3.59693 4.03561e-18)
(19.7549 3.50809 -4.04623e-18)
(19.6549 3.4299 0)
(19.5535 3.36162 -3.35755e-20)
(19.4517 3.30282 0)
(19.3504 3.25304 -8.68478e-21)
(19.2499 3.21146 -3.5266e-20)
(19.1506 3.17751 1.22274e-18)
(19.0532 3.15091 -1.73118e-18)
(18.9582 3.13009 5.71881e-19)
(17.0057 6.57728 0)
(17.2243 6.59932 -1.21144e-18)
(17.4242 6.61192 0)
(17.6116 6.62023 9.32775e-18)
(17.7892 6.62101 -9.20752e-18)
(17.9593 6.61472 0)
(18.1244 6.60186 8.97438e-18)
(18.2859 6.58199 8.65822e-18)
(18.4445 6.55435 -2.27263e-17)
(18.6007 6.5182 0)
(18.7554 6.47297 1.71612e-17)
(18.9085 6.41748 -3.42563e-17)
(19.0588 6.3499 1.70419e-17)
(19.2047 6.26859 0)
(19.3451 6.17266 -1.58616e-17)
(19.4782 6.06188 1.76232e-17)
(19.6019 5.93606 1.66648e-17)
(19.7138 5.79538 -1.83844e-17)
(19.8114 5.6405 -1.7043e-18)
(19.8924 5.47271 0)
(19.9539 5.29366 0)
(19.9923 5.12134 -9.01917e-19)
(20.0108 4.96242 4.12738e-19)
(20.0138 4.80745 7.03047e-18)
(20.0023 4.65791 5.36951e-19)
(19.9777 4.51507 -7.04534e-18)
(19.9414 4.37993 7.24289e-18)
(19.8951 4.25321 -7.00757e-18)
(19.8402 4.13537 -4.2074e-18)
(19.778 4.02667 3.72654e-18)
(19.71 3.92717 -3.85781e-18)
(19.6372 3.83681 3.84917e-18)
(19.5609 3.7554 0)
(19.4819 3.68263 -4.30003e-18)
(19.401 3.61801 4.06579e-18)
(19.3191 3.56125 0)
(19.2369 3.5121 8.11882e-21)
(19.1548 3.46987 1.10071e-18)
(19.0733 3.43416 -1.13053e-18)
(18.9929 3.40472 5.11638e-19)
(18.9143 3.38057 -5.33138e-19)
(17.079 6.35537 0)
(17.2725 6.37103 1.11557e-18)
(17.4492 6.37876 -8.9394e-18)
(17.6144 6.38262 1.74689e-17)
(17.7702 6.37989 -3.5251e-17)
(17.9188 6.37113 1.77705e-17)
(18.0623 6.35687 0)
(18.2021 6.33683 8.59764e-18)
(18.3387 6.31042 5.16678e-17)
(18.4726 6.27711 -3.48546e-17)
(18.6045 6.23649 0)
(18.7345 6.18769 -4.32138e-18)
(18.8615 6.12937 1.23441e-17)
(18.9845 6.06029 -3.09871e-19)
(19.1026 5.97982 -1.64728e-17)
(19.2147 5.88779 1.78399e-17)
(19.3192 5.78403 -1.55034e-17)
(19.4143 5.66862 1.4848e-17)
(19.4982 5.54199 -1.48597e-17)
(19.5691 5.40498 -1.4569e-17)
(19.6251 5.25869 1.25584e-17)
(19.6625 5.11723 -6.28604e-18)
(19.6838 4.98594 7.97821e-18)
(19.6927 4.85726 -7.53572e-18)
(19.6897 4.73237 -1.39847e-18)
(19.6758 4.6123 7.11503e-18)
(19.6522 4.4979 0)
(19.62 4.3898 0)
(19.5804 4.28845 -6.93614e-18)
(19.5344 4.19411 7.36119e-18)
(19.483 4.10693 0)
(19.4272 4.02693 4.80592e-19)
(19.368 3.95404 4.85149e-19)
(19.306 3.88809 4.13683e-18)
(19.2419 3.82872 -4.13059e-18)
(19.1765 3.77577 -1.98874e-18)
(19.1103 3.72908 1.98101e-18)
(19.0438 3.68814 -7.5911e-19)
(18.9774 3.65262 2.02822e-18)
(18.9116 3.62233 -9.8377e-19)
(18.8467 3.59675 -1.26427e-19)
(17.1373 6.16628 8.23914e-18)
(17.3096 6.17706 1.00667e-17)
(17.4667 6.18112 -1.82063e-19)
(17.6131 6.18167 0)
(17.7507 6.17638 0)
(17.8814 6.1659 0)
(18.0071 6.15076 0)
(18.1291 6.13077 -3.32263e-17)
(18.2477 6.10548 5.88058e-17)
(18.3635 6.07451 -3.37887e-17)
(18.4769 6.03758 3.31599e-17)
(18.5882 5.99402 -2.1044e-17)
(18.6964 5.94286 3.6829e-17)
(18.8008 5.88317 -4.51202e-17)
(18.9009 5.81452 1.63822e-17)
(18.9957 5.73678 1.19362e-17)
(19.0842 5.64986 -1.55979e-17)
(19.1649 5.55381 1.84348e-18)
(19.2366 5.44892 -1.90969e-18)
(19.2981 5.33578 1.85065e-17)
(19.3476 5.21516 1.62681e-17)
(19.3823 5.09824 -2.69462e-17)
(19.404 4.98926 -8.64335e-19)
(19.4155 4.88212 0)
(19.4174 4.77775 8.64759e-19)
(19.4104 4.67696 -9.09347e-19)
(19.3953 4.58044 -6.27239e-18)
(19.373 4.48873 7.15657e-18)
(19.3445 4.40219 -7.26432e-18)
(19.3104 4.3211 7.23702e-18)
(19.2716 4.24559 7.36232e-18)
(19.2289 4.17574 -7.78701e-18)
(19.183 4.11152 -4.57346e-19)
(19.1345 4.05284 3.7601e-18)
(19.084 3.99945 -3.03564e-18)
(19.0319 3.95124 0)
(18.979 3.90813 0)
(18.9254 3.86972 -2.37918e-19)
(18.8716 3.83577 4.8487e-19)
(18.818 3.80612 4.86734e-19)
(18.7648 3.78056 1.18423e-19)
(17.1842 6.00347 0)
(17.3382 6.0105 -1.90732e-18)
(17.4786 6.01179 1.53123e-17)
(17.609 6.00987 -1.56393e-17)
(17.7311 6.00274 -3.10292e-17)
(17.8468 5.99109 3.18427e-17)
(17.9576 5.97546 1.55623e-17)
(18.0647 5.9557 -3.22866e-17)
(18.1684 5.93149 -3.19573e-17)
(18.2691 5.90256 3.2531e-17)
(18.3674 5.86869 0)
(18.4633 5.82941 -1.61396e-17)
(18.5562 5.78398 3.2003e-17)
(18.6455 5.73173 -3.61775e-17)
(18.7307 5.67236 0)
(18.8113 5.60581 -4.00979e-18)
(18.8864 5.53203 3.91861e-18)
(18.9551 5.45107 0)
(19.0162 5.36317 1.8168e-18)
(19.069 5.26878 -3.5892e-18)
(19.1122 5.16843 1.63428e-17)
(19.1435 5.07108 -1.60778e-17)
(19.1641 4.98011 1.80437e-18)
(19.1766 4.89055 1.32453e-17)
(19.1811 4.8031 -1.31745e-17)
(19.1783 4.71842 8.61466e-19)
(19.1689 4.63705 -7.93715e-18)
(19.1535 4.55941 7.04262e-18)
(19.1328 4.48582 8.98678e-19)
(19.1075 4.4165 0)
(19.0781 4.35158 0)
(19.0454 4.29113 0)
(19.0097 4.23516 -3.61072e-18)
(18.9718 4.18361 3.59429e-18)
(18.9319 4.1363 -4.48026e-19)
(18.8906 4.09317 -3.65376e-18)
(18.8483 4.05417 4.09557e-18)
(18.8053 4.01898 0)
(18.7619 3.98742 5.90842e-21)
(18.7184 3.95937 -9.19879e-19)
(18.675 3.93483 4.48651e-19)
(17.2223 5.86204 7.0364e-18)
(17.3604 5.86619 0)
(17.4863 5.86538 -3.55146e-17)
(17.6029 5.86162 2.91713e-17)
(17.7118 5.85319 0)
(17.8146 5.8408 2.95675e-17)
(17.9128 5.82496 -2.29073e-19)
(18.0073 5.80558 3.02765e-17)
(18.0985 5.78243 -4.64343e-17)
(18.1867 5.75531 -3.07656e-17)
(18.2723 5.72407 3.13117e-17)
(18.3555 5.68837 7.69917e-18)
(18.4357 5.64767 0)
(18.5124 5.60146 0)
(18.5855 5.54956 -7.84532e-18)
(18.6543 5.49195 3.45701e-17)
(18.7183 5.42863 -6.82701e-17)
(18.7767 5.35968 2.98902e-17)
(18.8289 5.28527 3.7239e-18)
(18.8741 5.20577 3.68332e-18)
(18.9115 5.12158 -1.75325e-18)
(18.939 5.03994 2.64444e-17)
(18.958 4.96355 -4.53621e-17)
(18.9703 4.88832 8.25848e-19)
(18.9761 4.8148 1.29813e-17)