/*--------------------------------*- C++ -*----------------------------------*\
| =========                 |                                                 |
| \\      /  F ield         | OpenFOAM: The Open Source CFD Toolbox           |
|  \\    /   O peration     | Version:  5.x                                   |
|   \\  /    A nd           | Web:      www.OpenFOAM.org                      |
|    \\/     M anipulation  |                                                 |
\*---------------------------------------------------------------------------*/
FoamFile
{
    version     2.0;
    format      ascii;
    class       volVectorField;
    location    "500";
    object      wallShearStress;
}
// * * * * * * * * * * * * * * * * * * * * * * * * * * * * * * * * * * * * * //

dimensions      [0 2 -2 0 0 0 0];

internalField   uniform (0 0 0);

boundaryField
{
    inlet
    {
        type            calculated;
        value           uniform (0 0 0);
    }
    outlet
    {
        type            calculated;
        value           uniform (0 0 0);
    }
    walls
    {
        type            calculated;
        value           nonuniform List<vector> 
82
(
(0.116189 -0.818191 -3.76158e-37)
(-0.0277502 -1.2067 7.14163e-21)
(-0.21673 -1.53282 -8.36435e-19)
(-0.496543 -1.57464 -9.43871e-19)
(-0.728978 -1.4793 -2.20227e-18)
(-0.898864 -1.30386 1.10308e-18)
(-1.00378 -1.09525 1.0633e-18)
(-1.05276 -0.884599 -9.97723e-19)
(-1.05776 -0.690389 -2.26066e-18)
(-1.02473 -0.519034 -7.32784e-20)
(-0.93195 -0.354048 -1.00708e-18)
(-0.814151 -0.2199 5.0853e-20)
(-0.726038 -0.140854 -7.72916e-19)
(-0.679132 -0.102649 -7.10637e-19)
(-0.639515 -0.0763914 -5.53361e-19)
(-0.59075 -0.0511365 -3.16177e-19)
(-0.535657 -0.0290705 2.38692e-19)
(-0.479872 -0.0113974 1.88474e-20)
(-0.425074 0.00219873 -1.88135e-20)
(-0.371362 0.0121572 -9.57596e-20)
(-0.318591 0.0188365 -6.1582e-20)
(-0.273447 0.0220484 -3.58761e-20)
(-0.235155 0.0230599 -2.01569e-20)
(-0.19915 0.022785 2.61966e-21)
(-0.165411 0.0214824 1.34136e-21)
(-0.134037 0.0193602 -3.68985e-21)
(-0.10517 0.0166064 2.97465e-19)
(-0.079167 0.0134082 -6.12074e-21)
(-0.056535 0.0101825 4.10772e-19)
(-0.0368707 0.00715243 -4.37795e-19)
(-0.0208272 0.00435887 -7.14916e-21)
(-0.00895561 0.00205727 -3.99478e-21)
(-0.00217411 0.000556009 3.71837e-21)
(0.00144541 -0.0002582 1.50463e-36)
(0.00500357 -0.00113285 -1.25524e-18)
(0.00881717 -0.00239922 0)
(0.0155335 -0.00474331 -2.64486e-38)
(0.0279035 -0.00788961 2.47981e-21)
(0.0422292 -0.00831572 -2.57822e-21)
(0.0459492 -0.000333254 1.18574e-18)
(0.0213065 0.0097603 1.17498e-18)
(0.142721 -0.532023 -2.28785e-19)
(0.08767 -0.239959 -3.23586e-20)
(0.0325714 -0.0849301 -1.54531e-18)
(-0.000172876 -0.0157816 -6.54281e-19)
(-0.0165929 0.00154094 -7.97086e-19)
(-0.0500989 0.020223 -1.02738e-18)
(-0.0894827 0.0369506 -2.12059e-18)
(-0.128391 0.0490824 -9.88445e-19)
(-0.165085 0.0581054 8.75384e-19)
(-0.20511 0.0691777 5.91027e-20)
(-0.251516 0.0786388 -1.74269e-18)
(-0.292622 0.0774603 7.78041e-19)
(-0.324119 0.0696086 2.09803e-21)
(-0.350535 0.0610175 4.68586e-19)
(-0.373973 0.0523475 7.13431e-19)
(-0.393759 0.0429967 -4.32465e-20)
(-0.409619 0.0331095 4.70198e-38)
(-0.421859 0.0230354 -2.71738e-19)
(-0.430807 0.0130591 -1.8979e-20)
(-0.436842 0.0034005 -1.41408e-19)
(-0.439973 -0.00570195 3.52962e-22)
(-0.441325 -0.0138312 -1.88079e-37)
(-0.440908 -0.0202666 -2.84192e-19)
(-0.439732 -0.0259022 -2.44449e-19)
(-0.43804 -0.0308973 5.08029e-19)
(-0.435972 -0.0353392 4.95602e-19)
(-0.433665 -0.0392872 9.68098e-19)
(-0.431232 -0.0428034 4.73048e-19)
(-0.428748 -0.0459502 1.43493e-20)
(-0.426275 -0.0487901 -4.65924e-19)
(-0.42388 -0.0513835 -4.48641e-19)
(-0.42163 -0.0537929 8.70025e-19)
(-0.41957 -0.0560759 8.49658e-19)
(-0.417726 -0.0582819 -8.29304e-19)
(-0.416085 -0.0604545 6.24021e-21)
(-0.414686 -0.0626344 -6.15388e-21)
(-0.413434 -0.0648595 5.87747e-39)
(-0.412818 -0.0672179 0)
(-0.411168 -0.0696957 1.40558e-21)
(-0.416761 -0.0727789 -7.13705e-19)
(-0.399064 -0.0758892 6.51969e-22)
)
;
    }
    frontAndBack
    {
        type            empty;
    }
}


// ************************************************************************* //
