/*--------------------------------*- C++ -*----------------------------------*\
| =========                 |                                                 |
| \\      /  F ield         | OpenFOAM: The Open Source CFD Toolbox           |
|  \\    /   O peration     | Version:  5.x                                   |
|   \\  /    A nd           | Web:      www.OpenFOAM.org                      |
|    \\/     M anipulation  |                                                 |
\*---------------------------------------------------------------------------*/
FoamFile
{
    version     2.0;
    format      ascii;
    class       volVectorField;
    location    "1850";
    object      wallShearStress;
}
// * * * * * * * * * * * * * * * * * * * * * * * * * * * * * * * * * * * * * //

dimensions      [0 2 -2 0 0 0 0];

internalField   uniform (0 0 0);

boundaryField
{
    inlet
    {
        type            calculated;
        value           uniform (0 0 0);
    }
    outlet
    {
        type            calculated;
        value           uniform (0 0 0);
    }
    walls
    {
        type            calculated;
        value           nonuniform List<vector> 
82
(
(0.205645 -1.42245 0)
(-0.0439471 -2.10089 1.23772e-20)
(-0.370362 -2.672 -1.45258e-18)
(-0.856064 -2.74693 -1.6367e-18)
(-1.25997 -2.58251 -3.81236e-18)
(-1.55578 -2.27777 1.90673e-18)
(-1.73997 -1.91427 1.83401e-18)
(-1.82802 -1.54676 -1.71786e-18)
(-1.83986 -1.20775 -3.89078e-18)
(-1.7851 -0.908484 -1.2623e-19)
(-1.62502 -0.619869 -1.72953e-18)
(-1.42141 -0.385154 8.69382e-20)
(-1.27055 -0.24693 -1.31826e-18)
(-1.19251 -0.180321 -1.20798e-18)
(-1.12731 -0.134703 -9.38392e-19)
(-1.0458 -0.0907188 -5.3432e-19)
(-0.952549 -0.0520464 4.01683e-19)
(-0.857506 -0.0208151 3.13755e-20)
(-0.76377 0.00345252 -3.13243e-20)
(-0.671607 0.0214658 -1.56132e-19)
(-0.580733 0.0338081 -9.72273e-20)
(-0.502804 0.0400531 -5.18976e-20)
(-0.436438 0.0423457 -1.53148e-20)
(-0.373771 0.0423371 5.764e-21)
(-0.314723 0.0404737 2.33503e-21)
(-0.259422 0.037114 -7.01004e-21)
(-0.207977 0.0326205 5.56836e-19)
(-0.160556 0.0274036 -1.13778e-20)
(-0.117309 0.0217454 7.87378e-19)
(-0.0791478 0.0157835 -8.57564e-19)
(-0.048114 0.0101202 -1.38092e-20)
(-0.0244631 0.00544644 -7.44974e-21)
(-0.00883035 0.00209723 6.58701e-21)
(-0.000822875 0.000281257 -1.50463e-36)
(0.00397831 -0.000882421 -1.91971e-18)
(0.00973807 -0.00272389 6.01853e-36)
(0.0197829 -0.00640467 -6.46522e-38)
(0.0408661 -0.0120441 4.81156e-21)
(0.0687829 -0.013765 -4.83542e-21)
(0.0795594 -0.000670816 2.36486e-18)
(0.0360361 0.0158665 2.16111e-18)
(0.250122 -0.923928 -3.97021e-19)
(0.153527 -0.415409 -5.58554e-20)
(0.0576851 -0.146464 -2.66826e-18)
(0.000735975 -0.0266751 -1.09624e-18)
(-0.02468 0.00169349 -1.29582e-18)
(-0.0801185 0.0325733 -1.76718e-18)
(-0.146863 0.0617757 -3.64329e-18)
(-0.212985 0.0823337 -1.6603e-18)
(-0.275115 0.0968279 1.47536e-18)
(-0.343442 0.115366 1.01279e-19)
(-0.422703 0.131867 -3.02438e-18)
(-0.493149 0.130664 1.36082e-18)
(-0.547492 0.11804 3.55278e-21)
(-0.593239 0.103892 8.26375e-19)
(-0.633941 0.0894272 1.26181e-18)
(-0.668442 0.0736898 -7.66033e-20)
(-0.696255 0.0569525 -3.76158e-37)
(-0.71787 0.0398268 -4.83865e-19)
(-0.733855 0.022816 -3.38099e-20)
(-0.744835 0.00630648 -2.52903e-19)
(-0.750831 -0.00928151 5.95077e-22)
(-0.753699 -0.0232392 9.40395e-38)
(-0.75346 -0.0343147 -5.09739e-19)
(-0.75188 -0.0440292 -4.38925e-19)
(-0.749356 -0.0526438 9.13395e-19)
(-0.746107 -0.0603031 8.92244e-19)
(-0.742386 -0.0671087 1.74519e-18)
(-0.738392 -0.0731673 8.53883e-19)
(-0.734259 -0.0785853 2.59544e-20)
(-0.730096 -0.0834718 -8.43243e-19)
(-0.726039 -0.0879318 -8.12965e-19)
(-0.722191 -0.0920707 1.57864e-18)
(-0.718605 -0.0959837 1.54403e-18)
(-0.715315 -0.0997501 -1.50962e-18)
(-0.712291 -0.103442 1.13906e-20)
(-0.709568 -0.107126 -1.12361e-20)
(-0.70697 -0.110862 0)
(-0.705294 -0.114788 -4.4081e-39)
(-0.701625 -0.118875 2.59328e-21)
(-0.709745 -0.12383 -1.31963e-18)
(-0.678045 -0.128931 1.21008e-21)
)
;
    }
    frontAndBack
    {
        type            empty;
    }
}


// ************************************************************************* //
