/*--------------------------------*- C++ -*----------------------------------*\
| =========                 |                                                 |
| \\      /  F ield         | OpenFOAM: The Open Source CFD Toolbox           |
|  \\    /   O peration     | Version:  5.x                                   |
|   \\  /    A nd           | Web:      www.OpenFOAM.org                      |
|    \\/     M anipulation  |                                                 |
\*---------------------------------------------------------------------------*/
FoamFile
{
    version     2.0;
    format      ascii;
    class       volScalarField;
    location    "2350";
    object      nut;
}
// * * * * * * * * * * * * * * * * * * * * * * * * * * * * * * * * * * * * * //

dimensions      [0 2 -1 0 0 0 0];

internalField   nonuniform List<scalar> 
11040
(
0.00332943
0.00390941
0.00420024
0.00424548
0.00406822
0.00380357
0.00357733
0.00338119
0.00317797
0.00294506
0.00265447
0.00237989
0.0021656
0.00199922
0.00182992
0.0016469
0.00143838
0.00108412
0.000776877
0.000632498
0.00054732
0.000466533
0.000404
0.000440581
0.000541703
0.000546179
0.000498448
0.000433692
0.000416459
0.000415032
0.000422505
0.000438621
0.000463996
0.000497095
0.000532584
0.000557217
0.000541236
0.000458268
0.000441519
0.000527484
0.000891672
0.00771749
0.008242
0.00749552
0.00672137
0.00599138
0.00536181
0.00528617
0.00531953
0.00528436
0.00514311
0.00495207
0.00480206
0.00469514
0.00457371
0.0043934
0.00418985
0.00398189
0.00373792
0.00347769
0.00327225
0.00298123
0.00256949
0.00215254
0.00192702
0.00170046
0.00148592
0.00132012
0.00116637
0.00105972
0.000980454
0.000937426
0.000931961
0.000969561
0.00105363
0.00118709
0.00137022
0.00158925
0.00182157
0.00211728
0.00273714
0.0043344
0.015742
0.0165418
0.0154626
0.0141354
0.0126556
0.0111912
0.00987797
0.0087515
0.00781789
0.00699404
0.00649437
0.00632012
0.00626129
0.00625585
0.006225
0.00615138
0.00603682
0.00588261
0.00569962
0.00552147
0.00532053
0.0051183
0.00489359
0.00454283
0.00401908
0.00351725
0.00316112
0.00283839
0.00260535
0.00242275
0.00230338
0.00226896
0.00233567
0.00251444
0.00280851
0.0032128
0.00370367
0.00424287
0.00485069
0.0059485
0.008888
0.0249221
0.0257888
0.0246122
0.0228875
0.0208851
0.0188207
0.0168216
0.0149366
0.0132072
0.0116129
0.0101144
0.00888072
0.00821135
0.00796771
0.00786118
0.00780138
0.00774579
0.00766987
0.00756425
0.00744485
0.0073315
0.0072766
0.00725326
0.0071703
0.00694794
0.00653336
0.0059399
0.00535525
0.00493426
0.00460114
0.00436777
0.00427304
0.00434925
0.00462256
0.00510336
0.00578311
0.0066151
0.00753697
0.0085466
0.0101882
0.0143308
0.0349318
0.0357491
0.034573
0.0326166
0.0302358
0.0276744
0.0250946
0.022537
0.020104
0.0178088
0.0155465
0.0135085
0.0119149
0.0106999
0.0100645
0.00970365
0.00948222
0.00933399
0.00921945
0.00912668
0.009077
0.00913144
0.00928999
0.00948724
0.00960979
0.00955816
0.00929181
0.00885077
0.00830837
0.00777737
0.00737549
0.00717334
0.00722422
0.0075775
0.00825709
0.00925688
0.0104871
0.0118503
0.0132925
0.0154445
0.0204285
0.0453878
0.0461089
0.0449963
0.0429722
0.0403925
0.0374385
0.0343178
0.0311828
0.0281428
0.0252187
0.0222891
0.0195576
0.0172458
0.0153338
0.0137327
0.0124989
0.0118203
0.0113565
0.0110136
0.010772
0.0106559
0.0107206
0.0109826
0.0114143
0.0118949
0.0122677
0.0124251
0.0123494
0.0120869
0.011719
0.0113579
0.0111425
0.0112116
0.0116523
0.0125173
0.0138561
0.0155148
0.0173511
0.0191935
0.0217227
0.0270588
0.0559764
0.0565642
0.055548
0.0535888
0.050955
0.0478404
0.0444517
0.0409416
0.0374407
0.0339892
0.03047
0.0271009
0.0241401
0.0216051
0.0193203
0.0172623
0.0154725
0.0143363
0.0135103
0.0128603
0.0124065
0.0122416
0.0124001
0.0128923
0.0136417
0.0144576
0.015134
0.0155544
0.0157147
0.0156823
0.0155752
0.0155663
0.0158751
0.0166877
0.018064
0.0198936
0.0219734
0.0242804
0.0264065
0.0291005
0.0340999
0.0663469
0.0668142
0.0659177
0.0641143
0.061588
0.0585351
0.0551253
0.0514856
0.0477436
0.0439489
0.0399953
0.0361038
0.0325667
0.0294416
0.026564
0.0238833
0.0213548
0.0190645
0.0174142
0.0160917
0.0149965
0.0142667
0.0139747
0.0141497
0.0148244
0.0158865
0.0170797
0.0181313
0.0188955
0.0193733
0.0196652
0.0199638
0.020559
0.0217677
0.0237968
0.0266176
0.029879
0.032954
0.0351661
0.0377252
0.0417145
0.0762588
0.0766097
0.0758327
0.0742342
0.071938
0.0691116
0.0658839
0.0623452
0.0586029
0.0546981
0.0505335
0.0463136
0.0423429
0.0387172
0.0353137
0.0320953
0.0290222
0.0260307
0.0233291
0.021142
0.0192295
0.0177043
0.0166414
0.0160428
0.0160568
0.0167531
0.0180332
0.019609
0.0211261
0.0223579
0.023283
0.0240529
0.0249721
0.0264641
0.0289228
0.0324766
0.0368824
0.0415404
0.0454836
0.0478471
0.0505617
0.08547
0.0857221
0.0850621
0.0836896
0.0816884
0.0791904
0.0762861
0.0730295
0.0695003
0.0657004
0.0615577
0.0572434
0.053046
0.0490926
0.0453218
0.0416878
0.0381725
0.0347277
0.0313446
0.0283134
0.0255972
0.0232883
0.0213974
0.019821
0.018737
0.0183419
0.0187725
0.0200114
0.0218273
0.0238336
0.0256769
0.0272375
0.0286959
0.0304815
0.0331414
0.0370604
0.0422026
0.0480872
0.0538749
0.0585286
0.061241
0.0938211
0.0939968
0.0934464
0.0922977
0.0906091
0.0884807
0.0859737
0.083099
0.0799126
0.0764292
0.0725609
0.0684269
0.0642702
0.0602175
0.0562347
0.0523352
0.0485171
0.0447683
0.0410097
0.037374
0.0340346
0.031144
0.0286382
0.0262733
0.0241569
0.0224695
0.0214321
0.0212482
0.0220192
0.0236639
0.0259003
0.0283431
0.0307175
0.0330913
0.0359345
0.0398554
0.045169
0.0516723
0.0586742
0.0651701
0.07016
0.101235
0.101355
0.100902
0.0999572
0.0985651
0.0968012
0.0947068
0.0922698
0.0895319
0.086495
0.0830755
0.0793458
0.075487
0.0716014
0.0676679
0.0637192
0.0597742
0.0558397
0.0518903
0.0478931
0.0440842
0.0408366
0.0380003
0.0352233
0.0325139
0.0299507
0.0276791
0.0259039
0.0248544
0.0247252
0.025603
0.0274118
0.0299226
0.0328743
0.0361911
0.0401313
0.0451594
0.0515454
0.0589912
0.0666559
0.0734678
0.107707
0.107784
0.107408
0.106639
0.105509
0.104076
0.102368
0.100366
0.0981003
0.0955651
0.0926853
0.0894974
0.0861107
0.0826062
0.0789723
0.0752475
0.0714385
0.0675573
0.0636067
0.0595619
0.0554378
0.0517878
0.0487449
0.045845
0.042984
0.0401332
0.0373251
0.0346506
0.0322595
0.0303497
0.029137
0.0288061
0.0294587
0.0310866
0.0336162
0.0370096
0.0413836
0.0470057
0.0539803
0.0619118
0.069937
0.113272
0.11331
0.112996
0.112373
0.111465
0.110316
0.108946
0.107337
0.105512
0.103462
0.101126
0.0985041
0.0956839
0.0927068
0.0895554
0.086251
0.0828078
0.0792443
0.0755489
0.0717149
0.0677221
0.0640044
0.0606751
0.0575569
0.0546587
0.0518418
0.0490295
0.0462043
0.0433972
0.0406863
0.0381979
0.0360985
0.0345724
0.0337877
0.0338702
0.0349014
0.0369521
0.0401693
0.0447633
0.0508591
0.0582982
0.11798
0.117995
0.117735
0.117233
0.11651
0.115597
0.11451
0.113234
0.111787
0.110164
0.108305
0.106224
0.10397
0.101561
0.0989748
0.0962188
0.093298
0.0902166
0.0869746
0.0835681
0.0799909
0.0765985
0.0734582
0.0703355
0.0672698
0.0643504
0.0616159
0.0589531
0.0562907
0.0536066
0.0509158
0.0482693
0.045755
0.0434905
0.0416078
0.0402511
0.0395489
0.03962
0.0406158
0.042715
0.0462211
0.121946
0.121944
0.121727
0.12132
0.120753
0.120027
0.119165
0.118158
0.117022
0.115752
0.114304
0.112686
0.110931
0.109045
0.107
0.104802
0.10246
0.09996
0.0972953
0.0944594
0.0914439
0.0885533
0.0858517
0.0831174
0.0803554
0.0775895
0.0748559
0.0721689
0.0695926
0.0671259
0.0646974
0.062267
0.0598221
0.0573793
0.0549738
0.0526788
0.0505853
0.0487738
0.047345
0.0464124
0.0461196
0.125272
0.125256
0.125073
0.124743
0.124288
0.123711
0.12303
0.122241
0.121354
0.120366
0.119248
0.118006
0.116661
0.115208
0.113636
0.111944
0.110129
0.108185
0.106111
0.103889
0.101506
0.0991965
0.0970186
0.0948038
0.0925523
0.0902636
0.0879419
0.0855962
0.0832463
0.0809135
0.0786053
0.0763245
0.0740935
0.0719155
0.0697634
0.0676217
0.065492
0.063377
0.0613088
0.0593493
0.0574368
0.127923
0.127903
0.127748
0.127479
0.127111
0.126648
0.126104
0.125482
0.124778
0.123998
0.123122
0.122157
0.121118
0.119998
0.118792
0.117497
0.116111
0.114626
0.113038
0.111338
0.109516
0.107741
0.106057
0.104341
0.102595
0.100818
0.0990093
0.0971719
0.0953028
0.093405
0.0914849
0.0895497
0.0876092
0.0856712
0.0837323
0.0817948
0.0798594
0.0779084
0.0759424
0.074062
0.072116
0.129963
0.129938
0.129808
0.129584
0.12928
0.128907
0.128462
0.127956
0.127387
0.126759
0.126064
0.125297
0.124475
0.123593
0.122648
0.121639
0.120564
0.119418
0.118196
0.116892
0.1155
0.114141
0.112849
0.111535
0.1102
0.108844
0.107466
0.106067
0.104646
0.1032
0.101733
0.100242
0.0987285
0.0971927
0.0956313
0.0940496
0.0924534
0.0908318
0.0891806
0.087518
0.0857737
0.131561
0.131536
0.131424
0.131236
0.130982
0.13067
0.1303
0.129881
0.129416
0.128901
0.128334
0.127712
0.127048
0.126345
0.12559
0.124787
0.123936
0.123034
0.122078
0.121063
0.119985
0.118934
0.117935
0.116923
0.115898
0.11486
0.11381
0.112747
0.111671
0.110582
0.109478
0.108359
0.107223
0.106073
0.104899
0.103704
0.10249
0.101249
0.0999787
0.0986831
0.09732
0.132844
0.13282
0.132725
0.132565
0.132349
0.132084
0.131776
0.131423
0.131033
0.130603
0.130131
0.129622
0.129077
0.128502
0.127888
0.127239
0.126554
0.125832
0.125071
0.124269
0.123422
0.122596
0.121814
0.121023
0.120226
0.119424
0.118612
0.117794
0.116973
0.116145
0.115311
0.114469
0.113619
0.112761
0.11189
0.111005
0.110108
0.109192
0.108255
0.107298
0.106301
0.133894
0.133874
0.133792
0.133655
0.133469
0.133242
0.132978
0.13268
0.132349
0.131987
0.131591
0.131164
0.13071
0.130231
0.129727
0.129195
0.128635
0.128049
0.127434
0.126789
0.126114
0.125456
0.124833
0.124208
0.123577
0.122947
0.122312
0.121675
0.121037
0.120399
0.119761
0.119119
0.118475
0.117828
0.117175
0.116515
0.115849
0.115172
0.114483
0.113782
0.113061
0.13477
0.134752
0.134682
0.134563
0.134402
0.134205
0.133976
0.133719
0.133437
0.133128
0.132792
0.13243
0.132049
0.131647
0.131225
0.130784
0.130324
0.129841
0.129337
0.128812
0.128266
0.127734
0.127232
0.126729
0.126225
0.125723
0.12522
0.124716
0.124214
0.123714
0.123216
0.122722
0.122228
0.121733
0.121236
0.120736
0.120234
0.119727
0.119214
0.118694
0.118167
0.135509
0.135494
0.135432
0.135329
0.135188
0.135016
0.134817
0.134593
0.134349
0.134081
0.133793
0.133483
0.133158
0.132819
0.132462
0.132091
0.131706
0.131307
0.130893
0.130461
0.130013
0.129579
0.129169
0.12876
0.128353
0.127949
0.127545
0.127142
0.126742
0.126344
0.12595
0.12556
0.125174
0.124791
0.124407
0.124023
0.12364
0.123255
0.122867
0.122478
0.122088
0.13614
0.136127
0.136073
0.135982
0.135859
0.135708
0.135534
0.135338
0.135124
0.134894
0.134643
0.134378
0.134097
0.133806
0.133503
0.13319
0.132864
0.132527
0.13218
0.131822
0.131455
0.131096
0.130757
0.130421
0.130088
0.129757
0.129429
0.129103
0.128781
0.128462
0.128147
0.127836
0.127529
0.127226
0.126926
0.126628
0.126333
0.126037
0.125741
0.125445
0.125151
0.136683
0.136672
0.136625
0.136545
0.136437
0.136305
0.136151
0.13598
0.135791
0.135589
0.135372
0.135141
0.1349
0.134648
0.134387
0.134118
0.133842
0.133558
0.133264
0.132963
0.132656
0.132358
0.132077
0.131798
0.131523
0.13125
0.13098
0.130714
0.130452
0.130193
0.129939
0.129688
0.129442
0.1292
0.128961
0.128725
0.128493
0.128264
0.128035
0.127808
0.127585
0.137155
0.137145
0.137104
0.137035
0.13694
0.136824
0.136688
0.136537
0.136371
0.136192
0.136002
0.135801
0.13559
0.135373
0.135148
0.134917
0.134679
0.134436
0.134187
0.133933
0.133674
0.133423
0.133187
0.132954
0.132724
0.132497
0.132274
0.132054
0.131838
0.131627
0.131419
0.131215
0.131016
0.130821
0.130629
0.13044
0.130255
0.130073
0.129893
0.129715
0.129544
0.137566
0.137559
0.137524
0.137464
0.137381
0.137278
0.137159
0.137025
0.136878
0.13672
0.136552
0.136374
0.136191
0.136001
0.135807
0.135606
0.135401
0.135193
0.13498
0.134763
0.134544
0.134332
0.134132
0.133935
0.133741
0.133551
0.133364
0.133181
0.133002
0.132827
0.132656
0.13249
0.132327
0.132168
0.132012
0.13186
0.131712
0.131566
0.131422
0.131282
0.131147
0.137927
0.137923
0.137894
0.137842
0.13777
0.13768
0.137574
0.137455
0.137324
0.137184
0.137035
0.136878
0.136716
0.136549
0.136378
0.136204
0.136027
0.135846
0.135663
0.135478
0.135291
0.13511
0.134939
0.134772
0.134608
0.134447
0.13429
0.134137
0.133988
0.133842
0.1337
0.133563
0.133429
0.133299
0.133172
0.133048
0.132928
0.13281
0.132695
0.132583
0.132476
0.138247
0.138245
0.138223
0.138178
0.138115
0.138035
0.137941
0.137835
0.137719
0.137594
0.137461
0.137322
0.137178
0.137031
0.13688
0.136727
0.136571
0.136415
0.136257
0.136097
0.135938
0.135782
0.135636
0.135493
0.135353
0.135216
0.135083
0.134954
0.134828
0.134707
0.134589
0.134474
0.134363
0.134256
0.134152
0.134051
0.133953
0.133857
0.133764
0.133674
0.133589
0.138531
0.138533
0.138515
0.138478
0.138423
0.138352
0.138268
0.138173
0.138069
0.137958
0.137839
0.137716
0.137588
0.137457
0.137324
0.137188
0.137052
0.136915
0.136777
0.136639
0.136502
0.136368
0.136242
0.136118
0.135998
0.135882
0.135768
0.135659
0.135552
0.13545
0.135351
0.135255
0.135163
0.135074
0.134987
0.134904
0.134824
0.134746
0.13467
0.134597
0.134529
0.138784
0.13879
0.138778
0.138746
0.138698
0.138635
0.13856
0.138475
0.138382
0.138282
0.138177
0.138066
0.137953
0.137837
0.137718
0.137599
0.137478
0.137358
0.137237
0.137116
0.136997
0.136881
0.136772
0.136665
0.136562
0.136461
0.136365
0.136271
0.136181
0.136094
0.13601
0.135929
0.135852
0.135778
0.135706
0.135637
0.135571
0.135507
0.135445
0.135386
0.135331
0.139011
0.139022
0.139014
0.138987
0.138944
0.138887
0.138821
0.138745
0.138663
0.138574
0.13848
0.138382
0.138281
0.138178
0.138073
0.137967
0.13786
0.137754
0.137648
0.137542
0.137438
0.137337
0.137241
0.137149
0.137059
0.136973
0.136889
0.136809
0.136732
0.136658
0.136586
0.136518
0.136453
0.136391
0.136331
0.136273
0.136218
0.136166
0.136115
0.136066
0.136022
0.139216
0.13923
0.139225
0.139202
0.139164
0.139115
0.139057
0.13899
0.138918
0.13884
0.138757
0.13867
0.13858
0.138488
0.138395
0.138301
0.138207
0.138113
0.138019
0.137926
0.137835
0.137747
0.137663
0.137582
0.137504
0.137429
0.137357
0.137287
0.137221
0.137158
0.137097
0.137039
0.136984
0.136931
0.136881
0.136833
0.136787
0.136743
0.136701
0.136661
0.136625
0.139402
0.139419
0.139416
0.139396
0.139363
0.139322
0.139272
0.139216
0.139153
0.139085
0.139013
0.138936
0.138857
0.138776
0.138693
0.13861
0.138526
0.138443
0.13836
0.138278
0.138198
0.13812
0.138047
0.137976
0.137908
0.137842
0.137779
0.137719
0.137662
0.137607
0.137555
0.137506
0.137458
0.137414
0.137371
0.137331
0.137292
0.137256
0.137221
0.137188
0.137158
0.13957
0.139588
0.139586
0.13957
0.139545
0.139513
0.139473
0.139427
0.139375
0.139317
0.139255
0.139189
0.139119
0.139048
0.138974
0.138901
0.138826
0.138753
0.138679
0.138607
0.138537
0.138468
0.138403
0.13834
0.13828
0.138223
0.138168
0.138116
0.138066
0.138018
0.137973
0.137931
0.137891
0.137852
0.137816
0.137782
0.13775
0.137719
0.13769
0.137663
0.137639
0.139721
0.139739
0.139739
0.139729
0.139713
0.139691
0.139663
0.139628
0.139588
0.139541
0.13949
0.139434
0.139374
0.139312
0.139249
0.139183
0.139118
0.139052
0.138987
0.138923
0.138861
0.1388
0.138743
0.138687
0.138634
0.138583
0.138535
0.138489
0.138445
0.138404
0.138365
0.138328
0.138294
0.138261
0.13823
0.138201
0.138174
0.138149
0.138125
0.138103
0.138084
0.139856
0.139871
0.139873
0.139871
0.139865
0.139855
0.139839
0.139817
0.13979
0.139757
0.13972
0.139678
0.139632
0.139583
0.139531
0.139477
0.139421
0.139365
0.139309
0.139253
0.139199
0.139147
0.139096
0.139047
0.139
0.138956
0.138914
0.138874
0.138836
0.138802
0.138769
0.138739
0.138711
0.138686
0.138663
0.138641
0.138623
0.138606
0.13859
0.138577
0.138567
0.139961
0.139974
0.139979
0.139982
0.139983
0.13998
0.139974
0.139965
0.139953
0.139937
0.139919
0.139897
0.139873
0.139846
0.139817
0.139786
0.139753
0.139718
0.139682
0.139646
0.13961
0.139573
0.139537
0.139502
0.139468
0.139435
0.139404
0.139374
0.139347
0.139321
0.139298
0.139276
0.139257
0.139239
0.139224
0.13921
0.139198
0.139188
0.139179
0.139171
0.139167
0.140018
0.140027
0.140033
0.140037
0.140039
0.14004
0.140039
0.140037
0.140032
0.140026
0.140019
0.140009
0.139999
0.139986
0.139973
0.139959
0.139943
0.139927
0.13991
0.139893
0.139875
0.139857
0.139839
0.139822
0.139804
0.139786
0.139769
0.139753
0.139738
0.139724
0.13971
0.139698
0.139687
0.139677
0.139668
0.13966
0.139653
0.139647
0.139643
0.139639
0.139637
0.140047
0.140054
0.14006
0.140066
0.14007
0.140073
0.140075
0.140076
0.140076
0.140075
0.140074
0.140071
0.140067
0.140062
0.140056
0.14005
0.140043
0.140036
0.140029
0.140021
0.140013
0.140005
0.139997
0.139989
0.139982
0.139974
0.139967
0.139959
0.139952
0.139946
0.13994
0.139934
0.139929
0.139925
0.139921
0.139917
0.139914
0.139911
0.139909
0.139907
0.139907
0.140061
0.140068
0.140074
0.14008
0.140085
0.14009
0.140094
0.140098
0.140101
0.140104
0.140106
0.140107
0.140107
0.140107
0.140106
0.140105
0.140103
0.140101
0.140098
0.140095
0.140092
0.140089
0.140086
0.140083
0.14008
0.140076
0.140073
0.14007
0.140068
0.140065
0.140063
0.14006
0.140059
0.140057
0.140055
0.140054
0.140053
0.140052
0.140052
0.140051
0.140052
0.140066
0.140073
0.140079
0.140085
0.140091
0.140097
0.140103
0.140109
0.140114
0.140119
0.140124
0.140128
0.140131
0.140134
0.140137
0.140139
0.14014
0.140141
0.140142
0.140142
0.140143
0.140143
0.140142
0.140142
0.140141
0.140141
0.14014
0.140139
0.140139
0.140138
0.140138
0.140137
0.140137
0.140137
0.140137
0.140137
0.140137
0.140137
0.140137
0.140138
0.140139
0.140065
0.140071
0.140077
0.140083
0.140089
0.140096
0.140103
0.14011
0.140117
0.140124
0.14013
0.140137
0.140142
0.140148
0.140153
0.140157
0.140162
0.140165
0.140168
0.140171
0.140174
0.140176
0.140178
0.14018
0.140181
0.140183
0.140184
0.140185
0.140186
0.140187
0.140187
0.140188
0.140189
0.14019
0.140191
0.140191
0.140192
0.140193
0.140194
0.140195
0.140196
0.140058
0.140064
0.140069
0.140074
0.140081
0.140088
0.140095
0.140103
0.140111
0.140119
0.140127
0.140134
0.140142
0.140149
0.140156
0.140163
0.140169
0.140175
0.14018
0.140185
0.14019
0.140194
0.140198
0.140201
0.140204
0.140207
0.14021
0.140212
0.140214
0.140217
0.140218
0.14022
0.140222
0.140223
0.140225
0.140226
0.140228
0.140229
0.14023
0.140232
0.140233
0.140047
0.140051
0.140055
0.14006
0.140066
0.140072
0.140079
0.140087
0.140095
0.140103
0.140112
0.14012
0.140129
0.140138
0.140146
0.140154
0.140162
0.14017
0.140177
0.140184
0.14019
0.140196
0.140201
0.140206
0.140211
0.140215
0.140219
0.140222
0.140226
0.140229
0.140232
0.140234
0.140237
0.140239
0.140241
0.140243
0.140245
0.140246
0.140248
0.14025
0.140251
0.140031
0.140034
0.140037
0.140041
0.140045
0.14005
0.140055
0.140061
0.140068
0.140075
0.140083
0.140091
0.140099
0.140108
0.140117
0.140126
0.140134
0.140143
0.140151
0.14016
0.140168
0.140176
0.140183
0.14019
0.140197
0.140204
0.14021
0.140216
0.140221
0.140226
0.140231
0.140235
0.140239
0.140243
0.140246
0.14025
0.140253
0.140256
0.140258
0.140261
0.140263
0.140011
0.140012
0.140013
0.140015
0.140017
0.140019
0.140021
0.140024
0.140027
0.140031
0.140035
0.140039
0.140044
0.140049
0.140055
0.140061
0.140065
0.140068
0.14007
0.140074
0.140077
0.140081
0.140085
0.14009
0.140094
0.140099
0.140103
0.140108
0.140112
0.140116
0.14012
0.140124
0.140127
0.140131
0.140134
0.140137
0.14014
0.140143
0.140145
0.140148
0.14015
0.00615346
0.00821793
0.00901717
0.0102397
0.0126586
0.0160563
0.020012
0.0242695
0.0286717
0.0331279
0.0375833
0.0420011
0.0463537
0.0506207
0.0547877
0.0588452
0.0627868
0.0666086
0.0703083
0.0738846
0.0773371
0.0806654
0.0838697
0.0869502
0.0899075
0.0927423
0.0954553
0.0980479
0.100521
0.102877
0.105118
0.107245
0.109261
0.11117
0.112973
0.114675
0.116279
0.117788
0.119206
0.120538
0.121787
0.122959
0.124056
0.125083
0.126045
0.126946
0.127789
0.128583
0.129335
0.130048
0.130723
0.131362
0.131965
0.132534
0.133071
0.133578
0.134057
0.134509
0.134936
0.135339
0.135721
0.136081
0.136422
0.136745
0.137051
0.137341
0.137616
0.137877
0.138127
0.138364
0.138591
0.138808
0.138995
0.139258
0.0131026
0.0159262
0.0154946
0.014192
0.0140499
0.015846
0.0190822
0.0230519
0.0273503
0.0317777
0.0362392
0.0406787
0.0450624
0.0493659
0.0535727
0.0576721
0.0616569
0.0655226
0.0692665
0.0728873
0.0763841
0.0797565
0.0830044
0.0861281
0.089128
0.0920045
0.0947584
0.0973908
0.099903
0.102296
0.104573
0.106735
0.108785
0.110726
0.11256
0.11429
0.115922
0.117457
0.118899
0.120254
0.121525
0.122716
0.123832
0.124876
0.125854
0.126769
0.127626
0.128432
0.129195
0.129919
0.130604
0.131251
0.131862
0.132438
0.132982
0.133495
0.13398
0.134437
0.134869
0.135277
0.135662
0.136027
0.136371
0.136698
0.137006
0.137299
0.137577
0.13784
0.138092
0.138331
0.13856
0.138779
0.138967
0.139237
0.0203611
0.0249447
0.0247511
0.0220638
0.0191307
0.0178941
0.0190827
0.022078
0.0259915
0.0302697
0.0346919
0.039135
0.0435453
0.047887
0.0521388
0.0562875
0.060324
0.0642425
0.06804
0.0717147
0.0752653
0.0786911
0.081992
0.0851678
0.088219
0.0911457
0.0939488
0.0966289
0.0991873
0.101626
0.103945
0.106149
0.108238
0.110217
0.112086
0.113851
0.115515
0.11708
0.118551
0.119933
0.121228
0.122442
0.123579
0.124644
0.12564
0.126571
0.127444
0.128264
0.129041
0.129776
0.130472
0.131129
0.131749
0.132333
0.132885
0.133405
0.133895
0.134358
0.134795
0.135208
0.135598
0.135967
0.136316
0.136646
0.136958
0.137254
0.137534
0.1378
0.138054
0.138296
0.138526
0.138748
0.138938
0.139214
0.0270926
0.0339078
0.0349581
0.0323591
0.0280516
0.0239554
0.0218302
0.0223862
0.025034
0.0287847
0.0330047
0.0373749
0.0417831
0.0461523
0.0504485
0.0546516
0.0587473
0.062728
0.0665894
0.0703289
0.0739444
0.0774348
0.0807997
0.0840387
0.0871519
0.0901393
0.0930015
0.095739
0.098353
0.100845
0.103216
0.105469
0.107606
0.109629
0.111541
0.113346
0.115048
0.116649
0.118153
0.119566
0.120891
0.122132
0.123293
0.124381
0.125398
0.126349
0.127239
0.128076
0.128868
0.129617
0.130325
0.130993
0.131623
0.132217
0.132777
0.133305
0.133802
0.134272
0.134715
0.135134
0.135529
0.135902
0.136255
0.136589
0.136905
0.137204
0.137488
0.137757
0.138013
0.138257
0.13849
0.138714
0.138906
0.139189
0.0333873
0.0425111
0.045194
0.0435761
0.0393379
0.0339327
0.0289731
0.0260324
0.0258528
0.0279758
0.0314463
0.0355161
0.039815
0.0441554
0.0484742
0.0527266
0.0568837
0.060933
0.0648684
0.0686843
0.0723772
0.0759452
0.0793872
0.0827025
0.0858906
0.0889514
0.0918851
0.094692
0.0973729
0.0999292
0.102362
0.104674
0.106868
0.108944
0.110908
0.112761
0.114507
0.116151
0.117695
0.119145
0.120503
0.121776
0.122967
0.124081
0.125123
0.126097
0.127008
0.127864
0.128673
0.129438
0.13016
0.130841
0.131483
0.132088
0.132657
0.133194
0.1337
0.134177
0.134627
0.135051
0.135452
0.135831
0.136189
0.136528
0.136848
0.137151
0.137438
0.13771
0.137969
0.138216
0.138451
0.138677
0.138872
0.139161
0.0393413
0.0505805
0.0549387
0.0547574
0.0514979
0.046249
0.0401285
0.0344906
0.0307324
0.0296485
0.0310248
0.034015
0.0378303
0.0419818
0.0462435
0.050504
0.0547013
0.0588143
0.0628283
0.0667301
0.0705123
0.0741715
0.0777052
0.081112
0.0843905
0.08754
0.09056
0.0934507
0.0962126
0.0988469
0.101355
0.103738
0.105999
0.108141
0.110165
0.112076
0.113877
0.115571
0.117163
0.118656
0.120056
0.121366
0.122592
0.123738
0.124809
0.125809
0.126745
0.127624
0.128453
0.129236
0.129975
0.130671
0.131326
0.131943
0.132524
0.133071
0.133586
0.134071
0.134529
0.134961
0.135368
0.135753
0.136117
0.13646
0.136785
0.137092
0.137383
0.137659
0.137921
0.138171
0.138409
0.138638
0.138835
0.139131
0.0449906
0.0577905
0.0637126
0.0651853
0.0634244
0.0592747
0.0534943
0.0469609
0.0407921
0.036204
0.0340509
0.034399
0.0366442
0.0400064
0.0439124
0.0480376
0.0522127
0.0563596
0.0604379
0.0644221
0.068298
0.0720583
0.0756977
0.0792119
0.0825978
0.0858533
0.0889773
0.091969
0.0948288
0.0975573
0.100156
0.102626
0.104969
0.107189
0.109288
0.111268
0.113134
0.11489
0.116538
0.118085
0.119533
0.120889
0.122156
0.12334
0.124446
0.125478
0.126443
0.127348
0.128202
0.129007
0.129765
0.130478
0.131149
0.13178
0.132374
0.132933
0.133459
0.133954
0.13442
0.13486
0.135275
0.135667
0.136037
0.136386
0.136716
0.137028
0.137323
0.137603
0.137869
0.138122
0.138363
0.138595
0.138794
0.139098
0.050168
0.0636901
0.070993
0.0741645
0.07417
0.0716777
0.0672108
0.0613047
0.0546398
0.0481115
0.0427504
0.0394229
0.0384732
0.0396215
0.042237
0.0456996
0.0495744
0.0536134
0.0576869
0.0617243
0.0656863
0.069551
0.0733052
0.0769402
0.08045
0.0838301
0.0870775
0.0901903
0.0931677
0.0960098
0.0987175
0.101292
0.103736
0.106051
0.10824
0.110305
0.112251
0.114081
0.115799
0.11741
0.118918
0.120328
0.121646
0.122876
0.124023
0.125094
0.126093
0.127031
0.127913
0.128744
0.129525
0.130259
0.130948
0.131596
0.132205
0.132777
0.133316
0.133822
0.134299
0.134749
0.135172
0.135571
0.135948
0.136304
0.13664
0.136957
0.137258
0.137542
0.137812
0.138069
0.138313
0.138549
0.13875
0.139061
0.0561407
0.0678712
0.0762104
0.0809675
0.0827874
0.0822434
0.0796701
0.0753646
0.0697095
0.0632195
0.0565805
0.0506233
0.0461643
0.0437446
0.0434397
0.0449006
0.0475847
0.0509913
0.054768
0.058701
0.0626682
0.0666009
0.0704596
0.0742202
0.0778673
0.0813908
0.0847837
0.0880414
0.0911609
0.0941408
0.0969809
0.0996823
0.102247
0.104678
0.106976
0.109146
0.11119
0.113111
0.114914
0.116604
0.118185
0.119663
0.121042
0.122328
0.123526
0.124643
0.125685
0.126661
0.127578
0.128439
0.129248
0.130006
0.130718
0.131386
0.132013
0.132601
0.133154
0.133674
0.134163
0.134623
0.135057
0.135465
0.13585
0.136213
0.136556
0.13688
0.137186
0.137475
0.13775
0.138011
0.138259
0.138498
0.138703
0.139021
0.0637119
0.0704946
0.0789909
0.0849567
0.0883465
0.0897796
0.0893761
0.0872129
0.0834937
0.0784822
0.0725312
0.0661276
0.0599024
0.0545599
0.0507205
0.0487418
0.0486232
0.0500611
0.0526146
0.0558656
0.059499
0.063309
0.0671703
0.0710078
0.0747761
0.0784465
0.0820005
0.0854261
0.088715
0.0918623
0.0948653
0.0977232
0.100437
0.103008
0.10544
0.107737
0.1099
0.111935
0.113843
0.115631
0.117302
0.118863
0.120318
0.121673
0.122935
0.124109
0.125203
0.126227
0.127185
0.128084
0.128926
0.129714
0.130453
0.131144
0.131793
0.1324
0.132971
0.133506
0.134009
0.134482
0.134927
0.135346
0.13574
0.136112
0.136463
0.136794
0.137106
0.137402
0.137682
0.137947
0.138199
0.138443
0.138651
0.138977
0.0736207
0.0768415
0.0802031
0.0862901
0.0902786
0.0932978
0.0949836
0.0950759
0.093733
0.0910354
0.0870863
0.0820822
0.0763465
0.0703282
0.0645765
0.0596712
0.0561086
0.0541805
0.0539098
0.055082
0.0573505
0.060355
0.0637974
0.0674645
0.0712165
0.0749646
0.0786532
0.0822463
0.085721
0.0890622
0.0922606
0.0953105
0.0982097
0.100958
0.103557
0.106009
0.10832
0.110493
0.112532
0.114441
0.116225
0.117889
0.119439
0.120881
0.122222
0.123468
0.124627
0.125709
0.12672
0.127664
0.128547
0.129372
0.130143
0.130863
0.131538
0.132169
0.13276
0.133314
0.133834
0.134322
0.13478
0.135211
0.135617
0.135999
0.136359
0.136698
0.137018
0.13732
0.137606
0.137877
0.138134
0.138383
0.138594
0.138928
0.0784091
0.0820684
0.0852158
0.0879613
0.0895677
0.0929965
0.0959337
0.0976544
0.0985521
0.0984341
0.0971183
0.0945783
0.0909337
0.0863708
0.0811571
0.075661
0.0703406
0.0656871
0.0621385
0.0599878
0.0593249
0.0600386
0.0618766
0.0645323
0.0677187
0.0712075
0.0748356
0.0784932
0.0821087
0.0856357
0.0890443
0.0923155
0.0954378
0.0984047
0.101214
0.103866
0.106362
0.108709
0.110909
0.112969
0.114894
0.116689
0.118359
0.119911
0.121351
0.122688
0.12393
0.125085
0.12616
0.127162
0.128096
0.128966
0.129777
0.130533
0.131239
0.131899
0.132515
0.133092
0.133632
0.134138
0.134613
0.135058
0.135477
0.135871
0.136242
0.136591
0.13692
0.13723
0.137523
0.1378
0.138063
0.138317
0.138532
0.138875
0.0760315
0.0804533
0.0844233
0.0878283
0.0905328
0.092937
0.0946955
0.0956904
0.0975931
0.0994527
0.100475
0.100492
0.0996065
0.0977464
0.0948789
0.0910933
0.0866035
0.08172
0.0768271
0.0723486
0.0686906
0.0661717
0.0649632
0.0650649
0.0663278
0.0685108
0.0713474
0.0745964
0.0780668
0.0816203
0.0851628
0.0886317
0.0919867
0.0952025
0.0982641
0.101164
0.103898
0.106468
0.108877
0.11113
0.113233
0.115192
0.117014
0.118705
0.120274
0.121726
0.123072
0.12432
0.125478
0.126553
0.127551
0.128478
0.12934
0.130141
0.130886
0.131581
0.132229
0.132833
0.133398
0.133926
0.13442
0.134884
0.135318
0.135726
0.136109
0.13647
0.136809
0.137129
0.13743
0.137715
0.137984
0.138245
0.138464
0.138817
0.0645854
0.0697208
0.0746658
0.0793284
0.0835955
0.0874371
0.0907477
0.093438
0.0956799
0.0973442
0.0983121
0.0990275
0.10032
0.1012
0.101196
0.100215
0.0983153
0.0955516
0.0920269
0.0879418
0.0835979
0.079364
0.0756264
0.0727302
0.0709232
0.0703164
0.0708752
0.0724463
0.0748074
0.0777199
0.0809693
0.0843848
0.0878415
0.0912537
0.0945649
0.0977396
0.100757
0.103606
0.106282
0.108786
0.111122
0.113295
0.115314
0.117185
0.118918
0.12052
0.122
0.123368
0.124632
0.125801
0.126882
0.127883
0.128809
0.129667
0.130463
0.131202
0.131889
0.132528
0.133123
0.133678
0.134197
0.134681
0.135135
0.13556
0.135959
0.136333
0.136685
0.137015
0.137326
0.13762
0.137897
0.138165
0.13839
0.138752
0.0494834
0.0526585
0.0563187
0.060505
0.0651879
0.0702802
0.075612
0.0809258
0.0859339
0.0903274
0.0938359
0.0963777
0.0982011
0.0993869
0.0999186
0.100377
0.101008
0.101215
0.100602
0.0990702
0.0966961
0.0936245
0.090066
0.0863069
0.0826885
0.0795626
0.0772353
0.075918
0.0756966
0.0765286
0.0782686
0.0807112
0.0836374
0.0868485
0.0901846
0.0935282
0.0967986
0.0999438
0.102933
0.105748
0.108384
0.110839
0.113118
0.115228
0.117177
0.118975
0.120632
0.122157
0.123562
0.124855
0.126046
0.127142
0.128153
0.129086
0.129947
0.130742
0.131479
0.132162
0.132796
0.133385
0.133934
0.134445
0.134923
0.135369
0.135786
0.136177
0.136543
0.136887
0.13721
0.137514
0.1378
0.138076
0.138307
0.138681
0.0465893
0.0473998
0.0485274
0.050001
0.0518823
0.0542466
0.0571737
0.0607322
0.0649543
0.0697989
0.0751118
0.0806131
0.0859461
0.0907194
0.0945793
0.0974199
0.0993601
0.100482
0.100789
0.100911
0.101055
0.100795
0.0998108
0.0980314
0.0955619
0.0926076
0.0894437
0.0863916
0.0837789
0.0818891
0.0809177
0.0809452
0.0819348
0.0837547
0.0862159
0.0891132
0.0922579
0.0954962
0.0987143
0.101834
0.104808
0.107608
0.110222
0.112647
0.114887
0.11695
0.118845
0.120584