# Wall shear stress
# Time       	patch        	min          	max          
0.000000e+00	walls	(-5.805244e+00 -3.475090e-01 -5.940261e-19)	(-3.432139e+00 1.091773e+00 1.753270e-18)
5.000000e+01	walls	(-8.170896e+02 -2.560560e+02 -1.258778e-15)	(-3.457694e+01 1.117377e+03 2.343352e-15)
1.000000e+02	walls	(-8.129775e+02 -2.525536e+02 -1.266308e-15)	(-3.398770e+01 1.131734e+03 2.287932e-15)
1.500000e+02	walls	(-8.120155e+02 -2.518753e+02 -1.265364e-15)	(-3.385954e+01 1.134542e+03 2.286344e-15)
2.000000e+02	walls	(-8.119335e+02 -2.518331e+02 -1.265045e-15)	(-3.385181e+01 1.134729e+03 2.285751e-15)
2.330000e+02	walls	(-8.119146e+02 -2.518183e+02 -1.264949e-15)	(-3.384948e+01 1.134787e+03 2.285567e-15)
