/*--------------------------------*- C++ -*----------------------------------*\
| =========                 |                                                 |
| \\      /  F ield         | OpenFOAM: The Open Source CFD Toolbox           |
|  \\    /   O peration     | Version:  5.x                                   |
|   \\  /    A nd           | Web:      www.OpenFOAM.org                      |
|    \\/     M anipulation  |                                                 |
\*---------------------------------------------------------------------------*/
FoamFile
{
    version     2.0;
    format      ascii;
    class       volVectorField;
    location    "2400";
    object      U;
}
// * * * * * * * * * * * * * * * * * * * * * * * * * * * * * * * * * * * * * //

dimensions      [0 1 -1 0 0 0 0];

internalField   nonuniform List<vector> 
11040
(
(-4.50702 25.0888 0)
(-0.631893 30.5775 -1.53148e-19)
(5.69831 33.7789 1.58423e-17)
(11.5763 32.7425 1.83036e-17)
(16.0357 29.4381 3.79911e-17)
(19.1038 25.279 -1.81777e-17)
(21.0031 20.9323 -1.77025e-17)
(21.9292 16.7911 1.76579e-17)
(22.0562 13.0683 3.85953e-17)
(21.4741 9.79743 1.24202e-18)
(19.8738 6.69365 1.6734e-17)
(17.6943 4.20193 -7.10111e-19)
(15.8089 2.69513 1.0275e-17)
(14.4963 1.91552 6.85662e-18)
(13.2026 1.32216 2.82781e-18)
(11.5917 0.756416 -6.12254e-19)
(9.67368 0.287704 3.1474e-18)
(7.55152 -0.0363826 8.32771e-19)
(5.24791 -0.223164 -9.81678e-19)
(2.77294 -0.276395 -1.46328e-17)
(0.475019 -0.15585 -2.23048e-17)
(-1.12143 0.0324155 -3.17505e-17)
(-2.0028 0.149639 -6.02744e-17)
(-2.53692 0.235775 -3.82947e-18)
(-2.83354 0.305354 -1.63662e-20)
(-2.97516 0.360474 2.00854e-18)
(-3.03635 0.408842 -1.30784e-16)
(-3.06992 0.458255 2.05335e-18)
(-3.10656 0.509008 -1.33859e-16)
(-3.16467 0.560782 1.29064e-16)
(-3.25557 0.617309 2.00136e-18)
(-3.38863 0.681165 9.58857e-19)
(-3.56713 0.751772 -9.04601e-19)
(-3.77707 0.823138 0)
(-3.97079 0.881178 2.02199e-16)
(-4.05406 0.903886 0)
(-3.91901 0.867776 0)
(-3.53956 0.759086 -3.69679e-19)
(-2.75405 0.492005 4.42017e-19)
(-1.62337 -0.1418 -2.16342e-16)
(-1.56402 -0.999021 -1.95369e-16)
(-0.273873 24.3953 0)
(4.02908 28.5192 0)
(11.7127 30.0624 -8.95848e-18)
(18.2452 28.7812 9.33178e-18)
(22.9265 26.687 -2.24979e-17)
(26.1933 24.3335 2.28359e-17)
(28.3046 21.6614 1.08301e-17)
(29.3781 18.7255 1.38847e-18)
(29.5629 15.6789 -9.0077e-19)
(29.0208 12.6894 1.05305e-17)
(27.636 9.65967 -1.1714e-18)
(25.3315 7.05286 0)
(22.7289 5.18353 0)
(20.4154 3.88536 -3.15028e-18)
(18.3631 2.82109 -1.49462e-18)
(16.2761 1.96065 5.8495e-19)
(14.0227 1.2998 0)
(11.5488 0.805966 -3.55517e-19)
(8.81132 0.462074 1.33176e-18)
(5.85591 0.260453 1.29594e-18)
(2.84741 0.18266 7.69955e-18)
(0.497439 0.197271 1.11382e-17)
(-0.917335 0.232552 1.68514e-18)
(-1.82095 0.273613 -2.95217e-17)
(-2.37552 0.319359 2.79704e-17)
(-2.69992 0.366185 2.00373e-18)
(-2.90341 0.416604 6.74065e-17)
(-3.05439 0.470337 -1.09203e-18)
(-3.18829 0.527287 7.25559e-17)
(-3.32789 0.588958 -7.21591e-17)
(-3.48091 0.656152 -7.2586e-17)
(-3.64832 0.729059 7.14581e-17)
(-3.82191 0.804616 -1.40507e-21)
(-3.98158 0.875173 -1.45415e-18)
(-4.08997 0.927424 -5.77009e-17)
(-4.09175 0.939991 0)
(-3.93905 0.893459 -3.98718e-19)
(-3.52493 0.777092 9.46406e-17)
(-2.56003 0.554549 9.64585e-17)
(-0.745636 -0.0336852 9.00488e-17)
(-0.277408 -1.14699 1.2776e-16)
(1.51386 23.4648 0)
(5.47007 26.6002 0)
(10.8828 28.2014 2.34364e-18)
(15.9452 28.0851 -6.76661e-18)
(20.0428 26.7065 6.97724e-18)
(23.4049 24.6128 -8.31447e-18)
(26.0915 22.1198 -6.3147e-18)
(28.0387 19.4049 0)
(29.2175 16.5973 -9.6692e-18)
(29.6706 13.8088 -5.38951e-18)
(29.3386 10.9691 0)
(28.0527 8.44121 0)
(26.1341 6.47778 -3.54649e-18)
(24.055 4.98814 -2.2359e-18)
(21.9279 3.72783 -4.95492e-20)
(19.6756 2.70107 5.19667e-20)
(17.2598 1.91217 0)
(14.6573 1.32849 0)
(11.8066 0.919389 -2.91781e-19)
(8.67617 0.648569 8.21234e-19)
(5.35292 0.478726 -9.26391e-19)
(2.54679 0.378919 4.39672e-18)
(0.636865 0.320039 -3.52991e-20)
(-0.681988 0.299875 -1.40426e-17)
(-1.53758 0.311953 -1.14268e-18)
(-2.0842 0.344336 -1.24266e-18)
(-2.45099 0.392005 -1.58017e-21)
(-2.71164 0.44808 1.38998e-18)
(-2.91641 0.509481 0)
(-3.09723 0.575183 0)
(-3.26978 0.644185 9.52632e-17)
(-3.44149 0.715729 -9.28985e-17)
(-3.61302 0.786371 4.42788e-17)
(-3.77633 0.849154 0)
(-3.90643 0.892692 3.95403e-17)
(-3.94987 0.893614 3.72072e-17)
(-3.83911 0.816899 0)
(-3.47986 0.641838 1.32098e-19)
(-2.58611 0.335646 -2.19849e-19)
(-0.792354 -0.366178 0)
(-0.210305 -1.7019 -5.49702e-17)
(3.33157 22.4026 1.03318e-19)
(7.03122 24.8593 -1.06674e-19)
(11.2588 26.2142 2.95626e-19)
(15.6865 26.3223 0)
(19.5511 25.2839 -7.23356e-18)
(22.6769 23.5576 0)
(25.1469 21.418 1.40579e-17)
(26.987 19.0289 1.19278e-20)
(28.2188 16.5289 1.35785e-18)
(28.8934 14.0335 8.25924e-18)
(29.0153 11.5061 1.18784e-18)
(28.4414 9.18774 2.75882e-18)
(27.2846 7.31359 6.29092e-18)
(25.8348 5.84789 1.74462e-18)
(24.1786 4.57404 0)
(22.2503 3.48217 1.76703e-19)
(20.0298 2.60181 2.52655e-19)
(17.5332 1.92975 7.03649e-19)
(14.7392 1.44742 4.71997e-19)
(11.6088 1.11364 -5.01848e-19)
(8.15238 0.871251 -2.75212e-18)
(5.00942 0.67189 -3.94019e-18)
(2.59972 0.506175 0)
(0.787619 0.397935 2.51689e-17)
(-0.449645 0.349708 -1.52366e-17)
(-1.26902 0.346786 1.42644e-17)
(-1.82284 0.376668 -2.98384e-17)
(-2.20864 0.424979 0)
(-2.49701 0.483566 0)
(-2.72797 0.548028 0)
(-2.92795 0.616199 -3.39708e-17)
(-3.11488 0.687184 3.47324e-17)
(-3.29962 0.757334 -1.00544e-18)
(-3.48241 0.818388 -3.18261e-17)
(-3.64337 0.856437 -2.78668e-17)
(-3.73062 0.844207 -2.74262e-17)
(-3.6782 0.739204 -4.80609e-17)
(-3.40694 0.513465 -4.20513e-17)
(-2.65969 0.140834 -1.51272e-19)
(-1.0772 -0.602786 -3.49386e-17)
(-0.504237 -2.03243 2.12292e-17)
(5.15185 21.237 0)
(8.39453 23.1644 1.53952e-19)
(11.7665 24.2809 -5.16002e-20)
(15.4071 24.6024 2.86686e-19)
(18.8016 24.0296 5.43234e-18)
(21.71 22.7727 -5.05318e-18)
(24.1173 21.0224 -1.85306e-18)
(25.9842 18.9271 -6.50681e-18)
(27.2855 16.6436 0)
(28.0563 14.3107 -7.61014e-18)
(28.3348 11.9476 0)
(28.0643 9.74609 -1.68313e-18)
(27.3181 7.92393 -3.3942e-18)
(26.3104 6.48842 0)
(25.1352 5.26064 5.44093e-19)
(23.715 4.19589 0)
(21.9784 3.31378 0)
(19.9016 2.61745 -3.74328e-19)
(17.4516 2.09668 -5.54347e-19)
(14.5801 1.71768 0)
(11.2387 1.4169 2.06194e-18)
(7.9697 1.13218 0)
(5.16376 0.851968 0)
(2.80821 0.618265 -8.38089e-18)
(1.05101 0.468089 0)
(-0.158381 0.399173 1.15156e-17)
(-0.974476 0.390255 2.41214e-17)
(-1.53564 0.416473 0)
(-1.94021 0.463102 0)
(-2.2446 0.520785 0)
(-2.48923 0.585184 2.76313e-17)
(-2.70293 0.654608 2.34463e-17)
(-2.90681 0.724708 -2.43579e-17)
(-3.11049 0.785015 -7.58417e-19)
(-3.30181 0.81787 6.99298e-19)
(-3.43581 0.791897 0)
(-3.45391 0.658912 3.76707e-17)
(-3.29221 0.383347 -3.28274e-17)
(-2.73147 -0.0523564 2.96111e-17)
(-1.45391 -0.814067 2.67269e-17)
(-0.961384 -2.22491 3.60021e-20)
(6.82476 20.0093 -2.30166e-19)
(9.58879 21.516 -2.76456e-20)
(12.3243 22.424 7.08315e-19)
(15.281 22.8464 -1.40347e-19)
(18.196 22.6034 -6.49337e-19)
(20.8287 21.7586 4.95753e-18)
(23.1116 20.4272 -6.10536e-18)
(24.977 18.71 5.31823e-18)
(26.3595 16.7332 2.40581e-18)
(27.2518 14.6261 -1.22259e-18)
(27.6736 12.4367 0)
(27.5959 10.3287 0)
(27.0744 8.51209 6.17895e-19)
(26.2877 7.04797 -6.55094e-19)
(25.3687 5.82383 -8.18731e-19)
(24.2986 4.78502 -2.34202e-19)
(23.0103 3.93297 7.85607e-19)
(21.453 3.26487 1.50062e-19)
(19.5601 2.76468 1.13489e-18)
(17.2393 2.39603 -2.55717e-18)
(14.3574 2.0872 3.81848e-18)
(11.302 1.76361 -2.05992e-18)
(8.36667 1.39742 1.21845e-18)
(5.57398 1.02751 1.50836e-18)
(3.22586 0.731858 -9.1277e-18)
(1.46674 0.546234 1.19851e-20)
(0.239466 0.460263 -2.28507e-17)
(-0.600349 0.441388 -1.88354e-17)
(-1.19001 0.461601 0)
(-1.61581 0.503274 0)
(-1.93824 0.558337 -1.99531e-17)
(-2.19892 0.623102 -4.34036e-17)
(-2.4302 0.691792 -1.2751e-18)
(-2.65396 0.751254 1.94017e-17)
(-2.87169 0.779756 1.92847e-17)
(-3.05217 0.741695 -1.75621e-17)
(-3.14772 0.583655 4.83906e-19)
(-3.11022 0.262813 5.37884e-17)
(-2.7614 -0.230377 -4.79884e-17)
(-1.84281 -1.00663 8.24336e-20)
(-1.48586 -2.32346 1.55971e-17)
(8.33048 18.7576 0)
(10.6514 19.9298 -5.96966e-19)
(12.8886 20.6656 -1.31649e-18)
(15.2807 21.1084 -2.76357e-19)
(17.7219 21.0818 -2.26972e-19)
(20.031 20.5663 7.7294e-19)
(22.1269 19.6143 -2.80093e-18)
(23.931 18.2823 1.20398e-18)
(25.3592 16.6574 0)
(26.3718 14.8426 1.51315e-18)
(26.9622 12.8908 -2.90216e-18)
(27.0936 10.9327 2.60102e-18)
(26.786 9.15489 -2.81226e-19)
(26.1718 7.6568 0)
(25.3924 6.39771 2.79537e-19)
(24.4933 5.34137 2.28983e-19)
(23.4586 4.48546 -2.08399e-19)
(22.268 3.83027 -5.81284e-19)
(20.8778 3.3619 3.99885e-19)
(19.1992 3.04337 9.71833e-19)
(17.0447 2.79096 -1.08359e-18)
(14.5896 2.50896 -1.49048e-18)
(11.9549 2.13877 0)
(9.08638 1.68269 2.13316e-18)
(6.2948 1.23103 5.15227e-18)
(3.90873 0.873737 -7.78725e-18)
(2.08981 0.648946 5.6248e-18)
(0.797841 0.538203 1.74479e-17)
(-0.103593 0.502797 -2.39798e-18)
(-0.741577 0.510717 -2.39352e-21)
(-1.206 0.545167 -1.41561e-17)
(-1.5574 0.598173 -4.60077e-18)
(-1.84206 0.661671 -1.54157e-17)
(-2.09651 0.719386 0)
(-2.34055 0.74493 -1.5371e-17)
(-2.56321 0.698399 1.52267e-17)
(-2.73487 0.521913 -1.36954e-17)
(-2.82716 0.16606 -4.57594e-17)
(-2.70314 -0.373186 2.00034e-17)
(-2.16915 -1.16401 6.97672e-20)
(-2.00077 -2.36612 -2.82168e-17)
(9.66041 17.5134 1.40263e-18)
(11.5949 18.4223 -4.01403e-19)
(13.433 19.017 -2.80874e-19)
(15.3706 19.4337 1.12635e-18)
(17.38 19.531 -3.98678e-19)
(19.3471 19.2588 -8.46152e-19)
(21.2049 18.6252 1.79211e-18)
(22.882 17.649 1.75817e-18)
(24.2926 16.3797 -1.42951e-18)
(25.3814 14.8888 0)
(26.1236 13.222 -8.52151e-19)
(26.4694 11.4776 1.35502e-19)
(26.4007 9.80681 -9.79549e-21)
(25.9941 8.32155 3.57017e-19)
(25.3672 7.03638 -2.34024e-20)
(24.5939 5.9456 2.43484e-20)
(23.6985 5.05339 0)
(22.6989 4.36835 0)
(21.6035 3.88907 -1.78615e-18)
(20.3905 3.59559 1.57221e-18)
(18.9296 3.41355 -1.05662e-18)
(17.2515 3.23398 1.10019e-18)
(15.3078 2.96536 1.31153e-18)
(12.9053 2.54937 0)
(10.1673 2.02835 1.77572e-18)
(7.39693 1.50301 -2.11695e-18)
(4.93901 1.07492 -5.14955e-18)
(3.00014 0.792631 0)
(1.5838 0.641493 0)
(0.576684 0.578096 2.06351e-18)
(-0.14344 0.567805 1.76039e-17)
(-0.669086 0.592666 1.50906e-17)
(-1.06576 0.640478 3.05254e-17)
(-1.38694 0.691821 1.89254e-18)
(-1.67417 0.715484 0)
(-1.94182 0.666249 -7.92283e-19)
(-2.18531 0.481924 1.25277e-17)
(-2.40073 0.107965 6.79459e-20)
(-2.49678 -0.458439 1.79319e-17)
(-2.34326 -1.25635 1.52884e-17)
(-2.41684 -2.34807 1.29917e-17)
(10.82 16.3039 -8.44671e-19)
(12.4283 17.0076 -1.03728e-20)
(13.943 17.4866 1.11831e-18)
(15.5165 17.8556 -2.11144e-18)
(17.154 18.0106 0)
(18.7925 17.8998 -5.22061e-19)
(20.3891 17.5095 1.40239e-18)
(21.8894 16.8347 -1.11547e-18)
(23.2188 15.8943 3.87699e-19)
(24.3202 14.729 8.34375e-19)
(25.161 13.3699 3.91125e-20)
(25.6852 11.8849 -1.48688e-18)
(25.8477 10.3868 0)
(25.6749 8.97955 -6.56003e-20)
(25.2458 7.71116 -2.36951e-19)
(24.6322 6.60594 2.65446e-19)
(23.8744 5.67792 6.13644e-19)
(23.0068 4.9433 -6.33097e-19)
(22.0668 4.41123 5.25289e-19)
(21.0892 4.08156 0)
(20.0528 3.91256 -2.00424e-18)
(18.9847 3.8134 3.61178e-18)
(17.7849 3.68612 -3.0656e-18)
(16.1952 3.43082 -2.18218e-20)
(14.1184 3.01262 2.50103e-18)
(11.6203 2.46739 -2.84949e-18)
(8.94534 1.88666 0)
(6.42291 1.37644 1.01927e-17)
(4.31317 1.00711 4.9021e-18)
(2.70232 0.786495 2.87612e-18)
(1.52725 0.678045 -1.32104e-17)
(0.676909 0.640958 -3.66135e-18)
(0.0565618 0.648962 3.89244e-18)
(-0.409534 0.679115 -1.85435e-18)
(-0.788199 0.695713 -1.00239e-17)
(-1.12446 0.647948 -1.50291e-18)
(-1.44502 0.469606 0)
(-1.7735 0.100579 1.97346e-17)
(-2.06761 -0.466284 -1.67338e-17)
(-2.25759 -1.2519 -1.42065e-17)
(-2.61021 -2.24866 0)
(11.8213 15.151 0)
(13.1585 15.6959 0)
(14.4099 16.0798 0)
(15.6918 16.3942 5.83525e-18)
(17.0202 16.5647 -3.3308e-18)
(18.3642 16.55 1.49183e-18)
(19.702 16.3305 1.33527e-18)
(20.9989 15.8905 -3.47324e-19)
(22.1984 15.2292 -3.45044e-19)
(23.251 14.363 1.1232e-19)
(24.1247 13.3072 -1.10545e-19)
(24.7656 12.1023 5.15497e-19)
(25.1154 10.8242 -1.24889e-19)
(25.1651 9.55668 1.26549e-19)
(24.955 8.36002 6.87652e-19)
(24.5379 7.28025 -5.83327e-19)
(23.954 6.34331 -1.07107e-18)
(23.2388 5.57094 1.10393e-18)
(22.434 4.97895 -8.65274e-19)
(21.5888 4.5764 0)
(20.7453 4.35103 -2.91229e-18)
(19.9862 4.24964 2.07629e-18)
(19.2623 4.19774 8.32402e-19)
(18.3754 4.10186 -1.67927e-18)
(17.1637 3.88957 3.64095e-18)
(15.5016 3.52118 0)
(13.3796 3.00743 0)
(10.9424 2.4122 -2.60327e-18)
(8.4515 1.83068 -1.53875e-17)
(6.18277 1.35054 -7.32708e-18)
(4.3166 1.01755 8.6094e-18)
(2.89021 0.826211 2.48924e-18)
(1.83933 0.739656 -1.39283e-17)
(1.06991 0.714196 -2.98822e-18)
(0.489753 0.703891 1.83815e-17)
(0.0195318 0.653297 -2.99183e-18)
(-0.40701 0.492151 -1.09804e-17)
(-0.850665 0.152705 1.21841e-18)
(-1.31727 -0.382919 1.50363e-17)
(-1.78794 -1.1273 0)
(-2.42132 -2.03813 0)
(12.6795 14.0706 0)
(13.7929 14.4933 0)
(14.8295 14.7995 -2.15186e-19)
(15.8772 15.0601 -4.08646e-18)
(16.9538 15.2229 0)
(18.0459 15.2584 -3.34917e-18)
(19.1465 15.1493 -9.87253e-19)
(20.2367 14.8779 0)
(21.2787 14.4345 1.21364e-18)
(22.2355 13.8204 -1.05631e-18)
(23.0812 13.0387 -2.45945e-19)
(23.7701 12.1078 -1.348e-19)
(24.2434 11.0719 2.10097e-21)
(24.4723 9.98946 0)
(24.4668 8.91673 1.26234e-18)
(24.2554 7.90839 -1.02912e-18)
(23.8684 7.00048 0)
(23.3359 6.22039 0)
(22.6942 5.58888 -8.45884e-19)
(21.9862 5.11843 3.45939e-18)
(21.2625 4.81111 -1.84678e-18)
(20.6332 4.64545 0)
(20.1053 4.573 2.61171e-18)
(19.5761 4.52972 9.79613e-20)
(18.9535 4.46161 -2.83264e-18)
(18.1061 4.31178 1.50567e-18)
(16.9028 4.03332 0)
(15.2731 3.6093 0)
(13.2541 3.06589 -1.99085e-18)
(10.9963 2.46792 9.03097e-18)
(8.71951 1.89756 -5.24034e-18)
(6.63984 1.42639 6.13585e-18)
(4.90231 1.09301 3.53488e-18)
(3.54922 0.894188 0)
(2.53327 0.788486 6.52754e-18)
(1.76347 0.706147 6.56153e-21)
(1.13454 0.561305 2.08477e-17)
(0.537796 0.272705 0)
(-0.0885119 -0.198246 -1.7622e-17)
(-0.775631 -0.868927 1.43329e-17)
(-1.66423 -1.69071 0)
(13.4107 13.0735 0)
(14.3394 13.4022 -2.34411e-18)
(15.2003 13.6452 2.13553e-18)
(16.0594 13.857 0)
(16.9329 14.0009 3.37125e-18)
(17.8167 14.0575 -9.63357e-19)
(18.7115 14.0139 -1.15021e-17)
(19.6095 13.8553 1.28551e-17)
(20.4878 13.5699 -6.95207e-18)
(21.3218 13.152 -4.49186e-18)
(22.094 12.5979 3.01815e-18)
(22.7703 11.9113 7.29982e-19)
(23.2998 11.1127 -1.1105e-18)
(23.6474 10.2364 6.67877e-19)
(23.8043 9.32559 -1.72799e-18)
(23.7777 8.4309 1.29748e-18)
(23.5837 7.59185 9.22698e-19)
(23.2432 6.83989 5.41931e-19)
(22.7842 6.20016 2.34843e-18)
(22.2405 5.68868 -5.40997e-18)
(21.6523 5.31395 3.08162e-18)
(21.1216 5.07544 1.19456e-19)
(20.6771 4.93907 5.19243e-19)
(20.2717 4.85757 0)
(19.8852 4.80609 -3.47076e-18)
(19.4654 4.75386 1.15774e-18)
(18.9235 4.66078 3.74852e-18)
(18.1509 4.48279 -2.5991e-18)
(17.0532 4.18598 5.57278e-18)
(15.5897 3.76211 -2.99792e-18)
(13.7987 3.23588 0)
(11.7957 2.6595 -5.5444e-18)
(9.7445 2.09737 -2.09692e-18)
(7.81275 1.60732 2.37719e-18)
(6.12615 1.22386 -1.61257e-17)
(4.74754 0.944242 -3.00363e-18)
(3.65538 0.717383 -6.4035e-18)
(2.74375 0.45404 6.82933e-18)
(1.89111 0.0736894 7.26117e-18)
(1.02251 -0.479437 -1.42375e-17)
(-0.0888487 -1.18852 -4.08307e-19)
(14.0302 12.1651 0)
(14.8065 12.4216 1.28238e-19)
(15.5232 12.6136 1.93963e-18)
(16.2299 12.7832 7.09818e-18)
(16.9406 12.9047 -4.1667e-18)
(17.6552 12.9655 2.38042e-18)
(18.3783 12.9576 2.09231e-18)
(19.1082 12.8699 -1.10692e-17)
(19.8324 12.6919 2.11457e-18)
(20.5365 12.4162 4.12241e-18)
(21.2101 12.037 -5.55196e-18)
(21.8306 11.5504 3.42821e-18)
(22.3591 10.9616 1.731e-18)
(22.7633 10.2869 -5.73551e-19)
(23.0263 9.55382 0)
(23.1419 8.80152 0)
(23.1126 8.06536 -4.38621e-18)
(22.9489 7.37647 -8.62351e-19)
(22.6691 6.76179 4.1549e-18)
(22.298 6.24092 -3.05302e-19)
(21.8651 5.82715 3.22007e-18)
(21.4517 5.53593 -6.36572e-18)
(21.089 5.34255 3.27097e-18)
(20.751 5.20304 0)
(20.4427 5.10384 -4.65061e-19)
(20.1594 5.03335 3.90486e-18)
(19.8793 4.97736 -4.95853e-18)
(19.556 4.9138 4.13986e-18)
(19.1197 4.81156 -3.16544e-18)
(18.4894 4.63638 0)
(17.5961 4.36179 2.3215e-18)
(16.407 3.97945 4.92076e-18)
(14.9408 3.50361 -2.65245e-18)
(13.2665 2.96696 2.89059e-18)
(11.4845 2.41062 1.56504e-18)
(9.71561 1.87575 -3.58864e-18)
(8.06772 1.38857 5.90928e-18)
(6.58791 0.943274 -4.26789e-18)
(5.26009 0.506065 -3.50048e-18)
(4.05043 0.0137812 -6.40764e-19)
(2.68435 -0.556147 1.04336e-17)
(14.5527 11.3472 -2.03288e-18)
(15.2027 11.548 -7.57699e-18)
(15.8007 11.6992 7.4489e-18)
(16.3841 11.8334 0)
(16.9642 11.9326 -2.0891e-19)
(17.543 11.9891 0)
(18.1263 11.9982 -1.72351e-17)
(18.7155 11.9524 1.38999e-17)
(19.3044 11.8436 9.93451e-18)
(19.8853 11.6654 -1.18114e-17)
(20.4535 11.412 4.09159e-18)
(20.9951 11.0772 -2.08051e-18)
(21.4832 10.6585 -1.50668e-18)
(21.8925 10.1606 -3.33462e-18)
(22.2061 9.59846 2.93626e-20)
(22.4118 8.99785 3.3423e-18)
(22.5037 8.3853 -2.6373e-18)
(22.483 7.78697 3.62427e-18)
(22.3586 7.22775 0)
(22.1464 6.72818 4.53171e-18)
(21.8664 6.30466 3.19716e-20)
(21.5784 5.98537 -4.95567e-18)
(21.3112 5.75551 4.38383e-20)
(21.0512 5.57388 0)
(20.8051 5.42908 3.83168e-19)
(20.5778 5.31269 3.97851e-19)
(20.3712 5.21908 0)
(20.1808 5.14321 0)
(19.9904 5.07663 2.40498e-21)
(19.7673 5.00401 0)
(19.4629 4.90287 -2.6868e-18)
(19.0207 4.74758 0)
(18.3895 4.5162 3.8187e-18)
(17.537 4.19654 -3.98186e-18)
(16.4547 3.78801 0)
(15.1696 3.30411 2.20399e-18)
(13.7366 2.76738 -2.36652e-18)
(12.2122 2.19745 1.33237e-18)
(10.6389 1.61515 4.30209e-18)
(9.10145 1.02252 -3.94734e-19)
(7.36543 0.422556 -9.92958e-18)
(14.9918 10.618 5.39774e-18)
(15.5368 10.7757 2.09293e-19)
(16.0369 10.8943 -3.29734e-18)
(16.5199 10.9996 -6.30459e-18)
(16.9952 11.0787 -1.48226e-17)
(17.4654 11.1271 1.76196e-17)
(17.9365 11.1424 -4.25744e-19)
(18.4109 11.1199 -1.02683e-17)
(18.8862 11.0539 2.0291e-17)
(19.3587 10.9393 -5.52275e-19)
(19.8269 10.772 -1.10213e-17)
(20.2834 10.5456 3.9854e-18)
(20.7105 10.2549 -7.46128e-18)
(21.0908 9.89889 1.13468e-17)
(21.4107 9.48418 -1.90003e-18)
(21.6579 9.02558 0)
(21.8232 8.54016 -7.91317e-18)
(21.9024 8.04671 7.16193e-18)
(21.897 7.56492 7.69193e-18)
(21.8147 7.113 -1.48522e-17)
(21.6674 6.70719 8.14138e-18)
(21.4943 6.38311 -4.26443e-19)
(21.3206 6.13574 -3.6383e-20)
(21.1428 5.92984 -5.02019e-18)
(20.9672 5.75693 1.01982e-17)
(20.798 5.60923 -5.54242e-18)
(20.6387 5.48059 5.12496e-18)
(20.492 5.36709 -6.20813e-18)
(20.3598 5.26662 -6.39889e-18)
(20.2401 5.17706 5.73101e-18)
(20.1238 5.09381 1.46387e-18)
(19.9919 5.00761 2.22678e-18)
(19.8149 4.90408 -6.7572e-18)
(19.5567 4.76544 6.1021e-18)
(19.1783 4.57299 -3.12532e-18)
(18.6481 4.31258 -1.63236e-18)
(17.948 3.97792 0)
(17.0729 3.56736 -1.71903e-18)
(16.0126 3.08954 -1.81406e-18)
(14.847 2.56149 -2.01703e-18)
(13.3499 1.97512 2.07975e-18)
(15.359 9.97355 1.45433e-20)
(15.8165 10.0976 7.56425e-19)
(16.2354 10.1903 2.88445e-18)
(16.6366 10.2721 -5.48027e-18)
(17.0275 10.3339 2.18483e-17)
(17.4112 10.3732 -2.03449e-17)
(17.7927 10.3889 2.57021e-17)
(18.1752 10.3783 1.42894e-17)
(18.5578 10.3375 -5.76361e-18)
(18.9393 10.263 -7.90853e-19)
(19.3198 10.1521 -1.78419e-17)
(19.6957 9.99956 2.43793e-19)
(20.0561 9.79997 0)
(20.3897 9.5502 -3.41043e-18)
(20.6873 9.2523 3.54881e-18)
(20.939 8.91379 -3.72202e-18)
(21.1361 8.54421 0)
(21.2723 8.15527 7.05913e-18)
(21.3452 7.76047 -1.52369e-17)
(21.3567 7.37363 5.42391e-18)
(21.312 7.00811 -7.63314e-18)
(21.2326 6.70075 8.57704e-18)
(21.1386 6.45366 2.6025e-19)
(21.0336 6.23877 -1.01494e-19)
(20.9233 6.0515 8.75136e-18)
(20.812 5.88669 -8.81835e-18)
(20.7025 5.7391 2.82634e-19)
(20.5968 5.60407 5.77768e-19)
(20.4966 5.47806 -4.77427e-18)
(20.404 5.3589 5.40833e-18)
(20.3204 5.24553 -6.06089e-19)
(20.2459 5.13711 6.13116e-19)
(20.1766 5.03165 -2.49979e-18)
(20.1036 4.92471 1.23329e-18)
(20.011 4.80836 5.12201e-18)
(19.8775 4.6723 -1.30822e-18)
(19.678 4.50552 1.32715e-18)
(19.3895 4.29683 -2.71377e-18)
(18.9748 4.03658 1.41085e-18)
(18.4608 3.73093 1.4087e-18)
(17.6854 3.3461 0)
(15.6642 9.40721 -8.27111e-18)
(16.0485 9.50474 1.5219e-17)
(16.3997 9.57689 1.50725e-17)
(16.7337 9.64009 -3.99535e-17)
(17.0563 9.68775 1.49696e-17)
(17.3706 9.71841 -3.29355e-17)
(17.681 9.73199 2.76341e-17)
(17.9904 9.72693 -4.11067e-17)
(18.2988 9.70062 3.97619e-17)
(18.6062 9.65069 -5.52659e-19)
(18.9134 9.57539 -1.7042e-17)
(19.219 9.47116 -1.87239e-18)
(19.5163 9.33331 -1.49015e-17)
(19.7985 9.15854 1.47473e-17)
(20.0597 8.94689 -1.37661e-17)
(20.2932 8.70172 1.5321e-17)
(20.4921 8.42773 0)
(20.6506 8.13131 -1.17154e-17)
(20.7649 7.82063 1.42996e-17)
(20.834 7.50481 -1.2899e-17)
(20.8585 7.19328 -1.99896e-19)
(20.8472 6.91936 2.08034e-17)
(20.8142 6.68887 -1.06766e-19)
(20.7663 6.48029 -7.41123e-18)
(20.7084 6.29191 -1.40364e-23)
(20.6445 6.1213 0)
(20.5774 5.96553 -7.84364e-18)
(20.5092 5.82137 7.75311e-18)
(20.4409 5.68561 0)
(20.3732 5.55534 -5.04576e-19)
(20.3068 5.42827 0)
(20.2425 5.30291 4.21484e-18)
(20.1812 5.17858 -4.74911e-18)
(20.1232 5.055 -4.31045e-18)
(20.0671 4.93157 8.67176e-18)
(20.0095 4.80743 -4.91932e-18)
(19.9429 4.68068 -5.62665e-19)
(19.8583 4.54789 1.10242e-18)
(19.7363 4.40285 -1.11935e-18)
(19.5765 4.24788 0)
(19.3172 4.05818 -1.19914e-18)
(15.9057 8.93389 0)
(16.231 9.0113 -2.06854e-17)
(16.528 9.0682 5.44884e-19)
(16.8088 9.11757 2.86014e-17)
(17.0781 9.15439 1.8313e-17)
(17.3389 9.17803 -1.87115e-17)
(17.5949 9.18891 1.7927e-17)
(17.8486 9.1861 1.76665e-17)
(18.1005 9.16788 3.45734e-17)
(18.351 9.13263 -4.38282e-17)
(18.6011 9.0792 4.35588e-18)
(18.8504 9.005 4.159e-18)
(19.0947 8.90643 -1.53833e-17)
(19.33 8.78069 1.13155e-17)
(19.5527 8.62719 1.6459e-17)
(19.7584 8.4473 -1.26463e-17)
(19.9423 8.24315 -1.57054e-17)
(20.0999 8.01799 1.57865e-17)
(20.2275 7.7764 0)
(20.3231 7.52393 1.76824e-18)
(20.3856 7.2666 1.76052e-18)
(20.4156 7.0322 1.39916e-17)
(20.4224 6.82772 -2.79955e-17)
(20.4135 6.6367 1.43133e-17)
(20.3926 6.45894 7.21245e-18)
(20.3626 6.29368 -1.54773e-19)
(20.3261 6.13965 -7.32699e-18)
(20.2852 5.99524 1.14652e-19)
(20.2411 5.85861 7.48984e-21)
(20.1944 5.72783 7.61894e-18)
(20.1454 5.601 -7.69424e-18)
(20.094 5.47643 -3.92634e-18)
(20.0401 5.35277 4.18296e-18)
(19.9836 5.22913 -4.01203e-18)
(19.9245 5.10497 3.50456e-18)
(19.8629 4.98076 3.06828e-18)
(19.7983 4.85759 -1.54462e-18)
(19.7297 4.73629 5.2794e-19)
(19.654 4.61723 0)
(19.5692 4.504 0)
(19.4675 4.3907 -2.55602e-20)
(16.0904 8.55518 -9.27668e-18)
(16.3699 8.61779 1.04143e-17)
(16.6249 8.66336 -4.51961e-18)
(16.8649 8.70226 -8.88675e-18)
(17.0939 8.73062 0)
(17.3144 8.74837 1.75865e-17)
(17.5297 8.75613 -4.32665e-17)
(17.742 8.75341 2.65458e-17)
(17.9519 8.73903 -8.74475e-18)
(18.1599 8.7119 8.40075e-18)
(18.3672 8.67134 -4.1723e-18)
(18.5736 8.61546 -3.68344e-17)
(18.7766 8.5415 6.36174e-17)
(18.9735 8.44718 -2.72993e-17)
(19.1623 8.33177 -3.61246e-18)
(19.34 8.19572 -1.45002e-17)
(19.5034 8.03988 4.46359e-17)
(19.649 7.86582 -1.95214e-17)
(19.7741 7.67603 -2.97902e-17)
(19.8765 7.47377 1.22553e-17)
(19.9544 7.26272 -3.43952e-18)
(20.0048 7.06532 0)
(20.0333 6.88839 0)
(20.0473 6.71916 -1.40301e-17)
(20.0489 6.55813 1.40408e-17)
(20.0404 6.40535 2.17466e-19)
(20.0238 6.26048 0)
(20.0007 6.12287 7.25507e-18)
(19.9724 5.99167 -7.26708e-18)
(19.9397 5.8659 5.65616e-20)
(19.9029 5.74457 -5.8769e-20)
(19.8623 5.62669 0)
(19.8176 5.51134 3.59014e-18)
(19.7685 5.39772 -3.79372e-18)
(19.7145 5.28505 4.73809e-19)
(19.6552 5.17327 -4.78435e-19)
(19.5905 5.06289 0)
(19.5202 4.95431 -4.88221e-19)
(19.4443 4.84859 -1.0055e-18)
(19.3628 4.74823 4.96842e-19)
(19.2781 4.65354 1.50083e-18)
(16.2346 8.24811 0)
(16.4777 8.29942 0)
(16.6995 8.33629 -1.68212e-17)
(16.9075 8.36714 -3.33575e-17)
(17.105 8.38893 5.09624e-17)
(17.2943 8.40191 -4.17831e-17)
(17.4784 8.40684 -1.64205e-17)
(17.659 8.40343 3.39473e-17)
(17.8369 8.39088 -3.3576e-17)
(18.0126 8.36842 3.38783e-17)
(18.1871 8.33564 0)
(18.3605 8.29118 0)
(18.5312 8.23293 3.17151e-17)
(18.6974 8.15913 -6.18781e-17)
(18.8578 8.06909 6.01859e-17)
(19.0105 7.96289 -2.95832e-17)
(19.1532 7.84078 -3.67788e-18)
(19.2835 7.70342 3.37053e-17)
(19.3992 7.55212 -2.29308e-17)
(19.4984 7.38874 0)
(19.5794 7.21543 1.68218e-18)
(19.6374 7.05013 0)
(19.6762 6.8989 -1.46718e-17)
(19.702 6.75172 2.84921e-17)
(19.7163 6.60934 -1.38227e-17)
(19.7205 6.4722 0)
(19.7161 6.34043 0)
(19.7044 6.21395 6.60878e-18)
(19.6865 6.09246 -7.05115e-18)
(19.663 5.97557 -7.14397e-18)
(19.6346 5.86286 7.19398e-18)
(19.6015 5.7539 7.23899e-18)
(19.564 5.64831 -7.26033e-18)
(19.5219 5.54572 0)
(19.4751 5.44568 -5.81173e-20)
(19.4233 5.34815 0)
(19.3664 5.25342 -1.47315e-20)
(19.304 5.16134 -5.93201e-20)
(19.2362 5.0723 2.0248e-18)
(19.1629 4.98735 -2.86321e-18)
(19.0857 4.90658 9.44512e-19)
(16.3494 7.99427 0)
(16.5629 8.03674 -1.96739e-18)
(16.7577 8.06677 0)
(16.9398 8.09131 1.57711e-17)
(17.1121 8.10791 -1.58462e-17)
(17.2766 8.11704 0)
(17.436 8.11948 1.5984e-17)
(17.5917 8.1151 1.58503e-17)
(17.7445 8.10333 -4.10569e-17)
(17.8948 8.08364 0)
(18.0436 8.05576 3.25049e-17)
(18.1911 8.01869 -6.54409e-17)
(18.3361 7.97086 3.18973e-17)
(18.4775 7.9109 0)
(18.6144 7.83823 -2.97525e-17)
(18.7455 7.75278 3.31109e-17)
(18.8692 7.65456 3.2132e-17)
(18.9839 7.54382 -3.54819e-17)
(19.0877 7.42119 -3.42408e-18)
(19.1794 7.28775 0)
(19.257 7.14469 0)
(19.3158 7.00636 -1.73983e-18)
(19.3581 6.8779 8.32754e-19)
(19.3891 6.75132 1.36312e-17)
(19.4097 6.6274 9.02114e-19)
(19.421 6.50671 -1.35985e-17)
(19.424 6.38963 1.36887e-17)
(19.4197 6.27635 -1.32481e-17)
(19.4088 6.16689 -7.76555e-18)
(19.392 6.06121 6.88455e-18)
(19.3699 5.95918 -6.95515e-18)
(19.3428 5.86071 6.94303e-18)
(19.3111 5.76567 0)
(19.2749 5.67398 -7.50103e-18)
(19.2344 5.58542 7.09513e-18)
(19.1897 5.5001 0)
(19.1408 5.41831 1.38023e-20)
(19.0876 5.33988 1.85666e-18)
(19.0302 5.26498 -1.90833e-18)
(18.9688 5.19411 8.53486e-19)
(18.9039 5.12708 -8.92245e-19)
(16.4424 7.78116 0)
(16.6313 7.81654 1.81254e-18)
(16.8036 7.84109 -1.47333e-17)
(16.9644 7.8606 2.94443e-17)
(17.1159 7.87305 -6.00029e-17)
(17.2603 7.87906 3.05324e-17)
(17.3996 7.87939 0)
(17.5352 7.87402 1.53518e-17)
(17.6678 7.86253 9.31627e-17)
(17.7979 7.84456 -6.31319e-17)
(17.9261 7.81991 0)
(18.0528 7.78787 -7.99876e-18)
(18.177 7.74723 2.31473e-17)
(18.2982 7.69693 -2.89217e-19)
(18.4155 7.63653 -2.95758e-17)
(18.5283 7.56592 3.2449e-17)
(18.6353 7.48501 -2.84241e-17)
(18.7352 7.39386 2.77339e-17)
(18.8269 7.29278 -2.76792e-17)
(18.9091 7.1824 -2.73205e-17)
(18.9804 7.06337 2.3627e-17)
(19.0362 6.94724 -1.18074e-17)
(19.0781 6.83828 1.50343e-17)
(19.1103 6.73002 -1.41432e-17)
(19.1335 6.62317 -2.5278e-18)
(19.1483 6.51833 1.32871e-17)
(19.1554 6.41594 0)
(19.1557 6.31631 0)
(19.1497 6.21963 -1.25628e-17)
(19.1379 6.12603 1.33561e-17)
(19.1209 6.03556 0)
(19.0991 5.94827 8.49542e-19)
(19.0727 5.86419 8.51665e-19)
(19.0421 5.78334 7.20805e-18)
(19.0076 5.70562 -7.19703e-18)
(18.9693 5.63119 -3.41682e-18)
(18.9274 5.56029 3.40676e-18)
(18.8822 5.49283 -1.28806e-18)
(18.8339 5.42888 3.43922e-18)
(18.7826 5.3688 -1.66577e-18)
(18.7288 5.31254 -2.13298e-19)
(16.5187 7.59992 1.31993e-17)
(16.6868 7.62954 1.64918e-17)
(16.8401 7.64965 -1.76402e-19)
(16.9829 7.66508 0)
(17.1173 7.6742 0)
(17.2448 7.67767 0)
(17.3675 7.67624 0)
(17.4866 7.66995 -5.85672e-17)
(17.6026 7.6585 1.04304e-16)
(17.716 7.64164 -6.04117e-17)
(17.8275 7.61923 6.04034e-17)
(17.9371 7.59075 -3.83868e-17)
(18.0445 7.55527 6.81245e-17)
(18.1489 7.51199 -8.12202e-17)
(18.25 7.46057 2.88734e-17)
(18.3472 7.40089 2.11244e-17)
(18.4396 7.33286 -2.77838e-17)
(18.5263 7.25646 3.367e-18)
(18.6064 7.17185 -3.41424e-18)
(18.6789 7.07941 3.35179e-17)
(18.7427 6.97949 2.9623e-17)
(18.7937 6.88147 -4.93332e-17)
(18.833 6.78888 -1.6054e-18)
(18.8641 6.69643 0)
(18.8874 6.60472 1.59789e-18)
(18.9034 6.51431 -1.63593e-18)
(18.9126 6.42564 -1.13225e-17)
(18.9155 6.33906 1.2922e-17)
(18.9128 6.25482 -1.29688e-17)
(18.9048 6.1731 1.29324e-17)
(18.8919 6.09406 1.29972e-17)
(18.8745 6.0178 -1.37608e-17)
(18.8529 5.94443 -8.04342e-19)
(18.8276 5.87401 6.52895e-18)
(18.7987 5.80648 -5.28015e-18)
(18.7665 5.74201 0)
(18.7312 5.6808 0)
(18.6932 5.62273 -4.06405e-19)
(18.6527 5.56788 8.25369e-19)
(18.6099 5.51645 8.26153e-19)
(18.5651 5.46856 2.00098e-19)
(16.5819 7.44413 0)
(16.7322 7.469 -3.08955e-18)
(16.8693 7.48545 2.52117e-17)
(16.9969 7.49756 -2.59368e-17)
(17.1165 7.50396 -5.24805e-17)
(17.2299 7.50537 5.40962e-17)
(17.3387 7.5025 2.70883e-17)
(17.4439 7.49541 -5.60314e-17)
(17.5461 7.48392 -5.63762e-17)
(17.6456 7.46783 5.75626e-17)
(17.7431 7.44706 0)
(17.8387 7.42123 -2.92005e-17)
(17.932 7.38962 5.85059e-17)
(18.0225 7.35162 -6.45832e-17)
(18.11 7.30698 0)
(18.194 7.25561 -6.89623e-18)
(18.2738 7.19743 6.78616e-18)
(18.3489 7.13241 0)
(18.4184 7.06063 3.24605e-18)
(18.4817 6.98233 -6.43619e-18)
(18.5379 6.89773 2.89717e-17)
(18.5833 6.81452 -2.87497e-17)
(18.619 6.73559 3.19637e-18)
(18.6477 6.65656 2.36458e-17)
(18.6698 6.57797 -2.35635e-17)
(18.6855 6.50029 1.55073e-18)
(18.6953 6.42394 -1.40964e-17)
(18.6996 6.34923 1.25081e-17)
(18.6989 6.27644 1.57792e-18)
(18.6935 6.20577 0)
(18.6838 6.13738 0)
(18.67 6.07142 0)
(18.6526 6.008 -6.26795e-18)
(18.6318 5.94719 6.24529e-18)
(18.608 5.88899 -7.75743e-19)
(18.5813 5.8335 -6.27456e-18)
(18.552 5.7809 7.0371e-18)
(18.5205 5.73109 0)
(18.4868 5.68409 9.33045e-21)
(18.4514 5.64003 -1.56302e-18)
(18.4142 5.59911 7.6308e-19)
(16.6347 7.30896 1.1205e-17)
(16.7696 7.32989 0)
(16.8927 7.3433 -5.83853e-17)
(17.0071 7.35269 4.82605e-17)
(17.1142 7.35687 0)
(17.2154 7.3566 5.03183e-17)
(17.3123 7.35255 -2.25319e-19)
(17.4057 7.34482 5.2513e-17)
(17.4962 7.33326 -8.07737e-17)
(17.5841 7.31776 -5.42712e-17)
(17.6698 7.29827 5.53917e-17)
(17.7536 7.27449 1.38435e-17)
(17.835 7.2459 0)
(17.9138 7.21203 0)
(17.9898 7.17268 -1.35761e-17)
(18.0626 7.12782 5.93138e-17)
(18.1317 7.07738 -1.17093e-16)
(18.1966 7.02134 5.14831e-17)
(18.2567 6.95976 6.4063e-18)
(18.3116 6.89282 6.35635e-18)
(18.3605 6.82063 -3.08412e-18)
(18.4004 6.74959 4.63464e-17)
(18.4321 6.68204 -7.96331e-17)
(18.458 6.61437 1.50577e-18)
(18.478 6.54701 2.28074e-17)