# Wall shear stress
# Time       	patch        	min          	max          
0.000000e+00	walls	(-6.847834e+00 -9.417371e-01 -8.288805e-18)	(-4.751159e+00 8.319132e-01 1.962103e-18)
5.000000e+01	walls	(-2.212813e+03 -1.050509e+03 -1.034196e-14)	(2.395095e+01 1.223910e+03 1.447299e-14)
1.000000e+02	walls	(-2.462279e+03 -1.302241e+03 -1.212328e-14)	(2.939775e+01 8.844413e+02 1.725748e-14)
1.500000e+02	walls	(-2.550077e+03 -1.382837e+03 -1.245755e-14)	(2.734240e+01 8.043066e+02 1.772605e-14)
2.000000e+02	walls	(-2.574173e+03 -1.408829e+03 -1.254476e-14)	(2.671782e+01 7.797414e+02 1.784699e-14)
2.500000e+02	walls	(-2.581813e+03 -1.416483e+03 -1.256973e-14)	(2.650134e+01 7.726610e+02 1.788265e-14)
3.000000e+02	walls	(-2.584077e+03 -1.418863e+03 -1.257707e-14)	(2.644259e+01 7.704543e+02 1.789325e-14)
3.500000e+02	walls	(-2.584759e+03 -1.419566e+03 -1.257938e-14)	(2.642281e+01 7.698014e+02 1.789637e-14)
