/*--------------------------------*- C++ -*----------------------------------*\
| =========                 |                                                 |
| \\      /  F ield         | OpenFOAM: The Open Source CFD Toolbox           |
|  \\    /   O peration     | Version:  5.x                                   |
|   \\  /    A nd           | Web:      www.OpenFOAM.org                      |
|    \\/     M anipulation  |                                                 |
\*---------------------------------------------------------------------------*/
FoamFile
{
    version     2.0;
    format      ascii;
    class       surfaceScalarField;
    location    "1700";
    object      phi;
}
// * * * * * * * * * * * * * * * * * * * * * * * * * * * * * * * * * * * * * //

dimensions      [0 3 -1 0 0 0 0];

internalField   nonuniform List<scalar> 
21876
(
0.0302889
-0.00418811
-0.0261
0.039565
-0.00927606
0.0396457
-8.07582e-05
0.0400821
-0.000436389
0.0383076
0.00177456
0.0354965
0.00281103
0.0324073
0.00308928
0.0293443
0.003063
0.0263751
0.00296919
0.0232226
0.00315244
0.0195715
0.00365111
0.0166986
0.00287291
0.0148987
0.00179978
0.0135691
0.0013298
0.011977
0.00159269
0.010207
0.00177153
0.0082456
0.00196732
0.0061032
0.002151
0.00379204
0.00230992
0.00152149
0.00226128
-0.000363294
0.0018805
-0.00148421
0.00111883
-0.00224589
0.000761868
-0.0027003
0.000455301
-0.00295518
0.000255377
-0.00309007
0.000133696
-0.00316969
7.7952e-05
-0.00323947
6.85023e-05
-0.00332507
8.54198e-05
-0.00344275
0.000117763
-0.0036043
0.000161558
-0.00381815
0.000213817
-0.00407872
0.000260439
-0.00435362
0.000274651
-0.00457445
0.000219881
-0.00461801
4.16962e-05
-0.00433652
-0.000282968
-0.00371548
-0.000621329
-0.00314056
-0.000574481
-0.00132571
-0.00181413
-0.00880198
0.00747608
0.0366771
-0.0105455
-0.0303197
0.0443511
-0.0169501
0.0464233
-0.00215293
0.0479975
-0.00201055
0.048652
0.00112006
0.0482428
0.00322018
0.0468566
0.00447552
0.0446385
0.00528104
0.0418271
0.00578066
0.0384329
0.00654662
0.0342672
0.00781684
0.0301828
0.0069573
0.0267224
0.00526016
0.0237891
0.00426322
0.0209931
0.00438897
0.0182581
0.00450754
0.0154001
0.0048278
0.0122946
0.00525867
0.00892094
0.00568132
0.00538879
0.00578905
0.00201325
0.00525313
-0.000133577
0.00326407
-0.00159328
0.00222099
-0.00253325
0.00139473
-0.00311827
0.000839906
-0.00348675
0.00050195
-0.00374922
0.000340905
-0.00397259
0.000292528
-0.0041936
0.000306911
-0.0044326
0.00035697
-0.00469579
0.000424799
-0.00497921
0.000497238
-0.00526325
0.000544432
-0.00550906
0.000520318
-0.00566187
0.000372495
-0.00564388
2.38148e-05
-0.00528914
-0.000636811
-0.0043754
-0.00153349
-0.00277434
-0.00217487
-0.000302168
-0.00428739
-0.0151114
0.00600706
0.0429624
-0.0178623
-0.0356456
0.0497719
-0.0237595
0.0539134
-0.00629446
0.0560791
-0.00417624
0.0570018
0.000197373
0.0568649
0.0033571
0.0559413
0.00539912
0.0543699
0.00685248
0.0522289
0.00792165
0.0494612
0.0093143
0.045847
0.011431
0.0419173
0.010887
0.0381553
0.0090221
0.0345535
0.00786514
0.0309074
0.00803525
0.0272757
0.00813917
0.0235552
0.00854719
0.0196013
0.00921083
0.0152984
0.00998334
0.0106447
0.0104441
0.00590953
0.00999019
0.00259077
0.00658311
0.000125843
0.0046859
-0.00155919
0.00307937
-0.0026677
0.00194815
-0.00340704
0.00124129
-0.00393192
0.000866267
-0.00433889
0.000699747
-0.00469068
0.000658822
-0.00502501
0.000691363
-0.00536015
0.00075996
-0.00570306
0.000840151
-0.0060471
0.000888444
-0.00636496
0.000838234
-0.00660033
0.000608126
-0.00664669
7.06702e-05
-0.00631184
-0.000970874
-0.00530745
-0.0025379
-0.00334156
-0.00414136
-0.000509416
-0.00711938
-0.0197614
0.00414059
0.0499027
-0.0259782
-0.0417868
0.0566308
-0.0304876
0.0618323
-0.0114959
0.0647834
-0.00712738
0.0662709
-0.00129012
0.0665323
0.00309571
0.0657942
0.00613723
0.0643185
0.00832818
0.0623039
0.00993631
0.0597842
0.011834
0.0565982
0.014617
0.0530752
0.0144101
0.0496035
0.0124939
0.0461092
0.0113595
0.0423269
0.0118177
0.0382877
0.0121786
0.0339676
0.0128673
0.0292746
0.0139036
0.0240876
0.0151703
0.0183172
0.0162151
0.012099
0.0162089
0.00731178
0.0113703
0.0033873
0.00861023
0.000517689
0.00594858
-0.00144249
0.0039079
-0.00277038
0.00256903
-0.00369789
0.00179407
-0.00438418
0.00138639
-0.00493265
0.00120752
-0.0054068
0.00116561
-0.00584847
0.00120167
-0.00628598
0.00127766
-0.00673018
0.00133263
-0.00716191
0.00126993
-0.00751831
0.0009646
-0.00767571
0.000228428
-0.00742951
-0.00121645
-0.00645359
-0.00351343
-0.00438933
-0.0062057
-0.00135561
-0.0101534
-0.0233263
0.00220916
0.0575537
-0.0348652
-0.0486666
0.0645726
-0.0375066
0.0706314
-0.0175547
0.0747089
-0.0112049
0.0771381
-0.00371933
0.0781459
0.00208792
0.0778813
0.0064019
0.0765859
0.00962353
0.0745339
0.0119883
0.0718758
0.0144921
0.0686026
0.0178902
0.0650316
0.0179811
0.0615852
0.0159403
0.0582362
0.0147085
0.054673
0.0153811
0.0507739
0.0160777
0.046441
0.0171996
0.0415267
0.0188168
0.0358596
0.0208373
0.0292551
0.0228206
0.0216741
0.0237911
0.0152699
0.0177747
0.00942404
0.0144562
0.00470712
0.0106654
0.00127383
0.00734107
-0.00109088
0.00493376
-0.00271952
0.00342291
-0.00388491
0.00255186
-0.00476425
0.0020869
-0.00546998
0.00187137
-0.00608129
0.00181299
-0.00665722
0.00185359
-0.00723514
0.00191053
-0.00781334
0.00184817
-0.00833309
0.00148452
-0.00866459
0.000560215
-0.00859783
-0.00128287
-0.00779261
-0.00431883
-0.00586531
-0.00813337
-0.00284318
-0.0131754
-0.0261248
-4.4688e-05
0.0660157
-0.0445936
-0.0562873
0.0736217
-0.0451126
0.080501
-0.024434
0.0857133
-0.0164171
0.0892352
-0.00724121
0.0912093
0.000113772
0.0917454
0.00586581
0.0909948
0.0103742
0.0892034
0.0137797
0.0865578
0.0171378
0.0831383
0.0213096
0.0792679
0.0218515
0.0754539
0.0197543
0.0718384
0.0183241
0.0682365
0.0189831
0.0644868
0.0198274
0.0604402
0.021246
0.0558594
0.0233975
0.0504316
0.0262653
0.0437646
0.0294882
0.0355181
0.032038
0.0278194
0.0254735
0.019925
0.0223505
0.0127383
0.0178519
0.00694851
0.0131307
0.00271219
0.00917001
-0.000240978
0.00637614
-0.00230752
0.00461848
-0.00380338
0.00358282
-0.00493513
0.00300316
-0.00584515
0.00272304
-0.0066389
0.00264734
-0.00739608
0.0026677
-0.00815368
0.00260577
-0.00888101
0.00221191
-0.00946068
0.00114004
-0.00968981
-0.00105358
-0.00923969
-0.00476894
-0.00772326
-0.00964986
-0.00502897
-0.0158697
-0.0282687
-0.00288507
0.0754248
-0.0553376
-0.0646808
0.0839012
-0.053589
0.0916744
-0.0322072
0.0979968
-0.0227395
0.102681
-0.011925
0.105761
-0.00296638
0.107302
0.00432459
0.107388
0.0102882
0.106197
0.0149704
0.103906
0.0194288
0.100618
0.0245977
0.0965983
0.0258714
0.0923711
0.0239815
0.0882348
0.0224604
0.0842057
0.0230124
0.0802141
0.023819
0.0761906
0.0252694
0.0719613
0.0276264
0.0671969
0.0310296
0.0613441
0.0353414
0.053681
0.0397017
0.0457638
0.0333909
0.0365705
0.0315438
0.026941
0.0274813
0.0180453
0.0220264
0.0107773
0.0164381
0.00537446
0.011779
0.00154153
0.00845142
-0.00117703
0.00630138
-0.00315751
0.00498366
-0.00465674
0.00422227
-0.00585792
0.00384852
-0.00690766
0.00371742
-0.00791035
0.00360848
-0.00889795
0.00319959
-0.00980079
0.00204302
-0.0104575
-0.000396737
-0.0105862
-0.00464036
-0.00980753
-0.0104287
-0.0078794
-0.0177978
-0.0296538
-0.00649428
0.0859441
-0.0673721
-0.0739095
0.0955849
-0.0632298
0.104408
-0.0410299
0.111855
-0.0301871
0.11773
-0.0177999
0.122005
-0.00724063
0.124683
0.00164617
0.125815
0.00915664
0.125502
0.015283
0.123896
0.0210344
0.121099
0.0273954
0.11728
0.0296896
0.112898
0.0283637
0.108327
0.0270314
0.10376
0.0275804
0.0992441
0.0283345
0.0948255
0.0296879
0.0904975
0.0319543
0.0861214
0.0354058
0.081288
0.040175
0.0751726
0.0458173
0.0684633
0.0401003
0.0597485
0.0402587
0.0491627
0.038067
0.0376534
0.0335357
0.026639
0.0274524
0.0173292
0.0210888
0.0101973
0.0155833
0.00501979
0.0114789
0.00129575
0.00870771
-0.00142755
0.00694559
-0.00348102
0.00590199
-0.0051176
0.005354
-0.00654686
0.00503776
-0.00790999
0.00456277
-0.00923597
0.00336907
-0.0104594
0.000826716
-0.0114014
-0.00369843
-0.0117212
-0.010109
-0.0111072
-0.0184117
-0.0299018
-0.0108592
0.0977786
-0.0810655
-0.0840851
0.108914
-0.0743652
0.119012
-0.0511279
0.127671
-0.0388459
0.134764
-0.0248928
0.140261
-0.0127384
0.144151
-0.00224376
0.14646
0.00684802
0.147231
0.0145118
0.146584
0.0216811
0.144607
0.029373
0.141374
0.0329228
0.137226
0.0325118
0.132537
0.0317195
0.127617
0.0325011
0.122613
0.0333379
0.11765
0.0346515
0.112847
0.0367571
0.108278
0.039975
0.10387
0.0445824
0.0991336
0.0505545
0.0942693
0.0449646
0.087704
0.0468239
0.0786961
0.0470749
0.0671647
0.0450671
0.0539371
0.0406801
0.0405354
0.0344904
0.0285294
0.0275893
0.0188498
0.0211585
0.0115714
0.0159861
0.00624536
0.0122716
0.00233837
0.00980898
-0.000588722
0.00828109
-0.00291181
0.00736086
-0.00495035
0.00660137
-0.00690444
0.00532322
-0.00887897
0.00280126
-0.0108694
-0.00170808
-0.0126412
-0.00833722
-0.0139144
-0.0171385
-0.0284018
-0.0154144
0.111186
-0.0968781
-0.0953737
0.124204
-0.087383
0.13587
-0.0627934
0.145905
-0.0488812
0.154283
-0.0332711
0.161026
-0.0194815
0.166156
-0.00737354
0.169695
0.00330943
0.171666
0.0125408
0.172166
0.0211805
0.171267
0.0302722
0.168956
0.035234
0.165444
0.036024
0.161051
0.0361123
0.156134
0.0374185
0.150917
0.0385544
0.145575
0.0399941
0.140287
0.0420448
0.135232
0.0450294
0.130577
0.0492382
0.126267
0.0548641
0.12262
0.0486122
0.118322
0.0511219
0.112375
0.0530216
0.103826
0.0536158
0.0922343
0.052272
0.0780301
0.0486946
0.0625207
0.0430988
0.0474442
0.036235
0.034285
0.0291454
0.0237633
0.0227933
0.0158124
0.0177599
0.00993597
0.0141575
0.00553642
0.0117604
0.0020354
0.0101024
-0.00104557
0.00840423
-0.00411383
0.0058695
-0.00744819
0.00162622
-0.0110076
-0.00477787
-0.0146479
-0.0134981
-0.0244544
-0.0185954
0.126492
-0.115369
-0.108001
0.141857
-0.102748
0.155456
-0.0763927
0.167119
-0.0605436
0.176922
-0.043074
0.184968
-0.0275277
0.191347
-0.0137526
0.196117
-0.00146108
0.199317
0.00934085
0.201048
0.0194494
0.20138
0.0299404
0.200235
0.0363795
0.197701
0.0385575
0.194018
0.0397958
0.189524
0.0419123
0.184483
0.0435956
0.179108
0.0453692
0.17361
0.0475427
0.168202
0.0504369
0.16312
0.0543202
0.158546
0.0594382
0.155097
0.0520613
0.15187
0.0543491
0.148269
0.0566226
0.143367
0.0585182
0.136107
0.0595314
0.125681
0.0591207
0.111937
0.0568426
0.0955959
0.0525764
0.0781051
0.0466361
0.0611888
0.0397096
0.0462892
0.0326595
0.0341751
0.0262716
0.0248547
0.0210808
0.0177654
0.0171918
0.012142
0.0140276
0.0071141
0.0108974
0.00190738
0.00683289
-0.00383838
0.000967876
-0.0102365
-0.00709996
-0.0174358
-0.0172551
0.144103
-0.137211
-0.122262
0.162375
-0.12102
0.178362
-0.0923798
0.191992
-0.0741733
0.203445
-0.0545266
0.212917
-0.0369998
0.220584
-0.0214194
0.226582
-0.00745935
0.230985
0.00493774
0.233937
0.0164976
0.235532
0.0283448
0.235666
0.0362456
0.234336
0.0398873
0.231698
0.0424343
0.228029
0.0455817
0.223579
0.0480456
0.218581
0.0503667
0.213267
0.0528568
0.207868
0.0558358
0.202624
0.0595641
0.197772
0.0642905
0.194068
0.0557656
0.190871
0.0575461
0.18803
0.0594629
0.185148
0.0614009
0.181515
0.0631645
0.176161
0.064474
0.168085
0.0649192
0.156602
0.064059
0.141668
0.0615706
0.123991
0.0573862
0.104899
0.0517518
0.0859985
0.045172
0.0687337
0.0383456
0.053994
0.0319316
0.0420602
0.0259615
0.0323099
0.0206476
0.0235501
0.0155927
0.014756
0.00976196
0.0051397
0.00251632
-0.00667907
-0.00561699
0.164526
-0.163212
-0.138524
0.186382
-0.142876
0.205315
-0.111313
0.221352
-0.0902097
0.234775
-0.0679502
0.245882
-0.048107
0.254946
-0.0304828
0.262197
-0.0147108
0.267774
-0.00063886
0.271887
0.0123839
0.274686
0.0255461
0.276083
0.0348488
0.276032
0.0399381
0.274632
0.0438348
0.272085
0.0481282
0.268591
0.0515395
0.264368
0.0545898
0.259647
0.0575783
0.254668
0.060814
0.249678
0.0645546
0.244918
0.06905
0.241103
0.059581
0.237745
0.0609038
0.234862
0.0623463
0.232401
0.063862
0.230174
0.0653913
0.227762
0.0668856
0.224464
0.0682172
0.219366
0.0691575
0.211549
0.0693878
0.200371
0.0685642
0.185702
0.0664209
0.168022
0.0628522
0.148309
0.0580583
0.127788
0.0524524
0.107909
0.0458409
0.0896106
0.0389455
0.0729892
0.0322142
0.0576751
0.025076
0.0427715
0.01742
0.00878324
0.0273092
0.188384
-0.194346
-0.157249
0.214645
-0.169138
0.237208
-0.133875
0.256202
-0.109204
0.272022
-0.0837702
0.28507
-0.0611549
0.295724
-0.0411367
0.304318
-0.0233046
0.311084
-0.00740465
0.316306
0.00716209
0.320209
0.0216424
0.322766
0.0322924
0.323936
0.0387676
0.323803
0.0439677
0.322517
0.0494149
0.320215
0.0538411
0.317076
0.0577294
0.313302
0.0613515
0.309124
0.0649921
0.304784
0.0688946
0.300533
0.0733014
0.296934
0.0631795
0.293693
0.0641449
0.290845
0.0651949
0.288409
0.0662978
0.286392
0.0674078
0.284754
0.068524
0.283331
0.0696398
0.28176
0.0707295
0.279435
0.0717121
0.275575
0.0724248
0.269363
0.0726325
0.260153
0.072062
0.247613
0.0705984
0.231765
0.0683007
0.213212
0.064394
0.192745
0.0594123
0.170991
0.053968
0.148688
0.0473795
0.126044
0.040064
0.0318102
0.103017
0.216447
-0.231791
-0.179002
0.248108
-0.200799
0.275132
-0.160899
0.297766
-0.131839
0.316524
-0.102528
0.331924
-0.0765549
0.34446
-0.0536721
0.354575
-0.0334203
0.362611
-0.0154408
0.368935
0.000838148
0.373865
0.0167128
0.377454
0.0287033
0.379713
0.036509
0.380748
0.0429323
0.380694
0.0494693
0.37965
0.054885
0.377751
0.059628
0.375161
0.0639416
0.372074
0.0680793
0.368709
0.0722599
0.365308
0.0767024
0.362204
0.0662837
0.359369
0.0669798
0.356854
0.0677095
0.354683
0.068469
0.352868
0.0692222
0.351429
0.0699634
0.350384
0.0706851
0.349719
0.0713946
0.349328
0.0721025
0.348954
0.072799
0.348153
0.0734333
0.346324
0.0738906
0.342782
0.0741411
0.336833
0.0742497
0.328011
0.0732155
0.316059
0.0713648
0.300792
0.0692348
0.282444
0.0657277
0.261235
0.0612729
0.0556027
0.237443
0.24965
-0.276971
-0.20447
0.287917
-0.239065
0.320419
-0.193401
0.347529
-0.158949
0.369899
-0.124898
0.38818
-0.0948355
0.402993
-0.0684847
0.414905
-0.0453324
0.424374
-0.0249102
0.431871
-0.00665848
0.437804
0.0107797
0.442329
0.0241784
0.445532
0.0333061
0.447575
0.0408893
0.448612
0.0484323
0.44874
0.0547573
0.448071
0.0602967
0.446736
0.0652768
0.444889
0.0699267
0.442709
0.0744397
0.440406
0.079005
0.437998
0.068692
0.435763
0.069215
0.433779
0.0696931
0.432091
0.0701568
0.430718
0.0705958
0.429663
0.0710178
0.428934
0.0714139
0.428548
0.0717809
0.428528
0.072123
0.42888
0.0724465
0.429558
0.0727553
0.430416
0.0730327
0.431177
0.0733798
0.431418
0.0740085
0.430624
0.07401
0.428225
0.0737639
0.42359
0.0738693
0.416233
0.0730845
0.405803
0.0717027
0.069603
0.391803
0.289106
-0.331608
-0.234469
0.335445
-0.285405
0.374661
-0.232617
0.407273
-0.191561
0.434091
-0.151716
0.455918
-0.116663
0.473524
-0.0860906
0.487615
-0.0594229
0.49878
-0.0360751
0.507603
-0.0154817
0.514594
0.00378842
0.520021
0.0187513
0.524062
0.029265
0.526954
0.037998
0.528898
0.0464882
0.530019
0.0536361
0.530438
0.059878
0.530272
0.0654424
0.52965
0.0705489
0.528714
0.0753753
0.527632
0.0800871
0.526042
0.0702828
0.524528
0.0707282
0.523186
0.0710356
0.522079
0.0712634
0.521247
0.0714276
0.520707
0.0715578
0.52046
0.0716615
0.520498
0.071743
0.520815
0.0718054
0.521415
0.071847
0.522305
0.0718647
0.523493
0.0718454
0.524957
0.0719152
0.526625
0.0723403
0.52835
0.072285
0.529889
0.0722258
0.530887
0.0728711
0.530905
0.073066
0.529534
0.0730743
0.0731319
0.526005
0.305038
-0.391563
-0.245082
0.355937
-0.336304
0.398906
-0.275586
0.434563
-0.227218
0.463814
-0.180968
0.487551
-0.1404
0.506626
-0.105166
0.521824
-0.0746213
0.533816
-0.0480672
0.543245
-0.0249106
0.550676
-0.00364263
0.556456
0.0129718
0.560837
0.0248834
0.564112
0.0347238
0.566523
0.0440772
0.568229
0.0519292
0.569371
0.0587363
0.570068
0.0647455
0.570433
0.0701835
0.570581
0.0752276
0.570634
0.0800337
0.569911
0.0710061
0.569198
0.0714412
0.56858
0.071654
0.56812
0.0717227
0.567866
0.0716824
0.567843
0.0715801
0.568066
0.0714392
0.56853
0.0712782
0.569225
0.0711107
0.570131
0.0709416
0.571226
0.0707693
0.572493
0.0705779
0.573919
0.0704897
0.575489
0.0707697
0.577192
0.0705828
0.578992
0.0704254
0.580826
0.0710373
0.582579
0.0713129
0.584131
0.0715218
0.0721029
0.58516
0.317303
-0.456061
-0.252805
0.372094
-0.391095
0.418266
-0.321758
0.456526
-0.265478
0.487858
-0.2123
0.513228
-0.165769
0.533556
-0.125494
0.549694
-0.0907591
0.562377
-0.06075
0.572296
-0.0348294
0.58006
-0.0114071
0.586075
0.00695718
0.590651
0.0203068
0.594121
0.0312543
0.596761
0.0414365
0.598765
0.0499255
0.600294
0.0572078
0.60148
0.063559
0.602439
0.0692244
0.603274
0.0743925
0.604086
0.079222
0.603972
0.07112
0.603841
0.0715723
0.603764
0.0717314
0.603796
0.0716902
0.60398
0.0714985
0.604344
0.0712161
0.604904
0.0708786
0.605667
0.0705153
0.606628
0.07015
0.607773
0.0697968
0.609081
0.0694614
0.610525
0.0691333
0.612077
0.0689378
0.613707
0.0691403
0.61539
0.0688996
0.617107
0.0687081
0.618842
0.069303
0.620581
0.0695734
0.622327
0.0697761
0.0703884
0.624041
0.331935
-0.525506
-0.26249
0.390957
-0.450117
0.440635
-0.371436
0.481761
-0.306603
0.5154
-0.245939
0.542594
-0.192964
0.564339
-0.147239
0.581552
-0.107972
0.595033
-0.0742316
0.605525
-0.0453205
0.61368
-0.0195625
0.619958
0.000679582
0.624721
0.015543
0.628338
0.0276379
0.631117
0.038657
0.633282
0.0477608
0.635018
0.0554724
0.636474
0.0621029
0.637774
0.0679242
0.639023
0.0731438
0.640312
0.0779325
0.640587
0.0708449
0.640838
0.0713211
0.641127
0.0714431
0.641501
0.0713162
0.641997
0.0710027
0.64264
0.0705725
0.643448
0.070071
0.644427
0.0695359
0.645579
0.0689986
0.646896
0.0684799
0.648366
0.0679914
0.649971
0.067528
0.65169
0.0672188
0.653498
0.0673325
0.655368
0.0670294
0.657276
0.0667998
0.6592
0.0673789
0.661126
0.0676475
0.663052
0.0678506
0.0684616
0.664979
0.348774
-0.600327
-0.273953
0.412388
-0.513731
0.465888
-0.424935
0.510148
-0.350863
0.546322
-0.282113
0.575534
-0.222175
0.598856
-0.170562
0.617276
-0.126392
0.631664
-0.0886196
0.642813
-0.0564696
0.651425
-0.028174
0.658009
-0.00590446
0.662976
0.010576
0.666727
0.023887
0.669603
0.0357807
0.671856
0.0455076
0.673695
0.0536332
0.675289
0.0605091
0.676774
0.0664392
0.678262
0.0716564
0.679844
0.0763502
0.680358
0.070331
0.680852
0.0708266
0.681382
0.0709135
0.681989
0.0707087
0.682707
0.0702852
0.683557
0.0697221
0.684555
0.0690727
0.685709
0.0683819
0.687021
0.0676871
0.688487
0.0670139
0.6901
0.0663784
0.691849
0.0657787
0.693722
0.0653461
0.695703
0.0653508
0.697776
0.0649571
0.699922
0.0646533
0.702128
0.0651736
0.704377
0.0653982
0.706661
0.0655664
0.0661508
0.708972
0.367754
-0.680982
-0.2871
0.436349
-0.582326
0.494006
-0.482592
0.541685
-0.398543
0.580633
-0.321061
0.612062
-0.253604
0.637126
-0.195626
0.656889
-0.146155
0.672293
-0.104023
0.684187
-0.0683638
0.693323
-0.0373102
0.700263
-0.0128443
0.705461
0.00537772
0.709353
0.0199946
0.712312
0.0328222
0.714616
0.0432031
0.7165
0.0517501
0.718149
0.0588594
0.719717
0.0648711
0.721326
0.070048
0.723073
0.074603
0.723716
0.0696876
0.724351
0.0701919
0.725028
0.0702364
0.725787
0.0699498
0.726657
0.0694152
0.727659
0.0687201
0.728807
0.0679251
0.730108
0.0670811
0.731564
0.0662305
0.733175
0.0654032
0.734935
0.0646183
0.736837
0.0638766
0.738873
0.0633103
0.741035
0.0631891
0.743309
0.062683
0.745685
0.0622766
0.748158
0.0627011
0.750716
0.0628403
0.753352
0.0629299
0.0634431
0.75606
0.388874
-0.767963
-0.301893
0.46287
-0.656322
0.525044
-0.544766
0.576447
-0.449946
0.618423
-0.363037
0.652277
-0.287458
0.679256
-0.222604
0.700503
-0.167403
0.717035
-0.120556
0.729765
-0.0810935
0.739497
-0.0470424
0.746846
-0.0201927
0.75231
-8.70712e-05
0.756362
0.0159427
0.759405
0.0297801
0.761745
0.0408629
0.763639
0.0498558
0.765295
0.0572033
0.766881
0.0632853
0.768531
0.0683979
0.770353
0.0727811
0.771045
0.0689959
0.77174
0.0694961
0.77249
0.0694864
0.773333
0.069107
0.774297
0.0684518
0.775401
0.0676159
0.776659
0.0666671
0.778078
0.0656618
0.779661
0.064647
0.781408
0.0636562
0.783315
0.0627113
0.785377
0.0618151
0.787587
0.0611001
0.789942
0.0608346
0.792429
0.0601961
0.795041
0.0596643
0.797777
0.0599652
0.800627
0.0599897
0.803588
0.0599695
0.0603764
0.806654
0.412175
-0.861805
-0.318333
0.492028
-0.736175
0.55911
-0.611847
0.614563
-0.5054
0.65984
-0.408313
0.696346
-0.323965
0.725422
-0.25168
0.748302
-0.190283
0.766083
-0.138336
0.779743
-0.0947534
0.790146
-0.0574455
0.797959
-0.0280064
0.803731
-0.00585831
0.807966
0.011707
0.811102
0.0266441
0.813475
0.0384904
0.815364
0.0479669
0.816997
0.0555703
0.818558
0.0617237
0.820197
0.0667593
0.822031
0.070947
0.822711
0.0683157
0.823408
0.0687999
0.824171
0.0687225
0.825042
0.0682364
0.826048
0.0674461
0.827209
0.066455
0.828538
0.0653377
0.830043
0.0641563
0.831728
0.0629621
0.833593
0.0617918
0.835634
0.06067
0.837848
0.0596015
0.840229
0.0587185
0.842776
0.0582875
0.845477
0.0574954
0.848326
0.056816
0.851323
0.0569682
0.854459
0.0568531
0.85773
0.0566986
0.0569731
0.861133
0.437736
-0.96309
-0.336451
0.523943
-0.822382
0.596354
-0.684259
0.656214
-0.565259
0.705085
-0.457185
0.744485
-0.363365
0.775858
-0.283053
0.800531
-0.214955
0.819687
-0.157492
0.834378
-0.109444
0.845531
-0.0685984
0.85387
-0.0363454
0.85999
-0.0119792
0.864438
0.00725917
0.867684
0.0233988
0.870092
0.0360819
0.871968
0.0460911
0.87356
0.0539785
0.875069
0.0602139
0.87666
0.0651688
0.878462
0.0691453
0.879086
0.0676914
0.879736
0.0681494
0.880468
0.0679913
0.881321
0.0673834
0.882325
0.0664415
0.883502
0.0652778
0.884866
0.0639739
0.886425
0.0625977
0.888182
0.0612046
0.890139
0.059835
0.892293
0.058516
0.89464
0.0572543
0.897177
0.0561818
0.899902
0.0555624
0.902803
0.0545944
0.905874
0.0537449
0.909118
0.0537241
0.912525
0.0534463
0.916089
0.0531352
0.0532542
0.919807
0.465662
-1.07245
-0.356303
0.558764
-0.915483
0.636965
-0.76246
0.701617
-0.629911
0.754404
-0.509972
0.796961
-0.405922
0.830845
-0.316936
0.857483
-0.241594
0.878152
-0.178161
0.893983
-0.125275
0.90597
-0.0805861
0.914899
-0.0452742
0.921416
-0.018496
0.926108
0.00256775
0.929481
0.0200254
0.931933
0.0336302
0.933793
0.0442307
0.935332
0.0524395
0.93677
0.058776
0.938285
0.0636538
0.94002
0.0674101
0.940553
0.0671581
0.941121
0.0675819
0.941781
0.067331
0.942578
0.0665863
0.943544
0.0654756
0.944701
0.0641205
0.946065
0.0626101
0.947645
0.0610183
0.949444
0.0594051
0.951465
0.0578143
0.953705
0.0562758
0.956161
0.0547986
0.958829
0.0535138
0.961709
0.0526825
0.964787
0.0515161
0.968057
0.0504744
0.971525
0.0502571
0.975176
0.0497944
0.979006
0.0493057
0.0492483
0.983012
0.496084
-1.19057
-0.377962
0.59667
-1.01607
0.681164
-0.846954
0.751029
-0.699775
0.808081
-0.567024
0.854083
-0.451924
0.89071
-0.353563
0.919502
-0.270386
0.941835
-0.200493
0.958923
-0.142363
0.971837
-0.0935002
0.981425
-0.0548622
0.988388
-0.0254592
0.993358
-0.00240185
0.996881
0.0165026
0.999386
0.0311251
1.00123
0.0423859
1.00271
0.0509618
1.00406
0.0574261
1.00547
0.0622374
1.00711
0.0657704
1.00753
0.0667458
1.00798
0.0671298
1.00853
0.0667756
1.00924
0.0658798
1.01013
0.0645832
1.01124
0.0630175
1.01257
0.0612801
1.01413
0.0594509
1.01594
0.0575952
1.018
0.0557604
1.02029
0.0539794
1.02283
0.0522636
1.0256
0.0507434
1.0286
0.0496765
1.03183
0.0482896
1.03527
0.0470339
1.03893
0.0465974
1.0428
0.0459288
1.04686
0.0452427
0.0449888
1.05112
0.529153
-1.31821
-0.401516
0.63787
-1.12479
0.729205
-0.938289
0.804742
-0.775312
0.866442
-0.628724
0.916203
-0.501685
0.95583
-0.39319
0.986982
-0.301537
1.01114
-0.224653
1.02962
-0.160838
1.04356
-0.107441
1.05388
-0.0651849
1.06134
-0.0329234
1.06663
-0.00768722
1.07032
0.0128073
1.07289
0.0285554
1.07472
0.0405555
1.07613
0.0495532
1.07738
0.0561795
1.07867
0.0609414
1.08019
0.0642537
1.08045
0.066483
1.08076
0.066824
1.08118
0.0663577
1.08176
0.0652976
1.08254
0.0637988
1.08356
0.0620037
1.08482
0.0600186
1.08634
0.0579303
1.08813
0.0558093
1.09018
0.0537075
1.0925
0.0516607
1.09508
0.049683
1.09792
0.0479043
1.10102
0.0465784
1.10436
0.0449489
1.10793
0.043458
1.11175
0.0427802
1.11579
0.0418853
1.12005
0.0409829
0.0405139
1.12453
0.565046
-1.45618
-0.427073
0.682599
-1.24234
0.781375
-1.03707
0.863088
-0.857026
0.929854
-0.69549
0.983718
-0.555549
1.02663
-0.436097
1.06036
-0.335274
1.08653
-0.250819
1.10653
-0.18084
1.12161
-0.122516
1.13275
-0.0763246
1.14077
-0.0409482
1.14641
-0.013329
1.15031
0.00891418
1.15295
0.0259092
1.15477
0.0387384
1.1561
0.0482218
1.15723
0.0550523
1.15838
0.0597888
1.15974
0.0628891
1.15983
0.0663987
1.15996
0.0666963
1.1602
0.0661112
1.16062
0.0648753
1.16126
0.0631589
1.16215
0.0611163
1.16331
0.0588632
1.16474
0.0564943
1.16647
0.0540856
1.16848
0.0516937
1.17078
0.049358
1.17337
0.0470955
1.17624
0.0450354
1.17939
0.0434275
1.18281
0.0415338
1.18648
0.0397868
1.19041
0.0388464
1.19459
0.0377054
1.19901
0.0365683
0.035866
1.20365
0.603957
-1.60539
-0.454749
0.731119
-1.3695
0.837993
-1.14394
0.926436
-0.945468
0.998727
-0.767781
1.05707
-0.613894
1.10357
-0.482593
1.14014
-0.371845
1.16851
-0.279189
1.19019
-0.202525
1.20652
-0.138847
1.21857
-0.0883716
1.22722
-0.0495988
1.23326
-0.0193715
1.23738
0.0047963
1.24012
0.0231738
1.24192
0.0369342
1.24317
0.0469775
1.24416
0.0540631
1.24514
0.0588058
1.24632
0.0617097
1.24619
0.0665248
1.24611
0.0667817
1.24614
0.0660735
1.24637
0.0646518
1.24682
0.0627039
1.24754
0.0603967
1.24855
0.0578566
1.24986
0.055186
1.25147
0.0524678
1.25341
0.0497633
1.25565
0.047116
1.2582
0.0445461
1.26105
0.0421821
1.26421
0.0402695
1.26765
0.0380905
1.27137
0.036067
1.27537
0.0348431
1.27964
0.0334368
1.28416
0.032047
0.0310939
1.28894
0.646106
-1.76682
-0.484678
0.783723
-1.50712
0.899417
-1.25963
0.995195
-1.04125
1.07352
-0.846102
1.13676
-0.677137
1.18718
-0.533016
1.22686
-0.411524
1.25765
-0.309982
1.28119
-0.226063
1.29891
-0.156566
1.31197
-0.101426
1.32131
-0.0589468
1.3278
-0.0258629
1.33218
0.000424739
1.33501
0.0203365
1.3368
0.0351438
1.33795
0.0458327
1.33878
0.0532344
1.33956
0.0580235
1.34052
0.0607539
1.34014
0.0668974
1.3398
0.0671198
1.33959
0.0662868
1.33957
0.0646719
1.33979
0.0624803
1.3403
0.0598929
1.34111
0.0570474
1.34224
0.0540554
1.3437
0.0510064
1.3455
0.0479676
1.34763
0.0449865
1.35008
0.0420871
1.35287
0.0393974
1.35598
0.0371579
1.3594
0.034673
1.36311
0.0323533
1.36713
0.0308255
1.37143
0.0291352
1.376
0.0274753
0.0262542
1.38084
0.691733
-1.94154
-0.517005
0.840734
-1.65612
0.96604
-1.38494
1.06982
-1.14503
1.15473
-0.931008
1.22332
-0.745735
1.27805
-0.587742
1.32114
-0.454614
1.3546
-0.343439
1.38018
-0.251646
1.39943
-0.17582
1.4136
-0.115596
1.42373
-0.0690709
1.43072
-0.0328561
1.43538
-0.00423173
1.43833
0.0173844
1.4401
0.0333699
1.44113
0.0448035
1.44177
0.0525935
1.44232
0.0574792
1.443
0.060068
1.44234
0.0675586
1.44171
0.0677566
1.44119
0.0668004
1.44088
0.0649873
1.44081
0.062542
1.44105
0.0596604
1.4416
0.0564928
1.4425
0.0531605
1.44374
0.0497608
1.44534
0.0463667
1.4473
0.0430306
1.44961
0.0397805
1.45226
0.0367437
1.45526
0.034156
1.45859
0.0313452
1.46223
0.0287101
1.4662
0.0268583
1.47047
0.0248657
1.47502
0.0229189
0.0214131
1.47987
0.741101
-2.13076
-0.551891
0.902509
-1.81753
1.0383
-1.52073
1.15081
-1.25754
1.24292
-1.02311
1.31738
-0.820195
1.37682
-0.647183
1.42365
-0.501448
1.46004
-0.379827
1.48788
-0.279482
1.50883
-0.196769
1.52424
-0.131005
1.53522
-0.0800584
1.54278
-0.040409
1.54775
-0.00920665
1.55083
0.0143048
1.55258
0.0316176
1.55348
0.04391
1.5539
0.0521737
1.55416
0.0572178
1.55452
0.0597073
1.55352
0.0685579
1.55253
0.068746
1.55166
0.0676721
1.55099
0.0656588
1.55058
0.0629521
1.55047
0.0597647
1.55071
0.0562601
1.5513
0.0525703
1.55226
0.0488011
1.55359
0.0450319
1.5553
0.0413205
1.55738
0.0376993
1.55983
0.0342952
1.56265
0.0313384
1.56581
0.0281824
1.56931
0.0252133
1.57315
0.0230183
1.57731
0.0207057
1.58177
0.0184555
0.0166488
1.58654
0.794503
-2.33575
-0.589507
0.96944
-1.99246
1.11667
-1.66796
1.23873
-1.3796
1.33871
-1.12309
1.41959
-0.901075
1.4842
-0.711798
1.53515
-0.552397
1.57477
-0.419442
1.60509
-0.309806
1.62792
-0.219596
1.6447
-0.147787
1.65665
-0.0920055
1.66482
-0.0485853
1.67015
-0.014536
1.67337
0.0110853
1.6751
0.0298944
1.67583
0.0431773
1.67599
0.0520156
1.67591
0.0572934
1.67588
0.0597382
1.67448
0.0699536
1.67308
0.0701518
1.67178
0.0689698
1.67068
0.066758
1.66985
0.0637856
1.66933
0.060283
1.66916
0.0564286
1.66937
0.052366
1.66996
0.04821
1.67094
0.0440475
1.67232
0.0399418
1.67409
0.0359303
1.67624
0.0321393
1.67879
0.0287936
1.6817
0.0252741
1.68496
0.0219531
1.68858
0.0193964
1.69254
0.0167468
1.69682
0.0141773
0.0120541
1.70141
0.852256
-2.55797
-0.630042
1.04196
-2.18217
1.20169
-1.82768
1.33418
-1.5121
1.44278
-1.23169
1.5307
-0.988993
1.60099
-0.782093
1.65647
-0.607874
1.69964
-0.462614
1.73271
-0.342877
1.75761
-0.244499
1.77592
-0.166093
1.78893
-0.105019
1.7978
-0.057455
1.80353
-0.0202588
1.8069
0.0077137
1.80858
0.0282114
1.80912
0.0426368
1.80897
0.0521682
1.80849
0.0577713
1.80799
0.0602404
1.80613
0.0718146
1.80423
0.0720488
1.80243
0.0707736
1.80082
0.0683694
1.79947
0.0651303
1.79845
0.0613064
1.79778
0.0570921
1.79751
0.0526436
1.79763
0.0480857
1.79816
0.0435132
1.79911
0.0389959
1.80046
0.0345762
1.80222
0.0303803
1.80439
0.0266269
1.80694
0.0227265
1.80985
0.019037
1.81315
0.0161006
1.8168
0.0130979
1.82078
0.0101942
0.0077396
1.8251
0.914706
-2.79897
-0.673696
1.12054
-2.388
1.29393
-2.00107
1.43785
-1.65602
1.55589
-1.34973
1.65153
-1.08463
1.72807
-0.85863
1.78853
-0.668333
1.83562
-0.509709
1.87173
-0.378982
1.89893
-0.271703
1.91893
-0.186088
1.93313
-0.119218
1.94277
-0.0670957
1.94892
-0.0264169
1.95246
0.00417849
1.95409
0.0265838
1.9544
0.0423269
1.95387
0.0526909
1.95292
0.0587292
1.95185
0.061309
1.94944
0.0742221
1.94696
0.0745256
1.94456
0.073178
1.94234
0.0705925
1.94038
0.0670903
1.93874
0.0629427
1.93747
0.0583615
1.9366
0.0535169
1.93614
0.0485444
1.9361
0.0435476
1.9365
0.038603
1.93731
0.0337591
1.93855
0.0291417
1.94022
0.0249632
1.94228
0.020666
1.94472
0.0165924
1.94756
0.0132596
1.95077
0.00988867
1.95433
0.0066368
0.00383689
1.95823
0.982234
-3.06052
-0.720688
1.2057
-2.61147
1.39404
-2.18942
1.55047
-1.81245
1.67887
-1.47813
1.783
-1.18876
1.8664
-0.942033
1.93235
-0.734283
1.98378
-0.561134
2.02324
-0.418446
2.05299
-0.301456
2.07486
-0.207961
2.09038
-0.134734
2.10088
-0.0775928