# Wall shear stress
# Time       	patch        	min          	max          
0.000000e+00	walls	(-8.868020e-01 -1.004314e-01 -1.933779e-19)	(-5.627467e-01 1.178248e-01 4.192558e-19)
5.000000e+01	walls	(-4.775211e+01 -2.263013e+01 -1.840222e-16)	(-7.485614e-01 2.956523e+01 1.254765e-16)
1.000000e+02	walls	(-5.003935e+01 -2.434080e+01 -2.184694e-16)	(-5.483834e-01 2.619408e+01 1.558498e-16)
1.500000e+02	walls	(-5.058909e+01 -2.472581e+01 -2.260648e-16)	(-5.267833e-01 2.551040e+01 1.627255e-16)
2.000000e+02	walls	(-5.078080e+01 -2.486699e+01 -2.282500e-16)	(-5.233153e-01 2.525418e+01 1.646457e-16)
2.500000e+02	walls	(-5.082943e+01 -2.490178e+01 -2.288293e-16)	(-5.229610e-01 2.519147e+01 1.651629e-16)
3.000000e+02	walls	(-5.084492e+01 -2.491312e+01 -2.290061e-16)	(-5.228690e-01 2.517097e+01 1.653180e-16)
3.050000e+02	walls	(-5.084552e+01 -2.491365e+01 -2.290122e-16)	(-5.228659e-01 2.517010e+01 1.653252e-16)
