/*--------------------------------*- C++ -*----------------------------------*\
| =========                 |                                                 |
| \\      /  F ield         | OpenFOAM: The Open Source CFD Toolbox           |
|  \\    /   O peration     | Version:  5.x                                   |
|   \\  /    A nd           | Web:      www.OpenFOAM.org                      |
|    \\/     M anipulation  |                                                 |
\*---------------------------------------------------------------------------*/
FoamFile
{
    version     2.0;
    format      ascii;
    class       volScalarField;
    location    "1050";
    object      nut;
}
// * * * * * * * * * * * * * * * * * * * * * * * * * * * * * * * * * * * * * //

dimensions      [0 2 -1 0 0 0 0];

internalField   nonuniform List<scalar> 
41860
(
5.32597e-06
8.26527e-06
1.75872e-05
2.05972e-05
1.62958e-05
1.27842e-05
8.66556e-06
5.88988e-06
4.11843e-06
2.95017e-06
2.12599e-06
1.64581e-06
1.21176e-06
1.04589e-06
8.03812e-07
7.38409e-07
6.35027e-07
5.6906e-07
5.2939e-07
9.08342e-07
9.98939e-07
5.51728e-07
1.2447e-06
5.42942e-07
1.33852e-06
5.29639e-07
5.192e-07
1.35825e-06
5.05444e-07
5.00106e-07
4.93478e-07
1.33199e-06
1.31774e-06
4.78048e-07
1.28233e-06
4.71674e-07
1.23908e-06
1.21709e-06
1.18176e-06
4.68115e-07
1.09578e-06
1.03751e-06
4.2037e-07
4.20528e-07
1.21389e-06
4.16692e-07
4.15175e-07
4.13427e-07
4.12169e-07
4.11088e-07
4.10266e-07
4.09707e-07
4.09328e-07
4.09173e-07
4.09251e-07
1.15839e-06
1.15432e-06
4.09721e-07
1.14459e-06
4.10885e-07
4.12572e-07
4.12547e-07
1.12483e-06
4.12981e-07
1.1116e-06
4.12657e-07
1.09652e-06
1.08622e-06
4.08563e-07
4.08577e-07
1.05287e-06
4.01239e-07
3.98545e-07
1.00671e-06
9.90593e-07
3.79001e-07
9.40948e-07
9.1275e-07
8.84758e-07
3.2501e-07
8.38488e-07
4.30707e-08
0.000181264
0.000216936
0.000282904
0.000300117
0.000276516
0.000254714
0.000224052
0.000197675
0.000175968
0.000157582
0.000140936
0.000128767
0.000115013
0.000108712
9.78216e-05
9.44262e-05
8.79453e-05
8.30045e-05
7.95585e-05
7.29907e-05
7.12581e-05
6.67898e-05
6.46467e-05
6.25584e-05
6.0225e-05
5.94233e-05
5.71511e-05
5.69339e-05
5.53676e-05
5.49291e-05
5.42417e-05
5.41097e-05
5.39708e-05
5.33824e-05
5.4018e-05
5.37255e-05
5.47928e-05
5.52147e-05
5.64325e-05
5.73132e-05
5.90844e-05
6.07108e-05
4.73286e-05
4.72236e-05
4.77438e-05
4.69391e-05
4.68941e-05
4.67945e-05
4.67949e-05
4.68115e-05
4.68723e-05
4.6969e-05
4.70912e-05
4.72459e-05
4.74475e-05
4.81856e-05
4.84734e-05
4.80595e-05
4.89871e-05
4.85778e-05
4.90596e-05
4.91798e-05
5.01339e-05
4.97375e-05
5.05969e-05
5.02669e-05
5.08998e-05
5.1183e-05
5.0561e-05
5.11703e-05
5.13065e-05
5.07909e-05
5.10777e-05
5.10823e-05
5.06556e-05
4.99023e-05
5.00258e-05
4.91075e-05
4.80837e-05
4.60076e-05
4.66473e-05
9.13103e-08
0.000233979
0.000273754
0.000360366
0.00038449
0.000355229
0.000327623
0.000288858
0.000255762
0.000228908
0.000206671
0.000187453
0.000173368
0.000160249
0.000153292
0.000147744
0.000145721
0.000144673
0.000144096
0.000143424
0.000143011
0.000141953
0.000143552
0.000140865
0.000142022
0.000139455
0.000140119
0.000139542
0.000136241
0.000137161
0.000135825
0.000134636
0.000131719
0.000130517
0.000131047
0.000128362
0.000128947
0.000126595
0.000125885
0.000125403
0.00012636
0.000124992
0.000125101
0.000123496
0.000123079
0.000121337
0.000122265
0.000121878
0.000121519
0.000121199
0.000120919
0.000120678
0.000120478
0.000120314
0.000120186
0.000120098
0.000118784
0.00011878
0.000119976
0.000118829
0.000120043
0.000120193
0.000120213
0.000119157
0.000120336
0.000119245
0.000120413
0.000119227
0.000119256
0.000120201
0.000120335
0.000118868
0.000119723
0.000119586
0.000117948
0.000117337
0.000117752
0.000115965
0.000114712
0.000113338
0.00011193
0.00011103
1.92568e-07
0.000324461
0.000368509
0.000434704
0.000472247
0.000462255
0.000431862
0.000404155
0.000381405
0.00036117
0.000342518
0.000326192
0.000305815
0.000293335
0.00027477
0.000271772
0.000265351
0.000264138
0.000261941
0.000259002
0.000257359
0.000253751
0.000253131
0.000248783
0.000247499
0.000243663
0.000241988
0.000239876
0.000235456
0.000234485
0.000231744
0.000229272
0.000225571
0.000223184
0.000222206
0.000218863
0.00021808
0.000215152
0.00021356
0.000212185
0.000211953
0.000210101
0.000209443
0.000207765
0.000206639
0.000204758
0.000204951
0.000204155
0.000203418
0.000202743
0.000202136
0.000201593
0.000201113
0.00020069
0.000200328
0.00020002
0.000198802
0.000198617
0.000199347
0.000198347
0.00019912
0.000199142
0.000199052
0.000198195
0.000198946
0.000198055
0.000198787
0.000197793
0.000197696
0.00019819
0.000198168
0.000196857
0.00019722
0.000196879
0.000195306
0.000194415
0.000194234
0.000192343
0.000190616
0.000188718
0.000186301
0.000185047
4.03582e-07
0.00045147
0.000546992
0.000642375
0.000697031
0.000718288
0.000678784
0.000654031
0.000628383
0.000600059
0.000570519
0.00054263
0.000507653
0.000483925
0.000449992
0.000436663
0.00042092
0.000414541
0.000407778
0.000400739
0.000395969
0.000388859
0.000384699
0.000378113
0.000373432
0.000367916
0.000363082
0.000358867
0.000353097
0.000349511
0.000344932
0.00034078
0.000336177
0.000332271
0.000329221
0.00032519
0.000322551
0.00031907
0.00031641
0.000314021
0.000312333
0.000310132
0.000308746
0.000305699
0.000303536
0.000301598
0.000300673
0.000299342
0.000298108
0.000296974
0.000295944
0.000295013
0.000294175
0.000293426
0.000292767
0.000292188
0.000291228
0.000290818
0.000290837
0.000290154
0.000290258
0.000290138
0.000289913
0.000289425
0.000289558
0.000289022
0.000289139
0.000288477
0.000288239
0.00028809
0.00028792
0.000286872
0.000286553
0.00028599
0.000284575
0.00028334
0.000282344
0.000280436
0.000278135
0.000275579
0.000271835
0.000269976
8.37978e-07
0.000618016
0.000788176
0.000991537
0.0010785
0.00111196
0.00104945
0.00100595
0.000960783
0.000912413
0.000863102
0.000816317
0.000762435
0.000722341
0.000671458
0.000644081
0.00061602
0.000601592
0.000588183
0.000575454
0.000565818
0.000554043
0.000545456
0.000535294
0.000526719
0.000518299
0.000510006
0.000502978
0.000494926
0.000488499
0.000481594
0.000475289
0.000469027
0.000463227
0.000458057
0.000452728
0.000448232
0.00044368
0.000439723
0.000436157
0.000433115
0.000430213
0.000428061
0.00042297
0.000419362
0.000416909
0.000414952
0.000412943
0.000411077
0.000409362
0.000407797
0.000406379
0.000405094
0.000403937
0.000402907
0.000401994
0.000401001
0.000400319
0.00039981
0.000399179
0.000398806
0.000398522
0.000398132
0.000397775
0.000397493
0.000397073
0.000396779
0.000396206
0.000395814
0.000395206
0.000394883
0.000393847
0.000393019
0.00039221
0.000390694
0.000389052
0.000387377
0.000385187
0.000382217
0.00037887
0.000373882
0.000370609
1.71554e-06
0.000847937
0.00108522
0.00143652
0.00156624
0.00159597
0.00150374
0.00143238
0.00136174
0.00128909
0.00121654
0.00114762
0.00107237
0.00101298
0.000943341
0.000899557
0.000856697
0.000831554
0.000809419
0.000789314
0.000773189
0.00075546
0.000741443
0.000726422
0.00071324
0.000700778
0.000688508
0.000677912
0.000666664
0.00065702
0.000647212
0.000638223
0.000629585
0.000621445
0.000613955
0.000606747
0.000600247
0.000594122
0.000588588
0.000583614
0.00057918
0.000575234
0.000572229
0.000564627
0.000559096
0.000555683
0.00055269
0.000549833
0.000547181
0.000544744
0.000542516
0.000540495
0.000538655
0.000536997
0.00053551
0.000534187
0.000532924
0.000531911
0.000530981
0.000530196
0.000529461
0.000528978
0.000528391
0.000527987
0.000527425
0.000526947
0.000526376
0.000525716
0.000525155
0.000524208
0.000523714
0.000522518
0.00052129
0.000520206
0.000518409
0.000516303
0.000514029
0.000511357
0.000507641
0.000503378
0.000497254
0.000491588
3.43755e-06
0.0011833
0.00144451
0.00196381
0.0021429
0.00216181
0.00203594
0.00193269
0.00183395
0.00173497
0.00163719
0.00154397
0.00144536
0.00136432
0.00127398
0.00121162
0.00115161
0.00111304
0.00107987
0.00105045
0.00102607
0.00100086
0.000980128
0.0009589
0.000940093
0.000922454
0.000905371
0.000890339
0.000874988
0.000861488
0.000848095
0.000835787
0.000824086
0.000813065
0.000802847
0.000793207
0.00078437
0.000776201
0.000768744
0.000762057
0.000756032
0.000750732
0.000746735
0.0007362
0.000728184
0.000723391
0.000719211
0.000715308
0.000711683
0.000708358
0.000705314
0.000702551
0.000700033
0.000697759
0.000695711
0.000693887
0.000692196
0.00069078
0.000689437
0.000688367
0.000687293
0.000686567
0.000685744
0.000685198
0.000684401
0.000683774
0.000682975
0.000682138
0.000681392
0.000680146
0.000679461
0.000678022
0.000676424
0.000675037
0.000672865
0.000670248
0.000667382
0.00066411
0.000659587
0.000654289
0.000647143
0.000637921
6.67094e-06
0.0016311
0.00188207
0.0025787
0.00281265
0.00281641
0.0026534
0.0025155
0.00238695
0.0022602
0.00213564
0.00201635
0.00189247
0.00178763
0.00167449
0.00159133
0.00151178
0.00145694
0.00141012
0.00136906
0.00133439
0.00129986
0.00127079
0.0012418
0.00121604
0.00119193
0.00116892
0.0011484
0.00112793
0.00110971
0.00109189
0.00107549
0.00105997
0.0010454
0.00103187
0.0010192
0.00100753
0.000996809
0.000986996
0.000978203
0.000970269
0.000963274
0.00095809
0.000944234
0.000933085
0.000926442
0.000920811
0.000915613
0.000910793
0.000906376
0.000902331
0.000898658
0.000895308
0.00089228
0.000889548
0.000887111
0.000884867
0.000882958
0.00088115
0.0008797
0.000878249
0.000877226
0.000876124
0.000875379
0.000874349
0.000873525
0.000872501
0.000871441
0.000870493
0.000868951
0.000868054
0.00086634
0.000864365
0.000862649
0.000860061
0.000856893
0.000853412
0.000849469
0.000844099
0.000837651
0.000829655
0.000815457
1.23673e-05
0.00221224
0.00242544
0.00329408
0.00358779
0.00357265
0.00336872
0.0031937
0.00303392
0.00287823
0.00272557
0.00257858
0.00242757
0.00229683
0.00215867
0.00205238
0.00195077
0.00187666
0.00181324
0.00175781
0.00171041
0.0016643
0.0016249
0.00158631
0.00155191
0.00151979
0.00148943
0.00146213
0.00143529
0.00141125
0.00138797
0.00136651
0.00134627
0.00132733
0.00130973
0.00129331
0.00127817
0.00126429
0.00125158
0.00124018
0.0012299
0.0012208
0.00121417
0.00119664
0.00118162
0.00117255
0.0011651
0.0011583
0.00115201
0.00114625
0.00114097
0.00113619
0.00113182
0.00112787
0.0011243
0.00112111
0.00111818
0.00111567
0.00111331
0.00111139
0.0011095
0.00110811
0.00110667
0.00110568
0.0011044
0.00110335
0.00110209
0.00110078
0.00109961
0.00109777
0.00109664
0.00109464
0.00109228
0.00109021
0.0010872
0.00108345
0.00107933
0.00107468
0.00106844
0.00106074
0.00105217
0.00103131
2.15818e-05
0.00295852
0.00311295
0.00412766
0.00448515
0.00444705
0.00419793
0.00398329
0.00379101
0.00360544
0.00342356
0.00324742
0.00306749
0.00290879
0.00274331
0.00261141
0.00248509
0.00238856
0.00230527
0.00223229
0.00216928
0.00210885
0.00205668
0.00200618
0.00196105
0.00191902
0.00187953
0.00184384
0.00180913
0.00177788
0.00174784
0.00172013
0.00169406
0.00166971
0.00164709
0.00162602
0.0016066
0.0015888
0.00157252
0.00155789
0.00154472
0.001533
0.00152455
0.00150305
0.00148333
0.00147111
0.00146135
0.00145256
0.00144445
0.00143704
0.00143025
0.00142409
0.00141847
0.00141339
0.0014088
0.00140469
0.00140093
0.00139768
0.00139466
0.00139215
0.00138973
0.00138789
0.00138606
0.00138477
0.00138322
0.00138191
0.0013804
0.00137882
0.00137743
0.00137528
0.0013739
0.00137163
0.00136888
0.00136645
0.00136301
0.00135869
0.00135392
0.00134853
0.00134147
0.00133242
0.00132369
0.00129429
3.50421e-05
0.00391056
0.00398127
0.00510139
0.00552542
0.00545935
0.00516017
0.00490334
0.00467745
0.00446135
0.00424942
0.00404292
0.00383242
0.00364381
0.00344866
0.0032886
0.00313471
0.00301247
0.00290573
0.00281156
0.00272955
0.00265154
0.00258361
0.00251842
0.00245997
0.00240566
0.00235483
0.00230875
0.00226428
0.00222408
0.00218566
0.0021502
0.00211692
0.00208586
0.00205703
0.00203021
0.00200548
0.00198282
0.00196209
0.00194344
0.00192667
0.00191166
0.00190091
0.00187518
0.00184988
0.0018336
0.0018209
0.00180961
0.00179925
0.00178979
0.00178114
0.0017733
0.00176614
0.00175967
0.00175382
0.00174859
0.00174381
0.00173966
0.00173582
0.00173259
0.00172955
0.00172715
0.00172485
0.0017232
0.00172134
0.00171974
0.00171798
0.00171612
0.00171449
0.00171205
0.00171041
0.00170789
0.00170477
0.00170198
0.00169816
0.00169329
0.00168789
0.00168179
0.00167396
0.00166352
0.0016552
0.00161549
5.27477e-05
0.00511863
0.00506669
0.00624164
0.0067334
0.00663278
0.0062779
0.00597623
0.0057159
0.00546901
0.00522661
0.00498891
0.00474647
0.00452618
0.00429902
0.00410816
0.00392369
0.00377227
0.00363827
0.00351885
0.00341393
0.00331448
0.00322721
0.00314393
0.00306899
0.00299949
0.00293455
0.00287559
0.00281899
0.00276768
0.00271886
0.00267378
0.00263153
0.00259214
0.0025556
0.00252162
0.00249031
0.00246158
0.00243533
0.00241164
0.00239037
0.00237124
0.00235753
0.0023273
0.00229549
0.00227407
0.00225759
0.00224317
0.00223002
0.00221803
0.00220707
0.00219714
0.00218809
0.00217991
0.00217251
0.00216589
0.00215986
0.0021546
0.00214977
0.00214567
0.00214185
0.00213878
0.00213591
0.00213382
0.00213162
0.0021297
0.00212767
0.00212553
0.00212367
0.00212096
0.00211906
0.00211634
0.0021129
0.00210979
0.00210564
0.0021003
0.00209434
0.00208757
0.00207913
0.00206728
0.00206009
0.00200894
7.405e-05
0.00664406
0.00641692
0.00757956
0.00813838
0.00799442
0.00757729
0.00722811
0.00693289
0.00665552
0.00638281
0.0061136
0.00583824
0.0055848
0.00532337
0.00509905
0.00488083
0.00469661
0.00453129
0.0043822
0.00424999
0.00412466
0.0040138
0.00390838
0.00381306
0.0037248
0.00364237
0.00356742
0.00349576
0.00343062
0.00336888
0.00331181
0.00325842
0.00320866
0.00316252
0.00311962
0.0030801
0.00304378
0.00301064
0.00298064
0.00295371
0.00292938
0.00291183
0.00287684
0.00283759
0.00280971
0.00278841
0.00277003
0.00275338
0.00273825
0.00272443
0.00271192
0.00270052
0.00269022
0.00268091
0.00267258
0.00266502
0.00265838
0.00265234
0.00264715
0.00264241
0.00263851
0.00263494
0.00263231
0.00262972
0.00262746
0.00262514
0.00262273
0.00262066
0.00261773
0.00261559
0.00261275
0.00260906
0.00260569
0.00260133
0.00259564
0.00258924
0.00258192
0.00257309
0.00255987
0.00255468
0.00249256
9.81817e-05
0.00856114
0.00809375
0.00915248
0.00977264
0.00957512
0.00908831
0.008689
0.00835901
0.00805231
0.0077503
0.00745003
0.00714134
0.00685372
0.00655598
0.0062956
0.00604035
0.00581956
0.00561868
0.00543522
0.00527089
0.0051147
0.00497534
0.00484304
0.00472272
0.00461137
0.00450729
0.00441253
0.00432222
0.00423985
0.00416205
0.00409004
0.00402278
0.00396008
0.00390197
0.00384793
0.00379816
0.00375235
0.00371055
0.00367261
0.00363856
0.00360767
0.00358508
0.00354499
0.00349739
0.00346156
0.00343411
0.00341072
0.00338969
0.00337064
0.00335326
0.00333754
0.00332322
0.0033103
0.00329861
0.00328816
0.0032787
0.00327035
0.00326283
0.00325631
0.00325042
0.00324549
0.00324107
0.00323777
0.00323473
0.00323208
0.00322949
0.00322682
0.00322456
0.00322149
0.00321916
0.00321629
0.00321249
0.00320897
0.00320456
0.00319871
0.00319206
0.00318439
0.00317549
0.00316104
0.00315877
0.00308901
0.000124709
0.0109593
0.0101744
0.0110064
0.0116618
0.011403
0.0108405
0.0103896
0.0100269
0.00969395
0.0093653
0.0090357
0.00869429
0.00837219
0.00803657
0.00773775
0.00744226
0.00718107
0.00694032
0.00671758
0.00651605
0.00632359
0.00615024
0.00598562
0.00583492
0.00569536
0.00556467
0.00544545
0.00533207
0.00522834
0.00513059
0.00503998
0.00495544
0.0048766
0.00480356
0.00473559
0.00467299
0.00461527
0.00456261
0.00451466
0.00447161
0.0044324
0.0044032
0.00435749
0.00430071
0.00425528
0.00422004
0.00419029
0.00416377
0.0041398
0.00411798
0.00409825
0.00408031
0.00406411
0.00404948
0.00403638
0.00402457
0.00401411
0.00400474
0.00399656
0.00398927
0.00398307
0.0039776
0.00397346
0.00396988
0.00396679
0.00396391
0.00396101
0.0039586
0.00395549
0.00395306
0.00395029
0.00394656
0.00394305
0.00393881
0.00393308
0.00392648
0.00391872
0.0039102
0.00389475
0.00389631
0.00382571
0.00015361
0.0139459
0.0127537
0.013199
0.013811
0.013475
0.0128383
0.0123418
0.0119571
0.0116087
0.0112617
0.0109085
0.0105377
0.0101828
0.00980907
0.00947031
0.00913192
0.00882679
0.00854206
0.00827521
0.00803134
0.00779702
0.0075838
0.00738092
0.00719378
0.00702012
0.00685702
0.00670784
0.00656614
0.00643601
0.00631357
0.00619989
0.00609387
0.00599495
0.00590328
0.00581791
0.00573928
0.00566662
0.0056003
0.00553974
0.0054853
0.00543556
0.00539766
0.00534553
0.0052788
0.00522202
0.00517705
0.00513926
0.0051058
0.00507568
0.00504831
0.00502357
0.0050011
0.00498082
0.0049625
0.0049461
0.00493135
0.00491826
0.0049066
0.00489635
0.00488732
0.00487956
0.00487277
0.00486757
0.0048633
0.0048597
0.00485652
0.00485343
0.00485094
0.0048479
0.00484548
0.00484299
0.00483958
0.00483632
0.00483253
0.00482728
0.00482113
0.00481366
0.00480608
0.00478997
0.00479623
0.00473146
0.000651094
0.0176491
0.0159464
0.0158017
0.0162156
0.0157503
0.0150392
0.0145115
0.0141288
0.0137923
0.0134507
0.0130917
0.0127039
0.0123239
0.0119164
0.0115391
0.0111573
0.0108061
0.0104742
0.0101592
0.00986835
0.00958689
0.00932796
0.00908072
0.0088507
0.0086365
0.00843451
0.00824909
0.00807298
0.00791056
0.00775783
0.00761571
0.00748315
0.00735933
0.00724453
0.00713751
0.00703885
0.00694752
0.00686406
0.00678763
0.00671879
0.00665572
0.00660643
0.00654662
0.0064692
0.00639932
0.0063424
0.0062945
0.00625233
0.00621448
0.00618016
0.00614916
0.00612103
0.00609563
0.00607272
0.00605218
0.00603377
0.00601738
0.00600285
0.00599003
0.00597883
0.00596912
0.00596069
0.00595413
0.00594898
0.00594475
0.00594123
0.00593797
0.00593545
0.00593265
0.0059304
0.00592838
0.00592559
0.00592289
0.0059199
0.00591557
0.00591039
0.00590369
0.00589773
0.00588142
0.00589321
0.00583591
0.00203898
0.0222233
0.0198898
0.0189002
0.0188778
0.0181918
0.0173937
0.0168468
0.0164903
0.0161987
0.0158995
0.0155696
0.0151942
0.0148117
0.0143862
0.0139803
0.0135608
0.0131657
0.0127868
0.0124219
0.0120813
0.0117489
0.0114393
0.0111423
0.0108632
0.010602
0.0103544
0.010126
0.00990886
0.00970757
0.00951815
0.0093414
0.00917639
0.00902201
0.00887872
0.00874495
0.00862146
0.00850692
0.00840205
0.00830576
0.00821879
0.00813894
0.00807484
0.00800543
0.00791654
0.0078319
0.00776062
0.00770017
0.00764709
0.00759959
0.0075566
0.00751776
0.00748257
0.00745078
0.00742212
0.0073964
0.0073734
0.00735288
0.00733476
0.00731873
0.00730479
0.00729266
0.00728217
0.00727386
0.00726754
0.00726249
0.00725855
0.00725513
0.00725264
0.00725023
0.00724832
0.00724703
0.00724519
0.00724341
0.00724166
0.00723877
0.00723515
0.0072298
0.00722622
0.00721026
0.00722841
0.00717577
0.00405348
0.0278558
0.0247447
0.0225892
0.0218104
0.0207784
0.0198673
0.0193067
0.0189933
0.0187729
0.0185503
0.0182889
0.0179669
0.0176204
0.0172099
0.0168008
0.0163624
0.0159358
0.015518
0.0151076
0.0147193
0.0143358
0.0139738
0.0136237
0.0132912
0.0129778
0.0126786
0.0124008
0.012136
0.0118891
0.0116563
0.0114382
0.0112343
0.011043
0.0108651
0.0106987
0.0105448
0.0104018
0.0102705
0.0101495
0.0100399
0.00993911
0.00985604
0.00977428
0.00967295
0.00957206
0.00948397
0.00940823
0.00934167
0.00928219
0.00922843
0.00917986
0.00913588
0.00909613
0.0090603
0.00902812
0.00899938
0.0089737
0.00895108
0.00893102
0.00891367
0.00889852
0.00888544
0.00887487
0.00886697
0.00886083
0.00885628
0.00885264
0.00885021
0.00884833
0.00884697
0.00884663
0.00884611
0.00884567
0.00884562
0.00884473
0.00884333
0.00883995
0.00883954
0.00882446
0.00884976
0.00879784
0.00614255
0.0347667
0.0306928
0.0269541
0.0250303
0.0234982
0.0224358
0.0218616
0.0216019
0.0214703
0.0213487
0.0211874
0.0209571
0.0206885
0.0203355
0.0199629
0.0195403
0.0191105
0.0186755
0.0182356
0.0178115
0.0173851
0.0169753
0.0165744
0.0161884
0.015821
0.0154668
0.0151355
0.014818
0.0145197
0.0142374
0.0139717
0.0137224
0.0134878
0.0132689
0.0130637
0.0128734
0.0126959
0.0125325
0.0123815
0.0122442
0.0121175
0.0120106
0.0119128
0.0117977
0.0116793
0.0115722
0.0114783
0.0113954
0.0113212
0.0112543
0.0111937
0.0111389
0.0110893
0.0110447
0.0110045
0.0109686
0.0109365
0.0109083
0.0108832
0.0108616
0.0108427
0.0108264
0.0108129
0.0108029
0.0107952
0.0107898
0.0107858
0.0107833
0.0107821
0.0107814
0.0107822
0.0107834
0.0107847
0.0107868
0.0107884
0.0107899
0.0107891
0.0107925
0.0107787
0.0108118
0.0107536
0.00857082
0.0429852
0.0379061
0.0320239
0.0285417
0.0263383
0.0250762
0.0244856
0.024287
0.0242557
0.0242512
0.0242117
0.0241017
0.0239455
0.0236895
0.0233953
0.0230309
0.0226381
0.0222214
0.0217827
0.0213484
0.0208996
0.0204581
0.0200185
0.0195875
0.0191714
0.0187651
0.0183808
0.0180096
0.0176576
0.0173223
0.0170047
0.016705
0.0164218
0.0161564
0.0159067
0.0156741
0.0154565
0.0152553
0.0150687
0.0148981
0.0147404
0.0146044
0.0144861
0.0143554
0.0142185
0.0140905
0.013976
0.0138738
0.0137822
0.0136993
0.0136243
0.0135564
0.0134948
0.0134394
0.0133894
0.0133448
0.0133048
0.0132697
0.0132385
0.0132116
0.013188
0.0131677
0.0131506
0.0131377
0.0131279
0.0131212
0.0131165
0.0131139
0.0131132
0.0131133
0.0131155
0.0131185
0.0131218
0.0131264
0.0131311
0.0131359
0.013138
0.0131457
0.0131333
0.0131745
0.013102
0.0113943
0.0520046
0.0462747
0.0377039
0.0323062
0.0292696
0.0277564
0.0271468
0.0270165
0.0270947
0.0272183
0.0273151
0.027346
0.0273276
0.0271987
0.0270178
0.0267505
0.0264366
0.0260794
0.0256815
0.0252736
0.0248356
0.0243911
0.0239375
0.0234821
0.0230338
0.0225879
0.0221601
0.0217418
0.0213402
0.0209541
0.0205849
0.0202341
0.0199002
0.0195854
0.0192876
0.0190087
0.0187466
0.018503
0.0182761
0.0180673
0.0178739
0.0177036
0.0175602
0.0174116
0.0172556
0.0171059
0.0169687
0.0168449
0.0167331
0.0166318
0.0165399
0.0164565
0.0163809
0.0163126
0.0162509
0.0161959
0.0161465
0.0161031
0.0160644
0.0160311
0.016002
0.0159768
0.0159552
0.0159387
0.015926
0.0159173
0.0159115
0.0159084
0.0159081
0.0159088
0.0159123
0.0159172
0.0159228
0.0159301
0.0159378
0.0159461
0.0159513
0.0159633
0.0159516
0.0160004
0.0159068
0.0146528
0.0613823
0.0552669
0.0437224
0.0361865
0.0322213
0.0304235
0.0298012
0.0297485
0.0299451
0.0302048
0.030448
0.0306358
0.0307742
0.0307949
0.0307542
0.0306151
0.0304162
0.0301564
0.0298391
0.0294976
0.0291092
0.0286986
0.0282655
0.0278173
0.0273646
0.0269035
0.0264529
0.0260046
0.0255674
0.0251413
0.024729
0.0243331
0.0239527
0.023591
0.0232463
0.0229212
0.0226136
0.0223259
0.0220563
0.0218066
0.0215742
0.0213663
0.0211937
0.0210252
0.0208499
0.0206787
0.0205186
0.0203719
0.0202383
0.0201166
0.0200057
0.019905
0.0198134
0.0197306
0.0196555
0.0195885
0.0195282
0.0194752
0.0194279
0.0193871
0.0193515
0.0193206
0.0192937
0.0192727
0.0192563
0.0192449
0.0192373
0.0192332
0.0192329
0.019234
0.0192386
0.0192452
0.0192529
0.0192627
0.0192733
0.0192849
0.0192927
0.0193082
0.019296
0.0193506
0.0192312
0.0183716
0.0708203
0.0643659
0.0495362
0.0398344
0.0350319
0.0329864
0.0323879
0.0324278
0.0327526
0.0331531
0.0335491
0.0339074
0.0342176
0.0344055
0.0345259
0.0345403
0.0344868
0.034356
0.034155
0.0339169
0.0336155
0.0332766
0.0329019
0.0324981
0.0320759
0.0316327
0.0311896
0.0307385
0.0302897
0.0298448
0.0294076
0.0289819
0.0285678
0.0281697
0.0277864
0.0274216
0.0270736
0.0267454
0.0264355
0.0261461
0.0258754
0.0256296
0.0254261
0.0252368
0.0250431
0.0248524
0.024671
0.0245023
0.0243469
0.0242045
0.0240741
0.0239552
0.0238466
0.0237483
0.023659
0.023579
0.0235069
0.0234434
0.0233867
0.0233378
0.0232951
0.0232581
0.0232252
0.0231991
0.0231783
0.0231635
0.0231535
0.0231478
0.0231469
0.0231479
0.0231531
0.0231611
0.0231703
0.0231822
0.0231951
0.0232092
0.0232185
0.023236
0.0232211
0.0232784
0.0231314
0.0225648
0.0800387
0.0729366
0.0551194
0.043116
0.0376857
0.0354898
0.0349289
0.0350378
0.0354545
0.0359929
0.0365422
0.0370825
0.0375742
0.0379415
0.0382399
0.0384297
0.0385486
0.0385737
0.0385212
0.0384202
0.0382395
0.0380074
0.037728
0.0374057
0.0370504
0.0366615
0.0362612
0.0358406
0.0354117
0.0349772
0.0345418
0.0341105
0.0336844
0.0332691
0.0328641
0.0324742
0.0320984
0.0317403
0.0313991
0.0310775
0.0307744
0.0304956
0.030264
0.0300556
0.0298462
0.02964
0.0294417
0.0292548
0.0290806
0.0289196
0.0287712
0.0286354
0.0285107
0.0283976
0.0282944
0.0282019
0.0281182
0.0280445
0.0279785
0.0279216
0.0278719
0.0278289
0.0277902
0.0277589
0.0277334
0.0277149
0.0277021
0.0276943
0.0276925
0.027693
0.0276983
0.0277072
0.0277174
0.0277305
0.0277448
0.0277602
0.0277696
0.027787
0.0277669
0.0278225
0.0276488
0.0272505
0.0886933
0.0804841
0.061594
0.0473425
0.0408462
0.0384331
0.0378233
0.0379063
0.038317
0.0388896
0.0395043
0.0401417
0.040751
0.0412971
0.0417839
0.0421662
0.0424815
0.042684
0.042811
0.0428789
0.0428492
0.0427567
0.0426082
0.0424032
0.0421502
0.0418526
0.0415316
0.0411771
0.0408028
0.0404123
0.040011
0.0396044
0.0391947
0.0387886
0.0383863
0.0379936
0.03761
0.0372402
0.036884
0.0365447
0.0362219
0.0359213
0.0356698
0.0354479
0.0352288
0.0350136
0.0348055
0.0346073
0.0344206
0.0342467
0.0340849
0.0339362
0.0337991
0.0336742
0.0335599
0.0334572
0.033364
0.0332818
0.0332083
0.0331449
0.0330897
0.033042
0.0329987
0.0329633
0.0329339
0.0329122
0.0328969
0.0328873
0.0328846
0.0328845
0.03289
0.0328993
0.0329101
0.032924
0.0329389
0.0329544
0.0329624
0.0329777
0.0329502
0.0329992
0.0328028
0.0324589
0.0963441
0.0870091
0.0691072
0.0540472
0.0462225
0.043074
0.0419564
0.0417144
0.0418938
0.0423073
0.0428313
0.0434192
0.044025
0.0446177
0.045189
0.0456779
0.0461513
0.0465368
0.0468743
0.0471387
0.0472844
0.0473626
0.0473811
0.0473269
0.0472101
0.0470418
0.0468371
0.0465846
0.0463014
0.0459909
0.0456588
0.045311
0.0449507
0.0445851
0.0442153
0.0438478
0.0434829
0.043126
0.0427775
0.0424415
0.0421184
0.0418136
0.0415564
0.0413316
0.041112
0.0408976
0.0406895
0.0404902
0.0403007
0.0401227
0.0399559
0.0398017
0.0396587
0.0395281
0.0394081
0.0393002
0.0392021
0.0391157
0.0390385
0.0389721
0.0389145
0.0388652
0.0388202
0.0387832
0.0387523
0.0387295
0.0387133
0.0387033
0.0387009
0.0387013
0.0387076
0.0387182
0.03873
0.0387448
0.0387603
0.0387757
0.0387818
0.0387936
0.0387582
0.0387961
0.0385852
0.0382171
0.102522
0.093075
0.0774139
0.0629748
0.0544587
0.0501816
0.0480449
0.0470841
0.0467455
0.0467662
0.0470025
0.0473544
0.0477979
0.0482738
0.0487877
0.0492639
0.0497586
0.0502089
0.0506419
0.0510329
0.0513576
0.0516344
0.0518552
0.0519784
0.0520286
0.052029
0.0519767
0.0518617
0.0517071
0.0515147
0.0512892
0.0510368
0.0507621
0.0504723
0.0501691
0.0498594
0.0495446
0.0492303
0.0489179
0.0486118
0.0483135
0.0480281
0.0477849
0.0475726
0.0473663
0.0471653
0.0469703
0.0467827
0.0466029
0.0464331
0.0462727
0.0461237
0.0459849
0.0458579
0.0457408
0.0456357
0.04554
0.0454562
0.0453815
0.045318
0.0452635
0.0452177
0.0451759
0.0451421
0.0451139
0.0450939
0.0450806
0.0450734
0.0450742
0.0450776
0.0450873
0.0451012
0.045116
0.0451335
0.0451512
0.0451677
0.0451734
0.0451825
0.0451413
0.0451655
0.0449532
0.0445213
0.107138
0.0992785
0.0861872
0.0731101
0.0642012
0.0587101
0.0554631
0.0536775
0.0527337
0.0522783
0.0521263
0.0521353
0.0523047
0.0525414
0.0528699
0.0532112
0.0535948
0.0539836
0.0543844
0.0547826
0.055157
0.0555168
0.0558411
0.0561344
0.0563743
0.0565848
0.0567112
0.0567638
0.0567754
0.0567392
0.0566574
0.0565383
0.0563879
0.0562121
0.0560126
0.0557975
0.0555682
0.0553311
0.0550878
0.0548435
0.0546004
0.0543634
0.054159
0.0539794
0.0538045
0.0536339
0.0534678
0.0533076
0.0531532
0.0530065
0.0528671
0.0527372
0.0526157
0.0525047
0.0524022
0.0523108
0.052228
0.0521564
0.0520934
0.0520412
0.0519978
0.051963
0.0519317
0.0519081
0.0518895
0.0518786
0.0518739
0.0518752
0.0518843
0.0518958
0.0519133
0.0519348
0.0519568
0.051981
0.0520048
0.0520263
0.0520356
0.0520457
0.0520047
0.0520159
0.0518193
0.0513187
0.111532
0.105433
0.0949662
0.083299
0.0733373
0.0665116
0.0625851
0.0603251
0.0590108
0.0582246
0.057745
0.0574519
0.0573594
0.0573482
0.0574475
0.0575885
0.0577858
0.058025
0.0582951
0.0585967
0.0589069
0.0592348
0.0595582
0.059888
0.0602023
0.060509
0.0607887
0.061025
0.0612374
0.0613858
0.0614765
0.0615254
0.0615365
0.0615115
0.0614533
0.0613707
0.061265
0.0611423
0.0610049
0.0608583
0.0607054
0.0605506
0.0604145
0.0602922
0.0601713
0.060052
0.0599346
0.0598207
0.0597099
0.0596043
0.0595034
0.0594095
0.0593216
0.0592421
0.0591691
0.0591055
0.0590489
0.0590023
0.058963
0.0589335
0.0589119
0.0588982
0.0588874
0.0588835
0.0588837
0.0588909
0.0589035
0.0589214
0.0589466
0.0589736
0.0590063
0.0590425
0.0590786
0.0591163
0.0591529
0.0591863
0.0592067
0.059225
0.0591946
0.0591987
0.059037
0.0584908
0.116332
0.111627
0.103313
0.0932875
0.0837854
0.0761181
0.070396
0.0669546
0.0650222
0.0638595
0.0631628
0.0627298
0.0625092
0.0623411
0.0622499
0.0622031
0.062222
0.0622946
0.0623972
0.0625448
0.0627176
0.0629288
0.0631634
0.0634277
0.0637103
0.0640089
0.0643165
0.0646171
0.0649184
0.0652011
0.0654641
0.0657035
0.0659005
0.0660493
0.0661611
0.0662433
0.0662947
0.0663208
0.0663247
0.0663119
0.0662852
0.0662485
0.0662128
0.0661754
0.0661343
0.0660903
0.0660445
0.0659985
0.0659524
0.0659084
0.0658659
0.0658275
0.0657921
0.0657624
0.0657367
0.0657179
0.065704
0.0656978
0.0656971
0.0657045
0.0657182
0.0657386
0.0657609
0.0657889
0.0658199
0.0658568
0.0658981
0.0659436
0.0659955
0.0660486
0.0661065
0.0661673
0.0662276
0.0662888
0.0663484
0.066404
0.0664469
0.066485
0.0664796
0.0664895
0.0663824
0.0658376
0.120468
0.117181
0.110861
0.102876
0.0947762
0.0875454
0.0814464
0.0766602
0.073029
0.0705977
0.0691971
0.0683084
0.0677079
0.0672505
0.066972
0.0667991
0.0667248
0.0666676
0.0666104
0.066593
0.066604
0.0666604
0.0667557
0.0668916
0.0670648
0.0672685
0.0675033
0.0677586
0.0680387
0.0683327
0.0686401
0.0689522
0.0692633
0.0695627
0.0698488
0.0701064
0.0703259
0.0705174
0.0706849
0.0708312
0.0709582
0.0710692
0.0711617
0.071234
0.0712965
0.071351
0.0713991
0.0714429
0.071483
0.0715214
0.0715581
0.0715953
0.0716326
0.0716721
0.071713
0.0717575
0.0718043
0.071856
0.071911
0.0719714
0.072036
0.0721055
0.0721757
0.0722501
0.0723262
0.0724067
0.0724902
0.0725769
0.0726685
0.0727607
0.0728569
0.0729551
0.0730524
0.0731505
0.0732464
0.0733381
0.0734184
0.0734923
0.0735307
0.0735672
0.073534
0.0730556
0.123925
0.121716
0.117294
0.111472
0.10499
0.0985662
0.0928374
0.0880152
0.0840325
0.0807883
0.0782261
0.0760658
0.0743652
0.0731151
0.0723548