/*--------------------------------*- C++ -*----------------------------------*\
| =========                 |                                                 |
| \\      /  F ield         | OpenFOAM: The Open Source CFD Toolbox           |
|  \\    /   O peration     | Version:  5.x                                   |
|   \\  /    A nd           | Web:      www.OpenFOAM.org                      |
|    \\/     M anipulation  |                                                 |
\*---------------------------------------------------------------------------*/
FoamFile
{
    version     2.0;
    format      ascii;
    class       volScalarField;
    location    "1050";
    object      p;
}
// * * * * * * * * * * * * * * * * * * * * * * * * * * * * * * * * * * * * * //

dimensions      [0 2 -2 0 0 0 0];

internalField   nonuniform List<scalar> 
41860
(
0.0307471
51811.5
29351.2
92121.8
103102
113700
122123
128953
134849
139885
144262
148112
151605
154709
157597
160162
162594
164838
166935
168921
170771
172547
174225
175841
177388
178878
180319
181707
183065
184378
185672
186926
188168
189376
190580
191753
192923
194068
195213
196336
197464
198561
199577
200468
201352
202199
203040
203862
204664
205464
206235
207014
207762
208520
209250
209991
210708
211433
212141
212849
213548
214239
214939
215670
216396
217151
217906
218691
219484
220306
221159
222033
222955
223919
224929
225999
227160
228396
229804
231217
233298
234133
376.449
51825.2
29339
92066
103089
113688
122114
128945
134843
139879
144257
148109
151602
154706
157594
160160
162593
164836
166934
168920
170770
172546
174225
175840
177388
178877
180318
181707
183064
184378
185672
186925
188168
189376
190580
191752
192922
194068
195213
196336
197464
198561
199577
200468
201352
202199
203040
203862
204664
205464
206235
207014
207762
208520
209250
209991
210708
211433
212140
212849
213548
214239
214939
215670
216396
217151
217906
218691
219484
220306
221159
222033
222955
223919
224929
225999
227160
228396
229804
231217
233298
234131
945.685
51849.2
29334.6
91997.2
103073
113674
122102
128936
134835
139873
144252
148104
151598
154703
157591
160158
162590
164834
166932
168918
170768
172545
174223
175839
177387
178876
180317
181706
183064
184377
185671
186925
188168
189376
190579
191752
192922
194068
195213
196336
197464
198561
199577
200468
201352
202199
203040
203862
204664
205463
206235
207014
207762
208519
209250
209991
210708
211433
212140
212849
213548
214239
214939
215670
216396
217151
217906
218691
219484
220306
221159
222033
222955
223919
224929
225999
227160
228396
229804
231217
233298
234127
1646.43
51885.3
29339.1
91925
103057
113659
122090
128926
134827
139867
144247
148100
151594
154699
157589
160155
162588
164832
166930
168917
170767
172544
174222
175838
177386
178876
180317
181705
183063
184377
185671
186925
188167
189375
190579
191752
192922
194067
195213
196336
197463
198561
199577
200467
201351
202199
203040
203862
204664
205463
206235
207014
207761
208519
209250
209991
210708
211433
212140
212849
213548
214239
214939
215670
216396
217151
217905
218691
219484
220306
221159
222033
222955
223919
224929
225999
227160
228395
229804
231217
233299
234124
2528.39
51939.4
29354.1
91842.7
103040
113643
122078
128916
134818
139859
144241
148094
151590
154696
157585
160152
162586
164830
166929
168915
170766
172543
174221
175837
177385
178875
180316
181705
183063
184376
185670
186924
188167
189375
190578
191751
192921
194067
195212
196335
197463
198560
199576
200467
201351
202199
203040
203861
204664
205463
206235
207014
207761
208519
209250
209991
210708
211433
212140
212849
213548
214239
214939
215669
216396
217151
217905
218691
219484
220306
221159
222033
222955
223919
224929
225999
227160
228395
229804
231217
233299
234119
3641.56
52017.7
29383.9
91745
103022
113624
122063
128904
134808
139851
144234
148088
151585
154691
157582
160149
162583
164828
166926
168913
170764
172541
174220
175836
177384
178874
180315
181704
183062
184376
185670
186924
188166
189374
190578
191751
192921
194067
195212
196335
197463
198560
199576
200467
201351
202198
203039
203861
204663
205463
206235
207013
207761
208519
209250
209991
210708
211433
212140
212849
213548
214239
214939
215669
216396
217151
217905
218691
219484
220306
221159
222033
222954
223919
224929
225999
227160
228395
229804
231217
233299
234114
5020.47
52126.3
29431.7
91628.3
103000
113602
122046
128889
134796
139841
144225
148081
151578
154686
157577
160145
162580
164825
166924
168911
170762
172539
174218
175834
177382
178873
180314
181703
183061
184375
185669
186923
188166
189374
190578
191751
192921
194066
195212
196335
197463
198560
199576
200467
201351
202198
203039
203861
204663
205463
206234
207013
207761
208519
209249
209990
210708
211433
212140
212848
213548
214239
214939
215669
216396
217151
217905
218691
219484
220306
221159
222033
222954
223919
224929
225999
227160
228395
229804
231217
233299
234108
6704
52272.2
29501.2
91488.4
102975
113577
122025
128872
134782
139829
144215
148073
151571
154680
157572
160141
162576
164821
166921
168908
170760
172537
174216
175833
177381
178871
180313
181702
183060
184374
185668
186922
188165
189373
190577
191750
192920
194066
195211
196334
197462
198560
199575
200466
201350
202198
203039
203861
204663
205463
206234
207013
207761
208519
209249
209990
210708
211433
212140
212848
213548
214239
214939
215669
216396
217150
217905
218691
219484
220306
221159
222033
222954
223918
224928
225999
227160
228395
229804
231216
233299
234101
8741.37
52464.6
29597.5
91320.6
102945
113546
122001
128852
134765
139815
144203
148063
151563
154673
157565
160135
162571
164817
166917
168905
170757
172535
174214
175831
177379
178870
180311
181701
183059
184373
185667
186921
188164
189372
190576
191749
192920
194065
195211
196334
197462
198559
199575
200466
201350
202198
203039
203861
204663
205462
206234
207013
207761
208519
209249
209990
210708
211433
212140
212848
213548
214238
214939
215669
216396
217150
217905
218691
219484
220306
221159
222033
222954
223918
224928
225999
227160
228395
229804
231216
233299
234093
11191.2
52715.2
29728.2
91119.2
102910
113510
121972
128828
134745
139798
144189
148051
151552
154664
157558
160129
162565
164812
166913
168901
170753
172532
174212
175828
177377
178868
180310
181699
183057
184372
185666
186920
188163
189372
190575
191749
192919
194065
195210
196333
197461
198559
199575
200466
201350
202197
203038
203860
204662
205462
206234
207013
207760
208518
209249
209990
210707
211432
212140
212848
213548
214238
214938
215669
216396
217150
217905
218691
219484
220306
221159
222033
222954
223918
224928
225999
227159
228395
229804
231216
233299
234083
14121
53038.9
29902.3
90878.2
102868
113467
121937
128800
134721
139778
144173
148037
151540
154654
157549
160121
162559
164807
166908
168897
170750
172528
174209
175826
177375
178866
180308
181697
183056
184370
185665
186919
188162
189371
190575
191748
192918
194064
195210
196333
197461
198558
199574
200465
201349
202197
203038
203860
204662
205462
206233
207012
207760
208518
209249
209990
210707
211432
212140
212848
213548
214238
214938
215669
216396
217150
217905
218690
219483
220306
221159
222033
222954
223918
224928
225999
227159
228395
229804
231216
233299
234071
17607.1
53455.1
30131.4
90590.1
102818
113417
121897
128766
134692
139755
144153
148020
151526
154641
157538
160112
162551
164800
166902
168892
170745
172524
174205
175823
177372
178863
180306
181695
183054
184369
185663
186918
188161
189369
190573
191747
192917
194063
195209
196332
197460
198558
199573
200464
201349
202196
203037
203859
204662
205461
206233
207012
207760
208518
209248
209990
210707
211432
212139
212848
213547
214238
214938
215669
216396
217150
217905
218690
219483
220306
221159
222033
222954
223918
224928
225999
227159
228395
229804
231216
233299
234058
21735.8
53988.5
30430.3
90246.7
102760
113357
121848
128726
134659
139727
144129
148000
151509
154627
157526
160102
162542
164792
166895
168886
170740
172520
174201
175819
177369
178860
180303
181693
183052
184367
185661
186916
188159
189368
190572
191746
192916
194062
195208
196331
197459
198557
199573
200464
201348
202196
203037
203859
204661
205461
206233
207012
207760
208518
209248
209989
210707
211432
212139
212848
213547
214238
214938
215669
216396
217150
217905
218690
219483
220306
221159
222033
222954
223918
224928
225999
227159
228395
229804
231215
233299
234043
26602
54671.6
30817.7
89838.6
102690
113287
121791
128679
134619
139694
144102
147977
151489
154610
157511
160089
162531
164783
166887
168879
170734
172514
174196
175815
177365
178857
180300
181690
183049
184364
185659
186914
188158
189367
190571
191745
192915
194061
195207
196331
197459
198556
199572
200463
201348
202195
203036
203858
204661
205461
206232
207011
207759
208517
209248
209989
210707
211432
212139
212847
213547
214238
214938
215669
216395
217150
217905
218690
219483
220306
221159
222033
222954
223918
224928
225999
227159
228395
229804
231215
233299
234026
32309.2
55546.6
31317.6
89355.5
102608
113205
121724
128623
134572
139655
144069
147949
151465
154590
157494
160074
162518
164771
166877
168870
170726
172508
174190
175810
177360
178853
180296
181687
183047
184362
185657
186912
188156
189365
190569
191743
192914
194060
195206
196330
197458
198555
199571
200462
201347
202195
203036
203858
204660
205460
206232
207011
207759
208517
209248
209989
210706
211431
212139
212847
213547
214238
214938
215669
216395
217150
217905
218690
219483
220306
221159
222033
222954
223918
224928
225999
227159
228395
229804
231215
233298
234006
38966.7
56668.8
31960.9
88785.8
102509
113109
121645
128557
134516
139609
144030
147917
151438
154566
157474
160057
162503
164759
166866
168860
170718
172500
174184
175804
177355
178848
180292
181684
183043
184359
185654
186910
188154
189363
190568
191742
192912
194059
195205
196328
197457
198554
199570
200461
201346
202194
203035
203857
204660
205460
206231
207010
207758
208516
209247
209988
210706
211431
212138
212847
213547
214238
214938
215669
216395
217150
217905
218690
219483
220306
221159
222033
222954
223918
224928
225999
227160
228395
229804
231215
233297
233985
46686.6
58110
32788.2
88117.7
102391
112996
121551
128480
134451
139554
143985
147878
151405
154538
157450
160037
162485
164743
166853
168849
170708
172492
174176
175797
177349
178843
180288
181679
183040
184356
185651
186907
188151
189361
190566
191740
192911
194057
195203
196327
197456
198553
199569
200460
201345
202193
203034
203857
204659
205459
206231
207010
207758
208516
209247
209988
210706
211431
212138
212847
213547
214238
214938
215669
216396
217150
217905
218690
219484
220306
221159
222033
222954
223919
224929
225999
227160
228395
229804
231214
233296
233961
55577.9
59964.2
33852.6
87340.1
102247
112866
121442
128388
134374
139491
143932
147833
151366
154506
157422
160013
162465
164726
166838
168836
170696
172481
174167
175789
177342
178837
180282
181675
183036
184352
185648
186904
188149
189359
190563
191738
192909
194056
195202
196326
197454
198552
199568
200459
201344
202192
203034
203856
204658
205458
206230
207009
207758
208516
209247
209988
210705
211430
212138
212847
213547
214238
214938
215669
216396
217150
217905
218691
219484
220306
221159
222033
222955
223919
224929
225999
227160
228396
229805
231214
233296
233934
65737.7
62352.3
35224.4
86444.6
102071
112715
121313
128281
134283
139416
143869
147781
151322
154468
157389
159985
162441
164705
166820
168820
170683
172470
174157
175780
177335
178830
180276
181669
183031
184348
185644
186901
188146
189356
190561
191736
192907
194054
195200
196324
197453
198551
199567
200458
201343
202191
203033
203855
204658
205458
206230
207009
207757
208515
209246
209987
210705
211430
212138
212846
213547
214238
214938
215669
216396
217150
217906
218691
219484
220306
221160
222034
222955
223919
224929
226000
227160
228396
229805
231214
233297
233907
77239.6
65429.2
36997.2
85429.8
101855
112541
121163
128156
134177
139328
143796
147719
151269
154423
157351
159953
162413
164681
166800
168802
170668
172456
174145
175770
177326
178822
180270
181663
183025
184343
185640
186897
188142
189353
190558
191733
192905
194052
195198
196323
197451
198550
199566
200457
201342
202190
203032
203854
204657
205457
206229
207008
207757
208515
209246
209987
210705
211430
212138
212846
213547
214238
214939
215669
216396
217151
217906
218691
219485
220307
221160
222034
222956
223920
224930
226000
227161
228396
229806
231213
233298
233886
90121.2
69388.9
39295.8
84306.8
101589
112344
120990
128011
134053
139226
143711
147647
151208
154372
157307
159915
162381
164653
166776
168782
170650
172441
174132
175759
177316
178814
180262
181656
183020
184338
185635
186893
188139
189350
190555
191731
192902
194050
195196
196321
197450
198549
199564
200456
201340
202189
203031
203853
204656
205456
206229
207008
207756
208514
209246
209987
210705
211430
212138
212846
213547
214239
214939
215670
216397
217151
217907
218692
219485
220307
221161
222035
222956
223921
224931
226001
227162
228397
229806
231213
233300
233872
104378
74471.1
42286.9
83108.5
101261
112125
120792
127843
133910
139108
143612
147565
151138
154313
157256
159872
162344
164622
166749
168758
170630
172424
174117
175746
177304
178804
180253
181649
183013
184332
185630
186889
188135
189346
190552
191728
192900
194048
195195
196320
197448
198548
199563
200455
201339
202189
203030
203853
204656
205456
206228
207007
207756
208514
209246
209986
210705
211430
212138
212847
213547
214239
214940
215670
216398
217152
217908
218693
219486
220308
221162
222036
222957
223922
224932
226002
227163
228398
229807
231213
233302
233868
119942
80963.7
46191.6
81904.4
100860
111886
120571
127652
133747
138972
143499
147470
151057
154245
157197
159823
162302
164586
166718
168732
170608
172404
174100
175731
177292
178793
180244
181641
183006
184326
185625
186884
188130
189343
190549
191725
192897
194046
195193
196318
197447
198547
199562
200454
201338
202188
203029
203852
204655
205455
206228
207007
207756
208514
209246
209986
210705
211430
212138
212847
213548
214240
214941
215671
216399
217153
217909
218694
219487
220310
221163
222037
222958
223923
224933
226003
227164
228399
229808
231212
233305
233876
136633
89192.9
51299.3
80823.4
100378
111634
120330
127439
133563
138819
143372
147363
150966
154168
157132
159768
162254
164545
166684
168702
170582
172383
174081
175715
177278
178781
180234
181632
182998
184319
185619
186879
188126
189339
190545
191723
192895
194044
195191
196316
197445
198546
199561
200453
201337
202187
203028
203852
204655
205455
206228
207006
207756
208514
209246
209986
210705
211430
212139
212847
213548
214242
214943
215673
216401
217154
217910
218695
219489
220311
221165
222039
222960
223925
224935
226005
227165
228400
229809
231212
233307
233896
154107
99486.4
57977.3
80089
99821.4
111379
120080
127209
133360
138650
143230
147244
150864
154083
157058
159707
162202
164500
166646
168670
170555
172359
174061
175698
177263
178769
180223
181623
182991
184313
185614
186875
188122
189336
190542
191720
192892
194042
195189
196315
197444
198546
199560
200452
201336
202187
203028
203851
204655
205455
206228
207006
207757
208514
209247
209987
210706
211431
212140
212848
213550
214243
214945
215675
216403
217156
217913
218697
219491
220313
221167
222041
222962
223927
224937
226007
227167
228402
229810
231211
233309
233925
171831
112101
66666.1
80068.1
99236.5
111141
119845
126972
133145
138468
143077
147116
150754
153991
156979
159641
162146
164453
166606
168635
170527
172335
174040
175680
177248
178756
180213
181614
182983
184307
185608
186871
188118
189333
190540
191719
192891
194041
195188
196315
197444
198546
199560
200452
201336
202187
203028
203852
204655
205455
206229
207007
207758
208514
209248
209988
210708
211432
212141
212850
213551
214246
214948
215677
216406
217159
217916
218700
219494
220316
221170
222044
222965
223930
224940
226010
227169
228403
229811
231210
233309
233961
189080
127099
77844.4
81317
98756.9
110952
119662
126753
132931
138283
142919
146983
150640
153895
156897
159573
162087
164403
166565
168600
170498
172311
174019
175663
177234
178744
180203
181606
182977
184301
185604
186867
188115
189332
190538
191718
192890
194041
195188
196315
197444
198547
199560
200452
201336
202188
203029
203852
204656
205456
206231
207008
207759
208516
209250
209989
210709
211433
212143
212852
213554
214249
214951
215680
216409
217162
217919
218703
219498
220320
221173
222048
222968
223933
224943
226013
227172
228405
229811
231209
233306
234001
204977
144169
91935.7
84604.9
98673.9
110871
119590
126595
132742
138110
142769
146856
150528
153802
156816
159506
162031
164356
166527
168568
170471
172288
174001
175648
177222
178735
180196
181600
182972
184298
185602
186866
188115
189332
190538
191719
192891
194042
195189
196317
197445
198549
199562
200454
201337
202190
203030
203854
204659
205458
206233
207010
207762
208518
209252
209991
210712
211436
212146
212855
213557
214254
214956
215685
216414
217167
217924
218708
219503
220325
221178
222053
222973
223937
224947
226016
227174
228407
229811
231206
233297
234046
218612
162478
109122
90877.5
99531.6
111027
119705
126569
132623
137977
142648
146749
150432
153722
156746
159449
161983
164316
166494
168541
170450
172272
173988
175638
177214
178730
180192
181598
182972
184299
185603
186868
188117
189335
190541
191722
192894
194046
195192
196320
197448
198554
199565
200458
201340
202193
203034
203858
204662
205461
206237
207013
207766
208521
209256
209995
210716
211439
212150
212859
213562
214259
214962
215691
216420
217173
217930
218714
219509
220330
221184
222058
222978
223942
224951
226020
227177
228408
229809
231202
233280
234093
229261
180663
129058
101089
102228
111709
120109
126773
132648
137929
142584
146688
150372
153670
156699
159412
161952
164291
166476
168527
170441
172266
173985
175638
177216
178733
180197
181603
182978
184305
185609
186876
188124
189342
190548
191730
192901
194053
195198
196327
197454
198561
199571
200464
201345
202199
203039
203863
204668
205466
206242
207018
207772
208526
209262
209999
210722
211445
212156
212865
213568
214267
214971
215698
216429
217180
217938
218721
219517
220338
221191
222065
222984
223948
224956
226024
227179
228409
229804
231195
233250
234139
236683
197171
150618
115811
108004
113552
121001
127335
132933
138044
142628
146708
150376
153671
156694
159411
161952
164294
166483
168534
170452
172278
173998
175652
177231
178749
180213
181620
182994
184322
185625
186892
188139
189357
190562
191743
192913
194066
195210
196339
197465
198572
199581
200473
201354
202208
203047
203871
204676
205474
206251
207025
207780
208533
209270
210007
210730
211452
212164
212873
213577
214277
214981
215708
216439
217190
217949
218730
219526
220347
221199
222074
222992
223954
224962
226028
227180
228407
229796
231185
233205
234176
241217
210723
171936
134675
118114
117668
122840
128449
133633
138450
142867
146867
150487
153757
156760
159469
162004
164340
166528
168576
170494
172318
174037
175690
177267
178784
180247
181653
183025
184352
185654
186920
188165
189383
190585
191766
192934
194086
195229
196357
197482
198590
199597
200488
201367
202222
203060
203884
204689
205485
206263
207036
207791
208544
209281
210017
210740
211462
212174
212884
213588
214289
214995
215721
216452
217202
217961
218742
219538
220358
221210
222084
223000
223962
224968
226031
227180
228403
229781
231167
233138
234196
243597
220768
190905
155980
133082
125465
126551
130516
134963
139321
143440
147263
150775
153980
156937
159618
162133
164453
166631
168670
170581
172399
174114
175761
177334
178848
180307
181710
183079
184403
185702
186965
188207
189423
190623
191802
192967
194118
195258
196385
197507
198615
199620
200510
201388
202242
203080
203902
204707
205502
206280
207052
207808
208559
209297
210031
210755
211476
212189
212898
213603
214306
215012
215737
216469
217218
217977
218757
219553
220372
221222
222096
223010
223970
224973
226033
227176
228394
229758
231138
233043
234184
244573
227646
205998
176955
151873
137894
133462
134361
137330
140897
144530
148040
151349
154423
157286
159907
162377
164665
166818
168837
170734
172539
174242
175880
177445
178952
180403
181801
183164
184483
185776
187035
188273
189485
190680
191856
193018
194165
195302
196427
197546
198653
199654
200543
201418
202272
203107
203929
204733
205527
206304
207074
207830
208580
209318
210052
210776
211496
212209
212918
213624
214328
215035
215759
216491
217239
217998
218776
219571
220389
221238
222110
223021
223978
224978
226033
227168
228378
229722
231093
232914
234123
244686
232120
216862
194908
171818
154385
144576
141187
141539
143633
146415
149397
152363
155205
157904
160410
162794
165019
167126
169107
170977
172758
174442
176063
177613
179107
180547
181935
183289
184600
185885
187138
188368
189574
190763
191934
193090
194233
195365
196486
197601
198706
199704
200589
201461
202313
203147
203966
204769
205561
206338
207106
207862
208610
209347
210079
210803
211522
212235
212944
213650
214356
215064
215787
216518
217265
218023
218800
219593
220409
221256
222125
223033
223986
224980
226028
227152
228349
229668
231023
232743
233996
244264
234852
224080
208499
189842
172541
159440
151818
148657
148351
149628
151673
154046
156495
158922
161234
163472
165588
167612
169528
171348
173088
174739
176333
177858
179333
180755
182128
183467
184766
186039
187281
188502
189699
190879
192042
193191
194327
195453
196569
197677
198779
199772
200654
201521
202371
203202
204019
204820
205609
206384
207150
207904
208650
209387
210117
210840
211558
212271
212980
213686
214392
215101
215822
216553
217298
218054
218829
219620
220434
221277
222142
223046
223992
224978
226016
227125
228304
229589
230917
232522
233786
243505
236359
228600
217823
204039
189386
175874
165642
159180
155924
154979
155473
156815
158579
160544
162535
164535
166472
168358
170167
171904
173577
175174
176722
178210
179653
181047
182396
183714
184994
186250
187477
188684
189869
191037
192190
193329
194456
195572
196681
197782
198877
199864
200741
201603
202449
203277
204089
204887
205673
206446
207209
207961
208705
209440
210168
210890
211606
212317
213026
213732
214438
215147
215867
216596
217339
218093
218865
219652
220462
221300
222160
223057
223994
224969
225992
227081
228235
229477
230764
232243
233481
242535
237015
231277
223770
214054
202901
191163
180576
172224
166448
163058
161508
161300
161944
163123
164570
166174
167821
169486
171125
172727
174292
175803
177280
178709
180102
181454
182768
184054
185307
186538
187743
188930
190097
191249
192387
193512
194626
195731
196829
197920
199006
199986
200856
201712
202552
203375
204183
204977
205758
206528
207287
208036
208777
209509
210234
210954
211668
212378
213085
213790
214496
215205
215922
216649
217389
218140
218907
219690
220494
221325
222178
223064
223989
224948
225952
227014
228134
229322
230552
231899
233079
241434
237092
232735
227371
220577
212562
203452
194214
185760
178750
173529
170011
168006
167153
167166
167747
168705
169877
171183
172551
173941
175338
176714
178080
179417
180733
182021
183280
184519
185732
186927
188101
189260
190402
191531
192647
193754
194851
195940
197023
198101
199175
200145
201007
201854
202686
203503
204304
205092
205869
206633
207388
208133
208869
209598
210320
211036
211747
212454
213159
213863
214567
215274
215989
216713
217448
218194
218956
219732
220529
221351
222192
223065
223973
224912
225889
226916
227992
229116
230272
231486
232581
240266
236789
233396
229439
224604
218931
212280
205051
197748
190906
185005
180254
176761
174409
173061
172505
172536
172986
173731
174669
175727
176861
178029
179225
180423
181624
182814
183992
185160
186313
187455
188583
189702
190808
191905
192993
194073
195146
196214
197277
198336
199394
200351
201201
202038
202860
203668
204461
205242
206011
206769
207517
208256
208987
209711
210428
211140
211847
212550
213252
213952
214654
215358
216069
216788
217517
218257
219011
219778
220565
221374
222201
223056
223942
224854
225797
226781
227802
228852
229921
231004
231997
239080
236251
233545
230531
226986
222918
218151
212809
207093
201290
195761
190767
186543
183165
180657
178964
177940
177481
177460
177778
178338
179073
179924
180862
181850
182877
183924
184980
186046
187110
188176
189238
190298
191353
192404
193451
194495
195535
196573
197609
198644
199679
200618
201453
202276
203085
203880
204663
205433
206192
206942
207681
208413
209136
209853
210564
211270
211971
212670
213366
214062
214759
215459
216164
216876
217597
218328
219072
219827
220600
221393
222200
223033
223891
224769
225671
226603
227559
228528
229501
230461
231343
237924
235590
233388
231024
228340
225343
221890
218007
213746
209219
204620
200132
195962
192257
189122
186630
184720
183380
182530
182108
182029
182223
182626
183189
183870
184642
185476
186355
187269
188205
189161
190128
191104
192086
193073
194063
195056
196051
197047
198046
199047
200051
200965
201780
202583
203375
204154
204922
205678
206425
207162
207891
208612
209325
210033
210735
211432
212126
212817
213506
214195
214884
215577
216274
216976
217687
218406
219136
219876
220631
221403
222186
222989
223813
224649
225502
226374
227259
228143
229018
229864
230639
236849
234894
233065
231158
229056
226767
224190
221324
218168
214752
211158
207480
203846
200384
197196
194408
192014
190073
188560
187466
186745
186347
186224
186325
186609
187039
187584
188218
188923
189680
190482
191316
192177
193058
193956
194868
195790
196723
197664
198612
199567
200530
201410
202198
202977
203745
204503
205251
205989
206718
207440
208153
208860
209561
210256
210946
211632
212315
212995
213674
214352
215032
215714
216399
217089
217786
218488
219201
219921
220653
221399
222152
222921
223704
224493
225291
226099
226909
227707
228489
229234
229917
235897
234226
232670
231081
229371
227548
225540
223342
220942
218338
215561
212650
209668
206702
203816
201135
198663
196490
194623
193094
191895
191004
190402
190049
189918
189974
190188
190532
190984
191521
192131
192798
193513
194266
195051
195863
196697
197551
198420
199306
200203
201114
201951
202705
203452
204191
204922
205646
206361
207069
207771
208466
209155
209839
210518
211193
211865
212534
213200
213866
214531
215197
215865
216535
217209
217888
218572
219264
219960
220666
221382
222101
222832
223570
224310
225052
225796
226534
227256
227955
228618
229225
235076
233620
232268
230908
229472
227967
226341
224589
222698
220658
218478
216173
213768
211315
208847
206459
204155
202018
200069
198354
196893
195683
194733
194017
193528
193239
193131
193180
193364
193662
194058
194535
195082
195686
196339
197033
197763
198522
199308
200118
200947
201796
202583
203296
204005
204709
205408
206102
206790
207473
208151
208824
209492
210156
210817
211473
212128
212780
213430
214079
214728
215377
216028
216680
217335
217994
218656
219324
219994
220670
221354
222038
222728
223422
224113
224800
225484
226158
226812
227442
228037
228584
234368
233081
231888
230702
229468
228193
226836
225395
223858
222215
220466
218616
216671
214662
212600
210555
208521
206565
204707
202993
201451
200092
198939
197982
197228
196664
196281
196063
195993
196054
196231
196508
196874
197315
197821
198383
198993
199646
200335
201057
201807
202584
203312
203977
204642
205306
205967
206627
207283
207936
208586
209232
209876
210517
211155
211790
212424
213056
213686
214316
214945
215575
216205
216837
217470
218106
218743
219384
220025
220671
221320
221967
222616
223266
223909
224545
225173
225789
226384
226955
227495
227992
233755
232606
231542
230492
229414
228311
227154
225939
224658
223302
221868
220356
218765
217114
215402
213678
211930
210209
208527
206924
205426
204048
202820
201741
200826
200074
199484
199052
198765
198615
198587
198672
198857
199130
199482
199903
200385
200921
201503
202127
202788
203483
204144
204754
205369
205986
206605
207224
207843
208462
209080
209696
210311
210925
211537
212147
212757
213365
213973
214580
215187
215794
216401
217009
217617
218227
218836
219448
220059
220671
221285
221894
222503
223109
223706
224293
224872
225436
225978
226499
226991
227448
233223
232189
231231
230293
229338
228371
227366
226324
225235
224092
222893
221635
220315
218944
217518
216068
214584
213098
211620
210177
208794
207481
206270
205163
204180
203324
202604
202022
201571
201250
201049
200962
200980
201094
201295
201574
201924
202336
202806
203325
203890
204496
205083
205631
206189
206754
207324
207899
208476
209056
209637
210219
210801
211384
211966
212548
213130
213712
214293
214874
215455
216036
216617
217198
217779
218360
218940
219521
220099
220677
221255
221826
222395
222959
223511
224054
224586
225103
225600
226077
226529
226951
232760
231824
230955
230110
229256
228398
227515
226607
225666
224688
223668
222605
221494
220342
219143
217921
216662
215390
214109
212839
211599
210397
209259
208188
207206
206318
205536
204867
204308
203864
203530
203303
203180
203152
203215
203360
203582
203873
204228
204640
205104
205616
206124
206606
207102
207610
208127
208652
209183
209720
210260
210803
211349
211897
212446
212996
213547
214098
214650
215202
215754
216306
216858
217409
217960
218511
219059
219607
220152
220694
221235
221768
222298
222821
223332
223833
224322
224798
225255
225693
226109
226500
232356
231504
230713
229946
229177
228409
227625
226825
226002
225153
224273
223362
222415
221436
220419
219381
218309
217221
216118
215013
213921
212845
211808
210812
209875
209006
208214
207511
206896
206377
205952
205624
205390
205247
205191
205218
205324
205501
205746
206053
206417
206833
207259
207672
208103
208550
209010
209482
209964
210453
210949
211450
211956
212465
212977
213492
214009
214527
215046
215565
216086
216606
217126
217646
218165
218683
219198
219712
220221
220728
221233
221728
222219
222703
223175
223636
224087
224525
224945
225349
225733
226096
232002
231224
230501
229802
229106
228413
227712
227000
226274
225528
224761
223972
223154
222313
221441
220553
219636
218703
217753
216796
215841
214891
213964
213061
212195
211376
210612
209914
209283
208730
208254
207861
207549
207320
207172
207101
207107
207184
207329
207537
207806
208130
208474
208818
209183
209567
209969
210385
210814
211253