/*--------------------------------*- C++ -*----------------------------------*\
| =========                 |                                                 |
| \\      /  F ield         | OpenFOAM: The Open Source CFD Toolbox           |
|  \\    /   O peration     | Version:  5.x                                   |
|   \\  /    A nd           | Web:      www.OpenFOAM.org                      |
|    \\/     M anipulation  |                                                 |
\*---------------------------------------------------------------------------*/
FoamFile
{
    version     2.0;
    format      ascii;
    class       volVectorField;
    location    "1050";
    object      wallShearStress;
}
// * * * * * * * * * * * * * * * * * * * * * * * * * * * * * * * * * * * * * //

dimensions      [0 2 -2 0 0 0 0];

internalField   uniform (0 0 0);

boundaryField
{
    inlet
    {
        type            calculated;
        value           uniform (0 0 0);
    }
    outlet
    {
        type            calculated;
        value           uniform (0 0 0);
    }
    walls
    {
        type            calculated;
        value           nonuniform List<vector> 
164
(
(-628.412 -971.938 0)
(-1112.49 -857.263 -1.98373e-15)
(-1621.25 -659.1 -8.12641e-16)
(-1453.01 -487.273 2.20416e-15)
(-1360.26 -381.488 5.42575e-21)
(-1237.21 -299.504 1.49695e-15)
(-1114.34 -237.554 1.74537e-15)
(-1007.35 -191.912 -1.9758e-15)
(-915.303 -157.486 1.59371e-32)
(-836.289 -130.826 2.37025e-15)
(-767.484 -109.852 -2.58503e-15)
(-708.485 -93.0562 -2.67178e-15)
(-655.501 -79.2907 2.24277e-20)
(-613.75 -68.4743 -2.88198e-15)
(-575.187 -59.261 3.19255e-15)
(-548.421 -52.2804 3.09728e-15)
(-522.365 -45.9941 -3.22041e-15)
(-500.499 -40.7377 3.26322e-15)
(-481.779 -36.1671 3.22459e-15)
(-461.978 -31.9522 -3.38709e-15)
(-448.044 -28.4919 3.26372e-15)
(-431.803 -25.1488 6.50353e-21)
(-419.398 -22.3207 1.83225e-20)
(-407.832 -19.7277 -1.24943e-20)
(-395.989 -17.3247 -6.6411e-15)
(-387.565 -15.2322 3.18557e-15)
(-377.454 -13.2103 -1.6551e-35)
(-368.807 -11.3906 1.56998e-15)
(-361.248 -9.71523 -1.56032e-15)
(-354.127 -8.15493 2.25695e-36)
(-346.983 -6.69564 -1.14189e-20)
(-339.333 -5.31105 1.12313e-20)
(-333.25 -4.05181 1.01311e-20)
(-328.271 -2.85887 -2.13851e-20)
(-322.082 -1.74281 -6.83828e-16)
(-317.664 -0.686001 -9.7566e-36)
(-312.384 0.299867 8.09046e-17)
(-307.733 1.2418 -6.34347e-16)
(-304.095 2.12186 6.08667e-16)
(-300.813 2.97774 -1.17657e-15)
(-297.141 3.76739 3.31019e-35)
(-293.772 4.5308 4.38696e-15)
(-276.394 4.92233 5.7176e-35)
(-273.706 5.46235 -1.18575e-20)
(-269.231 5.90194 -2.93508e-15)
(-266.974 6.36906 5.56645e-21)
(-263.717 6.77619 -5.53191e-21)
(-260.484 7.15114 -2.91468e-15)
(-257.418 7.51044 5.82301e-15)
(-254.445 7.83319 2.91161e-15)
(-251.583 8.15238 5.56082e-21)
(-248.819 8.43257 -2.90673e-15)
(-246.146 8.71515 2.90295e-15)
(-243.554 8.96311 -5.54138e-21)
(-241.06 9.21603 -1.94176e-23)
(-237.568 9.39548 -1.93772e-23)
(-235.289 9.61886 5.53961e-21)
(-233.814 9.85252 1.80556e-35)
(-230.77 10.0154 5.78051e-15)
(-229.286 10.2315 5.48326e-21)
(-227.301 10.4207 -5.67685e-15)
(-224.972 10.6105 5.70768e-15)
(-222.117 10.7889 -5.70306e-15)
(-220.408 11.0029 1.13458e-14)
(-217.458 11.1602 -5.68092e-15)
(-215.665 11.3559 5.63272e-15)
(-212.486 11.485 -1.80556e-35)
(-210.039 11.6321 -2.69443e-21)
(-207.76 11.7926 -9.86185e-24)
(-205.437 11.9447 5.53586e-15)
(-201.612 11.9995 1.05186e-23)
(-199.106 12.1337 -2.67825e-21)
(-196.162 12.2332 -1.10997e-14)
(-191.894 12.2437 1.34652e-21)
(-188.04 12.275 -1.14278e-14)
(-184.594 12.3295 2.0646e-31)
(-179.796 12.2856 2.27929e-14)
(-174.474 12.1969 6.85939e-22)
(-169.11 12.0933 -1.17217e-14)
(-161.672 11.8342 1.16474e-14)
(-160.16 11.956 -1.19888e-14)
(-3.72652 0.979762 1.91267e-14)
(534.516 -1004.47 -3.85186e-34)
(-266.543 172.174 -1.24042e-14)
(-493.694 215.115 1.92593e-34)
(-592.947 199.622 1.41285e-32)
(-610.336 169.803 -9.41298e-32)
(-617.075 147.516 5.77953e-15)
(-622.878 130.541 2.18238e-20)
(-613.776 114.53 1.46937e-39)
(-594.936 99.9244 -3.45073e-20)
(-573.767 87.3445 -5.57673e-15)
(-551.464 76.5666 -2.16854e-20)
(-535.821 68.0401 -5.45537e-15)
(-517.819 60.3608 2.15602e-20)
(-507.269 54.3433 -2.00456e-20)
(-491.446 48.452 -5.52165e-15)
(-481.263 43.7231 5.18186e-15)
(-468.272 39.1437 -1.99185e-20)
(-456.481 35.1189 5.14633e-15)
(-446.454 31.5285 -1.88207e-20)
(-433.565 28.0675 6.08876e-21)
(-425.924 25.2059 4.79875e-15)
(-414.755 22.3525 7.22224e-35)
(-407.723 19.9397 -4.68814e-15)
(-399.434 17.6137 -4.6034e-15)
(-391.762 15.4832 -2.02932e-20)
(-386.796 13.5843 -4.2923e-15)
(-378.672 11.6963 -2.97195e-32)
(-373.723 10.0328 2.05769e-15)
(-368.679 8.45285 -4.03199e-15)
(-363.805 6.96002 -1.40183e-20)
(-357.763 5.54249 -1.89733e-15)
(-353.069 4.21584 -9.19814e-16)
(-349.793 2.98681 -1.33841e-20)
(-345.407 1.79178 4.26925e-16)
(-341.739 0.681384 2.04046e-16)
(-336.929 -0.387647 -2.44904e-20)
(-334.078 -1.38524 1.16531e-20)
(-330.813 -2.35008 7.40407e-16)
(-328.139 -3.2558 -1.4105e-15)
(-325.429 -4.13462 -1.03879e-20)
(-323.799 -4.96836 2.57568e-15)
(-321.351 -5.76901 -2.46988e-15)
(-304.745 -6.1507 -4.87076e-32)
(-302.979 -6.72616 -3.224e-15)
(-300.591 -7.22657 -3.19687e-15)
(-298.004 -7.70401 -3.19162e-15)
(-295.569 -8.14603 6.3294e-15)
(-293.132 -8.55642 -3.15398e-15)
(-290.838 -8.95322 -3.13171e-15)
(-288.617 -9.31109 3.11345e-15)
(-286.472 -9.66793 3.11506e-37)
(-284.43 -9.98427 3.07369e-15)
(-282.494 -10.3069 5.82187e-21)
(-280.611 -10.5915 6.06627e-15)
(-278.87 -10.8847 6.01269e-15)
(-277.111 -11.1437 -2.40741e-35)
(-275.577 -11.4131 1.83351e-31)
(-273.889 -11.6497 -5.62377e-21)
(-272.456 -11.8981 1.16267e-14)
(-270.741 -12.1087 5.62399e-21)
(-268.728 -12.3096 -1.15048e-14)
(-267.137 -12.469 -5.7465e-15)
(-266.211 -12.6441 -6.01853e-36)
(-264.21 -12.7555 -2.69688e-21)
(-263.366 -12.9232 -5.55252e-15)
(-260.967 -13.0055 -5.56344e-15)
(-258.967 -13.109 -5.58023e-15)
(-259.039 -13.3053 5.43219e-15)
(-257.58 -13.4324 5.45492e-15)
(-255.337 -13.5163 2.56422e-21)
(-253.656 -13.6239 -8.35563e-32)
(-252.232 -13.7508 -1.28967e-21)
(-251.699 -13.9265 -5.21409e-15)
(-249.616 -14.0203 2.50276e-21)
(-247.882 -14.1357 5.24146e-15)
(-246.254 -14.2627 -2.4672e-21)
(-244.306 -14.374 1.21586e-21)
(-241.7 -14.4515 6.08782e-22)
(-238.904 -14.5211 -1.02281e-14)
(-234.725 -14.5109 1.01101e-14)
(-235.092 -14.7176 4.56161e-22)
(-27.8695 -2.10872 -1.93937e-14)
)
;
    }
    frontAndBack
    {
        type            empty;
    }
}


// ************************************************************************* //
