/*--------------------------------*- C++ -*----------------------------------*\
| =========                 |                                                 |
| \\      /  F ield         | OpenFOAM: The Open Source CFD Toolbox           |
|  \\    /   O peration     | Version:  5.x                                   |
|   \\  /    A nd           | Web:      www.OpenFOAM.org                      |
|    \\/     M anipulation  |                                                 |
\*---------------------------------------------------------------------------*/
FoamFile
{
    version     2.0;
    format      ascii;
    class       volScalarField;
    location    "50";
    object      nut;
}
// * * * * * * * * * * * * * * * * * * * * * * * * * * * * * * * * * * * * * //

dimensions      [0 2 -1 0 0 0 0];

internalField   nonuniform List<scalar> 
11040
(
0.00180705
0.00193328
0.0019762
0.00243274
0.00264467
0.00273406
0.00274653
0.00271635
0.00265516
0.00256168
0.00241946
0.00228492
0.00220076
0.0021454
0.00208757
0.00202845
0.00196924
0.00191226
0.00185898
0.00181116
0.00176769
0.00173137
0.00169958
0.00166927
0.00164061
0.00161346
0.00158724
0.0015613
0.00153517
0.00150847
0.00148088
0.00145204
0.00142153
0.00138871
0.00135222
0.00131029
0.00125978
0.00119702
0.00110868
0.00100152
0.000745986
0.0081904
0.00854764
0.00792718
0.00727822
0.00657814
0.00591337
0.00530952
0.00476782
0.00428565
0.00386689
0.00347334
0.0032143
0.00312661
0.00300357
0.00285677
0.00271686
0.0025949
0.00248682
0.00239682
0.00233685
0.00229864
0.0022682
0.00223899
0.00221143
0.00218864
0.00217054
0.00215518
0.0021416
0.00213008
0.00212115
0.00211468
0.0021102
0.00210721
0.00210548
0.00210488
0.00210555
0.00210776
0.00211002
0.00211285
0.00210351
0.00204985
0.0164067
0.0169622
0.0162541
0.0151928
0.0139516
0.0126847
0.0114705
0.0103317
0.00928399
0.00830711
0.00733428
0.00648692
0.00582796
0.00532391
0.00488231
0.00449597
0.00415699
0.00385431
0.00363836
0.00354717
0.00350016
0.00345576
0.00341153
0.0033801
0.00336418
0.00335653
0.00334994
0.00334361
0.00334004
0.00334006
0.00334274
0.00334668
0.00335103
0.0033549
0.00335665
0.0033542
0.0033464
0.00332611
0.00329799
0.00323191
0.00310114
0.0257863
0.0264756
0.0257644
0.0244067
0.0227221
0.0209045
0.0190811
0.0172982
0.0156171
0.0140403
0.0124742
0.0110804
0.00996792
0.00908709
0.00831465
0.00764022
0.00705143
0.00653116
0.0060699
0.00566675
0.00531675
0.00503737
0.00485583
0.00477181
0.00473179
0.00469795
0.00466077
0.00463288
0.00462017
0.00461796
0.00462004
0.0046245
0.00463129
0.00463928
0.00464584
0.0046475
0.00464146
0.00461684
0.00457402
0.00447642
0.0042312
0.0359135
0.0366949
0.0360561
0.0345556
0.0325788
0.0303088
0.0279263
0.0254844
0.0231389
0.0209156
0.0187142
0.0167301
0.0151358
0.0138658
0.0127397
0.0117458
0.0108778
0.0101048
0.00940693
0.00877586
0.00820738
0.00774496
0.0073744
0.00704789
0.00676164
0.00650732
0.00630282
0.00619277
0.00613988
0.00610247
0.00606811
0.00604427
0.0060322
0.0060263
0.00602131
0.00601284
0.00599722
0.00596223
0.00590407
0.00579481
0.00547884
0.0464364
0.0472714
0.0467432
0.0452362
0.0431217
0.0405059
0.0376438
0.0347149
0.0318407
0.029045
0.0262195
0.0235932
0.021403
0.0196449
0.0181322
0.0168109
0.0156681
0.0146152
0.0136476
0.012769
0.0119744
0.0113219
0.0107834
0.0102905
0.0098428
0.00943507
0.0090625
0.00872698
0.00842822
0.00815847
0.00795146
0.00783652
0.00776788
0.00771069
0.00765993
0.00761182
0.00756004
0.00748975
0.00739282
0.00725273
0.00687766
0.0570335
0.0578756
0.0574696
0.0560583
0.0539268
0.0512304
0.0482145
0.0450357
0.0418206
0.0386024
0.0352691
0.0320666
0.029289
0.0269727
0.0249367
0.0231312
0.021535
0.0201161
0.0188479
0.0177141
0.0166861
0.0158217
0.0150722
0.0143959
0.013794
0.0132419
0.0127309
0.0122561
0.0118136
0.0113982
0.0110078
0.0106464
0.010309
0.0100207
0.00982951
0.00968763
0.00955773
0.00941396
0.00924108
0.00902946
0.00855905
0.0673762
0.0682041
0.0679129
0.0666611
0.0646605
0.0620985
0.0591626
0.0559737
0.0526467
0.0492161
0.0455769
0.0419639
0.0387027
0.0358732
0.0333218
0.0310115
0.0289269
0.027048
0.0253542
0.0238274
0.0224547
0.0213042
0.020341
0.0194696
0.0186812
0.0179635
0.0173042
0.0166932
0.0161222
0.0155835
0.0150699
0.0145753
0.0140927
0.0136178
0.0131507
0.0126981
0.0123328
0.0120265
0.0117189
0.0113868
0.0107652
0.077237
0.0779972
0.0777944
0.0767302
0.0749635
0.0726687
0.0699808
0.0669819
0.0637628
0.0603432
0.0566327
0.0528337
0.049269
0.0460554
0.0430878
0.0403438
0.0378168
0.0354966
0.03337
0.0314236
0.0296471
0.0281712
0.0269605
0.0258642
0.0248654
0.0239506
0.0231071
0.0223236
0.0215902
0.0208978
0.0202376
0.019601
0.0189792
0.0183629
0.0177392
0.0170981
0.0164428
0.0157661
0.0151555
0.0146166
0.0137958
0.086367
0.0870338
0.0868959
0.0860206
0.084529
0.0825664
0.0802252
0.0775499
0.0746056
0.0713743
0.0678017
0.0640474
0.0603992
0.0570026
0.0538213
0.0508005
0.0479495
0.0452797
0.0427876
0.0404672
0.0383119
0.0365134
0.0350413
0.0337024
0.0324759
0.0313465
0.0303004
0.0293254
0.0284103
0.0275447
0.0267185
0.0259219
0.025145
0.024377
0.0236027
0.02281
0.0219879
0.0211107
0.0201666
0.0192471
0.0181106
0.094606
0.0951699
0.0950765
0.0943738
0.0931547
0.0915345
0.0895747
0.0872746
0.0846886
0.0818275
0.0786138
0.0751536
0.0716773
0.0683156
0.0650488
0.0618992
0.0588839
0.0560301
0.0533064
0.0507175
0.0482696
0.0462024
0.0444932
0.0429246
0.0414773
0.0401376
0.0388913
0.0377251
0.0366269
0.0355854
0.0345897
0.0336291
0.0326929
0.0317695
0.030842
0.0298989
0.0289287
0.0279063
0.0268013
0.0256424
0.0241297
0.101878
0.102341
0.102275
0.10172
0.100746
0.0994424
0.0978517
0.0959529
0.093796
0.0913833
0.088645
0.0856437
0.0825437
0.0794465
0.0763408
0.0732622
0.070241
0.0673051
0.0644717
0.0617517
0.0591571
0.0569278
0.0550375
0.0532826
0.0516547
0.0501472
0.0487355
0.047406
0.0461475
0.0449493
0.0438009
0.0426914
0.0416108
0.0405468
0.0394814
0.0384035
0.0373026
0.0361542
0.0349336
0.0336672
0.0319674
0.108184
0.108551
0.108501
0.108066
0.107299
0.106269
0.105005
0.103484
0.101746
0.0997897
0.0975571
0.0950792
0.0924495
0.0897543
0.0869953
0.0842136
0.0814143
0.078623
0.0758635
0.0731565
0.0705186
0.0682153
0.0662475
0.0644051
0.0626775
0.0610553
0.0595278
0.0580839
0.0567126
0.0554031
0.0541451
0.0529272
0.051746
0.0505822
0.0494172
0.0482418
0.0470476
0.0458112
0.0445122
0.0431789
0.0414575
0.113578
0.113853
0.113812
0.113474
0.112878
0.112073
0.111082
0.109884
0.108514
0.106969
0.105201
0.103211
0.101087
0.0988725
0.096563
0.0941806
0.0917441
0.0892868
0.086804
0.0843115
0.0818275
0.0796139
0.0776923
0.075872
0.0741451
0.0725061
0.0709482
0.0694637
0.0680443
0.0666816
0.0653669
0.064091
0.0628454
0.0616199
0.0603979
0.0591716
0.0579336
0.0566621
0.0553403
0.0539891
0.05232
0.118117
0.118331
0.1183
0.11804
0.117582
0.116956
0.116181
0.115246
0.114179
0.112977
0.111592
0.110046
0.108388
0.106643
0.1048
0.102871
0.100869
0.0988058
0.0966932
0.0945443
0.0923816
0.0904173
0.0886708
0.0869909
0.0853782
0.0838401
0.0823635
0.0809424
0.0795717
0.0782459
0.076959
0.0757048
0.0744763
0.0732656
0.0720584
0.0708494
0.0696338
0.0683925
0.067113
0.0658085
0.0642572
0.121932
0.122096
0.122072
0.12187
0.121525
0.121033
0.120427
0.119699
0.118873
0.117945
0.116881
0.115697
0.114427
0.113084
0.111647
0.110134
0.108564
0.10693
0.105238
0.103494
0.101705
0.100055
0.0985731
0.0971342
0.0957385
0.0943861
0.0930758
0.0918055
0.0905723
0.0893726
0.088202
0.0870623
0.0859423
0.084835
0.0837292
0.0826217
0.0815101
0.080379
0.0792196
0.0780398
0.0766816
0.125127
0.125253
0.125233
0.125076
0.124805
0.124421
0.123949
0.123387
0.122748
0.122034
0.121219
0.120319
0.119355
0.118326
0.117232
0.11608
0.114872
0.113613
0.112313
0.110965
0.109571
0.108268
0.107084
0.105925
0.104792
0.103684
0.102603
0.101547
0.100515
0.0995052
0.0985153
0.0975427
0.0965847
0.0956372
0.0946918
0.0937469
0.0928013
0.0918428
0.0908657
0.0898742
0.0887661
0.127679
0.127779
0.127763
0.127638
0.127422
0.12712
0.126747
0.126311
0.125807
0.125245
0.124612
0.123917
0.123176
0.122386
0.121548
0.120667
0.119744
0.118781
0.117779
0.11674
0.115665
0.114653
0.113728
0.112818
0.111927
0.111053
0.110197
0.109364
0.108547
0.107745
0.106957
0.10618
0.105414
0.104655
0.103899
0.103144
0.10239
0.101628
0.100856
0.100075
0.0992247
0.129645
0.129724
0.129712
0.12961
0.129434
0.129194
0.12889
0.128535
0.128129
0.12768
0.127183
0.126633
0.126048
0.125428
0.124773
0.124086
0.12337
0.122624
0.121849
0.121046
0.120215
0.11943
0.118707
0.117996
0.117299
0.116616
0.115946
0.115289
0.114645
0.114013
0.113396
0.11279
0.112192
0.111601
0.111013
0.110428
0.109846
0.109261
0.10867
0.108076
0.107442
0.131187
0.131252
0.131242
0.131158
0.13101
0.13081
0.130559
0.130266
0.129938
0.129569
0.129163
0.128718
0.128248
0.127755
0.127233
0.126686
0.126118
0.125529
0.12492
0.12429
0.123641
0.123026
0.122458
0.1219
0.121353
0.120817
0.120292
0.119778
0.119274
0.11878
0.118295
0.11782
0.117353
0.116896
0.116443
0.115994
0.11555
0.115105
0.114659
0.114212
0.113746
0.132428
0.132482
0.132473
0.132401
0.132276
0.132105
0.131898
0.131651
0.131376
0.131069
0.130732
0.13037
0.129983
0.12958
0.129155
0.128712
0.128255
0.127782
0.127295
0.126794
0.12628
0.125792
0.125341
0.124898
0.124465
0.124042
0.123624
0.123215
0.122819
0.122432
0.122054
0.121684
0.121321
0.120967
0.120618
0.120274
0.119935
0.119597
0.11926
0.118925
0.118581
0.133445
0.133491
0.133482
0.13342
0.133312
0.133165
0.132986
0.13278
0.132546
0.132289
0.132005
0.131701
0.131379
0.131044
0.130696
0.130332
0.129958
0.129572
0.129177
0.128773
0.12836
0.127967
0.127605
0.12725
0.1269
0.126562
0.126229
0.125903
0.125586
0.12528
0.124983
0.124693
0.12441
0.124135
0.123865
0.1236
0.12334
0.123082
0.122827
0.122574
0.122319
0.134292
0.134331
0.134323
0.134268
0.134174
0.134046
0.133891
0.133712
0.133513
0.133292
0.133053
0.132795
0.132525
0.132243
0.131951
0.13165
0.131342
0.131024
0.1307
0.130369
0.130032
0.129712
0.129417
0.129129
0.128846
0.128573
0.128304
0.128042
0.127788
0.127541
0.127304
0.127077
0.126856
0.126641
0.12643
0.126224
0.126023
0.125825
0.125629
0.125437
0.125247
0.135007
0.13504
0.135032
0.134983
0.1349
0.134788
0.134652
0.134496
0.134323
0.134132
0.133926
0.133705
0.133475
0.133238
0.132991
0.132738
0.13248
0.132216
0.131949
0.131676
0.131399
0.131136
0.130892
0.130656
0.130426
0.130203
0.129985
0.129772
0.129566
0.129366
0.129174
0.128989
0.128812
0.128642
0.128476
0.128315
0.128159
0.128005
0.127855
0.127709
0.127567
0.135617
0.135645
0.135637
0.135593
0.135519
0.13542
0.1353
0.135163
0.135011
0.134847
0.134668
0.134479
0.134281
0.134076
0.133867
0.133654
0.133434
0.133212
0.132987
0.13276
0.132533
0.132314
0.132111
0.131915
0.131725
0.13154
0.131361
0.131186
0.131018
0.130855
0.130699
0.130549
0.130405
0.130267
0.130135
0.130009
0.129887
0.129768
0.129652
0.129539
0.129431
0.136142
0.136166
0.136158
0.136118
0.136052
0.135964
0.135858
0.135737
0.135602
0.135458
0.135303
0.135138
0.134968
0.134791
0.13461
0.134427
0.134241
0.134054
0.133863
0.133672
0.133481
0.133298
0.13313
0.132966
0.132808
0.132654
0.132505
0.132361
0.132222
0.132089
0.13196
0.131838
0.13172
0.131608
0.131501
0.131398
0.131301
0.131208
0.131117
0.13103
0.130948
0.136599
0.136618
0.13661
0.136574
0.136515
0.136437
0.136342
0.136234
0.136115
0.135987
0.13585
0.135707
0.135558
0.135405
0.13525
0.135093
0.134933
0.134771
0.13461
0.134448
0.134287
0.134132
0.13399
0.133852
0.133719
0.13359
0.133465
0.133345
0.13323
0.133119
0.133013
0.132912
0.132815
0.132724
0.132636
0.132552
0.132473
0.132397
0.132325
0.132256
0.132193
0.136997
0.137014
0.137006
0.136974
0.136921
0.13685
0.136766
0.136669
0.136563
0.136449
0.136328
0.136201
0.13607
0.135938
0.135803
0.135666
0.135527
0.135389
0.13525
0.135111
0.134974
0.134844
0.134722
0.134605
0.134492
0.134383
0.134278
0.134177
0.13408
0.133988
0.133899
0.133815
0.133735
0.13366
0.133587
0.133519
0.133454
0.133392
0.133334
0.133278
0.133228
0.137348
0.137362
0.137355
0.137325
0.137278
0.137214
0.137138
0.137052
0.136957
0.136855
0.136747
0.136634
0.136519
0.136401
0.136282
0.136163
0.136043
0.135923
0.135803
0.135684
0.135567
0.135454
0.13535
0.135249
0.135153
0.13506
0.134971
0.134885
0.134804
0.134726
0.134652
0.134582
0.134516
0.134453
0.134393
0.134336
0.134283
0.134233
0.134185
0.134139
0.134099
0.137658
0.13767
0.137663
0.137637
0.137594
0.137537
0.137469
0.137391
0.137306
0.137214
0.137117
0.137017
0.136914
0.13681
0.136704
0.136598
0.136493
0.136388
0.136285
0.136182
0.136081
0.135984
0.135894
0.135807
0.135724
0.135644
0.135568
0.135496
0.135426
0.135361
0.135298
0.135239
0.135184
0.135131
0.135082
0.135035
0.134991
0.134949
0.13491
0.134873
0.134841
0.137933
0.137944
0.137938
0.137914
0.137875
0.137824
0.137762
0.137692
0.137616
0.137534
0.137447
0.137357
0.137265
0.137172
0.137078
0.136984
0.136891
0.136799
0.136708
0.136619
0.136532
0.136448
0.136369
0.136294
0.136222
0.136153
0.136088
0.136026
0.135966
0.135911
0.135858
0.135808
0.135761
0.135717
0.135675
0.135637
0.1356
0.135566
0.135534
0.135504
0.135478
0.138179
0.138188
0.138182
0.138161
0.138126
0.13808
0.138025
0.137962
0.137892
0.137819
0.137741
0.13766
0.137578
0.137495
0.137411
0.137328
0.137245
0.137163
0.137083
0.137005
0.136929
0.136855
0.136787
0.136721
0.136659
0.136599
0.136543
0.136489
0.136439
0.136391
0.136346
0.136304
0.136264
0.136227
0.136193
0.13616
0.13613
0.136102
0.136076
0.136052
0.136032
0.138398
0.138406
0.138401
0.138382
0.138351
0.138309
0.138259
0.138203
0.138141
0.138074
0.138004
0.137932
0.137858
0.137784
0.137709
0.137635
0.137561
0.137489
0.137418
0.137349
0.137282
0.137218
0.137158
0.137101
0.137046
0.136994
0.136945
0.136899
0.136855
0.136814
0.136776
0.13674
0.136707
0.136676
0.136647
0.13662
0.136595
0.136572
0.136551
0.136531
0.136515
0.138594
0.138602
0.138597
0.138581
0.138553
0.138515
0.138471
0.138419
0.138364
0.138304
0.138241
0.138176
0.13811
0.138043
0.137976
0.13791
0.137845
0.13778
0.137718
0.137656
0.137598
0.137541
0.137489
0.137438
0.137391
0.137346
0.137303
0.137263
0.137225
0.13719
0.137157
0.137127
0.137098
0.137072
0.137047
0.137025
0.137004
0.136985
0.136967
0.136951
0.136938
0.138771
0.138778
0.138774
0.138759
0.138734
0.138701
0.138661
0.138615
0.138565
0.138511
0.138454
0.138396
0.138337
0.138277
0.138217
0.138158
0.1381
0.138042
0.137987
0.137933
0.137881
0.137831
0.137785
0.13774
0.137699
0.137659
0.137622
0.137587
0.137554
0.137524
0.137496
0.137469
0.137445
0.137423
0.137402
0.137383
0.137365
0.137349
0.137335
0.137321
0.137311
0.13893
0.138936
0.138933
0.13892
0.138898
0.138868
0.138832
0.138791
0.138746
0.138698
0.138648
0.138595
0.138542
0.138489
0.138435
0.138382
0.13833
0.138279
0.13823
0.138182
0.138136
0.138092
0.138051
0.138012
0.137975
0.13794
0.137908
0.137877
0.137849
0.137822
0.137798
0.137775
0.137754
0.137735
0.137717
0.137701
0.137686
0.137673
0.13766
0.137649
0.137641
0.139075
0.13908
0.139077
0.139066
0.139046
0.139019
0.138987
0.13895
0.13891
0.138867
0.138822
0.138776
0.138728
0.138681
0.138633
0.138586
0.138539
0.138494
0.138449
0.138407
0.138366
0.138327
0.138291
0.138257
0.138224
0.138194
0.138165
0.138138
0.138113
0.13809
0.138069
0.138049
0.138031
0.138014
0.137999
0.137985
0.137972
0.137961
0.137951
0.137941
0.137934
0.139206
0.139211
0.139208
0.139198
0.13918
0.139156
0.139128
0.139095
0.139059
0.139021
0.138981
0.13894
0.138898
0.138855
0.138813
0.13877
0.138729
0.138689
0.138649
0.138611
0.138575
0.138541
0.138509
0.138478
0.138449
0.138422
0.138397
0.138373
0.138351
0.138331
0.138312
0.138295
0.138279
0.138265
0.138252
0.13824
0.138229
0.138219
0.138211
0.138203
0.138197
0.139326
0.13933
0.139329
0.139319
0.139304
0.139282
0.139257
0.139227
0.139196
0.139162
0.139126
0.139089
0.139052
0.139014
0.138976
0.138939
0.138902
0.138866
0.138832
0.138798
0.138766
0.138735
0.138707
0.13868
0.138654
0.13863
0.138608
0.138587
0.138567
0.138549
0.138533
0.138518
0.138504
0.138492
0.13848
0.13847
0.13846
0.138452
0.138444
0.138438
0.138433
0.139436
0.13944
0.139439
0.139431
0.139417
0.139398
0.139375
0.139349
0.139321
0.13929
0.139258
0.139226
0.139192
0.139159
0.139126
0.139093
0.13906
0.139029
0.138998
0.138968
0.13894
0.138913
0.138888
0.138864
0.138841
0.138819
0.138799
0.138781
0.138764
0.138748
0.138733
0.13872
0.138708
0.138697
0.138687
0.138678
0.138669
0.138662
0.138656
0.13865
0.138645
0.139536
0.139541
0.13954
0.139534
0.139522
0.139505
0.139485
0.139462
0.139436
0.139409
0.139381
0.139351
0.139322
0.139292
0.139263
0.139234
0.139205
0.139177
0.13915
0.139124
0.139099
0.139075
0.139053
0.139032
0.139012
0.138993
0.138975
0.138958
0.138943
0.138929
0.138916
0.138904
0.138893
0.138883
0.138874
0.138866
0.138859
0.138853
0.138847
0.138842
0.138838
0.139628
0.139634
0.139634
0.139629
0.13962
0.139605
0.139588
0.139567
0.139545
0.13952
0.139495
0.139469
0.139442
0.139415
0.139389
0.139363
0.139338
0.139314
0.13929
0.139267
0.139245
0.139224
0.139205
0.139186
0.139168
0.139151
0.139135
0.139121
0.139107
0.139094
0.139083
0.139072
0.139062
0.139053
0.139046
0.139039
0.139032
0.139027
0.139022
0.139017
0.139015
0.139711
0.139718
0.139721
0.139718
0.13971
0.139699
0.139684
0.139667
0.139647
0.139625
0.139603
0.139579
0.139555
0.139531
0.139507
0.139484
0.139461
0.13944
0.139419
0.139399
0.13938
0.139361
0.139344
0.139328
0.139312
0.139297
0.139283
0.13927
0.139258
0.139246
0.139236
0.139226
0.139217
0.13921
0.139203
0.139196
0.139191
0.139186
0.139181
0.139177
0.139177
0.139786
0.139794
0.139798
0.139797
0.139792
0.139784
0.139773
0.139759
0.139742
0.139724
0.139704
0.139683
0.139661
0.13964
0.139618
0.139597
0.139576
0.139556
0.139538
0.13952
0.139503
0.139486
0.139471
0.139457
0.139443
0.13943
0.139418
0.139407
0.139396
0.139386
0.139376
0.139368
0.13936
0.139352
0.139346
0.13934
0.139335
0.139331
0.139328
0.139325
0.139327
0.139854
0.139862
0.139867
0.139868
0.139867
0.139862
0.139855
0.139845
0.139832
0.139817
0.139801
0.139783
0.139764
0.139744
0.139724
0.139704
0.139684
0.139665
0.139647
0.13963
0.139614
0.1396
0.139586
0.139573
0.139561
0.13955
0.139539
0.139529
0.13952
0.139511
0.139503
0.139495
0.139488
0.139482
0.139476
0.139471
0.139467
0.139464
0.139463
0.139463
0.139467
0.139913
0.139922
0.139927
0.139931
0.139931
0.139929
0.139926
0.13992
0.139913
0.139903
0.139891
0.139878
0.139862
0.139845
0.139827
0.139808
0.139788
0.139769
0.13975
0.139733
0.139716
0.139702
0.139688
0.139676
0.139665
0.139655
0.139645
0.139637
0.139629
0.139621
0.139615
0.139608
0.139602
0.139596
0.139591
0.139587
0.139584
0.139582
0.139581
0.139582
0.139585
0.139962
0.139968
0.139971
0.139973
0.139973
0.139972
0.13997
0.139968
0.139964
0.13996
0.139955
0.139948
0.139939
0.139928
0.139915
0.139898
0.139881
0.139862
0.139844
0.139828
0.139812
0.139798
0.139785
0.139774
0.139763
0.139753
0.139744
0.139736
0.139729
0.139723
0.139717
0.139711
0.139706
0.139702
0.139698
0.139694
0.139691
0.139688
0.139686
0.139685
0.139685
0.139992
0.139992
0.139993
0.139993
0.139992
0.139992
0.139991
0.13999
0.139988
0.139986
0.139984
0.139981
0.139976
0.13997
0.139963
0.139956
0.139949
0.139941
0.139933
0.139926
0.139918
0.13991
0.139903
0.139895
0.139888
0.139882
0.139875
0.139869
0.139863
0.139858
0.139853
0.139849
0.139844
0.139839
0.139834
0.13983
0.139826
0.139823
0.139819
0.139817
0.139814
0.00190598
0.0027597
0.00350965
0.00396773
0.00496091
0.00574001
0.00170815
0.0185522
0.0508021
0.0744773
0.0890195
0.0986379
0.105572
0.110822
0.114931
0.118228
0.120922
0.123159
0.125042
0.126643
0.128016
0.129203
0.130237
0.131141
0.131937
0.132642
0.13327
0.133832
0.134338
0.1348
0.135226
0.135623
0.135999
0.136358
0.136692
0.136992
0.137259
0.137496
0.137709
0.137902
0.138075
0.138232
0.138373
0.138501
0.138617
0.138722
0.138818
0.138904
0.138982
0.139053
0.139117
0.139175
0.139227
0.139275
0.139318
0.139357
0.139392
0.139423
0.139451
0.139476
0.139498
0.139518
0.139536
0.139552
0.139567
0.139579
0.13959
0.139599
0.139607
0.139615
0.139621
0.139627
0.139631
0.13964
0.0027259
0.00324092
0.00388861
0.00430541
0.00515055
0.0060284
0.00197244
0.0171321
0.0488938
0.0730083
0.0879706
0.0978578
0.104986
0.1104
0.114654
0.11808
0.120887
0.123222
0.125189
0.126863
0.128299
0.129539
0.130616
0.131556
0.132379
0.133106
0.133749
0.134321
0.134832
0.135294
0.135717
0.136105
0.136469
0.136811
0.137127
0.137409
0.137658
0.137878
0.138074
0.13825
0.138408
0.13855
0.138676
0.13879
0.138893
0.138986
0.139069
0.139144
0.139211
0.139272
0.139326
0.139374
0.139418
0.139457
0.139492
0.139523
0.139551
0.139575
0.139596
0.139614
0.13963
0.139643
0.139655
0.139666
0.139674
0.139681
0.139686
0.13969
0.139693
0.139696
0.139697
0.139699
0.139699
0.1397
0.00379182
0.00435598
0.00487819
0.00520334
0.00568942
0.00668062
0.00327169
0.0141017
0.0440329
0.068833
0.0847117
0.0952406
0.102834
0.108621
0.113189
0.116882
0.11992
0.122455
0.124595
0.126418
0.127984
0.129336
0.13051
0.131533
0.132427
0.133213
0.133906
0.134519
0.135063
0.135552
0.135993
0.136393
0.136763
0.137106
0.137419
0.137697
0.137941
0.138156
0.138346
0.138515
0.138665
0.138799
0.138918
0.139024
0.139119
0.139204
0.13928
0.139348
0.139408
0.139462
0.13951
0.139552
0.139589
0.139623
0.139652
0.139678
0.1397
0.139718
0.139734
0.139747
0.139758
0.139767
0.139773
0.139779
0.139783
0.139785
0.139785
0.139785
0.139783
0.13978
0.139778
0.139774
0.139771
0.139765
0.00483202
0.0054153
0.00596931
0.00639673
0.00675943
0.00773287
0.00576009
0.0105649
0.036413
0.0616534
0.078848
0.0904149
0.098778
0.105177
0.110253
0.114378
0.117788
0.120646
0.123066
0.125135
0.126916
0.128457
0.129796
0.130963
0.131984
0.13288
0.133668
0.134363
0.134977
0.135525
0.136014
0.136455
0.136855
0.137221
0.137551
0.137843
0.138099
0.138323
0.138519
0.138693
0.138846
0.138982
0.139101
0.139207
0.139301
0.139384
0.139457
0.139522
0.13958
0.139631
0.139675
0.139715
0.139749
0.139779
0.139805
0.139827
0.139846
0.139861
0.139873
0.139883
0.13989
0.139895
0.139898
0.139899
0.139899
0.139897
0.139893
0.139888
0.139882
0.139876
0.139868
0.139861
0.139853
0.139841
0.0059891
0.00653906
0.00708608
0.00758715
0.00797829
0.00879952
0.00835851
0.00845986
0.0268482
0.0512705
0.0699117
0.0828922
0.0923636
0.0996475
0.105461
0.110213
0.114165
0.117496
0.120331
0.122766
0.12487
0.126697
0.128289
0.129681
0.130901
0.131972
0.132915
0.133747
0.134481
0.135132
0.135711
0.136228
0.136692
0.13711
0.137485
0.137816
0.138105
0.138358
0.138578
0.138771
0.138941
0.13909
0.139221
0.139335
0.139436
0.139524
0.139602
0.13967
0.139729
0.139782
0.139827
0.139867
0.139901
0.13993
0.139955
0.139977
0.139994
0.140008
0.140019
0.140027
0.140032
0.140034
0.140035
0.140033
0.14003
0.140025
0.140018
0.140009
0.139999
0.139989
0.139977
0.139965
0.139953
0.139934
0.00733238
0.00786317
0.00839847
0.00892364
0.00937639
0.00999685
0.0105136
0.00932279
0.0178768
0.0381526
0.0575488
0.0721356
0.0830453
0.0915079
0.0983157
0.103926
0.108621
0.112606
0.116021
0.118968
0.121531
0.123767
0.125725
0.127445
0.128958
0.130292
0.131469
0.132509
0.133429
0.134244
0.134968
0.135611
0.136184
0.136697
0.137153
0.137556
0.137908
0.138216
0.138484
0.138718
0.138923
0.139102
0.139258
0.139394
0.139513
0.139617
0.139707
0.139785
0.139854
0.139913
0.139965
0.140009
0.140047
0.14008
0.140107
0.140131
0.14015
0.140165
0.140176
0.140184
0.140189
0.140191
0.14019
0.140187
0.140182
0.140175
0.140166
0.140154
0.140141
0.140127
0.140111
0.140095
0.140079
0.140052
0.00898897
0.00953339
0.0100888
0.0106387
0.0111596
0.0116874
0.0124005
0.0123209
0.0135846
0.0249974
0.0422911
0.0578105
0.0703192
0.0802003
0.0882563
0.0949673
0.100628
0.105477
0.109663
0.1133
0.116485
0.119284
0.121748
0.123925
0.125853
0.12756
0.129073
0.130417
0.131609
0.132669
0.13361
0.134446
0.135191
0.135854
0.136443
0.136964
0.137421
0.137821
0.138171
0.138476
0.138743
0.138975
0.139178
0.139354
0.139507
0.139639
0.139755
0.139855
0.139941
0.140016
0.140081
0.140136
0.140184
0.140225
0.14026
0.140289
0.140313
0.140332
0.140347
0.140358
0.140366
0.140369
0.14037
0.140367
0.140362
0.140355
0.140344
0.140331
0.140316
0.140299
0.14028
0.14026
0.140241
0.140206
0.011185
0.0117719
0.0123821
0.012986
0.0135758
0.0141468
0.0147842
0.0154166
0.0155851
0.0181576
0.0276643
0.0412233
0.0543468
0.065418
0.0748404
0.0828339
0.0896465
0.095567
0.100727
0.105241
0.109235
0.112773
0.115909
0.118697
0.121186
0.123405
0.125382
0.127148
0.128725
0.130132
0.131387
0.132505
0.133504
0.134393
0.135185
0.135886
0.136506
0.137051
0.137529
0.137948
0.138314
0.138634
0.138914
0.139157
0.139368
0.139551
0.13971
0.139848
0.139967
0.140069
0.140158
0.140234
0.1403
0.140356
0.140404
0.140445
0.140479
0.140508
0.14053
0.140548
0.140561
0.14057
0.140575
0.140576
0.140573
0.140567
0.140558
0.140546
0.14053
0.140512
0.140491
0.140468
0.140447
0.140405
0.014221
0.014874
0.0155624
0.0162436
0.0169082
0.0175566
0.0182117
0.0189115
0.019556
0.0201438
0.02223
0.028233
0.037819
0.0484794
0.0585786
0.067556
0.0754409
0.0825312
0.0887915
0.0943223
0.0992924
0.103744
0.107717
0.111281
0.114493
0.11738
0.11997
0.122298
0.124394
0.126277
0.127965
0.129478
0.130835
0.132049
0.133134
0.134101
0.134959
0.13572
0.136392
0.136983
0.137503
0.13796
0.13836
0.138709
0.139014
0.139279
0.139509
0.139709
0.139882
0.140032
0.140161
0.140273
0.140369
0.140452
0.140523
0.140584
0.140636
0.14068
0.140717
0.140747
0.140771
0.140789
0.140802
0.14081
0.140814
0.140814
0.140809
0.1408
0.140787
0.14077
0.14075
0.140726
0.140704
0.140657
0.0184939
0.0191887
0.0199382
0.0206834
0.0214102
0.0221184
0.0228199
0.0235317
0.0242541
0.0249573
0.0257101
0.0270653
0.0301302
0.035595
0.0430145
0.0512542
0.0594158
0.0671175
0.074163
0.0805447
0.086523
0.0919545
0.0968472
0.101298
0.105367
0.109062
0.112403
0.115435
0.118193
0.120691
0.122946
0.124982
0.126822
0.128481
0.129971
0.131307
0.132504
0.133572
0.134523
0.135366
0.136112
0.136772
0.137354
0.137865
0.138313
0.138705
0.139048
0.139346
0.139606
0.139831
0.140027
0.140196
0.140343
0.14047
0.140579
0.140674
0.140755
0.140825
0.140884
0.140935
0.140977
0.141012
0.14104
0.141061
0.141077
0.141086
0.141091
0.14109
0.141084
0.141073
0.141057
0.141036
0.141016
0.140968
0.0243637
0.0250074
0.0257462
0.0264989
0.0272413
0.0279674
0.028682
0.029394
0.0301076
0.0308245
0.0315505
0.0323247
0.0333047
0.0348543
0.0374695
0.041464
0.0467529
0.0529274
0.0594537
0.0659497
0.0722554
0.0782205
0.083741
0.0889492
0.0938479
0.0983631
0.102489
0.106294
0.109812
0.113036
0.115972
0.118647
0.121092
0.123318
0.125334
0.127156
0.128802
0.130286
0.131619
0.132811
0.133875
0.134824
0.135667
0.136415
0.137075
0.137656
0.138168
0.138617
0.13901
0.139353
0.139652
0.139913
0.14014
0.140337
0.140508
0.140657
0.140786
0.140897
0.140994
0.141077
0.141149
0.14121
0.141262
0.141305
0.14134
0.141367
0.141387
0.141401
0.141408
0.141408
0.141402
0.141389
0.141376
0.141334
0.0319882
0.0324617
0.0330776
0.0337507
0.0344402
0.0351266
0.0358056
0.03648
0.037153
0.0378287
0.0385144
0.03922
0.0399615
0.0407807
0.0417767
0.0431243
0.0450523
0.0477625
0.0513227
0.0556465
0.0605457
0.0657642
0.0710578
0.0763122
0.0814393
0.0863327
0.0909198
0.0953115
0.0994997
0.103405
0.10701
0.110345
0.113452
0.116323
0.118952
0.12135
0.123542
0.125545
0.127365
0.129007
0.130487
0.131821
0.133019
0.134092
0.135048
0.135897
0.136651
0.137319
0.137909
0.138428
0.138884
0.139283
0.139633
0.13994
0.140208
0.140441
0.140644
0.140822
0.140977
0.141112
0.14123
0.141333
0.141422
0.141498
0.141564
0.141619
0.141665
0.141702
0.14173
0.14175
0.141762
0.141764
0.141765
0.141739
0.0413012
0.0415667
0.0419382
0.0424159
0.0429649
0.0435436
0.044133
0.0447269
0.0453241
0.0459263
0.0465383
0.0471662
0.0478157
0.0484929
0.049209
0.049989
0.0508828
0.0519729
0.0533684
0.055186
0.0575211
0.0604081
0.0638069
0.0676344
0.0717752
0.0760833
0.0804272
0.0847569
0.0890195
0.0931319
0.097027
0.100748
0.104373
0.107794
0.110975
0.113922
0.116671
0.11923
0.12159
0.123746
0.125713
0.12751
0.129148
0.130632
0.131968
0.133168
0.134246
0.135212
0.136074
0.13684
0.137518
0.138118
0.138648
0.139117
0.139528
0.13989
0.140207
0.140485
0.14073
0.140945
0.141134
0.1413
0.141445
0.141573
0.141685
0.141783
0.141868
0.141941
0.142002
0.142052
0.142092
0.14212
0.142143
0.142146
0.0520326
0.0521627
0.0523614
0.0525716
0.0528194
0.0531703
0.0535966
0.0540556
0.0545318
0.0550227
0.0555293
0.0560528
0.0565944
0.057156
0.0577399
0.0583498
0.0589926
0.0596819
0.0604422
0.0613122
0.062346
0.0636074
0.0651599
0.0670565
0.0693269
0.071963
0.0749227
0.0781533
0.0815891
0.0851418
0.0887251
0.0923018
0.0958521
0.0993191
0.102637
0.105798
0.108882
0.111848
0.114642
0.117239
0.119647
0.121903
0.124
0.125931
0.127692
0.129295
0.130757
0.132088
0.133292
0.134373
0.135341
0.136207
0.136983
0.137674
0.138288
0.138831
0.139311
0.139735
0.140111
0.140444
0.140738
0.140998
0.141227
0.141431
0.141612
0.141773
0.141915
0.14204
0.14215
0.142245
0.142327
0.142394
0.14245
0.142501
0.0638629
0.0638555
0.0639093
0.0639735
0.0640443
0.0641281
0.0642304
0.06439
0.0646489
0.0649768
0.06534
0.0657239
0.0661275
0.0665526
0.067
0.0674692
0.0679602
0.0684746
0.0690167
0.0695943
0.0702202
0.0709133
0.0716998
0.072613
0.073691
0.0749713
0.0764848
0.0782535
0.0802852
0.0825661
0.085064
0.0877431
0.0905664
0.0934825
0.096429
0.0993669
0.10229
0.105174
0.107972
0.110641
0.113179
0.115703
0.118114
0.120379
0.122481
0.124433
0.126259
0.127958
0.12952
0.130944
0.132237
0.133414
0.134483
0.13545
0.136319
0.137096
0.13779
0.138411
0.138965
0.13946
0.139899
0.140291
0.140639
0.140951
0.141229
0.141479
0.141702
0.141902
0.14208
0.142239
0.142379
0.142502
0.142605
0.142726
0.0762182
0.0760849
0.0760048
0.0759346
0.0758697
0.0758133
0.0757695
0.0757427
0.0757386
0.0757604
0.0758127
0.0759379
0.0761507
0.0764216
0.076725
0.0770476
0.0773882
0.0777497
0.0781346
0.0785447
0.0789813
0.0794483
0.079952
0.0805022
0.0811122
0.0817988
0.082582
0.0834845
0.0845293
0.0857363
0.0871197
0.0886867
0.0904379
0.0923621
0.0944355
0.0966304
0.0989232
0.101287
0.103684
0.106072
0.108436
0.110781
0.113084
0.115308
0.11742
0.119452
0.121458
0.123379
0.125185
0.126861
0.128416
0.129869
0.13122
0.132466
0.133602
0.134631
0.135566
0.136415
0.137184
0.137877
0.138499
0.139058
0.13956
0.140012
0.140421
0.140789
0.141121
0.14142