/*--------------------------------*- C++ -*----------------------------------*\
| =========                 |                                                 |
| \\      /  F ield         | OpenFOAM: The Open Source CFD Toolbox           |
|  \\    /   O peration     | Version:  5.x                                   |
|   \\  /    A nd           | Web:      www.OpenFOAM.org                      |
|    \\/     M anipulation  |                                                 |
\*---------------------------------------------------------------------------*/
FoamFile
{
    version     2.0;
    format      ascii;
    class       volScalarField;
    location    "50";
    object      nut;
}
// * * * * * * * * * * * * * * * * * * * * * * * * * * * * * * * * * * * * * //

dimensions      [0 2 -1 0 0 0 0];

internalField   nonuniform List<scalar> 
11040
(
0.00276783
0.00343198
0.00376611
0.00386461
0.00380008
0.003641
0.00345148
0.00326782
0.00311309
0.00296032
0.00275779
0.00255141
0.00238678
0.00226723
0.0021541
0.00204274
0.00193299
0.00182829
0.00172858
0.0016318
0.00153594
0.00145073
0.00137485
0.00129944
0.0012235
0.00114623
0.0010668
0.000984405
0.000898967
0.000816346
0.000776939
0.000494764
0.000437084
0.000401337
0.000381988
0.000367933
0.000354718
0.000364717
0.000445389
0.000545725
0.000660189
0.00782919
0.00838168
0.00766555
0.00692753
0.00617008
0.00551053
0.00494197
0.00459963
0.0045596
0.00455641
0.00449925
0.00436501
0.00420661
0.00404587
0.00386252
0.00367768
0.00350901
0.00336072
0.00322982
0.00311248
0.00300655
0.00291826
0.00284221
0.002771
0.00270423
0.00264047
0.00257826
0.00251587
0.00245182
0.00238744
0.00233355
0.00215138
0.00205172
0.00204964
0.00202907
0.00200294
0.00193967
0.00192259
0.00218186
0.0028659
0.00286673
0.0159698
0.0168032
0.0158174
0.0145611
0.0131673
0.0117854
0.0104956
0.00933243
0.00831127
0.00742148
0.00660616
0.00590537
0.00559344
0.00552287
0.0054215
0.00530701
0.0051955
0.00508987
0.0049926
0.00490518
0.00482837
0.00476857
0.00471738
0.00466754
0.0046188
0.00457097
0.00452386
0.00447724
0.00443129
0.00438675
0.00434462
0.00427096
0.00421555
0.00419495
0.0041957
0.00422358
0.00424781
0.00431609
0.00471459
0.00530145
0.00547535
0.0252778
0.026195
0.0251352
0.0235167
0.0216149
0.0196485
0.0177394
0.0159254
0.0142354
0.0126604
0.011113
0.0097545
0.00871947
0.00796713
0.00733235
0.00706787
0.00692084
0.00680898
0.00672101
0.00665251
0.00660117
0.00656835
0.00654483
0.00652351
0.00650254
0.00648139
0.00645996
0.00643837
0.00641739
0.00639862
0.00638394
0.00636765
0.00636428
0.00638424
0.00643417
0.00652244
0.00663048
0.00675077
0.00722653
0.00798567
0.00851586
0.0353836
0.0362843
0.0352537
0.0334383
0.0311912
0.0287447
0.0262606
0.0237783
0.0214104
0.0191751
0.0169657
0.0149775
0.0133796
0.0121205
0.0110189
0.0101015
0.00933522
0.0089226
0.00869779
0.00855666
0.00846896
0.00842146
0.00839583
0.00837951
0.00836899
0.00836287
0.00836014
0.00836016
0.00836316
0.00837073
0.00838573
0.00841078
0.00845455
0.00852677
0.00863814
0.00879901
0.00900526
0.00922169
0.00974777
0.0106738
0.0120859
0.0459135
0.0467492
0.0458062
0.0439517
0.0415356
0.0387195
0.0357118
0.0326741
0.0297215
0.0268789
0.0240296
0.0213894
0.0191813
0.0173994
0.015863
0.0145236
0.0133593
0.012341
0.0115017
0.0110336
0.0107724
0.0106189
0.0105194
0.0104457
0.0103938
0.0103599
0.0103405
0.0103329
0.0103362
0.0103511
0.0103805
0.0104294
0.0105061
0.0106214
0.0107877
0.0110174
0.0113181
0.011654
0.0122302
0.0132052
0.0150877
0.0565501
0.0572764
0.0564471
0.054677
0.0522286
0.0492816
0.0460485
0.0426797
0.0393077
0.0359745
0.0325664
0.0293151
0.0264948
0.0241359
0.0220622
0.020223
0.0185906
0.0171321
0.0158252
0.0146982
0.0139879
0.0135552
0.0132537
0.013031
0.0128672
0.0127407
0.0126426
0.0125685
0.0125163
0.0124868
0.0124833
0.0125121
0.0125824
0.0127058
0.012896
0.013167
0.0135334
0.0139746
0.0146053
0.0155568
0.0173625
0.0669406
0.0675613
0.0668586
0.0652533
0.0629272
0.0600696
0.056854
0.0534024
0.0498409
0.046217
0.0424258
0.0386973
0.0353406
0.0324277
0.029805
0.027433
0.0252891
0.023347
0.0215814
0.0199631
0.0185538
0.0175749
0.0169405
0.0164891
0.0161441
0.0158618
0.0156206
0.0154108
0.0152289
0.0150766
0.0149593
0.0148862
0.0148698
0.0149247
0.0150665
0.0153123
0.0156789
0.0161631
0.0168225
0.0177294
0.0192328
0.0768431
0.0773499
0.0767629
0.0753619
0.0732719
0.070658
0.0676507
0.0643393
0.0608236
0.0571419
0.0531985
0.0492014
0.0454655
0.0421011
0.0389981
0.0361347
0.0334985
0.0310716
0.028834
0.0267622
0.0248447
0.0233314
0.0222552
0.0214384
0.0207943
0.0202568
0.0197849
0.0193562
0.0189603
0.0185954
0.0182666
0.0179851
0.0177671
0.0176326
0.017602
0.017698
0.0179425
0.0183457
0.0189413
0.0197621
0.0209449
0.0860135
0.0864147
0.0859322
0.0847476
0.0829482
0.0806664
0.0779937
0.0749847
0.0717129
0.0681745
0.064303
0.0602693
0.0563659
0.0527318
0.0493219
0.0460978
0.0430622
0.0402158
0.0375486
0.0350472
0.0326957
0.0307735
0.029327
0.0281453
0.0271565
0.0262998
0.0255318
0.0248232
0.0241554
0.0235192
0.0229139
0.0223473
0.0218347
0.0213981
0.0210621
0.0208572
0.0208144
0.0209559
0.0213143
0.0219173
0.0227648
0.0942955
0.0946066
0.0942153
0.093238
0.0917376
0.0898165
0.0875372
0.08491
0.0819899
0.0787902
0.0752282
0.0714213
0.0676112
0.0639317
0.0603607
0.0569228
0.053633
0.0505103
0.0475266
0.0446786
0.0419592
0.0396653
0.0378747
0.0363675
0.0350737
0.0339284
0.0328834
0.0319061
0.0309739
0.0300721
0.0291938
0.0283397
0.0275192
0.0267488
0.0260497
0.0254546
0.0250009
0.0247184
0.0246475
0.0248304
0.0252075
0.101618
0.101856
0.10154
0.100747
0.0995239
0.0979488
0.0960656
0.0938618
0.0913822
0.0886294
0.0855263
0.0821446
0.0786622
0.0751856
0.0717039
0.0682577
0.0648794
0.0615946
0.0584155
0.0553467
0.0523906
0.0498216
0.0476635
0.0457825
0.0441837
0.0427958
0.0415345
0.040353
0.039222
0.0381216
0.0370391
0.0359684
0.034911
0.0338744
0.0328694
0.0319217
0.031065
0.0303262
0.0297463
0.0293808
0.0291304
0.107985
0.108161
0.107904
0.107265
0.106282
0.105014
0.103492
0.101698
0.099667
0.0973949
0.0948151
0.0919652
0.0889507
0.0858576
0.0826844
0.0794773
0.0762515
0.0730334
0.0698462
0.0667074
0.0636293
0.0609113
0.0585623
0.0563543
0.0543615
0.0526478
0.051152
0.0497967
0.048526
0.0473036
0.0461059
0.0449181
0.0437357
0.042554
0.0413727
0.0402064
0.0390777
0.0380018
0.0370083
0.0361534
0.0352892
0.113446
0.113565
0.113351
0.112839
0.112056
0.111047
0.109836
0.108404
0.10678
0.104957
0.102884
0.100562
0.0980805
0.0954846
0.0927661
0.0899527
0.0870671
0.084142
0.0811787
0.0781928
0.0752007
0.0725085
0.0701463
0.0678786
0.0657044
0.0636483
0.0617947
0.0601755
0.0587269
0.0573837
0.0561006
0.0548486
0.0536103
0.0523746
0.0511312
0.0498836
0.0486424
0.0474084
0.0461959
0.0450499
0.0437868
0.118059
0.118141
0.117965
0.117556
0.116937
0.116139
0.115182
0.114051
0.11277
0.111334
0.109692
0.107861
0.105893
0.103809
0.101598
0.0992724
0.0968447
0.0943296
0.0917402
0.0890881
0.0863932
0.0839214
0.0817057
0.0795511
0.0774549
0.07542
0.0734457
0.0715515
0.0698019
0.0682427
0.066829
0.0655046
0.0642301
0.06298
0.0617336
0.0604855
0.0592371
0.0579797
0.0567156
0.055476
0.0540775
0.121947
0.121997
0.121849
0.121519
0.121037
0.120403
0.119645
0.118756
0.117752
0.116631
0.115355
0.113937
0.11241
0.110785
0.109041
0.107191
0.105251
0.103217
0.101092
0.0988819
0.096595
0.0944628
0.0925262
0.0906226
0.0887526
0.0869153
0.085107
0.083324
0.0815708
0.0798604
0.0782143
0.0767048
0.0753295
0.074044
0.0728034
0.0715852
0.0703791
0.069168
0.0679472
0.0667352
0.0653795
0.125209
0.125233
0.125106
0.124839
0.124453
0.123951
0.123353
0.122656
0.121872
0.121001
0.120016
0.118927
0.117757
0.116504
0.115162
0.113736
0.112228
0.110639
0.108978
0.107237
0.105415
0.103692
0.102105
0.10053
0.0989709
0.0974264
0.0958963
0.0943786
0.09287
0.0913675
0.0898701
0.088385
0.0869226
0.0854954
0.0841348
0.0828667
0.0816714
0.0805104
0.0793622
0.07823
0.0769943
0.127814
0.127824
0.127716
0.127498
0.127185
0.126782
0.126304
0.125755
0.125133
0.124443
0.12367
0.122821
0.121914
0.120943
0.119908
0.11881
0.11765
0.116427
0.11514
0.113789
0.112374
0.111024
0.109772
0.108522
0.107279
0.106042
0.104812
0.103592
0.102377
0.101164
0.0999506
0.0987328
0.0975091
0.0962782
0.0950384
0.0937987
0.0925689
0.0913508
0.0901691
0.0890569
0.0878953
0.129822
0.129823
0.129731
0.12955
0.129291
0.128966
0.128573
0.128124
0.127619
0.127062
0.126448
0.125772
0.125051
0.124283
0.123468
0.122606
0.121698
0.120744
0.119741
0.11869
0.117589
0.116533
0.11555
0.114568
0.11359
0.112617
0.111647
0.110682
0.109721
0.108761
0.107807
0.106851
0.105893
0.104928
0.103951
0.102961
0.101959
0.100938
0.0998996
0.0988545
0.0977583
0.131399
0.131395
0.131316
0.131162
0.130944
0.130671
0.130344
0.12997
0.129557
0.129098
0.128595
0.128044
0.12746
0.126845
0.12619
0.1255
0.124776
0.124018
0.123224
0.122395
0.121529
0.120696
0.119919
0.119145
0.118374
0.117608
0.116845
0.116087
0.115333
0.114581
0.113832
0.113085
0.112337
0.111591
0.110839
0.110082
0.109318
0.108541
0.107747
0.10694
0.106089
0.132668
0.132662
0.132593
0.132461
0.132275
0.132041
0.131767
0.131452
0.131103
0.130718
0.130298
0.129846
0.129363
0.128857
0.128321
0.12776
0.127173
0.126561
0.125924
0.12526
0.12457
0.123906
0.123285
0.122667
0.122055
0.121447
0.120841
0.12024
0.119647
0.119058
0.118473
0.117891
0.117311
0.116734
0.116155
0.115574
0.114992
0.114404
0.113808
0.113206
0.112583
0.13371
0.133703
0.133643
0.133529
0.133367
0.133165
0.132928
0.132661
0.132362
0.132038
0.131682
0.131301
0.130897
0.130474
0.130032
0.129568
0.129085
0.128584
0.128064
0.127525
0.126969
0.126432
0.125929
0.125431
0.124935
0.124448
0.123964
0.123484
0.12301
0.122545
0.122084
0.121629
0.121176
0.120729
0.120282
0.119836
0.11939
0.118942
0.118491
0.118038
0.117578
0.13458
0.134573
0.13452
0.134419
0.134277
0.134101
0.133894
0.133661
0.133406
0.133126
0.132823
0.132498
0.132157
0.131799
0.131427
0.13104
0.130641
0.130225
0.129795
0.129352
0.128897
0.128457
0.128046
0.127639
0.127236
0.12684
0.126448
0.12606
0.125679
0.125304
0.124937
0.124578
0.124224
0.123874
0.123525
0.123179
0.122836
0.122493
0.122148
0.121804
0.121459
0.135316
0.135309
0.135261
0.135172
0.135047
0.134891
0.134709
0.134504
0.134281
0.134037
0.133775
0.133495
0.133202
0.132899
0.132582
0.132254
0.131917
0.13157
0.131214
0.130847
0.13047
0.130107
0.129767
0.129431
0.129101
0.128777
0.128455
0.128139
0.127829
0.127525
0.127227
0.126936
0.126653
0.126376
0.126102
0.125831
0.125564
0.125298
0.125034
0.124771
0.124513
0.135946
0.13594
0.135897
0.135816
0.135704
0.135565
0.135404
0.135223
0.135026
0.134814
0.134585
0.134343
0.134089
0.133827
0.133556
0.133277
0.13299
0.132695
0.132394
0.132087
0.131774
0.131471
0.131187
0.130907
0.130633
0.130363
0.130097
0.129837
0.129582
0.129332
0.129089
0.128852
0.128621
0.128397
0.128177
0.127964
0.127754
0.127547
0.127343
0.12714
0.126943
0.13649
0.136485
0.136445
0.136372
0.136271
0.136147
0.136003
0.135842
0.135667
0.135479
0.13528
0.135067
0.134847
0.134619
0.134383
0.134142
0.133897
0.133646
0.13339
0.133129
0.132865
0.13261
0.132372
0.132137
0.131907
0.131681
0.13146
0.131243
0.131031
0.130825
0.130624
0.130429
0.130239
0.130056
0.129877
0.129703
0.129535
0.129372
0.129211
0.129053
0.128902
0.136964
0.13696
0.136923
0.136857
0.136766
0.136654
0.136525
0.136381
0.136224
0.136057
0.13588
0.135694
0.1355
0.135301
0.135097
0.134889
0.134675
0.134459
0.134239
0.134018
0.133793
0.133576
0.133373
0.133174
0.13298
0.132789
0.132603
0.132421
0.132244
0.132071
0.131904
0.131742
0.131585
0.131433
0.131285
0.131143
0.131005
0.130872
0.130742
0.130617
0.130499
0.137379
0.137376
0.137342
0.137282
0.1372
0.137099
0.136982
0.136853
0.136712
0.136563
0.136404
0.136239
0.136068
0.135894
0.135716
0.135533
0.135348
0.135161
0.134971
0.134779
0.134587
0.134402
0.134228
0.134057
0.133891
0.133729
0.13357
0.133416
0.133267
0.133122
0.132982
0.132846
0.132714
0.132588
0.132465
0.132346
0.132233
0.132123
0.132016
0.131914
0.131819
0.137745
0.137742
0.137712
0.137658
0.137584
0.137492
0.137387
0.13727
0.137144
0.137009
0.136867
0.136719
0.136567
0.136412
0.136254
0.136093
0.135932
0.135768
0.135603
0.135438
0.135272
0.135112
0.134961
0.134814
0.134671
0.134531
0.134396
0.134265
0.134137
0.134014
0.133896
0.133781
0.13367
0.133563
0.133461
0.133361
0.133266
0.133175
0.133086
0.133002
0.132924
0.138069
0.138067
0.13804
0.137991
0.137924
0.137842
0.137747
0.137641
0.137527
0.137406
0.137278
0.137145
0.137009
0.13687
0.136729
0.136586
0.136443
0.136299
0.136156
0.136011
0.135868
0.135728
0.135597
0.135469
0.135345
0.135225
0.135108
0.134995
0.134886
0.13478
0.134679
0.134581
0.134487
0.134396
0.134309
0.134225
0.134145
0.134068
0.133994
0.133923
0.133858
0.138356
0.138355
0.138331
0.138288
0.138228
0.138153
0.138067
0.137972
0.137869
0.13776
0.137645
0.137526
0.137403
0.137278
0.137152
0.137025
0.136897
0.13677
0.136642
0.136516
0.136391
0.136269
0.136154
0.136042
0.135934
0.135829
0.135727
0.13563
0.135535
0.135444
0.135357
0.135273
0.135192
0.135114
0.13504
0.134968
0.1349
0.134834
0.134772
0.134711
0.134657
0.138612
0.138612
0.138591
0.138553
0.138499
0.138432
0.138355
0.138269
0.138176
0.138077
0.137974
0.137867
0.137757
0.137645
0.137532
0.137418
0.137304
0.13719
0.137077
0.136964
0.136854
0.136747
0.136645
0.136547
0.136452
0.13636
0.136271
0.136186
0.136104
0.136025
0.135949
0.135876
0.135806
0.135739
0.135675
0.135613
0.135554
0.135498
0.135444
0.135392
0.135346
0.138841
0.138841
0.138823
0.13879
0.138742
0.138683
0.138614
0.138537
0.138453
0.138364
0.138271
0.138174
0.138076
0.137976
0.137874
0.137773
0.137671
0.137569
0.137468
0.137368
0.13727
0.137174
0.137084
0.136997
0.136913
0.136832
0.136754
0.136679
0.136607
0.136538
0.136472
0.136408
0.136347
0.136289
0.136233
0.136179
0.136128
0.136079
0.136032
0.135988
0.135948
0.139047
0.139047
0.139031
0.139002
0.13896
0.138908
0.138847
0.138779
0.138704
0.138624
0.138541
0.138454
0.138365
0.138275
0.138184
0.138093
0.138002
0.137912
0.137822
0.137733
0.137646
0.137561
0.13748
0.137403
0.137328
0.137256
0.137187
0.13712
0.137057
0.136996
0.136938
0.136882
0.136828
0.136777
0.136728
0.136681
0.136636
0.136594
0.136553
0.136513
0.136478
0.139232
0.139232
0.139218
0.139193
0.139157
0.139112
0.139059
0.139
0.138934
0.138863
0.138788
0.13871
0.13863
0.138548
0.138467
0.138385
0.138304
0.138223
0.138143
0.138065
0.137988
0.137912
0.137841
0.137772
0.137705
0.13764
0.137578
0.137519
0.137463
0.137408
0.137357
0.137307
0.13726
0.137215
0.137172
0.13713
0.137091
0.137053
0.137017
0.136982
0.136951
0.139399
0.139399
0.139387
0.139364
0.139334
0.139297
0.139252
0.139201
0.139144
0.139082
0.139016
0.138946
0.138874
0.138801
0.138727
0.138654
0.138581
0.138508
0.138437
0.138367
0.138299
0.138232
0.138169
0.138107
0.138048
0.137991
0.137936
0.137883
0.137832
0.137784
0.137737
0.137693
0.137651
0.137611
0.137572
0.137535
0.1375
0.137466
0.137434
0.137403
0.137376
0.139551
0.139551
0.13954
0.139521
0.139497
0.139466
0.139429
0.139387
0.139338
0.139285
0.139227
0.139166
0.139102
0.139036
0.13897
0.138903
0.138837
0.138772
0.138708
0.138645
0.138585
0.138526
0.138469
0.138415
0.138362
0.138312
0.138263
0.138216
0.138171
0.138128
0.138086
0.138047
0.138009
0.137973
0.137939
0.137906
0.137875
0.137844
0.137815
0.137787
0.137762
0.139688
0.139688
0.139679
0.139665
0.139646
0.139622
0.139593
0.139559
0.139519
0.139474
0.139425
0.139372
0.139316
0.139258
0.139199
0.139139
0.139079
0.13902
0.138962
0.138906
0.138851
0.138798
0.138748
0.138699
0.138652
0.138607
0.138563
0.138521
0.138481
0.138443
0.138406
0.138371
0.138337
0.138305
0.138275
0.138245
0.138217
0.13819
0.138164
0.13814
0.138117
0.139811
0.139811
0.139805
0.139796
0.139784
0.139767
0.139745
0.139718
0.139688
0.139652
0.139613
0.139569
0.139522
0.139471
0.139419
0.139366
0.139312
0.139258
0.139206
0.139154
0.139105
0.139057
0.139011
0.138967
0.138925
0.138884
0.138845
0.138807
0.138771
0.138736
0.138703
0.138671
0.138641
0.138612
0.138585
0.138558
0.138533
0.138509
0.138485
0.138463
0.138443
0.139917
0.139918
0.139916
0.139913
0.139907
0.139896
0.139881
0.139863
0.139842
0.139817
0.13979
0.139758
0.139722
0.139683
0.139641
0.139595
0.139548
0.1395
0.139452
0.139404
0.139358
0.139313
0.13927
0.13923
0.13919
0.139153
0.139117
0.139082
0.139049
0.139018
0.138987
0.138958
0.13893
0.138904
0.138878
0.138854
0.138831
0.138808
0.138787
0.138766
0.138747
0.139987
0.139992
0.139994
0.139995
0.139993
0.139988
0.139981
0.139972
0.139962
0.13995
0.139937
0.139922
0.139905
0.139885
0.139861
0.139833
0.139801
0.139764
0.139725
0.139682
0.139639
0.139595
0.139553
0.139513
0.139474
0.139437
0.139402
0.139369
0.139337
0.139306
0.139277
0.13925
0.139223
0.139198
0.139174
0.139151
0.139129
0.139108
0.139088
0.139069
0.139052
0.140018
0.140023
0.140026
0.140028
0.140029
0.140028
0.140026
0.140022
0.140018
0.140012
0.140006
0.139999
0.139991
0.139984
0.139975
0.139965
0.139954
0.139941
0.139925
0.139907
0.139888
0.139867
0.139844
0.13982
0.139797
0.139772
0.139748
0.139724
0.1397
0.139676
0.139652
0.139628
0.139604
0.139581
0.139557
0.139534
0.139511
0.139489
0.139468
0.139447
0.13943
0.140034
0.140038
0.140042
0.140045
0.140047
0.140049
0.140049
0.140049
0.140048
0.140046
0.140044
0.140041
0.140037
0.140033
0.140029
0.140025
0.140021
0.140016
0.14001
0.140003
0.139995
0.139986
0.139976
0.139966
0.139955
0.139944
0.139933
0.139922
0.139911
0.1399
0.139889
0.139878
0.139866
0.139855
0.139844
0.139832
0.139821
0.139809
0.139798
0.139786
0.139776
0.14004
0.140044
0.140047
0.14005
0.140054
0.140057
0.140059
0.140061
0.140063
0.140064
0.140064
0.140064
0.140063
0.140062
0.14006
0.140059
0.140058
0.140056
0.140054
0.140052
0.140049
0.140046
0.140042
0.140037
0.140032
0.140027
0.140021
0.140015
0.14001
0.140004
0.139999
0.139993
0.139988
0.139982
0.139977
0.139971
0.139965
0.13996
0.139954
0.139948
0.139943
0.140039
0.140043
0.140046
0.140049
0.140052
0.140056
0.140059
0.140063
0.140066
0.140069
0.140071
0.140073
0.140075
0.140075
0.140076
0.140076
0.140076
0.140076
0.140077
0.140077
0.140077
0.140076
0.140075
0.140074
0.140072
0.14007
0.140067
0.140065
0.140061
0.140058
0.140055
0.140052
0.140049
0.140046
0.140043
0.14004
0.140037
0.140033
0.14003
0.140027
0.140024
0.140033
0.140036
0.140038
0.140041
0.140044
0.140047
0.140051
0.140054
0.140058
0.140062
0.140066
0.140069
0.140073
0.140075
0.140078
0.140079
0.140081
0.140082
0.140083
0.140084
0.140085
0.140087
0.140087
0.140088
0.140089
0.140089
0.140089
0.140088
0.140087
0.140085
0.140084
0.140082
0.14008
0.140079
0.140077
0.140075
0.140073
0.140071
0.140069
0.140067
0.140065
0.140023
0.140025
0.140026
0.140028
0.14003
0.140032
0.140035
0.140038
0.140041
0.140044
0.140048
0.140051
0.140055
0.140059
0.140062
0.140065
0.140067
0.140069
0.140071
0.140073
0.140074
0.140076
0.140077
0.140079
0.140081
0.140082
0.140084
0.140085
0.140086
0.140087
0.140088
0.140088
0.140088
0.140087
0.140087
0.140086
0.140086
0.140085
0.140084
0.140084
0.140083
0.140009
0.140009
0.14001
0.140011
0.140011
0.140012
0.140013
0.140015
0.140016
0.140017
0.140019
0.14002
0.140022
0.140023
0.140025
0.140026
0.140028
0.140029
0.14003
0.140029
0.140028
0.140026
0.140024
0.140022
0.140021
0.14002
0.140019
0.140019
0.140019
0.14002
0.14002
0.14002
0.14002
0.14002
0.14002
0.140019
0.140019
0.140019
0.140019
0.140019
0.140019
0.00322229
0.00396361
0.00460126
0.00621617
0.00789509
0.00824155
0.0279935
0.0608932
0.084486
0.0980867
0.106213
0.111503
0.115207
0.117962
0.120115
0.121873
0.123366
0.124677
0.125859
0.126944
0.127951
0.128891
0.129769
0.130587
0.131348
0.132052
0.1327
0.133294
0.133835
0.134327
0.134772
0.135175
0.135539
0.135867
0.136163
0.136429
0.13667
0.136888
0.137085
0.137263
0.137425
0.137572
0.137708
0.137835
0.137957
0.138074
0.138186
0.138294
0.138397
0.138493
0.138583
0.138666
0.138742
0.138811
0.138874
0.138929
0.138979
0.139022
0.13906
0.139093
0.139121
0.139145
0.139166
0.139182
0.139196
0.139207
0.139217
0.139225
0.139233
0.139241
0.139249
0.139259
0.139265
0.139289
0.00650518
0.00696692
0.00654882
0.00723867
0.00756405
0.00712779
0.027731
0.0615454
0.0858638
0.0998668
0.108225
0.113671
0.117479
0.120288
0.122454
0.124189
0.125629
0.126863
0.12795
0.128928
0.12982
0.130641
0.1314
0.132103
0.132753
0.133354
0.133905
0.134411
0.134871
0.13529
0.135668
0.13601
0.136319
0.136597
0.136846
0.137071
0.137273
0.137455
0.13762
0.137768
0.137903
0.138025
0.138138
0.138244
0.138345
0.138442
0.138535
0.138625
0.13871
0.138789
0.138863
0.13893
0.138991
0.139046
0.139095
0.139139
0.139176
0.139208
0.139235
0.139258
0.139277
0.139292
0.139304
0.139313
0.139319
0.139324
0.139327
0.13933
0.139332
0.139335
0.139339
0.139345
0.139347
0.139366
0.00977957
0.0109787
0.0104762
0.0105147
0.00924458
0.00667169
0.0259213
0.0599059
0.0853251
0.100245
0.10921
0.115075
0.119173
0.122172
0.124445
0.126223
0.127655
0.12884
0.129848
0.130726
0.131506
0.132208
0.132848
0.133435
0.133976
0.134475
0.134934
0.135356
0.135742
0.136094
0.136413
0.136703
0.136964
0.1372
0.137412
0.137602
0.137773
0.137927
0.138066
0.138191
0.138304
0.138407
0.138502
0.138591
0.138675
0.138757
0.138835
0.13891
0.138981
0.139047
0.139107
0.139162
0.139211
0.139255
0.139293
0.139326
0.139354
0.139377
0.139395
0.13941
0.139421
0.139429
0.139434
0.139437
0.139438
0.139437
0.139435
0.139433
0.139431
0.13943
0.139429
0.139431
0.13943
0.139444
0.0119841
0.0143562
0.014793
0.0150713
0.013511
0.0084027
0.0235072
0.0562638
0.082804
0.0990473
0.108984
0.115545
0.12015
0.123507
0.12602
0.127941
0.129436
0.130623
0.131587
0.132386
0.133065
0.133654
0.134175
0.134645
0.135074
0.135469
0.135835
0.136173
0.136486
0.136773
0.137038
0.137279
0.137499
0.137698
0.137877
0.138039
0.138185
0.138317
0.138436
0.138543
0.138639
0.138727
0.138808
0.138884
0.138956
0.139025
0.139091
0.139154
0.139214
0.139269
0.139319
0.139364
0.139404
0.139439
0.139468
0.139493
0.139514
0.13953
0.139541
0.13955
0.139555
0.139557
0.139557
0.139555
0.139551
0.139546
0.13954
0.139534
0.139528
0.139523
0.139519
0.139517
0.139513
0.139522
0.0138185
0.016783
0.0183212
0.0193663
0.0188029
0.0130464
0.0220158
0.0512737
0.0783394
0.0960844
0.107298
0.114834
0.120186
0.124109
0.127037
0.129243
0.130917
0.132194
0.133176
0.133941
0.134546
0.135036
0.135445
0.135797
0.13611
0.136395
0.13666
0.136909
0.137143
0.137364
0.137571
0.137765
0.137944
0.138109
0.13826
0.138397
0.138522
0.138636
0.138739
0.138832
0.138916
0.138992
0.139062
0.139128
0.139191
0.13925
0.139307
0.139361
0.139412
0.139459
0.139501
0.139538
0.139571
0.139599
0.139622
0.139641
0.139656
0.139666
0.139673
0.139677
0.139678
0.139676
0.139672
0.139665
0.139658
0.139649
0.13964
0.139631
0.139622
0.139614
0.139607
0.139602
0.139596
0.139599
0.0173987
0.0187666
0.0207729
0.0225868
0.0233092
0.0192387
0.0227523
0.0460949
0.0722465
0.0912417
0.103884
0.112623
0.118964
0.12369
0.127252
0.12994
0.131959
0.133464
0.134574
0.135385
0.135975
0.136403
0.136719
0.13696
0.137154
0.137321
0.137474
0.137621
0.137765
0.137909
0.138051
0.13819
0.138326
0.138455
0.138576
0.13869
0.138795
0.138893
0.138983
0.139065
0.139139
0.139207
0.13927
0.139329
0.139384
0.139437
0.139487
0.139534
0.139578
0.139618
0.139655
0.139686
0.139714
0.139737
0.139756
0.13977
0.139781
0.139788
0.139791
0.139791
0.139789
0.139784
0.139777
0.139768
0.139758
0.139747
0.139735
0.139724
0.139712
0.139702
0.139692
0.139685
0.139677
0.139676
0.0199891
0.02192
0.022694
0.024783
0.0263449
0.0248294
0.0256712
0.0419988
0.0652133
0.0845897
0.0985114
0.108556
0.116077
0.12184
0.126286
0.129701
0.132295
0.134231
0.135642
0.13664
0.13732
0.137764
0.138037
0.138195
0.13828
0.138326
0.138355
0.138383
0.138419
0.138466
0.138526
0.138597
0.138676
0.138761
0.138847
0.138933
0.139018
0.139099
0.139176
0.139249
0.139316
0.139378
0.139435
0.139489
0.139539
0.139587
0.139632
0.139675
0.139714
0.13975
0.139782
0.13981
0.139834
0.139853
0.139869
0.139881
0.139889
0.139893
0.139894
0.139893
0.139888
0.139881
0.139873
0.139862
0.139851
0.139838
0.139825
0.139811
0.139798
0.139786
0.139774
0.139765
0.139755
0.139749
0.0217365
0.0240436
0.025661
0.0269846
0.0283921
0.0286598
0.029289
0.0395049
0.0580741
0.0764274
0.0910599
0.102281
0.111051
0.118029
0.123602
0.128021
0.131473
0.134114
0.136078
0.137483
0.138439
0.139042
0.13938
0.139526
0.139545
0.139487
0.139391
0.139286
0.13919
0.139115
0.139066
0.139043
0.139045
0.139067
0.139103
0.139151
0.139207
0.139267
0.139329
0.139391
0.139451
0.139508
0.139562
0.139612
0.139659
0.139704
0.139746
0.139786
0.139822
0.139855
0.139885
0.13991
0.139932
0.13995
0.139964
0.139974
0.13998
0.139984
0.139984
0.139981
0.139976
0.139968
0.139958
0.139947
0.139934
0.139921
0.139907
0.139892
0.139878
0.139864
0.139851
0.13984
0.139829
0.13982
0.0230411
0.0252845
0.0274121
0.0292305
0.0307548
0.0314027
0.0322391
0.0381034
0.0513263
0.0671518
0.0815355
0.0935083
0.103401
0.111646
0.11852
0.124199
0.128818
0.132496
0.135342
0.137469
0.138983
0.13999
0.14059
0.140878
0.140938
0.140843
0.140656
0.140424
0.140184
0.139961
0.13977
0.139618
0.139508
0.139435
0.139396
0.139383
0.139393
0.139419
0.139457
0.139503
0.139552
0.139603
0.139653
0.139701
0.139746
0.13979
0.13983
0.139868
0.139903
0.139935
0.139964
0.139988
0.140009
0.140026
0.14004
0.14005
0.140056
0.140059
0.140059
0.140056
0.140051
0.140043
0.140034
0.140022
0.140009
0.139996
0.139981
0.139966
0.139952
0.139937
0.139923
0.139911
0.139899
0.139888
0.0244094
0.026294
0.028366
0.0304758
0.0324969
0.0341134
0.0351512
0.0376777
0.0454403
0.057291
0.0701405
0.0821156
0.0927521
0.102112
0.110302
0.117394
0.123442
0.128489
0.132596
0.135838
0.138299
0.140073
0.14126
0.141964
0.142285
0.142318
0.142151
0.141857
0.141498
0.141122
0.140764
0.140445
0.140178
0.139966
0.139807
0.139697
0.139628
0.139594
0.139588
0.139603
0.139633
0.139671
0.139714
0.139759
0.139803
0.139846
0.139886
0.139924
0.139959
0.139991
0.14002
0.140045
0.140066
0.140084
0.140098
0.140109
0.140116
0.14012
0.14012
0.140118
0.140114
0.140107
0.140098
0.140087
0.140075
0.140062
0.140048
0.140033
0.140018
0.140004
0.13999
0.139977
0.139964
0.13995
0.0264381
0.0279173
0.0296129
0.0314906
0.0335237
0.0356149
0.0375137
0.0393735
0.042735
0.0488664
0.0582466
0.0688319
0.0793454
0.0892797
0.0984714
0.106871
0.114423
0.12105
0.126738
0.131499
0.135357
0.138364
0.140594
0.142138
0.143096
0.143573
0.143675
0.143501
0.143143
0.142679
0.142171
0.14167
0.141208
0.140805
0.140471
0.140207
0.140009
0.139869
0.139781
0.139735
0.139721
0.139731
0.139757
0.139792
0.139832
0.139874
0.139915
0.139954
0.13999
0.140023
0.140053
0.14008
0.140103
0.140123
0.140139
0.140151
0.14016
0.140165
0.140168
0.140167
0.140165
0.140159
0.140152
0.140142
0.140131
0.140119
0.140106
0.140092
0.140078
0.140063
0.140049
0.140036
0.140024
0.140008
0.0299348
0.031031
0.0323037
0.0337308
0.0353423
0.037165
0.0391602
0.0412303
0.0435285
0.046649
0.0514854
0.058192
0.0662524
0.074949
0.0838939
0.0928578
0.101487
0.109461
0.116744
0.123244
0.128857
0.133548
0.137338
0.140265
0.142395
0.143815
0.144629
0.144946
0.144879
0.144536
0.144013
0.143396
0.142753
0.142134
0.141573
0.14109
0.140692
0.140379
0.140147
0.139985
0.139882
0.139827
0.13981
0.139818
0.139844
0.13988
0.13992
0.139959
0.139997
0.140032
0.140064
0.140093
0.140119
0.140142
0.14016
0.140176
0.140187
0.140196
0.140201
0.140203
0.140203
0.140199
0.140194
0.140187
0.140178
0.140167
0.140155
0.140142
0.140129
0.140116
0.140102
0.140089
0.140077
0.140061
0.0356647
0.0363927
0.0372682
0.0382523
0.0393615
0.040634
0.0421119
0.0438119
0.0457288
0.0479293
0.0506668
0.0542964
0.0590672
0.0649788
0.0718352
0.0793702
0.087217
0.0948219
0.102864
0.110688
0.117886
0.124355
0.130026
0.13481
0.138679
0.141659
0.143806
0.145204
0.145955
0.146176
0.145988
0.145506
0.144839
0.14408
0.143305
0.142567
0.141904
0.141337
0.140875
0.140517
0.140252
0.140069
0.139952
0.139883
0.139865
0.139879
0.139911
0.139947
0.139983
0.140018
0.140052
0.140084
0.140113
0.14014
0.140163
0.140182
0.140198
0.14021
0.140219
0.140225
0.140227
0.140227
0.140225
0.14022
0.140214
0.140205
0.140195
0.140184
0.140173
0.14016
0.140148
0.140136
0.140124
0.140108
0.0437926
0.0441834
0.0446993
0.0452937
0.0459701
0.0467495
0.0476638
0.0487519
0.0500501
0.0515886
0.053413
0.0556193
0.058357
0.061788
0.0660272
0.0711065
0.0769332
0.083264
0.0900625
0.097092
0.103956
0.111103
0.118157
0.124653
0.130424
0.13538
0.139445
0.142598
0.144877
0.146356
0.147133
0.147326
0.147065
0.146478
0.145684
0.144789
0.143878
0.143014
0.142243
0.141589
0.14106
0.140654
0.140355
0.140147
0.140019
0.139965
0.139952
0.139954
0.139967
0.139991
0.140024
0.140056
0.140086
0.140117
0.140144
0.140168
0.140189
0.140206
0.14022
0.140231
0.140238
0.140242
0.140243
0.140242
0.140239
0.140233
0.140226
0.140217
0.140208
0.140197
0.140186
0.140175
0.140164
0.140149
0.0538142
0.0539261
0.0541414
0.0544167
0.054751
0.055155
0.0556453
0.0562449
0.0569832
0.0578937
0.0590107
0.0603715
0.0620251
0.0640398
0.066502
0.0695035
0.073116
0.0773552
0.082202
0.0875663
0.0932646
0.0992874
0.105488
0.111597
0.117995
0.124342
0.13019
0.135329
0.139649
0.14308
0.14561
0.147282
0.148184
0.148431
0.148158
0.147504
0.146603
0.145576
0.144525
0.143527
0.142638
0.141886
0.141281
0.14082
0.140484
0.14026
0.140153
0.14009
0.140055
0.140037
0.140028
0.140031
0.140045
0.140077
0.140106
0.140133
0.140159
0.140182
0.140202
0.140219
0.140232
0.140242
0.140248
0.140251
0.140252
0.14025
0.140247
0.140241
0.140234
0.140226
0.140217
0.140207
0.140198
0.140184
0.0649426
0.0648423
0.064824
0.0648527
0.0649268
0.0650528
0.0652403
0.0655014
0.0658519
0.0663116
0.0669045
0.0676569
0.0685974
0.0697578
0.0711766
0.0729014
0.0749889
0.0774978
0.0804783
0.0839574
0.0879178
0.09232
0.0970828
0.102082
0.107336
0.112738
0.118087
0.123779
0.129473
0.13473
0.139317
0.14309
0.145972
0.147956
0.149099
0.1495
0.149292
0.148622
0.147641
0.146492
0.145296
0.144151
0.143124
0.142256
0.141559
0.141035
0.140665
0.14042
0.140292
0.140204
0.140144
0.140105
0.140083
0.140077
0.140073
0.140084
0.140111
0.140138
0.140163
0.140186
0.140206
0.140223
0.140236
0.140246
0.140252
0.140255
0.140256
0.140254
0.140251
0.140245
0.140239
0.140232
0.140224
0.140212
0.076452
0.0761988
0.0760068
0.0758505