/*--------------------------------*- C++ -*----------------------------------*\
| =========                 |                                                 |
| \\      /  F ield         | OpenFOAM: The Open Source CFD Toolbox           |
|  \\    /   O peration     | Version:  5.x                                   |
|   \\  /    A nd           | Web:      www.OpenFOAM.org                      |
|    \\/     M anipulation  |                                                 |
\*---------------------------------------------------------------------------*/
FoamFile
{
    version     2.0;
    format      ascii;
    class       volScalarField;
    location    "50";
    object      nut;
}
// * * * * * * * * * * * * * * * * * * * * * * * * * * * * * * * * * * * * * //

dimensions      [0 2 -1 0 0 0 0];

internalField   nonuniform List<scalar> 
41860
(
1.66281e-06
5.22646e-06
6.76761e-05
8.09393e-05
8.00342e-05
7.10048e-05
5.63546e-05
4.13672e-05
2.82556e-05
1.86993e-05
1.19285e-05
7.72596e-06
4.82713e-06
3.23919e-06
2.10587e-06
1.74629e-06
1.51412e-06
1.44545e-06
1.58819e-06
3.69067e-06
4.23501e-06
1.55685e-06
5.63205e-06
1.51084e-06
3.8181e-06
1.50269e-06
1.47418e-06
5.01564e-06
1.41346e-06
1.38942e-06
1.46642e-06
2.76954e-06
1.54831e-06
1.46544e-06
1.94596e-06
1.45398e-06
2.85329e-06
1.78199e-06
4.09737e-06
1.19486e-06
1.18849e-06
1.4055e-06
1.35329e-06
1.23702e-06
1.18372e-06
1.26691e-06
1.31457e-06
1.49557e-06
1.4973e-06
1.52037e-06
1.57511e-06
1.56484e-06
1.59642e-06
1.60739e-06
1.52934e-06
1.40744e-06
1.29936e-06
8.21709e-06
1.51498e-06
1.73213e-06
2.03321e-06
8.47236e-06
8.47813e-06
8.53171e-06
1.72751e-06
1.7111e-06
1.66065e-06
1.64999e-06
8.68817e-06
2.08533e-06
7.81149e-06
1.85639e-06
2.04578e-06
6.82552e-06
6.91017e-06
2.29285e-06
1.84609e-06
1.89283e-06
3.7419e-06
2.25536e-06
9.52812e-06
2.64576e-07
0.000139211
0.000187432
0.000473322
0.000524701
0.000521343
0.000485278
0.00042888
0.000371433
0.000318607
0.000272584
0.000232912
0.000201167
0.000172398
0.000151081
0.000132744
0.000126652
0.000119076
0.000114784
0.000111275
0.000103478
0.000101094
9.87991e-05
9.42297e-05
9.40522e-05
9.04087e-05
9.11093e-05
8.86513e-05
8.67041e-05
8.59222e-05
8.5136e-05
9.07397e-05
8.45146e-05
8.49456e-05
8.79649e-05
8.48537e-05
9.0323e-05
8.57832e-05
8.68734e-05
8.77092e-05
8.96941e-05
9.17852e-05
9.34839e-05
8.16712e-05
7.89811e-05
7.97195e-05
8.01043e-05
8.07009e-05
8.52987e-05
8.37502e-05
8.90905e-05
8.73773e-05
8.95943e-05
8.93063e-05
8.7146e-05
8.70773e-05
8.45751e-05
8.53793e-05
8.80587e-05
8.86491e-05
9.54312e-05
9.13622e-05
9.16876e-05
9.21224e-05
9.33498e-05
9.34414e-05
9.77143e-05
9.36197e-05
9.4812e-05
9.62937e-05
0.000103976
9.8282e-05
9.85848e-05
0.000102881
0.000100301
0.000101401
0.00010934
0.000105545
0.000102108
0.000104899
0.000107649
0.000105891
5.57713e-07
0.000198898
0.000239381
0.000594757
0.000660084
0.000660839
0.000614286
0.000544488
0.000472561
0.000405814
0.000347729
0.000298884
0.000257618
0.000225115
0.000195734
0.000181767
0.000177035
0.000173777
0.000174055
0.000172321
0.000171531
0.000169256
0.000171145
0.000166797
0.000168454
0.00016513
0.000165668
0.000164596
0.000160361
0.000161532
0.000159992
0.00015984
0.000156152
0.000155829
0.000156187
0.000153943
0.000155081
0.000152303
0.00015252
0.000151276
0.000152807
0.00015302
0.000153565
0.00015166
0.000151138
0.00015142
0.000151472
0.000151996
0.000152967
0.000152912
0.00015424
0.000153973
0.000154957
0.000154753
0.000154896
0.000154737
0.00015457
0.000155217
0.000153908
0.000157117
0.000158896
0.000158291
0.000156901
0.000157928
0.000158558
0.000161346
0.000162944
0.000162163
0.000163485
0.000161669
0.000166674
0.000163627
0.000166502
0.000167773
0.000166131
0.000166748
0.000170785
0.000170746
0.000169856
0.000170393
0.000170737
0.000173123
1.16266e-06
0.000290213
0.000342133
0.000773149
0.000849784
0.000881872
0.000830412
0.00076668
0.000695119
0.000622581
0.000554774
0.000496024
0.000434921
0.000392508
0.00034072
0.000312695
0.000290227
0.000282141
0.000279037
0.00027181
0.000271461
0.000265344
0.000263364
0.000258084
0.000255704
0.000251391
0.000248615
0.000245768
0.000241101
0.000239598
0.00023665
0.000234211
0.000230887
0.000228723
0.000226971
0.000225692
0.000223662
0.000223136
0.000221401
0.000220046
0.000220185
0.000219194
0.0002197
0.000218139
0.000218755
0.000218054
0.00021815
0.000218691
0.000218049
0.000219029
0.000218618
0.000219154
0.000219442
0.000219325
0.000220392
0.000219499
0.000220672
0.000220812
0.000220778
0.000222408
0.000222855
0.0002241
0.000223182
0.000224978
0.000224884
0.000227349
0.000227914
0.000228212
0.000229618
0.000228412
0.000231647
0.000230227
0.000232824
0.000232814
0.000233266
0.000233567
0.000235458
0.000236405
0.000235913
0.00023713
0.000234294
0.000243283
2.38545e-06
0.000427815
0.000553029
0.00113913
0.00123652
0.00133998
0.00127497
0.00120693
0.00111038
0.00100053
0.000892038
0.000794996
0.000694334
0.000621789
0.000538266
0.000486497
0.000431649
0.000406613
0.000394182
0.00037854
0.000374743
0.000363556
0.000356773
0.000348782
0.000342448
0.000335953
0.000330017
0.000324792
0.000318798
0.000314813
0.000310238
0.000306245
0.000302287
0.000298109
0.000294925
0.000293853
0.000289542
0.000290593
0.000286792
0.000285562
0.000284564
0.000282901
0.000283375
0.0002803
0.000281625
0.000279614
0.000280159
0.00028048
0.000279096
0.000280846
0.000279336
0.000280586
0.000280122
0.000280546
0.000281763
0.000280311
0.000282243
0.000281839
0.00028313
0.000283362
0.00028386
0.000285754
0.000285152
0.00028735
0.000286787
0.000289389
0.000289418
0.000290241
0.000291508
0.000290958
0.00029356
0.000292737
0.000295213
0.000294624
0.000296352
0.000296204
0.000297507
0.000298685
0.000298216
0.000299957
0.000294582
0.000310081
4.77229e-06
0.000627119
0.000844439
0.00172088
0.00186241
0.00201329
0.00191159
0.00179782
0.00164201
0.00146932
0.00130139
0.00115144
0.00100243
0.000890569
0.000770809
0.000690211
0.000605279
0.000549575
0.00051947
0.000492654
0.000481822
0.000464342
0.000451971
0.000439844
0.000429403
0.000419707
0.0004106
0.000402553
0.000394462
0.000388157
0.000381736
0.000376104
0.000371016
0.000364652
0.000360321
0.000358911
0.000352698
0.000354862
0.000348949
0.000347855
0.000345732
0.000343586
0.00034392
0.000338866
0.000340713
0.000337203
0.000338395
0.000338344
0.000336495
0.0003389
0.000336448
0.000338415
0.000337115
0.000338354
0.000339381
0.000337599
0.000340045
0.000339148
0.000341474
0.000340624
0.000341567
0.000343537
0.000343213
0.000345569
0.000344723
0.000347795
0.000347382
0.000348708
0.000349712
0.00034963
0.000352031
0.000351431
0.000353994
0.000353116
0.000355627
0.000355
0.000356257
0.000357425
0.000357026
0.000359045
0.000351367
0.000374043
9.19098e-06
0.00091157
0.00121359
0.00242946
0.00262383
0.00279363
0.00264512
0.00246797
0.00224014
0.00199513
0.00176018
0.00155077
0.00134896
0.00119281
0.00103397
0.000920925
0.000806497
0.000721158
0.000658564
0.000616357
0.000594788
0.000569363
0.000550282
0.000532882
0.00051769
0.000503974
0.000491341
0.000480001
0.000469262
0.000460495
0.000451947
0.000444444
0.000437808
0.000429152
0.000423602
0.000421533
0.000413496
0.000416357
0.000408326
0.000407178
0.000403859
0.000401149
0.000401245
0.000394009
0.000396125
0.000391103
0.00039294
0.000392525
0.000390297
0.000393279
0.00038999
0.000392621
0.000390512
0.000392593
0.00039333
0.000391357
0.000394181
0.000392873
0.000396053
0.000394326
0.000395766
0.000397606
0.000397588
0.000399987
0.000398982
0.000402587
0.000401819
0.000403636
0.000404374
0.000404659
0.000406996
0.000406542
0.000409267
0.000408245
0.000411325
0.000410281
0.000411605
0.00041269
0.000412388
0.000414693
0.000404676
0.000435718
1.67755e-05
0.00128718
0.00166855
0.00322508
0.00346914
0.00364056
0.00344048
0.00319276
0.0028877
0.00256614
0.00226033
0.00198779
0.00173043
0.00152672
0.00132682
0.00117856
0.00103372
0.000920734
0.000823349
0.000755182
0.000717035
0.000681614
0.000653966
0.000629964
0.000609107
0.000590576
0.00057375
0.000558525
0.000544627
0.000533061
0.000522002
0.000512323
0.000503631
0.00049263
0.000485524
0.000482575
0.000472565
0.000475666
0.000465502
0.000463885
0.000459309
0.000455704
0.000455485
0.000445878
0.000447918
0.00044148
0.0004438
0.000443205
0.000440578
0.000444104
0.000440082
0.000443279
0.000440493
0.000443212
0.000443752
0.000441563
0.000444741
0.000443062
0.000446971
0.000444575
0.000446398
0.000448145
0.000448384
0.000450883
0.000449755
0.00045391
0.000452889
0.000455151
0.00045572
0.000456246
0.000458638
0.000458301
0.000461281
0.000460152
0.000463743
0.000462391
0.000463794
0.000464785
0.000464556
0.000467335
0.000454805
0.000495703
2.85839e-05
0.00177094
0.00222296
0.00409992
0.00438318
0.00454046
0.00428475
0.00396235
0.00357748
0.0031773
0.00279857
0.00246068
0.00214613
0.00189258
0.00165036
0.0014648
0.00128847
0.00114774
0.0010211
0.000924477
0.000854799
0.000805144
0.00076723
0.000734421
0.000706478
0.00068208
0.000660137
0.000640381
0.000622746
0.000607812
0.000593675
0.000581431
0.000570029
0.000556596
0.000547393
0.000543315
0.000530979
0.000533755
0.000521387
0.000518658
0.000512765
0.000507706
0.000507055
0.000494872
0.000496381
0.000488686
0.00049121
0.000490757
0.000487654
0.000491728
0.000487087
0.000490705
0.000487478
0.000490421
0.000491006
0.000488402
0.000492012
0.000489955
0.000494482
0.0004917
0.000493695
0.000495578
0.000495919
0.000498767
0.000497465
0.000502251
0.000501074
0.00050371
0.000504297
0.000504847
0.000507484
0.000507186
0.000510599
0.000509347
0.000513479
0.000511959
0.000513489
0.000514463
0.000514271
0.000517842
0.000502513
0.000554901
4.50634e-05
0.00238732
0.00289497
0.00505952
0.0053646
0.00548928
0.00517283
0.00477252
0.00430647
0.00382691
0.0033744
0.00297005
0.00259757
0.00229277
0.00200763
0.00178331
0.00157463
0.00140567
0.00125128
0.00113112
0.00102617
0.000949644
0.00089599
0.000851622
0.000815082
0.000782814
0.000754249
0.000729133
0.000706895
0.000687764
0.000669902
0.000654617
0.00063967
0.000623427
0.000611396
0.000605772
0.000590558
0.00059227
0.000577477
0.000572789
0.000565442
0.000558162
0.000556826
0.000541876
0.00054229
0.00053348
0.000535857
0.00053597
0.000532309
0.000536955
0.00053184
0.000535667
0.000532337
0.000534888
0.000535875
0.000532486
0.000536687
0.000534238
0.000539267
0.000536526
0.000538428
0.000540881
0.000541066
0.000544716
0.000543118
0.000548695
0.000547459
0.000550328
0.000551227
0.000551428
0.000554596
0.000554156
0.000558264
0.00055688
0.000561668
0.000560143
0.000561918
0.00056316
0.000563035
0.000567872
0.000549318
0.000614793
6.58287e-05
0.00316764
0.00370738
0.00611812
0.00642043
0.00648903
0.00610459
0.00562303
0.00507504
0.00451629
0.00399018
0.00351924
0.003089
0.00273234
0.0024044
0.00214055
0.00189895
0.00170152
0.00151923
0.00137728
0.00124449
0.00114084
0.00105731
0.000992193
0.000942354
0.00089936
0.000863091
0.000831192
0.000802468
0.00077771
0.000755347
0.000736255
0.000716669
0.0006967
0.000680961
0.000673274
0.000654431
0.000654011
0.000636236
0.000628583
0.000619428
0.000608996
0.000606431
0.000588563
0.000587264
0.000577348
0.000579171
0.000580338
0.000576068
0.000581335
0.00057593
0.000579647
0.000576637
0.000577995
0.000579839
0.000575167
0.000580174
0.000577387
0.00058281
0.000580737
0.000582285
0.000585964
0.000585656
0.000590741
0.000588681
0.000595237
0.000594051
0.000596866
0.000598501
0.000597766
0.000601847
0.000600932
0.000606037
0.000604578
0.000610268
0.000608929
0.000611103
0.000613211
0.000613503
0.000620292
0.000598132
0.000678053
9.00847e-05
0.00415083
0.00468815
0.00729793
0.0075656
0.00754811
0.0070851
0.00651816
0.00588766
0.00525067
0.00465206
0.00411533
0.00362843
0.00322015
0.00285025
0.00254686
0.0022721
0.00204636
0.00183546
0.0016722
0.00151399
0.00138775
0.00128076
0.00118781
0.00110904
0.00104585
0.000997525
0.000955116
0.000917334
0.000886264
0.000858342
0.000833493
0.000807588
0.000781853
0.000761313
0.000750963
0.000727434
0.000723404
0.00070141
0.000689665
0.000678023
0.000663359
0.00065873
0.000637843
0.00063418
0.000623123
0.000623875
0.000626668
0.000621775
0.000627686
0.0006222
0.000625311
0.000623039
0.000622349
0.000625574
0.000619201
0.000625241
0.000622329
0.0006281
0.000627518
0.000628565
0.000634257
0.000633094
0.000640251
0.000637579
0.000645149
0.000644206
0.000646469
0.000649424
0.00064704
0.000652481
0.000650665
0.000657016
0.00065563
0.000662489
0.000661696
0.000664183
0.000667962
0.000669576
0.000679297
0.000653522
0.000749081
0.000117266
0.00538465
0.00587036
0.00862924
0.00882384
0.00868288
0.00812617
0.0074682
0.00675438
0.00604059
0.00537146
0.0047706
0.00422909
0.00377029
0.00335996
0.00301783
0.00270984
0.00245632
0.0022159
0.00203111
0.00184768
0.00169927
0.00157159
0.00145642
0.00135406
0.00126571
0.00118945
0.0011228
0.00106758
0.00102676
0.000989903
0.000955379
0.00092096
0.00088821
0.000861918
0.000847439
0.000817428
0.000807751
0.000778892
0.000761941
0.000746507
0.00072639
0.000718613
0.000694532
0.000687869
0.000675676
0.000674559
0.000679537
0.00067391
0.000680393
0.000674983
0.000676795
0.000675441
0.000672053
0.00067739
0.000669237
0.000676581
0.000673871
0.000680092
0.000681862
0.000682488
0.00069092
0.000688564
0.000698204
0.000694779
0.000703129
0.000702696
0.00070379
0.00070879
0.000704218
0.000711598
0.000708551
0.00071624
0.000715126
0.000723364
0.000723952
0.000726271
0.000732106
0.000736972
0.000750724
0.000722788
0.000836347
0.000147318
0.00692684
0.00728934
0.0101507
0.0102285
0.00991957
0.00924836
0.00849143
0.00769283
0.00690384
0.00616685
0.00550433
0.00491108
0.00440367
0.00395497
0.00357565
0.00323429
0.00295357
0.00268243
0.00247517
0.00226558
0.00209314
0.00194435
0.00180789
0.0016835
0.00157299
0.00147388
0.00138554
0.00130731
0.00124089
0.00117941
0.00112287
0.00107489
0.00103045
0.000995868
0.000974532
0.000934174
0.000917767
0.000877428
0.000853449
0.000833466
0.000807182
0.000795806
0.00076867
0.000758089
0.000744466
0.000740452
0.000746991
0.000740018
0.000746611
0.000740967
0.000740943
0.000739813
0.000734817
0.000742769
0.000733547
0.000742545
0.000739916
0.000747253
0.000751235
0.000752087
0.000763108
0.000759518
0.000771297
0.000767052
0.000775886
0.000776189
0.000776487
0.000783834
0.000778327
0.000788026
0.000784561
0.000793166
0.000793248
0.000802982
0.000806959
0.000806983
0.00081436
0.000822517
0.000842287
0.000814058
0.000951645
0.000180583
0.00884676
0.00897775
0.0119091
0.0118225
0.0112957
0.010483
0.00961624
0.00873037
0.00786745
0.00706569
0.00634456
0.00570302
0.00514946
0.00466454
0.00425002
0.00387469
0.0035668
0.00326318
0.00303137
0.00279383
0.00259393
0.00242152
0.00226221
0.00211441
0.00198076
0.00185873
0.0017486
0.0016487
0.00156076
0.00147802
0.00140001
0.00133509
0.00126003
0.00120506
0.00116626
0.00110172
0.00108305
0.0010166
0.000982211
0.000955017
0.000920463
0.000905243
0.000873418
0.000858142
0.000841509
0.000832367
0.000838995
0.000828431
0.000835092
0.000828196
0.000826486
0.000824121
0.000818877
0.000831808
0.000821724
0.000833414
0.000829457
0.000838816
0.000844068
0.00084543
0.000859335
0.000853681
0.000868252
0.000862085
0.000872319
0.000873278
0.000873981
0.000884449
0.000879767
0.000893746
0.000891031
0.000900561
0.000901746
0.000914304
0.000925422
0.000921857
0.000930056
0.00094137
0.000973354
0.000949488
0.00114358
0.000217617
0.0112266
0.0109667
0.0139615
0.0136577
0.0128604
0.0118734
0.0108827
0.00990593
0.00896958
0.00810603
0.00732958
0.00664329
0.00604604
0.0055264
0.00507855
0.00466767
0.00433136
0.00399253
0.00373257
0.00346444
0.0032324
0.00303209
0.00284669
0.00267242
0.00251253
0.0023646
0.00222982
0.00210584
0.00199527
0.00189047
0.0017899
0.00170629
0.00160532
0.00152856
0.00147585
0.00138687
0.00136436
0.00127279
0.00122265
0.00118243
0.00112909
0.00110431
0.00104888
0.00103874
0.000999188
0.000981363
0.000985446
0.000962567
0.000977786
0.000961051
0.000964546
0.000953553
0.000952052
0.000978422
0.000956213
0.000977167
0.000961545
0.000978505
0.000979065
0.000981079
0.00100135
0.000989612
0.00101626
0.00100012
0.00102428
0.00101968
0.00102978
0.00104273
0.00104164
0.00107094
0.00106516
0.00108317
0.00107661
0.00111876
0.00113589
0.00115081
0.00115662
0.00118075
0.00123266
0.00120748
0.00146765
0.000258959
0.0141616
0.0132964
0.0163688
0.0157918
0.0146721
0.0134742
0.0123427
0.0112705
0.0102601
0.00933695
0.00850819
0.00777983
0.00714029
0.00658567
0.00610508
0.00565593
0.00528802
0.00491022
0.00461739
0.00431529
0.00404559
0.00381153
0.00359537
0.00339047
0.00320002
0.00302155
0.00285745
0.00270481
0.00256758
0.00243721
0.00231043
0.00220446
0.00207658
0.00197418
0.00190678
0.00179192
0.00176294
0.00164696
0.00157641
0.00152339
0.00145087
0.00141704
0.0013398
0.00132762
0.00127175
0.00124038
0.00124193
0.00120495
0.00122438
0.00120201
0.00120913
0.00119444
0.00118968
0.00123367
0.0012061
0.00123778
0.00121468
0.00123497
0.00123565
0.00123447
0.00126527
0.00124618
0.00128625
0.00126318
0.00129852
0.00129372
0.00130932
0.00133046
0.00133012
0.00137717
0.00137237
0.00139858
0.00138289
0.00144375
0.0014756
0.00150749
0.00151357
0.00154016
0.00161542
0.00158859
0.00192702
0.000304846
0.0177588
0.0160287
0.0190992
0.0182895
0.0167944
0.0153487
0.0140586
0.0128852
0.0117998
0.0108176
0.00993909
0.00917005
0.00848768
0.00789489
0.00738023
0.00688846
0.0064835
0.00606104
0.00572883
0.00538851
0.00507513
0.00480037
0.00454724
0.00430622
0.00407976
0.00386496
0.00366566
0.00347849
0.00330922
0.00314854
0.00299096
0.00285731
0.00269941
0.0025662
0.00248056
0.002337
0.00229619
0.00215513
0.00205891
0.00199035
0.00189616
0.00185055
0.00175187
0.00173075
0.00166048
0.00161214
0.00160776
0.00155575
0.00157227
0.00154667
0.00155598
0.00154352
0.00153098
0.0015903
0.00156629
0.00160819
0.0015843
0.00160327
0.00160738
0.00160157
0.00164329
0.00161996
0.00167178
0.0016485
0.00169167
0.00169251
0.00171158
0.00174432
0.00174471
0.00180837
0.00180966
0.0018448
0.00182072
0.00188871
0.00193873
0.00199091
0.00200352
0.00202496
0.00212375
0.00209822
0.00253144
0.000355126
0.0221314
0.0192621
0.0220015
0.0212037
0.0192927
0.0175628
0.0160993
0.0148176
0.0136562
0.0126136
0.0116868
0.0108786
0.0101523
0.00951511
0.00896259
0.00842282
0.00797383
0.00749947
0.00711997
0.00673654
0.00637306
0.00604958
0.00575158
0.00546749
0.00519848
0.00494031
0.00469852
0.0044692
0.0042605
0.00406289
0.00386802
0.00369996
0.00350636
0.00333537
0.00322589
0.00304849
0.0029903
0.00282063
0.00269262
0.00260346
0.00248308
0.0024213
0.00229862
0.0022634
0.00217631
0.00210729
0.00209207
0.00202175
0.00202845
0.00199759
0.00200734
0.00200219
0.00198016
0.00204898
0.00203385
0.00208514
0.00206601
0.0020811
0.00209056
0.00208008
0.00213298
0.00211039
0.00217461
0.00215892
0.00220978
0.00222159
0.00224448
0.00229112
0.00229338
0.00237188
0.00238378
0.00243108
0.00240175
0.00246699
0.00253504
0.00261439
0.00264576
0.00266048
0.00278363
0.00276611
0.00331137
0.000409102
0.0273935
0.0231393
0.0250433
0.0243904
0.0222174
0.0201841
0.0185342
0.017135
0.0158999
0.0147936
0.0138177
0.0129716
0.0122005
0.011511
0.0109163
0.0103243
0.00982487
0.00929134
0.00885554
0.00842384
0.00800426
0.00762373
0.0072716
0.00693595
0.00661665
0.00630691
0.00601388
0.00573314
0.00547579
0.00523297
0.00499284
0.00478231
0.00454563
0.00432829
0.00418779
0.00396957
0.00388763
0.00368419
0.00351692
0.00340054
0.00324766
0.00316401
0.00301261
0.00295832
0.00285031
0.00275605
0.00272477
0.00263119
0.00262088
0.00257846
0.00258382
0.00258936
0.00255772
0.00262578
0.00262279
0.00268036
0.00267297
0.00268268
0.00270102
0.00268784
0.00275266
0.00273915
0.00281741
0.00282042
0.00287916
0.00290764
0.00293534
0.00299674
0.00300322
0.00309252
0.00311981
0.00318314
0.00315696
0.00320996
0.0032924
0.003403
0.00346474
0.00347587
0.00361499
0.00358014
0.00429639
0.000465256
0.0336525
0.0278339
0.0282687
0.0275363
0.0255343
0.0232611
0.0214313
0.019901
0.0185979
0.0174251
0.016397
0.0155152
0.0147008
0.0139507
0.013307
0.0126596
0.0121053
0.0115075
0.0110066
0.0105226
0.0100439
0.00960017
0.00918563
0.0087892
0.00841035
0.00803977
0.0076856
0.00734286
0.00702596
0.00672796
0.00643312
0.00617064
0.00588165
0.00560794
0.00542758
0.00515989
0.0050466
0.00480286
0.00458734
0.00443527
0.00424181
0.00412902
0.00394232
0.00386308
0.00372912
0.00360423
0.00355147
0.00342872
0.00339411
0.00332649
0.003312
0.00331475
0.00327304
0.00332951
0.00333355
0.00339528
0.00340517
0.00341441
0.00344316
0.00343245
0.00350681
0.00350585
0.00359473
0.00361497
0.00368313
0.00372605
0.00376091
0.00383416
0.00384907
0.00394834
0.00399091
0.00407042
0.00405288
0.00410092
0.00418886
0.00432124
0.00440903
0.00442391
0.00457174
0.00450125
0.00544227
0.000520578
0.041001
0.0335128
0.0317651
0.0305507
0.0287373
0.0266989
0.0248287
0.0231644
0.0218126
0.0205792
0.0194911
0.0185748
0.017723
0.0169062
0.0162059
0.0155019
0.0148916
0.0142278
0.0136539
0.0131134
0.012574
0.0120628
0.0115783
0.0111126
0.0106667
0.0102283
0.00980518
0.00938972
0.00900093
0.00863621
0.00827589
0.00795093
0.00759903
0.0072576
0.00702688
0.00669907
0.00654478
0.00625263
0.00597812
0.00577978
0.00553554
0.00538442
0.00515389
0.00504206
0.00487596
0.00471371
0.0046334
0.0044754
0.00441037
0.00430132
0.00424277
0.00420856
0.00414095
0.00417471
0.00416572
0.00422132
0.00424308
0.00425489
0.00429094
0.00428337
0.00436303
0.00437308
0.00447037
0.00450576
0.00458489
0.00464203
0.00468641
0.00477083
0.00479647
0.004906
0.00496418
0.00506098
0.00505662
0.005105
0.00519388
0.00534102
0.0054544
0.00548041
0.00563613
0.00552516
0.00670521
0.00057039
0.0494986
0.0402816
0.0356194
0.033403
0.0316463
0.0299288
0.0283507
0.0268985
0.0255796
0.0243058
0.0231571
0.022215
0.0213404
0.0204589
0.0196941
0.0189324
0.018269
0.0175423
0.0168908
0.0162902
0.0156895
0.0151092
0.0145484
0.0140038
0.0134808
0.0129661
0.0124668
0.0119706
0.0114998
0.0110585
0.0106243
0.0102287
0.0098062
0.00938508
0.00909179
0.00869142
0.00848434
0.00813413
0.00778802
0.0075299
0.00722143
0.00702014
0.00673506
0.00658081
0.00637433
0.00616622
0.00605045
0.00585077
0.0057501
0.00559809
0.00548855
0.00538413
0.00525545
0.00525052
0.00518892
0.00521174
0.00521909
0.00522145
0.00525516
0.00524588
0.0053241
0.00534222
0.00544366
0.00549286
0.00558169
0.00565337
0.005708
0.00580323
0.00584068
0.00595884
0.00603215
0.006147
0.00616157
0.00621334
0.00630009
0.00645462
0.00659317
0.00663751
0.00680232
0.00665793
0.00804641
0.000608143
0.0590644
0.048108
0.0398387
0.0360602
0.0341461
0.0327501
0.0315649
0.0304532
0.0293991
0.028354
0.0273594
0.026476
0.025611
0.0246789
0.0238511
0.0230401
0.0223355
0.0215579
0.0208305
0.0201664
0.0195013
0.0188504
0.0182086
0.0175755
0.0169639
0.0163636
0.0157813
0.0151971
0.0146349
0.0141067
0.0135896
0.0131152
0.0126166
0.012109
0.0117442
0.0112645
0.0109945
0.0105765
0.0101445
0.0098105
0.00942113
0.00915518
0.00880248
0.00859369
0.00833606
0.0080709
0.00790836
0.00765757
0.00751212
0.00731367
0.00715581
0.00699116
0.00679385
0.00673677
0.00658213
0.00653101
0.0064617
0.00641887
0.00641916
0.00638276
0.00643883
0.00645052
0.00654419
0.00660084
0.0066937
0.00677761
0.00683994
0.00694274
0.00699092
0.00711399
0.00719924
0.00733031
0.00736927
0.00742797
0.00751051
0.00766376
0.00782348
0.00789157
0.00806678
0.00791025
0.00939543
0.00132732
0.0691486
0.0566562
0.0442035
0.0384109
0.0361082
0.0349947
0.0342757
0.0335833
0.0328858
0.0321453
0.0314022
0.0307335
0.0300822
0.0293398
0.0286456
0.0278849
0.0271773
0.0263728
0.0255828
0.02486
0.0241312
0.0234121
0.0226887
0.0219597
0.0212478
0.0205512
0.019879
0.0192015
0.0185412
0.0179173
0.017309
0.0167474
0.0161667
0.0155663
0.0151197
0.0145521
0.014206
0.0137165
0.0131931
0.0127725
0.0122899
0.011942
0.0115063
0.0112288
0.010907
0.0105718
0.0103487
0.010035
0.00983199
0.00957671
0.00936272
0.00913899
0.00887389
0.00876478
0.0085373
0.00841243
0.00824646
0.00811647
0.0080171
0.00788113
0.00786526
0.00782252
0.00787693
0.00790805
0.0079794
0.00806156
0.00812117
0.00822155
0.00827538
0.00839673
0.00848666
0.00862627
0.00869054
0.00875921
0.0088365
0.00897875
0.00915003
0.00924321
0.00942789
0.00929553
0.0106723
0.0032043
0.0788943
0.0650686
0.0488763
0.0405267
0.0375968
0.0366686
0.0364048
0.0361568
0.0358443
0.0354716
0.0350416
0.0346563
0.0342719
0.0337793
0.0333114
0.0327576
0.032235
0.0316079
0.0309561
0.0303302
0.0296422
0.0289034
0.0281144
0.0272902
0.0264727
0.0256765
0.0249146
0.0241461
0.0233875
0.0226639
0.0219561
0.0212973
0.0206259
0.019925
0.0193846
0.0187183
0.0182783
0.0177066
0.0170819
0.016562
0.0159745
0.0155319
0.0150058
0.0146492
0.014258
0.0138481
0.0135552
0.0131656
0.0128896
0.0125628
0.0122785
0.0119847
0.0116431
0.011471
0.0111758
0.0109825
0.0107379
0.0105269
0.0103421
0.010108
0.00999315
0.0098078
0.00973725
0.00962941
0.00961499
0.00965375
0.00967442
0.00973757
0.0097669
0.00986475
0.00994215
0.010073
0.0101554
0.0102342
0.010306
0.0104273
0.0105952
0.0107059
0.0108937
0.0108275
0.0118017
0.00770688
0.0875903
0.0734561
0.0553073
0.0435105
0.0391954
0.0381997
0.0382566
0.0384083
0.0384668
0.0384315
0.0382911
0.0381499
0.0379942
0.0377835
0.0375806
0.0372851
0.0370053
0.0366122
0.0361829
0.0357573
0.0352496
0.0346797
0.0340458
0.0333471
0.0326055
0.0318236
0.0310258
0.0301912
0.0293482
0.0285313
0.027723
0.0269622
0.0261942
0.0253878
0.0247397
0.0239624
0.0234058
0.0227359
0.021996
0.0213604
0.0206546
0.0201022
0.0194758
0.0190283
0.0185594
0.0180702
0.0177014
0.0172352
0.0168805
0.0164787
0.0161188
0.0157473
0.0153157
0.0150623
0.0146883
0.0144175
0.014092
0.0137973
0.0135306
0.0132067
0.0130045
0.0127156
0.0125456
0.0123102
0.0121508
0.0120073
0.011855
0.0117718
0.0116852
0.0117124
0.0117384
0.0118212
0.0118769
0.0119307
0.0119813
0.012067
0.0122122
0.0123226
0.0125002
0.0125156
0.0130453
0.0113321
0.0948113
0.0818266
0.0636091
0.0498828
0.0426453
0.0407235
0.040613
0.0409048
0.0411906
0.0413904
0.0414727
0.0415072
0.0415173
0.0414872
0.0414658
0.0413557
0.0412941
0.0411555
0.0410003
0.0408201
0.0405332
0.0401874
0.039781
0.0392946
0.0387473
0.0381458
0.0375088
0.0368111
0.0360759
0.035332
0.0345629
0.0338029
0.0330072
0.0321363
0.0313825
0.0304918
0.0297955
0.0290145
0.0281511
0.0273899
0.0265589
0.025888
0.0251536
0.0246047
0.0240482
0.0234706
0.0230135
0.0224624
0.0220168
0.0215295
0.0210828
0.0206266
0.0201027
0.0197572
0.0193023
0.0189505
0.0185469
0.0181663
0.0178079
0.0173861
0.0170861
0.0166954
0.0164251
0.0160854
0.015815
0.0155506
0.0152707
0.0150528
0.0147943
0.0146422
0.0144691
0.0143534
0.0141962
0.0141044
0.0140805
0.0141001
0.0141886
0.014242
0.014356
0.014417
0.0145912
0.0143732
0.100687
0.0899386
0.0733096
0.0592754
0.0500004
0.0457483
0.0445078
0.0443607
0.0445446
0.0447765
0.0449474
0.0450537
0.04515
0.0452015
0.0452735
0.0452753
0.0453222
0.0453296
0.045334
0.0453301
0.0452763
0.0451912
0.0450546
0.0448107
0.0444956
0.0441313
0.0437181
0.0432315
0.0426958
0.0421304
0.041521
0.0408985
0.0402315
0.039475
0.0388005
0.0379889
0.037319
0.0365649
0.0356859
0.0348507
0.0339232
0.033141
0.0323048
0.031652
0.031004
0.0303324
0.0297737
0.029129
0.0285795
0.0279944
0.027446
0.0268897
0.0262604
0.0258033
0.0252538
0.0248081
0.024322
0.0238544
0.023407
0.0228925
0.022494
0.0220086
0.0216369
0.0211919
0.0208073
0.0204281
0.02003
0.0196902
0.0192964
0.0190038
0.0186888
0.0184286
0.0180843
0.0177629
0.0174946
0.0172908
0.0171101
0.016884
0.0167723
0.0167822
0.0167383
0.0167336
0.106159
0.0977471
0.0836478
0.0703755
0.0602721
0.0536246
0.0504672
0.0491692
0.0488176
0.0488027
0.0488661
0.048931
0.049039
0.0491038
0.0491976
0.0492462
0.0493244
0.0493933
0.0494628
0.0495402
0.0495979
0.0496545
0.0496782
0.0496706
0.0496136
0.0495312
0.0493672
0.0491227
0.0488323
0.048498
0.0481054
0.0476833
0.0472136
0.0466524
0.0461384
0.045504
0.0449681
0.0443707
0.0436522
0.0429449
0.0421314
0.0414181
0.0406515
0.0400245
0.0393963
0.0387327
0.0381473
0.0374678
0.0368368
0.0361608
0.0355046
0.0348357
0.0340927
0.0335067
0.0328537
0.0323048
0.031732
0.0311758
0.0306376
0.0300285
0.0295206
0.02893
0.0284405
0.0278842
0.0273824
0.0268932
0.0263869
0.0259353
0.025425
0.0249945
0.0245413
0.0241439
0.0236515
0.0231489
0.0226887
0.0223042
0.0219336
0.0214821
0.0210521
0.0206439
0.0200461
0.0193894
0.111675
0.105174
0.0938636
0.0816551
0.0712266
0.0634867
0.0582016
0.055185
0.0540705
0.0535288
0.053222
0.053116
0.0531624
0.0531865
0.0532471
0.0532943
0.0533681
0.0534489
0.0535232
0.053616
0.0537054
0.0538153
0.0539145
0.0540125
0.0540931
0.0541636
0.0542174
0.0542303
0.0542227
0.0541512
0.0540089
0.0538285
0.0536001
0.0532831
0.0529774
0.0525716
0.0522199
0.0518271
0.0513316
0.050827
0.0502204
0.0496702
0.0490768
0.0485754
0.0480683
0.0475258
0.0470404
0.0464792
0.045945
0.045366
0.0447889
0.0441904
0.0435077
0.0429243
0.0422711
0.0416842
0.0410732
0.0404607
0.0398478
0.0391539
0.0385241
0.0378151
0.0371818
0.0364945
0.0358591
0.0352494
0.0346294
0.034059
0.0334312
0.032863
0.0322721
0.0317357
0.031114
0.0304646
0.0298466
0.0293004
0.0287557
0.0281139
0.027438
0.0267202
0.0257499
0.0243461
0.116481
0.111772
0.103138
0.0926014
0.0827866
0.0748813
0.0687931
0.0643461
0.0612546
0.059116
0.0580722
0.0577473
0.0576545
0.0575141
0.0574452
0.0574365
0.0574818
0.0575308
0.0575604
0.0576198
0.0576926
0.0577979
0.0579077
0.0580265
0.0581521
0.0582825
0.058429
0.0585709
0.0587188
0.0588517
0.0589602
0.0590495
0.0590894
0.0590438
0.0589828
0.0588429
0.0587152
0.0585569
0.058318
0.058057
0.057707
0.0573747
0.0570093
0.0566895
0.0563587
0.0559943
0.0556638
0.0552789
0.0549051
0.0544942
0.0540754
0.0536348
0.0531197
0.0526621
0.0521446
0.0516635
0.0511608
0.0506513
0.0501358
0.0495509
0.0490011
0.0483794
0.0477912
0.0471357
0.0464796
0.0458124
0.0451095
0.0444243
0.0436781
0.0429612
0.0422204
0.0415244
0.040758
0.0399556
0.0391838
0.0384795
0.0377742
0.036974
0.0361051
0.0351476
0.0339162
0.0318675
0.120539
0.11729
0.111002
0.102828
0.0945337
0.0871889
0.0810413
0.0761161
0.0722247
0.0691353
0.0667566
0.0648939
0.0634995
0.062511
0.0621397
0.0620244
0.0619884
0.061871
0.0617446
0.0617102
0.0617234
0.0617691
0.0618182
0.061879
0.0619662
0.0620754
0.0622232
0.0623916
0.062587
0.0627954
0.0630142
0.063241
0.0634681