/*--------------------------------*- C++ -*----------------------------------*\
| =========                 |                                                 |
| \\      /  F ield         | OpenFOAM: The Open Source CFD Toolbox           |
|  \\    /   O peration     | Version:  5.x                                   |
|   \\  /    A nd           | Web:      www.OpenFOAM.org                      |
|    \\/     M anipulation  |                                                 |
\*---------------------------------------------------------------------------*/
FoamFile
{
    version     2.0;
    format      ascii;
    class       volScalarField;
    location    "50";
    object      nut;
}
// * * * * * * * * * * * * * * * * * * * * * * * * * * * * * * * * * * * * * //

dimensions      [0 2 -1 0 0 0 0];

internalField   nonuniform List<scalar> 
11040
(
0.00266288
0.000897492
0.000601771
0.00057274
0.000652503
0.000593129
0.000502735
0.000683256
0.000913661
0.0010754
0.00119119
0.0012899
0.00136489
0.00141381
0.00144344
0.00145685
0.00145739
0.00144746
0.00143024
0.00140677
0.00137926
0.00135099
0.00132569
0.00130353
0.00128351
0.00126488
0.00124752
0.00123072
0.00121422
0.00119714
0.00117899
0.00115871
0.00113539
0.00110701
0.0010703
0.001018
0.000937121
0.000796338
0.000621092
0.000647275
0.000945591
0.00567269
0.00401581
0.00302652
0.00253206
0.00293186
0.00319117
0.00269902
0.00255649
0.00249539
0.00237872
0.00221556
0.00214716
0.00214453
0.00211915
0.00207873
0.00202783
0.0019709
0.00190996
0.00185177
0.0017943
0.00174718
0.0017073
0.00167121
0.00165019
0.00163778
0.00163693
0.00164457
0.00166167
0.00168822
0.00172395
0.0017705
0.00182722
0.00189753
0.00198182
0.0020853
0.0022099
0.0023628
0.00254874
0.00278984
0.0032392
0.00471462
0.0102212
0.00754188
0.0056048
0.00482691
0.00399918
0.00421375
0.00394535
0.00379115
0.00406513
0.00431666
0.00450612
0.00463316
0.00470545
0.00471746
0.00468366
0.00461609
0.00452693
0.00441815
0.00430778
0.00419485
0.00409927
0.0040183
0.0039491
0.00391133
0.0038933
0.00389767
0.00391997
0.00396241
0.00402524
0.00410831
0.00421405
0.00434184
0.00449742
0.00468248
0.00490621
0.00517363
0.00549736
0.00588791
0.00637299
0.00715867
0.00973081
0.0173343
0.0130811
0.00938498
0.0073476
0.00644145
0.00520908
0.00549908
0.00619826
0.0069543
0.00747509
0.00786703
0.00813195
0.00829483
0.00836323
0.00833965
0.00825142
0.00812401
0.00795856
0.00778396
0.00760461
0.00744292
0.00730404
0.00719182
0.00713101
0.0071062
0.00711848
0.00716142
0.00723757
0.00734776
0.00749305
0.00767565
0.00789609
0.0081613
0.00847543
0.0088499
0.00929284
0.0098189
0.0104412
0.0111885
0.0123316
0.015747
0.0258954
0.0204001
0.0151494
0.0112644
0.00920322
0.00832995
0.00868471
0.00994513
0.0111928
0.0119209
0.0123551
0.0127292
0.01302
0.0132047
0.0132351
0.0131442
0.0129935
0.0127764
0.012534
0.0122851
0.0120438
0.0118302
0.011664
0.011575
0.011544
0.011569
0.0116414
0.0117621
0.0119329
0.0121571
0.012436
0.0127713
0.0131701
0.0136388
0.0141889
0.0148294
0.0155724
0.0164284
0.0174137
0.0188169
0.0226686
0.0351834
0.0297216
0.0229173
0.0173802
0.0133936
0.0113318
0.0115695
0.0136975
0.0160958
0.0179028
0.0189784
0.0194417
0.0196032
0.0196777
0.019652
0.0195737
0.0194278
0.0191788
0.0188714
0.0185611
0.0182338
0.0179255
0.0176896
0.0175656
0.0175281
0.017571
0.0176826
0.01786
0.0181039
0.0184227
0.0188158
0.0192853
0.0198378
0.0204801
0.0212214
0.0220672
0.0230213
0.0240837
0.0252455
0.0267474
0.0305085
0.0449311
0.0400636
0.03312
0.026276
0.0203371
0.0159739
0.0142641
0.0162631
0.0202929
0.0239639
0.0266639
0.0283328
0.0290602
0.0290746
0.0287416
0.0283726
0.0279753
0.0275555
0.0271818
0.0268327
0.0264288
0.0260026
0.0256727
0.025503
0.0254571
0.025522
0.0256839
0.025933
0.0262618
0.0266891
0.0272114
0.0278298
0.0285489
0.029374
0.0303076
0.0313464
0.0324782
0.0336841
0.0349248
0.0363515
0.0395188
0.054957
0.0507527
0.0445941
0.0372499
0.0302534
0.0239062
0.0192116
0.0182751
0.022326
0.0284034
0.033498
0.0372206
0.0395876
0.0408214
0.0411483
0.0407699
0.0399771
0.039089
0.0383381
0.0377225
0.0371483
0.0365779
0.0361125
0.0358784
0.035818
0.0359059
0.036127
0.0364684
0.0368934
0.03744
0.0381016
0.038876
0.0397637
0.0407656
0.0418729
0.0430661
0.0443098
0.0455602
0.0467495
0.0479391
0.0502311
0.0649987
0.0614382
0.0562768
0.0496949
0.042239
0.0350628
0.0282827
0.0233979
0.0233027
0.0292206
0.0374778
0.0442125
0.0490055
0.0521439
0.0539695
0.0547496
0.0547914
0.0542713
0.0534137
0.0524566
0.0515148
0.0506332
0.0499171
0.0495121
0.0493554
0.0494009
0.0496263
0.0500158
0.0505539
0.0512331
0.0520425
0.052973
0.0540192
0.0551747
0.0564149
0.0576965
0.0589545
0.0601143
0.0610893
0.0618966
0.0632311
0.0747718
0.0718436
0.0676182
0.062179
0.0555988
0.048211
0.0408648
0.0337412
0.0287114
0.0289582
0.0358251
0.0461156
0.0550528
0.0611899
0.0652217
0.0676652
0.0689899
0.0694268
0.0692901
0.0688375
0.0681851
0.0674497
0.0668096
0.0664085
0.0662515
0.0663158
0.0665894
0.0670645
0.0677289
0.0685652
0.0695515
0.0706651
0.0718841
0.0731828
0.0745138
0.0758064
0.0769615
0.0778662
0.0784547
0.0787958
0.0791716
0.084023
0.0816996
0.0783197
0.0739685
0.0686427
0.0623274
0.05521
0.0477301
0.0404188
0.0351682
0.0348614
0.0410707
0.0520162
0.0634438
0.0720188
0.0774741
0.0808939
0.0828159
0.0837763
0.084132
0.0840453
0.0836817
0.0833177
0.0831171
0.0831229
0.0833339
0.0837511
0.0843774
0.0852076
0.0862262
0.0874108
0.0887375
0.0901826
0.091721
0.0933109
0.094896
0.0963926
0.097678
0.0985385
0.0987009
0.0981907
0.0925466
0.0907559
0.0881268
0.0847224
0.0805662
0.0756084
0.0697775
0.0630587
0.0555268
0.0484421
0.0429591
0.0413184
0.045174
0.0541492
0.0658312
0.0771292
0.0858314
0.0913056
0.0945654
0.0965111
0.0974869
0.0977828
0.0978726
0.0979794
0.0981962
0.0985551
0.0990798
0.099791
0.100694
0.101774
0.10301
0.104376
0.105849
0.107404
0.109005
0.110607
0.112151
0.113554
0.114669
0.115321
0.115485
0.100203
0.0988524
0.0968612
0.0942582
0.0910752
0.0873106
0.0828729
0.0776667
0.0715514
0.0646863
0.0580606
0.0523676
0.0491614
0.0498498
0.0548348
0.0633038
0.0736241
0.0839856
0.0929616
0.0997548
0.104213
0.106515
0.107748
0.108598
0.10931
0.109994
0.110714
0.11153
0.112472
0.11354
0.114716
0.115984
0.117324
0.11872
0.120143
0.121564
0.122951
0.124261
0.125406
0.126285
0.126809
0.106925
0.105922
0.104439
0.102485
0.100089
0.097268
0.0939727
0.0901529
0.0856767
0.0804579
0.0746231
0.0683972
0.0629133
0.05877
0.0568758
0.0578091
0.0615787
0.0676881
0.0753468
0.0836857
0.0918977
0.0987993
0.104056
0.107897
0.110637
0.11267
0.114273
0.115648
0.116944
0.118218
0.119483
0.120747
0.122009
0.123276
0.124541
0.125799
0.127048
0.128289
0.129478
0.130554
0.131406
0.112717
0.111976
0.11088
0.109429
0.107646
0.105551
0.103118
0.100328
0.0971393
0.0934726
0.0892481
0.0844346
0.0792394
0.0740522
0.0697397
0.0665432
0.0648491
0.064888
0.0666647
0.0700019
0.0746324
0.0798017
0.0849642
0.0898783
0.0943953
0.098464
0.10209
0.105295
0.108119
0.110606
0.112764
0.114666
0.116385
0.117994
0.119531
0.121026
0.122507
0.124014
0.125542
0.127063
0.128475
0.117635
0.117086
0.116276
0.1152
0.113876
0.112325
0.110532
0.108489
0.106189
0.103611
0.100713
0.0974213
0.0936811
0.0895405
0.0852585
0.0810954
0.0776806
0.0749687
0.0731078
0.0722124
0.0723366
0.0733357
0.0749882
0.0770949
0.079495
0.0820697
0.0847358
0.0874349
0.0901253
0.0927783
0.0953926
0.0979491
0.100434
0.102847
0.105169
0.107407
0.109584
0.111755
0.113952
0.116197
0.118444
0.121775
0.121367
0.120763
0.119959
0.11897
0.117816
0.116489
0.114987
0.113309
0.111453
0.109413
0.107163
0.10466
0.101864
0.0987754
0.0954501
0.0920823
0.0888032
0.0860258
0.0836701
0.0817709
0.0804188
0.0796085
0.0792546
0.0792819
0.0796251
0.0802311
0.0810582
0.0820748
0.0832556
0.0845819
0.0860385
0.0876132
0.0893045
0.0911186
0.0930505
0.0951005
0.0972909
0.0996376
0.102165
0.10491
0.12509
0.124782
0.124316
0.123694
0.122933
0.122048
0.12104
0.119914
0.118663
0.11729
0.115797
0.114177
0.112421
0.110514
0.108443
0.106189
0.10376
0.101197
0.0986134
0.0961369
0.093975
0.0921184
0.0905595
0.0892626
0.0882068
0.0873714
0.0867369
0.0862877
0.0860122
0.0859031
0.0859565
0.0861714
0.086549
0.0870927
0.0878089
0.0887037
0.089785
0.0910661
0.092566
0.0943099
0.0963431
0.12764
0.127389
0.127015
0.12652
0.125921
0.125221
0.124424
0.123543
0.122571
0.121513
0.120373
0.119146
0.117831
0.116437
0.115012
0.113558
0.112026
0.110385
0.108637
0.106812
0.104977
0.103244
0.10167
0.10024
0.0989414
0.0977639
0.0966983
0.095738
0.0948796
0.0941229
0.093471
0.0929296
0.0925077
0.0922129
0.0920579
0.0920574
0.0922287
0.0925838
0.0931482
0.0939468
0.094979
0.129631
0.12942
0.129111
0.128705
0.128217
0.127646
0.127004
0.126291
0.125513
0.124668
0.123762
0.122795
0.121765
0.120682
0.1196
0.118549
0.117499
0.116418
0.115287
0.114091
0.112833
0.111572
0.110357
0.109187
0.108066
0.106989
0.105954
0.104956
0.103991
0.103061
0.102169
0.101321
0.100528
0.0998013
0.0991546
0.0986065
0.0981781
0.0978825
0.0977467
0.0977977
0.098003
0.131225
0.131042
0.130781
0.130447
0.130038
0.129562
0.129028
0.128437
0.127796
0.127106
0.126367
0.125582
0.12475
0.123879
0.123007
0.122173
0.121365
0.120561
0.119748
0.118912
0.118047
0.117173
0.116317
0.115476
0.114649
0.113833
0.113026
0.112219
0.11141
0.110594
0.10977
0.10894
0.10811
0.107286
0.10648
0.105709
0.104994
0.104349
0.103802
0.103382
0.103032
0.132526
0.132366
0.132144
0.13186
0.131512
0.131113
0.130662
0.130166
0.129626
0.129047
0.128433
0.127783
0.127096
0.126376
0.125651
0.124968
0.124315
0.123674
0.123035
0.12239
0.121736
0.121084
0.120451
0.119832
0.119224
0.118625
0.11803
0.117433
0.116827
0.116208
0.115569
0.114908
0.114223
0.113514
0.112783
0.112042
0.111305
0.110581
0.109894
0.109267
0.108625
0.133608
0.133467
0.133279
0.133032
0.132736
0.132391
0.132007
0.131582
0.131122
0.130632
0.13011
0.129561
0.128984
0.128382
0.127772
0.127192
0.126645
0.126116
0.125595
0.125075
0.124553
0.124036
0.123536
0.123049
0.122574
0.122108
0.121649
0.121193
0.120734
0.120269
0.119793
0.1193
0.118786
0.118247
0.11768
0.117086
0.116473
0.115843
0.115208
0.114588
0.113912
0.134522
0.134398
0.134233
0.134017
0.133759
0.133462
0.133128
0.132762
0.132365
0.131941
0.131494
0.131025
0.130535
0.130025
0.129501
0.128997
0.128527
0.12808
0.127645
0.127216
0.12679
0.126371
0.125966
0.12557
0.125184
0.124805
0.124432
0.124063
0.123694
0.123324
0.12295
0.122569
0.122177
0.121769
0.121344
0.120897
0.120431
0.119943
0.119438
0.118926
0.11835
0.135304
0.135195
0.135048
0.13486
0.134635
0.134372
0.13408
0.133758
0.133412
0.133045
0.132658
0.13225
0.131826
0.131386
0.130934
0.130494
0.130085
0.129701
0.129332
0.128971
0.128615
0.128267
0.127932
0.127606
0.127289
0.126977
0.126668
0.126362
0.126056
0.125749
0.125439
0.125125
0.124807
0.12448
0.124144
0.123796
0.123437
0.123063
0.122675
0.122278
0.121827
0.135982
0.135884
0.135752
0.135584
0.135383
0.135152
0.134893
0.13461
0.134306
0.133984
0.133644
0.133288
0.132919
0.132537
0.132144
0.131754
0.131391
0.131051
0.130729
0.13042
0.130118
0.129825
0.129544
0.129273
0.129009
0.128751
0.128496
0.128243
0.127988
0.127732
0.127473
0.127209
0.126941
0.126666
0.126385
0.126097
0.125802
0.125499
0.125188
0.124872
0.124513
0.136573
0.136485
0.136367
0.136216
0.136035
0.135828
0.135598
0.135347
0.135078
0.134793
0.134493
0.134179
0.133855
0.13352
0.133177
0.132827
0.132494
0.132188
0.131904
0.131635
0.131375
0.131125
0.130887
0.130658
0.130436
0.13022
0.130008
0.129797
0.129586
0.129373
0.129157
0.128937
0.128711
0.128479
0.128241
0.127996
0.127744
0.127486
0.127222
0.126955
0.126652
0.137093
0.137014
0.136908
0.136772
0.136609
0.136423
0.136215
0.135989
0.135747
0.135492
0.135224
0.134946
0.134659
0.134365
0.134061
0.133752
0.133447
0.133165
0.132908
0.132668
0.132439
0.132221
0.132015
0.13182
0.131631
0.131449
0.13127
0.131093
0.130917
0.130739
0.130559
0.130376
0.130189
0.129995
0.129795
0.129588
0.129374
0.129151
0.128922
0.128689
0.128422
0.137553
0.137485
0.13739
0.137267
0.13712
0.136951
0.136763
0.136559
0.13634
0.136109
0.135867
0.135617
0.135359
0.135095
0.134825
0.134551
0.134275
0.134013
0.13377
0.133549
0.133344
0.133151
0.132972
0.132802
0.13264
0.132484
0.132332
0.132181
0.132032
0.131883
0.131732
0.131579
0.131424
0.131263
0.131097
0.130925
0.130745
0.130557
0.13036
0.130158
0.129917
0.137964
0.137906
0.137822
0.137712
0.137579
0.137427
0.137256
0.13707
0.136871
0.136661
0.136441
0.136213
0.135979
0.13574
0.135497
0.135251
0.135002
0.134755
0.134524
0.134315
0.134125
0.133951
0.13379
0.13364
0.133499
0.133363
0.133231
0.133102
0.132974
0.132847
0.132719
0.132591
0.13246
0.132327
0.132189
0.132046
0.131897
0.13174
0.131574
0.131401
0.131185
0.138332
0.138283
0.13821
0.138115
0.137998
0.137861
0.137706
0.137536
0.137354
0.137161
0.13696
0.136752
0.136538
0.136319
0.136098
0.135874
0.135649
0.135423
0.1352
0.134993
0.134808
0.134642
0.134494
0.134358
0.134231
0.134111
0.133996
0.133883
0.133773
0.133663
0.133554
0.133444
0.133334
0.133222
0.133107
0.132988
0.132864
0.132734
0.132596
0.132449
0.132256
0.138663
0.138623
0.138563
0.138482
0.138379
0.138257
0.138118
0.137964
0.137797
0.13762
0.137434
0.137243
0.137046
0.136845
0.136642
0.136438
0.136232
0.136026
0.13582
0.135617
0.135429
0.135262
0.135116
0.134986
0.134868
0.134759
0.134655
0.134555
0.134457
0.13436
0.134265
0.13417
0.134075
0.133979
0.133882
0.133782
0.133678
0.13357
0.133455
0.133332
0.133162
0.138961
0.138933
0.138887
0.138818
0.138729
0.138621
0.138496
0.138356
0.138205
0.138043
0.137872
0.137694
0.137512
0.137327
0.13714
0.136951
0.136762
0.136573
0.136385
0.136198
0.136013
0.135839
0.135687
0.135555
0.135438
0.135334
0.135236
0.135144
0.135054
0.134967
0.134881
0.134797
0.134712
0.134629
0.134544
0.134459
0.134371
0.13428
0.134183
0.134079
0.133932
0.139233
0.139219
0.139185
0.139128
0.13905
0.138953
0.138841
0.138715
0.138577
0.13843
0.138275
0.138111
0.137943
0.137771
0.137597
0.137423
0.137249
0.137074
0.136901
0.136729
0.136559
0.136392
0.136233
0.13609
0.135966
0.135858
0.135761
0.135672
0.135587
0.135506
0.135426
0.135348
0.135272
0.135196
0.135121
0.135045
0.134969
0.13489
0.134808
0.134719
0.134595
0.139483
0.139482
0.139458
0.13941
0.139342
0.139257
0.139157
0.139044
0.13892
0.138786
0.138645
0.138496
0.138342
0.138183
0.138021
0.137859
0.137697
0.137536
0.137376
0.137217
0.137061
0.136907
0.136758
0.136615
0.13648
0.136358
0.136251
0.136157
0.136071
0.135991
0.135915
0.135841
0.135769
0.135698
0.135629
0.13556
0.13549
0.13542
0.135347
0.135269
0.135164
0.139714
0.139722
0.139704
0.139664
0.139608
0.139537
0.139451
0.139353
0.139242
0.139122
0.138993
0.138857
0.138715
0.138569
0.13842
0.138269
0.138117
0.137966
0.137817
0.13767
0.137524
0.137382
0.137245
0.137113
0.136985
0.136862
0.136745
0.136636
0.136537
0.136447
0.136365
0.136289
0.136216
0.136147
0.136079
0.136012
0.135946
0.13588
0.135811
0.135739
0.135651
0.139923
0.139932
0.139919
0.139892
0.139854
0.139802
0.139737
0.139656
0.139561
0.139452
0.139334
0.139208
0.139076
0.13894
0.138801
0.138661
0.138519
0.138378
0.138237
0.138098
0.137961
0.137828
0.1377
0.137576
0.137457
0.137342
0.137232
0.137126
0.137025
0.136928
0.136837
0.13675
0.136668
0.13659
0.136515
0.136443
0.136374
0.136307
0.13624
0.136175
0.136108
0.140074
0.140087
0.140086
0.140079
0.140065
0.140041
0.140006
0.139954
0.139884
0.139793
0.139685
0.139566
0.139441
0.139312
0.139179
0.139046
0.138913
0.13878
0.138647
0.138516
0.138387
0.13826
0.138137
0.138019
0.137906
0.137797
0.137692
0.137592
0.137497
0.137405
0.137317
0.137233
0.137152
0.137075
0.137001
0.13693
0.136862
0.136797
0.136734
0.136673
0.136614
0.140142
0.140153
0.140159
0.140162
0.140161
0.140156
0.140146
0.140129
0.140104
0.140069
0.14002
0.139951
0.139857
0.13974
0.139611
0.139477
0.139343
0.13921
0.139079
0.138949
0.138823
0.1387
0.13858
0.138465
0.138355
0.138248
0.138145
0.138047
0.137954
0.137865
0.13778
0.137698
0.137621
0.137547
0.137476
0.137409
0.137344
0.137282
0.137223
0.137166
0.137111
0.140175
0.140188
0.140198
0.140206
0.140211
0.140214
0.140213
0.140209
0.140201
0.140187
0.140168
0.140142
0.140105
0.140055
0.139987
0.139903
0.139801
0.139685
0.139558
0.139429
0.139302
0.139176
0.139055
0.138939
0.138827
0.13872
0.138617
0.138519
0.138425
0.138336
0.13825
0.138169
0.138091
0.138017
0.137946
0.137879
0.137815
0.137753
0.137695
0.137639
0.137587
0.140192
0.140206
0.140219
0.14023
0.14024
0.140248
0.140254
0.140257
0.140258
0.140255
0.140248
0.140238
0.140223
0.140203
0.140177
0.140143
0.140098
0.140042
0.139974
0.139894
0.139805
0.139706
0.139601
0.139491
0.139377
0.139263
0.139152
0.139046
0.138945
0.138849
0.138758
0.138671
0.138589
0.138511
0.138438
0.138368
0.138301
0.138237
0.138177
0.138119
0.13807
0.140197
0.140212
0.140226
0.14024
0.140253
0.140265
0.140276
0.140285
0.140292
0.140296
0.140298
0.140297
0.140292
0.140284
0.140272
0.140258
0.14024
0.140218
0.14019
0.140157
0.140117
0.140069
0.140013
0.139949
0.139878
0.139801
0.139719
0.139635
0.139548
0.139461
0.139373
0.139285
0.139198
0.139112
0.139028
0.138946
0.138868
0.138793
0.138722
0.138654
0.138592
0.140191
0.140207
0.140222
0.140238
0.140254
0.140269
0.140283
0.140297
0.140309
0.140319
0.140327
0.140332
0.140335
0.140335
0.140332
0.140326
0.140318
0.140308
0.140296
0.140282
0.140265
0.140246
0.140224
0.140197
0.140165
0.140128
0.140087
0.14004
0.139989
0.139933
0.139874
0.139811
0.139746
0.139678
0.139609
0.139538
0.139468
0.139398
0.139328
0.139258
0.139188
0.140177
0.140192
0.140208
0.140225
0.140242
0.14026
0.140277
0.140294
0.14031
0.140325
0.140338
0.140349
0.140358
0.140365
0.140369
0.14037
0.140369
0.140366
0.14036
0.140353
0.140346
0.140337
0.140326
0.140315
0.140302
0.140287
0.140269
0.140249
0.140225
0.140199
0.140169
0.140135
0.140099
0.140059
0.140016
0.139971
0.139923
0.139873
0.139821
0.139767
0.13971
0.140154
0.140168
0.140184
0.1402
0.140218
0.140237
0.140256
0.140276
0.140296
0.140315
0.140333
0.140349
0.140363
0.140376
0.140386
0.140394
0.140399
0.140402
0.140403
0.140402
0.140399
0.140395
0.14039
0.140384
0.140377
0.14037
0.140361
0.140352
0.140341
0.140329
0.140315
0.140299
0.140282
0.140262
0.14024
0.140215
0.140189
0.14016
0.140129
0.140096
0.140059
0.140122
0.140134
0.140147
0.140162
0.140179
0.140198
0.140218
0.14024
0.140262
0.140284
0.140306
0.140327
0.140347
0.140364
0.140381
0.140395
0.140406
0.140415
0.140422
0.140426
0.140428
0.140429
0.140427
0.140425
0.140422
0.140417
0.140412
0.140406
0.140399
0.140392
0.140384
0.140374
0.140364
0.140353
0.14034
0.140327
0.140311
0.140295
0.140277
0.140257
0.140235
0.14008
0.140089
0.140099
0.140111
0.140124
0.14014
0.140158
0.140177
0.140198
0.140221
0.140245
0.140269
0.140294
0.140319
0.140343
0.140366
0.140388
0.140408
0.140425
0.14044
0.140452
0.140462
0.140469
0.140475
0.140478
0.140479
0.140479
0.140478
0.140475
0.140471
0.140466
0.14046
0.140453
0.140445
0.140436
0.140426
0.140415
0.140403
0.14039
0.140376
0.140359
0.140029
0.140033
0.140037
0.140042
0.140048
0.140056
0.140065
0.140075
0.140088
0.140101
0.140118
0.140131
0.140144
0.14016
0.140177
0.140196
0.140215
0.140235
0.140255
0.140274
0.140293
0.14031
0.140326
0.14034
0.140353
0.140364
0.140373
0.140381
0.140388
0.140392
0.140396
0.140398
0.140398
0.140397
0.140395
0.140391
0.140386
0.14038
0.140372
0.140363
0.140352
0.0193149
0.0341221
0.0582372
0.0888289
0.113529
0.128787
0.136984
0.141136
0.14323
0.144285
0.144769
0.14491
0.144839
0.144639
0.144364
0.144048
0.143717
0.143385
0.143062
0.142753
0.142462
0.142189
0.141938
0.141709
0.141505
0.141325
0.141169
0.141036
0.140923
0.140831
0.140758
0.140701
0.140658
0.140627
0.140606
0.140594
0.140591
0.140593
0.1406
0.140612
0.140627
0.140645
0.140666
0.140689
0.140714
0.140741
0.140768
0.140796
0.140824
0.140851
0.140878
0.140903
0.140926
0.140946
0.140962
0.140975
0.140984
0.14099
0.140992
0.140989
0.140981
0.140967
0.140949
0.140926
0.140899
0.140866
0.140829
0.140787
0.140742
0.140692
0.140636
0.140571
0.140496
0.140385
0.0239605
0.0391213
0.0629152
0.0920632
0.115439
0.130083
0.138179
0.142449
0.144704
0.14589
0.14646
0.146646
0.146583
0.146363
0.146045
0.14567
0.145266
0.144852
0.144441
0.144041
0.143656
0.14329
0.142945
0.142626
0.142335
0.142072
0.141836
0.141628
0.141446
0.14129
0.141158
0.141048
0.140956
0.140882
0.140822
0.140775
0.14074
0.140715
0.140697
0.140687
0.140682
0.140682
0.140687
0.140696
0.140707
0.140721
0.140737
0.140754
0.140771
0.140787
0.140803
0.140819
0.140833
0.140845
0.140852
0.140858
0.140861
0.140861
0.140858
0.140851
0.140841
0.140826
0.140807
0.140784
0.140758
0.140728
0.140694
0.140657
0.140616
0.140572
0.140524
0.140467
0.140403
0.14031
0.0286525
0.0446679
0.0678182
0.0951403
0.117085
0.131199
0.139338
0.143863
0.146391
0.147795
0.148517
0.148797
0.148779
0.148563
0.148217
0.147788
0.147308
0.146803
0.146289
0.145777
0.145275
0.14479
0.144326
0.143888
0.14348
0.143104
0.14276
0.142449
0.14217
0.141924
0.14171
0.141525
0.141365
0.14123
0.141116
0.141021
0.140944
0.140881
0.14083
0.140791
0.140761
0.140739
0.140724
0.140715
0.14071
0.14071
0.140713
0.140717
0.140723
0.140729
0.140735
0.140741
0.140747
0.140751
0.140752
0.140751
0.140748
0.140744
0.140737
0.140728
0.140715
0.140699
0.140681
0.140659
0.140634
0.140606
0.140576
0.140543
0.140507
0.14047
0.140428
0.14038
0.140325
0.140248
0.0335406
0.0507342
0.0729636
0.0981606
0.118556
0.132137
0.140379
0.145245
0.148138
0.149844
0.150794
0.151236
0.151322
0.151157
0.15082
0.150364
0.149827
0.149239
0.148623
0.147995
0.147366
0.146746
0.146142
0.145563
0.145013
0.144496
0.144015
0.143571
0.143165
0.142801
0.142476
0.14219
0.141939
0.14172
0.141531
0.14137
0.141234
0.14112
0.141025
0.140946
0.140882
0.14083
0.140789
0.140758
0.140733
0.140716
0.140703
0.140693
0.140686
0.140681
0.140677
0.140674
0.140672
0.140668
0.140663
0.140656
0.140649
0.140641
0.140631
0.140619
0.140606
0.140589
0.140571
0.14055
0.140527
0.140502
0.140474
0.140446
0.140415
0.140383
0.140347
0.140306
0.140261
0.140198
0.0387943
0.0572224
0.0783185
0.101197
0.11993
0.13289
0.141199
0.146422
0.149734
0.151818
0.153076
0.153763
0.15403
0.153989
0.153724
0.153295
0.152746
0.152112
0.151422
0.150695
0.149948
0.149194
0.148447
0.147715
0.147007
0.146329
0.145686
0.145081
0.144519
0.144004
0.143538
0.143119
0.142746
0.142415
0.142126
0.141874
0.141658
0.141472
0.141314
0.141181
0.14107
0.140978
0.140902
0.14084
0.14079
0.140749
0.140717
0.14069
0.140669
0.140651
0.140635
0.140622
0.140611
0.1406
0.140588
0.140576
0.140564
0.140552
0.14054
0.140527
0.140512
0.140495
0.140477
0.140457
0.140436
0.140413
0.140389
0.140364
0.140337
0.14031
0.14028
0.140246
0.140209
0.140157
0.0445503
0.0639804
0.083784
0.104275
0.121266
0.133444
0.141688
0.147199
0.150934
0.153441
0.155076
0.156093
0.156637
0.156812
0.156709
0.156393
0.155908
0.155295
0.154588
0.153811
0.152984
0.152126
0.151252
0.150378
0.149513
0.148669
0.147851
0.147066
0.146323
0.14563
0.14499
0.144405
0.143875
0.143399
0.142976
0.142602
0.142276
0.141993
0.141748
0.141539
0.141362
0.141213
0.141087
0.140983
0.140897
0.140826
0.140767
0.140719
0.140678
0.140644
0.140614
0.140589
0.140568
0.140549
0.14053
0.140512
0.140495
0.140479
0.140464
0.140449
0.140433
0.140416
0.140398
0.140379
0.140359
0.140339
0.140317
0.140295
0.140272
0.140249
0.140224
0.140197
0.140166
0.140124
0.0509525
0.070818
0.0892224
0.107378
0.1226
0.133781
0.141747
0.147389
0.151482
0.15441
0.156459
0.15788
0.158796
0.159291
0.159458
0.159365
0.159052
0.158561
0.157929
0.157186
0.156353
0.155452
0.154505
0.153529
0.152538
0.151545
0.150563
0.149598
0.148663
0.147771
0.146933
0.146151
0.145431
0.144773
0.144178
0.143645
0.143172
0.142756
0.142392
0.142078
0.141808
0.141577
0.141382
0.141218
0.141081
0.140967
0.140871
0.140792
0.140725
0.140669
0.140622
0.140582
0.140548
0.140518
0.14049
0.140465
0.140443
0.140423
0.140404
0.140386
0.140369
0.140351
0.140333
0.140315
0.140296
0.140277
0.140258
0.140239
0.140219
0.1402
0.140179
0.140157
0.140132
0.140098
0.0592479
0.0775833
0.0946047
0.110496
0.123976
0.133907
0.14134
0.146864
0.151173
0.154451
0.15689
0.158749
0.160114
0.161025
0.161571
0.161824
0.161812
0.161568
0.161137
0.160547
0.159819
0.158978
0.158048
0.15705
0.155999
0.154914
0.153809
0.152694
0.151584
0.150499
0.149453
0.148458
0.14752
0.146647
0.145843
0.14511
0.144449
0.143858
0.143335
0.142877
0.142478
0.142134
0.14184
0.14159
0.141379
0.141202
0.141054
0.140931
0.140828
0.140741
0.140668
0.140607
0.140556
0.140512
0.140473
0.140438
0.140408
0.140382
0.140359
0.140338
0.140319
0.1403
0.140281
0.140263
0.140245
0.140227
0.14021
0.140193
0.140176
0.140159
0.140143
0.140125
0.140105
0.140077
0.0702289
0.0857752
0.100527
0.113811
0.125562
0.13392
0.140563
0.145635
0.149957
0.153424
0.156128
0.158387
0.160227
0.161608
0.162614
0.163323
0.16374
0.16388
0.16379
0.163499
0.16302
0.162376
0.161594
0.160695
0.159697
0.158617
0.157475
0.156284
0.155057
0.153819
0.152591
0.15139
0.150232
0.149127
0.148087
0.147119
0.146229
0.145419
0.144689
0.14404
0.143467
0.142966
0.142533
0.142162
0.141846
0.141578
0.141354
0.141166
0.141009
0.140878
0.140768
0.140677
0.140601
0.140538
0.140482
0.140435
0.140395
0.140361
0.140331
0.140305
0.140282
0.140261
0.140241
0.140222
0.140205
0.140188
0.140171
0.140156
0.140141
0.140127
0.140114
0.1401
0.140084
0.140061
0.0843771
0.0975859
0.109564
0.119716
0.127929
0.134191
0.139765
0.143953
0.148064
0.15145
0.154157
0.156683
0.158938
0.160757
0.162224
0.163447
0.164386
0.165021
0.1654
0.165555
0.165481
0.165192
0.164717
0.164077
0.163282
0.162351
0.161306
0.160161
0.158927
0.157628
0.156291
0.15494
0.153595
0.152275
0.150998
0.14978
0.148633
0.147565
0.146585
0.145694
0.144895
0.144186
0.143563
0.143023
0.142557
0.14216
0.141825
0.141543
0.141306
0.14111
0.140946
0.14081
0.140698
0.140606
0.140527
0.140461
0.140406
0.14036
0.140321
0.140288
0.14026
0.140235
0.140213
0.140192
0.140174
0.140157
0.140141
0.140126
0.140112
0.140101
0.140091
0.14008
0.140068
0.140049
0.101419
0.112428
0.121161
0.127899
0.132998
0.136813
0.139678
0.142459
0.146134
0.149042
0.151339
0.153913
0.15641
0.158491
0.160283
0.161979
0.163445
0.164605
0.165517
0.166222
0.166684
0.166894
0.166886
0.166676
0.166261
0.165656
0.164881
0.163951
0.162873
0.161663
0.160351
0.158963
0.157524
0.156059
0.154593
0.153149
0.151749
0.150411
0.14915
0.147978
0.146903
0.145929
0.145059
0.144291
0.14362
0.143041
0.142546
0.142127
0.141775
0.141481
0.141237
0.141035
0.140869
0.140733
0.14062
0.140526
0.140448
0.140385
0.140332
0.140289
0.140253
0.140222
0.140196
0.140172
0.140152
0.140134
0.140118
0.140104
0.14009
0.140081
0.140073
0.140066
0.140056
0.14004
0.118176
0.124821
0.129904
0.133769
0.136724
0.139048
0.141053
0.14309
0.145257
0.147099
0.148516
0.150874
0.15333
0.155336
0.15713
0.159134
0.160984
0.162544
0.163919
0.165179
0.166219
0.166999
0.167565
0.167926
0.168053
0.167948
0.167631
0.167113
0.16639
0.165469
0.164374
0.163129
0.161758
0.160287
0.158747
0.157167
0.155577
0.154003
0.152472
0.151007
0.149625
0.148343
0.14717
0.146112
0.14517
0.144344
0.143628
0.143014
0.142494
0.142058
0.141694
0.141393
0.141146
0.140945
0.140779
0.140644
0.140533
0.140443
0.14037
0.140311
0.140263
0.140223
0.14019
0.140162
0.140139
0.140119
0.140101
0.140087
0.140073
0.140065
0.14006
0.140055
0.140047
0.140033
0.128573
0.13187
0.134338
0.136278
0.13791
0.139408
0.140909
0.142495
0.144134
0.145723
0.147309
0.149103
0.150839
0.152369
0.15368
0.155773
0.157678
0.159311
0.160877
0.162539
0.164034
0.165295
0.166412
0.167385
0.168134
0.168639
0.168929
0.168999
0.168828
0.168411
0.167762
0.166892
0.165814
0.164551
0.163131
0.161585
0.159947
0.158249
0.156528
0.154817
0.153147
0.151546
0.150038
0.14864
0.147366
0.146223
0.145213
0.144333
0.143577
0.142935
0.142397
0.14195
0.141582
0.141282
0.141037
0.140839
0.140678
0.140548
0.140445
0.140362
0.140295
0.140242
0.140198
0.140163
0.140134
0.14011
0.140091
0.140075
0.14006
0.140053
0.14005
0.140048
0.140041
0.140027
0.13221
0.133176
0.134008
0.13485
0.135813
0.136961
0.138314
0.139851
0.141517
0.143253
0.145029
0.14682
0.148538
0.150154
0.151701
0.15331
0.154783
0.156071
0.157337
0.159133
0.160737
0.162148
0.163594
0.165034
0.1663
0.167365
0.168287
0.16903
0.169531
0.169779
0.169781
0.169521
0.168991
0.168198
0.16716
0.1659
0.164446
0.162831
0.161094
0.159275
0.157417
0.155559
0.15374
0.151996
0.150355
0.148839
0.147465
0.146241
0.145168
0.144243
0.143456
0.142797
0.142251
0.141804
0.14144
0.141146
0.14091
0.14072
0.14057
0.14045
0.140356
0.140282
0.140223
0.140176
0.140139
0.140109
0.140086
0.140067
0.14005
0.140044
0.140044
0.140043
0.140037
0.140023
0.128752
0.128645
0.128807
0.12933
0.130222
0.131463
0.133009
0.134801
0.136772
0.138854
0.140985
0.143109
0.145172
0.147143
0.149005
0.150748
0.152335
0.153779
0.155144
0.156489
0.157695
0.158747
0.160116
0.161643
0.163048
0.164347
0.165711
0.167008
0.168113
0.169026
0.16976
0.170262
0.17048
0.1704
0.170021
0.169341
0.168372
0.167134
0.165658
0.163979
0.162143
0.160197
0.158192
0.156178
0.154203
0.152309
0.150533
0.148902
0.147434
0.146139
0.145017
0.144061
0.14326
0.142598
0.142058
0.141621
0.14127
0.14099
0.140769
0.140594
0.140458
0.140352
0.140269
0.140205
0.140155
0.140117
0.140087
0.140064
0.140044
0.140038
0.140039
0.14004
0.140035
0.140021
0.119037
0.119152
0.119639
0.120575
0.121919
0.123614
0.125599
0.127813
0.130193
0.13268
0.135216
0.137752
0.14024
0.142644
0.144931
0.147078
0.149064
0.150885
0.152544
0.154042
0.155369
0.156564
0.15773
0.158832
0.159804
0.160701
0.162132
0.163575
0.164889
0.166184
0.167488
0.168673
0.169645
0.17038
0.170842
0.170987
0.170795
0.17026
0.169385
0.168188
0.1667
0.164961
0.163022
0.160942
0.158781
0.156603
0.154466
0.152423
0.150519
0.148785
0.147241
0.145896
0.144747
0.143783
0.142988
0.142341
0.14182
0.141405
0.141077
0.140819
0.140619
0.140464
0.140346
0.140255
0.140186
0.140135
0.140096
0.140067
0.140042
0.140035
0.140037
0.140039
0.140034
0.140019
0.106575
0.107804
0.109244
0.110975
0.112979
0.11522
0.11766
0.120257
0.12297
0.12576
0.128587
0.131414
0.134208
0.136937
0.139574
0.142094
0.144478
0.146709
0.148776
0.150669
0.152384
0.153927
0.155313
0.156538
0.157612
0.158589
0.159571
0.160489
0.161283
0.162383
0.163781
0.165184
0.16654