/*--------------------------------*- C++ -*----------------------------------*\
| =========                 |                                                 |
| \\      /  F ield         | OpenFOAM: The Open Source CFD Toolbox           |
|  \\    /   O peration     | Version:  5.x                                   |
|   \\  /    A nd           | Web:      www.OpenFOAM.org                      |
|    \\/     M anipulation  |                                                 |
\*---------------------------------------------------------------------------*/
FoamFile
{
    version     2.0;
    format      ascii;
    class       volScalarField;
    location    "50";
    object      nuTilda;
}
// * * * * * * * * * * * * * * * * * * * * * * * * * * * * * * * * * * * * * //

dimensions      [0 2 -1 0 0 0 0];

internalField   nonuniform List<scalar> 
41860
(
2.86601e-05
3.83001e-05
9.36369e-05
0.0001038
0.000103164
9.62049e-05
8.51396e-05
7.37483e-05
6.32971e-05
5.47161e-05
4.73731e-05
4.15997e-05
3.64544e-05
3.26904e-05
2.93692e-05
2.8291e-05
2.73378e-05
2.66037e-05
3.454e-05
2.55257e-05
2.55507e-05
3.72377e-05
2.56917e-05
3.68178e-05
2.41555e-05
3.83416e-05
3.78225e-05
2.45888e-05
3.531e-05
3.43357e-05
5.0452e-05
2.28004e-05
2.19863e-05
4.45862e-05
2.2282e-05
4.79294e-05
2.30405e-05
2.23904e-05
2.40442e-05
2.27186e-05
2.39216e-05
2.3082e-05
3.33952e-05
2.64851e-05
2.54141e-05
2.76473e-05
2.93405e-05
4.10642e-05
3.71266e-05
4.92166e-05
4.53226e-05
4.86742e-05
4.74947e-05
3.99814e-05
3.58746e-05
2.83036e-05
2.52937e-05
2.67631e-05
3.17283e-05
5.08765e-05
2.32014e-05
2.71876e-05
2.73047e-05
2.73859e-05
3.38547e-05
3.36605e-05
3.04402e-05
2.98636e-05
2.77288e-05
5.18112e-05
2.74067e-05
3.32233e-05
4.18068e-05
2.70675e-05
2.72377e-05
5.22036e-05
3.02468e-05
3.08005e-05
2.59042e-05
4.52491e-05
2.91182e-05
1.76032e-05
0.000154201
0.000196255
0.000474721
0.000525843
0.000522502
0.000486609
0.000430577
0.000373678
0.000321624
0.000276635
0.00023833
0.000208185
0.000181519
0.000162333
0.000146808
0.000141956
0.000135722
0.000132135
0.000130582
0.000120935
0.000118696
0.000121481
0.00011225
0.000117943
0.000110178
0.00011584
0.000114001
0.000106414
0.000111809
0.000111148
0.000115745
0.000106307
0.000107944
0.000113878
0.000107443
0.000115671
0.000107255
0.000109117
0.000107866
0.000112376
0.00011428
0.000115043
0.000108388
0.000105807
0.000106122
0.000106744
0.000107345
0.000111703
0.000110276
0.000114927
0.000113575
0.000115253
0.000115225
0.000113013
0.00011269
0.000110114
0.000110369
0.000106261
0.00011337
0.000120002
0.000112809
0.000109317
0.00010962
0.000110624
0.000117262
0.000119865
0.000117175
0.000118021
0.000113255
0.000126257
0.000115294
0.000121197
0.000125179
0.000117378
0.000118042
0.000130089
0.000125575
0.000123808
0.000122387
0.000129147
0.000121226
2.12729e-05
0.000207769
0.00024516
0.000595645
0.000660805
0.000661557
0.000615113
0.000545535
0.000473943
0.000407672
0.000350232
0.000302224
0.000262026
0.000230752
0.00020303
0.000190577
0.000186517
0.00018359
0.000183874
0.000182621
0.000181237
0.000179135
0.000181718
0.0001768
0.000179327
0.000175398
0.00017683
0.000175886
0.000171012
0.000173166
0.000171799
0.000171462
0.000167479
0.000167404
0.00016838
0.000165654
0.000167368
0.000164049
0.000164452
0.00016302
0.000164861
0.000165094
0.000165487
0.000164418
0.000163954
0.000164179
0.000164246
0.000164731
0.000165588
0.000165532
0.00016667
0.000166458
0.000167306
0.000167162
0.000167269
0.000167161
0.000166954
0.000167535
0.00016507
0.000169241
0.000170821
0.000169638
0.000167786
0.000168684
0.00016928
0.00017296
0.000174131
0.000173699
0.000174899
0.000172084
0.000177726
0.000173931
0.000177587
0.000178804
0.000176252
0.000176827
0.000181302
0.00018111
0.000180604
0.000180372
0.000181461
0.000182507
2.56891e-05
0.000294646
0.000345029
0.000773677
0.00085022
0.000882274
0.000830864
0.000767208
0.000695759
0.000623375
0.000555768
0.000497262
0.000436521
0.000394462
0.000343295
0.000315772
0.000294056
0.00028627
0.00028331
0.000276362
0.000275954
0.000270039
0.000268234
0.000263026
0.000260861
0.000256584
0.000254052
0.000251326
0.000246708
0.00024543
0.000242618
0.000240257
0.000236972
0.000234969
0.000233392
0.00023208
0.000230269
0.000229618
0.000228037
0.000226672
0.000226898
0.000225937
0.000226426
0.000225052
0.000225626
0.000224997
0.000225059
0.000225604
0.000224981
0.000225905
0.00022552
0.000226011
0.000226313
0.000226161
0.0002272
0.000226361
0.000227452
0.000227624
0.000227345
0.000229147
0.000229511
0.000230627
0.000229652
0.000231363
0.000231291
0.000233784
0.000234306
0.000234601
0.000235983
0.000234608
0.000237886
0.000236362
0.000239012
0.000239019
0.000239259
0.000239587
0.000241476
0.0002424
0.000241942
0.000243037
0.000240429
0.000248853
3.10059e-05
0.000429824
0.000554155
0.00113937
0.00123672
0.00134016
0.00127517
0.00120715
0.00111063
0.00100083
0.000892424
0.00079548
0.000694966
0.000622575
0.000539312
0.000487778
0.000433312
0.000408603
0.000396352
0.00038092
0.000377176
0.000366147
0.000359481
0.000351601
0.00034539
0.000338992
0.000333185
0.000328062
0.000322168
0.000318294
0.000313821
0.000309917
0.000306022
0.000301977
0.000298869
0.000297834
0.000293646
0.000294642
0.000290973
0.000289733
0.000288806
0.000287159
0.000287642
0.000284656
0.000285938
0.000284015
0.000284516
0.000284862
0.000283501
0.000285208
0.000283747
0.000284948
0.000284527
0.000284893
0.000286111
0.000284687
0.000286563
0.000286192
0.000287383
0.000287686
0.000288124
0.000289991
0.000289364
0.00029152
0.000290974
0.000293517
0.000293565
0.000294339
0.000295612
0.000295006
0.000297598
0.000296754
0.000299208
0.000298631
0.000300276
0.000300158
0.000301421
0.000302604
0.000302116
0.000303841
0.000298595
0.000313704
3.73989e-05
0.000627993
0.000844924
0.00172099
0.0018625
0.00201337
0.00191167
0.00179791
0.00164212
0.00146947
0.00130157
0.00115167
0.00100273
0.000890954
0.000771321
0.000690849
0.000606112
0.000550617
0.000520708
0.000494052
0.0004833
0.000465943
0.000453667
0.000441638
0.00043129
0.000421682
0.000412669
0.000404708
0.000396704
0.000390478
0.000384138
0.00037858
0.000373547
0.000367294
0.000363009
0.000361645
0.000355517
0.000357647
0.000351843
0.000350736
0.000348678
0.00034654
0.00034689
0.000341904
0.00034372
0.000340292
0.000341441
0.000341424
0.000339588
0.000341963
0.000339556
0.000341482
0.000340227
0.000341406
0.00034245
0.000340678
0.000343091
0.000342218
0.000344481
0.000343682
0.000344574
0.000346545
0.000346198
0.000348535
0.000347698
0.000350719
0.000350327
0.000351609
0.000352627
0.000352509
0.000354903
0.000354291
0.000356835
0.000355961
0.000358424
0.000357824
0.000359047
0.000360224
0.000359802
0.000361823
0.000354246
0.000376597
4.50759e-05
0.00091198
0.00121382
0.00242951
0.00262388
0.00279367
0.00264517
0.00246802
0.00224021
0.00199521
0.00176028
0.0015509
0.00134913
0.00119303
0.00103425
0.000921285
0.000806966
0.00072175
0.00065931
0.000617237
0.000595752
0.000570426
0.000551427
0.000534108
0.000518993
0.000505352
0.000492795
0.000481527
0.00047086
0.000462158
0.000453676
0.000446235
0.000439646
0.000431082
0.000425567
0.000423542
0.000415571
0.000418409
0.000410468
0.00040931
0.000406048
0.000403344
0.000403459
0.000396284
0.000398379
0.000393428
0.000395227
0.000394845
0.000392626
0.000395587
0.000392336
0.000394934
0.000392865
0.000394893
0.000395651
0.000393679
0.000396483
0.000395192
0.000398325
0.00039664
0.000398038
0.000399887
0.000399846
0.000402239
0.000401237
0.000404804
0.000404054
0.000405835
0.000406587
0.000406843
0.000409179
0.000408714
0.000411427
0.000410404
0.000413452
0.00041243
0.000413729
0.000414821
0.0004145
0.000416808
0.000406878
0.00043763
5.42801e-05
0.00128738
0.00166867
0.00322511
0.00346917
0.00364059
0.00344051
0.00319279
0.00288774
0.00256619
0.00226039
0.00198787
0.00173054
0.00152685
0.00132699
0.00117878
0.00103401
0.000921097
0.00082381
0.000755749
0.000717693
0.000682351
0.000654774
0.000630842
0.00061005
0.000591583
0.00057482
0.000559656
0.000545821
0.00053431
0.000523307
0.000513681
0.000505031
0.000494107
0.000487031
0.000484122
0.000474166
0.000477253
0.000467166
0.000465542
0.000461018
0.000457421
0.00045722
0.00044767
0.000449697
0.000443322
0.00044561
0.000445044
0.000442424
0.000445934
0.000441944
0.000445113
0.000442363
0.000445035
0.000445596
0.000443406
0.00044657
0.000444904
0.000448776
0.000446415
0.000448204
0.000449962
0.000450179
0.000452678
0.00045155
0.000455676
0.000454669
0.000456902
0.000457484
0.000457986
0.000460379
0.000460031
0.000463003
0.000461872
0.000465437
0.000464104
0.000465489
0.000466486
0.000466241
0.000469021
0.000456568
0.000497197
6.52933e-05
0.00177105
0.00222303
0.00409994
0.0043832
0.00454048
0.00428476
0.00396237
0.0035775
0.00317733
0.00279861
0.00246073
0.0021462
0.00189267
0.00165047
0.00146494
0.00128866
0.00114797
0.0010214
0.000924846
0.000855252
0.000805668
0.000767816
0.000735065
0.000707179
0.000682837
0.000660947
0.000641246
0.000623664
0.000608778
0.00059469
0.000582493
0.00057113
0.000557762
0.000548588
0.000544544
0.000532257
0.000535025
0.000522723
0.000519993
0.000514147
0.000509099
0.000508465
0.000496339
0.000497841
0.000490202
0.000492699
0.00049227
0.000489175
0.000493234
0.000488622
0.000492216
0.000489019
0.000491924
0.000492527
0.000489922
0.000493521
0.000491475
0.000495971
0.00049322
0.000495187
0.000497081
0.000497402
0.000500251
0.000498949
0.00050371
0.000502545
0.000505155
0.000505754
0.000506283
0.000508922
0.000508614
0.000512019
0.000510765
0.000514877
0.000513372
0.000514887
0.000515868
0.000515661
0.00051923
0.000503972
0.000556103
7.84381e-05
0.00238738
0.00289501
0.00505954
0.00536461
0.00548929
0.00517284
0.00477253
0.00430648
0.00382693
0.00337442
0.00297009
0.00259762
0.00229283
0.00200771
0.00178341
0.00157475
0.00140582
0.00125148
0.00113136
0.00102647
0.000950011
0.000896417
0.0008521
0.00081561
0.000783389
0.000754872
0.000729804
0.000707611
0.000688523
0.000670705
0.000655461
0.000640552
0.000624363
0.000612362
0.000606768
0.0005916
0.000593308
0.000578574
0.000573891
0.000566587
0.000559323
0.000558003
0.000543109
0.000543522
0.000534762
0.000537118
0.000537249
0.000533595
0.000538229
0.000533139
0.000536945
0.000533641
0.000536161
0.000537163
0.000533775
0.000537965
0.000535529
0.00054053
0.000537816
0.000539694
0.000542155
0.000542324
0.000545973
0.000544376
0.00054993
0.000548705
0.000551551
0.000552459
0.000552644
0.000555812
0.000555364
0.000559463
0.000558079
0.000562847
0.000561335
0.000563096
0.000564344
0.000564206
0.000569039
0.00055055
0.000615778
9.40785e-05
0.00316768
0.0037074
0.00611813
0.00642044
0.00648904
0.0061046
0.00562304
0.00507505
0.00451631
0.0039902
0.00351927
0.00308903
0.00273239
0.00240446
0.00214062
0.00189904
0.00170163
0.00151936
0.00137745
0.0012447
0.00114109
0.00105761
0.000992542
0.000942749
0.000899796
0.00086357
0.000831712
0.000803027
0.000778308
0.000755984
0.000736928
0.000717378
0.000697455
0.000681745
0.000674087
0.000655286
0.000654868
0.000637147
0.000629505
0.000620388
0.000609978
0.00060743
0.000589617
0.000588322
0.000578451
0.000580257
0.000581436
0.000577176
0.000582429
0.000577047
0.000580746
0.000577757
0.000579092
0.000580948
0.000576282
0.000581276
0.000578503
0.0005839
0.00058185
0.000583379
0.000587062
0.000586742
0.000591822
0.000589764
0.000596296
0.00059512
0.000597915
0.000599557
0.000598809
0.000602888
0.000601967
0.000607061
0.000605602
0.000611274
0.000609945
0.000612105
0.000614219
0.000614497
0.000621279
0.00059918
0.000678866
0.000112616
0.00415085
0.00468817
0.00729794
0.00756561
0.00754812
0.00708511
0.00651817
0.00588767
0.00525068
0.00465207
0.00411535
0.00362846
0.00322018
0.00285029
0.00254691
0.00227216
0.00204644
0.00183556
0.00167232
0.00151414
0.00138792
0.00128096
0.00118805
0.00110932
0.00104617
0.000997885
0.000955511
0.000917764
0.000886728
0.000858841
0.000834023
0.00080815
0.000782456
0.000761945
0.000751623
0.000728133
0.00072411
0.000702164
0.000690435
0.000678829
0.000664192
0.000659581
0.000638748
0.000635093
0.000624079
0.000624818
0.000627617
0.000622734
0.000628631
0.000623165
0.000626261
0.000624005
0.000623301
0.000626532
0.000620171
0.000626197
0.0006233
0.000629046
0.000628482
0.000629513
0.000635205
0.000634034
0.00064118
0.000638512
0.000646058
0.000645124
0.000647368
0.000650328
0.000647936
0.000653373
0.000651554
0.000657892
0.000656507
0.000663346
0.000662562
0.000665034
0.000668814
0.000670414
0.000680124
0.000654407
0.000749749
0.000134483
0.00538466
0.00587037
0.00862925
0.00882385
0.00868288
0.00812617
0.0074682
0.00675439
0.0060406
0.00537147
0.00477062
0.00422911
0.00377031
0.00335999
0.00301787
0.00270988
0.00245638
0.00221596
0.00203119
0.00184778
0.00169939
0.00157173
0.00145658
0.00135425
0.00126593
0.0011897
0.00112308
0.0010679
0.00102711
0.00099028
0.000955783
0.000921394
0.000888682
0.000862417
0.000847961
0.000817986
0.000808321
0.000779507
0.000762574
0.000747175
0.000727088
0.000719332
0.000695301
0.00068865
0.000676497
0.000675372
0.000680351
0.000674732
0.000681201
0.000675809
0.000677609
0.000676266
0.000672874
0.000678211
0.000670076
0.000677403
0.000674708
0.000680907
0.000682687
0.0006833
0.000691725
0.000689366
0.000698988
0.000695571
0.000703896
0.000703472
0.000704551
0.000709552
0.000704978
0.000712352
0.000709306
0.000716981
0.000715867
0.000724082
0.00072468
0.000726982
0.000732813
0.00073766
0.000751399
0.00072351
0.000836883
0.000160127
0.00692685
0.00728935
0.0101507
0.0102285
0.00991957
0.00924836
0.00849143
0.00769283
0.00690385
0.00616686
0.00550434
0.00491109
0.00440368
0.00395499
0.00357568
0.00323432
0.00295361
0.00268248
0.00247523
0.00226564
0.00209321
0.00194444
0.001808
0.00168363
0.00157313
0.00147404
0.00138572
0.00130752
0.00124113
0.00117967
0.00112316
0.00107521
0.0010308
0.000996245
0.000974929
0.000934602
0.000918209
0.000877915
0.000853954
0.000834006
0.000807752
0.0007964
0.000769308
0.000758741
0.000745152
0.000741133
0.000747667
0.000740703
0.000747282
0.000741652
0.000741622
0.000740499
0.000735505
0.000743453
0.00073425
0.000743231
0.000740614
0.000747929
0.000751916
0.000752756
0.000763768
0.000760176
0.000771937
0.0007677
0.000776512
0.000776823
0.000777111
0.000784455
0.000778951
0.000788641
0.000785182
0.000793772
0.000793854
0.000803566
0.00080755
0.00080756
0.00081493
0.00082306
0.000842816
0.00081462
0.000952057
0.00018998
0.00884676
0.00897776
0.0119091
0.0118225
0.0112957
0.010483
0.00961625
0.00873037
0.00786746
0.00706569
0.00634457
0.00570304
0.00514947
0.00466455
0.00425004
0.00387471
0.00356683
0.00326322
0.0030314
0.00279388
0.00259398
0.00242158
0.00226228
0.00211449
0.00198085
0.00185883
0.00174872
0.00164883
0.00156091
0.00147819
0.00140019
0.00133529
0.00126027
0.00120531
0.00116653
0.00110202
0.00108336
0.00101696
0.000982587
0.000955429
0.000920905
0.000905708
0.00087392
0.000858658
0.000842051
0.000832909
0.00083953
0.000828973
0.000835622
0.000828738
0.000827026
0.000824668
0.000819427
0.00083235
0.000822282
0.000833957
0.000830009
0.000839348
0.000844601
0.000845951
0.000859848
0.000854193
0.000868749
0.00086259
0.000872805
0.000873772
0.000874468
0.000884931
0.000880253
0.000894221
0.000891513
0.000901031
0.000902216
0.000914753
0.000925874
0.000922299
0.000930494
0.000941769
0.00097374
0.000949884
0.00114386
0.000224477
0.0112266
0.0109667
0.0139615
0.0136577
0.0128604
0.0118734
0.0108827
0.00990593
0.00896958
0.00810604
0.00732959
0.00664329
0.00604605
0.00552641
0.00507856
0.00466769
0.00433138
0.00399255
0.00373259
0.00346447
0.00323243
0.00303213
0.00284673
0.00267247
0.00251259
0.00236466
0.0022299
0.00210593
0.00199536
0.00189057
0.00179001
0.00170642
0.00160547
0.00152872
0.00147602
0.00138706
0.00136456
0.00127302
0.00122289
0.00118269
0.00112937
0.00110461
0.00104921
0.00103908
0.00099956
0.000981735
0.00098582
0.000962952
0.000978157
0.000961441
0.000964929
0.000953952
0.000952435
0.000978799
0.000956607
0.000977546
0.000961942
0.000978876
0.000979449
0.000981447
0.00100171
0.000989977
0.00101661
0.00100048
0.00102462
0.00102003
0.00103012
0.00104306
0.00104197
0.00107126
0.00106549
0.00108348
0.00107692
0.00111904
0.00113617
0.00115109
0.00115689
0.001181
0.0012329
0.00120772
0.00146781
0.000263975
0.0141616
0.0132964
0.0163688
0.0157918
0.0146721
0.0134742
0.0123427
0.0112705
0.0102601
0.00933695
0.0085082
0.00777984
0.0071403
0.00658567
0.00610509
0.00565594
0.00528803
0.00491024
0.0046174
0.00431531
0.00404562
0.00381155
0.0035954
0.0033905
0.00320005
0.00302159
0.00285749
0.00270486
0.00256763
0.00243727
0.0023105
0.00220453
0.00207666
0.00197428
0.00190688
0.00179204
0.00176306
0.0016471
0.00157656
0.00152355
0.00145104
0.00141722
0.00134
0.00132783
0.00127198
0.00124061
0.00124217
0.00120519
0.00122461
0.00120226
0.00120937
0.00119469
0.00118992
0.00123391
0.00120634
0.00123801
0.00121492
0.0012352
0.00123589
0.00123469
0.0012655
0.0012464
0.00128647
0.00126341
0.00129873
0.00129394
0.00130952
0.00133066
0.00133032
0.00137736
0.00137256
0.00139877
0.00138307
0.00144391
0.00147576
0.00150765
0.00151373
0.0015403
0.00161555
0.00158873
0.00192711
0.000308542
0.0177588
0.0160287
0.0190992
0.0182895
0.0167944
0.0153487
0.0140586
0.0128852
0.0117998
0.0108176
0.00993909
0.00917005
0.00848768
0.0078949
0.00738024
0.00688847
0.00648351
0.00606105
0.00572884
0.00538852
0.00507514
0.00480039
0.00454725
0.00430624
0.00407979
0.00386499
0.00366569
0.00347852
0.00330925
0.00314858
0.002991
0.00285735
0.00269946
0.00256626
0.00248062
0.00233707
0.00229626
0.00215521
0.002059
0.00199044
0.00189626
0.00185065
0.00175199
0.00173087
0.00166061
0.00161228
0.0016079
0.00155589
0.00157241
0.00154682
0.00155612
0.00154367
0.00153113
0.00159043
0.00156643
0.00160832
0.00158444
0.00160341
0.00160752
0.00160171
0.00164342
0.00162009
0.00167191
0.00164863
0.00169179
0.00169264
0.0017117
0.00174444
0.00174482
0.00180848
0.00180977
0.00184491
0.00182083
0.00188881
0.00193882
0.001991
0.00200362
0.00202504
0.00212383
0.0020983
0.00253149
0.000357883
0.0221314
0.0192621
0.0220015
0.0212037
0.0192927
0.0175628
0.0160993
0.0148176
0.0136562
0.0126137
0.0116868
0.0108786
0.0101523
0.00951511
0.0089626
0.00842282
0.00797383
0.00749948
0.00711998
0.00673654
0.00637307
0.00604959
0.00575159
0.00546751
0.0051985
0.00494033
0.00469854
0.00446922
0.00426052
0.00406291
0.00386804
0.00369999
0.00350639
0.0033354
0.00322593
0.00304853
0.00299034
0.00282067
0.00269267
0.00260351
0.00248314
0.00242136
0.00229869
0.00226347
0.00217639
0.00210737
0.00209215
0.00202184
0.00202853
0.00199768
0.00200743
0.00200228
0.00198024
0.00204906
0.00203393
0.00208522
0.00206609
0.00208118
0.00209064
0.00208016
0.00213306
0.00211047
0.00217468
0.002159
0.00220986
0.00222166
0.00224455
0.00229119
0.00229345
0.00237194
0.00238384
0.00243114
0.00240181
0.00246705
0.00253509
0.00261444
0.00264582
0.00266053
0.00278367
0.00276616
0.0033114
0.000411195
0.0273935
0.0231393
0.0250433
0.0243904
0.0222174
0.0201841
0.0185342
0.017135
0.0158999
0.0147936
0.0138177
0.0129716
0.0122005
0.011511
0.0109163
0.0103243
0.00982487
0.00929134
0.00885555
0.00842384
0.00800427
0.00762374
0.0072716
0.00693596
0.00661666
0.00630692
0.00601389
0.00573315
0.0054758
0.00523299
0.00499286
0.00478233
0.00454565
0.00432831
0.00418781
0.00396959
0.00388765
0.00368422
0.00351695
0.00340057
0.0032477
0.00316405
0.00301265
0.00295836
0.00285036
0.00275609
0.00272482
0.00263125
0.00262094
0.00257852
0.00258387
0.00258942
0.00255777
0.00262583
0.00262284
0.0026804
0.00267302
0.00268273
0.00270107
0.00268788
0.00275271
0.00273919
0.00281746
0.00282046
0.0028792
0.00290769
0.00293538
0.00299678
0.00300326
0.00309255
0.00311985
0.00318317
0.003157
0.00320999
0.00329243
0.00340303
0.00346477
0.0034759
0.00361501
0.00358017
0.00429641
0.00046688
0.0336525
0.0278339
0.0282687
0.0275363
0.0255343
0.0232611
0.0214313
0.019901
0.0185979
0.0174251
0.016397
0.0155152
0.0147008
0.0139507
0.013307
0.0126596
0.0121053
0.0115075
0.0110066
0.0105226
0.0100439
0.00960017
0.00918564
0.00878921
0.00841036
0.00803978
0.00768561
0.00734287
0.00702597
0.00672797
0.00643313
0.00617065
0.00588166
0.00560795
0.0054276
0.00515991
0.00504662
0.00480287
0.00458736
0.00443529
0.00424183
0.00412905
0.00394234
0.00386311
0.00372915
0.00360426
0.0035515
0.00342875
0.00339414
0.00332652
0.00331203
0.00331478
0.00327307
0.00332954
0.00333358
0.00339531
0.0034052
0.00341444
0.00344319
0.00343248
0.00350683
0.00350588
0.00359476
0.003615
0.00368316
0.00372607
0.00376094
0.00383419
0.00384909
0.00394837
0.00399093
0.00407044
0.0040529
0.00410094
0.00418888
0.00432126
0.00440905
0.00442393
0.00457176
0.00450127
0.00544229
0.000521878
0.041001
0.0335128
0.0317651
0.0305507
0.0287373
0.0266989
0.0248287
0.0231644
0.0218126
0.0205792
0.0194911
0.0185748
0.017723
0.0169062
0.0162059
0.0155019
0.0148916
0.0142278
0.0136539
0.0131134
0.012574
0.0120628
0.0115783
0.0111126
0.0106667
0.0102283
0.00980518
0.00938973
0.00900093
0.00863622
0.0082759
0.00795093
0.00759903
0.00725761
0.00702689
0.00669908
0.00654479
0.00625264
0.00597813
0.00577979
0.00553555
0.00538443
0.0051539
0.00504208
0.00487598
0.00471372
0.00463341
0.00447542
0.00441039
0.00430134
0.00424279
0.00420858
0.00414097
0.00417473
0.00416574
0.00422134
0.0042431
0.00425491
0.00429096
0.00428339
0.00436304
0.00437309
0.00447038
0.00450578
0.0045849
0.00464204
0.00468643
0.00477085
0.00479648
0.00490601
0.00496419
0.005061
0.00505663
0.00510501
0.00519389
0.00534103
0.00545442
0.00548043
0.00563614
0.00552517
0.00670522
0.000571474
0.0494986
0.0402816
0.0356194
0.033403
0.0316463
0.0299288
0.0283507
0.0268985
0.0255796
0.0243058
0.0231571
0.022215
0.0213404
0.0204589
0.0196941
0.0189324
0.018269
0.0175423
0.0168908
0.0162902
0.0156895
0.0151092
0.0145484
0.0140038
0.0134808
0.0129661
0.0124668
0.0119706
0.0114998
0.0110585
0.0106243
0.0102287
0.0098062
0.00938509
0.00909179
0.00869142
0.00848435
0.00813414
0.00778802
0.00752991
0.00722144
0.00702015
0.00673507
0.00658082
0.00637434
0.00616623
0.00605046
0.00585079
0.00575011
0.00559811
0.00548857
0.00538414
0.00525546
0.00525053
0.00518893
0.00521175
0.0052191
0.00522146
0.00525517
0.0052459
0.00532412
0.00534223
0.00544368
0.00549287
0.0055817
0.00565339
0.00570802
0.00580324
0.00584069
0.00595885
0.00603216
0.006147
0.00616158
0.00621335
0.00630009
0.00645462
0.00659318
0.00663752
0.00680233
0.00665794
0.00804642
0.000609097
0.0590644
0.048108
0.0398387
0.0360602
0.0341461
0.0327501
0.0315649
0.0304532
0.0293991
0.028354
0.0273594
0.026476
0.025611
0.0246789
0.0238511
0.0230401
0.0223355
0.0215579
0.0208305
0.0201664
0.0195013
0.0188504
0.0182086
0.0175755
0.0169639
0.0163636
0.0157813
0.0151971
0.0146349
0.0141067
0.0135896
0.0131152
0.0126166
0.012109
0.0117442
0.0112645
0.0109945
0.0105765
0.0101445
0.0098105
0.00942114
0.00915519
0.00880249
0.00859369
0.00833606
0.0080709
0.00790836
0.00765758
0.00751212
0.00731368
0.00715582
0.00699117
0.00679386
0.00673677
0.00658214
0.00653102
0.00646171
0.00641888
0.00641917
0.00638277
0.00643884
0.00645053
0.0065442
0.00660085
0.00669371
0.00677762
0.00683994
0.00694275
0.00699093
0.007114
0.00719924
0.00733031
0.00736928
0.00742798
0.00751051
0.00766377
0.00782349
0.00789158
0.00806679
0.00791025
0.00939543
0.00132752
0.0691486
0.0566562
0.0442035
0.0384109
0.0361082
0.0349947
0.0342757
0.0335833
0.0328858
0.0321453
0.0314022
0.0307335
0.0300822
0.0293398
0.0286456
0.0278849
0.0271773
0.0263728
0.0255828
0.02486
0.0241312
0.0234121
0.0226887
0.0219597
0.0212478
0.0205512
0.019879
0.0192015
0.0185412
0.0179173
0.017309
0.0167474
0.0161667
0.0155663
0.0151198
0.0145521
0.014206
0.0137165
0.0131931
0.0127725
0.01229
0.011942
0.0115063
0.0112288
0.010907
0.0105718
0.0103487
0.010035
0.009832
0.00957672
0.00936272
0.00913899
0.0088739
0.00876478
0.0085373
0.00841243
0.00824647
0.00811648
0.00801711
0.00788114
0.00786526
0.00782253
0.00787694
0.00790805
0.00797941
0.00806157
0.00812117
0.00822155
0.00827538
0.00839673
0.00848666
0.00862627
0.00869055
0.00875922
0.00883651
0.00897875
0.00915003
0.00924321
0.00942789
0.00929553
0.0106723
0.00320433
0.0788943
0.0650686
0.0488763
0.0405267
0.0375968
0.0366686
0.0364048
0.0361568
0.0358443
0.0354716
0.0350416
0.0346563
0.0342719
0.0337793
0.0333114
0.0327576
0.032235
0.0316079
0.0309561
0.0303302
0.0296422
0.0289034
0.0281144
0.0272902
0.0264727
0.0256765
0.0249146
0.0241461
0.0233875
0.0226639
0.0219561
0.0212973
0.0206259
0.019925
0.0193846
0.0187183
0.0182783
0.0177066
0.0170819
0.016562
0.0159745
0.0155319
0.0150058
0.0146492
0.014258
0.0138481
0.0135552
0.0131656
0.0128896
0.0125628
0.0122785
0.0119847
0.0116431
0.011471
0.0111758
0.0109825
0.0107379
0.0105269
0.0103421
0.010108
0.00999316
0.0098078
0.00973725
0.00962941
0.009615
0.00965375
0.00967443
0.00973757
0.0097669
0.00986476
0.00994216
0.010073
0.0101554
0.0102342
0.010306
0.0104273
0.0105952
0.010706
0.0108937
0.0108275
0.0118017
0.00770688
0.0875903
0.0734561
0.0553073
0.0435105
0.0391954
0.0381997
0.0382566
0.0384083
0.0384668
0.0384315
0.0382911
0.0381499
0.0379942
0.0377835
0.0375806
0.0372851
0.0370053
0.0366122
0.0361829
0.0357573
0.0352496
0.0346797
0.0340458
0.0333471
0.0326055
0.0318236
0.0310258
0.0301912
0.0293482
0.0285313
0.027723
0.0269622
0.0261942
0.0253878
0.0247397
0.0239624
0.0234058
0.0227359
0.021996
0.0213604
0.0206546
0.0201022
0.0194758
0.0190283
0.0185594
0.0180702
0.0177014
0.0172352
0.0168805
0.0164787
0.0161188
0.0157473
0.0153157
0.0150623
0.0146883
0.0144175
0.014092
0.0137973
0.0135306
0.0132067
0.0130045
0.0127156
0.0125456
0.0123102
0.0121508
0.0120073
0.011855
0.0117718
0.0116852
0.0117124
0.0117384
0.0118212
0.0118769
0.0119307
0.0119813
0.012067
0.0122122
0.0123226
0.0125002
0.0125156
0.0130453
0.0113321
0.0948113
0.0818266
0.0636091
0.0498828
0.0426453
0.0407235
0.040613
0.0409048
0.0411906
0.0413904
0.0414727
0.0415072
0.0415173
0.0414872
0.0414658
0.0413557
0.0412941
0.0411555
0.0410003
0.0408201
0.0405332
0.0401874
0.039781
0.0392946
0.0387473
0.0381458
0.0375088
0.0368111
0.0360759
0.035332
0.0345629
0.0338029
0.0330072
0.0321363
0.0313825
0.0304918
0.0297955
0.0290145
0.0281511
0.0273899
0.0265589
0.025888
0.0251536
0.0246047
0.0240482
0.0234706
0.0230135
0.0224624
0.0220168
0.0215295
0.0210828
0.0206266
0.0201027
0.0197572
0.0193023
0.0189505
0.0185469
0.0181663
0.0178079
0.0173861
0.0170861
0.0166954
0.0164251
0.0160854
0.015815
0.0155506
0.0152707
0.0150528
0.0147943
0.0146422
0.0144691
0.0143534
0.0141962
0.0141044
0.0140805
0.0141001
0.0141886
0.014242
0.014356
0.014417
0.0145912
0.0143732
0.100687
0.0899386
0.0733096
0.0592754
0.0500004
0.0457483
0.0445078
0.0443607
0.0445446
0.0447765
0.0449474
0.0450537
0.04515
0.0452015
0.0452735
0.0452753
0.0453222
0.0453296
0.045334
0.0453301
0.0452763
0.0451912
0.0450546
0.0448107
0.0444956
0.0441313
0.0437181
0.0432315
0.0426958
0.0421304
0.041521
0.0408985
0.0402315
0.039475
0.0388005
0.0379889
0.037319
0.0365649
0.0356859
0.0348507
0.0339232
0.033141
0.0323048
0.031652
0.031004
0.0303324
0.0297737
0.029129
0.0285795
0.0279944
0.027446
0.0268897
0.0262604
0.0258033
0.0252538
0.0248081
0.024322
0.0238544
0.023407
0.0228925
0.022494
0.0220086
0.0216369
0.0211919
0.0208073
0.0204281
0.02003
0.0196902
0.0192964
0.0190038
0.0186888
0.0184286
0.0180843
0.0177629
0.0174947
0.0172908
0.0171101
0.016884
0.0167723
0.0167822
0.0167383
0.0167336
0.106159
0.0977471
0.0836478
0.0703755
0.0602721
0.0536246
0.0504672
0.0491692
0.0488176
0.0488027
0.0488661
0.048931
0.049039
0.0491038
0.0491976
0.0492462
0.0493244
0.0493933
0.0494628
0.0495402
0.0495979
0.0496545
0.0496782
0.0496706
0.0496136
0.0495312
0.0493672
0.0491227
0.0488323
0.048498
0.0481054
0.0476833
0.0472136
0.0466524
0.0461384
0.045504
0.0449681
0.0443707
0.0436522
0.0429449
0.0421314
0.0414181
0.0406515
0.0400245
0.0393963
0.0387327
0.0381473
0.0374678
0.0368368
0.0361608
0.0355046
0.0348357
0.0340927
0.0335067
0.0328537
0.0323048
0.031732
0.0311758
0.0306376
0.0300285
0.0295206
0.02893
0.0284405
0.0278842
0.0273824
0.0268932
0.0263869
0.0259353
0.025425
0.0249945
0.0245413
0.0241439
0.0236515
0.0231489
0.0226887
0.0223042
0.0219336
0.0214821
0.0210521
0.0206439
0.0200461
0.0193894
0.111675
0.105174
0.0938636
0.0816551
0.0712266
0.0634867
0.0582016
0.055185
0.0540705
0.0535288
0.053222
0.053116
0.0531624
0.0531865
0.0532471
0.0532943
0.0533681
0.0534489
0.0535232
0.053616
0.0537054
0.0538153
0.0539145
0.0540125
0.0540931
0.0541636
0.0542174
0.0542303
0.0542227
0.0541512
0.0540089
0.0538285
0.0536001
0.0532831
0.0529774
0.0525716
0.0522199
0.0518271
0.0513316
0.050827
0.0502204
0.0496702
0.0490768
0.0485754
0.0480683
0.0475258
0.0470404
0.0464792
0.045945
0.045366
0.0447889
0.0441904
0.0435077
0.0429243
0.0422711
0.0416842
0.0410732
0.0404607
0.0398478
0.0391539
0.0385241
0.0378151
0.0371818
0.0364945
0.0358591
0.0352494
0.0346294
0.034059
0.0334312
0.032863
0.0322721
0.0317357
0.031114
0.0304646
0.0298466
0.0293004
0.0287557
0.0281139
0.027438
0.0267202
0.02575
0.0243461
0.116481
0.111772
0.103138
0.0926014
0.0827866
0.0748813
0.0687931
0.0643461
0.0612546
0.059116
0.0580722
0.0577473
0.0576545
0.0575141
0.0574452
0.0574365
0.0574818
0.0575308
0.0575604
0.0576198
0.0576926
0.0577979
0.0579077
0.0580265
0.0581521
0.0582825
0.058429
0.0585709
0.0587188
0.0588517
0.0589602
0.0590495
0.0590894
0.0590438
0.0589828
0.0588429
0.0587152
0.0585569
0.058318
0.058057
0.057707
0.0573747
0.0570093
0.0566895
0.0563587
0.0559943
0.0556638
0.0552789
0.0549051
0.0544942
0.0540754
0.0536348
0.0531197
0.0526621
0.0521446
0.0516635
0.0511608
0.0506513
0.0501358
0.0495509
0.0490011
0.0483794
0.0477912
0.0471357
0.0464796
0.0458124
0.0451095
0.0444243
0.0436781
0.0429612
0.0422204
0.0415244
0.040758
0.0399556
0.0391838
0.0384795
0.0377742
0.036974
0.0361051
0.0351476
0.0339162
0.0318675
0.120539
0.11729
0.111002
0.102828
0.0945337
0.0871889
0.0810413
0.0761161
0.0722247
0.0691353
0.0667566
0.0648939
0.0634995
0.062511
0.0621397
0.0620244
0.0619884
0.061871
0.0617446
0.0617102
0.0617234
0.0617691
0.0618182
0.061879
0.0619662
0.0620754
0.0622232
0.0623916
0.062587
0.0627954
0.0630142
0.063241
0.0634681
0.0636676
0.063865
0.0640055