/*--------------------------------*- C++ -*----------------------------------*\
| =========                 |                                                 |
| \\      /  F ield         | OpenFOAM: The Open Source CFD Toolbox           |
|  \\    /   O peration     | Version:  5.x                                   |
|   \\  /    A nd           | Web:      www.OpenFOAM.org                      |
|    \\/     M anipulation  |                                                 |
\*---------------------------------------------------------------------------*/
FoamFile
{
    version     2.0;
    format      ascii;
    class       volScalarField;
    location    "50";
    object      nuTilda;
}
// * * * * * * * * * * * * * * * * * * * * * * * * * * * * * * * * * * * * * //

dimensions      [0 2 -1 0 0 0 0];

internalField   nonuniform List<scalar> 
11040
(
0.0021052
0.00259856
0.00283848
0.00290094
0.00284198
0.00271557
0.00256999
0.00242173
0.00229964
0.00218514
0.00203635
0.00188448
0.00176085
0.0016699
0.00158451
0.00150089
0.00141869
0.00134023
0.00126539
0.00119257
0.00112045
0.00105617
0.00099902
0.000942254
0.000885189
0.000827287
0.000768067
0.000706952
0.000642566
0.000560181
0.000400863
0.000354582
0.00042464
0.000303322
0.000288869
0.00027615
0.000266003
0.00026855
0.000311856
0.000402342
0.000486444
0.00616853
0.00660001
0.00602757
0.00544006
0.00484012
0.00431519
0.00386999
0.00351965
0.00345641
0.00345226
0.00341177
0.00331052
0.00317694
0.00304357
0.0028995
0.00275715
0.00262866
0.00251627
0.00241731
0.0023286
0.00224858
0.00218165
0.00212344
0.0020682
0.00201562
0.00196469
0.00191441
0.00186366
0.0018108
0.00174586
0.00162965
0.00155248
0.00160772
0.00156432
0.00153476
0.00148318
0.00140804
0.00140295
0.00160563
0.00213486
0.0021263
0.0127164
0.0133734
0.0125741
0.0115582
0.0104379
0.00933257
0.00830522
0.00737594
0.00655491
0.00583662
0.00517644
0.00461745
0.0043071
0.00423337
0.00414918
0.0040486
0.00395311
0.00386486
0.00378528
0.00371499
0.00365448
0.00360804
0.00356826
0.00352894
0.00349004
0.00345171
0.00341413
0.0033773
0.00334117
0.00330232
0.00325116
0.0032101
0.00321069
0.00319931
0.00320982
0.00322501
0.00322008
0.00324866
0.00354371
0.0039643
0.00408965
0.0203675
0.0211023
0.0202218
0.0188818
0.0173185
0.0157105
0.0141553
0.0126814
0.0113117
0.0100386
0.00879254
0.00770378
0.00686734
0.0062559
0.00573883
0.00547767
0.00534443
0.00524123
0.0051602
0.00509803
0.00505239
0.00502365
0.00500308
0.00498394
0.00496499
0.00494635
0.00492862
0.00491233
0.00489844
0.00488685
0.00487688
0.00487546
0.0048941
0.00492401
0.00497844
0.00505467
0.00513676
0.00521795
0.00555344
0.00607457
0.00640556
0.0288729
0.029611
0.0287321
0.027189
0.0252933
0.0232406
0.0211667
0.0191042
0.0171485
0.015313
0.0135112
0.0118987
0.0106083
0.00959245
0.00870563
0.00796026
0.00733882
0.00695218
0.00675023
0.00662577
0.00654799
0.00650474
0.0064796
0.00646147
0.00644822
0.00643958
0.00643557
0.00643634
0.0064427
0.00645567
0.00647733
0.00651199
0.00656652
0.00664352
0.006751
0.00689218
0.00706336
0.00723604
0.00762037
0.00827069
0.00916725
0.0379823
0.0386866
0.0378583
0.0362329
0.0341315
0.0316984
0.0291209
0.0265393
0.0240503
0.0216712
0.0193055
0.0171284
0.0153183
0.0138641
0.0126155
0.0115294
0.0105876
0.00975686
0.0090395
0.00862452
0.00839898
0.00826787
0.00818113
0.00811525
0.00806815
0.00803752
0.00802116
0.0080176
0.00802654
0.00804891
0.00808733
0.00814611
0.00823154
0.0083496
0.00850755
0.00871096
0.00896445
0.00924142
0.00968579
0.0104013
0.0117227
0.0474771
0.04811
0.0473571
0.0457502
0.0435461
0.0409168
0.0380617
0.0351183
0.0322023
0.029346
0.0264538
0.0237179
0.0213617
0.0194025
0.0176892
0.0161758
0.0148371
0.0136446
0.0125729
0.0116334
0.0109976
0.0106198
0.0103601
0.0101722
0.0100377
0.00993733
0.00986362
0.00981297
0.00978419
0.00977814
0.00979794
0.00984863
0.00993706
0.0100708
0.0102577
0.0105048
0.0108205
0.0111895
0.0116965
0.0124278
0.0137556
0.0570863
0.0576484
0.0569861
0.0554703
0.0532952
0.0506511
0.0477104
0.0445921
0.0414133
0.0382148
0.0349078
0.0316901
0.0288195
0.0263471
0.0241362
0.0221478
0.0203592
0.0187458
0.0172838
0.0159476
0.0147582
0.0138674
0.0132952
0.0129103
0.0126317
0.0124134
0.0122338
0.0120842
0.0119621
0.0118689
0.0118097
0.0117917
0.0118242
0.0119173
0.0120805
0.0123237
0.0126559
0.0130729
0.0136208
0.0143485
0.0155029
0.0666041
0.0670821
0.0665059
0.065126
0.0630893
0.060571
0.0577092
0.0545988
0.0513405
0.0479717
0.0444136
0.0408537
0.0375646
0.0346313
0.0319508
0.0294963
0.0272511
0.0251956
0.0233096
0.0215716
0.0199632
0.0186252
0.0176229
0.0168868
0.0163435
0.0159153
0.0155542
0.0152359
0.0149505
0.0146971
0.0144804
0.0143097
0.0141975
0.014158
0.0142047
0.0143516
0.0146114
0.0149883
0.0155095
0.0161981
0.0171487
0.0757854
0.0761801
0.0756856
0.0744665
0.0726357
0.07034
0.0676839
0.0647325
0.0615668
0.0581919
0.0545576
0.0508284
0.0472694
0.0439965
0.0409605
0.0381176
0.0354638
0.0329947
0.0306963
0.028553
0.026548
0.0248542
0.02351
0.0224185
0.0215465
0.0208282
0.02021
0.0196566
0.019148
0.0186752
0.0182383
0.0178441
0.0175055
0.017239
0.0170617
0.0169942
0.0170563
0.0172599
0.0176288
0.0181816
0.0189076
0.0844284
0.0847474
0.0843281
0.0832776
0.0816832
0.0796634
0.0772937
0.0745971
0.0716412
0.0684488
0.0649533
0.0612788
0.0576584
0.0542118
0.0509122
0.047774
0.0448041
0.0420125
0.0393679
0.0368626
0.0344895
0.0324653
0.0308121
0.0294023
0.0282235
0.0272179
0.026331
0.0255246
0.0247737
0.0240636
0.0233879
0.0227479
0.0221517
0.0216132
0.0211485
0.0207812
0.0205372
0.0204349
0.0205019
0.0207666
0.0211676
0.0923845
0.0926374
0.0922844
0.091396
0.0900409
0.0883132
0.0862669
0.0839006
0.0812727
0.0783944
0.0752015
0.0717792
0.068312
0.0649037
0.0615425
0.058263
0.0550905
0.0520431
0.0491261
0.0463381
0.0436777
0.041378
0.0394246
0.0376606
0.0361581
0.0348873
0.033764
0.0327376
0.0317765
0.030861
0.0299794
0.0291268
0.0283054
0.0275223
0.0267871
0.0261202
0.0255469
0.0250857
0.0247658
0.0246254
0.0245738
0.0995639
0.0997579
0.0994591
0.098717
0.0975861
0.09614
0.094418
0.0924089
0.0901591
0.0876725
0.0848887
0.0818595
0.0787057
0.07552
0.0723037
0.0691026
0.0659297
0.0628088
0.0597584
0.0567909
0.053913
0.0513959
0.0492372
0.0472058
0.0453306
0.043699
0.0422999
0.0410622
0.0399274
0.0388576
0.0378298
0.0368307
0.0358573
0.0349068
0.0339803
0.0330916
0.0322598
0.0314965
0.0308254
0.0302864
0.0297587
0.10593
0.106066
0.10581
0.105196
0.104265
0.103075
0.101653
0.0999887
0.0981168
0.0960372
0.0936985
0.0911132
0.0883882
0.085578
0.082679
0.0797235
0.0767377
0.0737549
0.0707759
0.0678155
0.0648875
0.0622825
0.0600207
0.0578693
0.0558159
0.0538695
0.0520877
0.0505358
0.0491727
0.0479342
0.0467741
0.0456632
0.0445856
0.0435322
0.0424952
0.0414798
0.0404966
0.0395474
0.0386459
0.0378253
0.0369428
0.111466
0.111562
0.111345
0.110841
0.110086
0.109117
0.107959
0.106602
0.105074
0.103375
0.101451
0.0993276
0.0970691
0.0947066
0.0922307
0.0896602
0.0870142
0.0843111
0.0815672
0.0787964
0.0760192
0.0735023
0.0712721
0.069126
0.0670585
0.0650682
0.0631464
0.0613061
0.0595958
0.0580786
0.056726
0.0554826
0.0543086
0.0531794
0.0520763
0.0509958
0.0499407
0.0489048
0.047893
0.0469286
0.0458691
0.116242
0.116303
0.116117
0.115704
0.115101
0.114313
0.113374
0.112277
0.111047
0.109681
0.108137
0.106435
0.104616
0.102699
0.10066
0.0985212
0.0963031
0.0940036
0.0916312
0.0891957
0.0867075
0.0844153
0.0823573
0.0803556
0.0784088
0.0765142
0.0746668
0.0728606
0.0710959
0.0693835
0.0677412
0.0662368
0.0648849
0.0636459
0.0624744
0.061349
0.0602602
0.0591935
0.0581466
0.0571336
0.0560333
0.120329
0.12036
0.120199
0.119859
0.119368
0.118732
0.117976
0.117099
0.116116
0.115029
0.113806
0.112462
0.111027
0.109499
0.107876
0.106164
0.104369
0.102494
0.100552
0.0985364
0.0964493
0.094495
0.092714
0.0909643
0.0892467
0.0875606
0.0859048
0.084277
0.0826733
0.0810893
0.0795228
0.0779796
0.0764703
0.0750066
0.0736183
0.0723464
0.0711783
0.0700747
0.069014
0.067995
0.0669197
0.123645
0.123658
0.12352
0.123238
0.122834
0.122316
0.121701
0.120998
0.120204
0.119327
0.118349
0.11728
0.116141
0.11493
0.113645
0.112289
0.110865
0.109373
0.107814
0.106189
0.104499
0.1029
0.101428
0.0999701
0.09853
0.097108
0.095704
0.0943222
0.0929559
0.0916023
0.0902582
0.0889201
0.0875856
0.0862531
0.0849204
0.0835989
0.0823018
0.0810313
0.0798173
0.0787062
0.0776021
0.126233
0.126235
0.126115
0.125878
0.12554
0.125116
0.124605
0.124023
0.12337
0.122653
0.121863
0.120998
0.120079
0.119103
0.118071
0.116986
0.115847
0.114655
0.113409
0.112109
0.110755
0.109464
0.108268
0.10708
0.105903
0.104737
0.103582
0.102438
0.101305
0.100182
0.0990704
0.0979652
0.0968632
0.0957615
0.0946528
0.0935369
0.0924161
0.0912835
0.0901426
0.0890078
0.087847
0.128283
0.128279
0.128175
0.127972
0.127685
0.127325
0.126896
0.126408
0.125868
0.12527
0.124616
0.123903
0.123149
0.122356
0.121516
0.120633
0.11971
0.118747
0.117743
0.116697
0.115609
0.114568
0.113599
0.112637
0.111683
0.110738
0.109801
0.108872
0.107951
0.107037
0.10613
0.105228
0.104332
0.103442
0.102549
0.101654
0.100757
0.0998497
0.0989296
0.0979985
0.0970318
0.129945
0.129938
0.129847
0.129671
0.129424
0.129115
0.128752
0.128336
0.127877
0.127372
0.126821
0.12623
0.125602
0.124943
0.124248
0.123522
0.122765
0.121977
0.12116
0.120311
0.119431
0.118586
0.117799
0.117018
0.116244
0.115479
0.114717
0.113963
0.11322
0.112484
0.111754
0.11103
0.110311
0.109598
0.108885
0.108174
0.107464
0.106751
0.106031
0.105308
0.104566
0.131318
0.131309
0.131228
0.131075
0.130859
0.13059
0.130275
0.129921
0.129526
0.129097
0.128628
0.128126
0.127596
0.127041
0.126463
0.125858
0.125229
0.124577
0.123904
0.123207
0.122488
0.121797
0.121153
0.120514
0.11988
0.119258
0.118638
0.118026
0.117422
0.116829
0.116244
0.115664
0.115089
0.114522
0.113956
0.113393
0.112834
0.112274
0.111712
0.111151
0.110585
0.132468
0.132459
0.132386
0.132251
0.132061
0.131825
0.131549
0.131239
0.1309
0.130528
0.130127
0.129696
0.129246
0.128774
0.128284
0.127776
0.127252
0.126707
0.126146
0.125568
0.124974
0.124404
0.123871
0.123345
0.122823
0.122312
0.121806
0.121306
0.120814
0.12033
0.119857
0.119393
0.118935
0.118483
0.118033
0.117587
0.117145
0.116705
0.116265
0.115828
0.115393
0.133444
0.133435
0.13337
0.133249
0.13308
0.132871
0.132628
0.132355
0.132057
0.131732
0.131383
0.131011
0.130623
0.130221
0.129802
0.129369
0.128924
0.128468
0.127999
0.127516
0.127022
0.126546
0.126102
0.125665
0.125235
0.124812
0.124395
0.123983
0.12358
0.123184
0.122797
0.122418
0.122049
0.121686
0.121327
0.120972
0.120623
0.120276
0.119931
0.119591
0.119256
0.134281
0.134273
0.134214
0.134105
0.133954
0.133768
0.133552
0.13331
0.133046
0.132762
0.132457
0.132134
0.131796
0.131447
0.131087
0.130718
0.130337
0.129947
0.129549
0.129143
0.128731
0.128331
0.127958
0.127591
0.127232
0.126878
0.126531
0.12619
0.125857
0.125531
0.125213
0.124902
0.124599
0.124304
0.124015
0.123732
0.123455
0.123181
0.12291
0.122643
0.122383
0.135006
0.134999
0.134944
0.134846
0.13471
0.134544
0.134351
0.134135
0.1339
0.133648
0.133381
0.133097
0.132803
0.132498
0.132184
0.131864
0.131537
0.131204
0.130864
0.130518
0.130168
0.129832
0.129518
0.129208
0.128905
0.128607
0.128316
0.128031
0.127754
0.127483
0.12722
0.126963
0.126714
0.126472
0.126236
0.126006
0.125782
0.125564
0.12535
0.12514
0.124937
0.135638
0.135631
0.135581
0.135492
0.13537
0.13522
0.135047
0.134854
0.134644
0.134419
0.134181
0.133932
0.133672
0.133406
0.133133
0.132855
0.132571
0.132282
0.13199
0.131695
0.131396
0.131108
0.13084
0.130578
0.13032
0.130068
0.129822
0.129583
0.12935
0.129123
0.128903
0.12869
0.128483
0.128283
0.128088
0.1279
0.127717
0.127539
0.127366
0.127198
0.12704
0.136192
0.136186
0.13614
0.13606
0.13595
0.135815
0.135659
0.135485
0.135296
0.135095
0.134882
0.13466
0.134431
0.134197
0.133958
0.133714
0.133466
0.133216
0.132962
0.132707
0.132451
0.132205
0.131974
0.131749
0.131528
0.131313
0.131104
0.1309
0.130703
0.130512
0.130327
0.130148
0.129975
0.129808
0.129647
0.129491
0.12934
0.129194
0.129053
0.128917
0.128789
0.136682
0.136675
0.136634
0.136561
0.136462
0.13634
0.1362
0.136043
0.135873
0.135692
0.135501
0.135302
0.135098
0.134889
0.134677
0.134462
0.134245
0.134026
0.133805
0.133585
0.133363
0.13315
0.13295
0.132755
0.132565
0.13238
0.132201
0.132027
0.131859
0.131697
0.13154
0.131389
0.131243
0.131103
0.130968
0.130837
0.130712
0.130592
0.130475
0.130363
0.130259
0.137115
0.137108
0.137071
0.137005
0.136916
0.136806
0.13668
0.136539
0.136386
0.136223
0.136052
0.135873
0.135689
0.135502
0.135313
0.135121
0.134929
0.134736
0.134544
0.13435
0.134158
0.133972
0.133797
0.133628
0.133463
0.133303
0.133148
0.132999
0.132855
0.132716
0.132582
0.132453
0.13233
0.132211
0.132097
0.131987
0.131882
0.131781
0.131684
0.131591
0.131506
0.137501
0.137494
0.13746
0.137401
0.137321
0.137222
0.137108
0.136981
0.136844
0.136697
0.136543
0.136382
0.136217
0.136049
0.135879
0.135708
0.135536
0.135365
0.135194
0.135024
0.134857
0.134694
0.134541
0.134392
0.134248
0.134109
0.133974
0.133845
0.13372
0.1336
0.133485
0.133375
0.133269
0.133168
0.13307
0.132977
0.132888
0.132803
0.132721
0.132643
0.132572
0.137845
0.137839
0.137809
0.137756
0.137683
0.137595
0.137492
0.137378
0.137254
0.137122
0.136983
0.136838
0.13669
0.13654
0.136387
0.136234
0.13608
0.135927
0.135775
0.135624
0.135476
0.135332
0.135197
0.135066
0.134939
0.134817
0.134699
0.134586
0.134478
0.134374
0.134274
0.134179
0.134088
0.134
0.133917
0.133837
0.133761
0.133688
0.133618
0.133552
0.133492
0.138154
0.138149
0.138121
0.138074
0.138009
0.137929
0.137837
0.137734
0.137623
0.137504
0.137379
0.137249
0.137116
0.136981
0.136844
0.136707
0.136569
0.136432
0.136296
0.136162
0.13603
0.135902
0.135782
0.135666
0.135554
0.135446
0.135342
0.135243
0.135148
0.135057
0.13497
0.134887
0.134808
0.134732
0.13466
0.134591
0.134525
0.134462
0.134403
0.134346
0.134294
0.138432
0.138427
0.138403
0.138361
0.138303
0.138231
0.138148
0.138056
0.137956
0.137849
0.137736
0.13762
0.1375
0.137379
0.137256
0.137133
0.13701
0.136888
0.136767
0.136647
0.136531
0.136416
0.136309
0.136205
0.136105
0.136009
0.135917
0.135829
0.135745
0.135665
0.135589
0.135516
0.135447
0.13538
0.135317
0.135257
0.1352
0.135146
0.135094
0.135044
0.134999
0.138683
0.138679
0.138658
0.13862
0.138569
0.138505
0.138431
0.138348
0.138258
0.138162
0.138061
0.137956
0.137849
0.13774
0.13763
0.137519
0.137409
0.1373
0.137192
0.137086
0.136982
0.136881
0.136785
0.136693
0.136604
0.136518
0.136436
0.136358
0.136283
0.136212
0.136144
0.13608
0.136018
0.13596
0.135904
0.135851
0.135801
0.135753
0.135708
0.135665
0.135625
0.138909
0.138907
0.138889
0.138856
0.13881
0.138754
0.138688
0.138614
0.138534
0.138448
0.138357
0.138263
0.138167
0.138069
0.13797
0.137871
0.137772
0.137675
0.137578
0.137484
0.137392
0.137301
0.137216
0.137134
0.137055
0.13698
0.136907
0.136837
0.136771
0.136707
0.136646
0.136589
0.136534
0.136482
0.136432
0.136385
0.136341
0.136298
0.136258
0.13622
0.136185
0.139114
0.139115
0.1391
0.139072
0.139032
0.138982
0.138924
0.138858
0.138786
0.13871
0.138629
0.138545
0.138458
0.13837
0.138282
0.138193
0.138105
0.138017
0.137931
0.137847
0.137764
0.137685
0.137609
0.137536
0.137466
0.137398
0.137334
0.137272
0.137213
0.137156
0.137102
0.137051
0.137003
0.136956
0.136912
0.13687
0.136831
0.136793
0.136756
0.136722
0.13669
0.139301
0.139303
0.139292
0.139269
0.139235
0.139192
0.139141
0.139084
0.13902
0.138952
0.13888
0.138805
0.138728
0.138649
0.13857
0.13849
0.138411
0.138333
0.138256
0.13818
0.138107
0.138035
0.137968
0.137902
0.13784
0.13778
0.137722
0.137667
0.137614
0.137564
0.137516
0.137471
0.137427
0.137386
0.137347
0.13731
0.137275
0.137241
0.137209
0.137178
0.13715
0.13947
0.139475
0.139468
0.13945
0.139423
0.139387
0.139344
0.139294
0.139238
0.139178
0.139115
0.139048
0.138979
0.138909
0.138838
0.138767
0.138696
0.138626
0.138557
0.138489
0.138424
0.13836
0.138299
0.138241
0.138185
0.138131
0.138079
0.13803
0.137983
0.137938
0.137895
0.137854
0.137815
0.137778
0.137743
0.13771
0.137678
0.137648
0.137619
0.137592
0.137566
0.139622
0.139629
0.139627
0.139615
0.139595
0.139568
0.139533
0.139491
0.139444
0.139392
0.139337
0.139279
0.139218
0.139156
0.139093
0.139029
0.138966
0.138903
0.138841
0.138781
0.138722
0.138664
0.13861
0.138557
0.138507
0.138458
0.138412
0.138367
0.138324
0.138284
0.138245
0.138208
0.138173
0.13814
0.138108
0.138078
0.138049
0.138022
0.137995
0.13797
0.137947
0.139759
0.139768
0.13977
0.139765
0.139753
0.139734
0.139709
0.139677
0.13964
0.139599
0.139552
0.139503
0.139451
0.139397
0.139342
0.139286
0.13923
0.139174
0.139118
0.139064
0.139011
0.138959
0.138909
0.138861
0.138815
0.138771
0.138728
0.138687
0.138648
0.138611
0.138576
0.138542
0.13851
0.138479
0.13845
0.138422
0.138395
0.138369
0.138345
0.138322
0.1383
0.139875
0.139886
0.139891
0.139892
0.139887
0.139878
0.139864
0.139845
0.139821
0.139793
0.13976
0.139723
0.139683
0.139641
0.139596
0.139549
0.139502
0.139454
0.139406
0.139357
0.13931
0.139262
0.139216
0.139172
0.139128
0.139087
0.139046
0.139008
0.138971
0.138936
0.138902
0.13887
0.138839
0.13881
0.138782
0.138755
0.13873
0.138705
0.138682
0.138659
0.138638
0.139954
0.13996
0.139964
0.139964
0.139963
0.13996
0.139955
0.139948
0.139938
0.139927
0.139913
0.139896
0.139877
0.139856
0.139832
0.139807
0.13978
0.139751
0.139722
0.139691
0.139659
0.139625
0.139589
0.139553
0.139516
0.139479
0.139442
0.139405
0.139368
0.139333
0.139298
0.139264
0.139232
0.139201
0.139171
0.139142
0.139114
0.139088
0.139063
0.13904
0.139018
0.139989
0.139993
0.139995
0.139997
0.139997
0.139996
0.139995
0.139992
0.139989
0.139985
0.139979
0.139972
0.139964
0.139955
0.139944
0.139932
0.13992
0.139907
0.139894
0.13988
0.139866
0.13985
0.139834
0.139817
0.1398
0.139781
0.139762
0.139743
0.139722
0.139702
0.139682
0.139661
0.139641
0.13962
0.1396
0.139579
0.139558
0.139537
0.139515
0.139494
0.139472
0.140007
0.14001
0.140012
0.140013
0.140015
0.140015
0.140016
0.140016
0.140015
0.140014
0.140013
0.140011
0.140008
0.140004
0.14
0.139995
0.139989
0.139982
0.139976
0.139969
0.139962
0.139954
0.139947
0.13994
0.139932
0.139924
0.139916
0.139907
0.139898
0.139889
0.139879
0.13987
0.13986
0.139849
0.139839
0.139828
0.139817
0.139805
0.139793
0.139781
0.139768
0.140014
0.140016
0.140018
0.140019
0.140021
0.140022
0.140023
0.140024
0.140025
0.140026
0.140026
0.140026
0.140027
0.140026
0.140026
0.140024
0.140022
0.14002
0.140017
0.140014
0.140011
0.140007
0.140004
0.14
0.139996
0.139993
0.139989
0.139985
0.139981
0.139976
0.139972
0.139967
0.139962
0.139957
0.139952
0.139947
0.139941
0.139936
0.139929
0.139923
0.139916
0.140013
0.140014
0.140016
0.140017
0.140018
0.14002
0.140021
0.140022
0.140023
0.140024
0.140025
0.140025
0.140026
0.140027
0.140028
0.140028
0.140028
0.140028
0.140028
0.140027
0.140026
0.140025
0.140024
0.140022
0.140021
0.14002
0.140019
0.140017
0.140016
0.140015
0.140014
0.140012
0.14001
0.140009
0.140007
0.140005
0.140002
0.14
0.139997
0.139994
0.139991
0.140006
0.140006
0.140007
0.140008
0.140008
0.140009
0.14001
0.14001
0.140011
0.140011
0.140012
0.140012
0.140012
0.140012
0.140011
0.140011
0.14001
0.140008
0.140006
0.139999
0.139992
0.139985
0.139979
0.139972
0.139965
0.139959
0.139954
0.13995
0.139947
0.139945
0.139943
0.139942
0.139941
0.13994
0.139939
0.139938
0.139937
0.139936
0.139935
0.139934
0.139933
0.00241485
0.00304163
0.00381659
0.00540631
0.00452457
0.0183447
0.0515547
0.0775575
0.0930255
0.102429
0.108623
0.113015
0.11632
0.118924
0.12105
0.12284
0.124384
0.125743
0.126957
0.128052
0.129046
0.129952
0.130777
0.13153
0.132216
0.132841
0.133411
0.133928
0.134395
0.134818
0.135198
0.135541
0.135848
0.136125
0.136373
0.136598
0.1368
0.136983
0.137149
0.137299
0.137436
0.13756
0.137673
0.137778
0.137876
0.137969
0.138058
0.138143
0.138225
0.138303
0.138377
0.138446
0.138511
0.13857
0.138625
0.138674
0.138719
0.13876
0.138796
0.138828
0.138856
0.13888
0.138902
0.138921
0.138939
0.138955
0.13897
0.138985
0.139
0.139016
0.139032
0.139052
0.139066
0.139111
0.00480448
0.00522868
0.00536226
0.00587784
0.00362454
0.0181561
0.0520038
0.0785042
0.0942616
0.103842
0.11017
0.11466
0.118027
0.120659
0.122786
0.124554
0.126057
0.127359
0.128504
0.129523
0.130436
0.131258
0.132001
0.132672
0.133281
0.133833
0.134335
0.13479
0.135202
0.135572
0.135906
0.136205
0.136474
0.136715
0.136931
0.137125
0.1373
0.137458
0.137601
0.13773
0.137848
0.137954
0.138052
0.138142
0.138226
0.138306
0.138382
0.138454
0.138524
0.13859
0.138652
0.13871
0.138764
0.138813
0.138857
0.138897
0.138933
0.138965
0.138993
0.139018
0.139039
0.139057
0.139072
0.139086
0.139098
0.139109
0.13912
0.13913
0.139141
0.139152
0.139164
0.139179
0.139189
0.139227
0.0072845
0.00828539
0.00843604
0.0081041
0.00387169
0.0170763
0.0505522
0.0777259
0.0941777
0.104256
0.110951
0.115707
0.119257
0.122006
0.124197
0.125987
0.127479
0.128746
0.129838
0.130791
0.131631
0.132377
0.133042
0.133638
0.134175
0.134661
0.135101
0.135501
0.135863
0.136189
0.136483
0.136747
0.136984
0.137196
0.137387
0.137558
0.137712
0.13785
0.137975
0.138088
0.138191
0.138284
0.138369
0.138447
0.138521
0.13859
0.138655
0.138718
0.138778
0.138834
0.138887
0.138936
0.138981
0.139022
0.139058
0.139091
0.13912
0.139146
0.139168
0.139186
0.139202
0.139215
0.139227
0.139236
0.139244
0.139251
0.139258
0.139265
0.139271
0.139279
0.139287
0.139299
0.139305
0.139336
0.00905269
0.0109635
0.0117937
0.0116457
0.00635682
0.0160508
0.0475712
0.0752242
0.0926467
0.103518
0.110817
0.116029
0.119912
0.122893
0.125237
0.127115
0.128646
0.129914
0.130978
0.131884
0.132664
0.133343
0.133938
0.134464
0.134933
0.135356
0.135739
0.136087
0.136404
0.136691
0.13695
0.137184
0.137395
0.137584
0.137755
0.137908
0.138046
0.13817
0.138281
0.138382
0.138474
0.138557
0.138632
0.138701
0.138766
0.138827
0.138885
0.13894
0.138992
0.139041
0.139086
0.139128
0.139167
0.139201
0.139232
0.139259
0.139282
0.139303
0.13932
0.139335
0.139347
0.139357
0.139365
0.139371
0.139376
0.13938
0.139384
0.139388
0.139392
0.139397
0.139402
0.13941
0.139414
0.139438
0.0105839
0.0129989
0.0145599
0.015164
0.0107516
0.0161833
0.0437104
0.0710956
0.0895344
0.101423
0.109556
0.115432
0.119828
0.123193
0.125812
0.127877
0.129523
0.13085
0.13193
0.13282
0.133562
0.134188
0.134723
0.135185
0.13559
0.135952
0.136279
0.136577
0.13685
0.137099
0.137326
0.137533
0.137721
0.137891
0.138045
0.138185
0.138311
0.138425
0.138527
0.138619
0.138702
0.138778
0.138847
0.13891
0.138968
0.139023
0.139075
0.139124
0.13917
0.139213
0.139253
0.13929
0.139323
0.139353
0.139379
0.139402
0.139422
0.139439
0.139453
0.139465
0.139474
0.139482
0.139487
0.139492
0.139495
0.139497
0.139499
0.1395
0.139502
0.139505
0.139508
0.139513
0.139515
0.139533
0.0134929
0.0147367
0.0165722
0.0178633
0.0155217
0.0179542
0.0398358
0.0656252
0.0847582
0.097745
0.106895
0.113642
0.118757
0.122695
0.125755
0.128146
0.130023
0.1315
0.132667
0.133594
0.134336
0.134937
0.135428
0.135837
0.136184
0.136487
0.136757
0.137002
0.137228
0.137437
0.137631
0.13781
0.137975
0.138128
0.138268
0.138397
0.138515
0.138621
0.138717
0.138804
0.138882
0.138953
0.139017
0.139076
0.13913
0.139181
0.139228
0.139273
0.139315
0.139354
0.13939
0.139423
0.139453
0.139479
0.139503
0.139523
0.13954
0.139555
0.139567
0.139577
0.139585
0.139591
0.139595
0.139598
0.1396
0.139601
0.139601
0.139602
0.139602
0.139603
0.139604
0.139607
0.139608
0.139621
0.0157821
0.0174098
0.018251
0.0198175
0.0194492
0.020823
0.036633
0.0592769
0.0783428
0.0922691
0.102511
0.1103
0.116347
0.121079
0.124791
0.127701
0.129973
0.131739
0.133106
0.13416
0.13497
0.135593
0.136075
0.136451
0.136751
0.136998
0.137211
0.1374
0.137575
0.137738
0.137892
0.138038
0.138178
0.138309
0.138434
0.138552
0.138662
0.138764
0.138857
0.138941
0.139018
0.139086
0.139148
0.139204
0.139256
0.139304
0.139349
0.139391
0.13943
0.139467
0.1395
0.139531
0.139558
0.139583
0.139604
0.139623
0.139639
0.139652
0.139664
0.139673
0.13968
0.139685
0.139688
0.139691
0.139692
0.139692
0.139692
0.139691
0.139691
0.139691
0.139691
0.139693
0.139692
0.139702
0.0174947
0.0194
0.0207965
0.0218289
0.0223533
0.0236914
0.0341763
0.052488
0.0704158
0.0848282
0.0960649
0.104975
0.112131
0.117887
0.122501
0.126172
0.129067
0.131326
0.133066
0.134389
0.135381
0.136115
0.13665
0.137038
0.137318
0.137525
0.137685
0.137816
0.137932
0.13804
0.138145
0.138249
0.138353
0.138456
0.138558
0.13866
0.138761
0.138857
0.138949
0.139034
0.13911
0.139179
0.139241
0.139297
0.139348
0.139395
0.139439
0.139479
0.139517
0.139553
0.139585
0.139614
0.139641
0.139664
0.139685
0.139703
0.139719
0.139732
0.139743
0.139752
0.139759
0.139764
0.139768
0.13977
0.139771
0.139771
0.139771
0.13977
0.139769
0.139769
0.139768
0.139769
0.139767
0.139774
0.0188982
0.0207896
0.0225796
0.0240642
0.0250281
0.02604
0.0321603
0.0454932
0.0611455
0.0753223
0.0872352
0.0971976
0.105552
0.112524
0.118292
0.123009
0.126814
0.129838
0.132201
0.134012
0.13537
0.136364
0.137072
0.137558
0.137881
0.138086
0.138215
0.138295
0.138351
0.138395
0.138439
0.138486
0.13854
0.138601
0.138668
0.138742
0.138823
0.138908
0.138996
0.139082
0.139162
0.139234
0.139299
0.139356
0.139408
0.139456
0.1395
0.139541
0.139578
0.139614
0.139646
0.139675
0.139702
0.139726
0.139747
0.139765
0.139781
0.139795
0.139807
0.139816
0.139824
0.139829
0.139834
0.139837
0.139838
0.139839
0.139839
0.139838
0.139838
0.139837
0.139836
0.139836
0.139835
0.139839
0.0203541
0.0220178
0.0238237
0.0256176
0.0272087
0.0285207
0.031082
0.0389844
0.0510294
0.0638771
0.075846
0.0865764
0.0960518
0.104313
0.11143
0.117466
0.122497
0.126618
0.129931
0.132538
0.13454
0.136035
0.137115
0.137862
0.138351
0.138645
0.138803
0.138868
0.138879
0.138862
0.138835
0.138812
0.138799
0.138799
0.138811
0.138839
0.138879
0.138933
0.139006
0.13909
0.139175
0.139253
0.139323
0.139383
0.139437
0.139487
0.139533
0.139576
0.139614
0.13965
0.139684
0.139715
0.139742
0.139767
0.13979
0.13981
0.139827
0.139842
0.139855
0.139865
0.139874
0.139881
0.139887
0.139891
0.139894
0.139895
0.139896
0.139896
0.139896
0.139895
0.139895
0.139895
0.139893
0.139897
0.0223181
0.0236951
0.0252624
0.0269692
0.0287488
0.030494
0.0323654
0.0359079
0.042578
0.0518948
0.0625424
0.0732782
0.0834174
0.0927486
0.101211
0.108716
0.115226
0.120774
0.125406
0.129189
0.132207
0.134552
0.136316
0.137593
0.138471
0.139034
0.139354
0.1395
0.139527
0.13948
0.139395
0.139296
0.139202
0.139121
0.139059
0.139019
0.138999
0.138996
0.139035
0.139101
0.139177
0.139253
0.139322
0.139382
0.139437
0.139493
0.139542
0.139585
0.139625
0.139664
0.1397
0.139732
0.139762
0.139789
0.139814
0.139836
0.139856
0.139873
0.139888
0.139901
0.139912
0.13992
0.139928
0.139933
0.139938
0.13994
0.139942
0.139944
0.139944
0.139945
0.139945
0.139945
0.139944
0.139947
0.02541
0.0265012
0.0277591
0.0291611
0.0307141
0.0324104
0.0342284
0.0364064
0.0396519
0.0446571
0.051617
0.0600491
0.0690523
0.0783794
0.0876361
0.0963256
0.104257
0.111379
0.117609
0.122928
0.127372
0.130993
0.133863
0.136065
0.137689
0.138827
0.139567
0.139995
0.140189
0.140217
0.140136
0.139994
0.139825
0.139654
0.139497
0.139366
0.139264
0.139193
0.139151
0.139168
0.139219
0.139285
0.13935
0.139404
0.139449
0.139492
0.139534
0.139573
0.139614
0.139656
0.139693
0.139728
0.139761
0.139791
0.139819
0.139844
0.139867
0.139887
0.139906
0.139921
0.139935
0.139947
0.139956
0.139964
0.13997
0.139975
0.139979
0.139982
0.139983
0.139985
0.139986
0.139987
0.139986
0.139989
0.0302623
0.0310668
0.0320163
0.0330795
0.0342693
0.0356096
0.0371178
0.0388227
0.0408554
0.0435068
0.0471668
0.0521334
0.0583612
0.0656587
0.0736721
0.0818065
0.0901031
0.0983082
0.10593
0.112825
0.118936
0.124194
0.1286
0.132195
0.135037
0.1372
0.13877
0.139838
0.140497
0.140835
0.140934
0.140867
0.140694
0.140466
0.140218
0.13998
0.139769
0.139594
0.139463
0.139381
0.139347
0.139372
0.139429
0.139476
0.139512
0.139543
0.13957
0.139592
0.139612
0.13964
0.139671
0.139702
0.139739
0.139773
0.139804
0.139833
0.13986
0.139885
0.139907
0.139927
0.139944
0.139959
0.139972
0.139983
0.139992
0.139999
0.140005
0.14001
0.140014
0.140016
0.140019
0.140021
0.140021
0.140025
0.0371389
0.0376683
0.0383257
0.0390719
0.0399119
0.0408645
0.0419543
0.0432074
0.0446575
0.04637
0.0484704
0.0511509
0.0546145
0.0590193
0.0644078
0.0706013
0.0774551
0.0847151
0.091918
0.0993663
0.106675
0.113398
0.119441
0.12473
0.129212
0.132891
0.135808
0.138027
0.139626
0.140694
0.141327
0.141616
0.14165
0.141506
0.141253
0.140944
0.140624
0.140321
0.140058
0.139847
0.139696
0.139589
0.139566
0.139589
0.139611
0.139629
0.139644
0.139656
0.139664
0.139676
0.139689
0.139699
0.139717
0.139742
0.139769
0.139803
0.139834
0.139862
0.13989
0.139914
0.139937
0.139957
0.139974
0.139989
0.140002
0.140013
0.140022
0.140029
0.140035
0.140039
0.140043
0.140047
0.140049
0.140053
0.0458151
0.046098
0.0464922
0.0469594
0.0475
0.0481252
0.048851
0.0496977
0.0506883
0.0518501
0.0532195
0.054854
0.0568408
0.059296
0.0623472
0.0660884
0.0705635
0.0757279
0.0814126
0.0875605
0.0939502
0.100213
0.106887
0.113378
0.11934
0.124668
0.129279
0.133126
0.13621
0.138576
0.140289
0.141432
0.142098
0.142384
0.142384
0.142183
0.141858
0.141473
0.141077
0.140708
0.140388
0.140129
0.139949
0.139813
0.13978
0.139765
0.139759
0.139756
0.139752
0.139749
0.139748
0.139747
0.139748
0.139755
0.139763
0.139775
0.139796
0.13982
0.139853
0.139883
0.139911
0.139937
0.13996
0.13998
0.139998
0.140014
0.140027
0.140037
0.140046
0.140054
0.14006
0.140065
0.140069
0.140075
0.0557899
0.0558636
0.0560325
0.0562631
0.0565549
0.0569147
0.0573523
0.0578799
0.0585121
0.0592659
0.0601606
0.0612189
0.0624705
0.0639564
0.0657341
0.0678759
0.0704597
0.0735518
0.0771817
0.0813466
0.0859785
0.090956
0.0962877
0.101793
0.107225
0.113102
0.118852
0.124153
0.128874
0.132922
0.136248
0.13885
0.140766
0.142066
0.142834
0.143168
0.143168
0.14293
0.142541
0.142076
0.141596
0.141145
0.140752
0.140433
0.140203
0.140024
0.139961
0.139917
0.139889
0.139866
0.139848
0.139832
0.139818
0.139808
0.139802
0.139798
0.139801
0.139807
0.139818
0.139838
0.139863
0.139896
0.139926
0.139954
0.139978
0.14
0.140019
0.140035
0.140048
0.140059
0.140068
0.140076
0.140081
0.14009
0.0665315
0.0664321