/*--------------------------------*- C++ -*----------------------------------*\
| =========                 |                                                 |
| \\      /  F ield         | OpenFOAM: The Open Source CFD Toolbox           |
|  \\    /   O peration     | Version:  5.x                                   |
|   \\  /    A nd           | Web:      www.OpenFOAM.org                      |
|    \\/     M anipulation  |                                                 |
\*---------------------------------------------------------------------------*/
FoamFile
{
    version     2.0;
    format      ascii;
    class       volScalarField;
    location    "50";
    object      nuTilda;
}
// * * * * * * * * * * * * * * * * * * * * * * * * * * * * * * * * * * * * * //

dimensions      [0 2 -1 0 0 0 0];

internalField   nonuniform List<scalar> 
11040
(
0.00333567
0.00392686
0.00422433
0.00427354
0.00409874
0.00383642
0.00361194
0.00341933
0.00322229
0.00299899
0.00271765
0.00245467
0.00225517
0.00210773
0.00196433
0.00181805
0.00166824
0.00151742
0.00136314
0.00119719
0.000948242
0.00068154
0.000594864
0.000534345
0.000496444
0.000456987
0.000431259
0.000415122
0.000435459
0.000513249
0.000613073
0.000609921
0.000479785
0.00066187
0.000556968
0.000566613
0.00057979
0.00054181
0.000519526
0.000530086
0.000831856
0.0076669
0.00820871
0.00748235
0.00672326
0.00600543
0.00538244
0.00529934
0.00532672
0.00528863
0.00515299
0.004948
0.00478343
0.00465967
0.00452314
0.00433722
0.00413553
0.00394054
0.00375745
0.00358376
0.00341335
0.00321839
0.00300656
0.00286375
0.00278394
0.00264582
0.00247951
0.00229798
0.00216705
0.00209254
0.00202438
0.00195699
0.00187889
0.00178611
0.00177868
0.00173307
0.00174136
0.00177294
0.0018056
0.0019282
0.0024591
0.0036832
0.015697
0.0165197
0.0154645
0.0141561
0.0126925
0.0112399
0.00993748
0.00882279
0.00789416
0.00709011
0.00647578
0.0062843
0.00620299
0.00617997
0.00614124
0.00607184
0.00597571
0.00586279
0.00574107
0.00561318
0.00547467
0.0053453
0.00524172
0.00516969
0.00511131
0.00507465
0.0050465
0.00499836
0.00489484
0.00474711
0.0045806
0.00441554
0.00426389
0.00417756
0.00412037
0.00413443
0.00419572
0.00424364
0.00431179
0.00496502
0.00716094
0.0248972
0.0257926
0.0246426
0.0229411
0.0209586
0.018913
0.0169328
0.0150681
0.0133585
0.0117912
0.0102915
0.00906992
0.00823138
0.00796453
0.00784784
0.00778291
0.00773721
0.00769392
0.00764457
0.00758537
0.00751433
0.00745102
0.00740045
0.00737266
0.00738136
0.0074437
0.00756112
0.00770916
0.00783929
0.00791056
0.00789579
0.00780134
0.00766456
0.00754749
0.0074728
0.00748774
0.00756934
0.00760025
0.00759258
0.00843389
0.011115
0.0349342
0.0357854
0.0346394
0.0327107
0.0303547
0.0278168
0.0252603
0.022727
0.0203198
0.0180548
0.0158247
0.0138295
0.0122414
0.011048
0.0102646
0.00987069
0.00965948
0.00953844
0.00946605
0.00942071
0.00938907
0.00937547
0.00937714
0.00940528
0.00948065
0.00962912
0.00986945
0.0101966
0.0105677
0.0109202
0.011199
0.0113838
0.0114894
0.0115519
0.0116115
0.0117425
0.0119613
0.0121116
0.0120574
0.0128968
0.0155862
0.0454191
0.0461776
0.0450983
0.0431065
0.0405574
0.0376329
0.0345413
0.0314357
0.0284269
0.0255374
0.0226475
0.0199665
0.0177142
0.015879
0.0143319
0.0130444
0.0123521
0.0119212
0.0116316
0.0114398
0.0113218
0.01127
0.0112669
0.0113134
0.0114278
0.0116361
0.0119658
0.0124313
0.0130091
0.0136356
0.0142347
0.0147591
0.0152033
0.0155915
0.0159673
0.016406
0.0169657
0.0175597
0.0178368
0.0185865
0.020827
0.0560326
0.0566591
0.0556785
0.0537557
0.0511584
0.0480803
0.0447284
0.0412562
0.0377951
0.0343868
0.0309158
0.0276045
0.0247176
0.0222789
0.020119
0.0181819
0.0165089
0.0153716
0.0146547
0.0141476
0.0137667
0.0135104
0.0133563
0.0132954
0.0133458
0.0135281
0.0138698
0.0143952
0.0151033
0.0159482
0.0168489
0.0177293
0.0185518
0.0193219
0.0200791
0.0208984
0.021869
0.0230274
0.0241898
0.0255294
0.0272843
0.0664189
0.066924
0.0660637
0.0642994
0.0618146
0.0588049
0.0554403
0.0518483
0.0481571
0.0444175
0.0405248
0.0367036
0.0332526
0.0302368
0.0275014
0.0250015
0.0226978
0.0206755
0.0192112
0.0181528
0.0173152
0.0166732
0.0161967
0.0158403
0.0156307
0.0155996
0.0157805
0.0162043
0.016887
0.0178095
0.0189077
0.0200927
0.0212901
0.0224674
0.0236397
0.0248686
0.0262407
0.0278595
0.0297203
0.0318463
0.0345899
0.0763335
0.0767191
0.0759772
0.0744184
0.0721667
0.0693887
0.0662135
0.0627317
0.0590513
0.0552143
0.0511253
0.0469914
0.0431219
0.0396201
0.0363717
0.0333517
0.0305337
0.0279455
0.0257887
0.0240436
0.0225855
0.0214193
0.0204879
0.0196792
0.0190172
0.0185442
0.0183099
0.0183634
0.018744
0.0194662
0.0205042
0.0217888
0.0232301
0.0247526
0.0263229
0.0279563
0.0297146
0.0317058
0.034018
0.0366766
0.0399687
0.085533
0.0858148
0.0851864
0.083852
0.0818956
0.0794484
0.076601
0.0734082
0.0699498
0.0662287
0.0621749
0.0579616
0.0538806
0.0500657
0.0464647
0.0430416
0.0397889
0.0367487
0.0341009
0.0318106
0.029775
0.0280846
0.0266803
0.0253845
0.0242056
0.023178
0.0223545
0.0217982
0.0215731
0.0217318
0.0223008
0.0232676
0.0245796
0.0261614
0.0279433
0.0298809
0.0319716
0.0342755
0.0368891
0.0398786
0.0434295
0.0938586
0.0940568
0.0935332
0.0924191
0.0907731
0.0886948
0.0862456
0.0834373
0.0803261
0.0769281
0.0731579
0.0691364
0.0651088
0.0612071
0.0574051
0.0537256
0.0501772
0.046771
0.0436659
0.0409534
0.0385141
0.0364517
0.0346954
0.0330226
0.0314257
0.0299218
0.0285479
0.0273587
0.0264212
0.0258067
0.0255798
0.0257855
0.0264393
0.0275248
0.0290036
0.0308271
0.0329506
0.0353664
0.0381084
0.0412264
0.0448405
0.101235
0.10137
0.100938
0.100024
0.0986709
0.0969535
0.0949139
0.092541
0.0898772
0.0869259
0.0836068
0.079994
0.0762702
0.072542
0.0687955
0.0650709
0.0613979
0.05779
0.0542719
0.0510642
0.0482956
0.0459984
0.044038
0.0421573
0.0403308
0.0385547
0.0368395
0.0352163
0.0337326
0.0324489
0.0314328
0.030752
0.030465
0.0306129
0.0312172
0.0322839
0.0338023
0.0357643
0.0381734
0.0410422
0.0444114
0.107659
0.107746
0.10739
0.106647
0.105551
0.104158
0.102499
0.100554
0.0983568
0.0959008
0.0931154
0.0900394
0.0867835
0.0834324
0.0799808
0.076474
0.0729279
0.0693643
0.0657923
0.0622453
0.0589475
0.0563321
0.0542068
0.052225
0.0503193
0.0484572
0.0466271
0.0448339
0.0430974
0.0414506
0.0399388
0.0386166
0.0375444
0.0367801
0.0363737
0.0363748
0.0368208
0.0377397
0.039165
0.0411292
0.0436559
0.11318
0.113223
0.112925
0.112325
0.111445
0.110331
0.109002
0.107441
0.105673
0.103691
0.101437
0.0989134
0.0962098
0.0933709
0.0903848
0.0872786
0.0840739
0.0807996
0.0774533
0.0740351
0.0705805
0.0675407
0.0651024
0.0629576
0.0609858
0.0591083
0.0572827
0.0554897
0.0537249
0.0519953
0.0503187
0.0487231
0.0472462
0.0459312
0.0448209
0.0439699
0.0434314
0.0432471
0.0434712
0.044164
0.0453372
0.117851
0.117868
0.117621
0.117137
0.116437
0.115551
0.114496
0.113259
0.111858
0.110289
0.108497
0.106496
0.104337
0.102043
0.0995951
0.0970062
0.0942871
0.0914499
0.0885046
0.085456
0.082311
0.0793912
0.0767811
0.0743127
0.0721212
0.0701733
0.0683591
0.0666183
0.0649212
0.0632543
0.0616152
0.0600097
0.0584523
0.0569633
0.0555638
0.0542913
0.0531882
0.0522845
0.0516266
0.0512765
0.0511919
0.121791
0.121786
0.121578
0.121186
0.120636
0.11993
0.119092
0.118115
0.117013
0.115785
0.114387
0.112831
0.111148
0.109351
0.107413
0.105346
0.103161
0.100852
0.0984207
0.0958682
0.0931968
0.0906762
0.0883569
0.086054
0.0838009
0.0816356
0.0796541
0.0778718
0.0762178
0.0746382
0.0731032
0.0716016
0.0701277
0.0686844
0.0672754
0.0659196
0.0646418
0.0634552
0.0623874
0.0614856
0.0606632
0.125102
0.125077
0.1249
0.12458
0.124137
0.123574
0.12291
0.122141
0.121278
0.120321
0.11924
0.118042
0.11675
0.115361
0.113867
0.112269
0.110569
0.108764
0.106859
0.104843
0.102712
0.100677
0.0987831
0.0968825
0.094977
0.0930714
0.0911843
0.0893394
0.0875683
0.0859384
0.0844379
0.0830208
0.0816549
0.0803231
0.079014
0.0777322
0.0764887
0.0752844
0.0741329
0.0730647
0.0719916
0.127747
0.127713
0.127561
0.127297
0.126935
0.126481
0.125947
0.125339
0.124652
0.123893
0.123043
0.122109
0.121107
0.120033
0.11888
0.117651
0.116345
0.114957
0.113485
0.111926
0.110277
0.10869
0.107204
0.105707
0.104202
0.102689
0.101167
0.0996412
0.0981125
0.0965942
0.0951003
0.093646
0.0922689
0.0909807
0.089753
0.0885674
0.0874172
0.0862923
0.0851959
0.0841466
0.083076
0.129786
0.129747
0.129615
0.129393
0.129092
0.128723
0.128284
0.127785
0.127227
0.126612
0.125935
0.12519
0.124394
0.123544
0.122637
0.121673
0.120653
0.119573
0.11843
0.117222
0.115946
0.114713
0.113555
0.112388
0.111216
0.110037
0.108854
0.107664
0.106467
0.105261
0.10405
0.102832
0.101613
0.1004
0.0991956
0.0980094
0.0968637
0.0957645
0.0947092
0.093705
0.0926909
0.131386
0.131346
0.13123
0.13104
0.130785
0.130474
0.130107
0.129691
0.129233
0.128726
0.12817
0.127563
0.126917
0.126235
0.125507
0.124736
0.123923
0.123067
0.122165
0.121215
0.120216
0.11925
0.118341
0.117428
0.116512
0.115593
0.114672
0.113749
0.112823
0.111893
0.110958
0.110017
0.109068
0.108112
0.107143
0.106162
0.105174
0.104177
0.103175
0.102179
0.101166
0.132674
0.132634
0.132531
0.132367
0.132148
0.13188
0.131572
0.13122
0.130832
0.130407
0.129942
0.129443
0.128909
0.128348
0.127753
0.127125
0.126467
0.125777
0.125054
0.124296
0.123503
0.122735
0.122013
0.12129
0.120568
0.119846
0.119121
0.118397
0.117676
0.116955
0.116234
0.115511
0.114785
0.114058
0.113323
0.112579
0.111828
0.111062
0.11028
0.109485
0.10866
0.133732
0.133692
0.133601
0.133456
0.133265
0.133033
0.132766
0.132467
0.132136
0.131776
0.131383
0.130962
0.130514
0.130045
0.129553
0.129035
0.128494
0.127929
0.12734
0.126726
0.126087
0.125469
0.124887
0.124307
0.123727
0.123153
0.122578
0.122005
0.121435
0.120871
0.120308
0.119747
0.119187
0.118628
0.118067
0.117503
0.116938
0.116366
0.115787
0.1152
0.114599
0.134615
0.134576
0.134494
0.134366
0.134197
0.133994
0.13376
0.1335
0.133215
0.132905
0.132571
0.132211
0.131833
0.131437
0.131022
0.13059
0.130142
0.129673
0.129187
0.128683
0.128162
0.127656
0.127181
0.126709
0.126239
0.125775
0.125313
0.124854
0.124399
0.123949
0.123505
0.123067
0.122631
0.122196
0.121762
0.121327
0.120894
0.120459
0.120022
0.119584
0.119145
0.135362
0.135325
0.13525
0.135135
0.134985
0.134805
0.134599
0.13437
0.134121
0.133851
0.133561
0.133251
0.132927
0.13259
0.132237
0.131871
0.131493
0.131102
0.1307
0.130282
0.129851
0.129435
0.129043
0.128654
0.12827
0.12789
0.127514
0.127141
0.126774
0.126411
0.126055
0.125703
0.125359
0.125018
0.124678
0.124341
0.124005
0.123669
0.123333
0.123
0.122674
0.136
0.135966
0.135898
0.135795
0.135661
0.1355
0.135316
0.135113
0.134893
0.134658
0.134404
0.134136
0.133855
0.133563
0.133261
0.13295
0.132627
0.132295
0.131955
0.131606
0.131249
0.130901
0.130575
0.130251
0.129933
0.129618
0.129307
0.129002
0.128701
0.128406
0.128116
0.127833
0.127555
0.127282
0.127013
0.126749
0.126488
0.126227
0.125968
0.125711
0.125468
0.136551
0.136521
0.136459
0.136366
0.136245
0.136101
0.135936
0.135755
0.135559
0.13535
0.135128
0.134892
0.134648
0.134394
0.134132
0.133863
0.133586
0.133304
0.133014
0.132717
0.132416
0.132125
0.131852
0.13158
0.131314
0.131051
0.130792
0.130538
0.130289
0.130045
0.129808
0.129575
0.129349
0.129128
0.128911
0.128699
0.128492
0.128289
0.128087
0.127889
0.127714
0.137031
0.137004
0.136948
0.136865
0.136757
0.136627
0.136479
0.136316
0.13614
0.135953
0.135755
0.135548
0.135333
0.135111
0.134883
0.13465
0.13441
0.134166
0.133917
0.133664
0.133408
0.13316
0.132927
0.132698
0.132473
0.132252
0.132034
0.131822
0.131614
0.13141
0.131213
0.13102
0.130833
0.130651
0.130474
0.130302
0.130135
0.129972
0.129812
0.129656
0.129531
0.137452
0.137426
0.137376
0.137302
0.137206
0.137091
0.136958
0.136812
0.136653
0.136485
0.136307
0.136122
0.135931
0.135736
0.135536
0.135331
0.135123
0.134911
0.134695
0.134477
0.134257
0.134045
0.133846
0.13365
0.133458
0.133269
0.133085
0.132905
0.13273
0.132559
0.132393
0.132232
0.132076
0.131925
0.131778
0.131636
0.131498
0.131365
0.131236
0.131112
0.131017
0.137824
0.137799
0.137753
0.137687
0.137602
0.1375
0.137383
0.137252
0.137109
0.136957
0.136797
0.13663
0.136459
0.136284
0.136106
0.135925
0.135743
0.135557
0.13537
0.135181
0.134991
0.134807
0.134634
0.134465
0.1343
0.134138
0.133981
0.133828
0.133679
0.133535
0.133394
0.133258
0.133126
0.132999
0.132876
0.132757
0.132643
0.132532
0.132426
0.132324
0.132251
0.138154
0.138132
0.138089
0.138029
0.137953
0.137863
0.137759
0.137643
0.137516
0.13738
0.137235
0.137085
0.13693
0.136773
0.136613
0.136451
0.136288
0.136125
0.13596
0.135795
0.13563
0.13547
0.135319
0.135172
0.135028
0.134888
0.134752
0.134621
0.134493
0.13437
0.13425
0.134135
0.134023
0.133915
0.13381
0.13371
0.133613
0.13352
0.133431
0.133346
0.133288
0.138449
0.13843
0.138392
0.138338
0.138268
0.138186
0.138093
0.13799
0.137877
0.137757
0.137628
0.137493
0.137353
0.137211
0.137067
0.136921
0.136775
0.136628
0.136482
0.136336
0.136192
0.136052
0.135919
0.13579
0.135664
0.135542
0.135423
0.135309
0.135199
0.135092
0.13499
0.13489
0.134795
0.134702
0.134613
0.134528
0.134445
0.134366
0.13429
0.134218
0.134168
0.138711
0.138698
0.138668
0.138619
0.138555
0.138479
0.138394
0.138301
0.1382
0.138092
0.137978
0.137858
0.137734
0.137606
0.137476
0.137345
0.137213
0.137081
0.13695
0.136819
0.136691
0.136566
0.136449
0.136335
0.136224
0.136116
0.136012
0.135912
0.135816
0.135723
0.135634
0.135548
0.135465
0.135386
0.135309
0.135236
0.135165
0.135097
0.135032
0.134969
0.134924
0.138946
0.138939
0.138916
0.138874
0.138817
0.138748
0.138669
0.138583
0.138491
0.138393
0.138291
0.138184
0.138074
0.137961
0.137846
0.137728
0.13761
0.137491
0.137372
0.137255
0.13714
0.137028
0.136923
0.136821
0.136722
0.136627
0.136535
0.136447
0.136362
0.13628
0.136202
0.136127
0.136055
0.135985
0.135919
0.135855
0.135794
0.135735
0.135678
0.135624
0.135581
0.139157
0.139155
0.139138
0.139104
0.139055
0.138993
0.138921
0.138842
0.138758
0.138669
0.138576
0.13848
0.138382
0.138281
0.138179
0.138074
0.137969
0.137863
0.137757
0.137652
0.137548
0.137447
0.137352
0.13726
0.137172
0.137086
0.137004
0.136926
0.13685
0.136777
0.136708
0.136642
0.136578
0.136517
0.136458
0.136402
0.136349
0.136297
0.136248
0.1362
0.136159
0.139348
0.139348
0.139336
0.139308
0.139268
0.139215
0.139153
0.139083
0.139007
0.138926
0.138841
0.138754
0.138665
0.138574
0.138483
0.13839
0.138296
0.138202
0.138108
0.138015
0.137922
0.137831
0.137745
0.137661
0.137581
0.137504
0.13743
0.137359
0.137291
0.137226
0.137164
0.137104
0.137048
0.136993
0.136941
0.136891
0.136844
0.136798
0.136754
0.136712
0.136675
0.139524
0.139525
0.139512
0.139489
0.139457
0.139416
0.139366
0.139307
0.139241
0.139169
0.139093
0.139013
0.138932
0.138849
0.138766
0.138683
0.138599
0.138515
0.138432
0.138348
0.138266
0.138185
0.138108
0.138032
0.137959
0.137889
0.137821
0.137756
0.137695
0.137636
0.137579
0.137525
0.137474
0.137425
0.137378
0.137333
0.137291
0.13725
0.13721
0.137173
0.137139
0.139685
0.139686
0.139672
0.139652
0.139628
0.139598
0.13956
0.139515
0.139461
0.139401
0.139334
0.139263
0.139189
0.139113
0.139037
0.138961
0.138885
0.138809
0.138734
0.13866
0.138586
0.138514
0.138445
0.138377
0.138312
0.138248
0.138187
0.138128
0.138071
0.138016
0.137964
0.137915
0.137867
0.137823
0.13778
0.137739
0.137699
0.137662
0.137626
0.137592
0.137561
0.139831
0.139831
0.139818
0.139803
0.139787
0.139766
0.139741
0.139708
0.139668
0.139621
0.139566
0.139506
0.13944
0.139372
0.139303
0.139232
0.139162
0.139093
0.139024
0.138957
0.138891
0.138826
0.138763
0.138702
0.138643
0.138585
0.138529
0.138476
0.138424
0.138374
0.138326
0.138281
0.138237
0.138195
0.138155
0.138117
0.13808
0.138045
0.138012
0.13798
0.137951
0.139951
0.139951
0.139944
0.139938
0.139929
0.139918
0.139903
0.139883
0.139858
0.139827
0.139788
0.139742
0.13969
0.139633
0.139572
0.139508
0.139443
0.139379
0.139315
0.139252
0.139191
0.139131
0.139073
0.139018
0.138963
0.13891
0.138859
0.138809
0.138761
0.138715
0.138671
0.138629
0.138588
0.138549
0.138512
0.138477
0.138442
0.13841
0.138378
0.138348
0.13832
0.14002
0.140024
0.140026
0.140026
0.140024
0.14002
0.140014
0.140006
0.139996
0.139984
0.139968
0.139949
0.139925
0.139895
0.139858
0.139814
0.139764
0.139707
0.139646
0.139584
0.139523
0.139461
0.139403
0.139347
0.139293
0.139241
0.139191
0.139143
0.139097
0.139052
0.13901
0.138969
0.138931
0.138894
0.138858
0.138824
0.138792
0.13876
0.13873
0.138702
0.138675
0.140051
0.140056
0.140061
0.140064
0.140066
0.140066
0.140064
0.140061
0.140057
0.140052
0.140046
0.140039
0.14003
0.140019
0.140006
0.139989
0.13997
0.139946
0.139919
0.139888
0.139855
0.139817
0.139777
0.139736
0.139693
0.139648
0.1396
0.139551
0.139502
0.139453
0.139406
0.139361
0.139317
0.139276
0.139237
0.139199
0.139164
0.13913
0.139098
0.139067
0.139038
0.140067
0.140074
0.14008
0.140085
0.140089
0.140092
0.140094
0.140094
0.140094
0.140093
0.140091
0.140088
0.140085
0.140081
0.140076
0.14007
0.140062
0.140053
0.140042
0.14003
0.140016
0.14
0.139983
0.139965
0.139945
0.139924
0.139901
0.139876
0.13985
0.139822
0.139793
0.139763
0.139732
0.139701
0.139668
0.139636
0.139603
0.13957
0.139536
0.139504
0.139471
0.140073
0.14008
0.140086
0.140092
0.140098
0.140103
0.140108
0.140112
0.140115
0.140117
0.140118
0.140119
0.140119
0.140118
0.140118
0.140116
0.140114
0.140111
0.140107
0.140102
0.140096
0.140089
0.140081
0.140073
0.140064
0.140055
0.140045
0.140035
0.140024
0.140012
0.139999
0.139986
0.139972
0.139957
0.139941
0.139925
0.139908
0.139891
0.139873
0.139855
0.139837
0.140072
0.140078
0.140084
0.14009
0.140097
0.140103
0.14011
0.140116
0.140122
0.140127
0.140132
0.140135
0.140138
0.14014
0.140142
0.140143
0.140144
0.140145
0.140145
0.140144
0.140143
0.14014
0.140137
0.140133
0.140128
0.140124
0.140118
0.140113
0.140108
0.140102
0.140096
0.14009
0.140084
0.140077
0.140069
0.140062
0.140054
0.140045
0.140036
0.140027
0.140018
0.140064
0.140069
0.140075
0.14008
0.140087
0.140094
0.140101
0.140109
0.140117
0.140124
0.140131
0.140138
0.140144
0.140149
0.140153
0.140157
0.14016
0.140162
0.140165
0.140167
0.140168
0.140169
0.140169
0.140168
0.140167
0.140165
0.140162
0.14016
0.140157
0.140153
0.14015
0.140147
0.140143
0.140139
0.140135
0.140131
0.140126
0.140121
0.140116
0.140111
0.140105
0.140052
0.140056
0.14006
0.140065
0.14007
0.140077
0.140084
0.140091
0.140099
0.140108
0.140116
0.140125
0.140133
0.140141
0.140148
0.140154
0.14016
0.140165
0.140169
0.140173
0.140176
0.140179
0.140182
0.140183
0.140185
0.140185
0.140185
0.140184
0.140183
0.140182
0.14018
0.140179
0.140176
0.140174
0.140172
0.140169
0.140166
0.140163
0.140159
0.140156
0.140152
0.140035
0.140037
0.14004
0.140044
0.140048
0.140053
0.140058
0.140064
0.14007
0.140078
0.140085
0.140094
0.140102
0.140111
0.14012
0.140129
0.140137
0.140144
0.140151
0.140157
0.140163
0.140168
0.140173
0.140178
0.140182
0.140186
0.140189
0.140191
0.140193
0.140194
0.140195
0.140196
0.140196
0.140195
0.140195
0.140194
0.140193
0.140191
0.14019
0.140188
0.140185
0.140013
0.140014
0.140015
0.140016
0.140018
0.14002
0.140023
0.140025
0.140028
0.140032
0.140036
0.14004
0.140045
0.140051
0.140057
0.140065
0.140069
0.140072
0.140076
0.140079
0.140082
0.140085
0.140088
0.140091
0.140094
0.140097
0.1401
0.140103
0.140105
0.140107
0.140109
0.140111
0.140112
0.140113
0.140114
0.140115
0.140115
0.140116
0.140116
0.140115
0.140115
0.00354261
0.00414043
0.00542924
0.0080513
0.00925976
0.0277113
0.0632616
0.0887362
0.102491
0.109895
0.114324
0.117271
0.119456
0.121236
0.122796
0.124222
0.125557
0.126813
0.127991
0.129088
0.1301
0.131026
0.131866
0.132623
0.133302
0.133908
0.134447
0.134925
0.135347
0.135721
0.136052
0.136345
0.136604
0.136833
0.137038
0.137221
0.137385
0.137535
0.137674
0.137805
0.137932
0.138057
0.138179
0.138298
0.138411
0.138519
0.138619
0.138711
0.138796
0.138873
0.138943
0.139005
0.13906
0.139108
0.139149
0.139184
0.139213
0.139237
0.139256
0.139271
0.139281
0.139288
0.139292
0.139293
0.139292
0.13929
0.139288
0.139285
0.139283
0.139283
0.139283
0.139289
0.139292
0.139327
0.00826906
0.00792861
0.00718733
0.00777274
0.00775458
0.0274479
0.0642648
0.090645
0.104957
0.112659
0.11725
0.12025
0.122396
0.124076
0.125494
0.126758
0.127919
0.128999
0.130005
0.130938
0.131797
0.132581
0.133293
0.133935
0.134509
0.135021
0.135476
0.135877
0.136231
0.136543
0.136817
0.137058
0.13727
0.137457
0.137622
0.137769
0.137901
0.138022
0.138133
0.13824
0.138344
0.138446
0.138547
0.138644
0.138737
0.138824
0.138905
0.138979
0.139046
0.139106
0.139159
0.139206
0.139247
0.139281
0.139309
0.139332
0.13935
0.139364
0.139374
0.139381
0.139384
0.139384
0.139382
0.139378
0.139373
0.139367
0.139361
0.139356
0.139351
0.139349
0.139348
0.139353
0.139355
0.139388
0.0136106
0.0142014
0.0125478
0.0101881
0.00697171
0.0253942
0.0627037
0.0906214
0.106136
0.114585
0.119631
0.122871
0.12509
0.126724
0.128021
0.12912
0.130095
0.130984
0.131805
0.132565
0.133266
0.13391
0.134497
0.135029
0.135508
0.135937
0.136319
0.136657
0.136954
0.137215
0.137444
0.137644
0.137819
0.137973
0.138108
0.138228
0.138335
0.138432
0.138523
0.13861
0.138695
0.138779
0.138862
0.138942
0.139018
0.139089
0.139154
0.139212
0.139264
0.13931
0.13935
0.139385
0.139413
0.139436
0.139454
0.139468
0.139477
0.139483
0.139485
0.139485
0.139482
0.139477
0.13947
0.139462
0.139453
0.139444
0.139435
0.139427
0.139421
0.139416
0.139414
0.139418
0.139418
0.139448
0.0177935
0.0206409
0.0199397
0.0165072
0.00905254
0.0228589
0.0589613
0.0886684
0.105886
0.115522
0.121347
0.125067
0.127526
0.129218
0.130449
0.131404
0.132193
0.132879
0.133498
0.134068
0.134597
0.135089
0.135546
0.135967
0.136352
0.136702
0.137017
0.137299
0.137548
0.137768
0.13796
0.138128
0.138274
0.138402
0.138513
0.138612
0.1387
0.13878
0.138854
0.138925
0.138996
0.139065
0.139134
0.1392
0.139262
0.139319
0.139371
0.139417
0.139457
0.139492
0.139521
0.139545
0.139564
0.139578
0.139587
0.139593
0.139596
0.139595
0.139591
0.139585
0.139578
0.139568
0.139557
0.139545
0.139533
0.139521
0.13951
0.1395
0.139491
0.139485
0.139481
0.139483
0.139483
0.139508
0.020981
0.0263856
0.0273534
0.0249991
0.0158519
0.022121
0.0542343
0.084874
0.104056
0.115266
0.122204
0.126687
0.129614
0.131535
0.132811
0.133685
0.134314
0.134797
0.135199
0.135555
0.135888
0.136206
0.136513
0.136809
0.137091
0.137358
0.137605
0.137832
0.138037
0.13822
0.138382
0.138524
0.138647
0.138755
0.138849
0.138932
0.139005
0.139072
0.139134
0.139193
0.139252
0.13931
0.139367
0.139421
0.139472
0.139518
0.13956
0.139596
0.139626
0.139652
0.139672
0.139688
0.1397
0.139707
0.13971
0.139709
0.139706
0.1397
0.139692
0.139681
0.13967
0.139656
0.139642
0.139628
0.139613
0.139599
0.139585
0.139573
0.139563
0.139555
0.139549
0.139549
0.139547
0.139569
0.0237508
0.031296
0.0338729
0.0333246
0.026117
0.0256609
0.0502775
0.0798333
0.100655
0.113626
0.121956
0.127494
0.131172
0.133563
0.135072
0.135994
0.136537
0.136851
0.137036
0.137159
0.137263
0.137372
0.137495
0.137636
0.137791
0.137956
0.138124
0.138289
0.138447
0.138593
0.138726
0.138846
0.138951
0.139043
0.139124
0.139195
0.139258
0.139315
0.139368
0.139418
0.139468
0.139517
0.139564
0.13961
0.139652
0.13969
0.139723
0.139751
0.139774
0.139792
0.139806
0.139816
0.139821
0.139823
0.139821
0.139816
0.139808
0.139798
0.139786
0.139773
0.139758
0.139742
0.139725
0.139708
0.139691
0.139675
0.13966
0.139646
0.139634
0.139624
0.139617
0.139615
0.139612
0.139629
0.0290314
0.035373
0.0391962
0.0404017
0.0368005
0.0338028
0.0494139
0.0749012
0.0960724
0.11055
0.120365
0.127183
0.1319
0.135062
0.137074
0.138262
0.138878
0.139118
0.139131
0.139025
0.138876
0.138734
0.138624
0.138561
0.138545
0.138572
0.138631
0.138713
0.138809
0.13891
0.139011
0.139107
0.139195
0.139274
0.139345
0.139407
0.139463
0.139513
0.139559
0.139604
0.139647
0.139689
0.13973
0.139769
0.139804
0.139835
0.139862
0.139884
0.139902
0.139915
0.139924
0.139929
0.13993
0.139928
0.139922
0.139914
0.139903
0.13989
0.139875
0.139859
0.139841
0.139823
0.139805
0.139786
0.139767
0.13975
0.139733
0.139717
0.139704
0.139693
0.139684
0.13968
0.139676
0.139689
0.0360745
0.0391181
0.0433752
0.046068
0.0457516
0.0440355
0.0526226
0.0717875
0.0911999
0.106263
0.117298
0.125433
0.131396
0.135631
0.138482
0.140251
0.141205
0.141572
0.141545
0.141277
0.140889
0.14047
0.140077
0.139747
0.139494
0.13932
0.139218
0.139175
0.139177
0.139211
0.139263
0.139326
0.139393
0.139457
0.139518
0.139573
0.139624
0.13967
0.139713
0.139753
0.139792
0.13983
0.139866
0.1399
0.139931
0.139957
0.13998
0.139998
0.140011
0.14002
0.140026
0.140027
0.140026
0.14002
0.140012
0.140002
0.139988
0.139973
0.139957
0.139939
0.13992
0.1399
0.13988
0.13986
0.139841
0.139821
0.139803
0.139787
0.139772
0.13976
0.13975
0.139744
0.139738
0.139747
0.0429994
0.0457141
0.0470827
0.0506034
0.052241
0.0530248
0.0582684
0.0712265
0.0870497
0.101271
0.112805
0.121983
0.129206
0.134724
0.138743
0.141474
0.143144
0.143973
0.144171
0.143929
0.14341
0.142752
0.14206
0.141407
0.14084
0.140382
0.140036
0.139795
0.139643
0.13956
0.139531
0.139537
0.139566
0.139606
0.139652
0.139699
0.139745
0.139788
0.139829
0.139868
0.139905
0.13994
0.139974
0.140005
0.140033
0.140057
0.140076
0.140092
0.140103
0.14011
0.140113
0.140113
0.140109
0.140102
0.140092
0.14008
0.140066
0.14005
0.140032
0.140013
0.139993
0.139972
0.139952
0.139931
0.13991
0.13989
0.139871
0.139854
0.139838
0.139824
0.139813
0.139806
0.139799
0.139804
0.0472048
0.0504708
0.0529971
0.055205
0.0565913
0.0588941
0.0632879
0.0720214
0.083833
0.0959965
0.107053
0.116686
0.124902
0.131705
0.137105
0.141161
0.143986
0.145735
0.146587
0.146731
0.146357
0.145639
0.144734
0.143769
0.142839
0.14201
0.141317
0.140771
0.140366
0.140084
0.139904
0.139803
0.139757
0.13975
0.139766
0.139795
0.139831
0.13987
0.13991
0.139948
0.139986
0.140021
0.140054
0.140085
0.140112
0.140135
0.140153
0.140168
0.140178
0.140184
0.140186
0.140185
0.14018
0.140173
0.140162
0.14015
0.140135
0.140118
0.1401
0.14008
0.14006
0.140039
0.140018
0.139997
0.139975
0.139955
0.139935
0.139917
0.1399
0.139886
0.139874
0.139865
0.139857
0.139858
0.0487481
0.0523643
0.055761
0.058725
0.0609204
0.0624037
0.0659327
0.0721162
0.0806224
0.0903059
0.100112
0.109492
0.118173
0.125976
0.132731
0.138315
0.142677
0.145841
0.147896
0.148974
0.149236
0.148862
0.148037
0.146936
0.145713
0.144496
0.143374
0.142405
0.141614
0.141004
0.140559
0.140255
0.140061
0.139951
0.139898
0.139885
0.139896
0.139923
0.139958
0.139995
0.140034
0.140071
0.140107
0.140139
0.140167
0.140191
0.140211
0.140226
0.140236
0.140242
0.140245
0.140244
0.14024
0.140232
0.140222
0.14021
0.140195
0.140178
0.14016
0.140141
0.140121
0.1401
0.140079
0.140057
0.140036
0.140015
0.139996
0.139977
0.13996
0.139944
0.139931
0.139922
0.139912
0.139911
0.0480052
0.0515423
0.0552864
0.059032
0.0624732
0.0653482
0.0681052
0.0715164
0.0769664
0.0841384
0.0922273
0.100656
0.109023
0.117229
0.124979
0.131977
0.138
0.142924
0.146703
0.149345
0.150918
0.151544
0.151378
0.150605
0.149415
0.147992
0.146497
0.145059
0.143768
0.142677
0.141804
0.141143
0.140669
0.140348
0.140147
0.140032
0.139979
0.139967
0.139982
0.140011
0.140049
0.140089
0.140128
0.140164
0.140196
0.140224
0.140247
0.140264
0.140277
0.140285
0.140289
0.14029
0.140287
0.140281
0.140272
0.14026
0.140246
0.140231
0.140213
0.140195
0.140175
0.140155
0.140134
0.140113
0.140092
0.140071
0.140051
0.140032
0.140015
0.139999
0.139985
0.139975
0.139965
0.13996
0.0465364
0.0495273
0.0529175
0.0566577
0.0606131
0.0645615
0.0683443
0.072004
0.0759194
0.0805332
0.0860291
0.0922594
0.0987111
0.106408
0.114323
0.122033
0.12923
0.135762
0.141439
0.146087
0.149614
0.15201
0.153326
0.153673
0.153211
0.152133
0.150643
0.148939
0.147196
0.145552
0.1441
0.142891
0.141939
0.141228
0.140724
0.140388
0.14018
0.140066
0.140018
0.140013
0.140035
0.140071
0.140114
0.140156
0.140195
0.14023
0.140258
0.140281
0.140298
0.14031
0.140318
0.140322
0.140321
0.140318
0.140311
0.140301
0.140289
0.140275
0.140259
0.140241
0.140223
0.140203
0.140183
0.140163
0.140142
0.140122
0.140102
0.140084
0.140066
0.14005
0.140036
0.140024
0.140014
0.140007
0.047222
0.049348
0.051849
0.0547425
0.0580458
0.0617313
0.0657261
0.0699017
0.0741552
0.0784965
0.0830462
0.0879264
0.0931444
0.0989003
0.105079
0.111439
0.117855
0.124774
0.131621
0.13791
0.143474
0.148101
0.151637
0.154019
0.155273
0.155502
0.154865
0.153568
0.151832
0.149878
0.147899
0.146048
0.144429
0.143095
0.142054
0.141284
0.140745
0.140391
0.140177
0.140066
0.140025
0.14003
0.140062
0.140108
0.140156
0.140201
0.140239
0.140271
0.140296
0.140315
0.140328
0.140337
0.140341
0.140341
0.140338
0.140331
0.140322
0.14031
0.140296
0.14028
0.140263
0.140245
0.140226
0.140207
0.140187
0.140168
0.140149
0.14013
0.140113
0.140097
0.140082
0.14007
0.140059
0.14005
0.052132
0.0534101
0.0549745
0.0568245
0.0590007
0.0615504
0.06451
0.0678841
0.0716332
0.0756873
0.0799818
0.084483
0.0891812
0.0940956
0.0992285
0.104522
0.109905
0.115448
0.121034
0.126421
0.13266
0.138822
0.144407
0.14916
0.152881
0.155445
0.156827
0.157099
0.156417
0.154993
0.153069
0.150891
0.148681
0.146614
0.14481
0.143327
0.142176
0.141331
0.140747
0.14037
0.140148
0.140033
0.139997
0.140016
0.140065
0.140123
0.140177
0.140223
0.140261
0.140291
0.140314
0.140331
0.140342
0.140349
0.140351
0.140349
0.140343
0.140335
0.140324
0.140311
0.140296
0.14028
0.140263
0.140245
0.140227
0.140208
0.14019
0.140172
0.140155
0.140139
0.140125
0.140112
0.140101
0.14009
0.060887
0.06148
0.0622848
0.0632831
0.064497
0.0659621
0.0677208
0.0698174
0.0722886
0.075153
0.0784059
0.0820231
0.0859697
0.0902074
0.0946963
0.0993859
0.104209
0.109104
0.11399
0.11879
0.123674
0.128568
0.133431
0.138935
0.144434
0.149362
0.153385
0.156293
0.157984
0.158477
0.157901
0.156462
0.154421
0.152053
0.149612
0.147308
0.145285
0.143619
0.14233
0.141392
0.140751
0.140342
0.140101
0.139995
0.139985
0.140018
0.140066
0.140116
0.140175
0.140224
0.140263
0.140294
0.140317
0.140334
0.140345
0.14035
0.140351
0.140348
0.140341
0.140332
0.14032
0.140307
0.140292
0.140276
0.14026
0.140243
0.140225
0.140208
0.140192
0.140177
0.140162
0.14015
0.140138
0.140127
0.0717742
0.0718976
0.0721726
0.0725803
0.0731318
0.0738471
0.0747507
0.075872
0.0772446
0.0789034
0.0808807
0.0832013
0.085879