/*--------------------------------*- C++ -*----------------------------------*\
| =========                 |                                                 |
| \\      /  F ield         | OpenFOAM: The Open Source CFD Toolbox           |
|  \\    /   O peration     | Version:  5.x                                   |
|   \\  /    A nd           | Web:      www.OpenFOAM.org                      |
|    \\/     M anipulation  |                                                 |
\*---------------------------------------------------------------------------*/
FoamFile
{
    version     2.0;
    format      ascii;
    class       volScalarField;
    location    "50";
    object      p;
}
// * * * * * * * * * * * * * * * * * * * * * * * * * * * * * * * * * * * * * //

dimensions      [0 2 -2 0 0 0 0];

internalField   nonuniform List<scalar> 
11040
(
0.358263
-16.1715
-82.3519
-147.438
-210.18
-264.336
-307.849
-341.663
-366.822
-383.531
-391.227
-381.999
-368.538
-361.325
-359.7
-354.644
-347.449
-339.794
-331.831
-323.318
-314.315
-305.866
-298.436
-291.197
-284.123
-277.164
-270.314
-263.478
-256.593
-249.612
-242.582
-235.545
-228.583
-221.675
-214.746
-207.578
-199.967
-191.53
-182.235
-171.283
-161.243
-8.7923
-26.3664
-77.7589
-131.781
-186.414
-237.384
-281.142
-316.889
-344.662
-364.385
-375.574
-372.441
-363.396
-357.708
-356.198
-351.908
-345.401
-338.215
-330.609
-322.396
-313.632
-305.349
-298.05
-290.902
-283.897
-276.996
-270.197
-263.414
-256.585
-249.661
-242.68
-235.677
-228.731
-221.825
-214.891
-207.725
-200.135
-191.743
-182.549
-171.619
-162.149
-22.3342
-39.1936
-79.086
-125.112
-174.51
-223.092
-266.524
-302.958
-331.843
-352.765
-365.664
-366.486
-360.056
-354.677
-352.785
-349.192
-343.333
-336.549
-329.259
-321.327
-312.795
-304.7
-297.515
-290.451
-283.514
-276.678
-269.943
-263.233
-256.479
-249.624
-242.689
-235.707
-228.755
-221.83
-214.876
-207.713
-200.166
-191.867
-182.85
-172.108
-163.123
-37.3491
-53.3922
-84.6009
-122.229
-164.737
-208.487
-249.485
-285.332
-314.776
-337.175
-352.5
-357.448
-354.288
-350.1
-348.356
-345.572
-340.507
-334.261
-327.396
-319.838
-311.617
-303.756
-296.723
-289.782
-282.948
-276.21
-269.57
-262.959
-256.302
-249.53
-242.648
-235.687
-228.727
-221.785
-214.825
-207.692
-200.231
-192.087
-183.323
-172.914
-164.433
-53.1793
-68.0978
-92.5785
-122.552
-157.985
-196.091
-233.586
-267.924
-297.307
-320.687
-337.854
-346.45
-346.946
-344.584
-343.241
-341.186
-336.997
-331.408
-325.048
-317.936
-310.092
-302.515
-295.677
-288.896
-282.198
-275.585
-269.061
-262.566
-256.021
-249.347
-242.535
-235.614
-228.667
-221.732
-214.793
-207.729
-200.403
-192.482
-184.055
-174.128
-166.237
-69.1825
-82.7088
-102.051
-125.606
-154.332
-186.404
-219.426
-251.135
-279.519
-303.237
-321.82
-333.545
-337.7
-337.642
-337.101
-335.852
-332.665
-327.885
-322.139
-315.556
-308.169
-300.936
-294.341
-287.762
-281.231
-274.766
-268.374
-262.009
-255.595
-249.049
-242.345
-235.505
-228.608
-221.712
-214.824
-207.855
-200.7
-193.054
-185.032
-175.729
-168.434
-84.8056
-96.8094
-112.254
-130.704
-153.524
-179.717
-207.754
-235.913
-262.317
-285.519
-304.804
-318.855
-326.326
-328.914
-329.681
-329.41
-327.337
-323.527
-318.534
-312.59
-305.76
-298.951
-292.662
-286.335
-280.011
-273.72
-267.481
-261.265
-255.006
-248.625
-242.077
-235.371
-228.575
-221.757
-214.943
-208.088
-201.125
-193.796
-186.229
-177.67
-170.939
-99.6267
-110.121
-122.594
-137.096
-155.011
-175.909
-198.948
-223.003
-246.578
-268.348
-287.471
-302.874
-312.992
-318.255
-320.749
-321.683
-320.831
-318.152
-314.075
-308.902
-302.747
-296.458
-290.551
-284.543
-278.482
-272.409
-266.356
-260.316
-254.241
-248.06
-241.717
-235.202
-228.561
-221.862
-215.152
-208.431
-201.677
-194.697
-187.626
-179.9
-173.731
-113.369
-122.46
-132.64
-144.13
-158.14
-174.557
-192.996
-212.837
-233.05
-252.585
-270.652
-286.358
-298.185
-305.757
-310.162
-312.52
-312.997
-311.584
-308.591
-304.337
-298.991
-293.331
-287.897
-282.29
-276.565
-270.77
-264.953
-259.128
-253.269
-247.321
-241.225
-234.952
-228.525
-222.003
-215.445
-208.893
-202.376
-195.776
-189.229
-182.378
-176.805
-125.879
-133.712
-142.095
-151.288
-162.269
-175.065
-189.556
-205.463
-222.172
-238.959
-255.21
-270.227
-282.698
-291.861
-298.013
-301.879
-303.75
-303.694
-301.929
-298.744
-294.346
-289.432
-284.57
-279.458
-274.155
-268.716
-263.201
-257.642
-252.038
-246.352
-240.538
-234.557
-228.411
-222.144
-215.817
-209.5
-203.271
-197.091
-191.09
-185.095
-180.156
-137.088
-143.815
-150.771
-158.197
-166.856
-176.822
-188.095
-200.595
-214.004
-227.889
-241.846
-255.39
-267.502
-277.347
-284.733
-289.936
-293.148
-294.45
-293.992
-291.998
-288.675
-284.624
-280.435
-275.917
-271.129
-266.137
-261.003
-255.779
-250.48
-245.099
-239.602
-233.962
-228.166
-222.246
-216.253
-210.275
-204.416
-198.705
-193.266
-188.059
-183.747
-146.989
-152.754
-158.557
-164.609
-171.492
-179.283
-188.028
-197.738
-208.277
-219.418
-230.937
-242.546
-253.526
-263.161
-271.057
-277.159
-281.465
-283.991
-284.803
-284.044
-281.882
-278.791
-275.368
-271.536
-267.361
-262.906
-258.246
-253.438
-248.519
-243.498
-238.373
-233.125
-227.751
-222.27
-216.725
-211.2
-205.811
-200.622
-195.755
-191.234
-187.483
-155.617
-160.547
-165.406
-170.372
-175.89
-182.022
-188.821
-196.334
-204.515
-213.264
-222.481
-232.023
-241.429
-250.173
-257.854
-264.257
-269.226
-272.668
-274.564
-274.962
-273.966
-271.883
-269.292
-266.22
-262.74
-258.911
-254.816
-250.517
-246.065
-241.486
-236.801
-232.011
-227.129
-222.168
-217.169
-212.199
-207.368
-202.747
-198.444
-194.51
-191.218
-163.038
-167.244
-171.319
-175.415
-179.87
-184.733
-190.047
-195.864
-202.183
-208.966
-216.183
-223.781
-231.489
-238.958
-245.876
-252.003
-257.115
-261.045
-263.696
-265.033
-265.078
-263.974
-262.226
-259.952
-257.215
-254.083
-250.628
-246.929
-243.033
-238.99
-234.826
-230.575
-226.249
-221.879
-217.489
-213.144
-208.921
-204.892
-201.135
-197.709
-194.792
-169.345
-172.92
-176.336
-179.724
-183.341
-187.222
-191.401
-195.923
-200.801
-206.027
-211.603
-217.521
-223.631
-229.722
-235.582
-241.014
-245.809
-249.779
-252.783
-254.729
-255.575
-255.31
-254.345
-252.837
-250.85
-248.438
-245.678
-242.64
-239.383
-235.955
-232.401
-228.755
-225.049
-221.311
-217.57
-213.869
-210.274
-206.832
-203.605
-200.641
-198.06
-174.617
-177.643
-180.505
-183.312
-186.261
-189.377
-192.683
-196.215
-199.99
-204.01
-208.288
-212.834
-217.569
-222.37
-227.105
-231.641
-235.813
-239.459
-242.437
-244.63
-245.961
-246.312
-245.985
-245.148
-243.849
-242.135
-240.072
-237.724
-235.147
-232.389
-229.496
-226.504
-223.452
-220.367
-217.276
-214.216
-211.235
-208.366
-205.653
-203.135
-200.888
-178.921
-181.47
-183.861
-186.189
-188.6
-191.112
-193.741
-196.515
-199.448
-202.545
-205.822
-209.292
-212.911
-216.611
-220.315
-223.938
-227.366
-230.479
-233.158
-235.296
-236.805
-237.519
-237.642
-237.323
-236.596
-235.495
-234.073
-232.382
-230.47
-228.376
-226.145
-223.809
-221.405
-218.959
-216.498
-214.049
-211.652
-209.329
-207.111
-205.027
-203.124
-182.233
-184.398
-186.407
-188.354
-190.35
-192.404
-194.529
-196.745
-199.065
-201.493
-204.041
-206.721
-209.508
-212.361
-215.235
-218.077
-220.812
-223.355
-225.621
-227.521
-228.979
-229.828
-230.199
-230.21
-229.884
-229.243
-228.326
-227.17
-225.814
-224.29
-222.632
-220.869
-219.032
-217.146
-215.235
-213.32
-211.433
-209.59
-207.812
-206.122
-204.547
-184.721
-186.582
-188.293
-189.946
-191.626
-193.338
-195.09
-196.9
-198.775
-200.722
-202.748
-204.862
-207.049
-209.282
-211.533
-213.769
-215.94
-217.987
-219.85
-221.463
-222.766
-223.611
-224.082
-224.272
-224.19
-223.852
-223.285
-222.516
-221.573
-220.48
-219.266
-217.954
-216.569
-215.131
-213.661
-212.177
-210.703
-209.252
-207.838
-206.479
-205.192
-186.613
-188.227
-189.701
-191.122
-192.555
-194.003
-195.472
-196.977
-198.524
-200.116
-201.759
-203.46
-205.209
-206.986
-208.774
-210.55
-212.28
-213.923
-215.437
-216.774
-217.889
-218.66
-219.145
-219.41
-219.461
-219.308
-218.969
-218.463
-217.812
-217.033
-216.149
-215.177
-214.138
-213.048
-211.924
-210.78
-209.635
-208.497
-207.38
-206.295
-205.255
-188.075
-189.487
-190.767
-192.001
-193.237
-194.476
-195.725
-196.994
-198.288
-199.61
-200.965
-202.356
-203.775
-205.21
-206.648
-208.071
-209.459
-210.779
-212.005
-213.098
-214.03
-214.699
-215.15
-215.431
-215.545
-215.496
-215.3
-214.969
-214.52
-213.965
-213.322
-212.603
-211.827
-211.004
-210.149
-209.271
-208.386
-207.501
-206.625
-205.768
-204.937
-189.222
-190.463
-191.584
-192.664
-193.739
-194.809
-195.881
-196.963
-198.059
-199.17
-200.3
-201.452
-202.619
-203.792
-204.96
-206.112
-207.231
-208.297
-209.286
-210.176
-210.941
-211.507
-211.904
-212.171
-212.305
-212.313
-212.203
-211.988
-211.677
-211.282
-210.813
-210.284
-209.705
-209.087
-208.438
-207.77
-207.091
-206.408
-205.727
-205.057
-204.401
-190.13
-191.227
-192.216
-193.166
-194.108
-195.039
-195.967
-196.898
-197.834
-198.777
-199.729
-200.693
-201.662
-202.629
-203.587
-204.526
-205.435
-206.298
-207.099
-207.821
-208.445
-208.914
-209.253
-209.492
-209.625
-209.661
-209.605
-209.466
-209.25
-208.969
-208.628
-208.239
-207.807
-207.345
-206.855
-206.348
-205.829
-205.305
-204.778
-204.256
-203.74
-190.857
-191.83
-192.707
-193.548
-194.377
-195.193
-196.002
-196.807
-197.613
-198.42
-199.229
-200.041
-200.853
-201.657
-202.449
-203.22
-203.963
-204.665
-205.315
-205.901
-206.408
-206.794
-207.08
-207.286
-207.411
-207.458
-207.435
-207.345
-207.197
-206.996
-206.748
-206.461
-206.141
-205.793
-205.424
-205.037
-204.641
-204.236
-203.828
-203.42
-203.015
-191.441
-192.308
-193.09
-193.838
-194.572
-195.291
-195.999
-196.701
-197.399
-198.093
-198.785
-199.475
-200.159
-200.833
-201.491
-202.129
-202.74
-203.314
-203.844
-204.32
-204.733
-205.048
-205.286
-205.462
-205.573
-205.623
-205.618
-205.562
-205.459
-205.314
-205.132
-204.919
-204.679
-204.415
-204.134
-203.838
-203.532
-203.218
-202.899
-202.578
-202.258
-191.914
-192.69
-193.389
-194.058
-194.71
-195.346
-195.969
-196.584
-197.192
-197.793
-198.388
-198.977
-199.558
-200.126
-200.678
-201.208
-201.713
-202.185
-202.619
-203.006
-203.342
-203.599
-203.797
-203.944
-204.04
-204.088
-204.093
-204.056
-203.984
-203.878
-203.743
-203.583
-203.402
-203.201
-202.986
-202.759
-202.522
-202.278
-202.029
-201.777
-201.524
-192.299
-192.996
-193.624
-194.223
-194.805
-195.37
-195.922
-196.462
-196.994
-197.517
-198.031
-198.538
-199.033
-199.515
-199.979
-200.423
-200.842
-201.232
-201.588
-201.906
-202.179
-202.389
-202.552
-202.675
-202.757
-202.801
-202.81
-202.787
-202.735
-202.658
-202.557
-202.436
-202.298
-202.145
-201.98
-201.805
-201.621
-201.431
-201.237
-201.039
-200.84
-192.613
-193.241
-193.808
-194.347
-194.868
-195.372
-195.861
-196.339
-196.806
-197.263
-197.709
-198.146
-198.571
-198.981
-199.374
-199.747
-200.097
-200.421
-200.715
-200.975
-201.198
-201.37
-201.504
-201.606
-201.674
-201.713
-201.723
-201.709
-201.671
-201.613
-201.537
-201.445
-201.339
-201.221
-201.092
-200.956
-200.812
-200.663
-200.51
-200.354
-200.196
-192.871
-193.438
-193.951
-194.438
-194.907
-195.357
-195.793
-196.217
-196.628
-197.029
-197.418
-197.796
-198.161
-198.512
-198.846
-199.161
-199.454
-199.724
-199.967
-200.181
-200.363
-200.503
-200.613
-200.697
-200.753
-200.785
-200.795
-200.785
-200.757
-200.712
-200.653
-200.582
-200.499
-200.407
-200.306
-200.2
-200.087
-199.97
-199.849
-199.726
-199.601
-193.082
-193.596
-194.062
-194.504
-194.926
-195.331
-195.721
-196.097
-196.461
-196.813
-197.153
-197.482
-197.797
-198.098
-198.382
-198.649
-198.896
-199.121
-199.323
-199.499
-199.649
-199.763
-199.853
-199.921
-199.967
-199.993
-200.002
-199.994
-199.973
-199.938
-199.892
-199.836
-199.772
-199.7
-199.622
-199.538
-199.45
-199.358
-199.263
-199.165
-199.067
-193.256
-193.724
-194.149
-194.55
-194.932
-195.297
-195.646
-195.982
-196.305
-196.615
-196.913
-197.199
-197.472
-197.73
-197.973
-198.2
-198.408
-198.597
-198.765
-198.911
-199.034
-199.127
-199.2
-199.256
-199.294
-199.314
-199.321
-199.315
-199.298
-199.27
-199.234
-199.191
-199.14
-199.084
-199.024
-198.959
-198.89
-198.819
-198.744
-198.668
-198.591
-193.4
-193.826
-194.215
-194.581
-194.928
-195.257
-195.572
-195.872
-196.159
-196.433
-196.695
-196.944
-197.181
-197.404
-197.612
-197.804
-197.98
-198.139
-198.28
-198.401
-198.502
-198.578
-198.639
-198.684
-198.715
-198.731
-198.737
-198.732
-198.718
-198.696
-198.667
-198.632
-198.593
-198.549
-198.501
-198.45
-198.397
-198.341
-198.283
-198.223
-198.163
-193.518
-193.909
-194.266
-194.6
-194.916
-195.215
-195.498
-195.768
-196.024
-196.267
-196.497
-196.715
-196.92
-197.112
-197.291
-197.455
-197.604
-197.738
-197.855
-197.956
-198.04
-198.103
-198.152
-198.19
-198.215
-198.229
-198.233
-198.229
-198.217
-198.2
-198.176
-198.148
-198.116
-198.081
-198.043
-198.003
-197.96
-197.916
-197.87
-197.823
-197.774
-193.616
-193.975
-194.304
-194.611
-194.9
-195.172
-195.428
-195.67
-195.899
-196.114
-196.317
-196.508
-196.687
-196.853
-197.005
-197.145
-197.272
-197.384
-197.482
-197.566
-197.635
-197.687
-197.729
-197.76
-197.78
-197.791
-197.795
-197.792
-197.782
-197.768
-197.749
-197.726
-197.7
-197.671
-197.64
-197.607
-197.572
-197.536
-197.499
-197.461
-197.421
-193.698
-194.028
-194.332
-194.615
-194.88
-195.128
-195.361
-195.579
-195.784
-195.975
-196.155
-196.322
-196.477
-196.62
-196.751
-196.87
-196.977
-197.071
-197.153
-197.223
-197.279
-197.322
-197.356
-197.381
-197.398
-197.406
-197.409
-197.406
-197.398
-197.385
-197.37
-197.351
-197.33
-197.306
-197.281
-197.254
-197.226
-197.197
-197.166
-197.135
-197.103
-193.765
-194.071
-194.353
-194.615
-194.859
-195.086
-195.297
-195.495
-195.679
-195.85
-196.008
-196.155
-196.29
-196.413
-196.525
-196.626
-196.716
-196.795
-196.862
-196.919
-196.965
-196.999
-197.026
-197.046
-197.059
-197.066
-197.067
-197.064
-197.057
-197.046
-197.034
-197.019
-197.002
-196.983
-196.963
-196.942
-196.919
-196.896
-196.871
-196.846
-196.821
-193.821
-194.106
-194.368
-194.611
-194.837
-195.045
-195.239
-195.418
-195.583
-195.736
-195.876
-196.005
-196.122
-196.228
-196.324
-196.409
-196.484
-196.55
-196.605
-196.651
-196.688
-196.715
-196.736
-196.752
-196.762
-196.766
-196.766
-196.763
-196.757
-196.749
-196.739
-196.727
-196.714
-196.699
-196.684
-196.667
-196.65
-196.631
-196.611
-196.591
-196.57
-193.868
-194.134
-194.379
-194.606
-194.815
-195.007
-195.185
-195.348
-195.497
-195.634
-195.758
-195.871
-195.973
-196.064
-196.145
-196.217
-196.28
-196.333
-196.379
-196.416
-196.445
-196.466
-196.482
-196.494
-196.501
-196.504
-196.503
-196.5
-196.495
-196.488
-196.48
-196.471
-196.461
-196.45
-196.439
-196.426
-196.413
-196.399
-196.383
-196.366
-196.349
-193.906
-194.156
-194.387
-194.599
-194.794
-194.973
-195.136
-195.285
-195.421
-195.543
-195.653
-195.752
-195.84
-195.918
-195.987
-196.047
-196.099
-196.143
-196.179
-196.209
-196.232
-196.247
-196.26
-196.269
-196.273
-196.275
-196.274
-196.271
-196.267
-196.261
-196.255
-196.248
-196.24
-196.232
-196.224
-196.215
-196.206
-196.195
-196.183
-196.17
-196.156
-193.939
-194.174
-194.393
-194.593
-194.776
-194.942
-195.093
-195.23
-195.353
-195.463
-195.561
-195.647
-195.724
-195.79
-195.848
-195.898
-195.94
-195.976
-196.005
-196.028
-196.046
-196.058
-196.067
-196.074
-196.077
-196.078
-196.076
-196.074
-196.07
-196.065
-196.06
-196.054
-196.048
-196.042
-196.036
-196.03
-196.023
-196.015
-196.006
-195.996
-195.985
-193.965
-194.189
-194.397
-194.587
-194.759
-194.915
-195.055
-195.181
-195.293
-195.392
-195.479
-195.556
-195.622
-195.679
-195.727
-195.768
-195.803
-195.831
-195.854
-195.871
-195.885
-195.894
-195.9
-195.905
-195.907
-195.907
-195.906
-195.904
-195.9
-195.896
-195.892
-195.887
-195.882
-195.877
-195.871
-195.866
-195.86
-195.854
-195.847
-195.839
-195.83
-193.987
-194.202
-194.401
-194.582
-194.746
-194.892
-195.023
-195.14
-195.242
-195.332
-195.41
-195.477
-195.534
-195.582
-195.623
-195.656
-195.684
-195.706
-195.723
-195.736
-195.746
-195.751
-195.756
-195.758
-195.759
-195.759
-195.757
-195.755
-195.752
-195.748
-195.744
-195.739
-195.735
-195.729
-195.724
-195.719
-195.713
-195.707
-195.701
-195.694
-195.686
-194.006
-194.213
-194.405
-194.58
-194.736
-194.875
-194.998
-195.106
-195.2
-195.281
-195.351
-195.41
-195.459
-195.5
-195.534
-195.561
-195.583
-195.6
-195.612
-195.622
-195.628
-195.631
-195.633
-195.633
-195.633
-195.631
-195.629
-195.626
-195.623
-195.619
-195.615
-195.611
-195.607
-195.602
-195.597
-195.592
-195.587
-195.581
-195.575
-195.568
-195.562
-194.02
-194.222
-194.41
-194.579
-194.729
-194.862
-194.979
-195.08
-195.166
-195.24
-195.302
-195.354
-195.397
-195.432
-195.46
-195.481
-195.498
-195.511
-195.52
-195.525
-195.528
-195.529
-195.528
-195.527
-195.524
-195.521
-195.517
-195.513
-195.509
-195.505
-195.501
-195.497
-195.493
-195.489
-195.485
-195.48
-195.476
-195.471
-195.466
-195.461
-195.455
-194.032
-194.231
-194.414
-194.58
-194.726
-194.854
-194.965
-195.06
-195.141
-195.209
-195.265
-195.31
-195.347
-195.376
-195.399
-195.416
-195.428
-195.437
-195.443
-195.447
-195.448
-195.447
-195.446
-195.443
-195.44
-195.436
-195.432
-195.428
-195.424
-195.42
-195.416
-195.413
-195.409
-195.406
-195.402
-195.398
-195.394
-195.39
-195.385
-195.379
-195.373
-194.041
-194.239
-194.421
-194.584
-194.728
-194.852
-194.959
-195.049
-195.125
-195.187
-195.238
-195.278
-195.309
-195.333
-195.351
-195.363
-195.372
-195.376
-195.378
-195.378
-195.375
-195.371
-195.367
-195.362
-195.357
-195.351
-195.346
-195.34
-195.335
-195.331
-195.326
-195.322
-195.318
-195.315
-195.311
-195.306
-195.302
-195.297
-195.292
-195.286
-195.28
-194.048
-194.248
-194.432
-194.596
-194.739
-194.861
-194.965
-195.052
-195.123
-195.18
-195.226
-195.261
-195.288
-195.307
-195.321
-195.33
-195.335
-195.338
-195.338
-195.337
-195.334
-195.33
-195.326
-195.321
-195.315
-195.31
-195.304
-195.299
-195.293
-195.288
-195.283
-195.279
-195.274
-195.269
-195.263
-195.258
-195.252
-195.246
-195.24
-195.234
-195.228
-194.051
-194.256
-194.444
-194.611
-194.756
-194.879
-194.982
-195.067
-195.135
-195.188
-195.23
-195.26
-195.282
-195.296
-195.305
-195.308
-195.307
-195.304
-195.298
-195.29
-195.281
-195.272
-195.263
-195.253
-195.244
-195.235
-195.227
-195.219
-195.211
-195.204
-195.198
-195.192
-195.185
-195.179
-195.173
-195.167
-195.161
-195.154
-195.148
-195.143
-195.137
-142.028
-158.617
-168.498
-171.07
-174.466
-178.87
-183.058
-186.573
-188.036
-188.772
-189.112
-188.917
-188.338
-187.758
-187.45
-187.329
-187.436
-187.723
-188.059
-188.58
-189.105
-189.702
-190.243
-190.766
-191.192
-191.624
-191.94
-192.303
-192.59
-192.843
-193.048
-193.234
-193.378
-193.477
-193.544
-193.582
-193.608
-193.623
-193.628
-193.639
-193.643
-193.668
-193.685
-193.717
-193.736
-193.782
-193.822
-193.835
-193.854
-193.902
-193.928
-193.963
-193.992
-194.02
-194.045
-194.056
-194.082
-194.097
-194.116
-194.124
-194.132
-194.136
-194.147
-194.159
-194.166
-194.178
-194.184
-194.199
-194.214
-194.225
-194.234
-194.246
-194.256
-194.265
-143.322
-158.618
-168.544
-171.163
-174.444
-178.814
-183.162
-186.716
-188.157
-189.072
-189.668
-189.554
-188.959
-188.311
-187.916
-187.712
-187.74
-187.95
-188.235
-188.695
-189.18
-189.731
-190.233
-190.725
-191.13
-191.544
-191.859
-192.212
-192.502
-192.755
-192.964
-193.152
-193.3
-193.4
-193.47
-193.512
-193.54
-193.558
-193.567
-193.58
-193.587
-193.613
-193.634
-193.669
-193.692
-193.739
-193.781
-193.8
-193.821
-193.87
-193.899
-193.936
-193.968
-193.999
-194.026
-194.04
-194.067
-194.084
-194.104
-194.113
-194.123
-194.128
-194.139
-194.153
-194.16
-194.173
-194.18
-194.195
-194.211
-194.222
-194.232
-194.244
-194.255
-194.263
-145.341
-158.867
-168.637
-171.255
-174.347
-178.675
-183.125
-186.68
-188.338
-189.376
-190.109
-190.054
-189.461
-188.776
-188.313
-188.045
-188.015
-188.158
-188.409
-188.812
-189.264
-189.771
-190.239
-190.7
-191.086
-191.481
-191.793
-192.136
-192.426
-192.679
-192.89
-193.079
-193.229
-193.332
-193.403
-193.447
-193.478
-193.499
-193.51
-193.525
-193.535
-193.563
-193.588
-193.624
-193.652
-193.7
-193.743
-193.767
-193.79
-193.841
-193.872
-193.912
-193.946
-193.978
-194.008
-194.025
-194.053
-194.071
-194.093
-194.103
-194.114
-194.12
-194.132
-194.146
-194.155
-194.168
-194.176
-194.191
-194.207
-194.22
-194.231
-194.242
-194.254
-194.262
-148.217
-159.467
-168.789
-171.39
-174.244
-178.475
-182.928
-186.343
-188.363
-189.611
-190.403
-190.389
-189.817
-189.123
-188.621
-188.314
-188.248
-188.348
-188.577
-188.937
-189.362
-189.831
-190.27
-190.703
-191.072
-191.448
-191.755
-192.088
-192.376
-192.627
-192.839
-193.028
-193.178
-193.283
-193.354
-193.401
-193.433
-193.455
-193.467
-193.483
-193.496
-193.523
-193.552
-193.588
-193.62
-193.668
-193.711
-193.74
-193.765
-193.816
-193.851
-193.891
-193.927
-193.962
-193.993
-194.013
-194.041
-194.061
-194.083
-194.095
-194.107
-194.114
-194.126
-194.141
-194.15
-194.164
-194.173
-194.188
-194.204
-194.218
-194.229
-194.241
-194.253
-194.26
-151.878
-160.517
-169.026
-171.621
-174.201
-178.252
-182.592
-185.84
-188.127
-189.745
-190.64
-190.654
-190.096
-189.401
-188.869
-188.536
-188.445
-188.517
-188.732
-189.063
-189.465
-189.902
-190.319
-190.726
-191.08
-191.438
-191.738
-192.059
-192.343
-192.593
-192.803
-192.991
-193.14
-193.247
-193.317
-193.365
-193.396
-193.419
-193.433
-193.449
-193.463
-193.49
-193.522
-193.558
-193.593
-193.64
-193.684
-193.717
-193.745
-193.795
-193.832
-193.874
-193.911
-193.947
-193.98
-194.002
-194.031
-194.052
-194.075
-194.088
-194.1
-194.109
-194.121
-194.136
-194.146
-194.16
-194.17
-194.185
-194.202
-194.216
-194.228
-194.24
-194.253
-194.258
-156.151
-162.172
-169.499
-172.056
-174.344
-178.093
-182.223
-185.372
-187.724
-189.681
-190.798
-190.888
-190.346
-189.638
-189.074
-188.718
-188.609
-188.667
-188.877
-189.191
-189.576
-189.99
-190.389
-190.774
-191.115
-191.453
-191.745
-192.052
-192.33
-192.575
-192.783
-192.968
-193.115
-193.223
-193.291
-193.339
-193.37
-193.392
-193.406
-193.422
-193.438
-193.464
-193.497
-193.533
-193.572
-193.618
-193.662
-193.698
-193.728
-193.777
-193.816
-193.859
-193.898
-193.935
-193.969
-193.993
-194.022
-194.044
-194.068
-194.082
-194.095
-194.104
-194.116
-194.132
-194.143
-194.157
-194.168
-194.183
-194.199
-194.214
-194.227
-194.239
-194.252
-194.257
-160.841
-164.53
-170.377
-172.799
-174.799
-178.125
-181.955
-185.039
-187.375
-189.444
-190.811
-191.087
-190.605
-189.885
-189.271
-188.878
-188.743
-188.792
-189
-189.309
-189.686
-190.087
-190.475
-190.843
-191.174
-191.493
-191.776
-192.068
-192.337
-192.576
-192.78
-192.96
-193.104
-193.211
-193.277
-193.324
-193.353
-193.374
-193.387
-193.403
-193.42
-193.444
-193.479
-193.514
-193.555
-193.6
-193.644
-193.683
-193.715
-193.763
-193.803
-193.846
-193.887
-193.925
-193.959
-193.985
-194.015
-194.038
-194.061
-194.077
-194.09
-194.1
-194.113
-194.128
-194.14
-194.154
-194.165
-194.181
-194.197
-194.213
-194.226
-194.238
-194.252
-194.255
-165.726
-167.584
-171.83
-173.965
-175.675
-178.488
-181.895
-184.867
-187.2
-189.215
-190.675
-191.179
-190.857
-190.168
-189.505
-189.052
-188.867
-188.896
-189.1
-189.412
-189.791
-190.19
-190.575
-190.935
-191.258
-191.563
-191.836
-192.111
-192.368
-192.598
-192.795
-192.969
-193.108
-193.211
-193.276
-193.319
-193.346
-193.365
-193.377
-193.391
-193.409
-193.432
-193.467
-193.502
-193.543
-193.588
-193.631
-193.671
-193.705
-193.752
-193.793
-193.837
-193.878
-193.917
-193.952
-193.979
-194.009
-194.033
-194.056
-194.072
-194.086
-194.097
-194.11
-194.125
-194.138
-194.152
-194.164
-194.179
-194.196
-194.212
-194.226
-194.238
-194.252
-194.254
-170.595
-171.217
-173.963
-175.639
-177.026
-179.273
-182.135
-184.852
-187.14
-189.096
-190.546
-191.189
-191.058
-190.478
-189.809
-189.287
-189.023
-189
-189.18
-189.488
-189.874
-190.281
-190.675
-191.037
-191.362
-191.658
-191.924
-192.182
-192.425
-192.643
-192.832
-192.996
-193.128
-193.226
-193.287
-193.327
-193.349
-193.366
-193.375
-193.388
-193.405
-193.426
-193.46
-193.495
-193.537
-193.58
-193.623
-193.664
-193.7
-193.745
-193.787
-193.83
-193.872
-193.911
-193.946
-193.975
-194.005
-194.029
-194.053
-194.069
-194.083
-194.095
-194.108
-194.123
-194.136
-194.15
-194.162
-194.178
-194.194
-194.211
-194.225
-194.238
-194.252
-194.252
-175.328
-175.235
-176.751
-177.849
-178.851
-180.508
-182.746
-185.057
-187.161
-189.017
-190.452
-191.214
-191.266
-190.822
-190.19
-189.62
-189.262
-189.153
-189.271
-189.552
-189.933
-190.351
-190.761
-191.139
-191.475
-191.773
-192.036
-192.283
-192.512
-192.716
-192.893
-193.046
-193.167
-193.257
-193.312
-193.346
-193.364
-193.375
-193.382
-193.392
-193.408
-193.428
-193.461
-193.495
-193.536
-193.579
-193.621
-193.663
-193.699
-193.743
-193.784
-193.827
-193.869
-193.907
-193.943
-193.972
-194.002
-194.026
-194.05
-194.067
-194.081
-194.094
-194.106
-194.121
-194.134
-194.148
-194.161
-194.177
-194.194
-194.21
-194.225
-194.237
-194.252
-194.251
-179.893
-179.423
-180.036
-180.532
-181.095
-182.169
-183.752
-185.554
-187.341
-189.004
-190.37
-191.226
-191.481
-191.233
-190.697
-190.108
-189.65
-189.417
-189.424
-189.632
-189.978
-190.391
-190.817
-191.218
-191.577
-191.891
-192.163
-192.408
-192.627
-192.819
-192.984
-193.122
-193.231
-193.309
-193.355
-193.38
-193.39
-193.395
-193.397
-193.403
-193.416
-193.436
-193.467
-193.5
-193.541
-193.583
-193.625
-193.666
-193.703
-193.745
-193.785
-193.827
-193.868
-193.906
-193.942
-193.972
-194.001
-194.026
-194.049
-194.066
-194.081
-194.093
-194.106
-194.12
-194.133
-194.147
-194.161
-194.176
-194.193
-194.21
-194.225
-194.237
-194.253
-194.249
-184.283
-183.59
-183.582
-183.544
-183.663
-184.194
-185.157
-186.407
-187.787
-189.171
-190.397
-191.274
-191.686
-191.644
-191.272
-190.746
-190.24
-189.882
-189.738
-189.811
-190.062
-190.428
-190.844
-191.262
-191.649
-191.991
-192.287
-192.543
-192.763
-192.95
-193.105
-193.229
-193.323
-193.386
-193.419
-193.432
-193.432
-193.426
-193.421
-193.422
-193.431
-193.449
-193.478
-193.512
-193.552
-193.593
-193.635
-193.674
-193.712
-193.752
-193.791
-193.831
-193.871
-193.908
-193.943
-193.973
-194.002
-194.026
-194.049
-194.067
-194.081
-194.094
-194.106
-194.12
-194.133
-194.147
-194.161
-194.176
-194.193
-194.209
-194.225
-194.238
-194.254
-194.248
-188.462
-187.598
-187.166
-186.721
-186.448
-186.515
-186.941
-187.663
-188.6
-189.643
-190.653
-191.465
-191.951
-192.066
-191.856
-191.437
-190.95
-190.525
-190.252
-190.173
-190.282
-190.541
-190.896
-191.293
-191.689
-192.058
-192.384
-192.665
-192.902
-193.096
-193.25
-193.366
-193.447
-193.494
-193.512
-193.509
-193.492
-193.473
-193.456
-193.448
-193.452
-193.467
-193.494
-193.526
-193.567
-193.608
-193.649
-193.689
-193.726
-193.765
-193.802
-193.84
-193.878
-193.914
-193.947
-193.977
-194.005
-194.029
-194.051
-194.068
-194.083
-194.096
-194.108
-194.121
-194.134
-194.147
-194.161
-194.176
-194.193
-194.21
-194.226
-194.238
-194.255
-194.247
-192.367
-191.364
-190.646
-189.926
-189.358
-189.067
-189.062
-189.331
-189.834
-190.506
-191.236
-191.892
-192.351
-192.541
-192.452
-192.142
-191.709
-191.264
-190.904
-190.696
-190.661
-190.789
-191.043
-191.378
-191.747
-192.117
-192.461
-192.767
-193.027
-193.239
-193.404
-193.522
-193.597
-193.633
-193.636
-193.614
-193.579
-193.541
-193.508
-193.486
-193.48
-193.489
-193.512
-193.544
-193.584
-193.626
-193.668
-193.708
-193.745
-193.783
-193.819
-193.854
-193.89
-193.923
-193.955
-193.983
-194.01
-194.033
-194.055
-194.072
-194.086
-194.098
-194.11
-194.123
-194.135
-194.149
-194.162
-194.177
-194.194
-194.21
-194.227
-194.239
-194.256
-194.245
-195.922
-194.831
-193.939
-193.058
-192.305
-191.761
-191.441
-191.344
-191.465
-191.768
-192.18
-192.606
-192.943
-193.113
-193.076
-192.845
-192.475
-192.045
-191.644
-191.341
-191.182
-191.177
-191.313
-191.556
-191.868
-192.21
-192.551
-192.868
-193.146
-193.378
-193.559
-193.688
-193.767
-193.798
-193.79
-193.753
-193.697
-193.637
-193.583
-193.542
-193.52
-193.518
-193.534
-193.563
-193.602
-193.645
-193.688
-193.73
-193.769
-193.806
-193.841
-193.874
-193.907
-193.937
-193.967
-193.993
-194.018
-194.04
-194.06
-194.077
-194.09
-194.102
-194.114
-194.125
-194.138
-194.15
-194.164
-194.178
-194.195
-194.211
-194.228
-194.24
-194.258
-194.244
-199.034
-197.928
-196.956
-196.008
-195.159
-194.46
-193.924
-193.558
-193.368
-193.341
-193.438
-193.597
-193.745
-193.813
-193.755
-193.555
-193.233
-192.836
-192.43
-192.077
-191.826
-191.707
-191.723
-191.859
-192.086
-192.371
-192.682
-192.99
-193.274
-193.52
-193.717
-193.86
-193.948
-193.982
-193.97
-193.921
-193.848
-193.766
-193.686
-193.622
-193.578
-193.559
-193.562
-193.585
-193.621
-193.663
-193.709
-193.753
-193.794
-193.832
-193.867
-193.899
-193.929
-193.957
-193.983
-194.007
-194.029
-194.05
-194.068
-194.083
-194.096
-194.108
-194.118
-194.129
-194.141
-194.153
-194.166
-194.18
-194.196
-194.213
-194.229
-194.241
-194.26
-194.244
-201.556
-200.506
-199.539
-198.596
-197.723
-196.95
-196.29
-195.748
-195.336
-195.052
-194.879
-194.785
-194.724
-194.647
-194.514
-194.298
-193.997
-193.633
-193.243
-192.874
-192.572
-192.368
-192.28
-192.307
-192.435
-192.64
-192.894
-193.166
-193.433
-193.676
-193.879
-194.033
-194.132
-194.176
-194.166
-194.113
-194.028
-193.927
-193.823
-193.732
-193.662
-193.62
-193.605
-193.614
-193.643
-193.683
-193.729
-193.775
-193.819
-193.86
-193.896
-193.928
-193.956
-193.982
-194.005
-194.025
-194.045
-194.062
-194.079
-194.092
-194.104
-194.114
-194.124
-194.134
-194.145
-194.156
-194.169
-194.183
-194.199
-194.215
-194.231
-194.243
-194.262
-194.244
-203.251
-202.308
-201.409
-200.528
-199.691
-198.918
-198.217
-197.595
-197.062
-196.621
-196.269
-195.989
-195.756
-195.542
-195.317
-195.057
-194.752
-194.406
-194.038
-193.677
-193.355
-193.102
-192.94
-192.877
-192.909
-193.026
-193.202
-193.415
-193.64
-193.858
-194.05
-194.202
-194.307
-194.358
-194.355
-194.305
-194.216
-194.103
-193.982
-193.868
-193.773
-193.705
-193.668
-193.659
-193.675
-193.707
-193.75
-193.797
-193.843
-193.887
-193.925
-193.958
-193.986