/*--------------------------------*- C++ -*----------------------------------*\
| =========                 |                                                 |
| \\      /  F ield         | OpenFOAM: The Open Source CFD Toolbox           |
|  \\    /   O peration     | Version:  5.x                                   |
|   \\  /    A nd           | Web:      www.OpenFOAM.org                      |
|    \\/     M anipulation  |                                                 |
\*---------------------------------------------------------------------------*/
FoamFile
{
    version     2.0;
    format      ascii;
    class       volScalarField;
    location    "50";
    object      p;
}
// * * * * * * * * * * * * * * * * * * * * * * * * * * * * * * * * * * * * * //

dimensions      [0 2 -2 0 0 0 0];

internalField   nonuniform List<scalar> 
11040
(
-0.914629
-53.9966
-164.56
-203.25
-222.181
-234.729
-240.366
-239.714
-234.485
-225.071
-211.255
-188.148
-165.507
-149.54
-138.563
-126.629
-114.348
-102.648
-91.5207
-80.7339
-70.2861
-61.2484
-53.7352
-46.7224
-40.1961
-34.1421
-28.5832
-23.5026
-18.935
-14.8688
-11.2899
-8.12337
-5.33929
-2.90534
-0.82313
0.904448
2.29135
3.33088
3.80764
4.73628
5.73185
8.31964
-40.7337
-114.042
-155.841
-181.394
-200.763
-213.261
-218.823
-218.684
-213.611
-203.67
-185.072
-164.938
-149.443
-138.269
-126.534
-114.437
-102.823
-91.7488
-81.0027
-70.5793
-61.5661
-54.0371
-47.0088
-40.4681
-34.4004
-28.8265
-23.7279
-19.135
-15.0353
-11.42
-8.2247
-5.41896
-2.96884
-0.876456
0.859383
2.25792
3.31916
3.69144
4.21597
4.7547
14.2636
-31.2971
-85.3778
-131.265
-161.873
-183.881
-198.644
-206.229
-207.82
-204.363
-196.376
-181.25
-163.281
-148.207
-136.978
-125.722
-113.997
-102.576
-91.6329
-80.995
-70.6464
-61.67
-54.1556
-47.1396
-40.6098
-34.554
-28.9875
-23.8882
-19.2789
-15.1503
-11.5008
-8.28071
-5.46141
-3.00943
-0.919409
0.820554
2.22876
3.32193
3.69315
4.09222
4.26838
17.4773
-22.8624
-64.024
-105.351
-136.375
-159.852
-177.265
-188.111
-192.81
-192.241
-187.133
-175.693
-160.376
-146.249
-135.182
-124.451
-113.189
-102.049
-91.3054
-80.8303
-70.5976
-61.6952
-54.2186
-47.2316
-40.7267
-34.6957
-29.1453
-24.0496
-19.4221
-15.2605
-11.5726
-8.32579
-5.49561
-3.04642
-0.959748
0.787045
2.20399
3.32339
3.73733
4.19008
4.26963
19.3751
-15.0966
-47.253
-82.4203
-112.448
-136.659
-155.672
-168.937
-176.378
-178.61
-176.367
-168.543
-156.276
-143.57
-132.855
-122.652
-111.96
-101.216
-90.752
-80.5054
-70.4458
-61.66
-54.2498
-47.3159
-40.8557
-34.8651
-29.3419
-24.2571
-19.6145
-15.4188
-11.6876
-8.408
-5.5616
-3.11009
-1.02104
0.737928
2.16797
3.31318
3.79642
4.37154
4.58302
20.3102
-8.49781
-34.1846
-63.2824
-90.5224
-113.958
-133.469
-148.432
-158.311
-163.29
-163.933
-159.616
-150.621
-139.806
-129.78
-120.206
-110.209
-99.99
-89.9021
-79.9592
-70.1389
-61.5171
-54.2125
-47.3644
-40.9746
-35.0442
-29.5651
-24.5059
-19.8606
-15.637
-11.8615
-8.54148
-5.66873
-3.20552
-1.10804
0.666137
2.11571
3.2949
3.88555
4.61916
5.04183
20.5624
-3.16619
-23.9922
-47.7404
-71.2905
-92.7985
-111.735
-127.389
-138.983
-146.303
-149.637
-148.605
-142.976
-134.542
-125.707
-116.979
-107.821
-98.2794
-88.6847
-79.1353
-69.6325
-61.235
-54.0859
-47.3635
-41.0745
-35.227
-29.8116
-24.7967
-20.1666
-15.9271
-12.1091
-8.73928
-5.825
-3.33602
-1.22224
0.569743
2.04613
3.27246
4.00902
4.92996
5.57729
20.4054
0.984498
-16.0527
-35.3361
-55.0626
-73.9458
-91.4128
-106.755
-119.147
-128.126
-133.694
-135.542
-133.152
-127.443
-120.316
-112.745
-104.616
-95.9339
-86.9857
-77.9438
-68.857
-60.7621
-53.8313
-47.2858
-41.1381
-35.4034
-30.076
-25.1274
-20.5356
-16.3002
-12.451
-9.02814
-6.05792
-3.52528
-1.38192
0.435108
1.94902
3.24003
4.15308
5.28167
6.13395
19.9854
4.10751
-9.90455
-25.5479
-41.7677
-57.7877
-73.1947
-87.4037
-99.6802
-109.487
-116.623
-120.762
-121.244
-118.334
-113.317
-107.252
-100.375
-92.7549
-84.6416
-76.257
-67.7104
-60.0128
-53.3746
-47.0713
-41.1183
-35.5366
-30.3279
-25.4717
-20.9458
-16.7441
-12.8902
-9.42855
-6.40004
-3.8089
-1.61719
0.241052
1.80959
3.18623
4.29333
5.63511
6.66262
19.4118
6.40211
-5.16759
-17.8768
-31.0784
-44.349
-57.4657
-70.0267
-81.4504
-91.2646
-99.187
-104.882
-107.633
-107.29
-104.548
-100.278
-94.8791
-88.5251
-81.4519
-73.908
-66.0564
-58.8725
-52.6153
-46.6312
-40.9377
-35.5597
-30.5098
-25.7785
-21.3516
-17.2211
-13.4041
-9.93926
-6.87257
-4.22272
-1.9668
-0.044642
1.60225
3.0859
4.38847
5.92559
7.10782
18.7522
8.052
-1.53409
-11.881
-22.5787
-33.4113
-44.2974
-55.0007
-65.1152
-74.2849
-82.2546
-88.711
-92.9792
-94.6864
-94.0794
-91.7119
-87.96
-83.0486
-77.2159
-70.7108
-63.7338
-57.2015
-51.426
-45.851
-40.4915
-35.3826
-30.5434
-25.9829
-21.6947
-17.6792
-13.9464
-10.5279
-7.46244
-4.77448
-2.45329
-0.450304
1.29468
2.89863
4.37852
6.07087
7.38933
18.0586
9.21927
1.25387
-7.19253
-15.8537
-24.6274
-33.5133
-42.394
-51.0173
-59.1398
-66.5785
-73.0907
-78.1026
-81.1786
-82.2844
-81.6788
-79.5924
-76.2225
-71.7789
-66.4909
-60.5665
-54.8309
-49.6526
-44.5842
-39.6509
-34.8889
-30.3337
-26.0037
-21.9088
-18.0553
-14.4558
-11.1327
-8.11513
-5.42452
-3.05545
-0.974544
0.871419
2.58706
4.20636
5.99057
7.421
17.3705
10.0391
3.40427
-3.5108
-10.5311
-17.6148
-24.7992
-32.0388
-39.1903
-46.1012
-52.6635
-58.715
-63.8163
-67.5683
-69.8114
-70.5961
-69.9963
-68.1151
-65.103
-61.1364
-56.4025
-51.5962
-47.1281
-42.6724
-38.2644
-33.9434
-29.7575
-25.735
-21.8991
-18.2634
-14.8464
-11.6655
-8.74273
-6.0922
-3.71112
-1.57769
0.345505
2.14182
3.8458
5.64964
7.15227
16.72
10.6199
5.08385
-0.592658
-6.29471
-12.0119
-17.7941
-23.6337
-29.4546
-35.1707
-40.7236
-46.0233
-50.7614
-54.6231
-57.4241
-59.1104
-59.6423
-59.0294
-57.3368
-54.6757
-51.1781
-47.3894
-43.7197
-39.9715
-36.1791
-32.3938
-28.6632
-25.032
-21.5266
-18.1744
-14.9951
-12.0093
-9.23327
-6.67685
-4.33794
-2.20326
-0.25249
1.57373
3.30155
5.06145
6.57997
16.1287
11.0427
6.42006
1.75065
-2.89051
-7.50906
-12.1554
-16.8394
-21.5233
-26.1624
-30.7286
-35.1803
-39.3154
-42.9082
-45.8026
-47.9129
-49.1502
-49.4589
-48.8361
-47.3211
-44.9904
-42.2172
-39.3865
-36.3927
-33.2801
-30.0958
-26.8971
-23.7301
-20.6317
-17.6327
-14.7597
-12.0338
-9.47054
-7.07826
-4.85451
-2.79411
-0.887018
0.901928
2.59133
4.25758
5.73313
15.6187
11.3748
7.51466
3.66719
-0.118006
-3.85441
-7.58817
-11.3363
-15.0814
-18.8022
-22.4888
-26.1241
-29.5813
-32.7094
-35.3947
-37.5581
-39.1063
-39.9603
-40.0773
-39.4463
-38.0915
-36.2351
-34.2007
-31.9506
-29.5271
-26.9758
-24.3546
-21.712
-19.0883
-16.5159
-14.0229
-11.6311
-9.35611
-7.20593
-5.17962
-3.27629
-1.49352
0.188176
1.77953
3.31901
4.71323
15.2213
11.6801
8.45922
5.28614
2.19507
-0.831359
-3.8337
-6.83055
-9.81522
-12.7789
-15.7211
-18.6364
-21.4464
-24.0534
-26.3805
-28.3685
-29.9405
-31.0211
-31.5561
-31.5098
-30.8732
-29.7537
-28.402
-26.8196
-25.0428
-23.1123
-21.0808
-18.9934
-16.8884
-14.796
-12.742
-10.7458
-8.82142
-6.97686
-5.21325
-3.533
-1.93839
-0.419762
1.02805
2.41966
3.7102
14.9307
11.9477
9.23374
6.58641
4.03153
1.54966
-0.894463
-3.31819
-5.71999
-8.09702
-10.4521
-12.785
-15.0449
-17.1697
-19.1099
-20.8247
-22.2563
-23.3446
-24.0397
-24.3018
-24.1081
-23.4976
-22.6561
-21.6021
-20.3632
-18.9726
-17.4733
-15.9017
-14.2891
-12.6598
-11.0349
-9.43033
-7.85859
-6.32745
-4.83988
-3.40055
-2.01479
-0.679302
0.606693
1.84445
3.01496
14.7176
12.167
9.84593
7.60154
5.45418
3.38376
1.35964
-0.633663
-2.59716
-4.53112
-6.43967
-8.32515
-10.1531
-11.8821
-13.4804
-14.9207
-16.1619
-17.1592
-17.8725
-18.2667
-18.3174
-18.0295
-17.5398
-16.8697
-16.0377
-15.0684
-13.9937
-12.8404
-11.6317
-10.3858
-9.11904
-7.84441
-6.57321
-5.31362
-4.07066
-2.85117
-1.66268
-0.505914
0.616827
1.70066
2.73753
14.5653
12.3578
10.3479
8.41906
6.58693
4.83241
3.12822
1.46128
-0.171014
-1.76994
-3.34017
-4.88455
-6.37972
-7.79653
-9.11415
-10.3148
-11.3701
-12.2475
-12.917
-13.3505
-13.5268
-13.436
-13.1788
-12.7733
-12.2296
-11.5649
-10.8019
-9.95942
-9.05416
-8.09987
-7.10977
-6.09496
-5.06603
-4.03156
-2.99797
-1.97328
-0.965927
0.0211183
0.983983
1.91583
2.813
14.4581
12.5277
10.7706
9.0939
7.51227
6.0054
4.55105
3.13614
1.75901
0.416337
-0.895022
-2.17918
-3.41857
-4.59345
-5.6884
-6.69255
-7.58524
-8.34411
-8.94634
-9.3712
-9.6011
-9.6218
-9.50739
-9.27114
-8.91729
-8.45797
-7.90936
-7.28517
-6.59788
-5.85852
-5.07819
-4.26686
-3.43429
-2.589
-1.7376
-0.888263
-0.0488032
0.777056
1.58549
2.36973
3.12811
14.3829
12.6821
11.1333
9.66349
8.28418
6.97693
5.72107
4.50615
3.32894
2.18714
1.07676
-0.00480074
-1.04565
-2.03063
-2.94923
-3.79351
-4.54926
-5.19991
-5.72889
-6.12041
-6.3608
-6.43543
-6.40037
-6.26465
-6.02911
-5.70321
-5.29899
-4.82734
-4.29776
-3.71979
-3.10261
-2.45521
-1.78605
-1.10278
-0.411494
0.280861
0.967378
1.6453
2.3107
2.95877
3.58794
14.3319
12.8239
11.4492
10.1519
8.9395
7.79633
6.70231
5.64979
4.63399
3.65393
2.70479
1.78552
0.903877
0.0721589
-0.702886
-1.41463
-2.05371
-2.60716
-3.06346
-3.40995
-3.63667
-3.72988
-3.73469
-3.65638
-3.49472
-3.25716
-2.95369
-2.59273
-2.1822
-1.72979
-1.24334
-0.730156
-0.197483
0.348661
0.902986
1.46022
2.01459
2.56444
3.10621
3.63665
4.15439
14.299
12.9537
11.728
10.5755
9.50407
8.49727
7.53871
6.62012
5.73846
4.89118
4.07546
3.28909
2.53908
1.83363
1.1787
0.578377
0.0402614
-0.427047
-0.814319
-1.11273
-1.31407
-1.40754
-1.43026
-1.38556
-1.27213
-1.09656
-0.866815
-0.589779
-0.271556
0.0815299
0.463373
0.867881
1.28964
1.72347
2.16578
2.61171
3.05766
3.50154
3.94159
4.37428
4.79983
14.2793
13.0741
11.9754
10.9471
9.9949
9.10406
8.25935
7.45394
6.68447
5.94885
5.24432
4.5692
3.92865
3.32901
2.77456
2.26845
1.81616
1.42391
1.09835
0.845927
0.672684
0.587003
0.557039
0.581321
0.661577
0.792208
0.966764
1.17979
1.42669
1.70241
2.00232
2.32147
2.65586
3.00124
3.35498
3.71304
4.07284
4.43256
4.79095
5.145
5.49496
14.2702
13.1849
12.1968
11.2748
10.4254
9.63312
8.88596
8.17627
7.5023
6.86069
6.25018
5.66816
5.11953
4.6081
4.13795
3.71034
3.3303
3.0014
2.72908
2.51713
2.37058
2.29488
2.2631
2.27464
2.33195
2.42989
2.5636
2.72848
2.9214
3.1381
3.37531
3.62892
3.89605
4.17302
4.45803
4.74757
5.03983
5.33302
5.62638
5.91707
6.20547
14.268
13.288
12.395
11.5658
10.8044
10.0977
9.43363
8.80652
8.2134
7.65233
7.12089
6.61791
6.14595
5.70891
5.30868
4.94704
4.62672
4.35117
4.12321
3.94632
3.82307
3.75806
3.72699
3.73132
3.77266
3.84748
3.95105
4.08046
4.23267
4.40505
4.59435
4.79801
5.01296
5.23702
5.46784
5.7034
5.94126
6.18092
6.4206
6.6592
6.89572
14.272
13.3828
12.5737
11.8247
11.1402
10.5071
9.91508
9.3586
8.83518
8.34257
7.87876
7.44238
7.03539
6.66056
6.31922
6.01245
5.7422
5.51091
5.32045
5.1731
5.07047
5.01557
4.98722
4.9876
5.0183
5.0764
5.15785
5.26048
5.3818
5.5199
5.67204
5.83629
6.00997
6.19147
6.37862
6.56992
6.76316
6.95811
7.15315
7.34752
7.54019
14.2796
13.4708
12.7344
12.0562
11.4381
10.8694
10.3395
9.84439
9.38064
8.9471
8.54079
8.16133
7.80914
7.48704
7.19503
6.93452
6.706
6.51197
6.35284
6.23072
6.14582
6.10046
6.07556
6.07421
6.09748
6.14329
6.20778
6.28965
6.38657
6.49742
6.61968
6.75215
6.89238
7.03928
7.19079
7.34585
7.50247
7.66058
7.81862
7.97615
8.13203
14.2906
13.5514
12.8799
12.2629
11.7034
11.1904
10.715
10.2727
9.86104
9.47788
9.12143
8.79015
8.48507
8.20725
7.95743
7.73549
7.54257
7.37941
7.24709
7.14595
7.07677
7.03967
7.01897
7.01678
7.03522
7.07135
7.12295
7.18799
7.26568
7.35425
7.45272
7.55926
7.67287
7.79174
7.91508
8.041
8.16877
8.29725
8.42611
8.55387
8.68062
14.3032
13.626
13.0107
12.4481
11.9397
11.4756
11.0476
10.6514
10.2848
9.94547
9.63177
9.34211
9.07712
8.83732
8.62313
8.43414
8.27108
8.13418
8.02421
7.94103
7.88504
7.85551
7.83876
7.83688
7.85187
7.88102
7.92255
7.97471
8.03709
8.10827
8.18769
8.27392
8.36627
8.46326
8.56426
8.66766
8.7728
8.87863
8.98485
9.09007
9.19439
14.3172
13.694
13.1289
12.6139
12.1503
11.7292
11.3426
10.9869
10.6593
10.3582
10.0814
9.82772
9.59717
9.39004
9.2063
9.04543
8.90773
8.79315
8.70207
8.63418
8.58947
8.56681
8.55403
8.55327
8.56625
8.59059
8.62472
8.6672
8.7178
8.77547
8.8399
8.90999
8.98531
9.06469
9.14766
9.23286
9.31976
9.40742
9.49553
9.58286
9.66954
14.3314
13.7563
13.2352
12.762
12.3382
11.9544
11.6045
11.2838
10.9908
10.7226
10.4783
10.2555
10.0549
9.87569
9.71821
9.5812
9.46518
9.36937
9.2943
9.23909
9.20395
9.18711
9.17816
9.17885
9.19096
9.21205
9.24097
9.27624
9.31792
9.36505
9.41759
9.47461
9.53596
9.60063
9.66839
9.73802
9.80918
9.881
9.95337
10.0251
10.0964
14.3458
13.8128
13.3307
12.8944
12.505
12.1546
11.8364
11.547
11.2839
11.0451
10.8286
10.6331
10.458
10.3032
10.1679
10.0516
9.95363
9.87396
9.81199
9.76762
9.74004
9.72833
9.72238
9.72484
9.73629
9.75543
9.78026
9.81034
9.84488
9.88387
9.92661
9.97307
10.0225
10.0749
10.1293
10.1854
10.2424
10.3003
10.3583
10.4161
10.4732
14.3596
13.864
13.4161
13.0123
12.6534
12.3319
12.042
11.7798
11.5432
11.3298
11.138
10.966
10.8133
10.6792
10.5631
10.4641
10.3816
10.3152
10.2642
10.2283
10.2067
10.1985
10.1948
10.198
10.2087
10.2257
10.247
10.2724
10.3011
10.3332
10.3679
10.4054
10.4452
10.4871
10.5305
10.5751
10.6204
10.6663
10.7121
10.7578
10.8026
14.373
13.91
13.4922
13.1169
12.7846
12.4889
12.2234
11.9855
11.7719
11.5812
11.4108
11.2595
11.126
11.01
10.9101
10.826
10.7563
10.7009
10.6588
10.6297
10.6126
10.6067
10.6043
10.6076
10.6171
10.6317
10.6498
10.6711
10.6947
10.7209
10.749
10.7792
10.8109
10.8442
10.8784
10.9135
10.9489
10.9847
11.0202
11.0554
11.0899
14.3855
13.9511
13.5596
13.2092
12.9005
12.6268
12.3833
12.1663
11.9734
11.8023
11.6509
11.5175
11.401
11.3004
11.2147
11.1428
11.0841
11.0376
11.0029
10.979
10.9654
10.9609
10.9592
10.9619
10.97
10.9821
10.9972
11.0146
11.0341
11.0552
11.0779
11.1019
11.1272
11.1533
11.1803
11.2075
11.2351
11.2625
11.2898
11.3165
11.3429
14.3972
13.9875
13.6189
13.2902
13.0018
12.7477
12.5231
12.3247
12.1498
11.996
11.8613
11.7437
11.6419
11.5546
11.481
11.4197
11.3701
11.331
11.3021
11.2824
11.2714
11.2678
11.2665
11.2687
11.2754
11.2853
11.2979
11.3122
11.3282
11.3453
11.3637
11.3829
11.4031
11.4239
11.4452
11.4668
11.4886
11.5102
11.5317
11.5526
11.5732
14.4078
14.0195
13.6706
13.3605
13.0897
12.8526
12.6446
12.4623
12.3033
12.1647
12.0446
11.9408
11.8518
11.7763
11.7131
11.6608
11.6188
11.586
11.5619
11.5455
11.5365
11.5337
11.5326
11.5345
11.5401
11.5485
11.5589
11.5709
11.5841
11.5983
11.6132
11.6288
11.645
11.6615
11.6785
11.6957
11.7133
11.7308
11.7484
11.7655
11.7826
14.4176
14.0472
13.715
13.4209
13.1651
12.9426
12.7488
12.5808
12.4354
12.3103
12.2029
12.1112
12.0335
11.9682
11.9141
11.8698
11.8344
11.8069
11.7868
11.7733
11.7659
11.7637
11.7629
11.7648
11.7698
11.7772
11.7865
11.7969
11.8085
11.8206
11.8332
11.846
11.859
11.872
11.8853
11.8986
11.9122
11.926
11.94
11.9539
11.968
14.4262
14.0708
13.7526
13.4718
13.2288
13.0185
12.8372
12.6811
12.5479
12.4342
12.3382
12.2569
12.1893
12.1329
12.087
12.0496
12.0201
11.9973
11.9808
11.9696
11.9635
11.9617
11.9612
11.9629
11.9674
11.974
11.9823
11.9918
12.0022
12.0131
12.0243
12.0353
12.0462
12.0566
12.067
12.0769
12.087
12.0971
12.1076
12.1181
12.129
14.4337
14.0903
13.7834
13.5137
13.2812
13.0814
12.9103
12.7648
12.6417
12.5382
12.4516
12.3798
12.3206
12.2724
12.2335
12.2026
12.1783
12.1601
12.1467
12.138
12.1332
12.1319
12.1314
12.1328
12.1365
12.1422
12.1494
12.1578
12.1671
12.1771
12.1872
12.1974
12.2069
12.216
12.2243
12.232
12.2389
12.2457
12.2522
12.2588
12.2653
14.44
14.1057
13.8076
13.5466
13.3226
13.1314
12.9691
12.8323
12.718
12.6231
12.5449
12.4811
12.4294
12.3881
12.3555
12.3301
12.3107
12.2964
12.2862
12.2797
12.2761
12.2752
12.2748
12.2758
12.2786
12.283
12.2887
12.2956
12.3033
12.3119
12.3208
12.3299
12.3385
12.3467
12.354
12.3606
12.3661
12.371
12.3751
12.379
12.3825
14.4452
14.1172
13.8255
13.5711
13.3536
13.1691
13.0139
12.8845
12.7776
12.6901
12.6191
12.5621
12.5168
12.4815
12.4543
12.434
12.419
12.4086
12.4017
12.3979
12.3963
12.3967
12.3971
12.3986
12.4012
12.4049
12.4095
12.415
12.4212
12.4282
12.4356
12.4433
12.4508
12.458
12.4645
12.4702
12.4748
12.4786
12.4814
12.4838
12.4854
14.4494
14.1252
13.8378
13.5879
13.3753
13.196
13.0463
12.9228
12.822
12.7405
12.6754
12.6242
12.5843
12.554
12.5312
12.5148
12.5032
12.4956
12.4911
12.4892
12.4891
12.4905
12.492
12.4941
12.497
12.5006
12.5046
12.5092
12.5143
12.5199
12.5259
12.5322
12.5384
12.5446
12.5502
12.5553
12.5595
12.5632
12.5659
12.5683
12.5699
14.452
14.1288
13.8431
13.5961
13.3868
13.2114
13.0664
12.9478
12.8522
12.7759
12.7159
12.6695
12.6343
12.6084
12.5899
12.5774
12.5696
12.5655
12.5641
12.5649
12.567
12.5704
12.5737
12.5775
12.5817
12.5862
12.5909
12.5959
12.601
12.6063
12.6117
12.6172
12.6225
12.6278
12.6324
12.6369
12.6405
12.6437
12.646
12.6481
12.6491
14.4524
14.1249
13.837
13.5895
13.3812
13.2086
13.0673
12.9537
12.8632
12.7925
12.7377
12.6964
12.6656
12.6435
12.6279
12.6179
12.6117
12.609
12.6086
12.6103
12.6133
12.6172
12.6213
12.6259
12.6308
12.6361
12.6415
12.6472
12.6528
12.6586
12.6642
12.6698
12.675
12.6801
12.6843
12.6882
12.6911
12.6934
12.6945
12.6952
12.6947
14.4505
14.1153
13.8219
13.5709
13.3611
13.1889
13.05
12.9398
12.8539
12.7881
12.7392
12.7037
12.6794
12.6637
12.655
12.6512
12.6514
12.654
12.6584
12.6638
12.6698
12.6758
12.6817
12.6875
12.6937
12.6998
12.7061
12.7125
12.719
12.7255
12.7321
12.7383
12.7444
12.7497
12.7545
12.7581
12.7608
12.7621
12.7625
12.7615
12.7595
13.7248
15.0196
16.1812
16.7436
17.7997
19.7719
20.704
19.6052
18.9726
18.8785
19.0303
19.0974
19.0959
18.957
18.8026
18.5963
18.4199
18.2078
18.0253
17.8102
17.6094
17.3914
17.1884
17.0069
16.8269
16.6599
16.4701
16.3291
16.1925
16.091
15.9624
15.8873
15.7914
15.7368
15.6559
15.5776
15.4994
15.4275
15.3529
15.2776
15.1991
15.127
15.0593
14.9899
14.9276
14.8693
14.8124
14.7518
14.6852
14.6394
14.5926
14.5509
14.5098
14.4746
14.4373
14.3994
14.364
14.3294
14.2979
14.2651
14.2296
14.1962
14.1612
14.1303
14.0983
14.0656
14.0338
14.0025
13.9759
13.9449
13.9137
13.8783
13.8584
13.8006
13.0416
14.533
15.6569
16.3098
17.4747
19.8529
20.4929
18.5955
17.6273
17.6602
18.0693
18.3968
18.6073
18.65
18.6423
18.56
18.4808
18.3477
18.2217
18.0544
17.8849
17.6912
17.5007
17.3234
17.1422
16.9686
16.7722
16.6207
16.4756
16.3591
16.2209
16.1292
16.0231
15.9542
15.8591
15.767
15.6754
15.5908
15.5041
15.4166
15.3276
15.2449
15.1669
15.0885
15.017
14.9508
14.886
14.8183
14.7457
14.6939
14.6411
14.5941
14.5482
14.5086
14.4675
14.4258
14.3874
14.3496
14.3151
14.2797
14.2422
14.2063
14.1696
14.1372
14.1034
14.0697
14.0364
14.0041
13.9765
13.9448
13.913
13.8774
13.8569
13.7995
12.2492
13.6132
14.9754
15.9001
17.1259
19.6659
20.2075
17.8811
16.6324
16.6875
17.2461
17.7632
18.143
18.3421
18.4622
18.4917
18.499
18.4398
18.3661
18.2449
18.1067
17.9381
17.7621
17.5906
17.4111
17.2338
17.0355
16.8753
16.7241
16.5951
16.4508
16.3442
16.2306
16.1482
16.0413
15.9373
15.8339
15.7382
15.6409
15.5429
15.4446
15.3523
15.2654
15.1789
15.0994
15.0259
14.9538
14.8799
14.8021
14.7443
14.6862
14.6343
14.5841
14.5402
14.4956
14.4506
14.4091
14.3685
14.3313
14.2933
14.254
14.216
14.1776
14.1436
14.1084
14.0735
14.0389
14.0056
13.9771
13.9447
13.9125
13.8766
13.8556
13.7986
11.5888
12.8372
14.3966
15.5443
16.7569
19.0159
19.7077
17.4536
16.0281
15.9951
16.5795
17.1976
17.6947
18.0189
18.2459
18.3738
18.4578
18.4668
18.4427
18.3653
18.2591
18.1169
17.9577
17.7944
17.6199
17.4422
17.2467
17.0805
16.926
16.7877
16.641
16.5224
16.4039
16.3102
16.1943
16.081
15.9683
15.8635
15.7575
15.6512
15.5452
15.4449
15.3507
15.2573
15.1712
15.0913
15.0129
14.9341
14.8522
14.7888
14.7263
14.6701
14.6162
14.5685
14.5207
14.473
14.4288
14.3856
14.3458
14.3057
14.2647
14.2248
14.1851
14.1495
14.113
14.077
14.0414
14.0071
13.9777
13.9447
13.9122
13.8761
13.8545
13.7979
11.1861
12.4247
14.0562
15.2678
16.3617
18.0091
18.8422
17.1152
15.6974
15.5303
16.0473
16.6919
17.2593
17.6796
17.9967
18.2119
18.3664
18.4402
18.4649
18.4311
18.358
18.2435
18.1035
17.9507
17.7837
17.6085
17.4186
17.2492
17.093
16.9484
16.801
16.6735
16.5516
16.4482
16.3255
16.2048
16.0845
15.972
15.8589
15.7457
15.6335
15.5263
15.4261
15.3269
15.2352
15.1495
15.0656
14.9827
14.8974
14.8289
14.7625
14.7025
14.6453
14.5942
14.5434
14.4934
14.4467
14.4013
14.3592
14.3172
14.2745
14.2331
14.192
14.155
14.1173
14.0802
14.0437
14.0085
13.9782
13.9447
13.912
13.8757
13.8536
13.7975
10.8999
12.245
13.8849
15.1065
15.934
16.985
17.714
16.6948
15.5082
15.2348
15.631
16.2396
16.8327
17.3189
17.7084
17.9999
18.2195
18.355
18.4289
18.4391
18.4014
18.3167
18.1989
18.0598
17.9032
17.7336
17.5517
17.3822
17.226
17.0779
16.9313
16.798
16.674
16.5629
16.4355
16.3092
16.183
16.0644
15.9455
15.827
15.7098
15.597
15.4917
15.3877
15.2914
15.2007
15.1122
15.0258
14.9379
14.8648
14.7951
14.7316
14.6717
14.6174
14.5641
14.5121
14.4631
14.4157
14.3714
14.3278
14.2835
14.2408
14.1985
14.16
14.1214
14.0832
14.046
14.01
13.9788
13.9448
13.912
13.8755
13.8529
13.7974
10.703
12.176
13.7582
14.9896
15.5371
16.1808
16.6053
16.1239
15.3207
15.0374
15.312
15.8456
16.4242
16.9432
17.384
17.7372
18.0147
18.2081
18.3315
18.3871
18.3871
18.3353
18.2433
18.122
17.979
17.8189
17.647
17.4811
17.3266
17.1779
17.0334
16.8976
16.7724
16.6556
16.5256
16.3955
16.2651
16.1415
16.0183
15.8957
15.7747
15.6575
15.5481
15.4404
15.3402
15.2455
15.153
15.0637
14.9739
14.8967
14.8241
14.7577
14.6953
14.6383
14.5828
14.529
14.478
14.4289
14.3827
14.3375
14.2919
14.2479
14.2046
14.1648
14.1253
14.0861
14.0482
14.0115
13.9795
13.945
13.9121
13.8755
13.8524
13.7975
10.6325
12.1635
13.6027
14.8122
15.2482
15.6493
15.78
15.4886
15.0355
14.8472
15.0526
15.5068
16.0453
16.5669
17.0346
17.4309
17.7547
17.9988
18.1696
18.2703
18.3104
18.2946
18.2324
18.1338
18.0084
17.8619
17.7027
17.544
17.3935
17.247
17.106
16.9708
16.8457
16.7255
16.5946
16.4626
16.3298
16.2027
16.0765
15.9512
15.8277
15.7073
15.5948
15.4843
15.3813
15.2833
15.1878
15.0961
15.0049
14.9245
14.8494
14.7804
14.7161
14.6567
14.5993
14.544
14.4913
14.4407
14.3928
14.3463
14.2995
14.2545
14.2102
14.1691
14.1289
14.0888
14.0503
14.013
13.9802
13.9454
13.9125
13.8757
13.8521
13.798
10.674
12.1567
13.4108
14.5417
15.0271
15.3258
15.3265
14.9898
14.6817
14.6048
14.8064
15.2101
15.7047
16.2082
16.6792
17.0958
17.4493
17.7318
17.9438
18.0873
18.1681
18.1907
18.1623
18.0918
17.9891
17.8612
17.718
17.5705
17.4271
17.2861
17.1503
17.0184
16.8949
16.7737
16.6438
16.5117
16.378
16.2489
16.1209
15.9942
15.8692
15.7471
15.6323
15.5201
15.4149
15.3146
15.2168
15.1233
15.0311
14.9482
14.8711
14.8001
14.7342
14.6728
14.6138
14.5572
14.5031
14.4513
14.402
14.3542
14.3063
14.2604
14.2153
14.1731
14.1321
14.0913
14.0523
14.0144
13.9809
13.9458
13.9129
13.8761
13.852
13.7987
10.7321
12.0783
13.162
14.2003
14.7618
15.0569
15.0914
14.7521
14.4142
14.3476
14.5519
14.9349
15.4011
15.8823
16.3411
16.7567
17.1197
17.4229
17.6633
17.8415
17.9596
18.0204
18.0285
17.9907
17.916
17.8122
17.6895
17.5578
17.4252
17.293
17.1647
17.0387
16.9187
16.7988
16.6718
16.5414
16.4087
16.2791
16.1507
16.0238
15.8986
15.776
15.66
15.5472
15.4407
15.3388
15.2397
15.1448
15.0523
14.9676
14.889
14.8163
14.7492
14.6862
14.6262
14.5685
14.5133
14.4604
14.4099
14.3611
14.3124
14.2656
14.2198
14.1767
14.1351
14.0937
14.0541
14.0158
13.9817
13.9463
13.9134
13.8766
13.8521
13.7996
10.6484
11.8351
12.7824
13.7579
14.374
14.6776
14.782
14.6159
14.3312
14.2097
14.3514
14.6943
15.1356
15.5976
16.0388
16.4394
16.7929
17.0958
17.3462
17.5442
17.6899
17.7838
17.8274
17.825
17.783
17.7091
17.6122
17.5017
17.3851
17.2659
17.148
17.0309
16.9168
16.8008
16.6786
16.5519
16.422
16.2937
16.1663
16.0403
15.9161
15.7943
15.6782
15.5657
15.4588
15.3562
15.2566
15.1611
15.0685
14.9829
14.9031
14.8293
14.7612
14.6971
14.6363
14.5778
14.5219
14.4681
14.4167
14.367
14.3176
14.2702
14.2238
14.1799
14.1377
14.0958
14.0558
14.0171
13.9824
13.9468
13.9139
13.8773
13.8523
13.8008
10.2767
11.3359
12.1933
13.1308
13.7954
14.1333
14.2718
14.2669
14.1837
14.1546
14.279
14.5643
14.9543
15.3795
15.7927
16.1678
16.4978
16.7816
17.021
17.2187
17.3754
17.49
17.5622
17.5929
17.5854
17.5452
17.4795
17.396
17.3014
17.2005
17.0972
16.9922
16.8868
16.7777
16.6623
16.5414
16.4163
16.291
16.1661
16.0425
15.9206
15.8009
15.686
15.5747
15.4685
15.3662
15.2669
15.1714
15.0794
14.9935
14.9132
14.8387
14.7701
14.7053
14.644
14.5851
14.5286
14.4743
14.4222
14.3718
14.3219
14.274
14.2272
14.1826
14.1399
14.0977
14.0573
14.0183
13.9831
13.9474
13.9146
13.8781
13.8528
13.8023
9.58014
10.5494
11.3606
12.2687
12.972
13.3758
13.5816
13.6853
13.7595
13.8845
14.1134
14.4472
14.8456
15.2586
15.6438
15.9828
16.2714
16.5153
16.7214
16.896
17.0418
17.1584
17.2446
17.2992
17.3222
17.3159
17.2846
17.2333
17.1672
17.0907
17.0075
16.919
16.8264
16.7277
16.6216
16.5088
16.3905
16.2703
16.1496
16.0299
15.9115
15.7953
15.683
15.5742
15.4696
15.3687
15.2706
15.176
15.085
14.9995
14.9192
14.8446
14.7757
14.7107
14.6493
14.5902
14.5336
14.4789
14.4264
14.3755
14.3253
14.277
14.2299
14.1849
14.1418
14.0992
14.0586
14.0193
13.9837
13.948
13.9152
13.879
13.8534
13.804
8.60877
9.50887
10.2991
11.1762
11.9053
12.3892
12.6997
12.9215
13.1217
13.3615
13.6858
14.0981
14.5688
15.0474
15.4858
15.8513
16.1335
16.3422
16.498
16.6219
16.7276
16.8196
16.8978
16.9595
17.0015
17.023
17.0244
17.0074
16.9746
16.9285
16.8719
16.8058
16.7312
16.6472
16.5538
16.4517
16.3425
16.2295
16.1149
16.0005
15.8872
15.7758
15.6676
15.5626
15.4611
15.3627
15.2667
15.1739
15.0847
15.0002
14.9207
14.8465
14.7778
14.713
14.6519
14.593
14.5365
14.4818
14.4292
14.3779
14.3277
14.2791
14.2319
14.1865
14.1431
14.1004
14.0596
14.0202
13.9842
13.9485
13.9158
13.88
13.8542
13.8059
7.41941
8.27198
9.05589
9.90755
10.6535
11.2186
11.6453
11.9942
12.315
12.6552
13.0527
13.5207
14.0435
14.5839
15.0974
15.5441
15.8989
16.1553
16.3237
16.4263
16.4877
16.5302
16.5682
16.6067
16.6446
16.678
16.703
16.7168
16.718
16.7064
16.682
16.6448
16.5947
16.5315
16.4553
16.3675
16.2702
16.1668
16.0602
15.9528
15.846
15.741
15.6385
15.5388
15.4418
15.3474
15.2549
15.165
15.0782
14.9957
14.9175
14.8444
14.7763
14.7122
14.6516
14.5934
14.5373
14.4829
14.4304
14.3792
14.329
14.2804
14.2331
14.1876
14.1439
14.1012
14.0603
14.0209
13.9847
13.9491
13.9165
13.8811
13.8552
13.808
6.12285
6.94757
7.73325
8.56051
9.31488
9.94661
10.4776
10.9438
11.376
11.8083
12.2713
12.7817
13.3355
13.9098
14.4705
14.981
15.4126
15.7489
15.9899
16.1458
16.2348
16.2773
16.2929
16.2982
16.3051
16.32
16.3431
16.3709
16.3978
16.4191
16.43
16.4274
16.4091
16.3736
16.3209
16.2524
16.1708
16.08
15.9835
15.8847
15.7859
15.6885
15.5932
15.5004
15.4098
15.3209
15.2335
15.1478
15.0646
14.9849
14.9089
14.8375
14.7707
14.7077
14.6482
14.5909
14.5357
14.482
14.4299
14.3789
14.329
14.2806
14.2334
14.1879
14.1442
14.1015
14.0607
14.0213
13.9849
13.9495
13.9171
13.8822
13.8563
13.8102
4.90148
5.6999
6.47659
7.2711
8.01732
8.6878
9.29137
9.84541
10.3651
10.8727
11.3896
11.9317
12.5009
13.0866
13.6661
14.2118
14.6966
15.1008
15.4155
15.643
15.7953
15.889
15.942
15.9696
15.9842
15.9942
16.0069
16.0256
16.0526
16.0856
16.1195
16.1477
16.1636
16.162
16.1402
16.0982
16.0382
15.9643
15.8812
15.7934
15.7041
15.6157
15.5292
15.4449
15.3625
15.2813
15.2008
15.1211
15.043
14.9674
14.8946
14.8258
14.7609
14.6995
14.6415
14.5856
14.5315
14.4789
14.4275
14.3772
14.3278
14.2797
14.2328
14.1876
14.1439
14.1013
14.0606
14.0214
13.985
13.9499
13.9176
13.8834
13.8575
13.8127
4.03192
4.78289
5.52124
6.26287
6.97417
7.64229
8.26918
8.86156
9.42541
9.97389
10.52
11.076
11.645
12.2235
12.798
13.35
13.8581
14.3033
14.6728
14.9624
15.1765
15.3265
15.4274
15.4957
15.545
15.5865
15.626
15.6671
15.7109
15.7576
15.8059
15.853
15.8937
15.9216
15.931
15.9186
15.8841
15.8306
15.7629
15.6866
15.6068
15.5269
15.449
15.3736
15.3003
15.2282
15.1563
15.0845
15.0131
14.9429
14.8746
14.8092
14.747
14.6879
14.6316
14.5774
14.5249
14.4736
14.4233
14.3739
14.3252
14.2777
14.2313
14.1864
14.1429
14.1006
14.0601
14.0212
13.9849
13.9501
13.9181
13.8846
13.8589
13.8154
3.60507
4.28131
4.95054
5.61825
6.26897
6.89739
7.50249
8.08642
8.65084
9.20321
9.75043
10.3002
10.8546
11.4128
11.9666
12.5046
13.0112
13.4711
13.8716
14.2053
14.4715
14.6755
14.8277
14.9413
15.0297
15.1046
15.1748
15.2458
15.3205
15.398
15.477
15.553
15.6214
15.6768
15.7143
15.73
15.722
15.6911
15.641
15.5774
15.5065
15.4335
15.362
15.2937
15.2285
15.1652
15.1025
15.0396
14.9762
14.9129
14.8503
14.7893
14.7305
14.674
14.6199
14.5675
14.5166
14.4668
14.4179
14.3695
14.3217
14.275
14.2292
14.1847
14.1415
14.0995
14.0593
14.0207
13.9846
13.9502
13.9186
13.8857
13.8604
13.8182
3.54465
4.12533
4.70291
5.28094
5.85281
6.4165
6.97022
7.51457
8.04936
8.57842
9.10443
9.63135
10.1594
10.6882
11.2123
11.7246
12.2142
12.67
13.0814
13.4404
13.7437
13.9922
14.1917
14.3515
14.4819
14.594
14.696
14.796
14.8968
15.0024
15.1109
15.22
15.3236
15.4147
15.486
15.5325
15.5517
15.5441
15.5129
15.4637
15.4028
15.3367
15.2706
15.2076
15.1487
15.0932
15.0394
14.9858
14.9315
14.8764
14.8208
14.7654
14.7109
14.6578
14.6061
14.5559
14.5068
14.4585
14.411
14.3639
14.3172
14.2713
14.2262
14.1823
14.1395
14.0979
14.0581
14.0199
13.9841
13.9501
13.9189
13.8869
13.862
13.8211
3.73313
4.21012
4.68759
5.17146
5.65848
6.14766
6.63681
7.12642
7.61504
8.10469
8.59488
9.08741
9.58037
10.0735
10.5619
11.0418
11.5048
11.9441
12.3506
12.7184
13.0425
13.3218
13.5589
13.7582
13.9283
14.0761
14.2112
14.3387
14.4656
14.5942
14.7269
14.8616
14.9949
15.1195
15.2278
15.3117
15.3655
15.3869
15.3782
15.345
15.295
15.236
15.1748
15.1161
15.0621
15.0128
14.9669
14.9225
14.8779
14.8321
14.785
14.7367
14.6878
14.639
14.5905
14.5426
14.4954
14.4489
14.4029
14.3571
14.3117
14.2669
14.2226
14.1794
14.1371
14.096
14.0566
14.0188
13.9834
13.95
13.9192
13.8881
13.8637
13.8242
4.08046
4.46009
4.8445
5.2407
5.64816
6.06373
6.48713
6.91672
7.35254
7.79315
8.23868
8.68737
9.13859
9.58958
10.0382
10.48
10.9105
11.3237
11.7143
12.0767
12.4068
12.7027
12.9641
13.1936
13.3954
13.5751
13.7392
13.8929
14.0424
14.1917
14.3436
14.4983
14.6531
14.803
14.9408
15.0583
15.148
15.2046
15.2267
15.2172
15.1831
15.1333
15.0771
15.0214
14.9705
14.9256
14.886
14.8497
14.8145
14.7788
14.7412
14.7015
14.6598
14.6165
14.5722
14.5273
14.4824
14.4378
14.3934
14.3491
14.305
14.2613
14.2181
14.1756
14.134
14.0935
14.0546
14.0173
13.9824