/*--------------------------------*- C++ -*----------------------------------*\
| =========                 |                                                 |
| \\      /  F ield         | OpenFOAM: The Open Source CFD Toolbox           |
|  \\    /   O peration     | Version:  5.x                                   |
|   \\  /    A nd           | Web:      www.OpenFOAM.org                      |
|    \\/     M anipulation  |                                                 |
\*---------------------------------------------------------------------------*/
FoamFile
{
    version     2.0;
    format      ascii;
    class       surfaceScalarField;
    location    "50";
    object      phi;
}
// * * * * * * * * * * * * * * * * * * * * * * * * * * * * * * * * * * * * * //

dimensions      [0 3 -1 0 0 0 0];

internalField   nonuniform List<scalar> 
21876
(
0.0307894
-0.00360307
-0.0262997
0.0400089
-0.00921943
0.0400502
-4.12886e-05
0.0404652
-0.000414915
0.0387053
0.00176001
0.0359426
0.00276278
0.0329219
0.00302089
0.0299453
0.00297672
0.0270827
0.00286313
0.024058
0.00302483
0.0205558
0.00350373
0.0178674
0.00268836
0.0163016
0.00156795
0.0152692
0.00103173
0.0140583
0.00121095
0.0127775
0.00128234
0.0114134
0.00136494
0.00997406
0.00144126
0.00845474
0.00151875
0.00685453
0.00160309
0.00516948
0.00167558
0.00380291
0.00136808
0.00243613
0.00136631
0.00116839
0.00126689
6.9794e-05
0.00109622
-0.000886909
0.000948259
-0.00172469
0.000833953
-0.00243288
0.000693775
-0.00299411
0.000558412
-0.00344139
0.000431885
-0.00378781
0.000344664
-0.00406488
0.000265536
-0.00429583
0.000233821
-0.00452048
0.000213798
-0.00473169
0.000219745
-0.00496555
0.000230517
-0.00513419
0.000183833
-0.00524701
0.000112184
-0.00544663
0.000204146
-0.00361207
-0.00183044
-0.0101596
0.00653966
0.0371377
-0.0101504
-0.0305898
0.0448132
-0.0168948
0.0468665
-0.00209435
0.0484188
-0.00196661
0.0490475
0.0011322
0.0486296
0.00318185
0.0472629
0.00438903
0.0451009
0.00514027
0.042387
0.00557856
0.0391395
0.00627339
0.0351682
0.00747585
0.0313219
0.00653407
0.0281383
0.00475054
0.0255335
0.00363344
0.0231497
0.00359087
0.0209688
0.0034596
0.0188646
0.00346495
0.0167548
0.00354713
0.0145868
0.00368134
0.0123168
0.00386803
0.00990122
0.0040782
0.00792194
0.00334021
0.00598358
0.00329338
0.0041071
0.00313174
0.0023463
0.0028461
0.000785481
0.00249713
-0.000525379
0.00213862
-0.00159617
0.00175451
-0.00244254
0.00140193
-0.003112
0.00109179
-0.00363725
0.00086567
-0.00406871
0.000686929
-0.00442425
0.000587707
-0.00474279
0.000524483
-0.00501766
0.000503364
-0.00522745
0.000444487
-0.00525521
0.000234529
-0.00496325
-0.000164416
-0.00429202
-0.00044079
-0.00251106
-0.00359814
-0.0168796
0.00419567
0.0434585
-0.0176028
-0.0360063
0.0503078
-0.0237442
0.0544428
-0.00622932
0.0566085
-0.00413231
0.0575263
0.000214519
0.0573811
0.00332718
0.0564499
0.00532023
0.054883
0.00670736
0.0527722
0.00768943
0.0500785
0.00896739
0.0465998
0.010955
0.0428858
0.0102486
0.0394282
0.0082091
0.0362238
0.00683853
0.0330763
0.00673946
0.0300857
0.00645214
0.0272117
0.00634073
0.0243824
0.00637919
0.0215293
0.0065356
0.0185879
0.00681301
0.0154896
0.00717767
0.0129402
0.00589314
0.0104234
0.00581339
0.00796911
0.00558948
0.00563406
0.00518434
0.00350326
0.0046292
0.00165501
0.0039891
0.00011519
0.00329172
-0.00111911
0.00263756
-0.00209414
0.00206124
-0.00285898
0.0016321
-0.00347836
0.00130137
-0.00398241
0.00109531
-0.00441033
0.000947318
-0.0047581
0.000856136
-0.00500546
0.000688298
-0.00503639
0.000270778
-0.00466431
-0.000540716
-0.00378399
-0.00132363
-0.0023734
-0.00501086
-0.0206305
0.00137924
0.0505002
-0.0258286
-0.0422746
0.057286
-0.0305302
0.0624956
-0.0114391
0.0654565
-0.00709323
0.0669441
-0.001273
0.0672012
0.00307039
0.0664619
0.00605996
0.0649877
0.0081822
0.062979
0.00969892
0.060477
0.0114701
0.0573366
0.0140959
0.0539256
0.0136597
0.0506709
0.0114633
0.0475292
0.0099789
0.0442532
0.0100135
0.0409069
0.00979633
0.0375226
0.00972247
0.0340849
0.00981385
0.0305626
0.0100539
0.0269099
0.0104611
0.0230577
0.0110219
0.0198633
0.00908137
0.0166788
0.00898966
0.0135374
0.00872199
0.0105002
0.00821248
0.00765746
0.00746313
0.00510733
0.00653257
0.00291527
0.00547734
0.0011113
0.00443756
-0.000335164
0.00350214
-0.00147275
0.00276547
-0.00237925
0.00220188
-0.00310526
0.00181763
-0.00370004
0.00153805
-0.0041723
0.00133063
-0.00451271
0.00103273
-0.00463192
0.000401491
-0.00434065
-0.000820206
-0.00347411
-0.00217503
-0.00250483
-0.00597114
-0.0221466
-0.000989923
0.0583246
-0.034817
-0.0493368
0.0654157
-0.0376215
0.0714983
-0.0175218
0.075591
-0.0111859
0.0780248
-0.00370673
0.0790319
0.0020634
0.0787716
0.00632057
0.0774852
0.0094688
0.0754432
0.0117411
0.072794
0.0141195
0.069531
0.017359
0.0659964
0.0171947
0.062652
0.0148081
0.0595151
0.0131163
0.0563147
0.0132146
0.0529844
0.0131278
0.0495073
0.0132009
0.0458389
0.0134837
0.0419376
0.0139564
0.0377661
0.0146348
0.0332676
0.0155229
0.0294532
0.0128976
0.0255763
0.0128684
0.0216738
0.0126266
0.0178144
0.0120735
0.014101
0.0111779
0.0106524
0.00998215
0.00757167
0.00855801
0.00493771
0.00707147
0.00276318
0.00567485
0.00101755
0.00451055
-0.000373993
0.00359157
-0.00147392
0.00291772
-0.00235197
0.00241512
-0.0030403
0.0020205
-0.00354904
0.00154227
-0.00383648
0.000691132
-0.00376264
-0.000894414
-0.00310146
-0.002838
-0.00261136
-0.00646285
-0.0219067
-0.00284888
0.0670343
-0.0446504
-0.0572011
0.0747263
-0.0453137
0.0816466
-0.0244423
0.0868842
-0.0164236
0.0904198
-0.00724232
0.0923984
8.47278e-05
0.0929377
0.00578132
0.0921941
0.0102126
0.0904147
0.0135207
0.0877846
0.0167499
0.0843815
0.0207625
0.0805363
0.0210401
0.0767788
0.0185658
0.073277
0.0166178
0.0698745
0.0166165
0.066461
0.0165404
0.0629797
0.0166806
0.0593346
0.0171267
0.0554156
0.0178725
0.0511241
0.0189227
0.0463609
0.0202805
0.042181
0.0170733
0.0377943
0.0172499
0.0332309
0.017184
0.0285608
0.0167371
0.0239
0.015832
0.0193935
0.0144826
0.0151887
0.012757
0.0114247
0.010831
0.00818586
0.00890908
0.00549815
0.00719493
0.00331495
0.00577104
0.00157022
0.00466026
0.000182277
0.00380121
-0.000904398
0.00310854
-0.00172615
0.00236718
-0.00230249
0.00127402
-0.00259099
-0.000598362
-0.00232638
-0.00309413
-0.00231672
-0.00646502
-0.0202854
-0.00393167
0.0767632
-0.0555103
-0.0659035
0.0853383
-0.0538892
0.0931707
-0.0322749
0.0995341
-0.022787
0.104245
-0.0119531
0.10734
-0.00300994
0.108888
0.00423337
0.10898
0.0101206
0.1078
0.0147008
0.105526
0.019024
0.102262
0.024027
0.0982777
0.0250242
0.0941098
0.0227337
0.0900652
0.0206624
0.0861635
0.0205183
0.082347
0.020357
0.078591
0.0204365
0.0748275
0.0208901
0.0709339
0.0217662
0.0667648
0.023092
0.062153
0.0248934
0.058027
0.021199
0.0535704
0.0217061
0.0487499
0.022004
0.0435862
0.0219
0.0381703
0.0212472
0.0326544
0.0199976
0.0272264
0.0181839
0.0220941
0.0159619
0.0174387
0.013563
0.0133877
0.0112445
0.00997732
0.00918044
0.00718071
0.00745635
0.00492205
0.00606047
0.00312127
0.00491063
0.00171706
0.00377421
0.000631863
0.00236189
-0.000217642
0.000253958
-0.0006072
-0.00270371
-0.00111669
-0.005954
-0.0176039
-0.00379396
0.0876692
-0.0676759
-0.0755037
0.097422
-0.0636422
0.106324
-0.041177
0.113832
-0.0302951
0.119751
-0.0178719
0.124056
-0.00731503
0.126755
0.00153447
0.127902
0.00897369
0.127605
0.0149981
0.126017
0.0206114
0.123244
0.0268007
0.119465
0.0288032
0.115148
0.0270515
0.110671
0.0251392
0.106221
0.0249687
0.101831
0.0247467
0.0975337
0.0247338
0.0933358
0.0250871
0.0891836
0.0259172
0.0849789
0.0272952
0.0805664
0.0293032
0.0767293
0.0250346
0.0726232
0.0258103
0.0681101
0.026515
0.0630881
0.0269195
0.057531
0.0268017
0.0515062
0.0260197
0.0451718
0.0245156
0.038763
0.0223683
0.0325488
0.0197749
0.0267875
0.0170043
0.0216628
0.014304
0.0172671
0.011852
0.0135945
0.00973346
0.0105775
0.00792953
0.00814597
0.00620796
0.00617004
0.00434122
0.004463
0.00196393
0.00307868
-0.00131575
0.00179138
-0.00466213
-0.0140235
-0.00178191
0.0999477
-0.081517
-0.0861065
0.111208
-0.0749027
0.121405
-0.0513747
0.130147
-0.0390364
0.137306
-0.0250313
0.142858
-0.0128666
0.146791
-0.00239863
0.149135
0.00663025
0.149936
0.0141969
0.149318
0.0212304
0.147369
0.0287498
0.144174
0.0319978
0.140086
0.0311401
0.135485
0.0297405
0.130675
0.0297784
0.125788
0.0296329
0.12091
0.0296112
0.116114
0.0298826
0.111428
0.0306024
0.106845
0.0318774
0.102304
0.0338433
0.0985854
0.0287522
0.0948415
0.0295527
0.0908945
0.0304603
0.0865423
0.03127
0.0816045
0.0317379
0.0759681
0.0316544
0.0696262
0.030856
0.0627001
0.0292929
0.0554271
0.0270468
0.0481236
0.0243069
0.0411152
0.0213123
0.0346774
0.0182901
0.0289762
0.0154363
0.0240577
0.0128499
0.0199236
0.0103453
0.0164413
0.00782641
0.0133537
0.00505485
0.0105177
0.00152284
0.00795539
-0.00209586
-0.00949515
0.00343157
0.113841
-0.0974935
-0.097865
0.126998
-0.0880587
0.138784
-0.063161
0.148926
-0.049178
0.157397
-0.0335023
0.164221
-0.0196907
0.169423
-0.00760009
0.173024
0.00302921
0.175051
0.0121705
0.175601
0.0206804
0.174747
0.0296044
0.172481
0.0342635
0.169024
0.034597
0.164703
0.0340614
0.159876
0.0346062
0.154755
0.0347532
0.14948
0.0348871
0.144168
0.0351941
0.13891
0.0358611
0.133768
0.0370195
0.128777
0.0388333
0.124827
0.0327021
0.12109
0.0332892
0.11745
0.0341009
0.113723
0.034997
0.10968
0.0357811
0.105077
0.0362577
0.0997098
0.0362223
0.0934738
0.0355294
0.0863987
0.0341209
0.0786614
0.0320455
0.0705498
0.029423
0.0624156
0.026427
0.054585
0.0232662
0.0472982
0.0201406
0.0407576
0.0168852
0.0349677
0.0136198
0.0297182
0.0103029
0.0247829
0.00646058
0.0202041
0.00248273
-0.00357248
0.014286
0.129659
-0.116163
-0.110989
0.145174
-0.103574
0.158915
-0.0769012
0.170707
-0.0609702
0.18063
-0.0434249
0.188787
-0.0278476
0.19527
-0.0140823
0.200137
-0.00183726
0.203425
0.00888215
0.205238
0.0188682
0.205644
0.0291991
0.204565
0.0353424
0.202096
0.0370662
0.198478
0.03768
0.194052
0.0390323
0.189072
0.0397337
0.183725
0.0402354
0.178166
0.0407527
0.172528
0.041499
0.166919
0.0426275
0.161433
0.0443208
0.15707
0.0370656
0.153024
0.0373366
0.149263
0.0378635
0.145697
0.0385638
0.142174
0.0393063
0.138472
0.0399592
0.134334
0.0403624
0.129503
0.04036
0.123791
0.0398357
0.117115
0.0387191
0.109536
0.0370058
0.10123
0.0347299
0.0924671
0.0320332
0.083515
0.0290896
0.0747363
0.0256677
0.0663292
0.0220231
0.0582886
0.0183459
0.0505352
0.0142103
0.0430837
0.00993607
0.00456482
0.0349452
0.147786
-0.138194
-0.125755
0.166219
-0.122006
0.182365
-0.0930475
0.196147
-0.074752
0.207746
-0.0550236
0.21736
-0.0374603
0.225162
-0.0218845
0.231292
-0.00796682
0.235821
0.00435431
0.238892
0.015797
0.240601
0.0274909
0.240837
0.0351063
0.239598
0.0383067
0.237035
0.0402433
0.233424
0.0426442
0.229004
0.044154
0.223985
0.045255
0.218552
0.0461856
0.21287
0.0471802
0.207083
0.0484162
0.201319
0.0500856
0.196622
0.0417648
0.192233
0.0417275
0.188167
0.0419304
0.18441
0.0423226
0.180903
0.0428152
0.17753
0.0433337
0.174114
0.0437787
0.170429
0.0440468
0.166225
0.0440387
0.16128
0.0436651
0.155428
0.0428561
0.148602
0.0415577
0.140814
0.0398189
0.132145
0.0377601
0.122831
0.0349795
0.113081
0.0317732
0.10297
0.0284549
0.0926282
0.0245518
0.0821435
0.0204195
0.0155454
0.0711627
0.168707
-0.16439
-0.142511
0.190732
-0.14403
0.209839
-0.112154
0.226047
-0.0909591
0.23964
-0.0686164
0.250915
-0.0487352
0.260145
-0.0311141
0.267562
-0.0153833
0.273302
-0.00138473
0.277575
0.011524
0.28053
0.0245364
0.282071
0.0335655
0.282146
0.0382329
0.280844
0.0415463
0.278361
0.0451279
0.274881
0.0476347
0.270597
0.0495388
0.265701
0.0510817
0.260377
0.052505
0.254792
0.0540024
0.249105
0.0557749
0.244314
0.0465577
0.239773
0.046269
0.23552
0.0461846
0.231568
0.0462745
0.227909
0.0464742
0.224501
0.0467421
0.221262
0.0470169
0.218067
0.0472425
0.214745
0.0473579
0.211103
0.0473085
0.206928
0.0470278
0.202034
0.0464542
0.196247
0.0456018
0.189429
0.0445806
0.181569
0.042836
0.172682
0.0406632
0.162706
0.038428
0.151744
0.035516
0.13988
0.0322824
0.0283711
0.127057
0.193024
-0.19572
-0.161694
0.219456
-0.170462
0.242202
-0.1349
0.261381
-0.110138
0.277389
-0.0846239
0.290627
-0.0619732
0.301474
-0.0419603
0.310263
-0.0241715
0.317224
-0.00834572
0.32264
0.00610783
0.326738
0.020439
0.329477
0.0308269
0.330807
0.0369039
0.330799
0.0415555
0.32959
0.0463369
0.327302
0.049923
0.324085
0.0527565
0.320104
0.0550628
0.315535
0.0570749
0.310553
0.0589854
0.305336
0.060994
0.300742
0.0511509
0.296323
0.050688
0.292131
0.0503757
0.288197
0.050207
0.284531
0.0501401
0.281116
0.0501539
0.277922
0.0502123
0.274881
0.0502786
0.271917
0.0503242
0.268905
0.050314
0.265719
0.0502179
0.262181
0.049985
0.258124
0.0496648
0.253315
0.0493834
0.247629
0.0485283
0.240895
0.047393
0.232915
0.0464144
0.223609
0.0448196
0.212967
0.0429297
0.0404839
0.200856
0.221481
-0.23335
-0.18385
0.253308
-0.202289
0.280519
-0.162111
0.303344
-0.132963
0.322301
-0.10358
0.337905
-0.0775775
0.350651
-0.0547055
0.360981
-0.0345017
0.369235
-0.0165997
0.375779
-0.000435709
0.38093
0.0152884
0.38473
0.0270276
0.387174
0.0344604
0.388356
0.0403738
0.388397
0.0462962
0.387377
0.0509437
0.385401
0.0547322
0.382596
0.0578689
0.379104
0.0605674
0.375082
0.0630076
0.370703
0.0653726
0.36659
0.0552633
0.362559
0.0547175
0.358683
0.0542503
0.355009
0.0538801
0.351559
0.0535876
0.348338
0.0533738
0.345327
0.0532207
0.342495
0.0531098
0.339791
0.0530248
0.337157
0.0529478
0.334511
0.0528612
0.33176
0.0527367
0.328775
0.0526479
0.325393
0.0527672
0.321475
0.0524453
0.316851
0.0520205
0.31127
0.0519959
0.30458
0.0515139
0.296667
0.0508452
0.0499192
0.287235
0.254993
-0.278697
-0.209645
0.293413
-0.24071
0.326095
-0.194792
0.353394
-0.160262
0.375964
-0.12615
0.394453
-0.0960669
0.409483
-0.0697348
0.421618
-0.0466371
0.431316
-0.0262971
0.439045
-0.00816464
0.445213
0.00912003
0.449965
0.0222762
0.45337
0.0310558
0.455576
0.0381685
0.456723
0.0451496
0.456886
0.0507812
0.456149
0.0554688
0.454607
0.0594115
0.452365
0.0628087
0.449548
0.0658245
0.446298
0.0686216
0.4429
0.0586604
0.439483
0.0581338
0.436136
0.0575959
0.432922
0.0570929
0.429879
0.0566281
0.42703
0.0562225
0.424372
0.0558762
0.421895
0.055587
0.419565
0.0553518
0.417351
0.0551635
0.415196
0.0550134
0.413051
0.0548828
0.410833
0.0548636
0.408444
0.055159
0.405796
0.0550918
0.402778
0.0550421
0.399197
0.0555766
0.394926
0.0557885
0.389855
0.0559179
0.0560997
0.383678
0.294649
-0.33347
-0.239875
0.341121
-0.287182
0.380502
-0.234173
0.413291
-0.193052
0.440302
-0.15316
0.462333
-0.118099
0.480153
-0.0875547
0.494465
-0.0609495
0.505858
-0.0376894
0.514914
-0.0172205
0.522141
0.00189307
0.527796
0.0166218
0.532041
0.0268103
0.5351
0.0351103
0.537159
0.0430903
0.538322
0.0496185
0.538681
0.0551097
0.538321
0.0597721
0.537325
0.0638035
0.535789
0.067361
0.533816
0.0705933
0.531283
0.061193
0.528638
0.0607786
0.525979
0.0602536
0.523382
0.0596905
0.520895
0.0591137
0.518556
0.0585616
0.51638
0.0580509
0.514374
0.0575944
0.512521
0.0572017
0.510811
0.0568762
0.509204
0.0566171
0.507678
0.0564119
0.506174
0.056364
0.50464
0.056696
0.503028
0.0567008
0.501285
0.0567887
0.499288
0.0575722
0.496973
0.0581066
0.494274
0.058617
0.0593883
0.490988
0.310178
-0.393518
-0.25013
0.361174
-0.338178
0.404273
-0.277272
0.440076
-0.228855
0.46949
-0.182574
0.493403
-0.142011
0.512664
-0.106816
0.528056
-0.0763421
0.540248
-0.049881
0.549881
-0.0268531
0.557517
-0.00574432
0.563494
0.0106461
0.568048
0.0222554
0.571463
0.0316965
0.573968
0.0405847
0.575705
0.0478815
0.576788
0.0540264
0.57731
0.0592511
0.577346
0.0637665
0.576972
0.0677349
0.576262
0.0713036
0.57473
0.0627243
0.573044
0.0624646
0.571294
0.0620036
0.56955
0.0614347
0.567863
0.0607999
0.566275
0.0601516
0.564804
0.0595193
0.563474
0.0589272
0.562278
0.0583954
0.561221
0.0579359
0.560281
0.0575543
0.559453
0.0572426
0.558703
0.0571112
0.558008
0.0573943
0.557347
0.0573593
0.556705
0.0574343
0.556016
0.0582602
0.555266
0.0588599
0.554429
0.059454
0.0604071
0.553412
0.321983
-0.458069
-0.257432
0.376837
-0.393033
0.423106
-0.32354
0.461479
-0.267229
0.492942
-0.214036
0.518454
-0.167524
0.538936
-0.127298
0.555234
-0.0926406
0.568082
-0.0627292
0.578168
-0.0369397
0.586101
-0.0136779
0.592275
0.00447276
0.596986
0.0175435
0.600557
0.0281254
0.603257
0.0378839
0.605265
0.045874
0.606722
0.0525697
0.607737
0.0582359
0.608396
0.0631069
0.608771
0.06736
0.608925
0.0711502
0.60813
0.0635184
0.60718
0.0634155
0.60615
0.0630332
0.605106
0.0624799
0.604092
0.0618131
0.603149
0.0610972
0.602295
0.0603715
0.601556
0.0596692
0.600931
0.0590178
0.600434
0.0584357
0.600052
0.0579335
0.599791
0.0575064
0.59963
0.0572699
0.599562
0.0574652
0.599579
0.0573404
0.599682
0.0573337
0.599838
0.0581032
0.600055
0.0586454
0.600329
0.0591791
0.0601069
0.600631
0.336215
-0.527536
-0.266749
0.395272
-0.452089
0.445014
-0.373283
0.486221
-0.308435
0.519957
-0.247773
0.547261
-0.194829
0.569126
-0.149163
0.586464
-0.109979
0.600076
-0.0763412
0.610698
-0.0475624
0.618984
-0.0219643
0.625383
-0.00192702
0.630248
0.0126784
0.633932
0.0244414
0.636737
0.0350777
0.638877
0.0437347
0.64052
0.0509263
0.641799
0.0569573
0.642814
0.0620913
0.643645
0.0665292
0.644357
0.0704387
0.644057
0.0638177
0.643621
0.0638521
0.64311
0.0635432
0.642585
0.0630071
0.642082
0.062315
0.64164
0.0615408
0.641276
0.0607335
0.641015
0.0599326
0.640859
0.0591722
0.640823
0.0584747
0.640899
0.0578547
0.641099
0.0573096
0.641408
0.0569588
0.641828
0.0570481
0.642355
0.0568125
0.642995
0.0566963
0.643728
0.0573695
0.644569
0.0578075
0.645519
0.0582288
0.059054
0.646575
0.352704
-0.60235
-0.277889
0.416325
-0.515711
0.46986
-0.426818
0.514171
-0.352747
0.550412
-0.284014
0.579701
-0.224119
0.60311
-0.172572
0.621621
-0.128492
0.636103
-0.0908242
0.647346
-0.0588068
0.656051
-0.0306691
0.662719
-0.00859665
0.667755
0.00764283
0.671545
0.0206501
0.674424
0.0321987
0.676631
0.0415266
0.678366
0.0491926
0.679778
0.0555429
0.680994
0.0608773
0.682098
0.0654229
0.683171
0.0693685
0.68319
0.063796
0.683108
0.0639386
0.682963
0.0636836
0.68282
0.0631553
0.682699
0.0624312
0.682648
0.0615972
0.682669
0.0607067
0.682799
0.0598084
0.683028
0.0589382
0.683383
0.0581252
0.683849
0.0573842
0.684446
0.0567169
0.685158
0.0562432
0.685996
0.0562145
0.68695
0.0558557
0.688033
0.0556171
0.689226
0.0561748
0.690545
0.0564918
0.691987
0.0567852
0.0574866
0.693558
0.371376
-0.682973
-0.290752
0.439954
-0.58429
0.497622
-0.484485
0.545326
-0.400453
0.584313
-0.323001
0.61579
-0.255597
0.640911
-0.197693
0.660735
-0.148317
0.676202
-0.106292
0.68816
-0.0707653
0.697357
-0.0398667
0.704349
-0.0155899
0.709584
0.00240648
0.713491
0.0167426
0.716433
0.029256
0.71868
0.0392791
0.720453
0.0474189
0.721929
0.0540668
0.723244
0.0595608
0.724509
0.0641588
0.725802
0.0680737
0.726013
0.0635859
0.726146
0.0638035
0.726254
0.063577
0.726371
0.0630358
0.726539
0.0622659
0.726775
0.0613586
0.727108
0.0603755
0.727545
0.0593691
0.728104
0.0583814
0.728784
0.057443
0.729598
0.0565729
0.730541
0.0557728
0.73162
0.0551662
0.732828
0.0550054
0.734173
0.0545128
0.73565
0.05414
0.737258
0.0545687
0.738996
0.0547535
0.740871
0.0549123
0.055482
0.742875
0.392225
-0.769904
-0.305294
0.466186
-0.658251
0.528348
-0.54665
0.579754
-0.451859
0.621746
-0.364995
0.655627
-0.289479
0.682638
-0.224705
0.703923
-0.169602
0.720494
-0.122865
0.733264
-0.0835353
0.743032
-0.0496371
0.750411
-0.0229681
0.755888
-0.00307379
0.759934
0.0126973
0.762941
0.0262463
0.765215
0.0370068
0.766994
0.0456362
0.768485
0.0525781
0.769834
0.0582076
0.771176
0.0628207
0.77259
0.0666538
0.772895
0.063286
0.773143
0.0635502
0.7734
0.0633247
0.773686
0.0627449
0.774049
0.0619074
0.774496
0.0609066
0.775064
0.0598128
0.775748
0.0586809
0.776574
0.0575594
0.777534
0.0564799
0.778646
0.0554657
0.779897
0.0545184
0.781303
0.0537646
0.78285
0.0534562
0.784549
0.0528172
0.786389
0.0522979
0.788378
0.0525832
0.790505
0.0526245
0.79278
0.0526403
0.0530698
0.79519
0.41529
-0.863681
-0.321514
0.495091
-0.738055
0.562143
-0.613703
0.617581
-0.5073
0.662855
-0.410269
0.699368
-0.325993
0.728459
-0.253797
0.751357
-0.192502
0.769159
-0.140668
0.782839
-0.0972177
0.793261
-0.0600597
0.801085
-0.0307942
0.806854
-0.00884376
0.811066
0.00848392
0.814154
0.0231579
0.816446
0.0347123
0.818218
0.0438646
0.819684
0.0511091
0.821025
0.0568671
0.822374
0.061469
0.823844
0.065185
0.824163
0.0629632
0.824461
0.0632545
0.824779
0.0630033
0.825166
0.0623602
0.825643
0.0614283
0.826241
0.0603108
0.82697
0.059082
0.82785
0.0578036
0.828882
0.0565263
0.830079
0.0552865
0.831435
0.0541084
0.83296
0.052997
0.834646
0.0520781
0.8365
0.051605
0.838512
0.0508042
0.840688
0.0501253
0.843019
0.0502509
0.84551
0.0501361
0.848151
0.0499973
0.0502758
0.850949
0.440643
-0.964888
-0.339437
0.526785
-0.824199
0.599151
-0.686072
0.65898
-0.567129
0.707831
-0.459123
0.747223
-0.365385
0.778592
-0.285168
0.803267
-0.217178
0.822427
-0.15983
0.837122
-0.111914
0.848277
-0.0712159
0.85661
-0.0391288
0.862714
-0.0149484
0.867124
0.00407252
0.870308
0.0199726
0.872625
0.0323931
0.874377
0.0421125
0.875801
0.0496832
0.877095
0.0555722
0.878411
0.0601508
0.879875
0.0637216
0.880168
0.0626673
0.880454
0.0629692
0.880783
0.062672
0.881204
0.0619405
0.881741
0.0608892
0.882425
0.0596288
0.883264
0.0582404
0.88428
0.0567905
0.88547
0.0553343
0.886849
0.0539113
0.888407
0.0525482
0.890155
0.0512519
0.892083
0.0501488
0.894199
0.0494914
0.896489
0.0485123
0.898958
0.047658
0.901599
0.0476074
0.904414
0.0473218
0.907393
0.0470157
0.0471293
0.910541
0.468389
-1.07416
-0.359118
0.561413
-0.917228
0.639558
-0.764218
0.704162
-0.631738
0.756916
-0.511877
0.799447
-0.407919
0.833313
-0.319033
0.859935
-0.243803
0.880594
-0.180488
0.896411
-0.127734
0.908385
-0.0831891
0.917289
-0.048037
0.923775
-0.0214323
0.928411
-0.000569042
0.931714
0.0166724
0.934061
0.0300404
0.935793
0.0403841
0.937157
0.0483124
0.938386
0.0543471
0.939633
0.0588975
0.941053
0.0623059
0.941278
0.0624364
0.941515
0.0627366
0.941806
0.0623751
0.942215
0.0615346
0.94276
0.0603395
0.94348
0.0589118
0.944378
0.0573379
0.94548
0.055692
0.946779
0.0540318
0.948291
0.0524021
0.950004
0.0508308
0.951931
0.0493283
0.954056
0.0480198
0.956392
0.0471576
0.958918
0.045982
0.961643
0.044936
0.964554
0.0446912
0.967659
0.0442199
0.970937
0.0437328
0.0436677
0.974402
0.498652
-1.19219
-0.380626
0.599155
-1.01773
0.683579
-0.848647
0.753384
-0.701545
0.810387
-0.568884
0.856349
-0.453882
0.892942
-0.355628
0.921704
-0.272566
0.944007
-0.202794
0.961066
-0.144794
0.973947
-0.0960724
0.983496
-0.0575865
0.990408
-0.0283468
0.995312
-0.00547326
0.998746
0.0132347
1.00114
0.0276456
1.00284
0.0386776
1.00415
0.0470073
1.00529
0.0532074
1.00645
0.0577357
1.00778
0.0609688
1.00792
0.0623064
1.00806
0.0625932
1.00828
0.0621537
1.00863
0.0611845
1.00914
0.0598253
1.00985
0.0582063
1.01076
0.0564237
1.0119
0.0545564
1.01326
0.0526687
1.01486
0.0508075
1.01669
0.0490053
1.01874
0.0472734
1.02102
0.0457383
1.02353
0.044649
1.02626
0.0432582
1.02919
0.0420018
1.03234
0.0415442
1.03569
0.0408699
1.03923
0.0401872
0.0399272
1.04297
0.531586
-1.31972
-0.40405
0.640211
-1.12636
0.731468
-0.939906
0.806933
-0.777016
0.868571
-0.630523
0.918276
-0.50359
0.957854
-0.395206
0.988958
-0.303673
1.01307
-0.226909
1.0315
-0.163225
1.04539
-0.109964
1.05566
-0.0678546
1.06305
-0.0357454
1.06826
-0.0106791
1.07185
0.00963777
1.0743
0.025196
1.07599
0.0369934
1.07722
0.0457743
1.07825
0.0521707
1.0793
0.0566874
1.08053
0.0597425
1.08052
0.06231
1.08054
0.0625764
1.08065
0.0620457
1.0809
0.060932
1.08134
0.0593887
1.08198
0.0575574
1.08287
0.0555426
1.08399
0.0534307
1.08537
0.0512909
1.08701
0.0491747
1.0889
0.0471174
1.09103
0.0451334
1.09343
0.0433487
1.09606
0.04201
1.09894
0.0403832
1.10204
0.0388974
1.10538
0.0382068
1.10894
0.037312
1.11271
0.0364174
0.0359466
1.11669
0.567361
-1.4576
-0.429493
0.684818
-1.24382
0.783506
-1.0386
0.865141
-0.858652
0.93183
-0.697218
0.985627
-0.557387
1.02847
-0.438051
1.06214
-0.337348
1.08825
-0.253016
1.10819
-0.183165
1.12319
-0.124976
1.13426
-0.0789225
1.1422
-0.0436904
1.14775
-0.0162264
1.15153
0.00585452
1.15405
0.0226806
1.15571
0.0353291
1.15686
0.0446233
1.15778
0.051253
1.15869
0.0557792
1.15977
0.0586586
1.1596
0.0624826
1.15945
0.0627234
1.1594
0.0620925
1.15951
0.0608192
1.15983
0.0590748
1.16037
0.0570102
1.16118
0.0547419
1.16224
0.0523616
1.16359
0.0499464
1.16521
0.0475507
1.16712
0.0452149
1.16929
0.0429549
1.17175
0.040898
1.17447
0.0392866
1.17745
0.0374032
1.18068
0.0356677
1.18416
0.0347238
1.18788
0.0335897
1.19183
0.0324665
0.0317683
1.19601
0.606173
-1.6067
-0.457072
0.733235
-1.37089
0.840016
-1.14539
0.92837
-0.94701
1.00058
-0.769427
1.05884
-0.615653
1.10526
-0.484469
1.14175
-0.373844
1.17004
-0.28131
1.19165
-0.204773
1.2079
-0.141226
1.21986
-0.0908836
1.22841
-0.0522456
1.23434
-0.0221621
1.23834
0.00185938
1.24093
0.0200851
1.24258
0.0336865
1.24363
0.0435638
1.24441
0.0504763
1.24515
0.0550382
1.24605
0.057755
1.24568
0.0628594
1.24533
0.0630757
1.24508
0.0623363
1.24501
0.0608923
1.24515
0.0589297
1.24555
0.0566138
1.24622
0.0540701
1.24718
0.0514
1.24844
0.0486855
1.25001
0.0459874
1.25187
0.043349
1.25404
0.0407906
1.25649
0.0384381
1.25925
0.0365315
1.26228
0.0343697
1.26558
0.032365
1.26915
0.031146
1.27299
0.0297539
1.27707
0.0283838
0.0274417
1.2814
0.648238
-1.76802
-0.486919
0.785752
-1.5084
0.901349
-1.26099
0.997031
-1.0427
1.07526
-0.847658
1.13841
-0.678806
1.18874
-0.534803
1.22833
-0.413433
1.25903
-0.312012
1.28247
-0.22822
1.3001
-0.158849
1.31305
-0.103836
1.32228
-0.0614842
1.32865
-0.0285332
1.33289
-0.00237809
1.33557
0.0173981
1.3372
0.0320657
1.33815
0.0426103
1.33876
0.0498633
1.3393
0.0544987
1.33998
0.057072
1.33936
0.0634803
1.33876
0.0636757
1.33827
0.0628245
1.33797
0.0611997
1.33789
0.0590052
1.33808
0.0564204
1.33857
0.0535818
1.33937
0.0506003
1.34049
0.0475645
1.34193
0.044541
1.3437
0.0415773
1.3458
0.0386975
1.3482
0.036027
1.35093
0.0338022
1.35396
0.0313413
1.35728
0.0290467
1.36088
0.0275319
1.36478
0.0258623
1.36893
0.0242277
0.0230238
1.37335
0.693796
-1.94264
-0.519178
0.842693
-1.6573
0.967897
-1.3862
1.07158
-1.14638
1.15638
-0.932471
1.22488
-0.747306
1.2795
-0.58943
1.32249
-0.45642
1.35584
-0.345366
1.38131
-0.253695
1.40045
-0.177992
1.41451
-0.11789
1.42451
-0.0714849
1.43136
-0.0353918
1.43587
-0.00688838
1.43866
0.0146078
1.44026
0.0304706
1.44108
0.0417802
1.44151
0.0494434
1.4418
0.0542005
1.44222
0.0566589
1.4413
0.0643903
1.44041
0.0645726
1.43962
0.0636096
1.43903
0.0617972
1.43867
0.0593592
1.4386
0.0564899
1.43884
0.0533386
1.43942
0.0500256
1.44033
0.0466474
1.4416
0.0432766
1.44321
0.0399654
1.44516
0.0367418
1.44746
0.0337313
1.45009
0.0311656
1.45305
0.0283847
1.45632
0.0257801
1.45989
0.0239487
1.46378
0.0219826
1.46793
0.0200659
0.0185827
1.47238
0.74311
-2.13174
-0.554008
0.90441
-1.81861
1.0401
-1.52188
1.15251
-1.2588
1.24451
-1.02447
1.31886
-0.821665
1.37819
-0.648763
1.42491
-0.503144
1.46118
-0.381638
1.48889
-0.281412
1.50972
-0.198816
1.52499
-0.133168
1.53584
-0.0823327
1.54324
-0.042797
1.54806
-0.0117027
1.55096
0.0117011
1.55253
0.0289083
1.5532
0.0410935
1.5534
0.049252
1.55341
0.0541888
1.5535
0.0565735
1.55224
0.0656397
1.551
0.065823
1.54985
0.0647509
1.5489
0.062748
1.5482
0.0600566
1.5478
0.0568901
1.54773
0.053409
1.54801
0.0497462
1.54865
0.0460052
1.54966
0.0422663
1.55103
0.0385859
1.55278
0.0349974
1.55488
0.0316251
1.55735
0.0286969
1.56016
0.0255756
1.5633
0.0226418
1.56677
0.0204731
1.57056
0.0181921
1.57465
0.0159761
0.0141963
1.57904
0.796469
-2.33663
-0.591581
0.971298
-1.99343
1.11842
-1.66901
1.24037
-1.38076
1.34024
-1.12435
1.42101
-0.902436
1.4855
-0.713266
1.53633
-0.553974
1.57582
-0.421129
1.60601
-0.311604
1.6287
-0.221505
1.64533
-0.149804
1.65712
-0.094127
1.66514
-0.0508097
1.67029
-0.0168589
1.67332
0.00866836
1.67484
0.0273853
1.67536
0.0405784
1.67528
0.049329
1.67495
0.0545208
1.67464
0.0568821
1.67299
0.0672895
1.67132
0.0674908
1.66976
0.0663195
1.66837
0.0641253
1.66726
0.0611758
1.66644
0.0577005
1.66598
0.0538764
1.66588
0.0498464
1.66616
0.0457246
1.66682
0.0415974
1.66788
0.037528
1.66932
0.0335536
1.67115
0.0297993
1.67336
0.0264869
1.67593
0.0230059
1.67885
0.0197236
1.68212
0.017198
1.68573
0.0145835
1.68966
0.0120516
0.0099581
1.69389
0.854191
-2.55874
-0.632082
1.04378
-2.18303
1.2034
-1.82863
1.33579
-1.51315
1.44427
-1.23284
1.53207
-0.990243
1.60224
-0.783441
1.65759
-0.609326
1.70063
-0.464167
1.73355
-0.344534
1.75831
-0.246258
1.77645
-0.167952
1.7893
-0.106973
1.79799
-0.0595029
1.80352
-0.0223938
1.80669
0.00549572
1.80816
0.025915
1.80848
0.0402648
1.80808
0.0497252
1.80734
0.0552601
1.80655
0.0576658
1.80444
0.0694076
1.80227
0.069652
1.8002
0.068394
1.79831
0.0660137
1.79668
0.0628032
1.79537
0.0590119
1.79441
0.0548327
1.79383
0.0504213
1.79365
0.0459018
1.79388
0.0413686
1.79452
0.0368912
1.79555
0.032512
1.797
0.0283561
1.79884
0.0246397
1.80107
0.0207805
1.80366
0.017132
1.80663
0.0142301
1.80994
0.0112648
1.8136
0.00840059
0.00597709
1.81757
0.916619
-2.79965
-0.675711
1.12235
-2.38876
1.29563
-2.00191
1.43943
-1.65696
1.55735
-1.35077
1.65287
-1.08576
1.72927
-0.859856
1.7896
-0.669652
1.83655
-0.511124
1.87251
-0.380489
1.89955
-0.273304
1.91938
-0.187777
1.93339
-0.120994
1.94285
-0.0689525
1.9488
-0.0283519
1.95213
0.00217377
1.95352
0.0245114
1.9536
0.0401936
1.95282
0.0504998
1.9516
0.0564871
1.95024
0.0590196
1.94758
0.0720774
1.94483
0.0723957
1.94215
0.071071
1.93965
0.0685132
1.93741
0.0650442
1.93548
0.0609324
1.93392
0.0563899
1.93275
0.0515851
1.932
0.0466539
1.93167
0.0416986
1.93177
0.0367965
1.93228
0.031995
1.93322
0.0274196
1.93457
0.0232804
1.93633
0.0190258
1.93846
0.0149941
1.941
0.011698
1.94389
0.00836548
1.94714
0.00515377
0.00238495
1.95073
0.984133
-3.0611
-0.722681
1.2075
-2.61213
1.39573
-2.19015
1.55205
-1.81327
1.68032
-1.47905
1.78431
-1.18976
1.86758
-0.943127
1.93339
-0.735464
1.98467
-0.562401
2.02397
-0.419797
2.05356
-0.30289
2.07525
-0.209472
2.09058
-0.13632
2.10087
-0.0792494
2.1073
-0.034778
2.11079
-0.0013121
2.11211
0.0231955
2.11189
0.0404092
2.11067
0.0517256
2.10886
0.0582933
2.10682
0.0610586
2.1035
0.075394
2.10008
0.0758273
2.09668
0.0744608
2.09345
0.0717421