/*--------------------------------*- C++ -*----------------------------------*\
| =========                 |                                                 |
| \\      /  F ield         | OpenFOAM: The Open Source CFD Toolbox           |
|  \\    /   O peration     | Version:  5.x                                   |
|   \\  /    A nd           | Web:      www.OpenFOAM.org                      |
|    \\/     M anipulation  |                                                 |
\*---------------------------------------------------------------------------*/
FoamFile
{
    version     2.0;
    format      ascii;
    class       surfaceScalarField;
    location    "50";
    object      phi;
}
// * * * * * * * * * * * * * * * * * * * * * * * * * * * * * * * * * * * * * //

dimensions      [0 3 -1 0 0 0 0];

internalField   nonuniform List<scalar> 
83317
(
0.000325017
0.00819879
-0.000213778
0.000371098
-3.9494e-05
0.000386391
-1.62967e-05
0.000394669
-1.13716e-05
0.000401919
-1.03186e-05
0.000407017
-7.49414e-06
0.00041062
-5.92012e-06
0.000411761
-3.30994e-06
0.000410144
-8.2204e-07
0.000405699
3.49283e-06
0.000399801
1.57066e-05
0.000391516
-4.75728e-07
0.000382258
-2.37429e-05
0.000371425
3.80476e-05
0.000362654
-0.000161931
0.000357191
0.000166336
0.000353015
-0.000136688
0.000350341
0.000138111
0.000348688
0.000120676
0.000346519
-8.53124e-05
0.000344739
-3.25646e-06
0.000343101
3.49378e-06
0.000341675
-1.52896e-07
0.00033925
3.38817e-06
0.000337852
-9.25325e-07
0.000336588
-7.23555e-06
0.000335576
9.87748e-06
0.000334712
2.11197e-05
0.000333867
5.87422e-06
0.000331575
1.56784e-05
0.000330595
-4.48109e-06
0.000329112
0.000173819
0.000327234
-4.2417e-05
0.000328545
0.000728486
0.000326813
-0.000709023
0.000329508
0.000651691
0.000331487
-0.000767779
0.000331829
-0.000433766
0.000333994
0.000418307
0.00033327
-0.00073337
0.000336506
0.000676683
0.00033436
-0.000735609
0.000335406
0.000878795
0.0003374
4.19516e-06
0.000336593
8.67935e-05
0.000339175
0.000658281
0.000337376
-0.00060526
0.000338977
0.000595246
0.000339741
-0.000562106
0.000340208
7.92791e-05
0.000342601
-0.000157296
0.000343208
-0.000619663
0.000347865
0.000746969
0.000348264
-0.000877226
0.000351412
0.000885309
0.000354527
-0.000217638
0.000355799
0.00023606
0.000358035
0.000365314
0.000355942
-0.000328923
0.000357851
0.000997786
0.000360822
-0.000945937
0.00036628
0.00083958
0.000368313
-0.000780949
0.000370928
0.000291642
0.000371967
-0.000270589
0.000373775
-0.000408352
0.000380191
0.000405958
0.000380839
-0.000776978
0.000382829
0.000850198
0.000384013
-0.000723436
0.000387755
0.000664155
0.000388751
-0.00057858
0.000390695
0.000596416
0.000394438
0.000205396
0.000394736
-2.07167e-05
0.000395427
0.000475758
0.00039855
-0.000608279
0.000402245
0.00083054
0.000400099
-0.000805886
0.000405887
0.000576252
0.000250328
-0.00035479
-0.000291706
0.000574715
0.000536165
0.00834381
-0.000340835
0.000514642
-1.68636e-06
0.000504005
-7.68557e-06
0.000512228
-1.72198e-05
0.000523362
-1.93848e-05
0.000534441
-1.51743e-05
0.000546142
-1.44051e-05
0.000556731
-1.08106e-05
0.000565509
-6.72921e-06
0.000572235
2.07862e-07
0.000577358
1.59199e-05
0.000580192
-5.57593e-06
0.000581419
-4.06848e-05
0.000580921
5.40221e-05
0.000580837
-0.000247022
0.00058122
0.000256561
0.000581915
-0.000209016
0.000583113
0.00021217
0.000584487
0.000187301
0.000584701
-9.98262e-05
0.000586254
-2.91219e-05
0.00058736
-4.99323e-06
0.000587559
-2.36698e-05
0.000587878
-2.58904e-05
0.000587858
-1.20212e-05
0.000587236
-3.41183e-05
0.000587473
3.19361e-05
0.000586837
5.91685e-05
0.000585851
1.97616e-05
0.000585624
4.30147e-05
0.000587073
-1.45792e-05
0.000585576
0.000264871
0.000584055
-2.30856e-05
0.000584573
0.0010178
0.000582571
-0.00106383
0.000584882
0.000869166
0.000584648
-0.0012463
0.000584136
-0.000633398
0.000585678
0.000517422
0.000585385
-0.00105161
0.000587424
0.000996183
0.000589113
-0.00103341
0.000593665
0.00136481
0.00059415
4.60387e-05
0.000594462
0.000207356
0.000597302
0.000949064
0.000597612
-0.000856081
0.000601053
0.000825133
0.000602679
-0.000849969
0.000604938
6.62402e-05
0.000606825
-0.000296065
0.000609117
-0.00086617
0.000613212
0.00113511
0.00061274
-0.00128847
0.000615313
0.00133757
0.000616681
-0.000312842
0.000619964
0.000417149
0.000622643
0.000508795
0.000623817
-0.000425135
0.000628686
0.00136506
0.000630364
-0.00137817
0.00063458
0.00106392
0.000636466
-0.00121063
0.000639531
0.000362204
0.000642647
-0.000531561
0.000644954
-0.000637519
0.000648055
0.000545403
0.000651168
-0.00113589
0.000656568
0.00122201
0.000658504
-0.000989679
0.000660837
0.000961818
0.000662593
-0.000862503
0.000667
0.000952468
0.000670381
0.000341011
0.000673124
6.46464e-05
0.000675728
0.000580199
0.000676885
-0.000831182
0.000679788
0.00110729
0.000679607
-0.00120844
0.000685279
0.000702471
0.000501691
-0.000461506
-0.000923819
0.00078934
0.000723446
0.00778144
-0.000446777
0.000662881
5.40733e-05
0.00063124
2.40926e-05
0.000640227
-2.89663e-05
0.000655085
-3.65843e-05
0.000671363
-3.39854e-05
0.000689695
-3.51152e-05
0.000707605
-3.07869e-05
0.000724066
-2.52991e-05
0.000738709
-1.66862e-05
0.000751596
6.06823e-06
0.000762099
-1.95125e-05
0.00077067
-6.05694e-05
0.000776951
5.64539e-05
0.000782295
-0.000310618
0.000786087
0.000304594
0.000789354
-0.000261075
0.000792942
0.000251274
0.000795891
0.000222366
0.000797127
-0.000143959
0.00080052
-2.57298e-05
0.000802865
-5.96711e-07
0.000803977
-1.24975e-05
0.000805302
-1.02829e-05
0.000805943
-5.83864e-06
0.000806338
-2.67907e-05
0.000806772
2.69862e-05
0.000806567
5.22181e-05
0.000806529
1.65156e-05
0.000806289
3.7303e-05
0.000807961
-1.66281e-05
0.00080678
0.000324728
0.000806083
-5.24209e-05
0.000806299
0.00129662
0.000804059
-0.00130116
0.000806537
0.00113372
0.000805503
-0.00147084
0.00080558
-0.000792545
0.000807012
0.000716541
0.000806919
-0.00133183
0.000808868
0.00123778
0.000813729
-0.00132736
0.000821724
0.00163961
0.00082255
2.98483e-05
0.000823762
0.000204721
0.000826658
0.00119854
0.000827216
-0.00109954
0.00083119
0.00105779
0.000832897
-0.00105032
0.000835788
0.00011054
0.000837891
-0.000329498
0.000841299
-0.00111012
0.000846023
0.00138907
0.000846407
-0.00161393
0.000850158
0.00164569
0.000852014
-0.000398892
0.000855334
0.0004695
0.000858339
0.000654189
0.000861132
-0.000583249
0.000866043
0.00176859
0.000867825
-0.00173358
0.000872371
0.00145729
0.000874798
-0.00148761
0.000879672
0.000498361
0.000883782
-0.000582078
0.000887226
-0.000770879
0.000891202
0.000719073
0.000894418
-0.00144173
0.0009002
0.00154883
0.000902873
-0.00130361
0.000906478
0.00120994
0.000909613
-0.00108583
0.000914519
0.00113864
0.000917864
0.000406735
0.000921744
1.5048e-05
0.000925342
0.000802621
0.000927841
-0.00110007
0.000930904
0.00148307
0.000930667
-0.00150614
0.000937087
0.000986943
0.000776379
-0.00047394
-0.0010475
0.00106969
0.000945097
0.00768029
-0.000575053
0.00084283
0.000169963
0.000784227
8.0959e-05
0.000793796
-3.51364e-05
0.000812869
-5.28703e-05
0.000835013
-5.21722e-05
0.000860561
-5.71229e-05
0.000886277
-5.30703e-05
0.000910753
-4.67181e-05
0.000933395
-3.5938e-05
0.000954155
-1.21558e-05
0.000972151
-3.77655e-05
0.000988072
-8.38879e-05
0.00100089
5.18901e-05
0.00101201
-0.000361331
0.00102001
0.000344519
0.00102586
-0.000302519
0.00103186
0.000285287
0.00103624
0.000256133
0.00103869
-0.000144205
0.00104336
-4.94868e-05
0.00104679
-1.07649e-05
0.00104886
-3.43114e-05
0.0010509
-3.66309e-05
0.00105232
-1.78274e-05
0.00105345
-4.99454e-05
0.00105459
4.25095e-05
0.00105502
8.1744e-05
0.00105561
2.57602e-05
0.00105576
5.78253e-05
0.00105802
-2.61837e-05
0.00105752
0.000375369
0.00105781
-2.97822e-05
0.00105816
0.00142042
0.00105624
-0.00148281
0.00105934
0.00120423
0.00105825
-0.00175164
0.00105957
-0.000898
0.00106145
0.000736521
0.00106189
-0.00148467
0.00106453
0.00139935
0.00107097
-0.00145969
0.00108068
0.00189827
0.00108228
6.58172e-05
0.0010846
0.00029267
0.00108784
0.00133762
0.00108899
-0.00121411
0.00109364
0.00115478
0.00109583
-0.00120381
0.0010996
8.10328e-05
0.00110234
-0.000424453
0.00110697
-0.00121838
0.00111249
0.00159805
0.00111398
-0.00181979
0.00111902
0.00188467
0.0011218
-0.000442787
0.00112617
0.000582401
0.00112998
0.000721941
0.00113385
-0.000618658
0.00113935
0.00192632
0.00114229
-0.00195957
0.00114815
0.00152143
0.00115157
-0.00174813
0.00115762
0.000505535
0.00116239
-0.000764905
0.00116711
-0.000907881
0.00117234
0.000768911
0.00117668
-0.00162997
0.00118342
0.00174307
0.00118706
-0.00142482
0.0011919
0.00136228
0.00119611
-0.00123663
0.00120229
0.00134951
0.00120663
0.000500884
0.00121149
9.79573e-05
0.00121578
0.000816682
0.00121949
-0.00121589
0.00122341
0.00159369
0.00122334
-0.00174
0.00123095
0.00100586
0.00110231
-0.000525427
-0.00180592
0.00140804
0.00120614
0.00686233
-0.000732232
0.00105655
0.000313311
0.000966882
0.000171119
0.000976495
-4.79295e-05
0.00100005
-7.89744e-05
0.00102848
-8.34088e-05
0.00106152
-9.27348e-05
0.00109529
-8.90778e-05
0.001128
-8.16512e-05
0.00115876
-6.92475e-05
0.00118755
-3.94388e-05
0.00121317
-6.50081e-05
0.00123658
-0.000112329
0.0012562
3.57042e-05
0.00127415
-0.00040621
0.0012882
0.000351826
0.00129849
-0.000337447
0.00130833
0.00029488
0.00131537
0.000266572
0.00132018
-0.000180958
0.00132694
-4.74706e-05
0.00133222
-9.31155e-06
0.00133596
-2.37355e-05
0.00133939
-2.11975e-05
0.00134214
-1.30928e-05
0.00134443
-4.18631e-05
0.00134679
3.37145e-05
0.00134825
7.14902e-05
0.00134976
2.04002e-05
0.00135076
4.91497e-05
0.00135401
-2.92017e-05
0.00135461
0.000410801
0.00135609
-5.39768e-05
0.00135694
0.00159792
0.0013557
-0.00161371
0.00135967
0.0013815
0.00135896
-0.00185272
0.00136165
-0.000998264
0.00136435
0.000884629
0.00136572
-0.00167098
0.00136939
0.0015393
0.00137727
-0.00165634
0.00138853
0.00203059
0.00139124
3.86171e-05
0.00139487
0.000265683
0.0013988
0.00149108
0.00140084
-0.00137266
0.00140647
0.00130576
0.00140949
-0.00131924
0.00141439
0.000114995
0.00141811
-0.000433883
0.00142412
-0.00137683
0.00143073
0.00173999
0.00143346
-0.00202328
0.00143993
0.00205518
0.00144389
-0.00050229
0.00144961
0.000586669
0.00145459
0.000816309
0.00145975
-0.00073812
0.00146642
0.00220101
0.00147074
-0.00218345
0.00147815
0.00182194
0.00148284
-0.00190262
0.00149024
0.000610869
0.00149608
-0.000760408
0.00150225
-0.000982778
0.0015089
0.000891033
0.00151469
-0.00183156
0.00152285
0.00195292
0.00152772
-0.00165436
0.00153396
0.00149946
0.00153945
-0.00138919
0.0015472
0.00143514
0.0015529
0.0005309
0.00155897
3.68537e-05
0.00156429
0.000976571
0.00156918
-0.00141826
0.00157417
0.00186894
0.00157436
-0.00192191
0.00158317
0.00123226
0.00148057
-0.000499629
-0.00177249
0.00180167
0.00151498
0.00653547
-0.00092716
0.00131056
0.000531063
0.00118403
0.000296322
0.00119325
-5.32078e-05
0.00122192
-0.000104692
0.0012575
-0.000114929
0.00129901
-0.000130787
0.00134193
-0.000128596
0.00138395
-0.000120805
0.00142391
-0.000105696
0.00146179
-7.61473e-05
0.00149605
-9.8785e-05
0.00152788
-0.000148182
0.00155517
1.35455e-05
0.00158091
-0.000453491
0.00160233
0.000360379
0.00161903
-0.000374881
0.00163442
0.000306456
0.00164558
0.000284098
0.00165404
-0.000179106
0.00166392
-7.55692e-05
0.00167199
-2.61553e-05
0.00167821
-5.18802e-05
0.00168379
-5.37535e-05
0.00168854
-3.21773e-05
0.00169258
-6.87297e-05
0.0016967
4.57464e-05
0.00169969
0.000102723
0.0017026
2.78077e-05
0.00170491
6.91278e-05
0.00170956
-4.18515e-05
0.00171165
0.000450249
0.00171461
-2.73959e-05
0.00171643
0.00166142
0.00171623
-0.00174392
0.00172145
0.00138715
0.00172154
-0.00208338
0.00172572
-0.00107852
0.00172968
0.000867463
0.00173231
-0.00176733
0.00173741
0.00164386
0.00174686
-0.00171922
0.0017599
0.00221917
0.00176406
7.81547e-05
0.00176922
0.000350785
0.00177429
0.0015799
0.00177748
-0.00144086
0.00178447
0.00135348
0.00178865
-0.00143301
0.00179496
6.96158e-05
0.00180001
-0.000524063
0.00180765
-0.00143274
0.0018158
0.00189428
0.00181992
-0.00215897
0.00182813
0.00222328
0.00183355
-0.000525632
0.00184087
0.000679787
0.00184738
0.000856141
0.00185409
-0.000750003
0.00186245
0.00227806
0.00186832
-0.00234446
0.0018776
0.00180641
0.00188385
-0.00211471
0.00189298
0.000580096
0.00190036
-0.000930415
0.00190818
-0.00109753
0.00191662
0.000900163
0.00192407
-0.00195997
0.00193411
0.00207922
0.0019405
-0.00171871
0.00194842
0.00159259
0.00195545
-0.0014874
0.00196507
0.00159722
0.00197241
0.000619272
0.00197997
0.000136356
0.00198669
0.000940302
0.00199283
-0.00150061
0.00199911
0.00190562
0.00199946
-0.00209801
0.00200953
0.00119398
0.00191976
-0.000551673
-0.00262201
0.00225981
0.00188543
0.00549041
-0.00117225
0.00161612
0.00079166
0.00144351
0.000469845
0.00145177
-6.48926e-05
0.00148658
-0.00014214
0.00153062
-0.000161427
0.00158216
-0.000184481
0.00163581
-0.000184358
0.00168876
-0.000175865
0.00173947
-0.000158871
0.00178794
-0.000123767
0.00183225
-0.00014406
0.00187382
-0.00019221
0.00191
-2.15285e-05
0.00194461
-0.000501855
0.00197446
0.000338253
0.00199921
-0.000412517
0.00202196
0.000291827
0.0020389
0.000274977
0.0020525
-0.000219099
0.00206674
-8.00224e-05
0.00207869
-2.61699e-05
0.00208836
-3.99992e-05
0.002097
-3.52286e-05
0.00210455
-2.48132e-05
0.00211109
-6.12712e-05
0.00211761
3.05212e-05
0.00212278
7.86142e-05
0.0021277
1.73312e-05
0.0021319
5.04612e-05
0.00213844
-4.77711e-05
0.00214248
0.0004732
0.00214733
-4.98614e-05
0.0021507
0.00178632
0.00215193
-0.0018249
0.00215892
0.0015147
0.00216025
-0.00212888
0.00216617
-0.00115251
0.0021719
0.000987265
0.00217615
-0.00190717
0.00218319
0.0017274
0.00219444
-0.00185967
0.00220965
0.00227905
0.00221569
4.60167e-05
0.00222266
0.000312644
0.00222942
0.00168572
0.002234
-0.00155969
0.00224285
0.00146151
0.00224852
-0.00150862
0.00225659
9.44763e-05
0.0022634
-0.000524943
0.00227302
-0.00154619
0.00228329
0.0019799
0.00228898
-0.00230125
0.00229935
0.00232388
0.0023066
-0.000571723
0.00231585
0.000658335
0.00232431
0.000923016
0.00233285
-0.00085301
0.00234345
0.00248362
0.00235111
-0.00250333
0.00236271
0.00205291
0.00237081
-0.00220908
0.00238215
0.000664
0.00239154
-0.000900838
0.00240133
-0.00114492
0.00241202
0.000989182
0.0024214
-0.00210465
0.00243385
0.00222444
0.00244205
-0.00190483
0.00245201
0.00166523
0.00246093
-0.00160049
0.00247278
0.00162821
0.00248212
0.000635812
0.0024914
7.65048e-05
0.00249987
0.00105917
0.00250738
-0.00167415
0.00251518
0.00212513
0.00251548
-0.00221601
0.0025269
0.00138439
0.00243676
-0.000483936
-0.00256315
0.00279691
0.0023341
0.00490466
-0.00148327
0.00198698
0.00115264
0.00175543
0.000700474
0.00176154
-6.69242e-05
0.00180373
-0.000181433
0.00185788
-0.000211598
0.00192136
-0.000244664
0.00198776
-0.000247498
0.00205363
-0.000239138
0.00211706
-0.000218443
0.00217799
-0.000184308
0.00223414
-0.000199522
0.00228714
-0.000247937
0.00233373
-6.43505e-05
0.00237863
-0.00056054
0.00241815
0.000320765
0.00245232
-0.000459928
0.0024841
0.000280336
0.0025087
0.00027531
0.00252915
-0.000223493
0.00254919
-0.000117361
0.00256631
-5.51321e-05
0.0025806
-7.94288e-05
0.00259337
-7.89232e-05
0.00260469
-5.60176e-05
0.00261462
-9.51823e-05
0.00262438
3.60602e-05
0.00263253
0.00011146
0.00264022
2.07819e-05
0.002647
6.87738e-05
0.00265609
-6.5713e-05
0.00266266
0.000506877
0.00266992
-2.1055e-05
0.00267551
0.0018115
0.00267867
-0.00193327
0.00268808
0.00146999
0.00269117
-0.00234804
0.00269917
-0.00122581
0.00270731
0.000942265
0.00271361
-0.0019715
0.00272324
0.00179651
0.00273661
-0.00187415
0.00275447
0.00243268
0.00276289
9.35066e-05
0.00277209
0.000403426
0.00278119
0.00174771
0.00278747
-0.00160401
0.00279876
0.00147733
0.00280634
-0.00160709
0.0028166
3.08415e-05
0.00282564
-0.000620896
0.00283768
-0.00156932
0.00285077
0.00210814
0.00285829
-0.00239715
0.00287137
0.00245584
0.0028809
-0.000580288
0.00289254
0.000743768
0.00290345
0.000947232
0.00291414
-0.00085284
0.00292762
0.00250825
0.0029374
-0.00263547
0.00295189
0.00197453
0.0029622
-0.00241006
0.0029763
0.000596895
0.00298822
-0.00107734
0.00300034
-0.00125599
0.00301386
0.000964465
0.00302552
-0.00219848
0.00304102
0.00231104
0.00305139
-0.00193515
0.00306381
0.00172332
0.00307499
-0.00166118
0.00308952
0.00176541
0.00310128
0.000731544
0.0031125
0.000202978
0.00312309
0.000979724
0.00313207
-0.00174572
0.00314166
0.00211122
0.00314152
-0.00236256
0.00315441
0.00130014
0.00305285
-0.000508978
-0.00346573
0.00343475
0.00288051
0.0035687
-0.00187883
0.00243978
0.00158438
0.00213192
0.00100996
0.00213366
-7.22915e-05
0.00218459
-0.000235194
0.00225087
-0.000280208
0.00232862
-0.000324389
0.00241022
-0.000331232
0.00249146
-0.000322551
0.00257
-0.000299441
0.00264572
-0.000259372
0.00271587
-0.000269648
0.00278237
-0.000315013
0.00284125
-0.000123204
0.00289823
-0.00062376
0.00294897
0.000269812
0.00299401
-0.000510944
0.00303636
0.000238266
0.00307055
0.000240985
0.00309979
-0.000277329
0.00312735
-0.00013367
0.00315112
-6.4847e-05
0.0031714
-7.38437e-05
0.00318955
-6.48654e-05
0.0032058
-5.39373e-05
0.00322019
-9.20396e-05
0.00323421
1.10316e-05
0.00324633
7.60324e-05
0.00325772
3.79837e-06
0.00326796
4.02634e-05
0.00328037
-7.68974e-05
0.00329023
0.00051473
0.00330058
-4.68331e-05
0.00330919
0.00189727
0.00331487
-0.00197361
0.00332744
0.00157037
0.0033329
-0.0023362
0.00334348
-0.0012789
0.00335477
0.00104515
0.00336367
-0.00209118
0.00337667
0.00183521
0.00339263
-0.00200212
0.00341372
0.00242163
0.00342516
3.90639e-05
0.00343715
0.000339057
0.00344935
0.00181252
0.00345775
-0.00169616
0.00347214
0.00155399
0.00348211
-0.00165059
0.00349506
5.11594e-05
0.00350695
-0.000612448
0.00352194
-0.0016591
0.00353866
0.00213915
0.00354839
-0.00250307
0.00356485
0.00248935
0.00357723
-0.000628456
0.00359183
0.000688504
0.00360581
0.000988674
0.00361907
-0.000949669
0.00363619
0.00266814
0.00364848
-0.00274353
0.00366654
0.0021996
0.00367951
-0.00244127
0.003697
0.000676824
0.00371205
-0.00101906
0.00372694
-0.00128008
0.00374398
0.00104629
0.00375835
-0.00232199
0.0037776
0.00240145
0.00379057
-0.00210848
0.00380597
0.00172782
0.00381984
-0.00177417
0.00383758
0.00173478
0.00385226
0.000715239
0.00386563
0.000125713
0.00387872
0.00106676
0.00388924
-0.00189612
0.00390085
0.00230398
0.00389971
-0.00242497
0.0039141
0.00148998
0.00379231
-0.000344513
-0.00339847
0.00419613
0.00354779
0.00267122
-0.0023808
0.00299501
0.0021526
0.00258793
0.00141633
0.00258137
-6.14912e-05
0.00264246
-0.000293333
0.00272328
-0.000357007
0.00281811
-0.000416041
0.00291786
-0.000427801
0.00301743
-0.000419846
0.00311398
-0.000391733
0.0032073
-0.000352874
0.00329411
-0.000355713
0.00337662
-0.000399676
0.00345005
-0.000193637
0.00352128
-0.000704671
0.0035852
0.000223661
0.00364283
-0.000577549
0.00369742
0.000200074
0.003743
0.000218494
0.00378304
-0.00029729
0.00382015
-0.000185946
0.00385235
-0.000114255
0.00388019
-0.000132048
0.00390518
-0.00012748
0.0039277
-0.000105853
0.00394785
-0.000137349
0.00396734
5.32341e-06
0.0039846
0.000111629
0.00400082
3.93842e-07
0.00401556
5.58061e-05
0.00403226
-0.000103122
0.00404635
0.000542785
0.00406064
-1.91618e-05
0.0040732
0.00189192
0.00408213
-0.00207539
0.0040987
0.00148107
0.00410726
-0.00256221
0.00412108
-0.00135498
0.00413643
0.000975113
0.00414861
-0.00213689
0.00416591
0.00187421
0.00418508
-0.00197839
0.0042101
0.00255329
0.00422531
9.46283e-05
0.00424084
0.000437761
0.00425706
0.00185737
0.00426813
-0.001728
0.00428637
0.00154487
0.00429932
-0.00174632
0.00431557
-3.28137e-05
0.004331
-0.000720245
0.00434956
-0.00165953
0.00437083
0.0022534
0.00438334
-0.00257513
0.00440397
0.0026001
0.00441993
-0.000626962
0.00443815
0.000770688
0.00445604
0.00100232
0.00447238
-0.00094424
0.00449405
0.00265207
0.00450937
-0.00286613
0.00453178
0.00206672
0.00454799
-0.00265117
0.00456956
0.000573388
0.00458843
-0.00121269
0.0046066
-0.00139732
0.00462797
0.000986088
0.00464552
-0.00239137
0.00466932
0.00246005
0.00468541
-0.0021185
0.00470438
0.00176151
0.00472141
-0.00180379
0.00474289
0.00185761
0.00476112
0.000824763
0.00477686
0.000285564
0.00479283
0.000946459
0.00480486
-0.00197102
0.00481873
0.00225154
0.0048158
-0.0025523
0.00483161
0.00136694
0.00468172
-0.000316786
-0.00433361
0.005109
0.00436361
0.000993479
-0.00301435
0.00367824
0.00282736
0.00314215
0.001955
0.00312076
-4.40133e-05
0.00319322
-0.000369151
0.00329144
-0.000456872
0.00340673
-0.000532587
0.00352817
-0.000551433
0.00364964
-0.000543445
0.00376769
-0.000512368
0.00388199
-0.000466609
0.00398863
-0.000461719
0.00409016
-0.00050068
0.00418086
-0.000284927
0.00426897
-0.000794782
0.00434845
0.000139445
0.00442081
-0.000651872
0.00448965
0.000126993
0.00454849
0.000155049
0.00460122
-0.000373745
0.00465001
-0.000224252
0.00469269
-0.000133866
0.00473
-0.000132619
0.00476353
-0.000115745
0.0047939
-0.000104404
0.00482129
-0.000142918
0.00484767
-3.49423e-05
0.00487144
4.44984e-05
0.00489382
-2.98478e-05
0.00491435
4.65668e-06
0.00493644
-0.000123438
0.00495596
0.000535399
0.0049752
-5.35459e-05
0.00499279
0.00194912
0.00500582
-0.0020941
0.00502729
0.00155936
0.00503982
-0.00251719
0.00505777
-0.0014019
0.00507823
0.00106511
0.00509451
-0.00225042
0.00511726
0.00187695
0.00514053
-0.00209993
0.00517027
0.00249268
0.00519019
2.22411e-05
0.00521024
0.000352238
0.00523152
0.00189398
0.00524594
-0.00180906
0.00526888
0.00159896
0.00528551
-0.0017733
0.00530577
-2.07862e-05
0.00532559
-0.000709957
0.00534838
-0.00173877
0.00537525
0.00224565
0.00539133
-0.00266259
0.00541713
0.00258719
0.00543761
-0.000680557
0.00546022
0.000687801
0.00548308
0.00102505
0.00550313
-0.00104558
0.00553041
0.00278305
0.00554935
-0.00294763
0.00557704
0.00227765
0.00559716
-0.00264866
0.00562355
0.000645921
0.00564709
-0.00113937
0.00566906
-0.00141313
0.00569572
0.00105697
0.00571698
-0.00250347
0.00574621
0.00251431
0.00576602
-0.00229258
0.00578928
0.00171639
0.00581002
-0.00191948
0.00583573
0.00178253
0.00585826
0.00078827
0.00587656
0.000201266
0.0058958
0.00100687
0.00590913
-0.00211641
0.00592548
0.00243015
0.00591973
-0.00257639
0.00593666
0.00156335
0.00575136
-4.3332e-05
-0.00431801
0.00620321
0.00536123
-0.000286186
-0.00380764
0.00452157
0.00368472
0.00381838
0.00265768
0.00377167
6.90339e-06
0.00385609
-0.000450623
0.00397501
-0.000571739
0.00411473
-0.000669193
0.00426209
-0.000695745
0.00440971
-0.000689129
0.00455345
-0.000651391
0.00469276
-0.000606499
0.00482303
-0.000591348
0.00494723
-0.000626901
0.00505842
-0.00039367
0.00516653
-0.000910456
0.00526443
5.68953e-05
0.00535413
-0.000748075
0.0054397
5.57826e-05
0.00551396
0.000103707
0.00558137
-0.000418322
0.00564394
-0.000298687
0.00569915
-0.000212403
0.00574798
-0.000217088
0.00579208
-0.000204713
0.00583222
-0.000185128
0.0058686
-0.000204644
0.0059035
-5.84975e-05
0.00593538
8.01534e-05
0.00596547
-4.47984e-05
0.00599325
1.38239e-05
0.00602201
-0.000161836
0.00604839
0.000555395
0.00607382
-3.20083e-05
0.00609766
0.00191578
0.0061158
-0.00220439
0.00614319
0.0014249
0.00616065
-0.00277142
0.00618388
-0.00149116
0.00621072
0.000966935
0.00623204
-0.00228461
0.0062616
0.00188561
0.00629013
-0.0020343
0.00632557
0.00261581
0.00635125
9.05193e-05
0.00637705
0.000465052
0.00640455
0.0019282
0.00642322
-0.00183822
0.00645177
0.0015673
0.0064729
-0.00187858
0.00649803
-0.000129579
0.00652321
-0.000837539
0.00655099
-0.00172273
0.00658462
0.00235717
0.00660533
-0.00272285
0.00663753
0.00269109
0.00666366
-0.000671708
0.00669159
0.000773403
0.00672072
0.00103061
0.00674531
-0.00104104
0.00677944
0.00272989
0.00680265
-0.00307802
0.00683671
0.00208919
0.0068615
-0.00289134
0.00689355
0.000501042
0.00692263
-0.00136363
0.00694905
-0.00154663
0.00698207
0.000947429
0.00700763
-0.00254646
0.00704326
0.002553
0.00706742
-0.00228813
0.00709588
0.00173907
0.00712086
-0.00191372
0.00715125
0.00190556
0.00717885
0.00092414
0.00719998
0.000406676
0.00722281
0.000845908
0.00723699
-0.00220646
0.00725595
0.00234181
0.00724618
-0.00269092
0.00726384
0.00139842
0.00703514
4.96697e-05
-0.00531047
0.00751494
0.00658052
-0.00240611
-0.0047911
0.00556528
0.0046907
0.00464722
0.00357879
0.00455899
9.06768e-05
0.00465449
-0.000549981
0.00479768
-0.000716142
0.00496652
-0.000838911
0.0051448
-0.000876317
0.00532362
-0.00087028
0.00549803
-0.000828779
0.00566716
-0.000775031
0.0058256
-0.000748342
0.00597676
-0.000776564
0.00611229
-0.000529992
0.00624414
-0.00104132
0.0063639
-6.98684e-05
0.00647403
-0.000857952
0.00657935
-5.67839e-05
0.00667168
1.33904e-06
0.0067561
-0.000526636
0.00683474
-0.000367249
0.00690451
-0.000254319
0.00696677
-0.000237322
0.00702345
-0.000209873
0.0070754
-0.000197927
0.00712279
-0.000227478
0.00716822
-0.000119577
0.00721017
-1.83061e-05
0.00724976
-9.23184e-05
0.00728649
-6.23581e-05
0.00732338
-0.000195651
0.00735836
0.000520857
0.00739139
-8.29879e-05
0.00742282
0.00194621
0.00744716
-0.00220435
0.00748154
0.00150625
0.00750501
-0.00267779
0.00753498
-0.00152286
0.00756969
0.00104795
0.00759711
-0.00240869
0.00763513
0.00184965
0.00767042
-0.00219596
0.0077128
0.00248179
0.00774535
-3.24129e-05
0.0077784
0.000333427
0.00781339
0.00192308
0.00783728
-0.00191373
0.00787251
0.00160012
0.00789895
-0.00189075
0.00793002
-0.000117373
0.00796171
-0.000822041
0.0079954
-0.00181188
0.00803701
0.00229581
0.00806365
-0.00280845
0.00810393
0.0026144
0.00813706
-0.000754874
0.00817141
0.000648071
0.00820833
0.0010232
0.00823845
-0.00115083
0.00828081
0.00283608
0.00830893
-0.00313545
0.00835058
0.00231458
0.00838086
-0.00283823
0.00841955
0.000595998
0.00845511
-0.00126926
0.00848671
-0.00154186
0.00852735
0.0010279
0.00855788
-0.00267461
0.00860105
0.00255163
0.0086302
-0.00248427
0.0086651
0.00162905
0.00869497
-0.00207537
0.00873034
0.00177205
0.00876373
0.000842173
0.008788
0.000280537
0.0088147
0.000894871
0.00882891
-0.00233804
0.00885037
0.00251786
0.00883514
-0.00264778
0.00885317
0.00162722
0.0085726
0.000483525
-0.00533092
0.00908368
0.00806875
-0.00420719
-0.00599718
0.00685987
0.0059202
0.00566841
0.00477018
0.00551447
0.000248785
0.00561734
-0.000649836
0.00578837
-0.000883448
0.00599167
-0.00103936
0.0062067
-0.00108853
0.0064227
-0.00108468
0.00663369
-0.00103461
0.00683836
-0.000980598
0.00703034
-0.000939855
0.0072136
-0.000962032
0.00737802
-0.000692428
0.00753803
-0.00120773
0.00768372
-0.000201842
0.007818
-0.000997038
0.00794669
-0.000172309
0.00806029
-8.91823e-05
0.00816453
-0.000606211
0.00826201
-0.000472229
0.00834866
-0.000371474
0.00842632
-0.000356537
0.00849748
-0.000333419
0.00856313
-0.000316319
0.00862347
-0.000312009
0.00868147
-0.000169441
0.00873553
9.61339e-06
0.00878665
-0.000125635
0.00883439
-6.62029e-05
0.00888123
-0.000250857
0.00892688
0.000523982
0.00896925
-7.60906e-05
0.00900976
0.0018825
0.00904138
-0.00233192
0.00908401
0.00132699
0.00911461
-0.0029691
0.00915314
-0.00163222
0.00919747
0.0009146
0.00923206
-0.00243448
0.00928046
0.00182168
0.00932421
-0.0020877
0.00937506
0.00260169
0.00941552
4.91647e-05
0.00945752
0.000461356
0.0095014
0.00194454
0.00953153
-0.00194592
0.00957479
0.00154263
0.00960732
-0.00201297
0.00964564
-0.000254848
0.00968518
-0.000976575
0.00972593
-0.00178389
0.00977682
0.00240735
0.00981073
-0.00286401
0.00986125
0.0027147
0.00990284
-0.000744014
0.00994496
0.000740819
0.00999131
0.00101476
0.0100282
-0.00115033
0.0100804
0.00273945
0.010114
-0.00328079
0.0101648
0.00206259
0.0102014
-0.00312813
0.010248
0.000403895
0.010291
-0.00153662
0.0103287
-0.0016978
0.0103784
0.000853199
0.0104147
-0.00268561
0.0104667
0.00256971
0.0105013
-0.00246484
0.0105443
0.0016481
0.0105798
-0.00202882
0.0106205
0.0019089
0.0106601
0.00100861
0.0106879
0.000537952
0.0107189
0.000692317
0.0107319
-0.00244166
0.0107555
0.00238982
0.010733
-0.00274758
0.0107512
0.00141843
0.0104086
0.000667158
-0.00639754
0.0109575
0.00988197
-0.0069634
-0.0074588
0.00846832
0.00732577
0.00693367
0.00630879
0.00667941
0.000498507
0.00678103
-0.000756349
0.00698263
-0.00108486
0.00722628
-0.00128282
0.00748483
-0.00134951
0.00774498
-0.00134683
0.00799954
-0.00129291
0.00824648
-0.00122652
0.00847837
-0.00116972
0.00869982
-0.00118087
0.00889853
-0.000892103
0.00909194
-0.00139806
0.00926844
-0.0003874
0.00943128
-0.00115841
0.0095877
-0.000338147
0.00972644
-0.000241326
0.00985385
-0.000758531
0.00997347
-0.000584574
0.0100798
-0.000441746
0.0101752
-0.000400739
0.0102629
-0.000359381
0.0103443
-0.000344826
0.0104195
-0.000360259
0.0104919
-0.000258592
0.01056
-0.000135059
0.0106246
-0.00020058
0.0106854
-0.000177612
0.0107441
-0.000305929
0.0108026
0.000456328
0.0108562
-0.000151373
0.0109074
0.0018833
0.0109476
-0.0023288
0.0109998
0.00140015
0.0110387
-0.00285001
0.011088
-0.00166537
0.011144
0.000976548
0.0111869
-0.00257288
0.0112477
0.00174687
0.0113019
-0.00228479
0.0113631
0.00241005
0.0114124
-0.00011336
0.0114652
0.000287383
0.0115195
0.00189939
0.0115568
-0.00202355
0.0116097
0.00155224
0.011649
-0.00201849
0.0116962
-0.000249295
0.0117452
-0.000963535
0.0117945
-0.00189311
0.0118561
0.00229488
0.0118983
-0.00295279
0.0119617
0.00257832
0.0120135
-0.000856225
0.012065
0.00057448
0.0121225
0.000973855
0.0121675
-0.00127614
0.0122315
0.00281943
0.0122712
-0.00332377
0.012333
0.00228906
0.0123766
-0.00304447
0.0124329
0.000506748
0.0124844
-0.00143325
0.0125295
-0.00168668
0.0125898
0.00093172
0.0126326
-0.00282993
0.0126949
0.00251918
0.0127355
-0.00267789
0.0127886
0.00148772
0.0128309
-0.00222653
0.0128774
0.00173155
0.0129233
0.000889806
0.0129549
0.000372604
0.0129908
0.000736751
0.0130016
-0.00255596
0.0130263
0.00255862
0.0129942
-0.00264665
0.0130117
0.00166315
0.0125965
0.00127095
-0.00651864
0.0131891
0.0120862
-0.00957845
-0.00920945
0.0104686
0.00896821
0.00851037
0.00826793
0.0081084
0.00090481
0.00819227
-0.000837101
0.00842498
-0.00131447
0.00871501
-0.00157053
0.00902468
-0.00165679
0.00933706
-0.00165792
0.00964334
-0.00159374
0.0099405
-0.00152493
0.0102199
-0.00144873
0.0104867
-0.00145022
0.0107261
-0.00112992
0.0109591
-0.00163668
0.0111722
-0.000588451
0.0113688
-0.00135804
0.0115582
-0.000515171
0.0117267
-0.000386154
0.0118813
-0.000887705
0.012027
-0.000733717
0.0121566
-0.000608715
0.0122724
-0.000563221
0.0123791
-0.000525023
0.0124784
-0.000506733