/*--------------------------------*- C++ -*----------------------------------*\
| =========                 |                                                 |
| \\      /  F ield         | OpenFOAM: The Open Source CFD Toolbox           |
|  \\    /   O peration     | Version:  5.x                                   |
|   \\  /    A nd           | Web:      www.OpenFOAM.org                      |
|    \\/     M anipulation  |                                                 |
\*---------------------------------------------------------------------------*/
FoamFile
{
    version     2.0;
    format      ascii;
    class       surfaceScalarField;
    location    "50";
    object      phi;
}
// * * * * * * * * * * * * * * * * * * * * * * * * * * * * * * * * * * * * * //

dimensions      [0 3 -1 0 0 0 0];

internalField   nonuniform List<scalar> 
21876
(
0.0239599
-0.00462946
-0.0188723
0.0329338
-0.00897378
0.0343739
-0.0014401
0.0361295
-0.00175579
0.0361335
-4.22345e-06
0.0349755
0.00115769
0.0332005
0.00177467
0.0311109
0.00208924
0.0288597
0.00225082
0.0263011
0.00255827
0.0232102
0.00309077
0.0208632
0.00234664
0.0195848
0.00127877
0.018841
0.000742961
0.0179549
0.000885644
0.01705
0.000904808
0.0161091
0.00094058
0.0151502
0.000958724
0.0141841
0.000965954
0.0132085
0.000976285
0.0122155
0.000991828
0.0114237
0.00079192
0.0106242
0.000799379
0.00981599
0.000808445
0.00899254
0.000823139
0.00815192
0.000840754
0.0072911
0.000860287
0.00641207
0.000878738
0.00551544
0.000896072
0.00460375
0.00091142
0.00369575
0.000907628
0.00277464
0.000921162
0.00181263
0.000963355
0.000872869
0.000940462
4.23472e-05
0.00083261
-0.000645402
0.000689551
-0.00132806
0.00068348
-0.00223677
0.000910558
-0.00357712
0.0013431
-0.00323946
-0.000336508
-0.00850324
0.00526869
0.0288194
-0.0113687
-0.0220788
0.0364566
-0.0166107
0.0396021
-0.00458534
0.0419657
-0.00411928
0.0431673
-0.00120577
0.0435879
0.00073728
0.0433437
0.00201903
0.0424646
0.00296861
0.0410377
0.003678
0.0390282
0.00456816
0.0362058
0.00591368
0.0333345
0.00521821
0.0309287
0.00368504
0.0289619
0.00270926
0.0271431
0.00270392
0.0255297
0.00251805
0.0240381
0.00243166
0.0226097
0.00238699
0.0212149
0.00235982
0.0198342
0.00235739
0.0184434
0.0023815
0.017337
0.00189884
0.0162476
0.0018881
0.0151595
0.00189656
0.014059
0.00192245
0.0129381
0.00196143
0.0117887
0.00200832
0.0106076
0.00205952
0.00939459
0.00210717
0.00815754
0.00214808
0.00689364
0.00216791
0.00562377
0.00218834
0.00438125
0.00219991
0.0031657
0.00215081
0.0019838
0.0020077
0.000885822
0.00177961
-0.000134842
0.00169509
-0.00114563
0.0019086
-0.00176549
0.00195432
-0.00142057
-0.000694626
-0.0130512
0.00312317
0.0339573
-0.0189179
-0.026409
0.0410644
-0.023718
0.0458859
-0.00940692
0.049066
-0.00729954
0.0509365
-0.00307627
0.0516559
1.7754e-05
0.0515593
0.00211561
0.0508644
0.00366344
0.0496883
0.00485399
0.0480209
0.00623562
0.0456748
0.00825958
0.0431274
0.00776563
0.0407916
0.00602072
0.0386457
0.0048549
0.0364826
0.00486684
0.0344274
0.00457311
0.0324825
0.00437645
0.0306171
0.0042523
0.028807
0.00416993
0.0270296
0.00413489
0.0252488
0.00416216
0.0238318
0.00331579
0.0224434
0.00327646
0.0210635
0.00327657
0.0196749
0.00331099
0.018266
0.00337052
0.0168255
0.00344888
0.0153463
0.00353898
0.0138243
0.00362971
0.0122624
0.00371044
0.0106655
0.00376607
0.00905818
0.00379703
0.00747701
0.00378345
0.00594184
0.00368773
0.00446207
0.00348973
0.00307235
0.00317157
0.00181918
0.00295095
0.000681812
0.0030498
5.27712e-05
0.00258775
-0.000115664
-0.000522335
-0.0142129
0.00105028
0.039732
-0.0271945
-0.0314555
0.0468807
-0.030867
0.0526466
-0.0151729
0.0565989
-0.0112519
0.0591578
-0.00563518
0.0604681
-0.00129248
0.0607502
0.00183363
0.0602335
0.0041804
0.0591082
0.00597954
0.0574575
0.00788668
0.0551948
0.0105226
0.0527171
0.0102437
0.0504631
0.00827489
0.0484156
0.00690237
0.0463104
0.00697184
0.0441829
0.00670053
0.0420659
0.00649329
0.0399545
0.00636354
0.0378464
0.00627755
0.0357376
0.0062436
0.033604
0.00629531
0.0318904
0.00502919
0.0302034
0.00496286
0.0285227
0.0049567
0.0268294
0.00500325
0.02511
0.0050891
0.0233504
0.00520744
0.0215404
0.00534806
0.0196732
0.00549587
0.0177482
0.00563438
0.0157725
0.0057397
0.0137708
0.00579617
0.0117811
0.00576906
0.00983649
0.00562754
0.00795779
0.00536229
0.0061858
0.00493661
0.00460224
0.00452665
0.0032277
0.00441593
0.00233594
0.0034719
0.00156767
0.000238
-0.0128783
0.000229013
0.046169
-0.0362273
-0.0371373
0.0536737
-0.038372
0.0602512
-0.0217505
0.0652247
-0.0162255
0.0687299
-0.00914033
0.0708755
-0.00343809
0.0717817
0.00092756
0.0716493
0.00431282
0.0706862
0.00694278
0.0690286
0.00954438
0.0666794
0.0128719
0.0640058
0.0129173
0.0615177
0.0107629
0.0592995
0.0091204
0.0571218
0.00914949
0.054939
0.0088832
0.0527641
0.0086681
0.05057
0.00855745
0.0483332
0.00851446
0.0460444
0.0085322
0.0436861
0.00865383
0.0417573
0.00695789
0.0398354
0.00688473
0.0379033
0.00688875
0.0359426
0.00696399
0.0339383
0.00709344
0.0318743
0.00727162
0.029738
0.00748446
0.0275199
0.00771467
0.0252164
0.00793806
0.0228336
0.00812356
0.0203938
0.00823657
0.0179345
0.00822978
0.0154941
0.00806876
0.0131043
0.00775298
0.0108245
0.00721728
0.00875933
0.00659256
0.00698629
0.00619107
0.00563101
0.00482895
0.00418157
0.00169084
-0.00980495
0.00111017
0.053356
-0.0461287
-0.0434548
0.0614913
-0.0465075
0.0688856
-0.029145
0.0749055
-0.0222455
0.0794439
-0.0136788
0.0825631
-0.00655738
0.084316
-0.000825319
0.0848435
0.00378536
0.0843219
0.00746451
0.0829057
0.0109606
0.0806437
0.015134
0.077836
0.0157251
0.0750236
0.0135754
0.072432
0.0117121
0.0699513
0.0116302
0.0675167
0.0113178
0.0651402
0.0110444
0.0627958
0.0109018
0.0604384
0.0108716
0.0580355
0.0109349
0.0555555
0.0111333
0.053509
0.00900395
0.0514544
0.0089387
0.049373
0.00896941
0.047244
0.00909222
0.0450483
0.00928816
0.0427661
0.00955294
0.0403799
0.00986966
0.0378755
0.0102181
0.0352437
0.0105686
0.0324852
0.0108805
0.0296164
0.0111032
0.0266701
0.0111732
0.0236849
0.0110502
0.0206987
0.0107346
0.017792
0.0101187
0.0150799
0.00929899
0.0126899
0.00857535
0.0106431
0.00687083
0.00842371
0.00390611
-0.0055936
0.00420911
0.0614009
-0.0571001
-0.0504304
0.0704447
-0.0555515
0.0787542
-0.0374547
0.0858336
-0.029325
0.091476
-0.0193212
0.0956772
-0.0107586
0.0984443
-0.00359233
0.0998493
0.00238038
0.100023
0.00729105
0.0991174
0.0118662
0.0972058
0.0170457
0.0944992
0.0184318
0.0915013
0.0165733
0.0885473
0.014666
0.0856789
0.0144985
0.0828583
0.0141383
0.0801106
0.013792
0.0774399
0.0135723
0.0748131
0.0134984
0.0721943
0.0135534
0.0695453
0.0137823
0.0673847
0.0111643
0.0652379
0.0110854
0.0630782
0.0111288
0.0608775
0.0112927
0.0586085
0.0115569
0.0562425
0.0119188
0.0537517
0.0123601
0.051111
0.0128588
0.0482982
0.013381
0.0453002
0.0138784
0.0421178
0.0142852
0.0387698
0.0145209
0.0352857
0.0145336
0.0317005
0.0143189
0.0281104
0.0137078
0.0246298
0.0127784
0.021409
0.0117957
0.018425
0.0098546
0.0152953
0.0070367
-0.000449869
0.0101518
0.0704338
-0.0694311
-0.058103
0.0806862
-0.0658041
0.0900878
-0.0468564
0.0982823
-0.0375197
0.105076
-0.0261148
0.110431
-0.0161139
0.114333
-0.00749446
0.116793
-7.95818e-05
0.117891
0.00619302
0.117757
0.0120007
0.116472
0.0183302
0.114161
0.0207429
0.111238
0.0194968
0.108087
0.0178168
0.104896
0.0176895
0.101691
0.0173429
0.0985161
0.0169668
0.0954106
0.0166776
0.0923722
0.0165366
0.0893825
0.0165428
0.0864156
0.0167487
0.0840374
0.0135421
0.0817238
0.0133985
0.0794459
0.0134063
0.0771722
0.0135658
0.0748706
0.0138579
0.072505
0.0142839
0.0700375
0.014827
0.0674289
0.0154667
0.0646395
0.0161696
0.0616327
0.0168844
0.0583803
0.0175367
0.0548693
0.0180308
0.0510997
0.0183017
0.047083
0.0183338
0.0429091
0.0178798
0.0386778
0.0170077
0.034524
0.0159479
0.0304251
0.0139522
0.0261688
0.0112922
0.00552865
0.0201889
0.0806129
-0.0834997
-0.0665449
0.0924156
-0.077607
0.103156
-0.0575968
0.112591
-0.0469544
0.120598
-0.034122
0.127156
-0.0226723
0.132256
-0.0125948
0.135892
-0.00371594
0.138091
0.00399397
0.13896
0.0111326
0.138571
0.0187183
0.136965
0.0223485
0.134439
0.0220235
0.131364
0.0208917
0.128035
0.0210183
0.124564
0.0208128
0.121028
0.020503
0.117497
0.0202083
0.114006
0.0200276
0.110562
0.0199869
0.107159
0.0201507
0.104447
0.0162539
0.101847
0.0159985
0.0993345
0.0159178
0.0968857
0.0160141
0.0944728
0.0162702
0.0920637
0.0166923
0.0896216
0.0172685
0.0871045
0.0179831
0.0844643
0.018809
0.0816469
0.0197009
0.0785944
0.0205881
0.0752516
0.0213726
0.0715679
0.0219841
0.0674997
0.0224006
0.0630892
0.0222887
0.0583879
0.0217075
0.0534696
0.0208649
0.0483164
0.0191047
0.0428332
0.0167749
0.0123461
0.0360155
0.092135
-0.0997712
-0.0758636
0.105891
-0.091363
0.118285
-0.0699914
0.129163
-0.0578324
0.138494
-0.0434532
0.146313
-0.0304913
0.152649
-0.0189309
0.157521
-0.00858851
0.160923
0.000592417
0.162957
0.00909804
0.163685
0.0179903
0.163069
0.0229641
0.161279
0.0238133
0.158626
0.0235452
0.155446
0.0241978
0.151931
0.0243271
0.148203
0.0242315
0.144365
0.0240457
0.140491
0.0239017
0.136618
0.0238599
0.132765
0.0240026
0.129669
0.0193501
0.126709
0.0189581
0.12387
0.0187562
0.121138
0.0187465
0.118494
0.018914
0.115919
0.019267
0.113388
0.019799
0.110872
0.0204984
0.108334
0.0213472
0.105724
0.0223103
0.102979
0.0233335
0.100019
0.0243321
0.0967511
0.0252513
0.0930696
0.0260817
0.0889357
0.026422
0.084312
0.0263312
0.0791636
0.0260128
0.0734369
0.0248321
0.0670758
0.0231359
0.0198921
0.05953
0.105248
-0.11881
-0.0862101
0.121438
-0.107552
0.135877
-0.0844307
0.148484
-0.0704393
0.159322
-0.054292
0.168503
-0.039672
0.17612
-0.0265481
0.182244
-0.0147131
0.186888
-0.0040515
0.190163
0.00582319
0.192137
0.0160161
0.192719
0.0223818
0.191964
0.0245679
0.190093
0.0254156
0.187421
0.0268698
0.184175
0.0275733
0.18052
0.0278862
0.176595
0.0279704
0.17251
0.0279863
0.168339
0.0280306
0.16413
0.0282112
0.160686
0.0227943
0.157377
0.022267
0.154199
0.0219336
0.151146
0.0218004
0.148209
0.0218503
0.145382
0.0220952
0.142652
0.0225289
0.140007
0.023144
0.137428
0.0239261
0.134887
0.0248515
0.132339
0.0258815
0.129717
0.0269543
0.126924
0.0280449
0.123827
0.0291785
0.120329
0.0299208
0.116307
0.0303533
0.111611
0.0307098
0.106108
0.0303346
0.099701
0.029545
0.0275591
0.0920335
0.120265
-0.141291
-0.0977834
0.139465
-0.126753
0.156428
-0.101394
0.171139
-0.0851502
0.183753
-0.066907
0.194466
-0.0503848
0.203453
-0.0355347
0.210857
-0.0221173
0.216747
-0.00994178
0.221263
0.00130748
0.224512
0.0127666
0.226386
0.0205072
0.22686
0.0240937
0.226071
0.0262049
0.224263
0.0286775
0.221648
0.0301886
0.218408
0.0311254
0.214706
0.0316729
0.210679
0.0320124
0.206437
0.0322724
0.202064
0.0325847
0.198385
0.0264735
0.194818
0.0258337
0.191372
0.0253809
0.188048
0.0251241
0.18485
0.0250483
0.181779
0.0251669
0.178833
0.0254753
0.17601
0.0259677
0.173304
0.0266324
0.170704
0.0274515
0.168189
0.0283974
0.165717
0.0294268
0.163217
0.0305443
0.160578
0.0318183
0.157699
0.0328001
0.154432
0.0336209
0.150573
0.0345689
0.145932
0.0349766
0.140359
0.035118
0.0344323
0.133488
0.137577
-0.168029
-0.110839
0.160483
-0.14966
0.180554
-0.121465
0.197843
-0.102439
0.212598
-0.0816619
0.2251
-0.0628873
0.235615
-0.04605
0.244374
-0.030876
0.251519
-0.0170872
0.257253
-0.00442634
0.261737
0.00828248
0.264891
0.0173528
0.266657
0.0223273
0.267118
0.0257442
0.266444
0.0293513
0.264791
0.0318407
0.262326
0.0335909
0.259205
0.034793
0.25558
0.0356374
0.251581
0.0362717
0.247321
0.0368449
0.243593
0.0302029
0.239926
0.0295001
0.23635
0.028958
0.23288
0.0285935
0.229531
0.0283974
0.226312
0.0283853
0.223231
0.0285574
0.22029
0.0289088
0.21749
0.029433
0.214826
0.0301149
0.212288
0.0309351
0.209855
0.0318605
0.207479
0.0329192
0.205083
0.0342148
0.202599
0.0352833
0.199909
0.0363109
0.19683
0.0376477
0.193184
0.0386229
0.188829
0.0394721
0.0398963
0.183366
0.157675
-0.200003
-0.125702
0.185129
-0.177114
0.20902
-0.145356
0.229474
-0.122893
0.246837
-0.0990252
0.261483
-0.0775344
0.273775
-0.0583418
0.284036
-0.0411378
0.2925
-0.0255513
0.299448
-0.0113746
0.305107
0.00262353
0.309464
0.0129956
0.312475
0.0193156
0.314212
0.0240074
0.314796
0.0287676
0.314325
0.0323111
0.312924
0.0349921
0.310724
0.036993
0.307861
0.0385009
0.304465
0.0396671
0.300665
0.0406465
0.297132
0.033735
0.293585
0.0330481
0.290074
0.0324681
0.286638
0.0320296
0.283303
0.0317314
0.280091
0.0315978
0.277015
0.0316326
0.274087
0.0318377
0.271309
0.03221
0.268682
0.0327414
0.266198
0.0334177
0.263844
0.0342135
0.261589
0.0351744
0.259372
0.0364296
0.257163
0.0374922
0.254879
0.0385917
0.252391
0.0401364
0.249574
0.041437
0.246345
0.0427032
0.0438724
0.242365
0.18117
-0.238397
-0.142776
0.21419
-0.210135
0.242766
-0.173932
0.267107
-0.147235
0.287667
-0.119585
0.304921
-0.0947891
0.319335
-0.0727565
0.331337
-0.0531404
0.34126
-0.0354749
0.349472
-0.0195866
0.356282
-0.00418696
0.36176
0.0075172
0.365917
0.0151585
0.368851
0.0210734
0.370673
0.0269451
0.37145
0.0315337
0.371268
0.035174
0.370223
0.0380386
0.368419
0.0403046
0.365969
0.0421176
0.362989
0.0436259
0.359936
0.0367877
0.35677
0.0362144
0.353566
0.0356715
0.350383
0.0352121
0.347265
0.0348494
0.344245
0.034617
0.34135
0.0345281
0.338595
0.0345915
0.335993
0.0348114
0.333548
0.0351855
0.331259
0.0357064
0.329116
0.036355
0.327098
0.037191
0.325161
0.0383659
0.323291
0.0393601
0.321441
0.0404418
0.319513
0.0420625
0.317446
0.0435037
0.315196
0.044951
0.0465133
0.312555
0.208813
-0.284649
-0.162563
0.248637
-0.249959
0.282952
-0.208248
0.312066
-0.176349
0.33655
-0.14407
0.356999
-0.115238
0.373993
-0.0897517
0.388075
-0.0672225
0.399687
-0.0470884
0.409294
-0.0291931
0.417296
-0.0121902
0.423856
0.000957255
0.429064
0.00995002
0.433074
0.0170625
0.436025
0.0239938
0.437986
0.0295726
0.439029
0.0341312
0.439225
0.0378425
0.43865
0.0408786
0.437389
0.0433784
0.435535
0.0454802
0.433229
0.0390934
0.430709
0.0387338
0.42807
0.0383109
0.425383
0.0378985
0.422708
0.0375245
0.420091
0.0372337
0.41757
0.0370492
0.415172
0.0369889
0.412917
0.0370656
0.410818
0.0372842
0.40888
0.0376437
0.407104
0.0381307
0.405476
0.0388171
0.403969
0.0398728
0.402583
0.0407444
0.401293
0.0417317
0.40003
0.0433239
0.398771
0.044763
0.397497
0.0462232
0.04792
0.396091
0.241503
-0.340497
-0.185655
0.289634
-0.298091
0.330977
-0.249591
0.365946
-0.211319
0.395255
-0.173379
0.419632
-0.139616
0.439792
-0.109913
0.456406
-0.0838372
0.470043
-0.0607257
0.481269
-0.0404194
0.490586
-0.0215086
0.498263
-0.00672004
0.50448
0.00373284
0.509465
0.0120768
0.51341
0.0200484
0.51642
0.0265623
0.518583
0.031968
0.51997
0.0364551
0.520646
0.0402025
0.520674
0.0433504
0.520122
0.0460316
0.518755
0.0404609
0.517095
0.0403932
0.515244
0.0401619
0.513283
0.0398593
0.511279
0.0395286
0.509287
0.0392256
0.507353
0.0389831
0.505514
0.0388278
0.503799
0.0387808
0.502228
0.0388547
0.500817
0.0390551
0.499573
0.039374
0.498496
0.0398938
0.497569
0.0408001
0.496805
0.0415067
0.496198
0.0423397
0.4957
0.0438202
0.495314
0.04515
0.495033
0.0465016
0.0481578
0.494797
0.254406
-0.401707
-0.193197
0.307194
-0.350879
0.352431
-0.294829
0.390613
-0.249502
0.422534
-0.2053
0.449
-0.166083
0.470803
-0.131717
0.488684
-0.101719
0.503289
-0.0753316
0.51524
-0.0523707
0.52509
-0.0313601
0.533186
-0.0148156
0.539776
-0.00285837
0.545145
0.00670843
0.549525
0.0156674
0.553066
0.0230216
0.555883
0.0291501
0.558066
0.034272
0.559682
0.0385858
0.56079
0.0422432
0.56144
0.0453807
0.561073
0.0408279
0.560404
0.0410618
0.559524
0.0410425
0.558507
0.0408753
0.55742
0.0406167
0.556312
0.0403327
0.555231
0.0400643
0.554213
0.0398457
0.553289
0.0397049
0.552483
0.0396606
0.551814
0.0397236
0.551298
0.0398904
0.550939
0.040252
0.550733
0.041006
0.550698
0.0415403
0.550838
0.0422004
0.551125
0.0435319
0.551573
0.0447029
0.552184
0.045888
0.0474107
0.552932
0.26424
-0.467496
-0.198452
0.321002
-0.407642
0.369564
-0.343391
0.410488
-0.290427
0.444637
-0.239451
0.472885
-0.194331
0.496084
-0.154917
0.515036
-0.120672
0.530449
-0.0907453
0.542989
-0.0649109
0.55325
-0.041622
0.561636
-0.0232028
0.568459
-0.00968177
0.574039
0.0011289
0.578646
0.0110592
0.582466
0.019202
0.585644
0.0259714
0.588294
0.0316223
0.590499
0.0363802
0.592325
0.0404169
0.593826
0.04388
0.594213
0.0404412
0.594322
0.0409518
0.594232
0.0411336
0.594007
0.0410996
0.593707
0.0409173
0.593378
0.0406614
0.593062
0.0403807
0.592792
0.0401158
0.592597
0.0399001
0.592501
0.0397572
0.592523
0.0397021
0.592679
0.0397344
0.592979
0.0399519
0.593425
0.040561
0.594034
0.0409306
0.594815
0.0414205
0.595751
0.0425946
0.59686
0.0435951
0.598146
0.0446001
0.0459575
0.599602
0.276064
-0.538293
-0.205268
0.337164
-0.468742
0.389375
-0.395603
0.433327
-0.33438
0.469955
-0.276079
0.5002
-0.224577
0.524983
-0.179701
0.545168
-0.140858
0.561525
-0.107103
0.574768
-0.078154
0.585533
-0.0523876
0.594277
-0.0319475
0.601363
-0.0167682
0.607148
-0.00465623
0.611939
0.00626753
0.615954
0.0151868
0.619368
0.0225569
0.622319
0.0286714
0.62491
0.0337882
0.627223
0.0381037
0.62932
0.0417827
0.630247
0.0395146
0.630933
0.0402652
0.631443
0.040623
0.631836
0.0407062
0.632163
0.0405906
0.632465
0.0403585
0.63278
0.0400655
0.633138
0.0397578
0.633564
0.0394739
0.63408
0.0392412
0.634703
0.039078
0.635451
0.0389868
0.636332
0.0390702
0.637352
0.0395412
0.638526
0.0397553
0.639864
0.0400828
0.641355
0.0411017
0.643016
0.0419344
0.64485
0.0427632
0.0439517
0.646858
0.289747
-0.614547
-0.213495
0.355571
-0.534567
0.411772
-0.451805
0.459049
-0.381657
0.49841
-0.315442
0.530872
-0.257039
0.557426
-0.206256
0.579005
-0.162438
0.596442
-0.124542
0.610503
-0.0922148
0.621868
-0.063754
0.631047
-0.0411265
0.638448
-0.0241697
0.644465
-0.010673
0.649436
0.00129566
0.653615
0.011008
0.657204
0.018967
0.660366
0.0255098
0.663224
0.0309287
0.665879
0.0354495
0.668403
0.0392578
0.669713
0.0382049
0.67082
0.0391576
0.671782
0.0396603
0.672651
0.0398369
0.673471
0.0397701
0.674282
0.0395486
0.675113
0.0392337
0.675994
0.0388774
0.676945
0.0385219
0.677988
0.0381988
0.679136
0.0379289
0.680407
0.0377175
0.681805
0.0376702
0.683342
0.0380059
0.685025
0.0380705
0.686868
0.0382425
0.688858
0.0391088
0.691016
0.0397801
0.693337
0.0404402
0.0414649
0.695827
0.30524
-0.69674
-0.22305
0.376202
-0.60553
0.436756
-0.51236
0.487669
-0.432571
0.530032
-0.357806
0.564939
-0.291947
0.593459
-0.234778
0.616596
-0.185575
0.635252
-0.143198
0.650247
-0.10721
0.662313
-0.07582
0.672006
-0.0508205
0.679783
-0.0319471
0.686072
-0.016962
0.691244
-0.00387659
0.695582
0.00666974
0.699318
0.0152302
0.702639
0.0221888
0.705691
0.0278764
0.708589
0.0325505
0.711424
0.0364228
0.713004
0.0366246
0.714413
0.037748
0.715708
0.0383645
0.716937
0.0386074
0.71814
0.0385662
0.719353
0.0383355
0.720604
0.0379824
0.721916
0.0375636
0.723312
0.0371257
0.724806
0.0367035
0.726415
0.0363207
0.728145
0.0359849
0.730012
0.0358046
0.732014
0.0360017
0.734167
0.0359183
0.73647
0.0359368
0.738929
0.0366509
0.741544
0.0371635
0.744325
0.037661
0.0385253
0.747262
0.322541
-0.785387
-0.233895
0.399089
-0.68208
0.464385
-0.577657
0.519268
-0.487455
0.564916
-0.403454
0.602508
-0.32954
0.633197
-0.265467
0.658061
-0.210441
0.678078
-0.163216
0.694126
-0.123259
0.706991
-0.0886848
0.71728
-0.0611105
0.725496
-0.0401634
0.732103
-0.0235692
0.737506
-0.0092796
0.742015
0.00215991
0.745891
0.0113537
0.749344
0.0187356
0.752542
0.0246781
0.755619
0.0294732
0.75868
0.0333618
0.760452
0.0348523
0.762076
0.036123
0.763613
0.0368276
0.765109
0.0371104
0.766606
0.03707
0.768133
0.0368073
0.769721
0.0363955
0.771387
0.0358957
0.773155
0.0353594
0.775033
0.034824
0.777039
0.0343171
0.779174
0.0338471
0.781455
0.0335262
0.783877
0.0335772
0.786456
0.0333427
0.789184
0.0332058
0.792073
0.0337647
0.795115
0.0341183
0.798325
0.0344552
0.0351602
0.801688
0.341687
-0.881051
-0.246027
0.424308
-0.764701
0.494765
-0.648116
0.553977
-0.546668
0.603213
-0.452691
0.643745
-0.370074
0.676815
-0.298539
0.703586
-0.237213
0.72511
-0.184741
0.742333
-0.140483
0.756096
-0.102449
0.767062
-0.0720776
0.77578
-0.0488824
0.782752
-0.030542
0.788418
-0.0149459
0.793119
-0.00254121
0.797139
0.00733236
0.800714
0.0151608
0.804031
0.0213601
0.807243
0.0262599
0.810472
0.030132
0.812383
0.0329405
0.814163
0.0343425
0.815875
0.0351146
0.81757
0.0354147
0.819287
0.0353515
0.82106
0.0350339
0.822913
0.0345413
0.824868
0.0339404
0.826939
0.0332866
0.829142
0.0326216
0.831482
0.0319751
0.83397
0.0313588
0.836608
0.0308854
0.839406
0.03078
0.842359
0.0303865
0.845477
0.0300891
0.848753
0.0304852
0.852196
0.0306761
0.855799
0.0308493
0.0313925
0.859569
0.362747
-0.984336
-0.259462
0.451965
-0.853923
0.52804
-0.724192
0.591967
-0.610597
0.645119
-0.505845
0.688866
-0.413823
0.724546
-0.33422
0.753412
-0.266079
0.776599
-0.207929
0.795122
-0.159007
0.809888
-0.117215
0.821615
-0.0838049
0.8309
-0.0581687
0.838287
-0.0379292
0.84425
-0.0209099
0.849164
-0.00745559
0.85334
0.00315607
0.857034
0.0114658
0.860457
0.0179364
0.863779
0.022937
0.867138
0.0267724
0.86915
0.0309284
0.871041
0.0324505
0.872879
0.0332751
0.87472
0.0335739
0.876602
0.0334678
0.878561
0.0330741
0.88062
0.0324799
0.882803
0.0317575
0.88512
0.0309673
0.887587
0.0301546
0.890207
0.0293524
0.892992
0.0285746
0.895939
0.0279355
0.89906
0.0276602
0.902345
0.027098
0.905804
0.0266313
0.909431
0.0268551
0.913233
0.0268759
0.917199
0.0268804
0.0272555
0.921339
0.385807
-1.09591
-0.274239
0.482201
-0.950316
0.564386
-0.80638
0.633451
-0.679664
0.690874
-0.563269
0.738134
-0.461084
0.776671
-0.372759
0.807836
-0.297244
0.832852
-0.232946
0.852813
-0.178969
0.868692
-0.133094
0.881268
-0.096381
0.89119
-0.0680914
0.899044
-0.0457837
0.905344
-0.02721
0.910496
-0.0126083
0.914841
-0.00118886
0.918658
0.00764755
0.922181
0.0144143
0.925595
0.0195219
0.929057
0.0233111
0.931136
0.028848
0.933104
0.0304841
0.935028
0.0313501
0.93697
0.0316337
0.938968
0.0314676
0.941065
0.0309799
0.943278
0.0302648
0.945636
0.0294021
0.948145
0.0284564
0.950824
0.027478
0.953672
0.0265024
0.956703
0.0255472
0.959908
0.0247267
0.963305
0.0242666
0.966876
0.0235228
0.970635
0.0228758
0.974571
0.0229149
0.978694
0.0227563
0.982985
0.0225836
0.022782
0.987463
0.410984
-1.21649
-0.290406
0.515176
-1.05451
0.604016
-0.89522
0.678678
-0.754328
0.74076
-0.625353
0.791856
-0.512181
0.83352
-0.414424
0.867204
-0.33093
0.894232
-0.259975
0.915779
-0.200516
0.93289
-0.150207
0.94641
-0.109902
0.957043
-0.0787258
0.965422
-0.0541626
0.972099
-0.0338885
0.977519
-0.0180283
0.982049
-0.00571981
0.985996
0.00369979
0.989612
0.0107969
0.993106
0.0160276
0.996646
0.0197696
0.998769
0.0267256
1.00078
0.0284739
1.00275
0.0293749
1.00475
0.0296321
1.00683
0.0293927
1.00901
0.0287948
1.01134
0.0279421
1.01382
0.0269208
1.01647
0.025802
1.01931
0.0246397
1.02234
0.0234736
1.02556
0.0223238
1.02898
0.0213063
1.0326
0.0206448
1.03642
0.019706
1.04042
0.0188653
1.04463
0.0187065
1.04903
0.0183561
1.05362
0.0179964
0.0180066
1.05839
0.438403
-1.34687
-0.308032
0.551086
-1.16719
0.647168
-0.991307
0.727931
-0.835093
0.795096
-0.69252
0.850383
-0.56747
0.895467
-0.459509
0.931915
-0.367379
0.961152
-0.289213
0.984444
-0.22381
1.00292
-0.168681
1.01749
-0.12447
1.02891
-0.0901518
1.03787
-0.0631268
1.04497
-0.0409897
1.05069
-0.0237454
1.05542
-0.0104538
1.0595
-0.000383539
1.06321
0.00708895
1.06677
0.0124679
1.07037
0.0161716
1.07251
0.0245871
1.07453
0.0264514
1.07652
0.0273847
1.07854
0.0276085
1.08065
0.0272848
1.08287
0.0265634
1.08526
0.0255577
1.08782
0.0243618
1.09057
0.0230525
1.09351
0.0216893
1.09667
0.0203156
1.10004
0.0189547
1.10362
0.0177234
1.10742
0.0168443
1.11143
0.0156955
1.11565
0.0146476
1.12008
0.014276
1.12471
0.0137212
1.12955
0.0131627
0.0129737
1.13457
0.468223
-1.48789
-0.327189
0.590139
-1.28912
0.694116
-1.09528
0.78153
-0.922512
0.854244
-0.765236
0.914112
-0.627339
0.962938
-0.508337
1.00241
-0.406856
1.03408
-0.320877
1.05929
-0.249024
1.07927
-0.188659
1.09499
-0.140198
1.1073
-0.102456
1.11691
-0.0727404
1.12448
-0.0485602
1.13052
-0.0297901
1.13547
-0.0154079
1.1397
-0.00460705
1.14349
0.00329627
1.1471
0.00885961
1.15072
0.012543
1.15285
0.0224594
1.15485
0.0244484
1.15682
0.0254165
1.15883
0.0256031
1.16093
0.0251878
1.16316
0.0243318
1.16556
0.0231603
1.16814
0.0217747
1.17094
0.0202597
1.17394
0.0186788
1.17718
0.017081
1.18064
0.0154923
1.18434
0.0140311
1.18826
0.0129171
1.19242
0.0115433
1.19679
0.0102733
1.2014
0.00967354
1.20621
0.00890034
1.21125
0.00813066
0.00773005
1.21649
0.500604
-1.64053
-0.347971
0.632586
-1.4211
0.745161
-1.20786
0.839835
-1.01719
0.918608
-0.844012
0.983484
-0.692215
1.03641
-0.561262
1.0792
-0.449653
1.11353
-0.355205
1.14086
-0.276352
1.16249
-0.210294
1.1795
-0.157206
1.19277
-0.11573
1.2031
-0.0830736
1.21119
-0.056649
1.21759
-0.0361952
1.22279
-0.0205988
1.22715
-0.00897515
1.23102
-0.000572748
1.23466
0.00522048
1.23829
0.00891218
1.24038
0.0203695
1.24233
0.022498
1.24423
0.0235064
1.24618
0.0236563
1.24822
0.0231438
1.25041
0.0221453
1.25277
0.0207963
1.25534
0.0192083
1.25812
0.0174725
1.26114
0.0156592
1.2644
0.0138211
1.26791
0.011989
1.27165
0.0102814
1.27565
0.00891661
1.27989
0.0073023
1.28437
0.00579598
1.28909
0.00495212
1.29404
0.00394674
1.29922
0.0029523
0.00232769
1.30463
0.535745
-1.80581
-0.370468
0.678687
-1.56405
0.800647
-1.32982
0.903242
-1.11978
0.988639
-0.929409
1.05899
-0.762571
1.11641
-0.618677
1.16284
-0.496092
1.2001
-0.392459
1.22975
-0.306006
1.25321
-0.233755
1.27163
-0.175626
1.28598
-0.130077
1.2971
-0.0942004
1.30576
-0.0653085
1.31256
-0.0429928
1.318
-0.0260428
1.32251
-0.0134884
1.32644
-0.00450663
1.33009
0.00157486
1.33369
0.00531372
1.3357
0.0183502
1.33757
0.0206379
1.33937
0.0216979
1.34122
0.0218149
1.34315
0.0212041
1.34524
0.0200572
1.34751
0.018522
1.35
0.0167202
1.35272
0.0147509
1.35569
0.0126908
1.35891
0.0105979
1.3624
0.0085071
1.36614
0.00653786
1.37015
0.00490593
1.37441
0.00303636
1.37893
0.00127904
1.3837
0.000175711
1.38873
-0.00107624
1.39399
-0.00230845
-0.00317062
1.39949
0.573847
-1.98486
-0.394797
0.728752
-1.71894
0.860947
-1.46202
0.972198
-1.23104
1.06483
-1.02205
1.14119
-0.838925
1.20352
-0.681013
1.25396
-0.54653
1.29443
-0.43293
1.32664
-0.338219
1.35211
-0.259229
1.37209
-0.195605
1.38762
-0.145606
1.39962
-0.106202
1.4089
-0.0745944
1.41613
-0.0502172
1.42184
-0.031755
1.42649
-0.0181456
1.43048
-0.00848946
1.4341
-0.00204841
1.43762
0.00178843
1.43953
0.0164377
1.44126
0.0189103
1.44292
0.020038
1.4446
0.0201301
1.44638
0.0194232
1.44831
0.018125
1.45043
0.0163974
1.45278
0.0143727
1.45537
0.0121589
1.45822
0.00983968
1.46134
0.00747857
1.46473
0.00511516
1.46839
0.00286993
1.47235
0.000955715
1.47656
-0.00118319
1.48105
-0.00320535
1.4858
-0.00458308
1.49082
-0.00609533
1.49609
-0.00757813
-0.0086911
1.50161
0.615154
-2.17894
-0.42107
0.783103
-1.8869
0.926482
-1.6054
1.04719
-1.35175
1.14775
-1.12261
1.23067
-0.921851
1.29841
-0.748747
1.35324
-0.601359
1.39724
-0.476939
1.43227
-0.373251
1.45997
-0.286922
1.48166
-0.217303
1.4985
-0.16244
1.51146
-0.119167
1.52144
-0.0845659
1.52912
-0.0579037
1.53511
-0.0377488
1.53991
-0.0229422
1.54392
-0.0124989
1.54748
-0.00561281
1.55088
-0.00161248
1.55264
0.0146761
1.55419
0.0173668
1.55564
0.0185836
1.5571
0.0186644
1.55866
0.0178672
1.56036
0.0164192
1.56226
0.0144955
1.56439
0.0122418
1.56677
0.00977436
1.56943
0.00718567
1.57236
0.00454429
1.57558
0.00189608
1.57908
-0.000638536
1.58289
-0.00284877
1.58697
-0.00527031
1.59134
-0.00756989
1.59598
-0.00923631
1.60091
-0.0110214
1.6061
-0.0127669
-0.0141428
1.61155
0.659911
-2.38944
-0.449422
0.842116
-2.0691
0.997713
-1.761
1.12877
-1.48281
1.238
-1.23185
1.32813
-1.01198
1.40179
-0.822408
1.46145
-0.661017
1.50935
-0.524844
1.54749
-0.411391
1.57763
-0.317064
1.60123
-0.2409
1.6195
-0.180714
1.63353
-0.133192
1.64425
-0.0952892
1.65243
-0.0660887
1.65872
-0.0440378
1.66365
-0.0278687
1.66765
-0.0165082
1.67111
-0.00907276
1.67432
-0.00482958
1.67588
0.0131169
1.67718
0.0160648
1.67836
0.0173995
1.67954
0.0174871
1.68079
0.0166114
1.68219
0.0150178
1.68378
0.012899
1.6856
0.0104125
1.68769
0.00768604
1.69005
0.00481935
1.69271
0.00188875
1.69565
-0.00105523
1.69891
-0.00389003
1.70246
-0.00640918
1.70632
-0.00912448
1.71045
-0.0117135
1.7149
-0.0136811
1.71963
-0.0157513
1.72463
-0.0177704
-0.0194213
1.72991
0.708409
-2.61785
-0.479987
0.90619
-2.26689
1.07516
-1.92996
1.21754
-1.62519
1.33628
-1.35059
1.43431
-1.11001
1.51448
-0.902577
1.57945
-0.725986
1.63164
-0.57704
1.67321
-0.452959
1.70606
-0.34991
1.73175
-0.266595
1.75161
-0.200576
1.76681
-0.148385
1.77835
-0.106833
1.78707
-0.0748107
1.79366
-0.0506307
1.79871
-0.0329106
1.80267
-0.0204791
1.80597
-0.0123713
1.80892
-0.00778535
1.81022
0.0118245
1.8112
0.0150783
1.81203
0.016566
1.81283
0.0166857
1.81369
0.0157476
1.81468
0.0140187
1.81587
0.0117091
1.81729
0.0089904
1.81897
0.00600161
1.82093
0.00285178
1.8232
-0.000375472
1.82576
-0.00362338
1.82864
-0.00676805
1.83184
-0.00960657
1.83534
-0.0126258
1.83914
-0.0155139
1.84325
-0.0177945
1.84766
-0.0201602
1.85235
-0.0224628
-0.024399
1.85733
0.760948
-2.86588
-0.512922
0.975782
-2.48172
1.15938
-2.11357
1.31418
-1.77999
1.44334
-1.47976
1.55005
-1.21672
1.63737
-0.989903
1.70819
-0.796801
1.76512
-0.633967
1.81047
-0.498311
1.8463
-0.385745
1.87432
-0.294607
1.89594
-0.222196
1.91242
-0.164863
1.92486
-0.119275
1.93416
-0.0841091
1.94106
-0.0575361
1.9462
-0.0380459
1.95008
-0.0243649
1.95315
-0.0154365
1.95575
-0.0103876
1.9567
0.0108765
1.95728
0.0144937
1.95767
0.0161787
1.95798
0.0163619
1.95835
0.0153845
1.95883
0.013535
1.9595
0.011044
1.96038
0.00809713
1.96154
0.00484712
1.96297
0.00141172
1.96472
-0.00211615
1.96676
-0.00567406
1.96913
-0.00913547
1.97182
-0.0123023
1.97483
-0.0156334
1.97814
-0.0188293
1.98179
-0.0214328
1.98572
-0.0241035
1.98997
-0.0266983
-0.028929
1.99449
0.817876
-3.13537
-0.548381
1.05138
-2.71522
1.25102
-2.31321
1.41943
-1.9484
1.56004
-1.62038
1.67629
-1.33297
1.77149
-1.0851
1.84874
-0.874058
1.91089
-0.696112
1.96042
-0.547843
1.99956
-0.424884
2.03014
-0.325186
2.0537
-0.245756
2.0716
-0.18276
2.08502
-0.1327
2.09494
-0.0940289
2.10217
-0.0647598
2.10737
-0.0432495
2.11112
-0.0281086
2.11386
-0.0181861
2.116
-0.0125267
2.11651
0.0103616
2.1166