/*--------------------------------*- C++ -*----------------------------------*\
| =========                 |                                                 |
| \\      /  F ield         | OpenFOAM: The Open Source CFD Toolbox           |
|  \\    /   O peration     | Version:  5.x                                   |
|   \\  /    A nd           | Web:      www.OpenFOAM.org                      |
|    \\/     M anipulation  |                                                 |
\*---------------------------------------------------------------------------*/
FoamFile
{
    version     2.0;
    format      ascii;
    class       surfaceScalarField;
    location    "50";
    object      phi;
}
// * * * * * * * * * * * * * * * * * * * * * * * * * * * * * * * * * * * * * //

dimensions      [0 3 -1 0 0 0 0];

internalField   nonuniform List<scalar> 
21876
(
0.00401504
-0.00679061
0.0025694
0.011435
-0.00741989
0.01609
-0.00465493
0.0202993
-0.00420946
0.0231005
-0.0028013
0.024854
-0.00175371
0.025848
-0.000994063
0.0262639
-0.000416178
0.0261071
0.000156771
0.0252238
0.000883039
0.0234952
0.00172877
0.0220333
0.00146156
0.0212697
0.000764139
0.0209005
0.000368276
0.0204105
0.000489553
0.0199282
0.000482314
0.0194251
0.000502802
0.018913
0.000512283
0.0184056
0.000507417
0.0179112
0.000495292
0.0174323
0.000478478
0.0170738
0.000359361
0.016729
0.000344893
0.0163967
0.000333023
0.0160716
0.000324958
0.0157529
0.000319524
0.0154338
0.000319202
0.015111
0.000323561
0.0147799
0.000331704
0.014437
0.00034391
0.0140769
0.000361168
0.0136916
0.000386404
0.0132694
0.000422874
0.0127929
0.000477335
0.0122329
0.00056016
0.0115597
0.000672788
0.0107261
0.00083356
0.00964635
0.00107866
0.00821315
0.00143535
0.00622934
0.00198472
0.00106066
0.00517047
0.00540501
-0.0135273
0.00133311
0.0124181
-0.0144326
0.0178769
-0.0101135
0.0225542
-0.00888665
0.0259918
-0.0062388
0.0283827
-0.00414453
0.0299499
-0.00256118
0.0308628
-0.00132901
0.0313265
-0.000306801
0.031435
0.00077468
0.0308801
0.00228391
0.0300552
0.0022866
0.0292925
0.0015272
0.0286354
0.00102492
0.0279034
0.0012211
0.0272241
0.0011615
0.0265771
0.0011493
0.0259421
0.00114719
0.0253136
0.00113482
0.0246925
0.00111642
0.0240724
0.00109739
0.0235981
0.000833925
0.0231473
0.000794878
0.0227157
0.000764564
0.0222967
0.000742505
0.0218891
0.000726615
0.0214875
0.000718947
0.0210887
0.000721098
0.0206876
0.00073057
0.0202785
0.000751535
0.0198533
0.000784404
0.0194024
0.000835397
0.0189139
0.000909452
0.0183723
0.00101673
0.0177521
0.0011784
0.017028
0.00139482
0.0161629
0.00169678
0.0150655
0.00217439
0.0136733
0.00282544
0.0115368
0.00411913
0.00390408
0.00869024
0.00708966
-0.020699
8.1234e-05
0.0142218
-0.0215651
0.0203819
-0.0162738
0.0257587
-0.0142635
0.0300136
-0.0104938
0.0331783
-0.00730931
0.0353994
-0.0047823
0.036821
-0.00275062
0.0375469
-0.00103282
0.0376949
0.000626755
0.0372351
0.00274367
0.0365745
0.00294724
0.0360091
0.00209257
0.0355145
0.00151929
0.0348922
0.00184323
0.0342506
0.00180323
0.0336107
0.00178933
0.0329667
0.00179147
0.0323189
0.00178284
0.0316692
0.00176677
0.0310121
0.0017548
0.0304988
0.00134796
0.030002
0.00129191
0.02952
0.00124733
0.0290478
0.00121503
0.0285841
0.00119126
0.0281237
0.00117981
0.0276637
0.00118215
0.0271984
0.00119681
0.0267209
0.00123021
0.0262212
0.00128515
0.0256877
0.00137018
0.0251063
0.00149197
0.0244592
0.00166512
0.0237189
0.00191959
0.0228607
0.00225363
0.0218494
0.00270894
0.0205969
0.00342655
0.0190733
0.00435051
0.0169158
0.00627671
0.00689927
0.0139208
0.00913743
-0.0284366
-0.00139977
0.0166176
-0.0290455
0.0233648
-0.0230212
0.0294136
-0.0203123
0.0344178
-0.0154981
0.0383253
-0.0112167
0.0412063
-0.00766326
0.0431755
-0.00471976
0.0443291
-0.00218636
0.0447787
0.000177343
0.0445073
0.00301524
0.0438854
0.0035693
0.043334
0.00264418
0.0429044
0.00194884
0.0423841
0.00236335
0.041805
0.00238218
0.0412075
0.0023865
0.0405935
0.00240514
0.0399665
0.00240902
0.0393331
0.00239962
0.0386903
0.00239678
0.0381842
0.00185365
0.0376896
0.0017858
0.0372035
0.00173272
0.0367208
0.0016966
0.0362407
0.0016703
0.0357589
0.00166
0.0352721
0.0016673
0.0347739
0.00169287
0.0342565
0.00174559
0.0337089
0.00183056
0.0331186
0.0019585
0.0324703
0.00213829
0.031745
0.00238866
0.0309128
0.00275028
0.0299482
0.00321682
0.028814
0.00384169
0.0274217
0.00481695
0.0257401
0.00602969
0.0235151
0.0084987
0.00986811
0.0205426
0.0115619
-0.0369062
-0.00309329
0.0195556
-0.0370396
0.0269094
-0.0303751
0.0336681
-0.0270711
0.0394772
-0.0213072
0.0442296
-0.0159691
0.0479124
-0.0113461
0.0505852
-0.00739256
0.0523128
-0.00391388
0.053206
-0.000715837
0.0532725
0.00294883
0.0528006
0.0040412
0.052258
0.00318682
0.0518041
0.00240268
0.0512853
0.00288226
0.0506924
0.00297513
0.0500775
0.00300148
0.0494488
0.00303392
0.0488073
0.00305079
0.0481611
0.00304608
0.0475106
0.00304786
0.0470012
0.00236341
0.0465073
0.00228015
0.0460247
0.0022157
0.0455475
0.00217424
0.0450728
0.00214541
0.0445946
0.0021387
0.0441073
0.0021552
0.0436033
0.00219755
0.0430743
0.00227517
0.0425096
0.00239602
0.041896
0.00257285
0.0412175
0.00281736
0.0404536
0.00315341
0.0395725
0.00363204
0.0385483
0.00424146
0.037343
0.00504756
0.0358721
0.00628774
0.0340951
0.00780729
0.0318631
0.0107306
0.0127891
0.0289413
0.0143888
-0.0462929
-0.00500235
0.0230903
-0.0457414
0.0311488
-0.0384337
0.038663
-0.0345855
0.0453045
-0.0279488
0.050947
-0.0216116
0.055519
-0.0159181
0.0590194
-0.010893
0.0614677
-0.00636208
0.0629749
-0.00222306
0.0635646
0.00235919
0.0634239
0.00418196
0.0629974
0.00361341
0.0625505
0.00284963
0.06203
0.00340265
0.0614106
0.00359453
0.0607499
0.00366186
0.0600716
0.00371191
0.059379
0.00374284
0.0586816
0.00374288
0.0579841
0.00374454
0.0574395
0.00290735
0.0569167
0.00280236
0.0564114
0.00272018
0.0559177
0.00266702
0.0554312
0.00263087
0.0549451
0.00262358
0.0544524
0.00264647
0.053945
0.00270339
0.0534139
0.00280454
0.0528476
0.0029606
0.0522318
0.00318684
0.0515497
0.0034979
0.0507791
0.00392258
0.0498874
0.00452242
0.0488499
0.00527762
0.0476298
0.00626628
0.046154
0.00776199
0.0443774
0.00958197
0.0422599
0.0128456
0.0155495
0.0394971
0.0176578
-0.0568354
-0.0071162
0.0273092
-0.0553931
0.0362363
-0.0473611
0.0445913
-0.0429406
0.0521057
-0.0354634
0.0586704
-0.0281763
0.0641924
-0.0214401
0.0686248
-0.0153254
0.0719357
-0.00967292
0.07422
-0.00450738
0.0755073
0.0010719
0.0758949
0.00379448
0.0757552
0.0037531
0.0754233
0.00318156
0.074962
0.00386392
0.0743565
0.00420001
0.0736657
0.0043525
0.0729351
0.00444232
0.072179
0.00449904
0.0714105
0.00451136
0.0706406
0.00451481
0.0700363
0.00351155
0.0694581
0.00338058
0.0689022
0.00327592
0.0683631
0.00320614
0.0678357
0.00315809
0.0673134
0.00314579
0.0667891
0.0031706
0.0662546
0.00323776
0.0657014
0.00335758
0.0651183
0.00354355
0.0644914
0.0038135
0.0638036
0.00418563
0.0630315
0.00469455
0.0621421
0.00541167
0.061114
0.00630558
0.0599148
0.0074652
0.0584904
0.0091859
0.0567998
0.0112723
0.0549154
0.0147295
0.0179887
0.0524754
0.0214261
-0.0688338
-0.0094281
0.0323201
-0.0662873
0.0423425
-0.0573838
0.0516814
-0.0522798
0.0601453
-0.0439274
0.0676705
-0.0357017
0.0741811
-0.0279507
0.079615
-0.0207594
0.0839017
-0.0139595
0.0871125
-0.00771832
0.089273
-0.00108845
0.0904007
0.00266673
0.0907642
0.00338959
0.0907146
0.00323114
0.090422
0.00415642
0.0899135
0.00470828
0.0892521
0.00501375
0.0885046
0.00518955
0.087704
0.00529932
0.0868714
0.00534351
0.0860259
0.0053597
0.0853515
0.00418552
0.0847038
0.00402785
0.0840806
0.00389873
0.0834772
0.00380889
0.082889
0.00374579
0.0823094
0.00372479
0.0817309
0.00374846
0.0811453
0.00382267
0.0805439
0.00395824
0.0799165
0.00417008
0.0792506
0.00447861
0.0785305
0.00490497
0.0777344
0.00548991
0.076831
0.00631424
0.0758046
0.00733127
0.0746295
0.0086396
0.0732748
0.0105399
0.0717115
0.0128347
0.0701118
0.0163283
0.0199735
0.068126
0.0257651
-0.0826636
-0.0119358
0.0382532
-0.0787757
0.0496625
-0.0687934
0.0601968
-0.0628143
0.0697426
-0.0534735
0.0782977
-0.0442568
0.0858334
-0.0354867
0.0923092
-0.027235
0.0976428
-0.0192935
0.10189
-0.0119657
0.105076
-0.00427371
0.107143
0.000599172
0.10825
0.00228242
0.108708
0.00277322
0.108754
0.0041094
0.108477
0.00498554
0.107953
0.00553761
0.107268
0.00587444
0.106479
0.00608779
0.105622
0.00620028
0.104727
0.00625489
0.103991
0.00492054
0.103276
0.00474204
0.102584
0.00459067
0.101911
0.00448103
0.101255
0.00440151
0.100609
0.00437011
0.0999663
0.0043906
0.0993176
0.00447073
0.098654
0.00462118
0.0979651
0.00485831
0.0972395
0.00520344
0.0964637
0.00568003
0.0956194
0.0063335
0.0946792
0.00725378
0.0936366
0.00837317
0.0924748
0.00980074
0.0911839
0.01183
0.0897546
0.0142634
0.0884129
0.0176693
0.0214733
0.0869125
0.0307635
-0.0987852
-0.0146422
0.0452676
-0.0932801
0.0584246
-0.0819505
0.0704395
-0.0748296
0.0812713
-0.0643054
0.0909821
-0.0539679
0.0996087
-0.0441133
0.10716
-0.0347863
0.113577
-0.0257108
0.118922
-0.0173104
0.123226
-0.00857795
0.126389
-0.00256413
0.128461
0.000210217
0.129681
0.00155298
0.130296
0.00349443
0.130441
0.00484001
0.130218
0.00576041
0.12973
0.0063628
0.129058
0.00675901
0.12826
0.00699838
0.127379
0.00713498
0.126618
0.00568145
0.125863
0.00549725
0.125119
0.00533431
0.12439
0.00520989
0.123674
0.00511755
0.122967
0.00507617
0.122264
0.00509417
0.121555
0.00517966
0.12083
0.00534584
0.12008
0.00560818
0.119294
0.00598951
0.118461
0.00651275
0.117566
0.00722802
0.116587
0.0082323
0.115529
0.00943158
0.114385
0.0109446
0.113161
0.013053
0.111875
0.0155499
0.110747
0.018797
0.022546
0.109674
0.0365328
-0.117758
-0.0175604
0.0535588
-0.110306
0.0689028
-0.0972947
0.0827641
-0.0886911
0.0951668
-0.0767081
0.106235
-0.0650364
0.116076
-0.0539539
0.124765
-0.0434753
0.132296
-0.0332419
0.13876
-0.0237753
0.144217
-0.0140346
0.148558
-0.00690593
0.151756
-0.00298802
0.153968
-0.000658548
0.155402
0.00206007
0.156206
0.00403561
0.156503
0.00546406
0.156405
0.00646022
0.156016
0.00714734
0.155415
0.00759888
0.154664
0.00788619
0.15395
0.00639506
0.153211
0.00623683
0.152463
0.00608223
0.151715
0.00595876
0.15097
0.0058621
0.150229
0.00581778
0.149488
0.00583567
0.148739
0.00592889
0.147974
0.00611075
0.147184
0.00639868
0.14636
0.00681394
0.145494
0.00737921
0.144575
0.00814662
0.143588
0.00921947
0.142548
0.0104728
0.141459
0.0120334
0.140338
0.0141748
0.139226
0.0166616
0.138306
0.0197174
0.0232693
0.137582
0.043214
-0.140257
-0.020715
0.0633695
-0.130462
0.0814325
-0.115358
0.0975951
-0.104854
0.111942
-0.0910552
0.124656
-0.0777507
0.135913
-0.0652109
0.145863
-0.0534249
0.154569
-0.0419478
0.162174
-0.0313804
0.168782
-0.0206431
0.174316
-0.0124402
0.178716
-0.0073879
0.182076
-0.00401881
0.184544
-0.000407827
0.186247
0.00233198
0.187307
0.00440412
0.187839
0.00592837
0.187953
0.00703214
0.187747
0.00780534
0.1873
0.00833304
0.186752
0.00694443
0.186129
0.00686029
0.18546
0.00675116
0.184765
0.00665449
0.184054
0.00657342
0.183333
0.00653889
0.182604
0.00656559
0.181863
0.00667054
0.181104
0.00686966
0.180322
0.00718156
0.17951
0.00762665
0.178664
0.00822575
0.177779
0.00903177
0.176846
0.0101532
0.175889
0.0114297
0.174925
0.0129974
0.173974
0.0151268
0.173093
0.0175424
0.172422
0.0203891
0.0236812
0.17201
0.0509855
-0.167099
-0.0241444
0.0750022
-0.154479
0.0964269
-0.136783
0.115448
-0.123875
0.132209
-0.107817
0.146951
-0.0924931
0.159918
-0.0781777
0.171333
-0.0648401
0.181339
-0.0519541
0.190142
-0.0401837
0.197908
-0.028409
0.204616
-0.0191484
0.210221
-0.012993
0.214794
-0.00859173
0.218432
-0.004046
0.221224
-0.000459615
0.223271
0.00235633
0.224677
0.00452228
0.225546
0.0061625
0.22598
0.00737322
0.226067
0.00824622
0.225851
0.00716207
0.22549
0.00722084
0.225031
0.00721146
0.224503
0.00718209
0.223929
0.00714841
0.223321
0.00714595
0.22269
0.00719759
0.222037
0.00732281
0.221364
0.00754297
0.220669
0.00787664
0.219951
0.00834543
0.21921
0.00896643
0.218448
0.00979419
0.217661
0.0109401
0.216883
0.0122077
0.216139
0.0137416
0.215448
0.0158176
0.214876
0.0181148
0.214525
0.0207404
0.0237575
0.214449
0.0600723
-0.199269
-0.0279028
0.0888335
-0.183241
0.114397
-0.162347
0.136954
-0.146432
0.156709
-0.127572
0.173964
-0.109749
0.189032
-0.0932458
0.202212
-0.0780204
0.21373
-0.0634721
0.223859
-0.0503138
0.232836
-0.0373862
0.240716
-0.0270283
0.247502
-0.0197788
0.25328
-0.0143697
0.258131
-0.00889768
0.262114
-0.00444299
0.265307
-0.000836121
0.26779
0.00203829
0.269653
0.00430114
0.270981
0.00604503
0.271866
0.00736375
0.272187
0.00683984
0.272281
0.00712857
0.272204
0.00728706
0.272005
0.00738202
0.271714
0.00743801
0.271358
0.00750212
0.270953
0.00760146
0.270513
0.00776319
0.270044
0.00801072
0.269555
0.00836674
0.269047
0.00885178
0.268532
0.009482
0.268013
0.0103123
0.267494
0.011458
0.267016
0.0126858
0.266607
0.0141497
0.266287
0.0161381
0.266118
0.0182827
0.26618
0.0206786
0.0234234
0.266513
0.0707572
-0.237965
-0.0320625
0.105333
-0.217817
0.135978
-0.192993
0.162892
-0.173345
0.186348
-0.15103
0.206717
-0.130118
0.224385
-0.110915
0.239732
-0.0933677
0.25307
-0.0768107
0.264746
-0.0619904
0.275068
-0.0477085
0.284176
-0.0361367
0.292144
-0.0277471
0.299102
-0.0213273
0.305149
-0.0149451
0.310344
-0.00963823
0.314751
-0.00524346
0.318436
-0.00164609
0.321465
0.00127194
0.32391
0.00360094
0.325843
0.00543067
0.326924
0.00575917
0.327686
0.00636634
0.328202
0.0067712
0.328529
0.0070541
0.328713
0.00725348
0.32879
0.00742497
0.328786
0.00760415
0.328726
0.00782332
0.328625
0.00811121
0.328498
0.00849278
0.328359
0.00899018
0.328222
0.00961805
0.3281
0.0104335
0.328001
0.0115564
0.327968
0.0127181
0.328033
0.0140842
0.328212
0.0159583
0.328564
0.01793
0.329151
0.0200909
0.0225733
0.330001
0.0833909
-0.284641
-0.0367157
0.125081
-0.259508
0.161953
-0.229866
0.194224
-0.205616
0.222244
-0.179051
0.246464
-0.154337
0.267353
-0.131805
0.285382
-0.111397
0.300955
-0.0923849
0.314499
-0.0755344
0.326397
-0.0596074
0.336879
-0.0466191
0.3461
-0.036968
0.35425
-0.029477
0.361474
-0.0221695
0.36786
-0.0160242
0.373483
-0.0108676
0.37841
-0.00657239
0.382697
-0.00301524
0.386401
-0.000103172
0.389579
0.00225183
0.391614
0.00372475
0.393253
0.00472723
0.394575
0.00544895
0.395646
0.00598257
0.396521
0.00637841
0.397244
0.00670143
0.397853
0.00699487
0.398378
0.00729723
0.398847
0.00764197
0.399282
0.0080574
0.399705
0.00856724
0.400136
0.00918606
0.400595
0.00997381
0.401095
0.0110563
0.401679
0.0121328
0.402381
0.0133821
0.403213
0.0151252
0.404229
0.016914
0.405476
0.0188428
0.021076
0.406973
0.0984008
-0.34107
-0.0419728
0.14879
-0.309897
0.193287
-0.274364
0.232134
-0.244463
0.265772
-0.212691
0.294745
-0.18331
0.319623
-0.156685
0.340977
-0.132751
0.359319
-0.110728
0.375164
-0.091379
0.388978
-0.0734226
0.401084
-0.0587255
0.411723
-0.047608
0.421157
-0.0389105
0.429592
-0.030605
0.437167
-0.0235988
0.443992
-0.0176931
0.450155
-0.0127347
0.455721
-0.00858235
0.46075
-0.00513133
0.46529
-0.0022888
0.468415
0.000600502
0.471093
0.00204761
0.473407
0.00313614
0.475421
0.00396765
0.477198
0.00460238
0.478785
0.0051134
0.480229
0.00555113
0.481566
0.00595985
0.482831
0.00637773
0.484051
0.0068364
0.485257
0.00736164
0.486474
0.00796861
0.487727
0.00872101
0.489032
0.00975122
0.490432
0.0107317
0.491959
0.0118547
0.493624
0.0134594
0.495473
0.0150656
0.497541
0.0167733
0.0187754
0.499842
0.10547
-0.402972
-0.0435684
0.160746
-0.365174
0.209504
-0.323123
0.251998
-0.286958
0.288725
-0.249419
0.320277
-0.214862
0.347283
-0.183692
0.370369
-0.155838
0.390108
-0.130469
0.407061
-0.108333
0.421739
-0.088102
0.434524
-0.0715097
0.445714
-0.0587993
0.455617
-0.0488128
0.464483
-0.0394721
0.472497
-0.0316117
0.479802
-0.0249991
0.486516
-0.0194473
0.492721
-0.014789
0.49849
-0.0108993
0.503872
-0.00767173
0.507744
-0.0032702
0.511187
-0.00139612
0.514274
4.93966e-05
0.517066
0.00117492
0.519621
0.00204863
0.521984
0.00274986
0.524201
0.00333483
0.526307
0.00385268
0.52834
0.00434557
0.530328
0.00484815
0.532302
0.00538829
0.534288
0.00598227
0.536311
0.00669752
0.53839
0.00767265
0.54056
0.00856069
0.542849
0.00956537
0.545266
0.0110419
0.547845
0.0124861
0.550613
0.0140037
0.0158098
0.553579
0.111145
-0.469561
-0.0445575
0.170604
-0.424633
0.223011
-0.375531
0.268634
-0.33258
0.308012
-0.288798
0.341784
-0.248634
0.370623
-0.212533
0.395204
-0.180418
0.416149
-0.151415
0.434057
-0.126241
0.449474
-0.10352
0.462826
-0.0848614
0.474459
-0.070433
0.484712
-0.0590653
0.493872
-0.0486328
0.502159
-0.0398982
0.50975
-0.0325905
0.516789
-0.0264853
0.523383
-0.0213842
0.529622
-0.0171374
0.535568
-0.0136188
0.539969
-0.00766999
0.543974
-0.00540135
0.54765
-0.00362615
0.551053
-0.00222864
0.554237
-0.00113367
0.557242
-0.000256452
0.560114
0.000464245
0.562884
0.00108178
0.565589
0.00164194
0.568255
0.00218212
0.570911
0.00273236
0.573583
0.0033104
0.576294
0.00398709
0.57906
0.00490636
0.581913
0.00570806
0.584873
0.00660504
0.58795
0.00796522
0.591169
0.00926714
0.59455
0.0106217
0.0122596
0.598101
0.117559
-0.541276
-0.0458432
0.181594
-0.48867
0.238006
-0.431944
0.287076
-0.381651
0.329393
-0.331116
0.365641
-0.284883
0.396546
-0.243438
0.42283
-0.206702
0.44517
-0.173757
0.464206
-0.145277
0.480521
-0.119836
0.494583
-0.0989234
0.50678
-0.0826309
0.517483
-0.0697672
0.527009
-0.0581601
0.535613
-0.0485013
0.543499
-0.0404775
0.550839
-0.0338251
0.557766
-0.0283114
0.564388
-0.0237587
0.570785
-0.020017
0.575612
-0.012496
0.58007
-0.00986127
0.584229
-0.00778382
0.588138
-0.00613916
0.591851
-0.00484562
0.595406
-0.00381249
0.598845
-0.00297396
0.602198
-0.00227221
0.605498
-0.00165822
0.608771
-0.00109152
0.612044
-0.000539977
0.615337
1.60563e-05
0.618674
0.000650329
0.622068
0.0015112
0.625546
0.00223011
0.629123
0.00302674
0.632809
0.00427839
0.636624
0.00545204
0.640582
0.00666238
0.00815107
0.64469
0.124718
-0.61859
-0.0474077
0.19375
-0.557702
0.254539
-0.492735
0.30739
-0.434502
0.352939
-0.376666
0.391924
-0.323867
0.425122
-0.276639
0.453315
-0.234894
0.477231
-0.197675
0.497557
-0.165602
0.514915
-0.137195
0.52982
-0.113826
0.542694
-0.095508
0.553945
-0.0810157
0.563917
-0.0681341
0.572898
-0.0574801
0.581115
-0.0486976
0.588772
-0.0414794
0.596017
-0.0355589
0.602986
-0.030726
0.609773
-0.0268067
0.614966
-0.0176864
0.619809
-0.0147066
0.624376
-0.0123485
0.628714
-0.0104797
0.632879
-0.00900923
0.636906
-0.00784146
0.640838
-0.00690416
0.6447
-0.0061361
0.648527
-0.00548372
0.652338
-0.00490425
0.656162
-0.00436244
0.660014
-0.00383714
0.663916
-0.00325152
0.667881
-0.00245412
0.671929
-0.00181776
0.676074
-0.00111823
0.680324
2.83613e-05
0.684695
0.00108207
0.689197
0.00216024
0.00351199
0.693837
0.132648
-0.702002
-0.0492386
0.207123
-0.632178
0.272691
-0.558303
0.329675
-0.491487
0.378767
-0.425759
0.420758
-0.365859
0.456489
-0.312371
0.486796
-0.265201
0.512471
-0.22335
0.534244
-0.187376
0.55279
-0.155741
0.56866
-0.129697
0.582326
-0.109173
0.594216
-0.0929068
0.604718
-0.0786349
0.614137
-0.0669003
0.622739
-0.0572988
0.630739
-0.0494799
0.638319
-0.0431387
0.645625
-0.0380331
0.65278
-0.0339612
0.658301
-0.0232093
0.663491
-0.0198954
0.668413
-0.0172723
0.67313
-0.0151963
0.677687
-0.0135678
0.682129
-0.0122837
0.68649
-0.0112663
0.690803
-0.010449
0.695092
-0.00977455
0.699384
-0.00919639
0.703697
-0.0086769
0.708051
-0.0081923
0.712462
-0.00766367
0.716944
-0.0069367
0.721511
-0.00638585
0.726176
-0.00578376
0.730947
-0.00474279
0.735834
-0.00380578
0.740847
-0.00285368
-0.00163287
0.745991
0.141385
-0.792055
-0.0513323
0.221789
-0.712586
0.292567
-0.629081
0.354064
-0.552986
0.40703
-0.478724
0.452315
-0.411146
0.490828
-0.350883
0.523464
-0.29784
0.551085
-0.250969
0.574469
-0.210762
0.594345
-0.175615
0.611305
-0.14666
0.62587
-0.123736
0.638494
-0.105534
0.649605
-0.0897428
0.659531
-0.0768289
0.668569
-0.0663348
0.676953
-0.0578661
0.684892
-0.0510758
0.692546
-0.0456898
0.700062
-0.041475
0.7059
-0.0290494
0.71141
-0.0254041
0.71666
-0.0225238
0.721717
-0.0202513
0.726625
-0.0184783
0.731436
-0.0170925
0.736178
-0.0160104
0.740889
-0.0151589
0.745591
-0.0144769
0.750309
-0.0139136
0.75506
-0.0134287
0.759864
-0.0129955
0.764733
-0.012533
0.769681
-0.0118849
0.77472
-0.0114245
0.779859
-0.0109229
0.785107
-0.00999058
0.790472
-0.00917042
0.795962
-0.00834218
-0.00725007
0.80158
0.150974
-0.889343
-0.0536898
0.237839
-0.799451
0.314292
-0.705536
0.380714
-0.619409
0.43791
-0.535922
0.4868
-0.460036
0.528359
-0.392444
0.563558
-0.333039
0.593319
-0.28073
0.618486
-0.23593
0.639836
-0.196965
0.658018
-0.164841
0.673586
-0.139305
0.687043
-0.118991
0.698838
-0.101539
0.709343
-0.087333
0.718868
-0.075862
0.727684
-0.066681
0.736009
-0.0594025
0.744034
-0.0537147
0.751913
-0.0493552
0.758067
-0.0352036
0.763883
-0.0312223
0.769445
-0.0280847
0.774813
-0.0256213
0.780046
-0.0237114
0.785186
-0.0222346
0.790275
-0.021099
0.79534
-0.020226
0.800411
-0.0195488
0.805509
-0.0190128
0.810653
-0.0185737
0.815858
-0.0182024
0.821139
-0.0178154
0.826508
-0.0172551
0.831973
-0.0168915
0.837544
-0.0164952
0.843229
-0.015677
0.849034
-0.0149766
0.854965
-0.0142738
-0.0133119
0.861026
0.161476
-0.994505
-0.0563136
0.255374
-0.893354
0.338015
-0.788177
0.409806
-0.691202
0.47162
-0.597737
0.52445
-0.512867
0.569346
-0.437341
0.607352
-0.371046
0.639466
-0.312844
0.666596
-0.26306
0.689575
-0.219946
0.709109
-0.184374
0.725796
-0.155993
0.740178
-0.133373
0.752742
-0.114103
0.76389
-0.0984808
0.773962
-0.085935
0.783251
-0.0759692
0.791998
-0.0681508
0.800413
-0.0621297
0.808667
-0.0576108
0.815138
-0.0416745
0.821258
-0.0373438
0.827116
-0.0339427
0.83278
-0.0312869
0.838312
-0.0292432
0.843757
-0.0276808
0.849157
-0.0264997
0.854543
-0.025614
0.859944
-0.0249515
0.865382
-0.0244525
0.870877
-0.0240692
0.876442
-0.023769
0.882091
-0.0234662
0.887838
-0.0230023
0.893688
-0.0227423
0.89965
-0.0224571
0.905731
-0.0217591
0.911938
-0.021183
0.918273
-0.0206086
-0.0197801
0.924743
0.172955
-1.10825
-0.0592135
0.274519
-0.994917
0.363901
-0.877563
0.44155
-0.768852
0.508405
-0.664595
0.565539
-0.570001
0.614083
-0.485887
0.655166
-0.412128
0.68986
-0.347539
0.719147
-0.292346
0.74392
-0.244721
0.764946
-0.205398
0.782869
-0.173918
0.798277
-0.148779
0.811692
-0.12752
0.823553
-0.11034
0.834226
-0.0966098
0.844033
-0.0857738
0.853234
-0.0773534
0.862062
-0.070956
0.870703
-0.066253
0.877496
-0.048466
0.883917
-0.0437657
0.890064
-0.0400878
0.896009
-0.0372326
0.90182
-0.0350521
0.907544
-0.0334054
0.913229
-0.0321821
0.918904
-0.0312895
0.924602
-0.0306484
0.930345
-0.0301943
0.936151
-0.0298749
0.942037
-0.029654
0.948015
-0.0294439
0.954099
-0.0290849
0.960292
-0.0289359
0.966605
-0.0287685
0.973043
-0.0281981
0.979613
-0.027752
0.986314
-0.0273111
-0.0266212
0.993156
0.185492
-1.23135
-0.0623956
0.295407
-1.10484
0.392142
-0.974298
0.47618
-0.852892
0.54854
-0.736956
0.610375
-0.631838
0.662911
-0.538424
0.70736
-0.456578
0.744883
-0.385062
0.776534
-0.323998
0.803283
-0.271469
0.825947
-0.228063
0.845234
-0.193204
0.861769
-0.165315
0.876123
-0.141873
0.888764
-0.122983
0.900098
-0.107943
0.910463
-0.09614
0.920153
-0.087043
0.929412
-0.0802164
0.938452
-0.0752932
0.945571
-0.0555858
0.952294
-0.050488
0.958719
-0.0465145
0.964934
-0.0434468
0.971004
-0.0411226
0.976987
-0.0393879
0.982926
-0.0381228
0.988862
-0.0372254
0.994823
-0.0366099
1.00083
-0.0362061
1.00692
-0.0359569
1.01308
-0.0358221
1.01935
-0.0357116
1.02573
-0.0354652
1.03222
-0.0354337
1.03884
-0.0353905
1.0456
-0.0349547
1.05249
-0.0346451
1.05952
-0.0343431
-0.0337976
1.06669
0.199169
-1.36464
-0.0658782
0.318196
-1.22386
0.422949
-1.07906
0.513962
-0.943905
0.592332
-0.815328
0.659306
-0.698814
0.716207
-0.595325
0.764341
-0.504714
0.804963
-0.425685
0.839209
-0.358244
0.868122
-0.300383
0.892588
-0.25253
0.91337
-0.213987
0.931144
-0.18309
0.946526
-0.157255
0.960022
-0.13648
0.97207
-0.119991
0.983038
-0.10711
0.993245
-0.0972498
1.00296
-0.0899285
1.0124
-0.084739
1.01985
-0.0630379
1.02687
-0.0575081
1.03357
-0.0532131
1.04004
-0.049915
1.04635
-0.0474345
1.05256
-0.0456043
1.05873
-0.0442932
1.06489
-0.0433899
1.07108
-0.0428012
1.07733
-0.0424503
1.08364
-0.042275
1.09005
-0.0422309
1.09656
-0.0422253
1.10319
-0.0420972
1.10995
-0.0421888
1.11683
-0.0422754
1.12386
-0.0419806
1.13102
-0.0418131
1.13834
-0.0416554
-0.0412599
1.1458
0.21409
-1.50906
-0.069669
0.343053
-1.35283
0.456564
-1.19257
0.55519
-1.04254
0.640128
-0.900267
0.71272
-0.771409
0.774396
-0.657001
0.826566
-0.556885
0.870583
-0.469702
0.907672
-0.395335
0.93896
-0.331671
0.965401
-0.278973
0.987824
-0.236409
1.00695
-0.202222
1.02346
-0.173759
1.03788
-0.150908
1.0507
-0.132811
1.06232
-0.118724
1.07307
-0.108001
1.08325
-0.100106
1.0931
-0.0945918
1.10088
-0.0708226
1.10819
-0.0648187
1.11515
-0.0601698
1.12185
-0.0566167
1.12838
-0.053962
1.1348
-0.0520238
1.14117
-0.0506583
1.14752
-0.0497443
1.1539
-0.04918
1.16033
-0.0488819
1.16684
-0.0487821
1.17344
-0.0488314
1.18015
-0.0489343
1.18699
-0.0489296
1.19395
-0.0491491
1.20105
-0.0493706
1.20829
-0.049223
1.21568
-0.0492035
1.22323
-0.0491954
-0.0489558
1.23092
0.230357
-1.66563
-0.0737924
0.370177
-1.49265
0.493246
-1.31564
0.600197
-1.14949
0.692313
-0.992385
0.771053
-0.850149
0.837955
-0.723904
0.894545
-0.613475
0.942281
-0.51744
0.982489
-0.435542
1.01638
-0.365562
1.04499
-0.307582
1.0692
-0.260627
1.08982
-0.222837
1.10755
-0.191487
1.12298
-0.166343
1.13663
-0.146463
1.14893
-0.131026
1.16025
-0.119321
1.17091
-0.110762
1.18116
-0.10485
1.18928
-0.078939
1.19687
-0.0724113
1.20407
-0.0673694
1.21098
-0.0635312
1.2177
-0.0606794
1.22429
-0.0586161
1.23081
-0.0571841
1.23732
-0.0562509
1.24384
-0.0557058
1.25042
-0.0554576
1.25707
-0.0554323
1.26381
-0.0555755
1.27067
-0.0557888
1.27765
-0.0559105
1.28476
-0.0562612
1.29201
-0.056621
1.29941
-0.0566255
1.30697
-0.0567584
1.31468
-0.0569047
-0.0568257
1.32255
0.248101
-1.83547
-0.0782588
0.399776
-1.64433
0.5333
-1.44916
0.649349
-1.26554
0.749322
-1.09236
0.834789
-0.935618
0.907416
-0.796532
0.968849
-0.674909
1.02066
-0.569256
1.06429
-0.479169
1.10104
-0.402309
1.13202
-0.338565
1.1582
-0.286811
1.18044
-0.245071
1.19949
-0.210546
1.21602
-0.182868
1.23056
-0.161004
1.24359
-0.144052
1.2555
-0.131233
1.26663
-0.121898
1.27729
-0.115502
1.28572
-0.0873785
1.29358
-0.080268
1.301
-0.0747863
1.30809
-0.0706258
1.31496
-0.0675478
1.32168
-0.0653369
1.32832
-0.0638213
1.33493
-0.0628564
1.34154
-0.0623215
1.3482
-0.0621173
1.35494
-0.0621629
1.36176
-0.0623983
1.36869
-0.0627217
1.37575
-0.062971
1.38295
-0.0634546
1.39028
-0.0639553
1.39777
-0.0641157
1.40542
-0.0644049
1.41322
-0.0647094
-0.0647958
1.4212
0.267448
-2.01982
-0.0830978
0.432098
-1.80897
0.577051
-1.59412
0.703061
-1.39155
0.811634
-1.20093
0.904473
-1.02846
0.983375
-0.875435
1.05012
-0.741654
1.10641
-0.625546
1.15379
-0.526547
1.19367
-0.442187
1.22725
-0.372151
1.25559
-0.315146
1.27959
-0.269074
1.30009
-0.231052
1.3178
-0.200571
1.33329
-0.176498
1.34708
-0.157844
1.3596
-0.143754
1.37121
-0.133516
1.38224
-0.126531
1.39099
-0.0961285
1.39909
-0.0883676
1.40669
-0.0823909
1.41393
-0.0778639
1.42091
-0.0745243
1.42771
-0.0721378
1.4344
-0.0705166
1.44105
-0.0695029
1.44769
-0.0689652
1.45437
-0.0687951
1.46111
-0.0689045
1.46794
-0.069227
1.47487
-0.0696575
1.48193
-0.0700333
1.48913
-0.0706491
1.49646
-0.071291
1.50395
-0.0716093
1.51161
-0.0720569
1.51942
-0.0725221
-0.0727773
1.5274
0.288562
-2.22006
-0.0883246
0.467402
-1.98782
0.624875
-1.75159
0.761792
-1.52847
0.87979
-1.31893
0.980711
-1.12938
1.0665
-0.961222
1.13907
-0.814229
1.20027
-0.686749
1.25177
-0.578043
1.29509
-0.485503
1.33153
-0.408591
1.36222
-0.345836
1.38815
-0.295007
1.41023
-0.253129
1.4292
-0.219542
1.4457
-0.193006
1.46029
-0.172435
1.47344
-0.156895
1.48552
-0.145606
1.4969
-0.137906
1.50594
-0.105166
1.51424
-0.0966759
1.52199
-0.0901399
1.52932
-0.0851935
1.53635
-0.0815495
1.54316
-0.0789526
1.54984
-0.077198
1.55645
-0.0761132
1.56304
-0.0755551
1.56965
-0.0754054
1.57632
-0.0755681
1.58306
-0.0759696
1.5899
-0.0765014
1.59687
-0.0769997
1.60396
-0.077745
1.6112
-0.0785262
1.61859
-0.0790024
1.62614
-0.0796086
1.63386
-0.0802352
-0.0806604
1.64174
0.311604
-2.43769
-0.0939719
0.505996
-2.18221
0.677183
-1.92278
0.826058
-1.67735
0.954395
-1.44727
1.06418
-1.23917
1.15753
-1.05457
1.23651
-0.893209
1.30311
-0.75335
1.35913
-0.634064
1.40622
-0.532594
1.44579
-0.448162
1.47906
-0.379105
1.5071
-0.323045
1.53088
-0.276912
1.55122
-0.239881
1.56881
-0.210592
1.58423
-0.187862
1.598
-0.170666
1.61054
-0.158149
1.62222
-0.149587
1.63152
-0.114463
1.63999
-0.105152
1.64783
-0.0979818
1.65519
-0.0925543
1.66219
-0.0885547
1.66894
-0.0857056
1.67552
-0.0837829
1.68201
-0.0825989
1.68845
-0.0819973
1.69489
-0.0818492
1.70137
-0.0820497
1.70792
-0.0825181
1.71456
-0.0831412
1.72131
-0.0837549
1.72819
-0.0846233
1.7352
-0.0855392
1.74237
-0.0861702
1.74969
-0.086933
1.75718
-0.0877192
-0.0883141
1.76483
0.336772
-2.6744
-0.10006
0.548211
-2.39365
0.734443
-2.10901
0.89644
-1.83934
1.03612
-1.58696
1.15566
-1.35871
1.25731
-1.15622
1.34333
-0.979229
1.41587
-0.825887
1.47686
-0.695063
1.52811
-0.583835
1.57112
-0.491172
1.60721
-0.415199
1.63755
-0.353383
1.66318
-0.302546
1.68499
-0.261688
1.70372
-0.229323
1.72001
-0.204154
1.73441
-0.185064
1.74737
-0.171116
1.7593
-0.161516
1.76881
-0.123974
1.77739
-0.113739
1.78525
-0.105846
1.79256
-0.0998645
1.79945
-0.0954486
1.80604
-0.0922964
1.81242
-0.0901636
1.81867
-0.0888452
1.82484
-0.0881708
1.83099
-0.0880002
1.83716
-0.0882186
1.84338
-0.0887371
1.84967
-0.0894379
1.85607
-0.0901559
1.86259
-0.0911381
1.86923
-0.0921806
1.87602
-0.0929611
1.88296
-0.0938753
1.89006
-0.0948169
-0.0955784
1.89733
0.364271
-2.93204
-0.106626
0.594429
-2.6238
0.797176
-2.31176
0.973585
-2.01575
1.12574
-1.73912
1.25599
-1.48895
1.36678
-1.26701
1.46055
-1.073
1.53962
-0.904958
1.60609
-0.761538
1.6619
-0.639642
1.70869
-0.537958
1.74788
-0.454389
1.78073
-0.38623
1.80837
-0.330188
1.83175
-0.285074
1.85169
-0.249262
1.86888
-0.221336
1.88389
-0.200078
1.89724
-0.18446
1.90933
-0.173615
1.919
-0.133642
1.92762
-0.122362
1.93542
-0.113646
1.94258
-0.107026
1.94926
-0.102121
1.95557
-0.0986063
1.96162
-0.0962124
1.96749
-0.094717
1.97325
-0.0939337
1.97896
-0.09371
1.98466