/*--------------------------------*- C++ -*----------------------------------*\
| =========                 |                                                 |
| \\      /  F ield         | OpenFOAM: The Open Source CFD Toolbox           |
|  \\    /   O peration     | Version:  5.x                                   |
|   \\  /    A nd           | Web:      www.OpenFOAM.org                      |
|    \\/     M anipulation  |                                                 |
\*---------------------------------------------------------------------------*/
FoamFile
{
    version     2.0;
    format      ascii;
    class       volVectorField;
    location    "50";
    object      U;
}
// * * * * * * * * * * * * * * * * * * * * * * * * * * * * * * * * * * * * * //

dimensions      [0 1 -1 0 0 0 0];

internalField   nonuniform List<vector> 
11040
(
(1.8872 0.482858 0)
(1.90548 6.01873 -7.59947e-20)
(4.05334 11.0045 9.41036e-18)
(7.13899 14.0935 1.28988e-17)
(10.5186 15.6052 3.56422e-17)
(13.6911 15.8824 -2.00411e-17)
(16.4394 15.3077 -2.11396e-17)
(18.7071 14.1815 2.26033e-17)
(20.4659 12.6907 5.46058e-17)
(21.5819 10.8714 1.77786e-18)
(21.7965 8.60548 3.04723e-17)
(21.3699 6.4352 -1.93629e-18)
(20.9415 4.87328 3.20111e-17)
(20.8255 3.8804 3.39083e-17)
(20.7291 3.03398 3.0002e-17)
(20.4793 2.22825 1.99563e-17)
(20.0914 1.49111 -1.79546e-17)
(19.6271 0.833576 -1.95334e-18)
(19.1139 0.24829 1.98033e-18)
(18.5626 -0.270769 1.54265e-17)
(17.9772 -0.726119 1.51472e-17)
(17.4503 -1.08907 1.58218e-17)
(16.9728 -1.36128 3.05173e-17)
(16.5001 -1.58971 1.97182e-18)
(16.0325 -1.78354 -2.40175e-20)
(15.5693 -1.94809 -9.86993e-19)
(15.1091 -2.08805 6.14263e-17)
(14.6462 -2.20565 -9.40694e-19)
(14.1763 -2.30159 6.15102e-17)
(13.6949 -2.37495 -5.91795e-17)
(13.2012 -2.4256 -9.45677e-19)
(12.693 -2.45385 -4.56143e-19)
(12.1681 -2.46173 4.67608e-19)
(11.6197 -2.45142 0)
(11.0315 -2.42503 -1.17392e-16)
(10.3822 -2.38158 0)
(9.63561 -2.31455 0)
(8.75602 -2.21432 2.30723e-19)
(7.59946 -2.04127 -3.49091e-20)
(6.28509 -1.77635 1.33844e-16)
(3.54757 -1.48671 3.1618e-16)
(3.07354 1.30026 0)
(3.30407 5.64453 0)
(5.67729 9.5524 -5.64186e-18)
(8.85268 11.9719 7.91332e-18)
(12.2535 13.1414 -2.13492e-17)
(15.4274 13.3301 2.64562e-17)
(18.1665 12.8152 1.39856e-17)
(20.4149 11.8173 2.0169e-18)
(22.1776 10.5073 -9.78179e-19)
(23.5788 9.08889 2.17603e-17)
(24.5459 7.46516 -2.43711e-18)
(24.7255 5.95039 0)
(24.3644 4.81209 0)
(23.9327 3.94451 -2.06795e-17)
(23.5999 3.05483 -2.3378e-17)
(23.2101 2.20179 -1.82617e-17)
(22.7481 1.43967 0)
(22.2388 0.760255 1.26918e-18)
(21.6867 0.150597 -3.8024e-18)
(21.0921 -0.392028 -2.49755e-18)
(20.4546 -0.869655 -1.09651e-17)
(19.8591 -1.24815 -1.02996e-17)
(19.3287 -1.5349 -1.2626e-18)
(18.8078 -1.77941 2.15977e-17)
(18.2952 -1.99018 -1.8881e-17)
(17.7905 -2.17108 -1.27969e-18)
(17.2922 -2.32587 -3.95066e-17)
(16.7972 -2.45541 6.03263e-19)
(16.3009 -2.55938 -3.92856e-17)
(15.7998 -2.63711 3.81897e-17)
(15.2905 -2.69013 3.82733e-17)
(14.7704 -2.72124 -3.83464e-17)
(14.2367 -2.735 1.73539e-20)
(13.6846 -2.73512 8.53e-19)
(13.1026 -2.72413 3.5396e-17)
(12.4765 -2.69949 0)
(11.7775 -2.6515 2.6649e-19)
(10.9885 -2.56885 -6.86774e-17)
(9.97239 -2.40539 -6.74761e-17)
(8.90243 -2.16453 -6.63371e-17)
(6.45178 -1.63971 -2.20262e-16)
(4.66294 1.82937 0)
(5.10405 5.32814 0)
(6.88635 8.56343 1.70066e-18)
(9.31574 10.8185 -5.18443e-18)
(12.0404 12.191 6.20489e-18)
(14.7579 12.7461 -9.35972e-18)
(17.2656 12.613 -9.05405e-18)
(19.4549 11.9475 0)
(21.2603 10.8877 -1.74048e-17)
(22.6866 9.54882 -1.12756e-17)
(23.7233 7.93703 0)
(24.1999 6.42753 0)
(24.2458 5.24839 -1.54404e-17)
(24.1648 4.30787 -1.56497e-17)
(24.0664 3.36982 -1.96948e-18)
(23.8597 2.4826 2.00677e-18)
(23.5387 1.68241 0)
(23.1422 0.960437 0)
(22.688 0.307176 9.8929e-19)
(22.1783 -0.278932 -1.91765e-18)
(21.6136 -0.79937 1.92757e-18)
(21.0712 -1.21303 -6.04716e-18)
(20.5756 -1.53179 -4.78536e-20)
(20.0802 -1.8064 1.28532e-17)
(19.5863 -2.04437 1.01846e-18)
(19.0945 -2.24921 9.36279e-19)
(18.6044 -2.4245 1.1088e-20)
(18.1138 -2.57086 -9.58595e-19)
(17.6197 -2.68876 0)
(17.1185 -2.7783 0)
(16.6072 -2.8426 -5.79055e-17)
(16.083 -2.88515 5.64867e-17)
(15.5427 -2.91108 -2.75306e-17)
(14.982 -2.92325 0)
(14.39 -2.92275 -2.69467e-17)
(13.7554 -2.90506 -2.64627e-17)
(13.0541 -2.85936 0)
(12.2761 -2.77017 -2.36946e-19)
(11.304 -2.59861 1.96876e-19)
(10.3388 -2.3171 0)
(8.30475 -1.83094 9.70644e-17)
(6.28308 2.22461 -1.00284e-19)
(6.78019 5.05572 1.19128e-19)
(8.13666 7.69785 1.39549e-18)
(10.0438 9.68215 0)
(12.2943 11.0262 -9.66362e-18)
(14.6585 11.6967 0)
(16.943 11.7451 2.05369e-17)
(19.0119 11.279 -2.5303e-19)
(20.7726 10.4138 2.38172e-18)
(22.1855 9.26849 1.86108e-17)
(23.2114 7.87233 2.74071e-18)
(23.7559 6.46859 8.56185e-18)
(23.9199 5.29697 2.70368e-17)
(23.9488 4.35601 1.23022e-17)
(23.9527 3.46042 0)
(23.8637 2.60124 -3.08012e-18)
(23.6585 1.80876 5.14728e-20)
(23.3672 1.08494 -3.04763e-18)
(23.0107 0.423837 -1.52437e-18)
(22.5948 -0.175308 1.54391e-18)
(22.1212 -0.712331 5.9955e-18)
(21.6567 -1.14467 6.4012e-18)
(21.2242 -1.48147 0)
(20.7843 -1.77352 -2.6848e-17)
(20.3387 -2.02794 1.41262e-17)
(19.889 -2.2482 -1.24127e-17)
(19.436 -2.4378 2.4554e-17)
(18.9786 -2.59774 0)
(18.5142 -2.72905 0)
(18.0395 -2.83217 0)
(17.5516 -2.91016 2.30735e-17)
(17.0478 -2.96604 -2.33387e-17)
(16.5261 -3.0042 7.08625e-19)
(15.9827 -3.02651 2.24211e-17)
(15.4086 -3.03308 2.05994e-17)
(14.7944 -3.01838 2.11371e-17)
(14.1191 -2.97166 4.06729e-17)
(13.3758 -2.87498 3.89284e-17)
(12.4616 -2.69851 1.52661e-19)
(11.565 -2.38379 3.61443e-17)
(9.84506 -1.93354 -3.59222e-17)
(7.80562 2.5044 0)
(8.31734 4.78876 -5.14054e-19)
(9.3747 6.91644 -1.12421e-18)
(10.8496 8.62112 1.94674e-19)
(12.6563 9.89307 6.81493e-18)
(14.6411 10.6501 -9.14545e-18)
(16.6496 10.8817 -7.3124e-19)
(18.5477 10.6376 -1.28518e-17)
(20.2248 9.99715 0)
(21.6211 9.05639 -1.73405e-17)
(22.6926 7.84891 0)
(23.3437 6.55894 -4.70002e-18)
(23.6185 5.41507 -1.43075e-17)
(23.7138 4.46747 0)
(23.7575 3.58415 9.66543e-18)
(23.722 2.73354 0)
(23.5802 1.9421 0)
(23.3523 1.21689 2.51085e-18)
(23.0584 0.551998 2.47743e-18)
(22.7055 -0.0541335 0)
(22.2964 -0.600503 -4.82086e-18)
(21.8902 -1.04348 0)
(21.5089 -1.39074 0)
(21.119 -1.69343 1.02131e-17)
(20.7223 -1.95833 0)
(20.3203 -2.18925 -1.00619e-17)
(19.9134 -2.38982 -1.99662e-17)
(19.5004 -2.56176 0)
(19.0781 -2.70623 0)
(18.6435 -2.82332 0)
(18.1937 -2.91488 -2.00405e-17)
(17.727 -2.98278 -1.67709e-17)
(17.2416 -3.03031 1.75633e-17)
(16.7352 -3.05895 5.42596e-19)
(16.2004 -3.06856 -5.49582e-19)
(15.6297 -3.05382 0)
(15.0056 -3.00472 -3.28743e-17)
(14.3241 -2.90218 3.18064e-17)
(13.497 -2.724 -3.07054e-17)
(12.6921 -2.394 -2.86652e-17)
(11.2527 -1.96655 -5.66787e-20)
(9.21407 2.68194 2.01579e-19)
(9.70963 4.51741 2.69197e-19)
(10.5492 6.21779 -1.68742e-18)
(11.6856 7.64988 1.09011e-18)
(13.1113 8.80326 -1.64276e-18)
(14.7362 9.58381 9.14216e-18)
(16.4531 9.94617 -1.13415e-17)
(18.1471 9.89404 1.02349e-17)
(19.7052 9.46885 5.81089e-18)
(21.0538 8.74139 -3.14379e-18)
(22.1461 7.74981 0)
(22.894 6.61841 0)
(23.2899 5.5369 3.7845e-18)
(23.4678 4.592 -3.88809e-18)
(23.5539 3.71655 -1.57073e-17)
(23.5577 2.87658 3.95332e-18)
(23.4602 2.08903 -7.97742e-18)
(23.2751 1.36356 5.37171e-20)
(23.0219 0.696167 -3.93806e-18)
(22.7096 0.0848865 7.89659e-18)
(22.3419 -0.468489 -9.76565e-18)
(21.973 -0.919259 4.15254e-18)
(21.6244 -1.27392 -2.09654e-18)
(21.2671 -1.58374 -2.04581e-18)
(20.9034 -1.85535 1.03158e-17)
(20.535 -2.09321 2.75035e-20)
(20.1626 -2.30138 1.83402e-17)
(19.7852 -2.48221 1.4099e-17)
(19.3998 -2.63679 0)
(19.0035 -2.76471 0)
(18.5931 -2.86637 1.46071e-17)
(18.1668 -2.94255 3.15216e-17)
(17.7231 -2.99554 9.21401e-19)
(17.2607 -3.0268 -1.46644e-17)
(16.774 -3.03657 -1.51759e-17)
(16.2579 -3.02037 1.43327e-17)
(15.698 -2.96966 -4.29603e-19)
(15.0939 -2.86521 -5.20633e-17)
(14.3731 -2.69127 5.00705e-17)
(13.6817 -2.36441 -9.00352e-20)
(12.5216 -1.96669 -2.29009e-17)
(10.4973 2.77073 0)
(10.9587 4.24108 8.61365e-19)
(11.6365 5.59469 2.95057e-18)
(12.5165 6.77544 1.1681e-18)
(13.6287 7.78319 4.96282e-18)
(14.9301 8.53462 5.79012e-18)
(16.3555 8.97299 -1.03957e-17)
(17.8203 9.07369 3.73478e-18)
(19.2249 8.84491 0)
(20.4926 8.32777 5.27918e-18)
(21.5747 7.55445 -1.10276e-17)
(22.3915 6.60471 1.15113e-17)
(22.9006 5.62266 -4.12721e-20)
(23.1754 4.70923 0)
(23.321 3.85261 3.26397e-18)
(23.3714 3.03051 1.1284e-20)
(23.32 2.25174 3.26692e-18)
(23.1764 1.52794 3.28969e-18)
(22.9594 0.859136 -1.6197e-18)
(22.6805 0.243897 -2.80428e-18)
(22.3448 -0.31538 3.29502e-18)
(22.0035 -0.772871 3.4341e-18)
(21.6781 -1.134 0)
(21.3428 -1.44997 -3.34942e-18)
(21.0006 -1.7272 -6.68787e-18)
(20.6535 -1.97049 8.46238e-18)
(20.3027 -2.18404 -4.96921e-18)
(19.948 -2.37062 -1.3252e-17)
(19.5873 -2.53145 1.61784e-18)
(19.2179 -2.66605 -4.21098e-20)
(18.8369 -2.77394 9.57795e-18)
(18.4426 -2.85497 3.13552e-18)
(18.034 -2.91046 1.07786e-17)
(17.6103 -2.94176 0)
(17.1674 -2.9496 1.17909e-17)
(16.7026 -2.93077 -1.21913e-17)
(16.2051 -2.87852 1.1543e-17)
(15.6778 -2.7746 4.30217e-17)
(15.0655 -2.60853 -2.02628e-17)
(14.4891 -2.29974 -7.4641e-20)
(13.599 -1.93723 3.75481e-17)
(11.6501 2.78723 -1.15948e-18)
(12.069 3.9626 3.53606e-19)
(12.6242 5.03785 1.42331e-19)
(13.3134 5.99695 -3.79187e-18)
(14.1781 6.85025 -2.20957e-18)
(15.2032 7.53455 -7.46186e-18)
(16.3566 7.99749 5.75378e-18)
(17.5842 8.20272 9.85218e-18)
(18.8094 8.13595 -6.82931e-18)
(19.9634 7.81168 0)
(20.9993 7.25005 -4.55133e-18)
(21.8468 6.49591 -1.96609e-19)
(22.4452 5.64794 -1.94778e-19)
(22.8175 4.8008 4.98627e-18)
(23.0366 3.98104 5.17788e-18)
(23.1444 3.18705 -5.24886e-18)
(23.1466 2.42551 0)
(23.0513 1.70899 0)
(22.8755 1.04206 6.66735e-18)
(22.6326 0.425067 -5.726e-18)
(22.3295 -0.138837 2.6015e-18)
(22.0147 -0.602424 -2.86107e-18)
(21.7102 -0.969808 -2.77643e-18)
(21.3938 -1.29176 0)
(21.0689 -1.57431 -2.74166e-18)
(20.7381 -1.82229 2.78751e-18)
(20.4031 -2.0399 5.48805e-18)
(20.0644 -2.23027 0)
(19.7207 -2.395 0)
(19.3698 -2.53393 -1.312e-18)
(19.0093 -2.64614 -1.04625e-17)
(18.6376 -2.73078 -9.02117e-18)
(18.2539 -2.78814 -1.90402e-17)
(17.8581 -2.81919 -1.26198e-18)
(17.4481 -2.82482 0)
(17.023 -2.80279 5.83172e-19)
(16.5764 -2.7483 -9.79762e-18)
(16.1127 -2.64545 8.97784e-20)
(15.5948 -2.48752 -1.74664e-17)
(15.1151 -2.20599 -1.59577e-17)
(14.4554 -1.87716 -1.55567e-17)
(12.6725 2.74709 6.61649e-19)
(13.0466 3.68546 1.08125e-20)
(13.507 4.53841 -1.51481e-18)
(14.0544 5.30872 3.41981e-18)
(14.7285 6.01329 0)
(15.5286 6.609 4.30089e-18)
(16.4431 7.05514 -9.03638e-18)
(17.4433 7.31617 -5.72917e-18)
(18.4772 7.36722 5.48012e-18)
(19.4913 7.20414 6.58936e-18)
(20.4454 6.83381 4.40147e-19)
(21.2812 6.27487 -1.4686e-17)
(21.9328 5.58525 0)
(22.3884 4.83934 4.07559e-18)
(22.6856 4.08196 -8.3433e-18)
(22.8595 3.33209 -4.21658e-18)
(22.9229 2.6005 -4.33516e-18)
(22.8843 1.90085 4.39539e-18)
(22.7581 1.24213 -2.18044e-18)
(22.5583 0.627809 0)
(22.2933 0.0622645 5.44007e-18)
(22.0088 -0.405687 -9.21671e-18)
(21.7277 -0.778601 6.83131e-18)
(21.4318 -1.10627 -6.60557e-20)
(21.1252 -1.39415 -4.50277e-18)
(20.8107 -1.64675 4.57384e-18)
(20.4908 -1.86808 0)
(20.1665 -2.06139 -1.10907e-17)
(19.8375 -2.22877 -4.39244e-18)
(19.5024 -2.37073 -2.20671e-18)
(19.159 -2.48657 8.59398e-18)
(18.8056 -2.57511 2.08921e-18)
(18.4415 -2.6357 -2.10794e-18)
(18.067 -2.66838 1.00522e-18)
(17.6814 -2.67344 5.99027e-18)
(17.2858 -2.6492 9.89639e-19)
(16.878 -2.59254 0)
(16.4629 -2.49099 -1.51212e-17)
(16.0194 -2.34008 1.45977e-17)
(15.6122 -2.08964 1.34728e-17)
(15.1209 -1.79258 0)
(13.5689 2.66458 0)
(13.8995 3.41329 0)
(14.2846 4.08907 0)
(14.7257 4.7024 -9.18211e-18)
(15.2552 5.27282 6.51387e-18)
(15.878 5.77321 -3.38822e-18)
(16.5936 6.17543 -3.94876e-18)
(17.3901 6.45106 -3.35138e-19)
(18.2365 6.57414 4.47032e-18)
(19.0965 6.53109 5.27539e-18)
(19.9405 6.31886 -5.42791e-18)
(20.7235 5.93784 6.27757e-18)
(21.3854 5.41426 -2.57126e-19)
(21.8956 4.79663 6.56599e-18)
(22.2619 4.12995 -1.35821e-17)
(22.5037 3.44559 1.0493e-17)
(22.633 2.76109 7.09548e-18)
(22.6577 2.0923 -7.17983e-18)
(22.5895 1.45209 3.61439e-18)
(22.4414 0.84789 0)
(22.2225 0.286058 8.0445e-18)
(21.9748 -0.182782 -5.67982e-18)
(21.7222 -0.559311 -1.85101e-18)
(21.4515 -0.891572 3.71644e-18)
(21.1669 -1.18432 -7.46679e-18)
(20.8719 -1.44149 0)
(20.5694 -1.66668 0)
(20.2613 -1.86297 3.70955e-18)
(19.9481 -2.03283 1.8093e-17)
(19.6291 -2.17735 7.12227e-18)
(19.3028 -2.29644 -7.0554e-18)
(18.9676 -2.38896 -1.71176e-18)
(18.6229 -2.45372 8.54813e-18)
(18.269 -2.48975 1.64806e-18)
(17.9058 -2.4966 -9.80317e-18)
(17.536 -2.47259 1.6218e-18)
(17.1604 -2.4156 6.25018e-18)
(16.7847 -2.31685 -7.45353e-19)
(16.3993 -2.1733 -1.10586e-17)
(16.0472 -1.9539 0)
(15.6662 -1.68982 0)
(14.3465 2.5524 0)
(14.6363 3.1496 0)
(14.9607 3.68422 -4.62534e-21)
(15.3204 4.1692 5.36718e-18)
(15.7404 4.62409 0)
(16.2266 5.03294 6.16647e-18)
(16.7832 5.37791 3.29198e-18)
(17.4075 5.63906 0)
(18.0836 5.79456 -7.89693e-18)
(18.7899 5.82884 3.57195e-18)
(19.5077 5.73392 -5.12649e-19)
(20.206 5.49989 4.71688e-18)
(20.8362 5.13141 -5.34617e-18)
(21.363 4.65345 0)
(21.7752 4.09998 -1.09788e-17)
(22.075 3.50359 1.12825e-17)
(22.2676 2.88623 0)
(22.3576 2.26606 0)
(22.353 1.65892 2.94145e-18)
(22.2642 1.07603 -1.18895e-17)
(22.0996 0.526416 5.86687e-18)
(21.8961 0.0625044 0)
(21.6783 -0.31392 -6.08678e-18)
(21.4385 -0.648251 1.0286e-19)
(21.1813 -0.944269 6.17099e-18)
(20.9108 -1.2052 -3.00686e-18)
(20.6302 -1.43402 0)
(20.342 -1.63345 0)
(20.0476 -1.80585 2.87426e-18)
(19.7472 -1.95276 -1.1668e-17)
(19.4401 -2.07462 5.74943e-18)
(19.1254 -2.17072 -5.72488e-18)
(18.8024 -2.23973 -2.82062e-18)
(18.4715 -2.28017 0)
(18.1332 -2.29081 -4.03567e-18)
(17.7905 -2.26987 -3.68145e-20)
(17.4468 -2.21574 -1.15134e-17)
(17.1072 -2.1231 0)
(16.7699 -1.98988 9.61643e-18)
(16.4637 -1.80025 -9.45689e-18)
(16.1539 -1.57213 0)
(15.0141 2.42148 0)
(15.2666 2.89764 2.6199e-18)
(15.541 3.31976 -2.30878e-18)
(15.8373 3.70102 0)
(16.1738 4.05954 -5.27897e-18)
(16.5559 4.38655 -1.70589e-19)
(16.9888 4.67145 2.28191e-17)
(17.4742 4.90153 -2.99666e-17)
(18.0051 5.0607 1.87955e-17)
(18.5702 5.1355 1.72705e-17)
(19.16 5.11727 -1.42967e-17)
(19.7554 4.99239 -3.98368e-18)
(20.3215 4.75355 8.13928e-18)
(20.8268 4.4084 -4.27385e-18)
(21.2526 3.97707 1.38534e-17)
(21.589 3.48505 -9.19027e-18)
(21.832 2.95344 -4.63979e-18)
(21.9811 2.40073 -2.35758e-18)
(22.0394 1.8439 -8.45529e-18)
(22.0132 1.29691 1.82999e-17)
(21.9087 0.771341 -9.68774e-18)
(21.7557 0.320978 -3.08995e-19)
(21.5789 -0.0493465 -1.25612e-18)
(21.3759 -0.381218 0)
(21.1522 -0.677142 7.40074e-18)
(20.9117 -0.939576 -2.48601e-18)
(20.6583 -1.17063 -7.27053e-18)
(20.395 -1.37251 4.89114e-18)
(20.1239 -1.54714 -9.56573e-18)
(19.846 -1.69616 4.79087e-18)
(19.5616 -1.82021 0)
(19.2705 -1.91918 6.94509e-18)
(18.9726 -1.99193 2.29611e-18)
(18.6685 -2.03706 -2.20096e-18)
(18.359 -2.05298 1.31001e-17)
(18.0471 -2.03797 2.11898e-18)
(17.7373 -1.99068 4.16623e-18)
(17.4344 -1.90848 -4.09931e-18)
(17.1398 -1.79048 -4.00542e-18)
(16.8739 -1.6304 7.44925e-18)
(16.6143 -1.4404 2.38049e-19)
(15.5815 2.28089 0)
(15.8004 2.66021 -1.35791e-19)
(16.033 2.99263 -2.20025e-18)
(16.2788 3.29072 -9.16822e-18)
(16.551 3.57059 4.3522e-18)
(16.8539 3.82777 -5.04627e-18)
(17.1921 4.05632 -5.28678e-18)
(17.5687 4.24872 2.03746e-17)
(17.9815 4.39409 -5.45582e-18)
(18.4255 4.48245 -1.14284e-17)
(18.897 4.5067 1.82913e-17)
(19.3859 4.4538 -1.2515e-17)
(19.8695 4.31196 -6.60444e-18)
(20.3242 4.07885 3.62255e-18)
(20.7313 3.7629 0)
(21.0759 3.37974 0)
(21.3477 2.94524 1.95346e-17)
(21.5407 2.47519 2.16144e-18)
(21.6527 1.98543 -1.58177e-17)
(21.6856 1.49056 1.01776e-18)
(21.6419 1.00348 -8.92088e-18)
(21.5425 0.578055 1.65033e-17)
(21.4108 0.22219 -8.11994e-18)
(21.2496 -0.100388 0)
(21.0643 -0.390894 9.95164e-19)
(20.8592 -0.65061 -7.93044e-18)
(20.6383 -0.880915 9.99977e-18)
(20.4052 -1.08315 -7.79907e-18)
(20.1623 -1.25878 5.92404e-18)
(19.9114 -1.40898 0)
(19.6538 -1.53457 -3.78771e-18)
(19.3902 -1.63561 -7.4673e-18)
(19.1212 -1.71155 3.73007e-18)
(18.8477 -1.76124 -3.58716e-18)
(18.5706 -1.7835 -1.71414e-18)
(18.2931 -1.77682 3.50681e-18)
(18.0194 -1.74036 -5.16065e-18)
(17.7538 -1.67309 3.32491e-18)
(17.4989 -1.57534 2.43752e-18)
(17.2689 -1.44568 4.11526e-19)
(17.0485 -1.29411 -5.89353e-18)
(16.059 2.1378 2.12197e-18)
(16.248 2.43949 8.54701e-18)
(16.4453 2.70035 -8.08158e-18)
(16.6502 2.93209 0)
(16.8721 3.14867 8.58571e-20)
(17.1142 3.34811 0)
(17.3801 3.52725 2.61105e-17)
(17.6731 3.68191 -2.19318e-17)
(17.993 3.80518 -1.87376e-17)
(18.3381 3.8903 2.37384e-17)
(18.7079 3.93234 -1.00861e-17)
(19.0979 3.92079 5.19718e-18)
(19.4945 3.8439 5.62532e-18)
(19.8821 3.69525 1.16005e-17)
(20.2462 3.476 3.15699e-19)
(20.572 3.19316 -1.21864e-17)
(20.8472 2.85609 9.64762e-18)
(21.0625 2.47585 -1.27513e-17)
(21.2118 2.06496 0)
(21.2923 1.63637 -1.30924e-17)
(21.3031 1.20251 8.59188e-19)
(21.2555 0.814732 1.28358e-17)
(21.1697 0.483627 -1.01049e-19)
(21.0522 0.179022 0)
(20.9083 -0.0987357 -8.24081e-19)
(20.7423 -0.34976 -8.01834e-19)
(20.5583 -0.57445 0)
(20.3598 -0.773345 0)
(20.1497 -0.947214 2.14905e-20)
(19.9305 -1.09675 0)
(19.704 -1.22254 4.63216e-18)
(19.4717 -1.32475 0)
(19.2349 -1.40323 -5.95745e-18)
(18.995 -1.45738 5.92431e-18)
(18.7531 -1.48659 0)
(18.512 -1.48995 -2.83948e-18)
(18.2754 -1.46713 2.78256e-18)
(18.0469 -1.41814 -1.39362e-18)
(17.8289 -1.34401 -4.05627e-18)
(17.6313 -1.24531 3.26869e-19)
(17.4437 -1.13067 7.34795e-18)
(16.457 1.99766 -5.73977e-18)
(16.6193 2.23695 -2.28275e-19)
(16.7867 2.44068 3.72571e-18)
(16.958 2.61968 7.35156e-18)
(17.14 2.78584 1.85585e-17)
(17.3349 2.93853 -2.21007e-17)
(17.5456 3.07617 5.19761e-20)
(17.7747 3.19661 1.5579e-17)
(18.0229 3.29562 -3.16392e-17)
(18.2899 3.36893 -4.26497e-19)
(18.5765 3.4134 2.09479e-17)
(18.8814 3.42142 -8.78437e-18)
(19.1969 3.38332 1.83701e-17)
(19.5135 3.29218 -2.77137e-17)
(19.8215 3.14579 4.76802e-18)
(20.1093 2.9457 0)
(20.3656 2.69581 2.33931e-17)
(20.5807 2.4024 -2.08479e-17)
(20.7464 2.07376 -2.13736e-17)
(20.8575 1.71957 4.02154e-17)
(20.9099 1.35016 -2.13326e-17)
(20.9064 1.01139 1.00201e-18)
(20.8625 0.715341 8.45203e-20)
(20.7871 0.43813 1.06464e-17)
(20.6846 0.181566 -2.11115e-17)
(20.5587 -0.0534007 1.12138e-17)
(20.4135 -0.266111 -9.71296e-18)
(20.2525 -0.456392 1.16773e-17)
(20.0786 -0.624231 1.14481e-17)
(19.8946 -0.769891 -1.01934e-17)
(19.7026 -0.893546 -2.49982e-18)
(19.5048 -0.995425 -3.66634e-18)
(19.3028 -1.07548 1.0959e-17)
(19.0984 -1.13368 -9.59687e-18)
(18.8928 -1.16992 4.75878e-18)
(18.6886 -1.18394 2.3224e-18)
(18.4887 -1.17583 0)
(18.2958 -1.14623 2.23006e-18)
(18.112 -1.09636 2.18801e-18)
(17.9439 -1.02738 2.17687e-18)
(17.785 -0.946396 -2.09096e-18)
(16.7848 1.86429 -9.60793e-20)
(16.9236 2.05333 -8.46743e-19)
(17.0653 2.21146 -3.26057e-18)
(17.2088 2.3487 6.67655e-18)
(17.3587 2.475 -2.58409e-17)
(17.5168 2.59042 2.62435e-17)
(17.685 2.69424 -3.26716e-17)
(17.8654 2.78546 -2.02856e-17)
(18.0587 2.86157 6.26751e-18)
(18.2653 2.91995 -5.64946e-19)
(18.4864 2.95875 2.82914e-17)
(18.7218 2.97282 7.20165e-20)
(18.9675 2.955 0)
(19.218 2.89948 7.87551e-18)
(19.4675 2.80322 -7.98078e-18)
(19.708 2.6652 8.04396e-18)
(19.9308 2.48598 0)
(20.1275 2.26813 -1.72161e-17)
(20.2903 2.0162 3.69102e-17)
(20.4131 1.73648 -1.31065e-17)
(20.4902 1.43619 1.75298e-17)
(20.5182 1.15357 -1.90942e-17)
(20.5081 0.900564 -5.32052e-19)
(20.4688 0.659121 1.96818e-19)
(20.4037 0.431878 -1.70758e-17)
(20.3159 0.2207 1.70891e-17)
(20.2087 0.0269655 -5.34985e-19)
(20.0854 -0.148441 -1.05923e-18)
(19.9488 -0.304987 8.24894e-18)
(19.8016 -0.442431 -9.27661e-18)
(19.646 -0.560687 1.02147e-18)
(19.4842 -0.6598 -1.00735e-18)
(19.3182 -0.739837 3.93578e-18)
(19.1498 -0.80095 -2.00975e-18)
(18.9804 -0.843437 -7.68869e-18)
(18.812 -0.867408 1.92224e-18)
(18.6473 -0.873233 -1.85206e-18)
(18.4878 -0.861792 3.68638e-18)
(18.3355 -0.834276 -1.81181e-18)
(18.1946 -0.791815 -1.7657e-18)
(18.0616 -0.739913 0)
(17.0512 1.73988 9.30968e-18)
(17.1692 1.88839 -1.72576e-17)
(17.2889 2.01021 -1.78514e-17)
(17.409 2.11465 4.5983e-17)
(17.5329 2.2098 -1.70345e-17)
(17.6616 2.29601 4.01333e-17)
(17.7967 2.37302 -3.43977e-17)
(17.9396 2.44044 5.20528e-17)
(18.0911 2.49682 -5.27097e-17)
(18.2515 2.54058 -3.73506e-19)
(18.422 2.57066 2.40466e-17)
(18.6028 2.58369 3.11875e-18)
(18.7917 2.57471 2.5412e-17)
(18.9859 2.53944 -2.54628e-17)
(19.1818 2.47514 2.65436e-17)
(19.3744 2.38007 -3.009e-17)
(19.5578 2.25338 0)
(19.7257 2.0955 2.45634e-17)
(19.8717 1.90836 -2.99321e-17)
(19.9901 1.69543 2.69414e-17)
(20.0755 1.46124 1.39373e-19)
(20.121 1.23558 -4.17932e-17)
(20.1337 1.02908 4.54166e-19)
(20.1215 0.828407 1.42206e-17)
(20.0866 0.636362 2.70028e-23)
(20.0312 0.455173 0)
(19.958 0.286602 1.3671e-17)
(19.8696 0.131927 -1.34415e-17)
(19.7685 -0.00797286 0)
(19.6569 -0.13254 8.41538e-19)
(19.5369 -0.241453 0)
(19.4106 -0.334593 -6.48221e-18)
(19.2799 -0.411973 7.28094e-18)
(19.1464 -0.473772 6.3199e-18)
(19.0116 -0.520399 -1.25408e-17)
(18.8771 -0.552099 6.99151e-18)
(18.7451 -0.569303 7.61877e-19)
(18.6167 -0.572912 -1.4986e-18)
(18.4933 -0.563922 1.47503e-18)
(18.3776 -0.543263 0)
(18.2681 -0.514941 1.42468e-18)
(17.2566 1.6311 0)
(17.3572 1.74832 2.35075e-17)
(17.4587 1.84245 1.63408e-19)
(17.5598 1.92229 -3.18675e-17)
(17.663 1.99429 -2.13243e-17)
(17.769 2.05881 2.11724e-17)
(17.8789 2.11586 -2.1305e-17)
(17.9938 2.16535 -2.14668e-17)
(18.1143 2.20643 -4.36781e-17)
(18.2407 2.23815 5.46728e-17)
(18.374 2.25988 -5.56611e-18)
(18.5144 2.26941 -5.64714e-18)
(18.6606 2.26336 2.3183e-17)
(18.811 2.23871 -1.74115e-17)
(18.9635 2.19337 -2.68098e-17)
(19.1151 2.12572 2.09432e-17)
(19.2618 2.03456 2.77289e-17)
(19.3992 1.91947 -2.77684e-17)
(19.5227 1.78101 0)
(19.6276 1.62088 -3.1536e-18)
(19.7092 1.44161 -3.15378e-18)
(19.7602 1.26544 -2.55109e-17)
(19.7846 1.10139 5.04053e-17)
(19.7889 0.93963 -2.55088e-17)
(19.7745 0.782615 -1.24546e-17)
(19.7429 0.632451 4.2466e-19)
(19.6959 0.490895 1.2307e-17)
(19.6356 0.359301 -1.92552e-19)
(19.5638 0.238665 -1.16739e-20)
(19.4823 0.129687 -1.18054e-17)
(19.393 0.0328201 1.18599e-17)
(19.2976 -0.05169 5.81786e-18)
(19.1976 -0.123764 -6.15747e-18)
(19.0947 -0.183512 5.6804e-18)
(18.99 -0.231298 -4.95721e-18)
(18.885 -0.267341 -4.15853e-18)
(18.7812 -0.292006 2.07042e-18)
(18.6796 -0.306084 -6.7641e-19)
(18.5812 -0.310337 0)
(18.4877 -0.30546 0)
(18.3988 -0.294213 6.61741e-21)
(17.4088 1.54147 1.04121e-17)
(17.4956 1.63532 -1.13313e-17)
(17.5827 1.70905 4.98019e-18)
(17.669 1.77094 9.8618e-18)
(17.7562 1.82613 0)
(17.8449 1.87493 -1.98727e-17)
(17.9361 1.91749 5.01939e-17)
(18.0304 1.95389 -3.0084e-17)
(18.1284 1.98361 1.01915e-17)
(18.2302 2.00605 -1.03406e-17)
(18.3366 2.02084 5.25103e-18)
(18.4479 2.02649 4.79983e-17)
(18.5631 2.02068 -8.59402e-17)
(18.6813 2.00132 3.77728e-17)
(18.8012 1.96688 5.56017e-18)
(18.9208 1.91611 2.24453e-17)
(19.0375 1.84792 -7.08134e-17)
(19.1482 1.76169 3.12079e-17)
(19.2497 1.65742 4.91258e-17)
(19.3385 1.5359 -2.03088e-17)
(19.411 1.39848 5.8448e-18)
(19.4602 1.26149 0)
(19.4886 1.13222 0)
(19.5014 1.00336 2.30097e-17)
(19.4991 0.876897 -2.2889e-17)
(19.4829 0.754601 -3.59759e-19)
(19.454 0.63801 0)
(19.4137 0.528363 -1.11682e-17)
(19.3637 0.42661 1.11224e-17)
(19.3052 0.333461 -8.65503e-20)
(19.2398 0.249407 8.43193e-20)
(19.1687 0.174756 0)
(19.0933 0.109656 -5.00485e-18)
(19.0148 0.0540746 5.2727e-18)
(18.9343 0.00774167 -6.5159e-19)
(18.8529 -0.029491 6.43053e-19)
(18.7719 -0.0578804 0)
(18.6919 -0.0780666 6.25874e-19)
(18.6138 -0.0906055 1.23077e-18)
(18.5387 -0.0959861 -6.15317e-19)
(18.4667 -0.0960327 -1.77399e-18)
(17.5236 1.46725 0)
(17.5993 1.54322 0)
(17.6748 1.60163 1.85459e-17)
(17.7492 1.65016 3.69909e-17)
(17.8239 1.69288 -5.52269e-17)
(17.8992 1.73009 4.65427e-17)
(17.976 1.76202 1.90216e-17)
(18.0547 1.78882 -3.76782e-17)
(18.1357 1.81018 3.84063e-17)
(18.2193 1.82569 -3.8568e-17)
(18.3058 1.83515 0)
(18.3956 1.83751 0)
(18.488 1.83116 -4.03266e-17)
(18.5823 1.81463 8.11027e-17)
(18.6777 1.78687 -8.20109e-17)
(18.7728 1.74693 4.12728e-17)
(18.8658 1.69398 5.20062e-18)
(18.9548 1.62744 -5.03282e-17)
(19.0372 1.54714 3.44941e-17)
(19.1106 1.45343 0)
(19.1724 1.34703 -2.7084e-18)
(19.2165 1.24 0)
(19.2446 1.138 2.25131e-17)
(19.2606 1.03558 -4.35304e-17)
(19.2648 0.934227 2.10192e-17)
(19.2579 0.835362 0)
(19.2407 0.740248 0)
(19.2143 0.649929 -9.65206e-18)
(19.1798 0.565241 1.02341e-17)
(19.1382 0.48682 1.01065e-17)
(19.0905 0.415136 -1.01314e-17)
(19.0379 0.350498 -9.90994e-18)
(18.9814 0.293085 9.8962e-18)
(18.922 0.242916 0)
(18.8604 0.199808 7.48258e-20)
(18.7977 0.163679 0)
(18.7347 0.134377 1.82959e-20)
(18.672 0.111404 7.23421e-20)
(18.6103 0.0943726 -2.42923e-18)
(18.5502 0.0829507 3.39892e-18)
(18.4921 0.0759806 -1.09977e-18)
(17.612 1.40494 0)
(17.6785 1.46696 2.13292e-18)
(17.7444 1.51365 0)
(17.8091 1.552 -1.69564e-17)
(17.8736 1.5853 1.70956e-17)
(17.9383 1.61382 0)
(18.0036 1.63781 -1.74745e-17)
(18.0702 1.65746 -1.78105e-17)
(18.1381 1.67259 4.46602e-17)
(18.2076 1.68293 0)
(18.2791 1.68833 -3.68855e-17)
(18.3526 1.68809 7.43787e-17)
(18.4278 1.68106 -3.74186e-17)
(18.504 1.6662 0)
(18.5807 1.64277 3.83573e-17)
(18.657 1.61012 -4.32288e-17)
(18.7317 1.56763 -4.38901e-17)
(18.8031 1.51485 4.88386e-17)
(18.8697 1.4516 4.96859e-18)
(18.9298 1.37803 0)
(18.9812 1.29456 0)
(19.0192 1.2102 2.4478e-18)
(19.0448 1.12928 -1.23264e-18)
(19.0611 1.04764 -1.94401e-17)
(19.0683 0.96639 -1.20416e-18)
(19.0666 0.886657 1.92493e-17)
(19.0569 0.809414 -1.91056e-17)
(19.0398 0.735517 1.83982e-17)
(19.016 0.665632 1.05742e-17)
(18.9864 0.600315 -9.35086e-18)
(18.9517 0.539956 9.24212e-18)
(18.9129 0.484852 -9.18988e-18)
(18.8706 0.435166 0)
(18.8257 0.390964 9.5414e-18)
(18.7788 0.352114 -8.9973e-18)
(18.7306 0.318595 0)
(18.6818 0.29032 -1.70939e-20)
(18.6328 0.26693 -2.2218e-18)
(18.5841 0.248145 2.2719e-18)
(18.5363 0.233761 -9.86346e-19)
(18.4898 0.223058 1.0225e-18)
(17.6811 1.35203 0)
(17.7398 1.40296 -1.94337e-18)
(17.7977 1.44053 1.56698e-17)
(17.8544 1.47103 -3.14958e-17)
(17.9105 1.49709 6.35182e-17)
(17.9665 1.51896 -3.20784e-17)
(18.0227 1.53693 0)
(18.0795 1.55119 -1.65212e-17)
(18.1371 1.56163 -1.00709e-16)
(18.1956 1.56808 6.77079e-17)
(18.2553 1.57045 0)
(18.3162 1.56824 8.68291e-18)
(18.378 1.56062 -2.6457e-17)
(18.4403 1.54688 -2.02879e-19)
(18.5027 1.52647 3.55673e-17)
(18.5644 1.49898 -4.04617e-17)
(18.6247 1.46394 3.60632e-17)
(18.6823 1.42107 -3.65e-17)
(18.7361 1.37019 3.64513e-17)
(18.7848 1.31142 3.6742e-17)
(18.8271 1.24498 -3.19002e-17)
(18.859 1.17778 1.59595e-17)
(18.8814 1.11308 -2.02888e-17)
(18.8965 1.04764 1.91187e-17)
(18.9045 0.982295 3.35459e-18)
(18.9057 0.917918 -1.77728e-17)
(18.9004 0.855248 0)
(18.8893 0.794966 0)
(18.8729 0.737589 1.62709e-17)
(18.8517 0.683576 -1.72523e-17)
(18.8265 0.633234 0)
(18.7977 0.586825 -1.05344e-18)
(18.7661 0.544483 -1.04414e-18)
(18.7321 0.506289 -8.82239e-18)
(18.6964 0.472145 8.76455e-18)
(18.6593 0.442068 4.07374e-18)
(18.6215 0.416009 -4.04858e-18)
(18.5833 0.393718 1.50031e-18)
(18.5451 0.374993 -3.96572e-18)
(18.5072 0.359713 1.904e-18)
(18.4701 0.347449 2.37062e-19)
(17.7358 1.30668 -1.43501e-17)
(17.7879 1.34869 -1.79651e-17)
(17.8391 1.37907 -6.36273e-20)
(17.8889 1.4034 0)
(17.9381 1.42382 0)
(17.9868 1.44057 0)
(18.0355 1.45392 0)
(18.0843 1.46407 6.17681e-17)
(18.1336 1.47096 -1.095e-16)
(18.1832 1.47449 6.33069e-17)
(18.2336 1.4746 -6.44849e-17)
(18.2846 1.47093 4.05224e-17)
(18.3359 1.4629 -7.40326e-17)
(18.3873 1.44999 9.08445e-17)
(18.4385 1.43184 -3.32161e-17)
(18.4888 1.40816 -2.51644e-17)
(18.5377 1.37865 3.35976e-17)
(18.5844 1.3431 -4.24832e-18)
(18.6279 1.30143 4.22355e-18)
(18.6674 1.25371 -4.25222e-17)
(18.7018 1.2001 -3.82054e-17)
(18.7283 1.14595 6.33453e-17)
(18.7473 1.09378 2.10607e-18)
(18.7606 1.04096 0)
(18.7684 0.988167 -2.08351e-18)
(18.7708 0.936022 2.04585e-18)
(18.7682 0.885126 1.4295e-17)
(18.7609 0.835971 -1.62123e-17)
(18.7495 0.788987 1.60653e-17)
(18.7342 0.744502 -1.59513e-17)
(18.7157 0.702789 -1.5787e-17)
(18.6942 0.664025 1.66587e-17)
(18.6704 0.628351 9.74476e-19)
(18.6447 0.595812 -7.67974e-18)
(18.6173 0.566362 6.2019e-18)
(18.5888 0.540003 0)
(18.5596 0.516737 0)
(18.5298 0.496358 4.64665e-19)
(18.4997 0.478744 -9.1639e-19)
(18.4698 0.4638 -9.08179e-19)
(18.4403 0.451317 -2.2058e-19)
(17.7795 1.26746 0)
(17.826 1.30223 3.26294e-18)
(17.8714 1.32688 -2.6518e-17)
(17.9154 1.34633 2.66713e-17)
(17.9587 1.36232 5.45064e-17)
(18.0013 1.37507 -5.52774e-17)
(18.0437 1.38485 -2.83198e-17)
(18.086 1.39184 5.72668e-17)
(18.1284 1.39603 5.84734e-17)
(18.1709 1.39736 -5.9117e-17)
(18.2136 1.3958 0)
(18.2566 1.3911 3.03994e-17)
(18.2997 1.38284 -6.14539e-17)
(18.3424 1.37065 6.93621e-17)
(18.3847 1.3543 0)
(18.426 1.33358 7.79013e-18)
(18.466 1.30832 -7.82023e-18)
(18.5039 1.27838 0)
(18.5392 1.24374 -3.95992e-18)
(18.5712 1.20444 7.93159e-18)
(18.5991 1.16066 -3.53136e-17)
(18.6208 1.11656 3.52993e-17)
(18.6366 1.07411 -3.86765e-18)
(18.6481 1.03119 -2.89872e-17)
(18.6551 0.988284 2.87896e-17)
(18.6579 0.945874 -1.91684e-18)
(18.6567 0.904421 1.70364e-17)
(18.6519 0.86429 -1.50216e-17)
(18.6438 0.825816 -1.8544e-18)
(18.6327 0.789241 0)
(18.6189 0.754781 0)
(18.6028 0.722567 0)
(18.5848 0.692714 7.18136e-18)
(18.5651 0.665254 -7.12881e-18)
(18.5441 0.640158 8.85673e-19)
(18.522 0.617426 6.98753e-18)
(18.4992 0.597075 -7.80043e-18)
(18.4759 0.578946 0)
(18.4523 0.562956 3.92342e-21)
(18.4285 0.549037 1.6876e-18)
(18.405 0.537111 -8.16157e-19)
(17.8149 1.23331 -1.19378e-17)
(17.8564 1.26215 0)
(17.8968 1.2822 6.0788e-17)
(17.9358 1.29774 -4.918e-17)
(17.9741 1.31021 0)
(18.0116 1.31981 -5.14138e-17)
(18.0487 1.32681 -8.95986e-20)
(18.0855 1.33138 -5.34703e-17)
(18.1222 1.33352 8.14202e-17)
(18.1587 1.33321 5.5331e-17)
(18.1952 1.33045 -5.59629e-17)
(18.2317 1.32504 -1.42057e-17)
(18.268 1.31671 0)
(18.3038 1.3052 0)
(18.3389 1.29034 1.447e-17)
(18.3731 1.27202 -6.56555e-17)
(18.4058 1.25013 1.31539e-16)
(18.4368 1.22461 -5.85096e-17)
(18.4655 1.19545 -7.31158e-18)
(18.4915 1.16273 -7.31116e-18)
(18.5141 1.12657 3.65762e-18)