/*--------------------------------*- C++ -*----------------------------------*\
| =========                 |                                                 |
| \\      /  F ield         | OpenFOAM: The Open Source CFD Toolbox           |
|  \\    /   O peration     | Version:  5.x                                   |
|   \\  /    A nd           | Web:      www.OpenFOAM.org                      |
|    \\/     M anipulation  |                                                 |
\*---------------------------------------------------------------------------*/
FoamFile
{
    version     2.0;
    format      ascii;
    class       volVectorField;
    location    "50";
    object      U;
}
// * * * * * * * * * * * * * * * * * * * * * * * * * * * * * * * * * * * * * //

dimensions      [0 1 -1 0 0 0 0];

internalField   nonuniform List<vector> 
11040
(
(-4.69493 25.3952 0)
(-0.743781 30.9923 -1.76127e-19)
(5.63456 34.1718 1.66439e-17)
(11.568 33.0969 1.91461e-17)
(16.0997 29.7704 4.00299e-17)
(19.2476 25.6067 -1.92575e-17)
(21.2387 21.2703 -1.88373e-17)
(22.2771 17.1416 1.89066e-17)
(22.5348 13.423 4.18013e-17)
(22.1053 10.1491 1.351e-18)
(20.6812 7.02918 1.88696e-17)
(18.7112 4.51519 -8.78194e-19)
(17.0656 2.99004 1.32777e-17)
(16.0346 2.19911 1.05763e-17)
(15.0899 1.58911 6.69011e-18)
(13.9315 0.999913 2.5313e-18)
(12.5858 0.484715 -4.51054e-19)
(11.1378 0.0757987 2.85532e-19)
(9.60382 -0.22956 -3.1137e-19)
(7.97185 -0.430691 -5.63566e-18)
(6.24076 -0.524505 -8.21858e-18)
(4.66079 -0.51531 -1.24876e-17)
(3.2265 -0.456166 -3.29282e-17)
(1.80292 -0.341328 -3.07794e-18)
(0.541603 -0.172106 -1.02946e-19)
(-0.546688 0.0231802 2.43234e-18)
(-1.40926 0.197999 -1.44921e-16)
(-2.08343 0.320246 2.11334e-18)
(-2.61597 0.409218 -1.27307e-16)
(-3.03591 0.486479 1.17562e-16)
(-3.36413 0.561402 1.81234e-18)
(-3.61802 0.633637 9.00155e-19)
(-3.80749 0.716236 -8.47881e-19)
(-3.98373 0.792924 0)
(-4.1262 0.861947 2.13893e-16)
(-4.26656 0.934967 0)
(-4.41148 0.982868 0)
(-4.51989 0.963726 -3.9398e-19)
(-4.49208 0.753078 4.88571e-19)
(-4.03826 0.128923 -1.88759e-16)
(-2.35127 -0.653849 -2.3015e-16)
(-0.472509 24.6715 0)
(3.98857 28.859 0)
(11.7718 30.3748 -9.56423e-18)
(18.3791 29.0505 9.95002e-18)
(23.123 26.9054 -2.39027e-17)
(26.4313 24.5073 2.43793e-17)
(28.5839 21.8067 1.15912e-17)
(29.7187 18.8545 1.49915e-18)
(29.9884 15.8018 -9.46363e-19)
(29.5569 12.8149 1.18168e-17)
(28.3276 9.79125 -1.32532e-18)
(26.2189 7.18989 0)
(23.8379 5.32719 0)
(21.7745 4.02803 -5.12062e-18)
(20.0383 2.93942 -4.03215e-18)
(18.3662 2.04022 -1.69575e-18)
(16.6673 1.33018 0)
(14.9313 0.77395 -1.36567e-19)
(13.1345 0.346135 5.91039e-19)
(11.2472 0.0404651 6.55672e-19)
(9.23594 -0.148905 3.94226e-18)
(7.34779 -0.222289 5.18457e-18)
(5.67271 -0.219234 8.4237e-19)
(4.05037 -0.163024 -1.71636e-17)
(2.50506 -0.0670897 1.84285e-17)
(1.11548 0.0635044 1.49039e-18)
(-0.0467169 0.201778 5.58887e-17)
(-0.953193 0.3093 -9.31663e-19)
(-1.65234 0.391615 5.91684e-17)
(-2.19284 0.465265 -5.81895e-17)
(-2.61156 0.540626 -5.9904e-17)
(-2.93761 0.616994 6.14788e-17)
(-3.20098 0.695694 1.38905e-20)
(-3.41403 0.773645 -1.4274e-18)
(-3.59602 0.847134 -5.92445e-17)
(-3.73084 0.91217 0)
(-3.79325 0.959307 -4.68166e-19)
(-3.72475 0.993188 1.1971e-16)
(-3.30805 0.963631 1.19837e-16)
(-2.25075 0.424833 1.04163e-16)
(-1.45007 -1.00046 1.64279e-16)
(1.39934 23.7282 0)
(5.4676 26.9072 0)
(10.9555 28.4993 2.5462e-18)
(16.071 28.3556 -7.21315e-18)
(20.2194 26.9543 7.43838e-18)
(23.6191 24.8379 -8.90873e-18)
(26.3353 22.3167 -6.86104e-18)
(28.3178 19.5696 0)
(29.5447 16.7316 -1.06882e-17)
(30.0626 13.9149 -6.0755e-18)
(29.8297 11.0494 0)
(28.6889 8.5028 0)
(26.966 6.53093 -4.78821e-18)
(25.1392 5.03319 -3.6311e-18)
(23.3362 3.74752 -2.54178e-19)
(21.4945 2.67677 2.65294e-19)
(19.6063 1.8238 0)
(17.6921 1.1544 0)
(15.7384 0.639683 -1.36579e-19)
(13.7129 0.267862 4.90498e-19)
(11.5775 0.027586 -5.10795e-19)
(9.57911 -0.0902258 2.45082e-18)
(7.79118 -0.119604 -9.87542e-20)
(6.0492 -0.0953393 -7.85505e-18)
(4.38432 -0.0328188 -7.08275e-19)
(2.8545 0.0566403 -8.11494e-19)
(1.52349 0.154504 -3.80915e-20)
(0.435322 0.235448 1.04187e-18)
(-0.425748 0.299328 0)
(-1.09215 0.358115 0)
(-1.60803 0.422474 7.52389e-17)
(-2.00957 0.490567 -7.60779e-17)
(-2.33153 0.563485 3.84026e-17)
(-2.58803 0.635803 0)
(-2.79455 0.702343 3.9821e-17)
(-2.93989 0.751652 4.00003e-17)
(-3.00375 0.760336 0)
(-2.93111 0.712452 2.51529e-19)
(-2.51159 0.581479 -3.19249e-19)
(-1.50769 -0.0258802 0)
(-1.36036 -1.53981 -7.66454e-17)
(3.2463 22.6757 9.4834e-20)
(7.02732 25.1675 -9.65534e-20)
(11.3275 26.5204 4.20498e-19)
(15.808 26.6082 0)
(19.7253 25.5489 -7.95767e-18)
(22.9019 23.796 0)
(25.4153 21.6245 1.53521e-17)
(27.2961 19.2014 -1.64638e-21)
(28.5696 16.666 1.50168e-18)
(29.288 14.1308 9.4063e-18)
(29.4587 11.5588 1.36835e-18)
(28.9561 9.19742 3.37229e-18)
(27.9137 7.28963 8.4752e-18)
(26.6402 5.79677 2.85033e-18)
(25.2461 4.48956 0)
(23.6808 3.34933 -1.69655e-19)
(21.9451 2.39798 2.31538e-19)
(20.0878 1.62717 2.98025e-19)
(18.1331 1.0199 2.56032e-19)
(16.0765 0.568313 -2.64501e-19)
(13.8941 0.262358 -1.73181e-18)
(11.8403 0.0943048 -2.46977e-18)
(9.98424 0.0260153 0)
(8.15612 0.0146568 1.47426e-17)
(6.38905 0.0413121 -8.95949e-18)
(4.73219 0.0917497 9.07497e-18)
(3.24201 0.150692 -2.03452e-17)
(1.96947 0.200814 0)
(0.928617 0.240744 0)
(0.103502 0.278011 0)
(-0.54149 0.324583 -2.85923e-17)
(-1.04146 0.379015 2.9605e-17)
(-1.43758 0.441824 -9.14076e-19)
(-1.74932 0.505654 -3.01471e-17)
(-1.99402 0.562802 -2.84283e-17)
(-2.16763 0.598503 -2.99881e-17)
(-2.26185 0.584665 -5.99209e-17)
(-2.24256 0.500047 -5.91763e-17)
(-1.93592 0.331859 -2.32552e-19)
(-1.08825 -0.279308 -5.25949e-17)
(-1.37848 -1.79314 3.12447e-17)
(5.09103 21.533 0)
(8.4085 23.4885 1.1679e-19)
(11.8521 24.6057 -1.48152e-19)
(15.5493 24.9087 2.96737e-19)
(18.9976 24.313 5.9486e-18)
(21.9579 23.0286 -5.67691e-18)
(24.4109 21.2472 -1.90589e-18)
(26.3214 19.1195 -7.29174e-18)
(27.668 16.7998 0)
(28.4853 14.4235 -8.66678e-18)
(28.8073 12.0074 0)
(28.5825 9.74765 -2.01044e-18)
(27.8977 7.86929 -4.51872e-18)
(26.9874 6.37896 0)
(25.9713 5.09076 1.46715e-18)
(24.7978 3.95214 0)
(23.4241 2.97592 0)
(21.8643 2.16022 -5.85038e-20)
(20.1351 1.4944 -2.32954e-19)
(18.2392 0.976885 0)
(16.1634 0.605265 1.36904e-18)
(14.1644 0.38062 0)
(12.3186 0.265286 0)
(10.4644 0.210073 -5.28298e-18)
(8.63476 0.193373 0)
(6.87618 0.199337 6.82838e-18)
(5.24234 0.214039 1.52997e-17)
(3.78654 0.224023 0)
(2.54309 0.228286 0)
(1.5213 0.233617 0)
(0.702571 0.252422 2.33588e-17)
(0.0567613 0.286513 2.13891e-17)
(-0.452179 0.334677 -2.36286e-17)
(-0.848254 0.387067 -7.49503e-19)
(-1.15563 0.433709 7.46665e-19)
(-1.37766 0.456443 0)
(-1.51935 0.423517 4.84806e-17)
(-1.57334 0.309206 -4.78644e-17)
(-1.42737 0.121191 4.70193e-17)
(-0.782467 -0.430196 4.27405e-17)
(-1.32152 -1.87962 5.37123e-20)
(6.78661 20.334 -2.2206e-19)
(9.62153 21.8644 -1.02894e-20)
(12.4262 22.7743 6.17337e-19)
(15.4428 23.1799 -6.57965e-20)
(18.4132 22.914 -7.60537e-19)
(21.0997 22.042 5.59554e-18)
(23.4317 20.678 -6.83466e-18)
(25.3435 18.9245 5.94739e-18)
(26.7731 16.9075 2.75632e-18)
(27.7145 14.7545 -1.40938e-18)
(28.1841 12.5114 0)
(28.1535 10.3427 0)
(27.6834 8.4612 9.13973e-19)
(26.9633 6.9267 -9.70454e-19)
(26.1391 5.62031 -2.28069e-18)
(25.2112 4.4791 1.85952e-19)
(24.1378 3.49816 -1.02915e-19)
(22.9074 2.6718 1.53133e-19)
(21.5129 1.9864 6.55097e-19)
(19.9375 1.43702 -1.60392e-18)
(18.1503 1.02237 2.63839e-18)
(16.3703 0.751252 -1.47634e-18)
(14.6698 0.592089 8.299e-19)
(12.9059 0.492377 1.05226e-18)
(11.1074 0.429779 -5.75602e-18)
(9.31739 0.387632 -2.04643e-20)
(7.58866 0.352959 -1.32421e-17)
(5.97773 0.315279 -1.14451e-17)
(4.53375 0.27417 0)
(3.29071 0.236665 0)
(2.25681 0.215832 -1.6113e-17)
(1.41921 0.216985 -3.81539e-17)
(0.74882 0.240358 -1.24049e-18)
(0.219018 0.276433 2.07384e-17)
(-0.194411 0.311089 2.2703e-17)
(-0.499834 0.321806 -2.21267e-17)
(-0.714658 0.274935 6.61663e-19)
(-0.854754 0.139007 8.35085e-17)
(-0.882121 -0.0691369 -7.91973e-17)
(-0.456191 -0.531714 1.42744e-19)
(-1.0996 -1.84914 2.54907e-17)
(8.31219 19.1104 0)
(10.703 20.302 -5.60825e-19)
(13.0084 21.0391 -1.16586e-18)
(15.4626 21.4668 -2.19007e-19)
(17.9615 21.4182 5.59924e-20)
(20.3262 20.8761 1.12412e-18)
(22.4744 19.8907 -3.43204e-18)
(24.328 18.5195 1.42765e-18)
(25.8047 16.8507 0)
(26.8668 14.987 1.82883e-18)
(27.5071 12.9797 -3.56882e-18)
(27.6892 10.9597 3.35911e-18)
(27.4357 9.11468 -2.78018e-19)
(26.8843 7.54155 0)
(26.1809 6.19176 5.67229e-19)
(25.3773 5.01938 2.08791e-19)
(24.4666 4.01233 1.27241e-19)
(23.4469 3.16538 -2.01535e-19)
(22.316 2.4653 2.1952e-19)
(21.0566 1.90188 6.76939e-19)
(19.6276 1.46798 -6.86288e-19)
(18.1835 1.17223 -1.09078e-18)
(16.7679 0.98625 0)
(15.2489 0.854791 1.63925e-18)
(13.6349 0.754906 3.70046e-18)
(11.9521 0.669231 -4.96628e-18)
(10.2434 0.585479 3.37181e-18)
(8.56363 0.496063 9.9744e-18)
(6.97164 0.402232 -1.39421e-18)
(5.52245 0.311963 -2.4679e-20)
(4.25476 0.238655 -1.00695e-17)
(3.18431 0.191478 -3.6544e-18)
(2.30209 0.174481 -1.37586e-17)
(1.58843 0.180717 0)
(1.01948 0.194712 -1.74552e-17)
(0.581263 0.191148 1.92821e-17)
(0.250197 0.135055 -1.93146e-17)
(-0.000716206 -0.00993422 -7.65237e-17)
(-0.204159 -0.237296 3.54888e-17)
(-0.0125634 -0.611401 1.29944e-19)
(-0.679111 -1.73925 -4.95509e-17)
(9.66155 17.8886 1.38928e-18)
(11.6651 18.8129 -3.94345e-19)
(13.5701 19.4078 -2.96431e-19)
(15.5705 19.8108 9.35339e-19)
(17.6394 19.8874 -5.38904e-19)
(19.6636 19.5891 -1.29029e-18)
(21.5764 18.9229 2.16134e-18)
(23.3059 17.9073 2.3172e-18)
(24.7672 16.593 -1.81286e-18)
(25.9066 15.0515 0)
(26.6994 13.3267 -1.11993e-18)
(27.0972 11.5176 1.08185e-19)
(27.084 9.77646 -3.79151e-20)
(26.7399 8.21252 7.23069e-19)
(26.1847 6.83323 4.19182e-19)
(25.4939 5.62335 -4.37334e-19)
(24.6903 4.5756 0)
(23.7899 3.68914 0)
(22.8089 2.9565 -1.07224e-18)
(21.7517 2.36842 9.80748e-19)
(20.5985 1.91581 -8.66167e-19)
(19.4653 1.60544 8.11175e-19)
(18.3699 1.40801 1.08967e-18)
(17.1872 1.26421 0)
(15.8973 1.148 1.42796e-18)
(14.4928 1.03852 -1.50329e-18)
(12.9848 0.921071 -3.41278e-18)
(11.4055 0.788462 0)
(9.80539 0.643295 0)
(8.24646 0.495538 1.15793e-18)
(6.79084 0.359793 1.01668e-17)
(5.48729 0.248804 9.77184e-18)
(4.36039 0.171444 2.28178e-17)
(3.41295 0.126782 1.62938e-18)
(2.63191 0.102693 0)
(2.0049 0.0742453 -9.25064e-19)
(1.50733 0.00609313 1.63353e-17)
(1.10548 -0.138883 -2.21975e-20)
(0.732087 -0.373349 3.19675e-17)
(0.648467 -0.689906 2.88056e-17)
(-0.028899 -1.58033 2.4417e-17)
(10.8392 16.6932 -8.38409e-19)
(12.5152 17.408 -1.01283e-20)
(14.0952 17.8854 1.06746e-18)
(15.7311 18.2417 -2.00501e-18)
(17.4288 18.3775 0)
(19.1254 18.2418 -3.05576e-19)
(20.7783 17.8204 9.58998e-19)
(22.3331 17.108 -1.45069e-18)
(23.7154 16.1237 6.75206e-19)
(24.8693 14.9078 1.2007e-18)
(25.762 13.4898 8.30922e-20)
(26.339 11.9381 -2.31418e-18)
(26.5567 10.366 0)
(26.4442 8.87535 2.2835e-19)
(26.0821 7.50877 -8.54936e-19)
(25.5433 6.28375 -7.49214e-20)
(24.8659 5.20435 2.11713e-19)
(24.0756 4.27599 -2.19754e-19)
(23.1995 3.49871 3.19438e-19)
(22.2601 2.86808 0)
(21.2661 2.37904 -1.58537e-18)
(20.3302 2.0421 2.93943e-18)
(19.469 1.82822 -2.7213e-18)
(18.5767 1.6761 -7.48514e-20)
(17.624 1.5578 2.24777e-18)
(16.58 1.44783 -2.33248e-18)
(15.4199 1.32547 0)
(14.1354 1.17826 7.10219e-18)
(12.7407 1.00496 3.09514e-18)
(11.2742 0.814268 1.68187e-18)
(9.79271 0.621145 -7.47183e-18)
(8.35982 0.441243 -2.06883e-18)
(7.03113 0.288151 2.25659e-18)
(5.84397 0.168844 -1.23973e-18)
(4.81289 0.0798657 -7.9968e-18)
(3.9429 0.00362641 -1.41965e-18)
(3.22039 -0.0908605 0)
(2.61454 -0.238709 2.65321e-17)
(2.04838 -0.467639 -2.77555e-17)
(1.67963 -0.747543 -2.64404e-17)
(0.931722 -1.40408 0)
(11.8571 15.5438 0)
(13.2601 16.0959 0)
(14.5745 16.4764 0)
(15.9172 16.7787 5.5821e-18)
(17.305 16.9313 -3.11389e-18)
(18.7068 16.8932 1.36582e-18)
(20.1011 16.6445 1.18028e-18)
(21.4535 16.1692 -3.78927e-19)
(22.7074 15.466 -1.33129e-19)
(23.8139 14.551 3.85836e-19)
(24.7412 13.4376 -3.79777e-19)
(25.4359 12.1658 8.65939e-19)
(25.8406 10.8119 -1.66997e-19)
(25.9478 9.45755 5.31026e-19)
(25.7988 8.15961 -2.49356e-19)
(25.4477 6.95984 2.05177e-19)
(24.9332 5.87706 -4.8046e-19)
(24.2842 4.92367 4.97534e-19)
(23.5294 4.10706 -5.43723e-19)
(22.6973 3.42886 0)
(21.8113 2.88995 -2.35384e-18)
(20.9886 2.50917 1.6816e-18)
(20.2573 2.26037 7.73557e-19)
(19.5382 2.08315 -1.56254e-18)
(18.8156 1.95269 3.41472e-18)
(18.063 1.84375 0)
(17.246 1.73239 0)
(16.3308 1.59961 -2.16726e-18)
(15.2941 1.43556 -1.16959e-17)
(14.1322 1.2407 -5.05324e-18)
(12.8647 1.02414 5.47343e-18)
(11.5318 0.799259 1.50012e-18)
(10.1859 0.58076 -8.10427e-18)
(8.88002 0.380933 -1.78562e-18)
(7.65538 0.206068 1.15755e-17)
(6.54647 0.0520944 -2.08471e-18)
(5.56824 -0.0983748 -9.10365e-18)
(4.71024 -0.270841 1.23083e-18)
(3.91471 -0.495887 1.98625e-17)
(3.25897 -0.75521 0)
(2.35885 -1.21909 0)
(12.7298 14.4568 0)
(13.906 14.8828 0)
(15.0024 15.1837 -2.32091e-19)
(16.1083 15.4324 -3.98698e-18)
(17.2423 15.5782 0)
(18.3909 15.5918 -3.18327e-18)
(19.547 15.4553 -8.51095e-19)
(20.6924 15.151 0)
(21.7888 14.6684 8.58761e-19)
(22.7998 14.0083 -9.40453e-19)
(23.6998 13.1717 -3.01596e-19)
(24.4432 12.1761 9.28513e-20)
(24.9711 11.0654 -2.94176e-19)
(25.2553 9.89656 0)
(25.306 8.72301 6.0261e-19)
(25.1523 7.59673 -2.96387e-19)
(24.8234 6.54885 0)
(24.3447 5.59976 0)
(23.7428 4.76394 -6.21384e-19)
(23.0446 4.0493 2.57051e-18)
(22.2762 3.46258 -1.4321e-18)
(21.5503 3.03244 0)
(20.9034 2.73686 2.38724e-18)
(20.2783 2.51656 1.94984e-19)
(19.6751 2.35212 -2.71066e-18)
(19.0848 2.22345 1.50363e-18)
(18.4873 2.10986 0)
(17.8536 1.99195 0)
(17.1512 1.85446 -1.82614e-18)
(16.352 1.6887 7.72339e-18)
(15.4403 1.4932 -4.107e-18)
(14.417 1.27234 4.35748e-18)
(13.3005 1.03451 2.33844e-18)
(12.1217 0.789865 0)
(10.9152 0.547478 4.11927e-18)
(9.72259 0.313274 -2.03271e-20)
(8.57985 0.0858024 1.45221e-17)
(7.5042 -0.143708 0)
(6.47626 -0.39202 -1.52071e-17)
(5.554 -0.653854 1.67765e-17)
(4.43978 -0.997082 0)
(13.4726 13.4434 0)
(14.4604 13.772 -2.34173e-18)
(15.3772 14.0079 2.11712e-18)
(16.2911 14.2077 0)
(17.219 14.3353 3.27222e-18)
(18.1565 14.3711 -1.03831e-18)
(19.1047 14.302 -1.08726e-17)
(20.0558 14.1127 1.18758e-17)
(20.9871 13.791 -6.33145e-18)
(21.8742 13.3303 -3.8447e-18)
(22.6999 12.7251 2.46991e-18)
(23.4301 11.9781 5.60344e-19)
(24.0133 11.1088 -7.49193e-19)
(24.4143 10.1503 4.69787e-19)
(24.6237 9.14294 -9.5184e-19)
(24.6484 8.13542 7.81214e-19)
(24.5028 7.16368 6.55017e-19)
(24.2045 6.25448 3.99532e-19)
(23.7743 5.42865 1.79978e-18)
(23.2353 4.70018 -4.23741e-18)
(22.6106 4.08091 2.49313e-18)
(21.9994 3.60934 1.04985e-19)
(21.4407 3.2691 4.65445e-19)
(20.8939 3.00179 0)
(20.366 2.79234 -3.44571e-18)
(19.8597 2.62577 1.14429e-18)
(19.3704 2.48701 3.92601e-18)
(18.8857 2.36125 -2.68686e-18)
(18.3857 2.23474 5.80592e-18)
(17.8461 2.09608 -2.98777e-18)
(17.2427 1.93713 0)
(16.5561 1.7535 -5.00294e-18)
(15.7761 1.54423 -1.74993e-18)
(14.9024 1.31156 1.88361e-18)
(13.9413 1.05922 -1.19205e-17)
(12.9115 0.79311 -2.15687e-18)
(11.8378 0.518403 -4.54325e-18)
(10.74 0.237431 4.94342e-18)
(9.6179 -0.0500139 5.36578e-18)
(8.54081 -0.336294 -1.12216e-17)
(7.26372 -0.642041 -3.93296e-19)
(14.1007 12.5112 0)
(14.9317 12.7644 1.28762e-19)
(15.7 12.9477 1.93646e-18)
(16.4575 13.1049 7.04533e-18)
(17.2185 13.2103 -4.18635e-18)
(17.9832 13.2514 2.24514e-18)
(18.7562 13.2195 1.92353e-18)
(19.5361 13.1032 -1.05824e-17)
(20.3104 12.8918 1.93281e-18)
(21.0647 12.5768 3.76767e-18)
(21.7893 12.151 -4.94504e-18)
(22.4615 11.6093 3.00262e-18)
(23.0414 10.9559 1.49719e-18)
(23.4962 10.2053 -4.03491e-19)
(23.8083 9.3827 0)
(23.97 8.52531 0)
(23.982 7.66603 -3.34189e-18)
(23.8516 6.83296 -7.1254e-19)
(23.5916 6.05039 3.29788e-18)
(23.2196 5.33709 -2.45126e-19)
(22.7535 4.70868 2.82669e-18)
(22.274 4.21251 -5.67028e-18)
(21.8194 3.83935 2.96907e-18)
(21.3629 3.53362 0)
(20.9133 3.28345 -4.61073e-19)
(20.4768 3.07734 4.02118e-18)
(20.0558 2.90417 -5.13637e-18)
(19.6482 2.75323 4.4756e-18)
(19.2472 2.61458 -3.39443e-18)
(18.8412 2.47905 0)
(18.4151 2.33861 2.52017e-18)
(17.9525 2.18625 5.27191e-18)
(17.4372 2.01645 -2.71153e-18)
(16.8559 1.82515 2.88508e-18)
(16.1968 1.60974 1.52354e-18)
(15.4555 1.37058 -3.18204e-18)
(14.6337 1.1106 5.00257e-18)
(13.735 0.832869 -3.51489e-18)
(12.7501 0.542586 -2.80041e-18)
(11.7426 0.252463 -4.93733e-19)
(10.506 -0.0487049 8.25458e-18)
(14.6286 11.6636 -2.06819e-18)
(15.3286 11.8584 -7.6528e-18)
(15.9737 11.9994 7.52232e-18)
(16.6031 12.1207 0)
(17.229 12.2041 -2.33792e-19)
(17.8535 12.2415 0)
(18.4824 12.228 -1.69288e-17)
(19.1174 12.1557 1.35598e-17)
(19.7523 12.016 9.50594e-18)
(20.3796 11.8019 -1.12986e-17)
(20.9948 11.5064 3.83323e-18)
(21.5842 11.122 -1.95515e-18)
(22.1198 10.6448 -1.30403e-18)
(22.5758 10.0782 -2.92208e-18)
(22.9339 9.43482 7.45736e-20)
(23.1807 8.7389 2.88466e-18)
(23.3081 8.01522 -2.21834e-18)
(23.3144 7.28793 3.09337e-18)
(23.2042 6.58029 0)
(22.9877 5.91259 4.01465e-18)
(22.6769 5.30269 1.25117e-19)
(22.332 4.80379 -4.50538e-18)
(21.9884 4.41473 4.17802e-20)
(21.6319 4.08521 0)
(21.2712 3.80655 3.77097e-19)
(20.9129 3.57015 4.06476e-19)
(20.5613 3.36738 0)
(20.2179 3.19 0)
(19.8813 3.03039 3.5512e-21)
(19.5477 2.88187 0)
(19.211 2.73854 -3.03742e-18)
(18.8632 2.5951 0)
(18.4949 2.44662 4.38239e-18)
(18.0955 2.28839 -4.50012e-18)
(17.6526 2.11577 0)
(17.1556 1.92593 2.4209e-18)
(16.5951 1.71808 -2.52306e-18)
(15.9632 1.49217 1.32777e-18)
(15.2403 1.25041 4.18626e-18)
(14.4686 1.005 -3.72388e-19)
(13.4851 0.737097 -8.9134e-18)
(15.0698 10.9009 5.50546e-18)
(15.6599 11.0505 2.12249e-19)
(16.2022 11.1577 -3.3475e-18)
(16.7264 11.2495 -6.37928e-18)
(17.2426 11.3129 -1.49026e-17)
(17.7536 11.3428 1.76706e-17)
(18.2653 11.3366 -4.75184e-19)
(18.7807 11.2893 -1.01139e-17)
(19.2972 11.1946 1.98991e-17)
(19.8113 11.0473 -6.17058e-19)
(20.3219 10.8416 -1.06865e-17)
(20.8212 10.5704 3.81005e-18)
(21.2907 10.2273 -7.0268e-18)
(21.7122 9.80989 1.07258e-17)
(22.0712 9.32294 -1.79161e-18)
(22.3539 8.78012 0)
(22.5494 8.19721 -7.17739e-18)
(22.6506 7.59164 6.52915e-18)
(22.6558 6.98208 7.04204e-18)
(22.5682 6.38665 -1.36833e-17)
(22.3938 5.82262 7.57159e-18)
(22.1724 5.34465 -4.05408e-19)
(21.9349 4.95909 -3.45698e-20)
(21.6768 4.6229 -4.97233e-18)
(21.4063 4.33052 1.02172e-17)
(21.1296 4.07605 -5.61576e-18)
(20.8515 3.85331 5.38635e-18)
(20.5747 3.65607 -6.55206e-18)
(20.2994 3.47839 -6.98959e-18)
(20.0249 3.31511 6.29012e-18)
(19.749 3.16187 1.65153e-18)
(19.4688 3.01515 2.59009e-18)
(19.1805 2.87181 -7.90926e-18)
(18.8793 2.72896 7.24686e-18)
(18.5582 2.58326 -3.70924e-18)
(18.2104 2.43234 -1.94211e-18)
(17.8281 2.27457 0)
(17.4029 2.10841 -2.05257e-18)
(16.9162 1.93291 -2.12936e-18)
(16.3904 1.75644 -2.23594e-18)
(15.718 1.55627 2.29587e-18)
(15.436 10.2211 2.46076e-20)
(15.9336 10.3355 7.73316e-19)
(16.3898 10.416 2.93038e-18)
(16.8273 10.484 -5.56286e-18)
(17.254 10.5301 2.21225e-17)
(17.6732 10.5515 -2.04406e-17)
(18.0902 10.5467 2.58209e-17)
(18.5082 10.5129 1.42179e-17)
(18.9267 10.4455 -5.84027e-18)
(19.3442 10.3409 -8.79952e-19)
(19.7615 10.1951 -1.76727e-17)
(20.1745 10.0024 2.75726e-19)
(20.5716 9.75621 0)
(20.9406 9.45236 -3.24817e-18)
(21.2714 9.0915 3.40513e-18)
(21.5529 8.68026 -3.60568e-18)
(21.7749 8.2273 0)
(21.9288 7.74343 6.71217e-18)
(22.0096 7.24153 -1.45342e-17)
(22.016 6.73544 5.18844e-18)
(21.9488 6.23934 -7.40359e-18)
(21.83 5.80395 8.32527e-18)
(21.6842 5.44062 2.58778e-19)
(21.5136 5.11482 -1.02701e-19)
(21.3251 4.82382 8.91961e-18)
(21.1242 4.56414 -9.01339e-18)
(20.9154 4.33193 2.94155e-19)
(20.7019 4.12315 6.11987e-19)
(20.4854 3.93377 -5.18507e-18)
(20.2662 3.76014 5.89426e-18)
(20.0441 3.59917 -6.77408e-19)
(19.8184 3.4484 6.97894e-19)
(19.5877 3.30592 -2.90989e-18)
(19.3506 3.17008 1.41807e-18)
(19.104 3.03906 6.09515e-18)
(18.8451 2.91175 -1.54486e-18)
(18.5705 2.78732 1.61925e-18)
(18.2752 2.66447 -3.28442e-18)
(17.9482 2.54174 1.69549e-18)
(17.5998 2.42394 1.73453e-18)
(17.1733 2.29332 0)
(15.7373 9.61919 -8.48545e-18)
(16.1568 9.70598 1.55969e-17)
(16.5406 9.76559 1.53945e-17)
(16.906 9.8151 -4.07791e-17)
(17.2594 9.84746 1.52764e-17)
(17.6041 9.86097 -3.34129e-17)
(17.9446 9.8553 2.7937e-17)
(18.284 9.8286 -4.14943e-17)
(18.6225 9.77796 3.99212e-17)
(18.96 9.70071 -6.14318e-19)
(19.2977 9.59435 -1.71012e-17)
(19.6342 9.45446 -1.85354e-18)
(19.962 9.27575 -1.47772e-17)
(20.2735 9.05415 1.46285e-17)
(20.5621 8.78864 -1.35175e-17)
(20.8199 8.48193 1.50308e-17)
(21.0387 8.1381 0)
(21.2112 7.76301 -1.14614e-17)
(21.3313 7.36449 1.40197e-17)
(21.3956 6.9518 -1.27295e-17)
(21.4022 6.5351 -2.59193e-19)
(21.3597 6.15747 2.07e-17)
(21.2857 5.83154 -5.65536e-20)
(21.1858 5.53103 -7.48271e-18)
(21.0651 5.25559 -1.42629e-23)
(20.9282 5.00383 0)
(20.7791 4.77394 -8.26901e-18)
(20.621 4.56384 8.19244e-18)
(20.4562 4.37135 0)
(20.2861 4.19437 -5.50534e-19)
(20.1115 4.03106 0)
(19.933 3.87985 4.73851e-18)
(19.7506 3.73956 -5.35686e-18)
(19.5641 3.60918 -4.96029e-18)
(19.3725 3.48759 1.00459e-17)
(19.1751 3.37437 -5.7327e-18)
(18.971 3.26929 -6.57292e-19)
(18.758 3.17155 1.32936e-18)
(18.5315 3.08023 -1.35721e-18)
(18.2956 2.99783 0)
(18.0268 2.91387 -1.40182e-18)
(15.9732 9.11309 0)
(16.3293 9.17944 -2.12715e-17)
(16.6546 9.22392 6.08253e-19)
(16.9624 9.26001 2.93591e-17)
(17.2582 9.28221 1.87199e-17)
(17.5448 9.28972 -1.91598e-17)
(17.8261 9.28269 1.825e-17)
(18.1049 9.26003 1.7936e-17)
(18.3817 9.21974 3.49704e-17)
(18.6568 9.15996 -4.43197e-17)
(18.9315 9.07912 4.41023e-18)
(19.2055 8.97379 4.21465e-18)
(19.4741 8.83976 -1.54716e-17)
(19.7327 8.67373 1.1371e-17)
(19.977 8.47446 1.65185e-17)
(20.2017 8.24287 -1.26882e-17)
(20.4011 7.98065 -1.57099e-17)
(20.5691 7.69067 1.58328e-17)
(20.7006 7.37734 0)
(20.7917 7.04636 1.78772e-18)
(20.8393 6.70446 1.78804e-18)
(20.8445 6.3866 1.42035e-17)
(20.8187 6.10408 -2.85356e-17)
(20.7684 5.83718 1.46505e-17)
(20.6973 5.58711 7.48994e-18)
(20.6087 5.35395 -1.06971e-19)
(20.5061 5.13733 -7.69585e-18)
(20.3924 4.93655 1.21801e-19)
(20.2699 4.75077 8.06212e-21)
(20.1405 4.57905 8.31323e-18)
(20.0054 4.42044 -8.41142e-18)
(19.8658 4.27404 -4.36459e-18)
(19.7224 4.13911 4.65707e-18)
(19.5756 4.01495 -4.52996e-18)
(19.4254 3.90072 3.96426e-18)
(19.272 3.79619 3.50433e-18)
(19.1154 3.70135 -1.75854e-18)
(18.9552 3.61561 6.01665e-19)
(18.7898 3.53852 0)
(18.621 3.47134 0)
(18.4413 3.40871 -1.55112e-21)
(16.1515 8.70721 -9.58485e-18)
(16.4581 8.75889 1.07581e-17)
(16.7378 8.79245 -4.6535e-18)
(17.0015 8.8186 -9.13389e-18)
(17.2533 8.83307 0)
(17.4961 8.83561 1.80336e-17)
(17.733 8.82666 -4.42397e-17)
(17.9665 8.80557 2.71674e-17)
(18.1972 8.77097 -8.93174e-18)
(18.4256 8.72156 8.51655e-18)
(18.6528 8.65639 -4.21805e-18)
(18.8788 8.57311 -3.74822e-17)
(19.1007 8.46825 6.47148e-17)
(19.3155 8.33901 -2.77759e-17)
(19.5206 8.18427 -3.64601e-18)
(19.7124 8.00429 -1.4697e-17)
(19.8868 7.79963 4.52458e-17)
(20.0394 7.5716 -1.97915e-17)
(20.1662 7.32256 -3.02857e-17)
(20.2637 7.05589 1.24898e-17)
(20.3285 6.77594 -3.51639e-18)
(20.3581 6.51093 0)
(20.3601 6.27015 0)
(20.3404 6.03828 -1.45895e-17)
(20.3016 5.81735 1.46231e-17)
(20.2461 5.60836 2.2771e-19)
(20.1768 5.41173 0)
(20.096 5.22752 7.76197e-18)
(20.0058 5.05559 -7.7882e-18)
(19.908 4.89561 6.12792e-20)
(19.8039 4.74719 -6.39472e-20)
(19.6947 4.60986 0)
(19.5813 4.48313 3.97076e-18)
(19.4643 4.36649 -4.20252e-18)
(19.3442 4.25924 5.32011e-19)
(19.2214 4.16117 -5.39733e-19)
(19.0966 4.07227 0)
(18.9696 3.99202 -5.54099e-19)
(18.8405 3.92018 -1.13157e-18)
(18.7102 3.85739 5.59215e-19)
(18.5775 3.80098 1.69455e-18)
(16.2893 8.37771 0)
(16.5564 8.41843 0)
(16.7999 8.44377 -1.73837e-17)
(17.0287 8.46242 -3.4432e-17)
(17.2462 8.47096 5.25912e-17)
(17.4548 8.46952 -4.29864e-17)
(17.6576 8.45867 -1.68612e-17)
(17.8564 8.43803 3.48646e-17)
(18.0519 8.40663 -3.44182e-17)
(18.2446 8.36354 3.46781e-17)
(18.4356 8.30809 0)
(18.6249 8.23878 0)
(18.8104 8.15305 3.25069e-17)
(18.9902 8.04854 -6.34149e-17)
(19.1626 7.92421 6.16569e-17)
(19.3252 7.78003 -3.03112e-17)
(19.4751 7.61615 -3.78239e-18)
(19.6091 7.43313 3.45912e-17)
(19.7242 7.23224 -2.35485e-17)
(19.8174 7.01545 0)
(19.886 6.78547 1.73036e-18)
(19.9259 6.56512 0)
(19.9424 6.36216 -1.52975e-17)
(19.9406 6.16401 2.97934e-17)
(19.922 5.97275 -1.44956e-17)
(19.8887 5.78981 0)
(19.8426 5.61603 0)
(19.7858 5.45181 7.0664e-18)
(19.7198 5.29731 -7.54878e-18)
(19.6461 5.15251 -7.71457e-18)
(19.5659 5.01728 7.77923e-18)
(19.4802 4.8914 7.88748e-18)
(19.3899 4.77461 -7.92067e-18)
(19.2958 4.66655 0)
(19.1983 4.5667 -6.37018e-20)
(19.098 4.47489 0)
(18.9955 4.3911 -1.62161e-20)
(18.8913 4.31483 -6.53889e-20)
(18.7856 4.24587 2.24267e-18)
(18.6791 4.18454 -3.17206e-18)
(18.5727 4.12935 1.04504e-18)
(16.398 8.10519 0)
(16.6327 8.1375 -2.04298e-18)
(16.8467 8.15654 0)
(17.047 8.16944 1.63138e-17)
(17.2368 8.17342 -1.63699e-17)
(17.4181 8.16883 0)
(17.5935 8.15631 1.64675e-17)
(17.7647 8.13564 1.62992e-17)
(17.9325 8.10613 -4.23099e-17)
(18.0971 8.06711 0)
(18.2596 8.01808 3.33656e-17)
(18.42 7.95799 -6.71753e-17)
(18.5769 7.88508 3.29308e-17)
(18.7288 7.79762 0)
(18.8745 7.69466 -3.07051e-17)
(19.0125 7.57604 3.41955e-17)
(19.1406 7.44171 3.31939e-17)
(19.2565 7.29196 -3.66938e-17)
(19.3579 7.1275 -3.53438e-18)
(19.4427 6.94955 0)
(19.5084 6.75979 0)
(19.551 6.5764 -1.82003e-18)
(19.5743 6.4064 8.69382e-19)
(19.5825 6.23907 1.4344e-17)
(19.5766 6.07601 9.88217e-19)
(19.5579 5.9186 -1.43715e-17)
(19.528 5.76779 1.45567e-17)
(19.4884 5.62413 -1.41028e-17)
(19.4402 5.48791 -8.31452e-18)
(19.3846 5.35926 7.3809e-18)
(19.3227 5.2382 -7.4973e-18)
(19.2552 5.12467 7.49198e-18)
(19.1829 5.01859 0)
(19.1066 4.91978 -8.1508e-18)
(19.0268 4.82787 7.71836e-18)
(18.944 4.74278 0)
(18.859 4.66454 1.51449e-20)
(18.7721 4.59272 2.03156e-18)
(18.6837 4.52711 -2.08937e-18)
(18.5944 4.46785 9.34785e-19)
(18.5055 4.41406 -9.76463e-19)
(16.4853 7.87644 0)
(16.6929 7.9022 1.88343e-18)
(16.8822 7.91635 -1.53146e-17)
(17.0589 7.92481 3.05464e-17)
(17.2257 7.92531 -6.22132e-17)
(17.3845 7.91835 3.16379e-17)
(17.5375 7.9046 0)
(17.6863 7.88393 1.58512e-17)
(17.8313 7.85586 9.62107e-17)
(17.9732 7.81991 -6.51749e-17)
(18.1126 7.77574 0)
(18.2496 7.72253 -8.25306e-18)
(18.3832 7.65902 2.39936e-17)
(18.5124 7.58397 -3.0183e-19)
(18.6363 7.49673 -3.06885e-17)
(18.7538 7.39711 3.37155e-17)
(18.8632 7.28502 -2.95315e-17)
(18.963 7.16056 2.88522e-17)
(19.0513 7.0242 -2.88316e-17)
(19.1266 6.87673 -2.85486e-17)
(19.1869 6.71925 2.4708e-17)
(19.2284 6.56592 -1.23933e-17)
(19.2541 6.42336 1.57874e-17)
(19.2675 6.28255 -1.49066e-17)
(19.2692 6.14447 -2.692e-18)
(19.26 6.0102 1.40525e-17)
(19.2411 5.8806 0)
(19.2136 5.75621 0)
(19.1783 5.63739 -1.3408e-17)
(19.1362 5.52435 1.42672e-17)
(19.0881 5.41722 0)
(19.0347 5.31606 9.11008e-19)
(18.9766 5.22089 9.1503e-19)
(18.9145 5.13168 7.77647e-18)
(18.849 5.0482 -7.76873e-18)
(18.7805 4.97047 -3.69726e-18)
(18.7099 4.89857 3.6885e-18)
(18.6373 4.83212 -1.39776e-18)
(18.5632 4.77099 3.73129e-18)
(18.4882 4.71521 -1.80783e-18)
(18.4134 4.66426 -2.30903e-19)
(16.5562 7.68209 1.37544e-17)
(16.7409 7.70268 1.71627e-17)
(16.9092 7.71303 -1.96133e-19)
(17.066 7.71807 0)
(17.2135 7.71596 0)
(17.3535 7.7073 0)
(17.4878 7.69276 0)
(17.6179 7.6723 -6.06996e-17)
(17.7442 7.64558 1.08072e-16)
(17.8673 7.61228 -6.25543e-17)
(17.9876 7.57216 6.24919e-17)
(18.1054 7.52461 -3.97003e-17)
(18.2199 7.4687 7.06468e-17)
(18.3303 7.40345 -8.45401e-17)
(18.4361 7.32845 3.00665e-17)
(18.5363 7.24361 2.20285e-17)
(18.6299 7.14884 -2.89691e-17)
(18.7156 7.04419 3.50961e-18)
(18.792 6.92996 -3.57196e-18)
(18.858 6.8067 3.51176e-17)
(18.9121 6.67514 3.11267e-17)
(18.9508 6.54617 -5.17841e-17)
(18.9765 6.42583 -1.68777e-18)
(18.9921 6.30681 0)
(18.9979 6.1897 1.68667e-18)
(18.9945 6.07526 -1.72992e-18)
(18.9828 5.96414 -1.20061e-17)
(18.9636 5.85686 1.37098e-17)
(18.9375 5.75377 -1.37998e-17)
(18.9054 5.65513 1.37707e-17)
(18.8677 5.56111 1.38783e-17)
(18.8251 5.47184 -1.47052e-17)
(18.7783 5.38742 -8.62702e-19)
(18.7277 5.30789 7.0038e-18)
(18.674 5.23311 -5.66746e-18)
(18.6175 5.16314 0)
(18.5588 5.0981 0)
(18.4984 5.0377 -4.38713e-19)
(18.4366 4.98182 8.88071e-19)
(18.3737 4.9305 8.89229e-19)
(18.311 4.88347 2.16159e-19)
(16.6146 7.51527 0)
(16.7796 7.53176 -3.22105e-18)
(16.9299 7.53912 2.62828e-17)
(17.0697 7.54153 -2.70224e-17)
(17.2008 7.53748 -5.46094e-17)
(17.3248 7.52764 5.62807e-17)
(17.4434 7.51266 2.81307e-17)
(17.5578 7.49259 -5.82205e-17)
(17.6685 7.46718 -5.85287e-17)
(17.7758 7.43623 5.97465e-17)
(17.8804 7.39958 0)
(17.9823 7.35678 -3.02748e-17)
(18.081 7.30716 6.0648e-17)
(18.1758 7.24994 -6.73839e-17)
(18.2664 7.18481 0)
(18.3522 7.11175 -7.20785e-18)
(18.4322 7.03074 7.09753e-18)
(18.5057 6.94182 0)
(18.5715 6.84519 3.39661e-18)
(18.6287 6.74125 -6.74441e-18)
(18.6764 6.63054 3.04423e-17)
(18.7113 6.52147 -3.02062e-17)
(18.7356 6.41916 3.36457e-18)
(18.7514 6.31787 2.49282e-17)
(18.759 6.21803 -2.48532e-17)
(18.7589 6.1202 1.63898e-18)
(18.7518 6.02486 -1.49225e-17)
(18.7381 5.93245 1.32487e-17)
(18.7186 5.84329 1.67382e-18)
(18.6936 5.75763 0)
(18.6639 5.67567 0)
(18.6298 5.59756 0)
(18.5919 5.52341 -6.68858e-18)
(18.5507 5.45329 6.66788e-18)
(18.5066 5.3871 -8.30555e-19)
(18.46 5.32493 -6.71566e-18)
(18.4115 5.26688 7.53442e-18)
(18.3613 5.21273 0)
(18.3099 5.1624 7.65559e-21)
(18.2573 5.11593 -1.67778e-18)
(18.2051 5.07323 8.18273e-19)
(16.663 7.37083 1.17135e-17)
(16.811 7.38404 0)
(16.9457 7.38907 -6.09157e-17)
(17.0708 7.38944 5.03478e-17)
(17.1878 7.38394 0)
(17.2982 7.37329 5.2411e-17)
(17.4034 7.35813 -2.47904e-19)
(17.5045 7.33854 5.46449e-17)
(17.602 7.31436 -8.40484e-17)
(17.6962 7.28545 -5.64302e-17)
(17.7876 7.25174 5.7583e-17)
(17.8763 7.21289 1.43746e-17)
(17.9618 7.16838 0)
(18.0436 7.11771 0)
(18.1216 7.06056 -1.42061e-17)
(18.1952 6.99695 6.2059e-17)
(18.2638 6.92691 -1.22584e-16)
(18.3266 6.85051 5.39271e-17)
(18.383 6.76791 6.72113e-18)
(18.4323 6.67939 6.67564e-18)
(18.4736 6.58541 -3.24013e-18)
(18.5044 6.49269 4.87533e-17)
(18.5264 6.40525 -8.38202e-17)
(18.5413 6.31858 1.57054e-18)
(18.5493 6.23309 2.40511e-17)
(18.5508 6.14922 0)