/*--------------------------------*- C++ -*----------------------------------*\
| =========                 |                                                 |
| \\      /  F ield         | OpenFOAM: The Open Source CFD Toolbox           |
|  \\    /   O peration     | Version:  5.x                                   |
|   \\  /    A nd           | Web:      www.OpenFOAM.org                      |
|    \\/     M anipulation  |                                                 |
\*---------------------------------------------------------------------------*/
FoamFile
{
    version     2.0;
    format      ascii;
    class       volVectorField;
    location    "50";
    object      wallShearStress;
}
// * * * * * * * * * * * * * * * * * * * * * * * * * * * * * * * * * * * * * //

dimensions      [0 2 -2 0 0 0 0];

internalField   uniform (0 0 0);

boundaryField
{
    inlet
    {
        type            calculated;
        value           uniform (0 0 0);
    }
    outlet
    {
        type            calculated;
        value           uniform (0 0 0);
    }
    walls
    {
        type            calculated;
        value           nonuniform List<vector> 
82
(
(0.0607493 -0.598993 -7.52316e-37)
(-0.0452044 -0.947322 7.42328e-21)
(-0.199873 -1.25042 -7.73263e-19)
(-0.438853 -1.32164 -9.00496e-19)
(-0.653344 -1.2868 -2.20494e-18)
(-0.818524 -1.17105 1.12816e-18)
(-0.927136 -1.01031 1.10365e-18)
(-0.982801 -0.834661 -1.05762e-18)
(-0.99524 -0.663055 -2.44396e-18)
(-0.970676 -0.504926 -7.97746e-20)
(-0.890295 -0.348407 -1.14282e-18)
(-0.78589 -0.219055 6.17453e-20)
(-0.706545 -0.14134 -9.61319e-19)
(-0.663715 -0.102836 -9.32564e-19)
(-0.627038 -0.0763595 -7.62206e-19)
(-0.581662 -0.0513659 -4.6375e-19)
(-0.53012 -0.0296411 3.77444e-19)
(-0.477593 -0.0121779 3.5105e-20)
(-0.425831 0.00136903 -3.49543e-20)
(-0.374941 0.0114031 -2.29512e-19)
(-0.32494 0.018311 -1.96982e-19)
(-0.282069 0.0218817 -1.84392e-19)
(-0.245724 0.0232977 -3.13854e-19)
(-0.211532 0.0235008 -1.68221e-20)
(-0.179491 0.022762 1.1984e-21)
(-0.149706 0.0212367 6.29983e-21)
(-0.122316 0.0190754 -3.43823e-19)
(-0.097467 0.0164122 3.96684e-21)
(-0.0753858 0.013439 -2.31402e-19)
(-0.0563055 0.0103578 1.74756e-19)
(-0.0404636 0.00761128 2.33214e-21)
(-0.0268947 0.00542682 5.88445e-22)
(-0.0151415 0.00351595 -6.09346e-22)
(-0.00689806 0.00188388 2.35099e-38)
(-0.00171374 0.000740896 1.6805e-20)
(0.00112414 -7.56357e-05 -3.52648e-38)
(0.00396638 -0.0012153 -3.76526e-39)
(0.00832401 -0.00300276 1.59426e-22)
(0.0189614 -0.00463315 -1.43729e-21)
(0.0314978 0.000162588 1.04484e-19)
(0.0185481 0.00865387 1.2753e-19)
(0.0696784 -0.350734 -1.73024e-19)
(0.0298321 -0.133561 -2.29509e-20)
(-0.000132952 -0.0323209 -9.5561e-19)
(-0.0149156 -0.00189171 -4.80441e-19)
(-0.0506257 0.0215102 -6.32956e-19)
(-0.0961787 0.0449037 -6.98576e-19)
(-0.141426 0.0606245 -1.34697e-18)
(-0.182609 0.0704509 -5.96426e-19)
(-0.219954 0.0772355 5.03468e-19)
(-0.26168 0.0876945 3.32e-20)
(-0.310982 0.0967262 -9.05892e-19)
(-0.352743 0.0929167 3.81436e-19)
(-0.382592 0.0817017 1.88876e-21)
(-0.406862 0.0703822 2.07381e-19)
(-0.428224 0.0595265 2.98714e-19)
(-0.445831 0.048262 -1.74481e-20)
(-0.459312 0.0366955 0)
(-0.468993 0.0251689 -9.63524e-20)
(-0.475258 0.0140187 -6.55905e-21)
(-0.478574 0.00347222 -4.46835e-20)
(-0.479074 -0.0062369 3.17722e-22)
(-0.478266 -0.0147992 -2.35099e-38)
(-0.476327 -0.0216114 -7.74672e-20)
(-0.473945 -0.027674 -6.40206e-20)
(-0.47114 -0.0331618 1.28032e-19)
(-0.467807 -0.038119 1.21206e-19)
(-0.463937 -0.0425214 2.31924e-19)
(-0.459613 -0.0463132 1.11815e-19)
(-0.455051 -0.049465 3.33278e-21)
(-0.450586 -0.0520052 -1.07841e-19)
(-0.446578 -0.0540605 -1.02196e-19)
(-0.443319 -0.0558382 1.92905e-19)
(-0.44089 -0.0576012 1.80956e-19)
(-0.43918 -0.0595946 -1.67595e-19)
(-0.437862 -0.0619942 1.15272e-21)
(-0.436514 -0.0648472 -1.13345e-21)
(-0.434564 -0.0680752 0)
(-0.43227 -0.071522 0)
(-0.427055 -0.074864 2.58429e-22)
(-0.429064 -0.0780293 -1.36258e-19)
(-0.398866 -0.0816207 1.25874e-22)
)
;
    }
    frontAndBack
    {
        type            empty;
    }
}


// ************************************************************************* //
