/*--------------------------------*- C++ -*----------------------------------*\
| =========                 |                                                 |
| \\      /  F ield         | OpenFOAM: The Open Source CFD Toolbox           |
|  \\    /   O peration     | Version:  5.x                                   |
|   \\  /    A nd           | Web:      www.OpenFOAM.org                      |
|    \\/     M anipulation  |                                                 |
\*---------------------------------------------------------------------------*/
FoamFile
{
    version     2.0;
    format      ascii;
    class       volVectorField;
    location    "50";
    object      wallShearStress;
}
// * * * * * * * * * * * * * * * * * * * * * * * * * * * * * * * * * * * * * //

dimensions      [0 2 -2 0 0 0 0];

internalField   uniform (0 0 0);

boundaryField
{
    inlet
    {
        type            calculated;
        value           uniform (0 0 0);
    }
    outlet
    {
        type            calculated;
        value           uniform (0 0 0);
    }
    walls
    {
        type            calculated;
        value           nonuniform List<vector> 
164
(
(-270.13 -453.555 -4.81482e-35)
(-821.391 -635.419 9.21569e-16)
(-1802.14 -732.56 9.29016e-16)
(-1929.58 -649.853 -2.87271e-16)
(-2000.01 -561.611 -3.22928e-22)
(-1966.91 -476.997 -6.44407e-17)
(-1888.34 -403.39 -3.2517e-17)
(-1785.43 -340.963 1.55528e-18)
(-1670.85 -288.266 -2.05382e-34)
(-1554.14 -243.829 6.75907e-17)
(-1437.84 -206.161 -1.07014e-16)
(-1332.29 -175.629 -1.49251e-16)
(-1227.88 -148.878 1.543e-21)
(-1134.26 -127.197 -2.41259e-16)
(-1049.66 -108.102 3.04377e-16)
(-981.703 -94.3973 3.27377e-16)
(-938.511 -82.7286 -3.5561e-16)
(-888.702 -72.9064 3.73267e-16)
(-863.852 -65.427 3.81359e-16)
(-828.364 -57.2413 -3.99198e-16)
(-806.363 -51.3844 4.00156e-16)
(-778.348 -45.447 2.37397e-21)
(-761.162 -40.6209 5.06773e-21)
(-738.493 -35.8348 -1.72269e-21)
(-719.843 -31.6319 -9.70543e-16)
(-704.949 -27.8563 4.81909e-16)
(-689.899 -24.3155 -2.25695e-36)
(-677.823 -21.1098 2.42708e-16)
(-665.642 -18.0395 -2.44202e-16)
(-654.946 -15.17 2.82119e-36)
(-637.664 -12.3224 -1.867e-21)
(-634.007 -10.1691 1.81739e-21)
(-614.86 -7.36 6.61619e-21)
(-610.943 -6.24236 -3.59733e-21)
(-605.808 -2.29765 -1.16643e-16)
(-589.56 -2.10132 -1.85728e-36)
(-603.169 1.59601 1.44299e-17)
(-583.533 2.79538 -1.20128e-16)
(-590.595 3.65983 1.16129e-16)
(-577.8 6.39623 -2.3133e-16)
(-574.25 6.51886 1.27894e-35)
(-576.336 9.55458 8.63968e-16)
(-554.013 8.71235 1.24132e-35)
(-566.636 11.3128 -6.06281e-21)
(-550.635 11.8429 -5.3216e-16)
(-552.608 12.5663 1.03631e-21)
(-549.309 14.7225 -1.02227e-21)
(-535.472 14.1714 -5.65383e-16)
(-544.258 16.4242 1.12074e-15)
(-527.821 16.2321 5.90238e-16)
(-535.383 17.5141 1.13119e-21)
(-525.944 18.6423 -5.97198e-16)
(-527.055 17.5115 6.06437e-16)
(-531.777 20.7673 -1.11508e-21)
(-518.301 18.5156 -3.59939e-24)
(-532.283 21.4966 -2.02499e-24)
(-518.697 20.6968 1.08934e-21)
(-526.48 21.949 1.50463e-36)
(-515.71 22.6587 1.15725e-15)
(-509.565 21.6818 1.16604e-21)
(-511.603 24.6671 -1.20404e-15)
(-509.376 23.0167 1.19673e-15)
(-518.988 26.4504 -1.17295e-15)
(-505.713 24.7862 2.43519e-15)
(-517.073 27.1985 -1.21333e-15)
(-498.516 26.7352 1.30362e-15)
(-512.668 27.3609 -1.50463e-36)
(-507.954 29.183 -5.87927e-22)
(-504.534 27.5193 -4.50816e-24)
(-503.547 30.2497 1.24403e-15)
(-497.983 28.6941 4.53574e-24)
(-504.467 31.8463 -5.8684e-22)
(-490.505 29.5303 -2.50556e-15)
(-500.147 31.6897 2.98774e-22)
(-491.03 31.8668 -2.53416e-15)
(-490.91 32.654 6.57464e-32)
(-482.39 33.5694 5.35033e-15)
(-489.958 33.2177 1.53994e-22)
(-482.276 35.8207 -2.69735e-15)
(-473.502 33.6764 2.77942e-15)
(-488.244 37.6002 -2.79886e-15)
(-89.9524 8.08201 6.92027e-15)
(47.4337 -114.925 -1.92593e-34)
(-854.495 556.211 -5.01769e-15)
(-1584.69 685.128 -2.88889e-34)
(-1874.44 625.908 3.93085e-33)
(-1950.13 539.351 -1.77547e-32)
(-1924.21 458.006 7.6042e-16)
(-1852.98 388.743 3.13268e-21)
(-1757.86 323.321 1.65304e-39)
(-1651 279.473 1.48103e-19)
(-1519.31 228.15 -1.00211e-15)
(-1421.64 198.817 -4.12218e-21)
(-1297.92 163.183 -1.1454e-15)
(-1203.46 140.17 4.77756e-21)
(-1107.51 118.775 -4.86244e-21)
(-1029.88 101.658 -1.37213e-15)
(-975.126 88.7201 1.29989e-15)
(-929.68 77.8543 -4.98609e-21)
(-892.472 68.7749 1.2678e-15)
(-861.421 61.0219 -4.57741e-21)
(-832.447 53.9465 2.07615e-20)
(-813.063 49.0349 1.15015e-15)
(-780.352 41.3386 9.0278e-36)
(-765.581 37.7716 -1.10631e-15)
(-743.648 32.5771 -1.078e-15)
(-720.768 28.6254 -1.01333e-21)
(-709.543 25.0774 -1.02764e-15)
(-696.852 21.6892 -5.95759e-33)
(-684.417 18.5687 4.83218e-16)
(-673.76 15.6348 -9.43062e-16)
(-662.891 12.8903 -4.51535e-21)
(-650.255 10.2543 -4.46561e-16)
(-634.917 7.58897 -2.16429e-16)
(-644.737 6.36334 -3.03437e-21)
(-615.69 2.52709 9.94516e-17)
(-615.239 1.26489 4.7242e-17)
(-605.525 -0.615027 -5.77413e-21)
(-606.671 -2.47768 2.66593e-21)
(-600.167 -4.14793 1.7319e-16)
(-594.136 -5.77672 -3.36079e-16)
(-591.671 -7.38554 -2.45735e-21)
(-589.327 -10.0622 6.07169e-16)
(-588.033 -9.21921 -5.95765e-16)
(-570.794 -11.3344 4.73207e-33)
(-568.241 -12.5592 -7.18724e-16)
(-562.809 -13.3901 -7.1183e-16)
(-555.995 -14.405 -7.13797e-16)
(-550.828 -15.1262 1.42996e-15)
(-546.805 -16.0036 -7.15058e-16)
(-543.75 -16.7655 -7.22329e-16)
(-541.463 -17.4361 7.25532e-16)
(-539.213 -18.2628 4.70198e-38)
(-538.845 -18.7657 7.34119e-16)
(-537.555 -19.6364 1.39729e-21)
(-537.052 -20.0416 1.45104e-15)
(-535.851 -20.8612 1.41511e-15)
(-534.77 -21.3156 -7.52316e-36)
(-533.537 -21.9835 3.01825e-32)
(-527.71 -22.3691 -1.28414e-21)
(-526.423 -22.8312 2.62564e-15)
(-528.393 -23.6599 5.54519e-21)
(-526.541 -23.9923 -2.4934e-15)
(-523.607 -24.5654 -1.2475e-15)
(-521.575 -24.7221 -1.50463e-36)
(-521.482 -25.2548 -6.07495e-22)
(-521.758 -25.6218 -1.26535e-15)
(-514.459 -25.6929 -1.3208e-15)
(-514.053 -26.0002 -1.33984e-15)
(-515.932 -26.462 1.31256e-15)
(-514.131 -26.8832 1.3351e-15)
(-510.722 -26.9071 6.36811e-22)
(-509.449 -27.3295 -1.12932e-32)
(-510.619 -27.6557 1.64188e-21)
(-514.032 -28.3813 -1.22355e-15)
(-508.857 -28.4929 5.91311e-22)
(-510.282 -29.0233 1.20019e-15)
(-509.386 -29.427 -5.62396e-22)
(-503.207 -29.5655 2.83716e-22)
(-502.064 -29.8528 1.40102e-22)
(-504.686 -32.2008 -2.29292e-15)
(-501.151 -29.7122 2.25066e-15)
(-509.061 -31.0747 1.01303e-22)
(-83.8959 -5.95386 -5.46287e-15)
)
;
    }
    frontAndBack
    {
        type            empty;
    }
}


// ************************************************************************* //
