/*--------------------------------*- C++ -*----------------------------------*\
| =========                 |                                                 |
| \\      /  F ield         | OpenFOAM: The Open Source CFD Toolbox           |
|  \\    /   O peration     | Version:  5.x                                   |
|   \\  /    A nd           | Web:      www.OpenFOAM.org                      |
|    \\/     M anipulation  |                                                 |
\*---------------------------------------------------------------------------*/
FoamFile
{
    version     2.0;
    format      ascii;
    class       volVectorField;
    location    "50";
    object      wallShearStress;
}
// * * * * * * * * * * * * * * * * * * * * * * * * * * * * * * * * * * * * * //

dimensions      [0 2 -2 0 0 0 0];

internalField   uniform (0 0 0);

boundaryField
{
    inlet
    {
        type            calculated;
        value           uniform (0 0 0);
    }
    outlet
    {
        type            calculated;
        value           uniform (0 0 0);
    }
    walls
    {
        type            calculated;
        value           nonuniform List<vector> 
82
(
(0.109346 -1.04133 0)
(-0.0749779 -1.64508 1.28299e-20)
(-0.341463 -2.16961 -1.32962e-18)
(-0.753163 -2.29174 -1.54323e-18)
(-1.12251 -2.23216 -3.77775e-18)
(-1.40778 -2.03278 1.93422e-18)
(-1.59612 -1.75492 1.89285e-18)
(-1.69396 -1.44982 -1.80976e-18)
(-1.71742 -1.15147 -4.17771e-18)
(-1.67647 -0.877229 -1.36436e-19)
(-1.53779 -0.606165 -1.94892e-18)
(-1.35729 -0.382199 1.04854e-19)
(-1.22139 -0.247557 -1.62787e-18)
(-1.14995 -0.180642 -1.57142e-18)
(-1.08922 -0.13434 -1.27826e-18)
(-1.01302 -0.0904777 -7.7354e-19)
(-0.925649 -0.0522524 6.26277e-19)
(-0.836247 -0.0214573 5.77154e-20)
(-0.747991 0.00249157 -5.74563e-20)
(-0.661109 0.0203453 -3.73156e-19)
(-0.575508 0.0327751 -3.17186e-19)
(-0.501931 0.0393505 -2.92862e-19)
(-0.439175 0.0420939 -4.91515e-19)
(-0.37978 0.0426555 -2.57418e-20)
(-0.323717 0.0414862 2.11175e-21)
(-0.271162 0.0388697 9.12705e-21)
(-0.222346 0.0350874 -4.74554e-19)
(-0.177546 0.0303831 4.8883e-21)
(-0.137276 0.0250723 -2.70081e-19)
(-0.101997 0.0195795 1.74766e-19)
(-0.0719338 0.0141375 2.1395e-21)
(-0.0483964 0.00953685 5.95801e-23)
(-0.0286645 0.00609652 -5.90575e-23)
(-0.0130228 0.00329228 -1.88079e-37)
(-0.00315099 0.00120799 -1.65152e-19)
(0.00175834 -3.04802e-09 1.88079e-37)
(0.0075418 -0.00186492 -6.61216e-39)
(0.0171253 -0.00505496 7.43124e-22)
(0.0373267 -0.00726969 -2.50475e-21)
(0.0573835 0.00212968 4.26174e-19)
(0.0292105 0.0152593 4.49744e-19)
(0.123887 -0.61016 -3.00737e-19)
(0.0542298 -0.232601 -3.99641e-20)
(0.00135346 -0.0564556 -1.64971e-18)
(-0.0215815 -0.00409381 -7.71731e-19)
(-0.0797965 0.0334462 -1.09845e-18)
(-0.15637 0.0738561 -1.218e-18)
(-0.233031 0.100838 -2.30266e-18)
(-0.302577 0.116846 -1.02221e-18)
(-0.366289 0.128208 8.78476e-19)
(-0.437936 0.146318 5.87547e-20)
(-0.522279 0.162251 -1.62867e-18)
(-0.593973 0.156635 6.93729e-19)
(-0.645609 0.138298 3.17378e-21)
(-0.68779 0.119518 3.84515e-19)
(-0.725091 0.101401 5.59803e-19)
(-0.756029 0.0825129 -3.29126e-20)
(-0.779972 0.0629658 2.35099e-37)
(-0.797477 0.0433875 -1.86893e-19)
(-0.809121 0.0243437 -1.27781e-20)
(-0.81563 0.00627845 -8.92239e-20)
(-0.817129 -0.0103826 5.32909e-22)
(-0.81635 -0.0250662 0)
(-0.813558 -0.0367052 -1.6145e-19)
(-0.810067 -0.0470307 -1.35138e-19)
(-0.805919 -0.0563805 2.73505e-19)
(-0.800941 -0.0648906 2.61329e-19)
(-0.795031 -0.0725595 5.03446e-19)
(-0.788234 -0.079318 2.44149e-19)
(-0.780772 -0.0850839 7.36523e-21)
(-0.773094 -0.0898176 -2.39268e-19)
(-0.765793 -0.0935917 -2.2987e-19)
(-0.759448 -0.0966231 4.41812e-19)
(-0.754462 -0.0992877 4.23601e-19)
(-0.750941 -0.102029 -4.01691e-19)
(-0.748643 -0.105292 2.83617e-21)
(-0.746958 -0.109361 -2.79442e-21)
(-0.744919 -0.114339 -2.93874e-39)
(-0.742495 -0.12011 -1.10203e-39)
(-0.735017 -0.126195 6.06674e-22)
(-0.738445 -0.132299 -3.17033e-19)
(-0.682315 -0.139269 2.95591e-22)
)
;
    }
    frontAndBack
    {
        type            empty;
    }
}


// ************************************************************************* //
