# Wall shear stress
# Time       	patch        	min          	max          
0.000000e+00	walls	(-5.865422e+00 -7.030033e-02 -3.103834e-18)	(-4.389906e+00 1.431318e+00 3.155440e-18)
5.000000e+01	walls	(-2.943130e+10 -3.986383e+10 -4.183523e-07)	(3.045876e+10 9.584753e+10 1.101485e-06)
1.000000e+02	walls	(-7.708824e+09 -1.540340e+09 -8.203976e-08)	(1.723803e+09 3.777685e+09 1.785827e-07)
1.500000e+02	walls	(-1.962268e+09 -8.363826e+09 -9.060651e-08)	(3.519648e+09 1.818682e+07 8.926594e-08)
2.000000e+02	walls	(-1.577440e+08 -1.230210e+09 -4.268205e-09)	(1.229640e+09 2.509126e+07 6.757132e-09)
2.500000e+02	walls	(-3.481416e+08 -1.098278e+09 -3.741073e-09)	(8.326019e+08 7.736417e+07 4.118603e-09)
3.000000e+02	walls	(-5.610814e+09 -5.558710e+09 -4.650758e-08)	(1.496025e+10 1.370330e+09 4.911707e-08)
3.500000e+02	walls	(-8.950529e+11 -1.667727e+12 -6.403634e-06)	(4.273810e+11 4.058344e+10 1.560045e-05)
4.000000e+02	walls	(-2.304814e+19 -3.508083e+18 -1.043430e+02)	(2.400847e+16 8.204269e+16 1.525103e+01)
