/*--------------------------------*- C++ -*----------------------------------*\
| =========                 |                                                 |
| \\      /  F ield         | OpenFOAM: The Open Source CFD Toolbox           |
|  \\    /   O peration     | Version:  5.x                                   |
|   \\  /    A nd           | Web:      www.OpenFOAM.org                      |
|    \\/     M anipulation  |                                                 |
\*---------------------------------------------------------------------------*/
FoamFile
{
    version     2.0;
    format      ascii;
    class       volScalarField;
    location    "2200";
    object      nut;
}
// * * * * * * * * * * * * * * * * * * * * * * * * * * * * * * * * * * * * * //

dimensions      [0 2 -1 0 0 0 0];

internalField   nonuniform List<scalar> 
11040
(
0.00180844
0.00196058
0.00236423
0.00268081
0.00282517
0.0028674
0.00285482
0.00280884
0.00273332
0.00262993
0.00247714
0.00234807
0.0022661
0.00220747
0.00214378
0.00207871
0.00201423
0.00195314
0.00189855
0.00185028
0.00180541
0.00176725
0.0017341
0.001703
0.00167377
0.00164596
0.00161901
0.00159258
0.00156642
0.0015402
0.00151346
0.0014856
0.00145588
0.00142344
0.0013868
0.00134433
0.00129322
0.00123037
0.00114289
0.00103866
0.000782247
0.00816672
0.00857713
0.00795396
0.00728059
0.0065739
0.0059058
0.00530344
0.00476449
0.00429
0.00388091
0.00348292
0.00333686
0.00327983
0.00315
0.00298432
0.00282537
0.00268723
0.0025686
0.00248398
0.00242915
0.00238799
0.00235107
0.00231821
0.00228996
0.00226718
0.0022479
0.00223054
0.00221502
0.00220189
0.00219133
0.00218311
0.00217699
0.00217294
0.00217099
0.00217125
0.00217364
0.00217832
0.00218313
0.0021888
0.00218182
0.00211266
0.0163961
0.0170022
0.016261
0.0151871
0.0139386
0.0126683
0.0114557
0.0103223
0.0092788
0.00830375
0.00732966
0.0064866
0.00583956
0.00534509
0.00491032
0.00452804
0.00418949
0.00390372
0.00376049
0.00369392
0.003638
0.00358267
0.00354323
0.0035211
0.00350995
0.00350127
0.00349282
0.0034868
0.00348476
0.00348587
0.00348845
0.00349143
0.00349425
0.00349629
0.00349615
0.00349211
0.00348327
0.00346227
0.0034339
0.00336662
0.00322004
0.0257837
0.0265194
0.0257684
0.0243979
0.022706
0.0208869
0.0190673
0.0172921
0.015618
0.0140458
0.0124808
0.0110856
0.0099735
0.00909658
0.00832865
0.00765862
0.00707327
0.00655618
0.00610388
0.00571177
0.00536744
0.0051153
0.00500219
0.00495165
0.00491499
0.00487426
0.00484035
0.00482217
0.00481711
0.00481794
0.00482109
0.00482639
0.00483361
0.00484123
0.00484656
0.00484634
0.0048381
0.00481072
0.00476492
0.00466257
0.0044017
0.0359167
0.036739
0.036063
0.0345487
0.0325643
0.0302953
0.0279184
0.0254849
0.0231459
0.0209275
0.0187287
0.0167457
0.0151518
0.013883
0.0127589
0.0117674
0.0109018
0.0101314
0.00943658
0.00880972
0.00824533
0.00778814
0.00742869
0.0071159
0.00684059
0.00660639
0.0064683
0.00640256
0.0063626
0.00632554
0.00629596
0.00627919
0.00627198
0.00626828
0.00626365
0.00625428
0.00623684
0.00619885
0.00613688
0.00602164
0.00569185
0.0464465
0.0473162
0.046756
0.0452354
0.0431139
0.0405001
0.0376421
0.0347176
0.0318477
0.0290566
0.0262354
0.0236123
0.0214244
0.019668
0.018157
0.0168376
0.0156969
0.0146472
0.0136829
0.0128077
0.0120166
0.011368
0.0108341
0.010347
0.00990568
0.00950474
0.00914496
0.00882638
0.00854283
0.00830265
0.00815516
0.00807513
0.00801796
0.00796574
0.0079183
0.00787197
0.00782032
0.00774841
0.00764869
0.00750357
0.00711901
0.0570556
0.0579239
0.057491
0.0560672
0.0539291
0.0512318
0.0482162
0.0450386
0.0418256
0.038611
0.0352816
0.0320833
0.0293094
0.0269967
0.0249642
0.0231625
0.0215699
0.0201548
0.0188902
0.01776
0.0167358
0.0158759
0.0151318
0.014461
0.0138647
0.0133184
0.012814
0.0123472
0.0119138
0.0115095
0.0111364
0.0107951
0.0104805
0.010233
0.0100696
0.0099405
0.00981473
0.00967151
0.00949811
0.00928388
0.00880947
0.0674127
0.0682593
0.0679459
0.0666825
0.0646746
0.0621084
0.0591693
0.0559785
0.0526514
0.0492231
0.0455863
0.0419778
0.0387213
0.0358969
0.0333504
0.0310454
0.028966
0.0270924
0.0254036
0.0238817
0.0225136
0.0213684
0.0204111
0.0195458
0.0187636
0.0180522
0.0173999
0.0167968
0.0162344
0.0157055
0.0152032
0.0147217
0.0142546
0.0137996
0.0133568
0.0129269
0.0125666
0.012264
0.0119588
0.0116257
0.0110044
0.0772889
0.078063
0.0778414
0.0767661
0.0749915
0.0726901
0.0699964
0.0669933
0.063772
0.0603533
0.0566448
0.0528489
0.0492883
0.0460796
0.0431173
0.0403792
0.0378585
0.0355448
0.0334248
0.0314847
0.0297143
0.0282447
0.0270407
0.0259514
0.02496
0.0240527
0.0232173
0.0224429
0.0217195
0.0210381
0.0203901
0.019767
0.0191605
0.0185616
0.0179585
0.0173415
0.0167114
0.0160568
0.015409
0.0148383
0.014009
0.0864356
0.0871116
0.0869576
0.0860721
0.0845724
0.0826021
0.0802539
0.077573
0.0746252
0.0713932
0.0678207
0.0640669
0.0604215
0.0570286
0.0538513
0.0508362
0.0479919
0.0453294
0.0428449
0.0405323
0.0383846
0.0365937
0.0351293
0.0337988
0.032581
0.0314606
0.0304242
0.0294597
0.0285561
0.0277031
0.0268908
0.0261095
0.0253496
0.0246006
0.0238476
0.0230794
0.0222852
0.0214402
0.0205272
0.0195813
0.0183669
0.0946863
0.095259
0.0951529
0.0944412
0.0932144
0.0915865
0.0896194
0.0873133
0.0847227
0.0818583
0.078642
0.0751805
0.0717037
0.0683437
0.0650803
0.0619355
0.0589262
0.056079
0.0533632
0.0507829
0.0483436
0.0462852
0.044585
0.0430262
0.0415891
0.0402598
0.0390245
0.0378703
0.0367851
0.0357578
0.0347776
0.033834
0.0329165
0.0320138
0.0311093
0.030192
0.0292506
0.0282599
0.0271923
0.0260767
0.0245254
0.101968
0.102441
0.102366
0.101803
0.100822
0.0995112
0.0979135
0.0960087
0.0938463
0.0914288
0.088686
0.0856812
0.0825794
0.0794816
0.0763767
0.0733008
0.0702839
0.0673537
0.0645273
0.0618151
0.0592289
0.0570088
0.0551284
0.0533844
0.0517677
0.0502715
0.0488718
0.0475553
0.0463108
0.045128
0.0439962
0.0429049
0.041844
0.0408017
0.0397602
0.0387089
0.0376373
0.036521
0.0353344
0.0341103
0.0324495
0.108285
0.108662
0.108605
0.108163
0.107391
0.106354
0.105084
0.103557
0.101813
0.099852
0.0976141
0.0951316
0.0924987
0.0898015
0.087041
0.0842589
0.081461
0.0786729
0.0759184
0.0732176
0.0705872
0.0682925
0.0663341
0.0645022
0.0627858
0.0611752
0.05966
0.0582292
0.0568721
0.0555781
0.0543369
0.0531373
0.0519759
0.0508336
0.0496922
0.0485427
0.0473767
0.0461712
0.0449052
0.043607
0.0419267
0.113688
0.113975
0.113928
0.113585
0.112983
0.112173
0.111176
0.109974
0.108599
0.107048
0.105276
0.103281
0.101152
0.0989343
0.0966219
0.0942373
0.0917997
0.0893426
0.0868616
0.0843727
0.0818937
0.0796869
0.077773
0.0759616
0.0742447
0.0726165
0.07107
0.0695978
0.0681918
0.0668436
0.0655447
0.0642859
0.0630589
0.0618533
0.0606529
0.0594499
0.0582372
0.0569931
0.0557009
0.0543807
0.0527453
0.118237
0.118461
0.118426
0.118162
0.117699
0.117069
0.116291
0.115352
0.11428
0.113073
0.111683
0.110133
0.10847
0.106721
0.104874
0.102942
0.100938
0.0988724
0.0967593
0.0946109
0.0924501
0.0904897
0.0887482
0.0870748
0.0854697
0.08394
0.0824726
0.0810617
0.0797022
0.0783887
0.0771152
0.0758755
0.0746628
0.0734688
0.0722797
0.07109
0.069895
0.0686758
0.0674199
0.0661406
0.064616
0.12206
0.122234
0.122207
0.122002
0.121654
0.121158
0.120548
0.119818
0.118987
0.118056
0.116987
0.1158
0.114525
0.113178
0.111737
0.11022
0.108647
0.107011
0.105316
0.10357
0.101781
0.100132
0.0986529
0.0972173
0.095826
0.0944789
0.0931749
0.0919117
0.0906865
0.0894958
0.088335
0.087206
0.0860976
0.0850027
0.0839101
0.0828166
0.0817199
0.0806043
0.0794613
0.0782987
0.0769586
0.125263
0.125398
0.125377
0.125216
0.124943
0.124556
0.124081
0.123516
0.122874
0.122157
0.121339
0.120435
0.119467
0.118434
0.117337
0.116181
0.114971
0.113708
0.112405
0.111055
0.109659
0.108356
0.107172
0.106013
0.104881
0.103776
0.102698
0.101646
0.100618
0.0996139
0.09863
0.0976641
0.0967133
0.0957736
0.0948363
0.0938999
0.092963
0.0920133
0.0910451
0.0900625
0.0889633
0.12782
0.12793
0.127913
0.127786
0.127568
0.127264
0.126888
0.126449
0.125942
0.125379
0.124743
0.124045
0.1233
0.122507
0.121666
0.120781
0.119856
0.11889
0.117885
0.116842
0.115765
0.114752
0.113826
0.112916
0.112024
0.111151
0.110295
0.109463
0.108648
0.107849
0.107063
0.10629
0.105527
0.104773
0.10402
0.103269
0.102519
0.101761
0.100992
0.100213
0.0993642
0.12979
0.129879
0.129867
0.129763
0.129585
0.129344
0.129038
0.128681
0.128274
0.127822
0.127322
0.12677
0.126183
0.12556
0.124902
0.124212
0.123493
0.122744
0.121966
0.12116
0.120326
0.119539
0.118815
0.118103
0.117405
0.116721
0.11605
0.115393
0.114749
0.114117
0.113501
0.112896
0.1123
0.11171
0.111123
0.110539
0.109958
0.109373
0.108782
0.108187
0.107551
0.131336
0.13141
0.1314
0.131314
0.131165
0.130964
0.130712
0.130418
0.130089
0.129719
0.129311
0.128864
0.128391
0.127897
0.127371
0.126823
0.126252
0.12566
0.125048
0.124416
0.123764
0.123146
0.122577
0.122017
0.121469
0.120931
0.120405
0.119889
0.119384
0.11889
0.118405
0.117929
0.117462
0.117005
0.116552
0.116103
0.115658
0.115212
0.114764
0.114315
0.113845
0.132579
0.132642
0.132633
0.13256
0.132434
0.132263
0.132055
0.131808
0.131532
0.131224
0.130887
0.130523
0.130135
0.12973
0.129303
0.128859
0.128399
0.127924
0.127435
0.126931
0.126415
0.125925
0.125472
0.125028
0.124593
0.124168
0.123748
0.123338
0.12294
0.122552
0.122173
0.121801
0.121438
0.121083
0.120733
0.120388
0.120048
0.119709
0.11937
0.119032
0.118685
0.133598
0.133651
0.133643
0.133581
0.133472
0.133326
0.133147
0.132941
0.132706
0.132449
0.132165
0.131861
0.131537
0.131201
0.130852
0.130487
0.130111
0.129724
0.129328
0.128921
0.128507
0.128112
0.127748
0.127392
0.127041
0.126701
0.126366
0.126039
0.12572
0.125413
0.125114
0.124823
0.124539
0.124263
0.123992
0.123725
0.123464
0.123205
0.122947
0.122692
0.122435
0.134446
0.134492
0.134484
0.13443
0.134336
0.134209
0.134054
0.133876
0.133678
0.133457
0.133218
0.132959
0.132689
0.132406
0.132114
0.131812
0.131504
0.131185
0.130859
0.130526
0.130189
0.129868
0.129572
0.129282
0.128998
0.128724
0.128454
0.128191
0.127936
0.127688
0.12745
0.127221
0.126999
0.126783
0.126572
0.126365
0.126163
0.125963
0.125767
0.125572
0.12538
0.135161
0.1352
0.135194
0.135146
0.135063
0.134953
0.134818
0.134662
0.13449
0.1343
0.134095
0.133874
0.133644
0.133407
0.13316
0.132906
0.132647
0.132383
0.132116
0.131841
0.131564
0.1313
0.131056
0.130819
0.130588
0.130365
0.130146
0.129932
0.129725
0.129525
0.129332
0.129146
0.12897
0.128799
0.128632
0.128471
0.128313
0.128159
0.128008
0.127861
0.127718
0.135771
0.135804
0.135798
0.135756
0.135683
0.135586
0.135468
0.135332
0.135181
0.135018
0.13484
0.134651
0.134453
0.134249
0.13404
0.133827
0.133607
0.133385
0.133159
0.132932
0.132704
0.132485
0.132283
0.132086
0.131896
0.131711
0.13153
0.131356
0.131187
0.131024
0.130868
0.130718
0.130574
0.130436
0.130303
0.130177
0.130055
0.129936
0.129819
0.129706
0.129598
0.136296
0.136324
0.136318
0.136281
0.136217
0.136131
0.136026
0.135907
0.135774
0.13563
0.135477
0.135313
0.135143
0.134967
0.134787
0.134604
0.134418
0.134231
0.134041
0.133849
0.133658
0.133476
0.133308
0.133144
0.132986
0.132832
0.132683
0.132539
0.1324
0.132266
0.132138
0.132016
0.131899
0.131787
0.13168
0.131577
0.13148
0.131387
0.131297
0.13121
0.131128
0.13675
0.136775
0.136769
0.136736
0.136679
0.136603
0.136511
0.136405
0.136287
0.136161
0.136025
0.135883
0.135735
0.135584
0.135429
0.135273
0.135113
0.134952
0.134791
0.13463
0.134469
0.134315
0.134173
0.134036
0.133903
0.133774
0.13365
0.13353
0.133415
0.133305
0.133199
0.133098
0.133003
0.132911
0.132824
0.132741
0.132662
0.132587
0.132515
0.132447
0.132384
0.137147
0.137168
0.137163
0.137134
0.137083
0.137016
0.136933
0.136839
0.136735
0.136623
0.136503
0.136378
0.136249
0.136118
0.135984
0.135848
0.135711
0.135573
0.135435
0.135297
0.13516
0.135031
0.13491
0.134793
0.134681
0.134572
0.134467
0.134367
0.134271
0.134179
0.134092
0.134009
0.13393
0.133855
0.133783
0.133716
0.133652
0.133591
0.133533
0.133478
0.133429
0.137496
0.137514
0.13751
0.137483
0.137439
0.137378
0.137305
0.137221
0.137128
0.137028
0.136922
0.136811
0.136698
0.136582
0.136464
0.136346
0.136228
0.136109
0.13599
0.135872
0.135756
0.135644
0.135541
0.135441
0.135346
0.135253
0.135165
0.13508
0.135
0.134923
0.13485
0.134781
0.134716
0.134654
0.134595
0.13454
0.134488
0.134438
0.134392
0.134347
0.134308
0.137803
0.13782
0.137816
0.137792
0.137752
0.137698
0.137633
0.137558
0.137475
0.137386
0.137292
0.137193
0.137092
0.13699
0.136886
0.136782
0.136679
0.136575
0.136474
0.136372
0.136272
0.136177
0.136088
0.136002
0.13592
0.135841
0.135766
0.135694
0.135626
0.135562
0.135501
0.135443
0.135389
0.135337
0.135289
0.135243
0.135201
0.13516
0.135123
0.135087
0.135056
0.138076
0.13809
0.138087
0.138066
0.138031
0.137982
0.137924
0.137857
0.137783
0.137703
0.137619
0.137532
0.137442
0.137351
0.13726
0.137168
0.137076
0.136986
0.136897
0.136809
0.136724
0.136641
0.136564
0.136491
0.13642
0.136352
0.136288
0.136227
0.136169
0.136115
0.136063
0.136015
0.135969
0.135926
0.135886
0.135849
0.135814
0.135781
0.13575
0.135721
0.135696
0.138319
0.138332
0.138329
0.138311
0.138279
0.138236
0.138183
0.138123
0.138057
0.137986
0.137911
0.137833
0.137753
0.137672
0.137591
0.13751
0.137429
0.13735
0.137272
0.137195
0.137121
0.137049
0.136982
0.136919
0.136858
0.1368
0.136744
0.136692
0.136643
0.136597
0.136553
0.136512
0.136474
0.136438
0.136405
0.136374
0.136345
0.136318
0.136293
0.136269
0.136249
0.138536
0.138548
0.138545
0.138529
0.138501
0.138462
0.138415
0.138361
0.138302
0.138238
0.138171
0.138102
0.138031
0.137959
0.137887
0.137815
0.137744
0.137674
0.137605
0.137538
0.137474
0.137411
0.137353
0.137297
0.137244
0.137194
0.137147
0.137102
0.13706
0.137021
0.136984
0.136949
0.136917
0.136887
0.136859
0.136833
0.136809
0.136787
0.136766
0.136747
0.136731
0.13873
0.138741
0.138739
0.138725
0.1387
0.138665
0.138623
0.138575
0.138522
0.138465
0.138405
0.138343
0.13828
0.138216
0.138152
0.138088
0.138026
0.137964
0.137903
0.137844
0.137788
0.137733
0.137683
0.137634
0.137588
0.137545
0.137504
0.137465
0.137429
0.137395
0.137364
0.137335
0.137307
0.137282
0.137259
0.137237
0.137217
0.137199
0.137182
0.137166
0.137154
0.138905
0.138915
0.138914
0.138902
0.138879
0.138848
0.138811
0.138768
0.138721
0.13867
0.138616
0.138561
0.138505
0.138448
0.138391
0.138334
0.138279
0.138224
0.138171
0.138119
0.13807
0.138022
0.137978
0.137936
0.137896
0.137858
0.137822
0.137789
0.137758
0.137729
0.137702
0.137677
0.137654
0.137633
0.137613
0.137595
0.137578
0.137563
0.137549
0.137536
0.137526
0.139062
0.139072
0.139071
0.139061
0.139041
0.139014
0.13898
0.138942
0.1389
0.138855
0.138807
0.138758
0.138708
0.138657
0.138607
0.138557
0.138508
0.138459
0.138412
0.138367
0.138324
0.138282
0.138243
0.138206
0.138171
0.138139
0.138108
0.138079
0.138052
0.138027
0.138004
0.137983
0.137963
0.137945
0.137928
0.137913
0.137899
0.137887
0.137875
0.137865
0.137857
0.139204
0.139213
0.139213
0.139205
0.139187
0.139163
0.139134
0.1391
0.139063
0.139023
0.138981
0.138937
0.138893
0.138848
0.138803
0.138759
0.138715
0.138673
0.138631
0.138591
0.138554
0.138517
0.138483
0.138451
0.138421
0.138392
0.138365
0.13834
0.138317
0.138296
0.138276
0.138257
0.138241
0.138225
0.138211
0.138198
0.138187
0.138176
0.138167
0.138158
0.138152
0.139332
0.139341
0.139342
0.139335
0.13932
0.139299
0.139274
0.139244
0.139211
0.139176
0.139139
0.1391
0.139061
0.139021
0.138982
0.138943
0.138904
0.138867
0.138831
0.138796
0.138763
0.138731
0.138701
0.138673
0.138646
0.138621
0.138598
0.138576
0.138556
0.138538
0.138521
0.138505
0.138491
0.138477
0.138465
0.138455
0.138445
0.138436
0.138428
0.138421
0.138416
0.139448
0.139457
0.139459
0.139453
0.139441
0.139423
0.139401
0.139375
0.139347
0.139316
0.139284
0.13925
0.139216
0.139181
0.139146
0.139112
0.139078
0.139045
0.139013
0.138983
0.138954
0.138926
0.1389
0.138876
0.138852
0.138831
0.13881
0.138792
0.138774
0.138758
0.138743
0.13873
0.138718
0.138706
0.138696
0.138687
0.138679
0.138672
0.138665
0.138659
0.138655
0.139553
0.139562
0.139565
0.139561
0.139551
0.139536
0.139518
0.139496
0.139472
0.139445
0.139417
0.139388
0.139358
0.139328
0.139298
0.139268
0.139238
0.13921
0.139182
0.139155
0.13913
0.139106
0.139083
0.139062
0.139042
0.139023
0.139005
0.138989
0.138974
0.13896
0.138947
0.138936
0.138925
0.138916
0.138907
0.138899
0.138892
0.138886
0.138881
0.138876
0.138873
0.139648
0.139657
0.139661
0.139658
0.139651
0.13964
0.139625
0.139607
0.139587
0.139565
0.139541
0.139516
0.139491
0.139465
0.139439
0.139413
0.139388
0.139363
0.139339
0.139316
0.139294
0.139273
0.139254
0.139235
0.139218
0.139202
0.139187
0.139173
0.13916
0.139148
0.139137
0.139127
0.139118
0.13911
0.139102
0.139096
0.13909
0.139085
0.139081
0.139077
0.139074
0.139734
0.139744
0.139748
0.139748
0.139743
0.139735
0.139724
0.13971
0.139694
0.139676
0.139657
0.139636
0.139615
0.139594
0.139572
0.139551
0.139529
0.139509
0.139488
0.139469
0.139451
0.139433
0.139416
0.139401
0.139386
0.139372
0.139359
0.139347
0.139336
0.139326
0.139317
0.139309
0.139302
0.139295
0.139289
0.139284
0.13928
0.139276
0.139273
0.13927
0.139269
0.139812
0.139822
0.139827
0.139828
0.139827
0.139822
0.139814
0.139805
0.139793
0.13978
0.139765
0.13975
0.139734
0.139717
0.1397
0.139683
0.139666
0.13965
0.139634
0.139619
0.139604
0.13959
0.139577
0.139564
0.139553
0.139542
0.139532
0.139522
0.139514
0.139506
0.139499
0.139493
0.139488
0.139483
0.13948
0.139476
0.139474
0.139472
0.139471
0.13947
0.13947
0.139881
0.139891
0.139897
0.1399
0.1399
0.139898
0.139894
0.139889
0.139882
0.139874
0.139864
0.139854
0.139844
0.139833
0.139822
0.13981
0.139799
0.139788
0.139777
0.139767
0.139758
0.139748
0.13974
0.139732
0.139724
0.139717
0.139711
0.139705
0.1397
0.139695
0.139691
0.139688
0.139685
0.139683
0.139681
0.13968
0.139679
0.139679
0.139679
0.139679
0.13968
0.139938
0.139946
0.13995
0.139953
0.139953
0.139953
0.139951
0.139948
0.139945
0.139941
0.139936
0.139931
0.139926
0.13992
0.139914
0.139908
0.139902
0.139896
0.13989
0.139885
0.13988
0.139875
0.13987
0.139865
0.139861
0.139857
0.139854
0.139851
0.139848
0.139845
0.139843
0.139841
0.139839
0.139837
0.139836
0.139835
0.139834
0.139834
0.139834
0.139833
0.139833
0.139973
0.139976
0.139978
0.139979
0.139979
0.139979
0.139978
0.139977
0.139975
0.139973
0.139971
0.139968
0.139965
0.139961
0.139958
0.139954
0.139951
0.139947
0.139943
0.139939
0.139936
0.139933
0.139929
0.139926
0.139923
0.139921
0.139918
0.139916
0.139913
0.139911
0.139909
0.139907
0.139906
0.139904
0.139903
0.139901
0.1399
0.139899
0.139898
0.139897
0.139897
0.139989
0.139991
0.139992
0.139993
0.139993
0.139993
0.139992
0.139992
0.139991
0.13999
0.139989
0.139987
0.139985
0.139983
0.139981
0.139978
0.139975
0.139972
0.139969
0.139965
0.139961
0.139957
0.139953
0.139949
0.139944
0.13994
0.139936
0.139933
0.139929
0.139926
0.139923
0.13992
0.139917
0.139915
0.139913
0.139911
0.13991
0.139908
0.139906
0.139905
0.139904
0.139998
0.139998
0.139999
0.139999
0.139999
0.139999
0.139999
0.139999
0.139999
0.139998
0.139998
0.139997
0.139997
0.139995
0.139994
0.139993
0.139991
0.139988
0.139985
0.13998
0.139975
0.139967
0.139958
0.13995
0.139942
0.139934
0.139927
0.13992
0.139914
0.139908
0.139902
0.139897
0.139892
0.139887
0.139883
0.139879
0.139875
0.139871
0.139868
0.139865
0.139862
0.00194703
0.00281486
0.00349113
0.00407941
0.00462899
0.00515821
0.005678
0.00619911
0.00673053
0.0072846
0.00787301
0.00850448
0.00918517
0.00991985
0.0107116
0.0115641
0.0124806
0.0134633
0.0145125
0.0156272
0.0168058
0.0180467
0.0193483
0.0207084
0.0221243
0.0235927
0.0251107
0.0266753
0.0282838
0.0299331
0.0316203
0.0333421
0.0350958
0.0368788
0.0386884
0.040522
0.0423769
0.0442508
0.0461411
0.0480459
0.0499628
0.0518899
0.053825
0.055766
0.0577112
0.0596587
0.0616068
0.0635537
0.0654978
0.0674374
0.069371
0.0712971
0.0732143
0.0751211
0.0770161
0.0788979
0.0807652
0.0826168
0.0844514
0.0862677
0.0880646
0.0898409
0.0915955
0.0933272
0.0950351
0.096718
0.0983749
0.100005
0.101607
0.103182
0.104717
0.106273
0.107564
0.109879
0.00288579
0.0034924
0.00401651
0.00453004
0.0050252
0.00550257
0.00596838
0.00643185
0.00689956
0.00738874
0.00791102
0.00847297
0.00907958
0.0097359
0.0104454
0.0112145
0.0120491
0.0129521
0.013924
0.014964
0.0160707
0.0172433
0.0184807
0.0197808
0.0211404
0.022556
0.0240243
0.0255426
0.027108
0.0287171
0.0303666
0.0320532
0.0337738
0.0355258
0.0373065
0.039113
0.0409425
0.0427924
0.0446604
0.0465442
0.0484416
0.0503504
0.0522684
0.0541937
0.0561242
0.0580583
0.059994
0.0619298
0.0638638
0.0657945
0.0677204
0.0696398
0.0715515
0.0734539
0.0753458
0.0772256
0.0790922
0.0809443
0.0827805
0.0845999
0.0864011
0.088183
0.0899445
0.0916846
0.0934021
0.095096
0.0967654
0.0984094
0.100026
0.101619
0.103171
0.104748
0.106056
0.108409
0.00395438
0.00457959
0.00509741
0.0055358
0.00593252
0.00631288
0.00668768
0.00706399
0.00744313
0.00785628
0.00830414
0.00878617
0.00930522
0.00986652
0.0104732
0.0111387
0.0118708
0.0126719
0.0135427
0.0144825
0.0154915
0.0165714
0.0177216
0.01894
0.0202226
0.0215658
0.0229666
0.0244223
0.0259299
0.0274856
0.0290852
0.0307252
0.0324027
0.0341148
0.0358586
0.0376307
0.0394281
0.0412482
0.0430884
0.0449464
0.04682
0.0487066
0.0506041
0.0525102
0.0544232
0.0563411
0.0582622
0.0601846
0.0621066
0.0640265
0.0659428
0.067854
0.0697587
0.0716555
0.0735429
0.0754197
0.0772844
0.0791359
0.0809729
0.0827944
0.0845991
0.0863858
0.0881536
0.0899012
0.0916277
0.0933322
0.0950135
0.0966709
0.0983028
0.0999115
0.101482
0.103078
0.104403
0.106794
0.00501938
0.00562809
0.00618093
0.00666242
0.00708693
0.00747599
0.00784369
0.00819931
0.00854897
0.0089053
0.00927756
0.00967146
0.0100915
0.0105432
0.011028
0.0115764
0.012189
0.0128647
0.0136044
0.014409
0.0152837
0.0162347
0.0172622
0.0183632
0.0195337
0.0207703
0.0220718
0.0234361
0.0248593
0.0263368
0.0278636
0.0294364
0.0310521
0.0327076
0.0343993
0.0361233
0.0378761
0.039655
0.0414573
0.0432807
0.0451222
0.0469793
0.0488494
0.0507305
0.0526204
0.0545173
0.0564192
0.0583242
0.0602303
0.062136
0.0640397
0.0659399
0.0678351
0.0697238
0.0716046
0.0734762
0.0753371
0.0771863
0.0790226
0.0808446
0.0826514
0.0844417
0.0862144
0.0879685
0.089703
0.0914169
0.0931092
0.0947791
0.0964251
0.0980495
0.0996366
0.101253
0.102595
0.105022
0.00620548
0.00676175
0.00730092
0.00780305
0.00826894
0.0087085
0.00912873
0.0095343
0.00992911
0.0103179
0.0107061
0.0110986
0.0115001
0.0119152
0.0123465
0.0128057
0.0133018
0.0138409
0.014428
0.0150661
0.0157726
0.016559
0.0174215
0.0183572
0.0193635
0.0204406
0.0215927
0.0228179
0.0241111
0.0254668
0.0268794
0.0283468
0.0298664
0.0314342
0.0330455
0.0346952
0.0363796
0.0380959
0.0398413
0.0416127
0.0434068
0.0452201
0.0470501
0.0488944
0.0507509
0.0526174
0.0544917
0.0563715
0.0582549
0.06014
0.0620252
0.0639091
0.06579
0.0676663
0.0695364
0.0713991
0.0732529
0.0750966
0.0769291
0.0787491
0.0805555
0.082347
0.0841225
0.0858811
0.0876217
0.0893433
0.0910451
0.0927261
0.0943847
0.0960235
0.0976264
0.0992614
0.100619
0.103081
0.00756799
0.00809367
0.00861842
0.0091235
0.00960852
0.0100826
0.0105514
0.0110166
0.0114788
0.0119384
0.0123962
0.0128529
0.0133094
0.0137674
0.0142281
0.0146949
0.0151725
0.0156662
0.0161812
0.0167218
0.0172969
0.0179177
0.0185915
0.0193228
0.0201141
0.020976
0.0219231
0.0229491
0.0240483
0.0252161
0.0264488
0.0277498
0.0291164
0.030543
0.0320236
0.0335515
0.035124
0.0367385
0.0383917
0.0400791
0.0417962
0.043539
0.0453044
0.0470901
0.0488935
0.050712
0.0525426
0.0543826
0.0562297
0.0580821
0.0599381
0.0617958
0.0636534
0.065509
0.0673609
0.0692077
0.071048
0.0728806
0.0747041
0.0765172
0.0783186
0.0801071
0.0818816
0.083641
0.0853844
0.0871108
0.0888191
0.0905085
0.0921774
0.0938283
0.0954449
0.0970965
0.0984682
0.100963
0.00922718
0.00975931
0.0103022
0.0108324
0.0113461
0.011852
0.0123582
0.0128679
0.0133823
0.0139018
0.0144257
0.0149529
0.0154821
0.0160121
0.0165414
0.0170695
0.0175966
0.0181238
0.0186531
0.0191868
0.0197286
0.0202842
0.0208601
0.021463
0.0220984
0.022774
0.0235014
0.0242876
0.0251359
0.0260477
0.0270265
0.0280903
0.0292313
0.0304415
0.0317158
0.033047
0.0344379
0.0358867
0.0373881
0.0389359
0.040524
0.0421477
0.0438045
0.045492
0.0472066
0.0489443
0.0507012
0.0524738
0.0542597
0.0560569
0.0578632
0.0596763
0.0614938
0.0633133
0.0651329
0.0669509
0.068766
0.0705767
0.0723815
0.0741787
0.0759668
0.0777447
0.0795111
0.0812649
0.0830052
0.0847308
0.0864406
0.0881337
0.0898084
0.0914673
0.0930938
0.0947583
0.0961415
0.0986636
0.0114079
0.0119804
0.0125789
0.0131693
0.0137416
0.0143003
0.0148536
0.0154064
0.0159613
0.0165207
0.0170855
0.0176559
0.0182314
0.0188107
0.0193926
0.0199752
0.0205569
0.0211362
0.0217119
0.0222838
0.0228518
0.0234173
0.0239824
0.0245505
0.0251255
0.0257119
0.0263166
0.026947
0.0276099
0.0283113
0.0290564
0.0298565
0.030718
0.0316425
0.0326308
0.0336782
0.0348064
0.0360088
0.0372765
0.0386029
0.0399819
0.0414099
0.0428878
0.0444122
0.0459776
0.0475783
0.0492087
0.0508651
0.0525455
0.0542473
0.0559676
0.0577027
0.0594493
0.0612043
0.0629655
0.0647313
0.0664999
0.0682692
0.0700374
0.0718022
0.0735619
0.0753151
0.0770605
0.078797
0.0805234
0.0822382
0.0839402
0.0856284
0.087301
0.0889606
0.0905901
0.0922612
0.0936507
0.0961918
0.0144204
0.015064
0.0157454
0.0164179
0.0170671
0.0176937
0.0183045
0.0189046
0.0194978
0.020087
0.020675
0.0212635
0.0218539
0.0224468
0.0230423
0.0236402
0.0242397
0.0248397
0.0254388
0.0260356
0.0266287
0.0272168
0.0277994
0.0283764
0.0289484
0.0295168
0.0300839
0.0306531
0.031229
0.0318163
0.0324198
0.0330465
0.0337037
0.0343977
0.0351342
0.0359152
0.0367509
0.0376472
0.0386055
0.0396249
0.0407026
0.0418427
0.0430554
0.0443315
0.0456627
0.0470428
0.0484656
0.0499292
0.0514337
0.0529755
0.0545492
0.0561499
0.0577726
0.0594138
0.0610715
0.0627439
0.0644284
0.066122
0.0678217
0.0695245
0.0712284
0.0729318
0.0746334
0.0763317
0.0780248
0.079711
0.0813887
0.0830566
0.0847127
0.0863597
0.0879803
0.0896463
0.0910329
0.0935777
0.0187103
0.0193857
0.0201241
0.0208582
0.0215679
0.0222493
0.0229064
0.0235437
0.0241647
0.0247727
0.0253708
0.0259616
0.0265473
0.0271296
0.0277101
0.0282899
0.0288698
0.0294502
0.0300312
0.0306123
0.031193
0.0317724
0.0323491
0.0329222
0.0334906
0.0340535
0.0346105
0.0351619
0.0357086
0.0362522
0.036795
0.0373399
0.0378913
0.0384536
0.0390322
0.0396313
0.0402568
0.0409156
0.0416134
0.0423546
0.0431417
0.0439783
0.0448715
0.0458239
0.0468344
0.0479008
0.0490187
0.050196
0.0514369
0.0527323
0.0540744
0.0554573
0.0568755
0.0583262
0.05981
0.0613242
0.0628642
0.0644251
0.066003
0.0675934
0.0691947
0.0708057
0.0724245
0.0740485
0.075675
0.0773015
0.0789257
0.0805461
0.0821608
0.0837722
0.0853627
0.0870035
0.0883708
0.0908925
0.0246757
0.0252537
0.0259548
0.0266829
0.0274008
0.028095
0.0287636
0.0294089
0.0300332
0.030639
0.0312291
0.0318059
0.0323717
0.0329285
0.0334781
0.034022
0.0345618
0.0350987
0.0356338
0.0361678
0.0367014
0.0372347
0.0377678
0.0383005
0.0388322
0.039362
0.0398891
0.0404127
0.0409319
0.0414464
0.041956
0.0424611
0.0429625
0.043462
0.0439618
0.0444645
0.0449733
0.0454924
0.0460262
0.0465796
0.0471567
0.0477617
0.0483999
0.0490766
0.0497957
0.0505597
0.0513692
0.0522278
0.0531406
0.0541081
0.0551284
0.0561985
0.0573141
0.0584798
0.0597026
0.0609736
0.0622852
0.0636315
0.0650081
0.0664088
0.0678364
0.0692898
0.0707648
0.0722571
0.0737628
0.0752782
0.0768004
0.0783284
0.0798603
0.0813977
0.0829226
0.084504
0.0858245
0.0882771
0.032459
0.03288
0.033391
0.033987
0.0346235
0.0352635
0.0358918
0.0365029
0.0370953
0.0376694
0.0382268
0.038769
0.0392976
0.0398142
0.0403201
0.0408169
0.0413058
0.0417882
0.0422653
0.0427381
0.0432078
0.0436753
0.0441413
0.0446065
0.0450714
0.0455362
0.046001
0.0464656
0.0469294
0.0473919
0.0478525
0.0483106
0.0487656
0.0492174
0.0496659
0.0501116
0.0505553
0.0509984
0.0514428
0.0518908
0.0523454
0.0528094
0.0532864
0.0537803
0.0542952
0.0548351
0.0554032
0.0560027
0.056638
0.0573129
0.0580298
0.0587901
0.0595935
0.0604415
0.0613388
0.0622857
0.0632801
0.0643185
0.0653982
0.0665119
0.0676806
0.0688941
0.0701442
0.071425
0.0727318
0.0740602
0.0754081
0.0767766
0.0781634
0.0795685
0.0809727
0.0824408
0.08367
0.0859792
0.0418042
0.042099
0.0424632
0.0428359
0.0432421
0.043725
0.0442438
0.0447676
0.0452855
0.0457936
0.0462899
0.0467734
0.0472441
0.0477028
0.0481504
0.0485878
0.0490159
0.0494355
0.0498475
0.0502529
0.0506525
0.0510473
0.0514382
0.0518261
0.0522118
0.0525961
0.0529796
0.0533629
0.0537465
0.0541306
0.0545154
0.0549006
0.0552861
0.0556714
0.0560561
0.0564399
0.0568224
0.0572034
0.0575832
0.057962
0.0583406
0.0587202
0.0591021
0.0594882
0.0598808
0.0602825
0.0606959
0.0611238
0.0615694
0.0620361
0.0625271
0.0630456
0.0635938
0.0641738
0.0647888
0.0654417
0.0661343
0.066867
0.0676398
0.0684499
0.0693034
0.0702017
0.0711428
0.0721235
0.0731404
0.0741893
0.0752742
0.0764029
0.077567
0.0787628
0.0799714
0.0812499
0.0823244
0.084383
0.0524887
0.0526445
0.0528666
0.0530957
0.0533265
0.0535634
0.053816
0.054135
0.0545127
0.0549115
0.0553099
0.0557025
0.0560887
0.0564681
0.05684
0.0572034
0.0575581
0.0579046
0.0582432
0.0585746
0.0588996
0.0592185
0.0595321
0.0598408
0.0601454
0.0604467
0.0607452
0.0610418
0.0613373
0.0616322
0.0619271
0.0622227
0.0625193
0.0628173
0.0631169
0.063418
0.0637205
0.0640243
0.0643291
0.0646347
0.0649409
0.0652477
0.0655552
0.0658636
0.0661737
0.0664861
0.066802
0.0671229
0.0674503
0.0677861
0.0681325
0.0684919
0.0688666
0.0692589
0.0696713
0.0701063
0.0705668
0.0710547
0.0715722
0.0721197
0.0726993
0.0733136
0.0739641
0.0746511
0.0753742
0.0761317
0.0769238
0.0777542
0.0786223
0.0795285
0.0804581
0.0814586
0.0823023
0.0839836
0.0642452
0.0642557
0.0643248
0.0644005
0.0644773
0.064558
0.0646463
0.0647463
0.0648609
0.0649911
0.0651635
0.0653972
0.0656649
0.065942
0.0662158
0.0664839
0.0667471
0.0670065
0.0672617
0.0675124
0.0677578
0.0679976
0.0682318
0.0684608
0.0686851
0.0689051
0.0691214
0.0693345
0.0695447
0.0697527
0.0699591
0.0701645
0.0703695
0.0705747
0.0707807
0.0709881
0.0711974
0.0714089
0.071623
0.0718396
0.0720589
0.0722808
0.0725054
0.0727324
0.0729619
0.0731938
0.0734283
0.0736656
0.0739061
0.0741504
0.0743994
0.074654
0.0749155
0.0751852
0.0754647
0.0757556
0.0760599