/*--------------------------------*- C++ -*----------------------------------*\
| =========                 |                                                 |
| \\      /  F ield         | OpenFOAM: The Open Source CFD Toolbox           |
|  \\    /   O peration     | Version:  5.x                                   |
|   \\  /    A nd           | Web:      www.OpenFOAM.org                      |
|    \\/     M anipulation  |                                                 |
\*---------------------------------------------------------------------------*/
FoamFile
{
    version     2.0;
    format      ascii;
    class       volScalarField;
    location    "2200";
    object      p;
}
// * * * * * * * * * * * * * * * * * * * * * * * * * * * * * * * * * * * * * //

dimensions      [0 2 -2 0 0 0 0];

internalField   nonuniform List<scalar> 
11040
(
-0.00186702
-99.733
-337.067
-401.179
-422.363
-435.339
-436.793
-426.495
-407.826
-381.895
-348.211
-296.466
-246.654
-211.176
-186.384
-159.955
-133.111
-107.754
-83.7505
-60.583
-38.1639
-18.7982
-2.6154
12.5297
26.7164
39.9684
52.2812
63.6432
73.9926
83.2298
91.2422
97.9098
103.177
107.112
109.914
111.84
112.629
112.05
111.723
115.212
115.272
36.5764
-59.9097
-212.477
-290.474
-331.383
-361.455
-379.287
-383.47
-376.487
-360.049
-334.364
-291.474
-246.299
-211.467
-186.129
-160.009
-133.473
-108.249
-84.3241
-61.2204
-38.8423
-19.5245
-3.3113
11.8635
26.0821
39.3718
51.7298
63.1432
73.5529
82.8615
90.9506
97.6986
103.045
107.04
109.878
111.853
112.711
112.115
111.375
113.837
113.376
61.2549
-32.4995
-142.359
-234.014
-288.794
-325.027
-347.619
-356.286
-353.298
-340.637
-319.322
-283.738
-242.965
-208.957
-183.517
-158.39
-132.618
-107.789
-84.1363
-61.2524
-39.0336
-19.7949
-3.62446
11.5196
25.7193
39.0018
51.3648
62.7934
73.2299
82.5785
90.7206
97.5333
102.946
107
109.877
111.891
112.814
112.271
111.388
113.051
112.239
78.6351
-5.13811
-87.3781
-171.033
-229.423
-270.857
-300.449
-317.068
-321.363
-315.171
-300.012
-272.174
-236.922
-204.864
-179.749
-155.733
-130.95
-106.717
-83.4903
-60.9502
-38.9869
-19.9147
-3.84278
11.2344
25.3877
38.6414
50.993
62.4251
72.8805
82.2653
90.461
97.3428
102.832
106.96
109.89
111.927
112.887
112.406
111.475
112.655
112.012
92.3284
20.5664
-43.3243
-114.926
-173.762
-218.795
-253.048
-275.64
-286.309
-286.342
-277.335
-257.131
-228.281
-199.188
-174.82
-151.953
-128.39
-104.99
-82.3578
-60.3045
-38.7252
-19.9179
-4.00845
10.9476
25.0088
38.1954
50.5047
61.9169
72.3756
81.7887
90.0393
97.0025
102.594
106.829
109.846
111.92
112.918
112.524
111.592
112.594
112.454
102.747
42.9581
-8.03323
-67.4273
-121.969
-167.092
-203.663
-230.739
-247.184
-253.45
-250.815
-238.176
-216.308
-191.236
-168.359
-146.851
-124.76
-102.456
-80.6048
-59.1903
-38.1326
-19.6902
-4.02523
10.7368
24.6424
37.7065
49.9256
61.2777
71.7074
81.1262
89.4204
96.4681
102.18
106.557
109.702
111.847
112.912
112.674
111.83
112.818
113.226
110.636
61.6511
20.2386
-28.3106
-76.0005
-118.36
-154.811
-184.211
-204.946
-216.689
-220.156
-214.755
-200.172
-180.213
-159.876
-140.153
-119.819
-98.916
-78.0878
-57.4969
-37.1181
-19.1601
-3.83739
10.6469
24.3232
37.1972
49.2644
60.5018
70.8563
80.2445
88.5593
95.6845
101.529
106.077
109.399
111.673
112.867
112.874
112.252
113.296
114.242
116.577
76.7348
42.7964
3.35933
-36.806
-74.5025
-108.735
-138.272
-161.39
-177.225
-185.908
-186.965
-179.462
-165.368
-148.666
-131.374
-113.182
-94.0548
-74.5686
-55.0428
-35.545
-18.2259
-3.36476
10.7406
24.0977
36.6991
48.5372
59.5883
69.8029
79.1053
87.399
94.578
100.553
105.296
108.847
111.329
112.751
113.121
112.875
114.092
115.464
120.996
88.6151
60.669
28.6905
-4.3929
-36.6105
-67.1707
-94.979
-118.507
-136.679
-149.184
-155.483
-154.3
-146.252
-134.051
-119.94
-104.37
-87.4573
-69.7106
-51.5615
-33.1986
-16.7098
-2.45662
11.1404
24.0655
36.294
47.8098
58.5867
68.5786
77.7192
85.9256
93.1077
99.1857
104.126
107.945
110.727
112.505
113.382
113.681
115.239
116.861
124.209
97.8156
74.7309
48.7948
21.8762
-4.90356
-31.111
-55.9522
-78.2366
-96.9632
-111.609
-121.574
-125.451
-122.978
-115.658
-105.361
-92.9187
-78.6724
-63.109
-46.7181
-29.8038
-14.3785
-0.910622
12.0184
24.373
36.1093
47.1964
57.6014
67.279
76.1709
84.2083
91.3191
97.4399
102.542
106.636
109.781
112.03
113.553
114.561
116.616
118.415
126.478
104.864
85.743
64.6781
42.9022
21.0248
-0.80554
-22.112
-42.0528
-59.8653
-75.0243
-86.9548
-94.3054
-96.347
-93.6464
-87.4292
-78.4937
-67.3069
-54.3535
-40.1341
-25.0347
-10.9531
1.51688
13.5878
25.2058
36.3086
46.8458
56.773
66.0423
74.6
82.3881
89.3505
95.4405
100.641
104.97
108.482
111.244
113.463
115.264
117.894
119.984
128.025
110.236
94.3574
77.2114
59.6278
41.9264
24.0884
6.35254
-10.7439
-26.6902
-41.0846
-53.4523
-62.6418
-67.7796
-68.8449
-66.4385
-61.0726
-53.1579
-43.131
-31.454
-18.5404
-6.11132
5.11721
16.1127
26.8011
37.104
46.9492
56.2776
65.036
73.1722
80.635
87.3794
93.3721
98.6061
103.108
106.934
110.159
112.991
115.514
118.647
121.206
129.047
114.334
101.12
87.1262
72.9197
58.6591
44.2477
29.7769
15.5595
1.91465
-10.9144
-22.5917
-32.2251
-39.0073
-42.6416
-43.2862
-41.1228
-36.3797
-29.3701
-20.4607
-10.0277
0.460653
10.2006
19.8942
29.4461
38.7637
47.7551
56.3452
64.4738
72.0874
79.1389
85.5901
91.416
96.6153
101.218
105.275
108.854
112.133
115.19
118.614
121.655
129.703
117.487
106.471
95.0189
83.5195
72.0432
60.4676
48.805
37.2257
25.9136
14.9923
4.66316
-4.43233
-11.6519
-16.637
-19.3119
-19.6207
-17.595
-13.3849
-7.22081
0.613141
8.96839
17.0193
25.2134
33.4382
41.5897
49.5605
57.2625
64.628
71.6014
78.1363
84.1976
89.7638
94.8347
99.4365
103.609
107.402
110.944
114.304
117.805
121.079
130.117
119.946
110.753
101.358
92.0278
82.7856
73.5087
64.1727
54.8645
45.6812
36.6792
27.9556
19.9437
13.109
7.76261
4.05844
2.16274
2.17587
4.09037
7.81338
13.1774
19.3786
25.6497
32.2267
38.9909
45.8354
52.6451
59.3229
65.795
72.0038
77.9027
83.457
88.6444
93.4607
97.9242
102.059
105.893
109.507
112.953
116.379
119.616
130.399
121.917
114.242
106.514
98.9237
91.4667
84.0314
76.5797
69.1526
61.7976
54.5331
47.3964
40.6665
34.661
29.61
25.6609
22.9964
21.7676
22.0512
23.856
27.1195
31.3532
35.9103
40.8793
46.1505
51.6241
57.1888
62.7476
68.2254
73.5627
78.7119
83.6369
88.3134
92.7313
96.8984
100.822
104.513
108.015
111.358
114.601
117.661
130.661
123.584
117.176
110.807
104.617
98.5858
92.6161
86.668
80.7585
74.9088
69.118
63.396
57.9155
52.8857
48.4636
44.7611
41.9306
40.1182
39.4275
39.9194
41.6002
44.2235
47.2915
50.8083
54.6841
58.8346
63.163
67.582
72.0214
76.4243
80.744
84.9437
88.9956
92.8838
96.6064
100.159
103.539
106.766
109.854
112.821
115.626
130.898
124.935
119.527
114.21
109.094
104.146
99.284
94.4705
89.7115
85.0161
80.3767
75.7937
71.3759
67.2576
63.5425
60.3084
57.6686
55.7407
54.621
54.3822
55.0612
56.5608
58.5189
60.9034
63.648
66.6869
69.9425
73.3424
76.8266
80.3447
83.8541
87.3195
90.7129
94.0147
97.2166
100.307
103.274
106.127
108.868
111.497
113.997
131.093
125.992
121.358
116.845
112.541
108.408
104.374
100.406
96.5042
92.6717
88.8985
85.181
81.5924
78.2223
75.1381
72.394
70.0709
68.2566
67.0287
66.4534
66.5739
67.3712
68.5844
70.1725
72.0897
74.2868
76.7038
79.2839
81.9784
84.7451
87.5473
90.3535
93.1374
95.879
98.5668
101.186
103.722
106.177
108.547
110.824
113.002
131.276
126.856
122.836
118.952
115.276
111.769
108.366
105.04
101.787
98.6081
95.4927
92.4361
89.4893
86.7146
84.1566
81.8526
79.8604
78.2437
77.0617
76.368
76.2019
76.5808
77.3138
78.3628
79.6975
81.2813
83.0687
85.0164
87.086
89.2437
91.4588
93.7046
95.9579
98.2001
100.419
102.6
104.727
106.8
108.811
110.752
112.618
131.452
127.584
124.062
120.682
117.506
114.492
111.585
108.76
106.013
103.341
100.736
98.1931
95.7484
93.4468
91.3187
89.3893
87.7006
86.2987
85.2272
84.5276
84.2318
84.3711
84.8018
85.4927
86.4243
87.5691
88.8929
90.3628
91.9493
93.6256
95.367
97.1514
98.9594
100.775
102.585
104.378
106.14
107.866
109.55
111.183
112.762
131.627
128.213
125.102
122.135
119.364
116.749
114.238
111.813
109.467
107.197
104.995
102.857
100.81
98.8864
97.1073
95.49
94.0652
92.8663
91.9252
91.2728
90.9338
90.942
91.186
91.6417
92.297
93.1309
94.1172
95.2309
96.4496
97.7521
99.119
100.532
101.976
103.437
104.905
106.367
107.812
109.236
110.634
111.995
113.317
131.799
128.766
125.999
123.375
120.938
118.649
116.463
114.361
112.34
110.394
108.516
106.703
104.975
103.355
101.86
100.501
99.2995
98.2811
97.4686
96.8849
96.5481
96.4896
96.6203
96.9227
97.3893
98.0037
98.7453
99.5953
100.536
101.552
102.627
103.746
104.898
106.071
107.256
108.443
109.623
110.792
111.943
113.071
114.171
131.968
129.257
126.782
124.446
122.289
120.271
118.353
116.519
114.764
113.082
111.469
109.92
108.45
107.078
105.814
104.668
103.654
102.792
102.097
101.587
101.274
101.186
101.25
101.453
101.79
102.249
102.813
103.468
104.2
104.997
105.845
106.735
107.655
108.597
109.553
110.515
111.476
112.433
113.379
114.31
115.221
132.134
129.698
127.471
125.381
123.46
121.671
119.978
118.367
116.833
115.37
113.975
112.643
111.385
110.216
109.143
108.172
107.315
106.585
105.994
105.555
105.276
105.179
105.204
105.342
105.591
105.939
106.374
106.884
107.459
108.088
108.762
109.472
110.21
110.968
111.741
112.522
113.305
114.087
114.863
115.63
116.383
132.294
130.094
128.084
126.204
124.484
122.889
121.387
119.964
118.615
117.336
116.122
114.97
113.888
112.886
111.971
111.147
110.421
109.803
109.302
108.927
108.683
108.589
108.593
108.689
108.876
109.145
109.485
109.887
110.342
110.844
111.383
111.953
112.548
113.161
113.787
114.423
115.061
115.701
116.339
116.971
117.592
132.448
130.454
128.63
126.932
125.385
123.957
122.616
121.353
120.162
119.038
117.977
116.976
116.041
115.179
114.396
113.693
113.076
112.553
112.129
111.81
111.601
111.515
111.508
111.577
111.72
111.932
112.201
112.522
112.887
113.29
113.725
114.186
114.668
115.166
115.676
116.195
116.718
117.243
117.768
118.289
118.803
132.596
130.78
129.119
127.579
126.183
124.897
123.697
122.571
121.514
120.522
119.591
118.717
117.905
117.162
116.488
115.887
115.363
114.919
114.56
114.291
114.113
114.038
114.026
114.077
114.19
114.359
114.576
114.835
115.13
115.457
115.811
116.186
116.579
116.986
117.404
117.829
118.258
118.691
119.124
119.555
119.981
132.737
131.077
129.559
128.157
126.891
125.729
124.65
123.642
122.702
121.823
121.002
120.237
119.53
118.886
118.306
117.791
117.343
116.967
116.663
116.437
116.287
116.223
116.21
116.249
116.34
116.478
116.654
116.866
117.107
117.375
117.664
117.972
118.295
118.629
118.973
119.323
119.678
120.036
120.394
120.752
121.105
132.871
131.347
129.955
128.674
127.521
126.469
125.494
124.589
123.749
122.968
122.243
121.57
120.953
120.393
119.892
119.45
119.068
118.748
118.492
118.301
118.177
118.123
118.112
118.143
118.218
118.331
118.477
118.651
118.851
119.072
119.311
119.565
119.831
120.108
120.392
120.682
120.976
121.273
121.571
121.869
122.163
132.997
131.594
130.312
129.137
128.084
127.127
126.244
125.429
124.675
123.979
123.337
122.745
122.204
121.717
121.283
120.903
120.576
120.304
120.088
119.929
119.825
119.782
119.773
119.799
119.862
119.956
120.078
120.224
120.39
120.573
120.772
120.983
121.205
121.435
121.671
121.913
122.157
122.405
122.653
122.902
123.148
133.116
131.818
130.634
129.553
128.588
127.713
126.912
126.175
125.498
124.875
124.304
123.782
123.308
122.883
122.507
122.18
121.9
121.67
121.488
121.354
121.269
121.235
121.228
121.251
121.305
121.385
121.488
121.61
121.75
121.904
122.07
122.246
122.432
122.624
122.821
123.023
123.228
123.435
123.643
123.852
124.057
133.226
132.022
130.924
129.926
129.038
128.237
127.506
126.838
126.228
125.671
125.162
124.7
124.283
123.913
123.587
123.305
123.066
122.87
122.718
122.607
122.537
122.511
122.507
122.528
122.574
122.644
122.731
122.835
122.953
123.083
123.223
123.371
123.527
123.688
123.854
124.023
124.195
124.369
124.544
124.719
124.892
133.33
132.207
131.185
130.261
129.441
128.704
128.036
127.429
126.877
126.377
125.924
125.514
125.148
124.824
124.542
124.299
124.095
123.93
123.801
123.71
123.654
123.634
123.633
123.653
123.694
123.754
123.83
123.918
124.019
124.129
124.247
124.373
124.504
124.64
124.78
124.923
125.067
125.214
125.361
125.509
125.654
133.425
132.375
131.42
130.56
129.8
129.121
128.508
127.955
127.455
127.005
126.6
126.237
125.915
125.632
125.387
125.179
125.005
124.865
124.758
124.684
124.639
124.625
124.627
124.645
124.682
124.735
124.801
124.877
124.963
125.057
125.158
125.265
125.376
125.491
125.609
125.73
125.852
125.975
126.1
126.225
126.347
133.513
132.526
131.631
130.827
130.12
129.491
128.928
128.422
127.968
127.563
127.201
126.879
126.595
126.349
126.137
125.958
125.81
125.693
125.604
125.544
125.509
125.501
125.505
125.523
125.557
125.604
125.661
125.727
125.801
125.882
125.968
126.059
126.154
126.252
126.352
126.454
126.557
126.662
126.767
126.873
126.976
133.594
132.662
131.818
131.064
130.404
129.82
129.299
128.836
128.423
128.057
127.733
127.448
127.199
126.984
126.801
126.648
126.523
126.425
126.352
126.304
126.278
126.274
126.28
126.298
126.329
126.371
126.422
126.48
126.544
126.613
126.688
126.765
126.846
126.929
127.015
127.101
127.189
127.278
127.367
127.456
127.544
133.667
132.782
131.984
131.274
130.654
130.109
129.627
129.201
128.825
128.495
128.205
127.951
127.732
127.545
127.388
127.258
127.153
127.073
127.014
126.977
126.958
126.959
126.967
126.985
127.014
127.052
127.097
127.148
127.204
127.265
127.329
127.395
127.465
127.536
127.608
127.682
127.757
127.832
127.907
127.983
128.057
133.733
132.889
132.13
131.457
130.873
130.363
129.915
129.522
129.179
128.879
128.62
128.395
128.203
128.042
127.907
127.797
127.71
127.644
127.598
127.57
127.558
127.561
127.571
127.59
127.617
127.652
127.692
127.737
127.787
127.839
127.895
127.952
128.012
128.073
128.135
128.197
128.261
128.325
128.389
128.453
128.516
133.791
132.982
132.256
131.616
131.063
130.583
130.164
129.801
129.487
129.216
128.983
128.785
128.617
128.478
128.363
128.272
128.201
128.148
128.113
128.093
128.088
128.095
128.107
128.126
128.153
128.185
128.222
128.263
128.306
128.353
128.401
128.451
128.502
128.555
128.608
128.661
128.715
128.77
128.824
128.878
128.931
133.843
133.062
132.364
131.751
131.224
130.77
130.378
130.041
129.753
129.507
129.299
129.124
128.978
128.859
128.763
128.687
128.63
128.59
128.564
128.551
128.55
128.56
128.574
128.593
128.619
128.649
128.683
128.719
128.758
128.799
128.841
128.885
128.929
128.974
129.02
129.066
129.112
129.158
129.204
129.25
129.295
133.887
133.129
132.453
131.863
131.359
130.927
130.558
130.244
129.979
129.756
129.569
129.416
129.29
129.189
129.11
129.049
129.006
128.976
128.96
128.955
128.96
128.974
128.991
129.011
129.037
129.066
129.098
129.132
129.167
129.204
129.242
129.28
129.319
129.358
129.397
129.436
129.476
129.515
129.554
129.593
129.63
133.925
133.182
132.524
131.953
131.466
131.054
130.705
130.411
130.166
129.964
129.798
129.663
129.555
129.471
129.407
129.36
129.327
129.307
129.298
129.299
129.307
129.323
129.341
129.362
129.387
129.415
129.445
129.476
129.508
129.541
129.574
129.608
129.642
129.676
129.71
129.744
129.778
129.812
129.845
129.879
129.91
133.955
133.223
132.578
132.02
131.548
131.151
130.818
130.543
130.316
130.132
129.984
129.867
129.777
129.708
129.659
129.626
129.606
129.597
129.598
129.607
129.622
129.643
129.665
129.689
129.716
129.744
129.774
129.804
129.834
129.865
129.896
129.926
129.956
129.986
130.016
130.045
130.074
130.102
130.13
130.158
130.185
133.979
133.254
132.617
132.068
131.607
131.221
130.902
130.641
130.431
130.263
130.131
130.031
129.955
129.901
129.864
129.841
129.83
129.828
129.834
129.846
129.864
129.886
129.909
129.933
129.96
129.987
130.015
130.044
130.072
130.1
130.128
130.156
130.183
130.21
130.237
130.263
130.288
130.313
130.337
130.361
130.384
133.996
133.271
132.638
132.095
131.641
131.265
130.957
130.709
130.512
130.358
130.241
130.155
130.094
130.055
130.034
130.026
130.03
130.043
130.061
130.085
130.112
130.141
130.17
130.199
130.229
130.26
130.289
130.318
130.347
130.374
130.401
130.427
130.452
130.477
130.5
130.523
130.544
130.565
130.586
130.605
130.624
134.004
133.268
132.629
132.086
131.635
131.266
130.968
130.732
130.548
130.409
130.306
130.234
130.186
130.157
130.143
130.142
130.15
130.165
130.186
130.212
130.241
130.272
130.302
130.332
130.363
130.393
130.422
130.45
130.478
130.504
130.53
130.554
130.577
130.6
130.621
130.642
130.662
130.68
130.699
130.716
130.733
134.002
133.247
132.596
132.046
131.592
131.224
130.933
130.706
130.535
130.411
130.325
130.271
130.244
130.239
130.25
130.274
130.306
130.345
130.386
130.428
130.47
130.51
130.549
130.587
130.623
130.657
130.69
130.721
130.75
130.777
130.803
130.827
130.85
130.871
130.891
130.91
130.927
130.944
130.959
130.974
130.988
125.738
133.173
139.073
142.366
144.222
145.37
145.929
146.068
145.941
145.644
145.241
144.778
144.285
143.784
143.289
142.808
142.347
141.908
141.494
141.104
140.738
140.396
140.077
139.779
139.501
139.242
139.001
138.777
138.569
138.374
138.193
138.024
137.866
137.718
137.579
137.449
137.326
137.21
137.102
136.999
136.902
136.812
136.726
136.645
136.569
136.498
136.43
136.366
136.305
136.248
136.193
136.141
136.092
136.045
135.999
135.956
135.914
135.874
135.835
135.798
135.761
135.726
135.691
135.657
135.624
135.592
135.561
135.531
135.502
135.476
135.447
135.43
135.396
135.408
124.727
132.723
138.889
142.415
144.368
145.521
146.055
146.164
146.009
145.686
145.263
144.783
144.277
143.766
143.264
142.777
142.312
141.87
141.454
141.063
140.697
140.355
140.036
139.738
139.461
139.204
138.964
138.741
138.534
138.341
138.161
137.993
137.836
137.689
137.552
137.422
137.301
137.186
137.078
136.977
136.881
136.791
136.706
136.627
136.551
136.48
136.413
136.35
136.29
136.233
136.179
136.128
136.079
136.032
135.988
135.945
135.903
135.864
135.825
135.788
135.752
135.717
135.682
135.649
135.616
135.585
135.554
135.524
135.495
135.469
135.441
135.424
135.39
135.402
123.976
131.534
138.351
142.33
144.464
145.664
146.193
146.276
146.088
145.736
145.288
144.788
144.267
143.744
143.233
142.74
142.27
141.825
141.407
141.015
140.648
140.306
139.988
139.691
139.416
139.159
138.921
138.7
138.494
138.302
138.124
137.958
137.802
137.657
137.521
137.393
137.273
137.159
137.053
136.952
136.858
136.769
136.685
136.606
136.532
136.462
136.395
136.333
136.274
136.218
136.164
136.113
136.065
136.019
135.975
135.932
135.892
135.852
135.814
135.777
135.742
135.707
135.673
135.64
135.608
135.577
135.546
135.517
135.488
135.462
135.434
135.417
135.383
135.396
123.578
130.51
137.651
142.061
144.458
145.753
146.305
146.381
146.171
145.79
145.315
144.792
144.253
143.717
143.195
142.694
142.219
141.771
141.351
140.958
140.591
140.25
139.932
139.637
139.363
139.108
138.872
138.652
138.448
138.259
138.082
137.918
137.764
137.621
137.486
137.36
137.241
137.129
137.024
136.925
136.832
136.744
136.661
136.583
136.51
136.441
136.376
136.314
136.256
136.2
136.148
136.098
136.05
136.004
135.961
135.919
135.879
135.84
135.803
135.766
135.731
135.697
135.663
135.631
135.599
135.568
135.538
135.509
135.48
135.454
135.427
135.41
135.377
135.389
123.695
130.123
137.075
141.657
144.316
145.756
146.358
146.443
146.225
145.828
145.333
144.79
144.232
143.681
143.148
142.639
142.158
141.707
141.284
140.891
140.524
140.184
139.867
139.574
139.301
139.049
138.815
138.597
138.396
138.208
138.034
137.872
137.721
137.58
137.447
137.323
137.206
137.096
136.992
136.894
136.802
136.716
136.635
136.558
136.486
136.418
136.354
136.293
136.236
136.181
136.13
136.081
136.034
135.989
135.946
135.905
135.865
135.827
135.79
135.754
135.719
135.686
135.653
135.621
135.589
135.558
135.529
135.5
135.472
135.447
135.419
135.403
135.37
135.382
124.071
130.228
136.789
141.31
144.082
145.645
146.327
146.443
146.224
145.818
145.314
144.762
144.192
143.629
143.086
142.569
142.083
141.628
141.204
140.81
140.444
140.105
139.79
139.499
139.229
138.98
138.748
138.534
138.335
138.151
137.979
137.82
137.671
137.533
137.403
137.28
137.166
137.058
136.956
136.86
136.77
136.685
136.605
136.53
136.459
136.393
136.33
136.27
136.214
136.161
136.11
136.062
136.016
135.972
135.93
135.889
135.85
135.813
135.776
135.741
135.707
135.674
135.641
135.61
135.579
135.549
135.519
135.491
135.463
135.438
135.411
135.395
135.362
135.374
124.57
130.592
136.743
141.139
143.875
145.456
146.199
146.365
146.163
145.752
145.238
144.678
144.107
143.543
142.998
142.478
141.988
141.531
141.106
140.712
140.348
140.011
139.699
139.411
139.145
138.898
138.67
138.46
138.265
138.084
137.916
137.76
137.615
137.479
137.352
137.232
137.12
137.014
136.915
136.821
136.733
136.65
136.572
136.499
136.43
136.365
136.303
136.245
136.19
136.138
136.088
136.041
135.996
135.953
135.912
135.872
135.834
135.797
135.762
135.727
135.694
135.661
135.629
135.598
135.568
135.538
135.509
135.481
135.453
135.429
135.402
135.386
135.354
135.366
125.248
131.018
136.748
141.055
143.736
145.266
146.008
146.204
146.029
145.629
145.112
144.542
143.961
143.396
142.856
142.343
141.859
141.406
140.984
140.593
140.231
139.898
139.59
139.306
139.044
138.802
138.579
138.373
138.182
138.006
137.842
137.69
137.549
137.417
137.293
137.177
137.068
136.965
136.868
136.777
136.692
136.611
136.535
136.464
136.397
136.333
136.273
136.217
136.163
136.113
136.064
136.018
135.975
135.933
135.892
135.854
135.817
135.781
135.746
135.712
135.679
135.647
135.616
135.585
135.556
135.526
135.498
135.47
135.443
135.419
135.393
135.377
135.346
135.358
126.221
131.451
136.609
140.851
143.547
145.064
145.792
145.989
145.827
145.44
144.931
144.361
143.773
143.199
142.655
142.145
141.672
141.232
140.822
140.44
140.087
139.759
139.458
139.18
138.924
138.688
138.471
138.27
138.085
137.914
137.756
137.609
137.473
137.345
137.226
137.113
137.008
136.909
136.815
136.727
136.644
136.566
136.493
136.424
136.359
136.298
136.24
136.186
136.134
136.085
136.038
135.993
135.951
135.91
135.871
135.833
135.797
135.762
135.728
135.696
135.664
135.632
135.602
135.572
135.543
135.514
135.486
135.459
135.433
135.409
135.383
135.368
135.337
135.349
127.372
131.816
136.243
140.357
143.106
144.673
145.464
145.711
145.574
145.195
144.689
144.124
143.54
142.967
142.418
141.903
141.429
140.996
140.599
140.234
139.897
139.584
139.294
139.026
138.779
138.551
138.341
138.148
137.971
137.807
137.655
137.514
137.384
137.261
137.147
137.04
136.939
136.844
136.754
136.67
136.59
136.516
136.445
136.379
136.317
136.258
136.203
136.15
136.101
136.053
136.008
135.965
135.924
135.885
135.847
135.811
135.776
135.742
135.71
135.678
135.647
135.616
135.586
135.557
135.529
135.501
135.474
135.447
135.421
135.398
135.373
135.358
135.327
135.34
128.186
131.859
135.502
139.364
142.2
143.884
144.8
145.183
145.163
144.865
144.399
143.849
143.269
142.695
142.145
141.63
141.155
140.721
140.326
139.969
139.646
139.352
139.081
138.831
138.6
138.385
138.186
138.003
137.834
137.679
137.536
137.403
137.279
137.164
137.056
136.954
136.859
136.769
136.684
136.604
136.529
136.458
136.391
136.328
136.269
136.213
136.16
136.111
136.063
136.018
135.975
135.934
135.895
135.857
135.821
135.787
135.753
135.72
135.689
135.658
135.628
135.599
135.57
135.542
135.514
135.487
135.46
135.434
135.409
135.386
135.361
135.347
135.317
135.33
128.1
131.23
134.225
137.674
140.506
142.36
143.496
144.12
144.329
144.225
143.91
143.467
142.952
142.407
141.864
141.346
140.864
140.425
140.027
139.671
139.352
139.067
138.811
138.579
138.368
138.174
137.993
137.826
137.671
137.527
137.394
137.271
137.156
137.049
136.949
136.854
136.766
136.682
136.602
136.528
136.457
136.391
136.328
136.27
136.214
136.162
136.112
136.065
136.021
135.978
135.938
135.899
135.862
135.827
135.792
135.759
135.727
135.696
135.666
135.636
135.608
135.579
135.552
135.524
135.498
135.471
135.445
135.42
135.396
135.374
135.35
135.335
135.306
135.319
127.07
129.839
132.404
135.351
137.984
139.922
141.276
142.194
142.73
142.94
142.901
142.687
142.355
141.949
141.504
141.045
140.589
140.152
139.745
139.376
139.046
138.756
138.501
138.278
138.082
137.906
137.747
137.602
137.467
137.341
137.223
137.113
137.01
136.913
136.823
136.737
136.656
136.58
136.507
136.439
136.374
136.313
136.256
136.202
136.151
136.103
136.058
136.014
135.973
135.934
135.896
135.86
135.825
135.792
135.76
135.729
135.699
135.669
135.641
135.613
135.585
135.558
135.532
135.506
135.48
135.455
135.43
135.406
135.382
135.36
135.337
135.323
135.295
135.308
125.303
127.778
130.076
132.598
134.96
136.878
138.368
139.506
140.325
140.853
141.137
141.232
141.179
141.016
140.772
140.475
140.147
139.803
139.457
139.118
138.792
138.489
138.216
137.976
137.771
137.596
137.447
137.32
137.208
137.106
137.011
136.921
136.834
136.752
136.673
136.599
136.528
136.46
136.396
136.335
136.278
136.224
136.173
136.124
136.079
136.036
135.995
135.956
135.918
135.883
135.848
135.816
135.784
135.753
135.724
135.695
135.667
135.64
135.613
135.587
135.561
135.535
135.51
135.485
135.461
135.437
135.413
135.389
135.366
135.346
135.323
135.31
135.283
135.296
123.046
125.276
127.387
129.608
131.724
133.564
135.111
136.39
137.413
138.192
138.752
139.129
139.356
139.46
139.469
139.401
139.275
139.105
138.903
138.68
138.446
138.209
137.973
137.744
137.527
137.331
137.162
137.02
136.906
136.814
136.738
136.673
136.613
136.553
136.494
136.435
136.377
136.32
136.265
136.214
136.165
136.119
136.075
136.034
135.995
135.958
135.922
135.888
135.856
135.824
135.794
135.765
135.737
135.709
135.683
135.657
135.631
135.606
135.582
135.557
135.534
135.51
135.486
135.463
135.44
135.417
135.394
135.372
135.35
135.33
135.308
135.296
135.27
135.284
120.557
122.581
124.53
126.525
128.441
130.182
131.729
133.085
134.247
135.214
135.996
136.61
137.079
137.423
137.662
137.816
137.9
137.929
137.913
137.859
137.774
137.665
137.538
137.398
137.251
137.101
136.951
136.806
136.672
136.555
136.46
136.386
136.332
136.29
136.256
136.223
136.189
136.152
136.113
136.074
136.035
135.998
135.962
135.929
135.898
135.868
135.839
135.811
135.784
135.758
135.732
135.707
135.683
135.66
135.636
135.614
135.591
135.569
135.547
135.525
135.503
135.482
135.46
135.438
135.417
135.395
135.374
135.353
135.332
135.313
135.293
135.281
135.256
135.27
118.105
119.939
121.726
123.525
125.267
126.898
128.405
129.781
131.018
132.108
133.052
133.856
134.529
135.083
135.53
135.884
136.159
136.368
136.522
136.631
136.702
136.742
136.754
136.743
136.711
136.662
136.6
136.528
136.449
136.366
136.279
136.195
136.117
136.051
136.001
135.966
135.942
135.924
135.909
135.892
135.873
135.852
135.83
135.807
135.785
135.763
135.742
135.721
135.701
135.681
135.661
135.642
135.622
135.603
135.584
135.565
135.546
135.527
135.508
135.489
135.47
135.45
135.431
135.411
135.392
135.372
135.352
135.333
135.313
135.295
135.276
135.265
135.241
135.256
116.117
117.758
119.371
120.984
122.558
124.065
125.494
126.836
128.082
129.224
130.257
131.18
131.995
132.707
133.321
133.845
134.288
134.659
134.966
135.219
135.426
135.593
135.728
135.834
135.914
135.972
136.009
136.026
136.026
136.011
135.986
135.952
135.913
135.869
135.824
135.78
135.742
135.713
135.695
135.685
135.681
135.677
135.673
135.666
135.656
135.645
135.633
135.621
135.608
135.595
135.582
135.568
135.554
135.54
135.526
135.511
135.496
135.481
135.465
135.449
135.433
135.416
135.399
135.382
135.364
135.346
135.328
135.31
135.292
135.276
135.258
135.248
135.225
135.242
114.808
116.249
117.68
119.108
120.514
121.883
123.205
124.473
125.677
126.811
127.867
128.842
129.734
130.542
131.267
131.913
132.484
132.984
133.42
133.797
134.122
134.401
134.639
134.841
135.012
135.156
135.275
135.372
135.449
135.507
135.548
135.575
135.589
135.594
135.591
135.583
135.57
135.553
135.535
135.519
135.508
135.504
135.505
135.51
135.514
135.516
135.516
135.513
135.509
135.503
135.497
135.49
135.482
135.473
135.463
135.453
135.442
135.431
135.419
135.407
135.393
135.38
135.365
135.35
135.335
135.319
135.303
135.287
135.27
135.255
135.238
135.23
135.208
135.227
114.147
115.388
116.633
117.878
119.115
120.335
121.531
122.696
123.823
124.905
125.934
126.908
127.82
128.669
129.453
130.171
130.825
131.415
131.946
132.42
132.842
133.215
133.543
133.831
134.084
134.303
134.494
134.659
134.802
134.923
135.027
135.113
135.183
135.239
135.282
135.315
135.338
135.354
135.363
135.367
135.366
135.363
135.361
135.362
135.367
135.376
135.387
135.395
135.402
135.405
135.407
135.406
135.404
135.401
135.397
135.392
135.386
135.378
135.37
135.361
135.351
135.341
135.329
135.317
135.304
135.29
135.276
135.262
135.247
135.233
135.218
135.21
135.19
135.211
114.046
115.095
116.155
117.221
118.29
119.357
120.416
121.461
122.486
123.486
124.454
125.386
126.277
127.123
127.92
128.668
129.364
130.007
130.599
131.14
131.633
132.079
132.48
132.841
133.163
133.451
133.705
133.931
134.13
134.306
134.461
134.597
134.716
134.82
134.91
134.986
135.049
135.101
135.143
135.175
135.2
135.218
135.231
135.238
135.244
135.25
135.259
135.27
135.284
135.297
135.308
135.317
135.322
135.325
135.327
135.327
135.325
135.323
135.319
135.313
135.307
135.3
135.291
135.282
135.271
135.26
135.248
135.235
135.222
135.21
135.196
135.19
135.171
135.194
114.388
115.259
116.145
117.043
117.951
118.867
119.785
120.702
121.613
122.512
123.396
124.26
125.099
125.909
126.687
127.428
128.131
128.794
129.415
129.994
130.531
131.027
131.482
131.898
132.276
132.62
132.93
133.209
133.46
133.684
133.885
134.064
134.224
134.367
134.495
134.608
134.709
134.798
134.874
134.939
134.993
135.037
135.073
135.101
135.122
135.138
135.15
135.161
135.173
135.187
135.202
135.218
135.232
135.244
135.252
135.258
135.261
135.263
135.264
135.262
135.26
135.256
135.25
135.244
135.236
135.227
135.218
135.207
135.196
135.185
135.173
135.168
135.151
135.177
115.058
115.77
116.499
117.244
118.004
118.776
119.559
120.348
121.14
121.932
122.719
123.498
124.265
125.017
125.749
126.457
127.14
127.794
128.418
129.008
129.565
130.087
130.574
131.027
131.446
131.832
132.185
132.509
132.803
133.071
133.313
133.532
133.73
133.908
134.068
134.213
134.344
134.462
134.568
134.662
134.746
134.818
134.88
134.931
134.974
135.009
135.037
135.059
135.076
135.091
135.105
135.12
135.137
135.154
135.17
135.183
135.193
135.2
135.205
135.209
135.21
135.209
135.208