/*--------------------------------*- C++ -*----------------------------------*\
| =========                 |                                                 |
| \\      /  F ield         | OpenFOAM: The Open Source CFD Toolbox           |
|  \\    /   O peration     | Version:  5.x                                   |
|   \\  /    A nd           | Web:      www.OpenFOAM.org                      |
|    \\/     M anipulation  |                                                 |
\*---------------------------------------------------------------------------*/
FoamFile
{
    version     2.0;
    format      ascii;
    class       volVectorField;
    location    "2200";
    object      U;
}
// * * * * * * * * * * * * * * * * * * * * * * * * * * * * * * * * * * * * * //

dimensions      [0 1 -1 0 0 0 0];

internalField   nonuniform List<vector> 
11040
(
(-4.50703 25.0888 0)
(-0.6319 30.5775 -1.53149e-19)
(5.69831 33.7789 1.58423e-17)
(11.5763 32.7425 1.83036e-17)
(16.0357 29.4381 3.79911e-17)
(19.1038 25.279 -1.81777e-17)
(21.0031 20.9323 -1.77025e-17)
(21.9292 16.7911 1.76579e-17)
(22.0563 13.0683 3.85954e-17)
(21.4741 9.79743 1.24203e-18)
(19.8738 6.69365 1.6734e-17)
(17.6943 4.20194 -7.10115e-19)
(15.809 2.69513 1.02751e-17)
(14.4964 1.91552 6.85669e-18)
(13.2026 1.32216 2.82789e-18)
(11.5917 0.756421 -6.12193e-19)
(9.67374 0.287715 3.14732e-18)
(7.55162 -0.0363682 8.32745e-19)
(5.248 -0.223166 -9.81661e-19)
(2.77304 -0.276395 -1.46325e-17)
(0.475108 -0.155857 -2.23047e-17)
(-1.12136 0.0324104 -3.17508e-17)
(-2.00275 0.149636 -6.02747e-17)
(-2.53688 0.235772 -3.82948e-18)
(-2.83352 0.305352 -1.63663e-20)
(-2.97516 0.360474 2.00853e-18)
(-3.03636 0.408844 -1.30784e-16)
(-3.06994 0.458258 2.05333e-18)
(-3.10658 0.509012 -1.33858e-16)
(-3.16469 0.560786 1.29063e-16)
(-3.25559 0.617313 2.00135e-18)
(-3.38864 0.681169 9.58855e-19)
(-3.56714 0.751775 -9.04601e-19)
(-3.77708 0.82314 0)
(-3.9708 0.881181 2.02199e-16)
(-4.05407 0.90389 0)
(-3.91903 0.867781 0)
(-3.53959 0.759092 -3.6968e-19)
(-2.7541 0.492009 4.4202e-19)
(-1.62346 -0.141798 -2.16341e-16)
(-1.56404 -0.999011 -1.95369e-16)
(-0.273882 24.3953 0)
(4.02908 28.5192 0)
(11.7127 30.0624 -8.95851e-18)
(18.2452 28.7812 9.33181e-18)
(22.9265 26.6871 -2.24979e-17)
(26.1933 24.3335 2.2836e-17)
(28.3046 21.6614 1.08301e-17)
(29.3781 18.7255 1.38847e-18)
(29.5629 15.6789 -9.00771e-19)
(29.0208 12.6894 1.05306e-17)
(27.636 9.65967 -1.1714e-18)
(25.3315 7.05287 0)
(22.729 5.18353 0)
(20.4155 3.88536 -3.15032e-18)
(18.3631 2.82109 -1.49467e-18)
(16.2761 1.96065 5.8491e-19)
(14.0228 1.29981 0)
(11.5488 0.805964 -3.55509e-19)
(8.81139 0.462073 1.33175e-18)
(5.856 0.260452 1.29592e-18)
(2.84751 0.182657 7.69948e-18)
(0.49753 0.197268 1.11381e-17)
(-0.917271 0.232552 1.68514e-18)
(-1.8209 0.273612 -2.95216e-17)
(-2.37549 0.319358 2.79703e-17)
(-2.69991 0.366186 2.00372e-18)
(-2.90341 0.416605 6.74061e-17)
(-3.0544 0.470339 -1.09202e-18)
(-3.1883 0.527291 7.25555e-17)
(-3.32791 0.588962 -7.21588e-17)
(-3.48092 0.656156 -7.25859e-17)
(-3.64833 0.729063 7.1458e-17)
(-3.82192 0.80462 -1.40486e-21)
(-3.98159 0.875178 -1.45416e-18)
(-4.08997 0.927429 -5.7701e-17)
(-4.09175 0.939997 0)
(-3.93905 0.893465 -3.98721e-19)
(-3.52494 0.777101 9.46412e-17)
(-2.56005 0.55456 9.64589e-17)
(-0.745682 -0.0336764 9.00489e-17)
(-0.277438 -1.14699 1.27761e-16)
(1.51386 23.4648 0)
(5.47007 26.6002 0)
(10.8828 28.2014 2.34364e-18)
(15.9452 28.0851 -6.76663e-18)
(20.0429 26.7065 6.97725e-18)
(23.4049 24.6128 -8.31448e-18)
(26.0915 22.1198 -6.31471e-18)
(28.0387 19.4049 0)
(29.2175 16.5973 -9.66923e-18)
(29.6706 13.8088 -5.38953e-18)
(29.3386 10.9691 0)
(28.0527 8.44122 0)
(26.1341 6.47778 -3.54651e-18)
(24.055 4.98814 -2.23592e-18)
(21.9279 3.72783 -4.95529e-20)
(19.6756 2.70107 5.19706e-20)
(17.2598 1.91217 0)
(14.6573 1.32849 0)
(11.8067 0.919387 -2.91778e-19)
(8.67626 0.648566 8.21229e-19)
(5.35302 0.478723 -9.26384e-19)
(2.54689 0.378917 4.39668e-18)
(0.636944 0.32004 -3.52995e-20)
(-0.68193 0.299877 -1.40425e-17)
(-1.53754 0.311954 -1.14268e-18)
(-2.08418 0.344337 -1.24265e-18)
(-2.45099 0.392007 -1.57891e-21)
(-2.71164 0.448082 1.38997e-18)
(-2.91642 0.509483 0)
(-3.09724 0.575186 0)
(-3.26979 0.644188 9.5263e-17)
(-3.44149 0.715732 -9.28985e-17)
(-3.61302 0.786374 4.42788e-17)
(-3.77633 0.849156 0)
(-3.90642 0.892695 3.95405e-17)
(-3.94987 0.893617 3.72073e-17)
(-3.8391 0.816905 0)
(-3.47985 0.641845 1.32099e-19)
(-2.58612 0.335655 -2.19851e-19)
(-0.79238 -0.366172 0)
(-0.210331 -1.7019 -5.49706e-17)
(3.33157 22.4026 1.03318e-19)
(7.03122 24.8594 -1.06673e-19)
(11.2588 26.2142 2.95631e-19)
(15.6865 26.3224 0)
(19.5511 25.2839 -7.23359e-18)
(22.6769 23.5577 0)
(25.147 21.4181 1.40579e-17)
(26.987 19.0289 1.19277e-20)
(28.2188 16.5289 1.35785e-18)
(28.8934 14.0335 8.25927e-18)
(29.0153 11.5061 1.18785e-18)
(28.4414 9.18774 2.75884e-18)
(27.2846 7.31359 6.29096e-18)
(25.8348 5.84789 1.74464e-18)
(24.1786 4.57404 0)
(22.2503 3.48216 1.76698e-19)
(20.0298 2.6018 2.52655e-19)
(17.5333 1.92974 7.03643e-19)
(14.7393 1.44742 4.71994e-19)
(11.6089 1.11363 -5.01844e-19)
(8.15248 0.871247 -2.75211e-18)
(5.00952 0.671889 -3.94016e-18)
(2.59981 0.506177 0)
(0.787693 0.397939 2.51687e-17)
(-0.449592 0.349711 -1.52366e-17)
(-1.26898 0.346788 1.42643e-17)
(-1.82282 0.37667 -2.98383e-17)
(-2.20863 0.424981 0)
(-2.49701 0.483569 0)
(-2.72797 0.54803 0)
(-2.92796 0.616201 -3.39707e-17)
(-3.11489 0.687185 3.47324e-17)
(-3.29962 0.757335 -1.00544e-18)
(-3.4824 0.818389 -3.18262e-17)
(-3.64336 0.856439 -2.78669e-17)
(-3.73061 0.844209 -2.74263e-17)
(-3.67818 0.739208 -4.80613e-17)
(-3.40693 0.513472 -4.20517e-17)
(-2.65968 0.140842 -1.51273e-19)
(-1.07721 -0.602779 -3.49388e-17)
(-0.504258 -2.03242 2.12294e-17)
(5.15185 21.237 0)
(8.39453 23.1644 1.5395e-19)
(11.7665 24.2809 -5.16039e-20)
(15.4071 24.6024 2.86687e-19)
(18.8016 24.0296 5.43235e-18)
(21.71 22.7727 -5.0532e-18)
(24.1173 21.0224 -1.85306e-18)
(25.9842 18.9271 -6.50683e-18)
(27.2855 16.6436 0)
(28.0563 14.3107 -7.61016e-18)
(28.3348 11.9476 0)
(28.0643 9.74609 -1.68313e-18)
(27.3181 7.92393 -3.39422e-18)
(26.3105 6.48842 0)
(25.1352 5.26063 5.4411e-19)
(23.715 4.19588 0)
(21.9784 3.31378 0)
(19.9016 2.61744 -3.74323e-19)
(17.4517 2.09667 -5.54342e-19)
(14.5802 1.71767 0)
(11.2388 1.41689 2.06193e-18)
(7.96981 1.13218 0)
(5.16387 0.851971 0)
(2.80831 0.618271 -8.38082e-18)
(1.05109 0.468095 0)
(-0.158331 0.399177 1.15155e-17)
(-0.974445 0.390258 2.41213e-17)
(-1.53563 0.416476 0)
(-1.94021 0.463105 0)
(-2.24459 0.520787 0)
(-2.48923 0.585186 2.76313e-17)
(-2.70293 0.654609 2.34463e-17)
(-2.90681 0.724708 -2.4358e-17)
(-3.11048 0.785014 -7.58419e-19)
(-3.3018 0.81787 6.99301e-19)
(-3.4358 0.791898 0)
(-3.45389 0.658916 3.7671e-17)
(-3.29219 0.383354 -3.28276e-17)
(-2.73145 -0.052348 2.96113e-17)
(-1.45391 -0.81406 2.67271e-17)
(-0.961396 -2.2249 3.60024e-20)
(6.82476 20.0093 -2.30166e-19)
(9.58879 21.516 -2.7645e-20)
(12.3243 22.424 7.08312e-19)
(15.281 22.8464 -1.40344e-19)
(18.196 22.6034 -6.4934e-19)
(20.8287 21.7586 4.95755e-18)
(23.1116 20.4272 -6.10538e-18)
(24.977 18.71 5.31824e-18)
(26.3595 16.7332 2.40582e-18)
(27.2519 14.6261 -1.2226e-18)
(27.6736 12.4367 0)
(27.596 10.3287 0)
(27.0744 8.51209 6.17901e-19)
(26.2877 7.04797 -6.551e-19)
(25.3687 5.82383 -8.18758e-19)
(24.2986 4.78501 -2.34195e-19)
(23.0103 3.93296 7.85592e-19)
(21.4531 3.26486 1.50063e-19)
(19.5602 2.76467 1.13488e-18)
(17.2393 2.39602 -2.55716e-18)
(14.3575 2.08719 3.81847e-18)
(11.3021 1.7636 -2.05991e-18)
(8.36678 1.39742 1.21844e-18)
(5.57409 1.02752 1.50835e-18)
(3.22596 0.731867 -9.12762e-18)
(1.46681 0.546241 1.19853e-20)
(0.239514 0.460269 -2.28505e-17)
(-0.600319 0.441392 -1.88354e-17)
(-1.18999 0.461604 0)
(-1.6158 0.503277 0)
(-1.93824 0.558338 -1.9953e-17)
(-2.19891 0.623102 -4.34036e-17)
(-2.4302 0.691792 -1.2751e-18)
(-2.65395 0.751253 1.94017e-17)
(-2.87168 0.779755 1.92848e-17)
(-3.05216 0.741695 -1.75622e-17)
(-3.1477 0.583658 4.8391e-19)
(-3.11019 0.26282 5.37888e-17)
(-2.76138 -0.230368 -4.79887e-17)
(-1.8428 -1.00663 8.24342e-20)
(-1.48586 -2.32345 1.55972e-17)
(8.33048 18.7576 0)
(10.6514 19.9298 -5.96964e-19)
(12.8886 20.6656 -1.31649e-18)
(15.2807 21.1084 -2.76355e-19)
(17.7219 21.0818 -2.26963e-19)
(20.0311 20.5663 7.72951e-19)
(22.1269 19.6143 -2.80095e-18)
(23.931 18.2823 1.20399e-18)
(25.3592 16.6574 0)
(26.3718 14.8426 1.51316e-18)
(26.9623 12.8908 -2.90218e-18)
(27.0936 10.9327 2.60103e-18)
(26.786 9.15489 -2.81226e-19)
(26.1719 7.6568 0)
(25.3925 6.3977 2.79542e-19)
(24.4933 5.34137 2.28983e-19)
(23.4586 4.48546 -2.08393e-19)
(22.268 3.83026 -5.81278e-19)
(20.8778 3.36189 3.99882e-19)
(19.1992 3.04335 9.7183e-19)
(17.0447 2.79095 -1.08358e-18)
(14.5897 2.50895 -1.49048e-18)
(11.955 2.13877 0)
(9.0865 1.6827 2.13315e-18)
(6.29491 1.23104 5.15222e-18)
(3.90883 0.87375 -7.78718e-18)
(2.08988 0.648956 5.62474e-18)
(0.797891 0.53821 1.74477e-17)
(-0.103561 0.502802 -2.39797e-18)
(-0.741559 0.51072 -2.39337e-21)
(-1.20599 0.545168 -1.41561e-17)
(-1.55739 0.598173 -4.60077e-18)
(-1.84205 0.661669 -1.54157e-17)
(-2.0965 0.719383 0)
(-2.34054 0.744927 -1.53711e-17)
(-2.56319 0.698398 1.52267e-17)
(-2.73484 0.521915 -1.36955e-17)
(-2.82713 0.166065 -4.57598e-17)
(-2.70311 -0.373177 2.00035e-17)
(-2.16913 -1.164 6.97678e-20)
(-2.00075 -2.36611 -2.8217e-17)
(9.66041 17.5134 1.40263e-18)
(11.5949 18.4223 -4.01403e-19)
(13.433 19.017 -2.80874e-19)
(15.3706 19.4337 1.12635e-18)
(17.38 19.531 -3.98682e-19)
(19.3471 19.2588 -8.46165e-19)
(21.2049 18.6253 1.79212e-18)
(22.882 17.649 1.75818e-18)
(24.2927 16.3797 -1.42952e-18)
(25.3814 14.8888 0)
(26.1236 13.222 -8.52157e-19)
(26.4694 11.4776 1.35502e-19)
(26.4008 9.80681 -9.79588e-21)
(25.9941 8.32155 3.57024e-19)
(25.3672 7.03638 -2.33943e-20)
(24.594 5.9456 2.434e-20)
(23.6986 5.05338 0)
(22.699 4.36834 0)
(21.6035 3.88906 -1.78614e-18)
(20.3905 3.59557 1.5722e-18)
(18.9296 3.41353 -1.05662e-18)
(17.2515 3.23396 1.10019e-18)
(15.3079 2.96536 1.31153e-18)
(12.9054 2.54937 0)
(10.1674 2.02836 1.77571e-18)
(7.39705 1.50303 -2.11694e-18)
(4.93911 1.07493 -5.1495e-18)
(3.00022 0.792642 0)
(1.58385 0.6415 0)
(0.576721 0.578101 2.06349e-18)
(-0.143417 0.567807 1.76039e-17)
(-0.669071 0.592666 1.50906e-17)
(-1.06574 0.640475 3.05255e-17)
(-1.38693 0.691817 1.89255e-18)
(-1.67415 0.715479 0)
(-1.9418 0.666245 -7.92289e-19)
(-2.18528 0.481923 1.25278e-17)
(-2.4007 0.107968 6.79474e-20)
(-2.49674 -0.458431 1.7932e-17)
(-2.34322 -1.25634 1.52885e-17)
(-2.41681 -2.34806 1.29918e-17)
(10.82 16.3039 -8.4467e-19)
(12.4283 17.0076 -1.03728e-20)
(13.943 17.4866 1.11831e-18)
(15.5165 17.8556 -2.11143e-18)
(17.154 18.0106 0)
(18.7925 17.8998 -5.22055e-19)
(20.3891 17.5095 1.40238e-18)
(21.8894 16.8347 -1.11548e-18)
(23.2188 15.8943 3.87707e-19)
(24.3203 14.729 8.34383e-19)
(25.161 13.3699 3.91131e-20)
(25.6852 11.8849 -1.4869e-18)
(25.8478 10.3868 0)
(25.6749 8.97954 -6.55946e-20)
(25.2459 7.71116 -2.36963e-19)
(24.6322 6.60594 2.6544e-19)
(23.8744 5.67791 6.13637e-19)
(23.0068 4.94329 -6.3309e-19)
(22.0668 4.41121 5.25286e-19)
(21.0892 4.08154 0)
(20.0528 3.91254 -2.00423e-18)
(18.9847 3.81338 3.61177e-18)
(17.7849 3.68611 -3.06559e-18)
(16.1953 3.43082 -2.18219e-20)
(14.1185 3.01262 2.50102e-18)
(11.6204 2.4674 -2.84947e-18)
(8.94546 1.88668 0)
(6.42302 1.37646 1.01926e-17)
(4.31326 1.00712 4.90205e-18)
(2.70239 0.786504 2.87609e-18)
(1.5273 0.67805 -1.32103e-17)
(0.676942 0.640959 -3.66133e-18)
(0.0565845 0.64896 3.89244e-18)
(-0.409517 0.67911 -1.85436e-18)
(-0.788182 0.695706 -1.0024e-17)
(-1.12443 0.647941 -1.50292e-18)
(-1.44499 0.469601 0)
(-1.77347 0.100579 1.97349e-17)
(-2.06757 -0.466279 -1.67339e-17)
(-2.25754 -1.25189 -1.42067e-17)
(-2.61017 -2.24866 0)
(11.8213 15.151 0)
(13.1585 15.6959 0)
(14.4099 16.0798 0)
(15.6918 16.3942 5.83524e-18)
(17.0203 16.5647 -3.3308e-18)
(18.3642 16.55 1.49183e-18)
(19.702 16.3305 1.33527e-18)
(20.9989 15.8905 -3.47325e-19)
(22.1984 15.2292 -3.45038e-19)
(23.251 14.363 1.12327e-19)
(24.1247 13.3072 -1.10551e-19)
(24.7656 12.1023 5.15505e-19)
(25.1154 10.8242 -1.24889e-19)
(25.1651 9.55668 1.26558e-19)
(24.955 8.36001 6.87633e-19)
(24.5379 7.28024 -5.83312e-19)
(23.954 6.3433 -1.07106e-18)
(23.2388 5.57093 1.10391e-18)
(22.434 4.97894 -8.65269e-19)
(21.5888 4.57639 0)
(20.7453 4.35101 -2.91228e-18)
(19.9862 4.24962 2.07629e-18)
(19.2623 4.19772 8.32401e-19)
(18.3755 4.10184 -1.67926e-18)
(17.1638 3.88955 3.64094e-18)
(15.5017 3.52118 0)
(13.3797 3.00744 0)
(10.9425 2.41222 -2.60325e-18)
(8.45162 1.8307 -1.53873e-17)
(6.18288 1.35056 -7.327e-18)
(4.31668 1.01756 8.60931e-18)
(2.89027 0.826216 2.48922e-18)
(1.83938 0.739655 -1.39282e-17)
(1.06994 0.714191 -2.98821e-18)
(0.489781 0.703882 1.83815e-17)
(0.0195589 0.653287 -2.99186e-18)
(-0.406978 0.492142 -1.09806e-17)
(-0.850626 0.1527 1.21842e-18)
(-1.31722 -0.382919 1.50365e-17)
(-1.78788 -1.1273 0)
(-2.42127 -2.03812 0)
(12.6795 14.0706 0)
(13.7929 14.4934 0)
(14.8295 14.7995 -2.15186e-19)
(15.8772 15.0601 -4.08646e-18)
(16.9538 15.2229 0)
(18.046 15.2584 -3.34916e-18)
(19.1465 15.1493 -9.87249e-19)
(20.2367 14.8779 0)
(21.2788 14.4345 1.21363e-18)
(22.2355 13.8204 -1.0563e-18)
(23.0812 13.0387 -2.45945e-19)
(23.7701 12.1078 -1.34794e-19)
(24.2434 11.0719 2.09433e-21)
(24.4723 9.98946 0)
(24.4668 8.91672 1.26232e-18)
(24.2554 7.90839 -1.0291e-18)
(23.8684 7.00048 0)
(23.3359 6.22038 0)
(22.6942 5.58887 -8.4588e-19)
(21.9862 5.11841 3.45938e-18)
(21.2626 4.81109 -1.84678e-18)
(20.6332 4.64543 0)
(20.1053 4.57298 2.6117e-18)
(19.5761 4.5297 9.79619e-20)
(18.9535 4.46159 -2.83263e-18)
(18.1061 4.31176 1.50567e-18)
(16.9028 4.03331 0)
(15.2731 3.6093 0)
(13.2542 3.06591 -1.99083e-18)
(10.9964 2.46794 9.0309e-18)
(8.71963 1.89758 -5.24029e-18)
(6.63995 1.4264 6.13579e-18)
(4.9024 1.09302 3.53484e-18)
(3.5493 0.894187 0)
(2.53333 0.788478 6.52752e-18)
(1.76352 0.706133 6.56061e-21)
(1.13458 0.561291 2.08477e-17)
(0.537843 0.272693 0)
(-0.0884577 -0.198253 -1.76222e-17)
(-0.775567 -0.868929 1.43331e-17)
(-1.66416 -1.69071 0)
(13.4107 13.0735 0)
(14.3394 13.4022 -2.34411e-18)
(15.2003 13.6452 2.13553e-18)
(16.0594 13.857 0)
(16.9329 14.0009 3.37124e-18)
(17.8167 14.0575 -9.63358e-19)
(18.7115 14.0139 -1.15021e-17)
(19.6095 13.8553 1.28551e-17)
(20.4878 13.5699 -6.95205e-18)
(21.3218 13.152 -4.49184e-18)
(22.094 12.5979 3.01813e-18)
(22.7703 11.9113 7.29977e-19)
(23.2998 11.1127 -1.11049e-18)
(23.6475 10.2364 6.67873e-19)
(23.8043 9.32559 -1.72797e-18)
(23.7778 8.43089 1.29747e-18)
(23.5837 7.59184 9.22692e-19)
(23.2432 6.83989 5.41929e-19)
(22.7842 6.20015 2.34842e-18)
(22.2405 5.68866 -5.40995e-18)
(21.6523 5.31394 3.08161e-18)
(21.1216 5.07543 1.19456e-19)
(20.6771 4.93905 5.19242e-19)
(20.2717 4.85755 0)
(19.8852 4.80607 -3.47075e-18)
(19.4654 4.75383 1.15773e-18)
(18.9235 4.66076 3.74851e-18)
(18.151 4.48277 -2.5991e-18)
(17.0533 4.18597 5.57276e-18)
(15.5898 3.76211 -2.99791e-18)
(13.7988 3.23589 0)
(11.7958 2.65952 -5.54435e-18)
(9.74464 2.09738 -2.0969e-18)
(7.81288 1.60733 2.37717e-18)
(6.12626 1.22387 -1.61256e-17)
(4.74764 0.944235 -3.00361e-18)
(3.65546 0.717368 -6.40348e-18)
(2.74383 0.454022 6.82933e-18)
(1.89118 0.0736726 7.26119e-18)
(1.02259 -0.479449 -1.42376e-17)
(-0.0887647 -1.18853 -4.08311e-19)
(14.0302 12.1652 0)
(14.8065 12.4216 1.28238e-19)
(15.5232 12.6136 1.93962e-18)
(16.2299 12.7832 7.09818e-18)
(16.9406 12.9047 -4.1667e-18)
(17.6552 12.9655 2.38041e-18)
(18.3783 12.9576 2.0923e-18)
(19.1082 12.8699 -1.10692e-17)
(19.8324 12.6919 2.11456e-18)
(20.5365 12.4162 4.1224e-18)
(21.2101 12.037 -5.55194e-18)
(21.8307 11.5504 3.4282e-18)
(22.3591 10.9616 1.731e-18)
(22.7633 10.2869 -5.73547e-19)
(23.0263 9.55382 0)
(23.1419 8.80152 0)
(23.1126 8.06536 -4.38619e-18)
(22.9489 7.37646 -8.62349e-19)
(22.6691 6.76178 4.15488e-18)
(22.298 6.24091 -3.05301e-19)
(21.8651 5.82713 3.22006e-18)
(21.4518 5.53592 -6.36571e-18)
(21.089 5.34253 3.27096e-18)
(20.7511 5.20302 0)
(20.4427 5.10381 -4.65061e-19)
(20.1594 5.03333 3.90486e-18)
(19.8793 4.97733 -4.95853e-18)
(19.556 4.91377 4.13985e-18)
(19.1198 4.81154 -3.16544e-18)
(18.4895 4.63636 0)
(17.5961 4.36177 2.32149e-18)
(16.4071 3.97944 4.92075e-18)
(14.9409 3.50361 -2.65244e-18)
(13.2667 2.96696 2.89057e-18)
(11.4846 2.41063 1.56503e-18)
(9.71575 1.87575 -3.58861e-18)
(8.06785 1.38857 5.90924e-18)
(6.58804 0.943265 -4.26788e-18)
(5.2602 0.50605 -3.50047e-18)
(4.05054 0.0137643 -6.40763e-19)
(2.68445 -0.556162 1.04336e-17)
(14.5527 11.3472 -2.03288e-18)
(15.2027 11.548 -7.57699e-18)
(15.8008 11.6992 7.4489e-18)
(16.3841 11.8334 0)
(16.9642 11.9326 -2.0891e-19)
(17.543 11.9891 0)
(18.1263 11.9982 -1.72351e-17)
(18.7155 11.9524 1.38999e-17)
(19.3044 11.8436 9.93449e-18)
(19.8854 11.6654 -1.18113e-17)
(20.4535 11.412 4.09158e-18)
(20.9951 11.0772 -2.08051e-18)
(21.4832 10.6585 -1.50668e-18)
(21.8925 10.1606 -3.33461e-18)
(22.2061 9.59846 2.93631e-20)
(22.4118 8.99785 3.34229e-18)
(22.5037 8.3853 -2.63729e-18)
(22.483 7.78696 3.62426e-18)
(22.3586 7.22774 0)
(22.1464 6.72817 4.5317e-18)
(21.8664 6.30465 3.19737e-20)
(21.5784 5.98535 -4.95566e-18)
(21.3112 5.75549 4.38382e-20)
(21.0512 5.57386 0)
(20.8051 5.42906 3.83167e-19)
(20.5778 5.31267 3.97851e-19)
(20.3712 5.21905 0)
(20.1808 5.14318 0)
(19.9904 5.0766 2.4051e-21)
(19.7673 5.00398 0)
(19.4629 4.90284 -2.6868e-18)
(19.0207 4.74755 0)
(18.3895 4.51617 3.8187e-18)
(17.537 4.19652 -3.98185e-18)
(16.4548 3.788 0)
(15.1697 3.3041 2.20398e-18)
(13.7367 2.76738 -2.36651e-18)
(12.2124 2.19744 1.33236e-18)
(10.6391 1.61514 4.30207e-18)
(9.10158 1.02251 -3.94734e-19)
(7.36556 0.422548 -9.92957e-18)
(14.9918 10.618 5.39774e-18)
(15.5368 10.7757 2.09293e-19)
(16.0369 10.8943 -3.29733e-18)
(16.5199 10.9996 -6.30459e-18)
(16.9952 11.0787 -1.48226e-17)
(17.4655 11.1271 1.76196e-17)
(17.9365 11.1424 -4.25745e-19)
(18.4109 11.1199 -1.02683e-17)
(18.8862 11.0539 2.0291e-17)
(19.3587 10.9393 -5.52276e-19)
(19.8269 10.772 -1.10213e-17)
(20.2834 10.5456 3.9854e-18)
(20.7105 10.2549 -7.46127e-18)
(21.0908 9.89889 1.13468e-17)
(21.4107 9.48418 -1.90002e-18)
(21.6579 9.02558 0)
(21.8232 8.54016 -7.91315e-18)
(21.9024 8.0467 7.16192e-18)
(21.897 7.56491 7.69192e-18)
(21.8147 7.11299 -1.48522e-17)
(21.6674 6.70717 8.14137e-18)
(21.4943 6.38309 -4.26443e-19)
(21.3206 6.13572 -3.6383e-20)
(21.1429 5.92982 -5.02018e-18)
(20.9672 5.75691 1.01982e-17)
(20.798 5.60921 -5.54241e-18)
(20.6387 5.48056 5.12496e-18)
(20.492 5.36707 -6.20813e-18)
(20.3598 5.26659 -6.39889e-18)
(20.2401 5.17703 5.73101e-18)
(20.1238 5.09378 1.46387e-18)
(19.9919 5.00758 2.22678e-18)
(19.8149 4.90404 -6.75721e-18)
(19.5567 4.76541 6.1021e-18)
(19.1783 4.57296 -3.12532e-18)
(18.6481 4.31255 -1.63236e-18)
(17.9481 3.97789 0)
(17.073 3.56733 -1.71903e-18)
(16.0126 3.08952 -1.81406e-18)
(14.8471 2.56148 -2.01703e-18)
(13.35 1.97511 2.07975e-18)
(15.359 9.97355 1.45434e-20)
(15.8165 10.0976 7.56425e-19)
(16.2354 10.1903 2.88445e-18)
(16.6366 10.2721 -5.48027e-18)
(17.0275 10.3339 2.18483e-17)
(17.4112 10.3732 -2.03448e-17)
(17.7927 10.3889 2.57021e-17)
(18.1752 10.3783 1.42894e-17)
(18.5578 10.3375 -5.76361e-18)
(18.9393 10.263 -7.90854e-19)
(19.3198 10.1521 -1.78419e-17)
(19.6957 9.99956 2.43794e-19)
(20.0561 9.79997 0)
(20.3897 9.55019 -3.41042e-18)
(20.6873 9.2523 3.54881e-18)
(20.939 8.91378 -3.72201e-18)
(21.1361 8.5442 0)
(21.2723 8.15526 7.05912e-18)
(21.3452 7.76046 -1.52369e-17)
(21.3568 7.37362 5.4239e-18)
(21.312 7.00809 -7.63314e-18)
(21.2326 6.70074 8.57703e-18)
(21.1386 6.45364 2.6025e-19)
(21.0336 6.23876 -1.01494e-19)
(20.9233 6.05149 8.75136e-18)
(20.812 5.88667 -8.81835e-18)
(20.7025 5.73908 2.82634e-19)
(20.5968 5.60405 5.77768e-19)
(20.4966 5.47804 -4.77428e-18)
(20.404 5.35888 5.40833e-18)
(20.3204 5.24551 -6.0609e-19)
(20.2458 5.13709 6.13116e-19)
(20.1766 5.03162 -2.4998e-18)
(20.1036 4.92468 1.23329e-18)
(20.011 4.80833 5.12202e-18)
(19.8775 4.67226 -1.30823e-18)
(19.678 4.50549 1.32715e-18)
(19.3895 4.2968 -2.71377e-18)
(18.9748 4.03656 1.41085e-18)
(18.4608 3.73091 1.4087e-18)
(17.6855 3.34609 0)
(15.6642 9.40721 -8.27111e-18)
(16.0485 9.50474 1.5219e-17)
(16.3997 9.57689 1.50725e-17)
(16.7337 9.6401 -3.99535e-17)
(17.0563 9.68776 1.49696e-17)
(17.3706 9.71841 -3.29355e-17)
(17.681 9.73199 2.7634e-17)
(17.9904 9.72693 -4.11067e-17)
(18.2988 9.70062 3.97619e-17)
(18.6062 9.65069 -5.5266e-19)
(18.9135 9.57539 -1.70419e-17)
(19.219 9.47116 -1.87239e-18)
(19.5163 9.33331 -1.49014e-17)
(19.7985 9.15853 1.47473e-17)
(20.0597 8.94689 -1.37661e-17)
(20.2932 8.70172 1.53209e-17)
(20.4921 8.42772 0)
(20.6506 8.13131 -1.17154e-17)
(20.7649 7.82062 1.42996e-17)
(20.834 7.5048 -1.2899e-17)
(20.8585 7.19327 -1.99896e-19)
(20.8472 6.91935 2.08034e-17)
(20.8142 6.68886 -1.06766e-19)
(20.7663 6.48028 -7.41123e-18)
(20.7084 6.2919 -1.40363e-23)
(20.6445 6.12129 0)
(20.5774 5.96552 -7.84364e-18)
(20.5092 5.82136 7.7531e-18)
(20.4409 5.6856 0)
(20.3732 5.55532 -5.04576e-19)
(20.3068 5.42825 0)
(20.2425 5.30289 4.21484e-18)
(20.1812 5.17856 -4.74911e-18)
(20.1232 5.05498 -4.31045e-18)
(20.0671 4.93155 8.67177e-18)
(20.0094 4.80741 -4.91933e-18)
(19.9429 4.68065 -5.62667e-19)
(19.8583 4.54787 1.10242e-18)
(19.7363 4.40283 -1.11936e-18)
(19.5764 4.24786 0)
(19.3172 4.05816 -1.19915e-18)
(15.9057 8.93389 0)
(16.2311 9.0113 -2.06854e-17)
(16.528 9.06821 5.44885e-19)
(16.8088 9.11757 2.86014e-17)
(17.0781 9.15439 1.8313e-17)
(17.3389 9.17804 -1.87115e-17)
(17.5949 9.18891 1.7927e-17)
(17.8486 9.1861 1.76665e-17)
(18.1005 9.16788 3.45734e-17)
(18.351 9.13263 -4.38282e-17)
(18.6011 9.0792 4.35587e-18)
(18.8504 9.005 4.15899e-18)
(19.0947 8.90643 -1.53833e-17)
(19.33 8.78069 1.13155e-17)
(19.5527 8.62719 1.6459e-17)
(19.7584 8.4473 -1.26463e-17)
(19.9423 8.24315 -1.57054e-17)
(20.0999 8.01799 1.57865e-17)
(20.2275 7.77639 0)
(20.3232 7.52392 1.76824e-18)
(20.3856 7.26659 1.76052e-18)
(20.4156 7.03219 1.39916e-17)
(20.4224 6.82771 -2.79955e-17)
(20.4135 6.63669 1.43133e-17)
(20.3926 6.45893 7.21245e-18)
(20.3626 6.29367 -1.54773e-19)
(20.3261 6.13964 -7.32699e-18)
(20.2852 5.99523 1.14652e-19)
(20.2411 5.85859 7.48984e-21)
(20.1944 5.72781 7.61895e-18)
(20.1454 5.60099 -7.69425e-18)
(20.094 5.47641 -3.92634e-18)
(20.0401 5.35275 4.18297e-18)
(19.9836 5.22912 -4.01203e-18)
(19.9245 5.10495 3.50456e-18)
(19.8629 4.98075 3.06829e-18)
(19.7983 4.85757 -1.54462e-18)
(19.7297 4.73628 5.27941e-19)
(19.654 4.61722 0)
(19.5692 4.50399 0)
(19.4675 4.39069 -2.55597e-20)
(16.0904 8.55518 -9.27668e-18)
(16.3699 8.61779 1.04143e-17)
(16.6249 8.66336 -4.51961e-18)
(16.8649 8.70226 -8.88675e-18)
(17.0939 8.73062 0)
(17.3144 8.74837 1.75865e-17)
(17.5297 8.75613 -4.32665e-17)
(17.742 8.7534 2.65458e-17)
(17.9519 8.73903 -8.74475e-18)
(18.1599 8.7119 8.40074e-18)
(18.3672 8.67134 -4.17229e-18)
(18.5736 8.61546 -3.68344e-17)
(18.7766 8.5415 6.36174e-17)
(18.9735 8.44718 -2.72993e-17)
(19.1623 8.33177 -3.61246e-18)
(19.34 8.19571 -1.45002e-17)
(19.5034 8.03988 4.46359e-17)
(19.649 7.86582 -1.95214e-17)
(19.7741 7.67602 -2.97902e-17)
(19.8765 7.47376 1.22553e-17)
(19.9544 7.26271 -3.43952e-18)
(20.0048 7.06531 0)
(20.0333 6.88838 0)
(20.0473 6.71915 -1.40301e-17)
(20.0489 6.55813 1.40408e-17)
(20.0404 6.40534 2.17466e-19)
(20.0238 6.26047 0)
(20.0007 6.12286 7.25507e-18)
(19.9724 5.99165 -7.26709e-18)
(19.9397 5.86589 5.65617e-20)
(19.9029 5.74456 -5.8769e-20)
(19.8623 5.62668 0)
(19.8176 5.51133 3.59014e-18)
(19.7685 5.39771 -3.79373e-18)
(19.7145 5.28504 4.7381e-19)
(19.6552 5.17326 -4.78436e-19)
(19.5905 5.06288 0)
(19.5202 4.9543 -4.88222e-19)
(19.4443 4.84858 -1.0055e-18)
(19.3627 4.74822 4.96843e-19)
(19.2781 4.65353 1.50083e-18)
(16.2346 8.24811 0)
(16.4777 8.29942 0)
(16.6995 8.33629 -1.68212e-17)
(16.9075 8.36714 -3.33575e-17)
(17.105 8.38893 5.09624e-17)
(17.2943 8.40191 -4.17831e-17)
(17.4784 8.40684 -1.64205e-17)
(17.659 8.40343 3.39473e-17)
(17.8369 8.39088 -3.3576e-17)
(18.0126 8.36842 3.38783e-17)
(18.1871 8.33564 0)
(18.3605 8.29118 0)
(18.5312 8.23293 3.17151e-17)
(18.6974 8.15913 -6.18781e-17)
(18.8578 8.06909 6.01859e-17)
(19.0105 7.96289 -2.95832e-17)
(19.1532 7.84077 -3.67788e-18)
(19.2835 7.70342 3.37053e-17)
(19.3992 7.55211 -2.29308e-17)
(19.4984 7.38873 0)
(19.5794 7.21542 1.68218e-18)
(19.6374 7.05012 0)
(19.6762 6.89889 -1.46718e-17)
(19.702 6.75172 2.84921e-17)
(19.7163 6.60934 -1.38227e-17)
(19.7205 6.47219 0)
(19.7161 6.34043 0)
(19.7044 6.21394 6.60878e-18)
(19.6865 6.09245 -7.05115e-18)
(19.663 5.97556 -7.14398e-18)
(19.6346 5.86285 7.19399e-18)
(19.6015 5.75389 7.23899e-18)
(19.564 5.6483 -7.26033e-18)
(19.5219 5.54571 0)
(19.4751 5.44567 -5.81174e-20)
(19.4233 5.34815 0)
(19.3664 5.25341 -1.47315e-20)
(19.304 5.16133 -5.93202e-20)
(19.2362 5.07229 2.0248e-18)
(19.1629 4.98735 -2.86321e-18)
(19.0857 4.90658 9.44513e-19)
(16.3494 7.99427 0)
(16.5629 8.03674 -1.96739e-18)
(16.7577 8.06677 0)
(16.9398 8.09131 1.57711e-17)
(17.1121 8.10791 -1.58462e-17)
(17.2766 8.11704 0)
(17.436 8.11948 1.5984e-17)
(17.5917 8.1151 1.58503e-17)
(17.7445 8.10333 -4.10569e-17)
(17.8948 8.08364 0)
(18.0436 8.05575 3.25049e-17)
(18.1911 8.01869 -6.54409e-17)
(18.3361 7.97086 3.18973e-17)
(18.4775 7.91089 0)
(18.6144 7.83822 -2.97525e-17)
(18.7455 7.75278 3.31109e-17)
(18.8692 7.65456 3.2132e-17)
(18.9839 7.54381 -3.54819e-17)
(19.0877 7.42119 -3.42408e-18)
(19.1794 7.28774 0)
(19.257 7.14469 0)
(19.3158 7.00635 -1.73983e-18)
(19.3581 6.8779 8.32754e-19)
(19.3891 6.75132 1.36312e-17)
(19.4097 6.6274 9.02115e-19)
(19.421 6.50671 -1.35985e-17)
(19.424 6.38963 1.36888e-17)
(19.4197 6.27634 -1.32481e-17)
(19.4088 6.16689 -7.76556e-18)
(19.392 6.0612 6.88456e-18)
(19.3699 5.95918 -6.95516e-18)
(19.3428 5.8607 6.94304e-18)
(19.3111 5.76567 0)
(19.2749 5.67398 -7.50103e-18)
(19.2344 5.58542 7.09514e-18)
(19.1897 5.5001 0)
(19.1407 5.4183 1.38023e-20)
(19.0876 5.33988 1.85666e-18)
(19.0302 5.26498 -1.90833e-18)
(18.9688 5.19411 8.53487e-19)
(18.9038 5.12708 -8.92245e-19)
(16.4424 7.78116 0)
(16.6313 7.81654 1.81254e-18)
(16.8036 7.8411 -1.47333e-17)
(16.9644 7.8606 2.94442e-17)
(17.116 7.87305 -6.00029e-17)
(17.2603 7.87906 3.05324e-17)
(17.3996 7.87939 0)
(17.5352 7.87402 1.53517e-17)
(17.6678 7.86253 9.31627e-17)
(17.7979 7.84455 -6.31319e-17)
(17.9261 7.8199 0)
(18.0528 7.78787 -7.99876e-18)
(18.177 7.74722 2.31473e-17)
(18.2982 7.69693 -2.89217e-19)
(18.4155 7.63653 -2.95758e-17)
(18.5283 7.56592 3.2449e-17)
(18.6353 7.485 -2.84241e-17)
(18.7352 7.39385 2.77339e-17)
(18.8269 7.29278 -2.76792e-17)
(18.9091 7.18239 -2.73205e-17)
(18.9804 7.06337 2.3627e-17)
(19.0362 6.94724 -1.18074e-17)
(19.0781 6.83828 1.50343e-17)
(19.1103 6.73002 -1.41432e-17)
(19.1335 6.62317 -2.5278e-18)
(19.1483 6.51832 1.32871e-17)
(19.1554 6.41593 0)
(19.1557 6.3163 0)
(19.1497 6.21963 -1.25628e-17)
(19.1379 6.12603 1.33562e-17)
(19.1209 6.03556 0)
(19.0991 5.94826 8.49543e-19)
(19.0727 5.86419 8.51665e-19)
(19.0421 5.78334 7.20805e-18)
(19.0076 5.70562 -7.19703e-18)
(18.9693 5.63118 -3.41682e-18)
(18.9274 5.56029 3.40676e-18)
(18.8822 5.49282 -1.28806e-18)
(18.8339 5.42888 3.43922e-18)
(18.7826 5.3688 -1.66577e-18)
(18.7287 5.31254 -2.13299e-19)
(16.5187 7.59992 1.31993e-17)
(16.6868 7.62954 1.64918e-17)
(16.8401 7.64965 -1.76403e-19)
(16.9829 7.66508 0)
(17.1173 7.6742 0)
(17.2448 7.67767 0)
(17.3675 7.67624 0)
(17.4866 7.66995 -5.85672e-17)
(17.6026 7.6585 1.04304e-16)
(17.716 7.64164 -6.04117e-17)
(17.8275 7.61923 6.04034e-17)
(17.9371 7.59075 -3.83868e-17)
(18.0445 7.55527 6.81245e-17)
(18.1489 7.51199 -8.12202e-17)
(18.25 7.46056 2.88734e-17)
(18.3472 7.40089 2.11244e-17)
(18.4396 7.33286 -2.77838e-17)
(18.5263 7.25646 3.367e-18)
(18.6064 7.17185 -3.41424e-18)
(18.6789 7.0794 3.3518e-17)
(18.7427 6.97948 2.9623e-17)
(18.7937 6.88147 -4.93332e-17)
(18.833 6.78888 -1.6054e-18)
(18.8641 6.69642 0)
(18.8874 6.60472 1.59789e-18)
(18.9034 6.51431 -1.63593e-18)
(18.9126 6.42564 -1.13225e-17)
(18.9155 6.33906 1.2922e-17)
(18.9128 6.25482 -1.29688e-17)
(18.9048 6.1731 1.29325e-17)
(18.8919 6.09406 1.29972e-17)
(18.8745 6.0178 -1.37608e-17)
(18.8529 5.94442 -8.04343e-19)
(18.8276 5.874 6.52895e-18)
(18.7987 5.80648 -5.28015e-18)
(18.7664 5.74201 0)
(18.7312 5.68079 0)
(18.6932 5.62273 -4.06405e-19)
(18.6527 5.56788 8.25369e-19)
(18.6099 5.51644 8.26153e-19)
(18.5651 5.46856 2.00098e-19)
(16.5819 7.44413 0)
(16.7322 7.469 -3.08955e-18)
(16.8693 7.48545 2.52117e-17)
(16.9969 7.49756 -2.59368e-17)
(17.1165 7.50396 -5.24805e-17)
(17.2299 7.50537 5.40962e-17)
(17.3387 7.5025 2.70883e-17)
(17.4439 7.49541 -5.60314e-17)
(17.5461 7.48392 -5.63762e-17)
(17.6456 7.46782 5.75626e-17)
(17.7431 7.44706 0)
(17.8387 7.42122 -2.92005e-17)
(17.932 7.38962 5.85059e-17)
(18.0225 7.35162 -6.45832e-17)
(18.11 7.30697 0)
(18.194 7.25561 -6.89623e-18)
(18.2738 7.19743 6.78616e-18)
(18.3489 7.13241 0)
(18.4184 7.06063 3.24605e-18)
(18.4817 6.98233 -6.43619e-18)
(18.5379 6.89773 2.89717e-17)
(18.5833 6.81452 -2.87497e-17)
(18.619 6.73558 3.19637e-18)
(18.6477 6.65656 2.36459e-17)
(18.6698 6.57797 -2.35635e-17)
(18.6855 6.50029 1.55073e-18)
(18.6953 6.42393 -1.40964e-17)
(18.6996 6.34923 1.25081e-17)
(18.6989 6.27644 1.57792e-18)
(18.6935 6.20577 0)
(18.6837 6.13738 0)
(18.67 6.07141 0)
(18.6526 6.00799 -6.26796e-18)
(18.6318 5.94719 6.24529e-18)
(18.608 5.88898 -7.75744e-19)
(18.5813 5.8335 -6.27457e-18)
(18.552 5.7809 7.0371e-18)
(18.5205 5.73109 0)
(18.4868 5.68409 9.33042e-21)
(18.4514 5.64003 -1.56302e-18)
(18.4142 5.59911 7.6308e-19)
(16.6347 7.30896 1.1205e-17)
(16.7696 7.32989 0)
(16.8927 7.3433 -5.83853e-17)
(17.0071 7.35269 4.82605e-17)
(17.1142 7.35687 0)
(17.2154 7.3566 5.03183e-17)
(17.3123 7.35255 -2.25319e-19)
(17.4057 7.34482 5.2513e-17)
(17.4962 7.33326 -8.07737e-17)
(17.5841 7.31776 -5.42712e-17)
(17.6698 7.29827 5.53916e-17)
(17.7536 7.27449 1.38435e-17)
(17.835 7.2459 0)
(17.9138 7.21203 0)
(17.9898 7.17268 -1.35761e-17)
(18.0626 7.12782 5.93138e-17)
(18.1317 7.07738 -1.17093e-16)
(18.1966 7.02134 5.14831e-17)
(18.2567 6.95976 6.4063e-18)
(18.3116 6.89282 6.35635e-18)
(18.3605 6.82063 -3.08412e-18)
(18.4004 6.74958 4.63464e-17)
(18.4321 6.68204 -7.96331e-17)
(18.458 6.61437 1.50577e-18)
(18.478 6.54701 2.28074e-17)
(18.4927 6.48037 0)
(18.5023 6.4148 1.21097e-17)