/*--------------------------------*- C++ -*----------------------------------*\
| =========                 |                                                 |
| \\      /  F ield         | OpenFOAM: The Open Source CFD Toolbox           |
|  \\    /   O peration     | Version:  5.x                                   |
|   \\  /    A nd           | Web:      www.OpenFOAM.org                      |
|    \\/     M anipulation  |                                                 |
\*---------------------------------------------------------------------------*/
FoamFile
{
    version     2.0;
    format      ascii;
    class       volVectorField;
    location    "2200";
    object      U;
}
// * * * * * * * * * * * * * * * * * * * * * * * * * * * * * * * * * * * * * //

dimensions      [0 1 -1 0 0 0 0];

internalField   nonuniform List<vector> 
11040
(
(1.69251 2.17318 0)
(1.84351 7.87774 -1.06742e-19)
(4.31677 12.8167 1.1032e-17)
(7.65349 15.6205 1.43641e-17)
(11.1753 16.8331 3.83163e-17)
(14.4233 16.8692 -2.11928e-17)
(17.203 16.0945 -2.21571e-17)
(19.478 14.8118 2.35325e-17)
(21.1771 13.1546 5.6352e-17)
(22.2195 11.1904 1.83751e-18)
(22.345 8.80031 3.13474e-17)
(21.8409 6.53737 -1.97725e-18)
(21.3675 4.92599 3.26469e-17)
(21.2339 3.91359 3.44818e-17)
(21.1248 3.0562 3.04388e-17)
(20.8562 2.241 2.02057e-17)
(20.4451 1.49593 -1.81443e-17)
(19.958 0.831965 -1.96826e-18)
(19.4261 0.241015 1.9953e-18)
(18.8613 -0.283541 1.54881e-17)
(18.2635 -0.743896 1.51791e-17)
(17.7267 -1.11103 1.5841e-17)
(17.2402 -1.38696 3.05169e-17)
(16.7589 -1.619 1.96766e-18)
(16.2824 -1.81542 -2.55133e-20)
(15.8113 -1.98075 -9.81263e-19)
(15.3447 -2.11908 6.1022e-17)
(14.88 -2.23375 -9.32544e-19)
(14.4144 -2.32736 6.09154e-17)
(13.9443 -2.40192 -5.85296e-17)
(13.4651 -2.45887 -9.34303e-19)
(12.9707 -2.49899 -4.49786e-19)
(12.4531 -2.52215 4.60572e-19)
(11.9027 -2.52717 0)
(11.3027 -2.51161 -1.14719e-16)
(10.6355 -2.47109 0)
(9.87033 -2.39622 0)
(8.98155 -2.27806 2.2105e-19)
(7.82719 -2.0773 -5.93376e-21)
(6.54641 -1.78788 1.2635e-16)
(3.83129 -1.41512 2.95509e-16)
(2.82492 2.94208 0)
(3.32884 7.37006 0)
(6.1594 11.1292 -6.64168e-18)
(9.62258 13.3103 8.83794e-18)
(13.1595 14.2422 -2.32484e-17)
(16.3942 14.2281 2.82833e-17)
(19.1519 13.5402 1.4789e-17)
(21.3804 12.3939 2.12304e-18)
(23.1403 10.9888 -1.00718e-18)
(24.5176 9.48845 2.22831e-17)
(25.4341 7.77575 -2.49726e-18)
(25.5277 6.18089 0)
(25.0725 4.98289 0)
(24.5628 4.07279 -2.08872e-17)
(24.1699 3.14803 -2.35914e-17)
(23.7305 2.2675 -1.84092e-17)
(23.2262 1.48463 0)
(22.6802 0.788654 1.27516e-18)
(22.0966 0.165334 -3.80978e-18)
(21.4741 -0.389006 -2.49465e-18)
(20.8121 -0.876185 -1.09396e-17)
(20.1977 -1.26224 -1.02745e-17)
(19.6532 -1.55507 -1.25717e-18)
(19.1199 -1.80442 2.14862e-17)
(18.5957 -2.01754 -1.87532e-17)
(18.0796 -2.19789 -1.26789e-18)
(17.5711 -2.34997 -3.91195e-17)
(17.0684 -2.47721 5.96278e-19)
(16.5691 -2.58232 -3.88066e-17)
(16.0703 -2.66747 3.77016e-17)
(15.5682 -2.73427 3.77564e-17)
(15.0579 -2.78366 -3.78008e-17)
(14.533 -2.81562 1.78744e-20)
(13.9856 -2.82904 8.37458e-19)
(13.4029 -2.82203 3.45985e-17)
(12.7712 -2.79004 0)
(12.0648 -2.72353 2.57131e-19)
(11.2714 -2.61489 -6.60422e-17)
(10.2552 -2.42193 -6.45131e-17)
(9.20395 -2.15928 -6.3085e-17)
(6.76033 -1.59968 -2.06038e-16)
(4.45695 3.38699 0)
(5.17741 6.9202 0)
(7.26913 10.0573 1.98932e-18)
(9.92999 12.1605 -5.84639e-18)
(12.792 13.3507 6.81307e-18)
(15.5925 13.7303 -1.00498e-17)
(18.1474 13.4367 -9.59759e-18)
(20.3528 12.6246 0)
(22.1558 11.4369 -1.8162e-17)
(23.5742 9.98518 -1.15672e-17)
(24.5944 8.27371 0)
(25.036 6.68271 0)
(25.0323 5.44244 -1.56745e-17)
(24.8997 4.45627 -1.58499e-17)
(24.7525 3.4796 -1.98853e-18)
(24.4981 2.56091 2.02912e-18)
(24.1315 1.73601 0)
(23.6931 0.993955 0)
(23.1996 0.323754 9.90492e-19)
(22.6534 -0.277013 -1.91263e-18)
(22.0553 -0.809266 1.92402e-18)
(21.4867 -1.2323 -6.02733e-18)
(20.9714 -1.55784 -5.04444e-20)
(20.4589 -1.8373 1.27492e-17)
(19.9492 -2.07728 1.00835e-18)
(19.4425 -2.28172 9.26487e-19)
(18.9388 -2.4553 8.24275e-21)
(18.4372 -2.60169 -9.4591e-19)
(17.936 -2.72376 0)
(17.4328 -2.82381 0)
(16.9242 -2.90352 -5.6955e-17)
(16.4058 -2.96389 5.55356e-17)
(15.8718 -3.00493 -2.70352e-17)
(15.3153 -3.02555 0)
(14.7241 -3.02359 -2.63241e-17)
(14.0872 -2.9943 -2.57377e-17)
(13.3824 -2.92844 0)
(12.6034 -2.81539 -2.5653e-19)
(11.6327 -2.62092 1.88737e-19)
(10.6823 -2.32591 0)
(8.65134 -1.82118 9.13151e-17)
(6.11496 3.68508 -1.04266e-19)
(6.86006 6.5232 1.24201e-19)
(8.45393 9.0938 1.51786e-18)
(10.5797 10.9641 0)
(12.9822 12.1541 -1.04655e-17)
(15.4456 12.6667 0)
(17.792 12.5648 2.18341e-17)
(19.8914 11.9588 -2.45869e-19)
(21.6583 10.9686 2.50154e-18)
(23.0608 9.71651 1.91178e-17)
(24.0656 8.22474 2.81389e-18)
(24.5786 6.74037 8.74392e-18)
(24.7043 5.50757 2.75201e-17)
(24.6958 4.52103 1.24874e-17)
(24.6655 3.58681 0)
(24.5422 2.69472 -3.10983e-18)
(24.3019 1.87505 6.03356e-20)
(23.9764 1.12841 -3.0648e-18)
(23.5869 0.447772 -1.52898e-18)
(23.1391 -0.168479 1.54848e-18)
(22.6346 -0.719736 5.99718e-18)
(22.1443 -1.16338 6.38988e-18)
(21.6908 -1.50847 0)
(21.2314 -1.80681 -2.66481e-17)
(20.7673 -2.06488 1.40007e-17)
(20.2998 -2.2868 -1.2285e-17)
(19.8301 -2.47691 2.42443e-17)
(19.3581 -2.63878 0)
(18.8826 -2.7752 0)
(18.4018 -2.88839 0)
(17.9129 -2.98 2.26764e-17)
(17.4123 -3.05099 -2.29288e-17)
(16.895 -3.10135 6.97075e-19)
(16.3549 -3.12987 2.19703e-17)
(15.7811 -3.1342 2.01185e-17)
(15.164 -3.10928 2.05599e-17)
(14.4841 -3.0462 3.93974e-17)
(13.7378 -2.93141 3.74944e-17)
(12.8225 -2.73982 1.4664e-19)
(11.9366 -2.41832 3.44505e-17)
(10.222 -1.96362 -3.39893e-17)
(7.67296 3.85475 0)
(8.39803 6.13159 -5.41609e-19)
(9.64583 8.20412 -1.21226e-18)
(11.3102 9.82848 2.09793e-19)
(13.2642 10.9827 7.40515e-18)
(15.3541 11.61 -9.74545e-18)
(17.4353 11.7106 -8.31051e-19)
(19.3771 11.3389 -1.35177e-17)
(21.0733 10.58 0)
(22.4711 9.53205 -1.79418e-17)
(23.53 8.2271 0)
(24.1558 6.85325 -4.80563e-18)
(24.3971 5.64396 -1.45676e-17)
(24.4587 4.64705 0)
(24.4723 3.72298 9.79006e-18)
(24.408 2.83771 0)
(24.2374 2.01746 0)
(23.9814 1.26819 2.53196e-18)
(23.6605 0.582845 2.49381e-18)
(23.2818 -0.041314 0)
(22.8475 -0.603181 -4.83054e-18)
(22.4204 -1.05888 0)
(22.0218 -1.41601 0)
(21.6156 -1.72683 1.01689e-17)
(21.2028 -1.99766 0)
(20.7843 -2.23259 -9.98416e-18)
(20.3607 -2.43565 -1.97504e-17)
(19.9318 -2.61022 0)
(19.4966 -2.75891 0)
(19.0536 -2.88378 0)
(18.6008 -2.9863 -1.9696e-17)
(18.1353 -3.06728 -1.64753e-17)
(17.6528 -3.12662 1.72478e-17)
(17.1479 -3.16297 5.34026e-19)
(16.6113 -3.1738 -5.38362e-19)
(16.0351 -3.15372 0)
(15.4029 -3.09414 -3.18936e-17)
(14.7139 -2.97905 3.07197e-17)
(13.8809 -2.79085 -2.94996e-17)
(13.0809 -2.45612 -2.73911e-17)
(11.6483 -2.02987 -5.38358e-20)
(9.11249 3.91568 2.01449e-19)
(9.78744 5.73672 2.82832e-19)
(10.7824 7.39432 -1.74417e-18)
(12.0784 8.77069 1.1512e-18)
(13.6403 9.83708 -1.7454e-18)
(15.3714 10.5145 9.75111e-18)
(17.1679 10.7664 -1.20066e-17)
(18.9164 10.6016 1.07945e-17)
(20.5059 10.0675 6.07223e-18)
(21.8673 9.23861 -3.27833e-18)
(22.9576 8.15294 0)
(23.6896 6.93796 0)
(24.0594 5.78813 3.84007e-18)
(24.2077 4.78984 -3.95181e-18)
(24.2657 3.87055 -1.59023e-17)
(24.2429 2.9935 3.99015e-18)
(24.1193 2.17504 -8.04875e-18)
(23.9088 1.42387 5.96589e-20)
(23.6314 0.734803 -3.95453e-18)
(23.2965 0.104657 7.92538e-18)
(22.9071 -0.465016 -9.7868e-18)
(22.5206 -0.929334 4.15206e-18)
(22.158 -1.29493 -2.0948e-18)
(21.7877 -1.61433 -2.0383e-18)
(21.4111 -1.89377 1.02706e-17)
(21.0294 -2.13754 2.74996e-20)
(20.643 -2.34955 1.81805e-17)
(20.2518 -2.53305 1.39436e-17)
(19.8547 -2.69055 0)
(19.4504 -2.824 0)
(19.0366 -2.93475 1.43822e-17)
(18.6107 -3.02352 3.10075e-17)
(18.1689 -3.09007 9.05572e-19)
(17.7069 -3.13291 -1.44041e-17)
(17.2167 -3.14929 -1.48757e-17)
(16.6927 -3.13361 1.40041e-17)
(16.1214 -3.07779 -4.1884e-19)
(15.5052 -2.96437 -5.0401e-17)
(14.7737 -2.7818 4.8228e-17)
(14.0808 -2.44818 -8.61388e-20)
(12.928 -2.0499 -2.18118e-17)
(10.4218 3.88753 0)
(11.032 5.34048 8.72702e-19)
(11.8379 6.66073 3.04011e-18)
(12.8503 7.80261 1.20799e-18)
(14.083 8.74789 5.17842e-18)
(15.4854 9.4208 6.05801e-18)
(16.9925 9.77047 -1.08807e-17)
(18.5189 9.77616 3.91617e-18)
(19.9648 9.45138 0)
(21.2563 8.84153 5.47087e-18)
(22.3475 7.97949 -1.12421e-17)
(23.1593 6.94861 1.1714e-17)
(23.6518 5.89728 -5.64178e-20)
(23.9033 4.92751 0)
(24.0245 4.02422 3.30775e-18)
(24.0508 3.1626 2.03857e-20)
(23.9753 2.35056 3.29878e-18)
(23.8081 1.599 3.31174e-18)
(23.5684 0.906978 -1.62755e-18)
(23.2683 0.271914 -2.81039e-18)
(22.9126 -0.304321 3.30713e-18)
(22.5553 -0.775957 3.43555e-18)
(22.2173 -1.14887 0)
(21.8707 -1.47552 -3.33716e-18)
(21.5176 -1.76194 -6.65398e-18)
(21.1594 -2.0125 8.41615e-18)
(20.797 -2.23095 -4.92926e-18)
(20.4306 -2.42049 -1.31242e-17)
(20.0596 -2.58369 1.59846e-18)
(19.683 -2.72251 -4.28608e-20)
(19.2989 -2.83834 9.43875e-18)
(18.905 -2.93177 3.0813e-18)
(18.4983 -3.00248 1.06089e-17)
(18.0751 -3.04891 0)
(17.6288 -3.06831 1.15755e-17)
(17.1555 -3.05506 -1.19304e-17)
(16.6454 -3.00171 1.12625e-17)
(16.1033 -2.89058 4.17622e-17)
(15.477 -2.71469 -1.95623e-17)
(14.8932 -2.39483 -7.16137e-20)
(14.0094 -2.02605 3.58991e-17)
(11.5956 3.79054 -1.13109e-18)
(12.1371 4.94768 3.48201e-19)
(12.7984 5.99662 1.21605e-19)
(13.5967 6.92808 -3.9203e-18)
(14.5647 7.73722 -2.33127e-18)
(15.6818 8.36386 -7.79783e-18)
(16.9141 8.75855 6.04381e-18)
(18.2061 8.88728 1.02232e-17)
(19.4795 8.73968 -7.10134e-18)
(20.6663 8.33413 0)
(21.7215 7.69197 -4.65472e-18)
(22.5749 6.86151 -1.83854e-19)
(23.1668 5.94551 -1.91992e-19)
(23.5239 5.04059 5.04669e-18)
(23.724 4.17195 5.22737e-18)
(23.8115 3.33627 -5.30541e-18)
(23.7925 2.53923 0)
(23.6757 1.79284 0)
(23.4789 1.1009 6.6922e-18)
(23.2159 0.4628 -5.749e-18)
(22.8936 -0.118941 2.60072e-18)
(22.5635 -0.597267 -2.86424e-18)
(22.2469 -0.977078 -2.77111e-18)
(21.9198 -1.31045 0)
(21.585 -1.60318 -2.72762e-18)
(21.2444 -1.8597 2.77319e-18)
(20.8991 -2.08369 5.44701e-18)
(20.5498 -2.27828 0)
(20.1963 -2.44599 0)
(19.838 -2.5887 -1.29503e-18)
(19.4736 -2.70768 -1.03217e-17)
(19.1016 -2.80348 -8.89586e-18)
(18.7196 -2.87581 -1.87596e-17)
(18.325 -2.92324 -1.24267e-18)
(17.9128 -2.94312 0)
(17.4808 -2.92999 5.70859e-19)
(17.0224 -2.87724 -9.5724e-18)
(16.5438 -2.76842 1.09932e-19)
(16.011 -2.5993 -1.69333e-17)
(15.5194 -2.30298 -1.53995e-17)
(14.8629 -1.96167 -1.49242e-17)
(12.6343 3.64269 6.4393e-19)
(13.1094 4.56318 1.07369e-20)
(13.6579 5.39513 -1.52902e-18)
(14.2951 6.14528 3.45689e-18)
(15.0561 6.81872 0)
(15.9367 7.37312 4.43397e-18)
(16.924 7.76865 -9.28417e-18)
(17.9872 7.97064 -5.9457e-18)
(19.0723 7.95667 5.665e-18)
(20.1253 7.72537 6.79328e-18)
(21.107 7.28502 4.36338e-19)
(21.9584 6.65707 -1.48824e-17)
(22.6136 5.9031 0)
(23.0628 5.09992 4.10752e-18)
(23.3476 4.29258 -8.43766e-18)
(23.5062 3.4995 -4.2506e-18)
(23.5524 2.73066 -4.36095e-18)
(23.4954 1.99923 4.42546e-18)
(23.3503 1.31364 -2.18898e-18)
(23.1319 0.676599 0)
(22.8488 0.0919598 5.44276e-18)
(22.5495 -0.391543 -9.2139e-18)
(22.2566 -0.777534 6.81567e-18)
(21.9502 -1.11726 -6.98923e-20)
(21.634 -1.41611 -4.47983e-18)
(21.3103 -1.6784 4.55068e-18)
(20.9809 -1.90769 0)
(20.6466 -2.10697 -1.09898e-17)
(20.308 -2.27867 -4.34516e-18)
(19.9646 -2.42462 -2.18145e-18)
(19.6158 -2.54604 8.47736e-18)
(19.2604 -2.64348 2.05925e-18)
(18.897 -2.71663 -2.07056e-18)
(18.5238 -2.76411 9.89501e-19)
(18.1375 -2.78337 5.89215e-18)
(17.7372 -2.76946 9.72656e-19)
(17.3198 -2.71671 0)
(16.8913 -2.61126 -1.47365e-17)
(16.4335 -2.44974 1.41684e-17)
(16.012 -2.18367 1.30214e-17)
(15.5193 -1.87019 0)
(13.5429 3.45975 0)
(13.957 4.19157 0)
(14.4156 4.85032 0)
(14.9306 5.44849 -9.2562e-18)
(15.5324 5.99674 6.60451e-18)
(16.2239 6.46785 -3.44756e-18)
(17.004 6.83351 -4.01143e-18)
(17.859 7.06518 -3.49494e-19)
(18.756 7.13807 4.59054e-18)
(19.6577 7.04027 5.41635e-18)
(20.5347 6.76984 -5.5751e-18)
(21.341 6.32925 6.40421e-18)
(22.0153 5.74741 -2.61022e-19)
(22.5278 5.07533 6.63611e-18)
(22.8891 4.35931 -1.36848e-17)
(23.1215 3.63127 1.05811e-17)
(23.2383 2.90845 7.13224e-18)
(23.2484 2.2064 -7.22359e-18)
(23.1643 1.53759 3.62738e-18)
(22.9998 0.908902 0)
(22.7642 0.326407 8.04489e-18)
(22.5027 -0.159096 -5.68073e-18)
(22.2386 -0.549449 -1.84525e-18)
(21.9574 -0.89441 3.70394e-18)
(21.6634 -1.19873 -7.43561e-18)
(21.3595 -1.46641 0)
(21.048 -1.70077 0)
(20.7305 -1.90461 3.68163e-18)
(20.4077 -2.08022 1.79143e-17)
(20.0799 -2.22933 7.03942e-18)
(19.7468 -2.35312 -6.9657e-18)
(19.4078 -2.45208 -1.68766e-18)
(19.0622 -2.52596 8.42758e-18)
(18.7088 -2.57353 1.62303e-18)
(18.3457 -2.59258 -9.65151e-18)
(17.973 -2.57884 1.59547e-18)
(17.5905 -2.52752 6.13242e-18)
(17.2033 -2.42801 -7.27418e-19)
(16.8045 -2.27701 -1.07793e-17)
(16.4371 -2.04476 0)
(16.0496 -1.76429 0)
(14.3294 3.25519 0)
(14.6887 3.8368 0)
(15.0745 4.35741 -1.9616e-20)
(15.4954 4.83061 5.36721e-18)
(15.9752 5.26936 0)
(16.5192 5.65738 6.21727e-18)
(17.1312 5.97626 3.36023e-18)
(17.8077 6.20547 0)
(18.531 6.32353 -8.06358e-18)
(19.2786 6.31558 3.63472e-18)
(20.0316 6.17432 -5.21753e-19)
(20.7579 5.89104 4.83083e-18)
(21.4072 5.47241 -5.43246e-18)
(21.9439 4.94523 0)
(22.3585 4.34515 -1.10311e-17)
(22.6553 3.70607 1.1362e-17)
(22.8407 3.05032 0)
(22.9206 2.39606 0)
(22.9037 1.75897 2.94473e-18)
(22.8012 1.15003 -1.19105e-17)
(22.622 0.578129 5.87559e-18)
(22.4059 0.0963482 0)
(22.1774 -0.294693 -6.07107e-18)
(21.9274 -0.642301 1.10833e-19)
(21.661 -0.950336 6.14992e-18)
(21.3818 -1.22222 -2.98953e-18)
(21.0926 -1.46088 0)
(20.7956 -1.66882 0)
(20.4921 -1.8481 2.84406e-18)
(20.1828 -2.00034 -1.15424e-17)
(19.8681 -2.12663 5.68023e-18)
(19.5479 -2.22744 -5.65143e-18)
(19.2222 -2.30259 -2.78231e-18)
(18.8905 -2.3511 0)
(18.552 -2.37116 -3.97512e-18)
(18.2074 -2.3594 -3.78359e-20)
(17.8585 -2.31208 -1.13132e-17)
(17.5095 -2.22201 0)
(17.1598 -2.08606 9.38537e-18)
(16.8378 -1.88871 -9.2102e-18)
(16.5177 -1.64783 0)
(15.0033 3.04021 0)
(15.314 3.50219 2.57312e-18)
(15.64 3.91261 -2.28406e-18)
(15.9871 4.28442 0)
(16.3732 4.63084 -5.2907e-18)
(16.8035 4.94277 -2.28549e-19)
(17.2832 5.20902 2.30124e-17)
(17.8136 5.41617 -3.03073e-17)
(18.3867 5.54803 1.90334e-17)
(18.9903 5.59129 1.75207e-17)
(19.6147 5.53751 -1.45341e-17)
(20.2399 5.37365 -4.04045e-18)
(20.8291 5.09348 8.27695e-18)
(21.35 4.70599 -4.32291e-18)
(21.7846 4.23276 1.39413e-17)
(22.1239 3.70081 -9.23709e-18)
(22.3652 3.13211 -4.65284e-18)
(22.509 2.54553 -2.36279e-18)
(22.559 1.95827 -8.46414e-18)
(22.5225 1.38427 1.83206e-17)
(22.406 0.835156 -9.69676e-18)
(22.2422 0.365871 -3.08517e-19)
(22.0557 -0.0197817 -1.25394e-18)
(21.8434 -0.365416 0)
(21.6107 -0.673719 7.367e-18)
(21.3618 -0.947273 -2.47508e-18)
(21.1003 -1.1884 -7.22032e-18)
(20.8288 -1.39915 4.85731e-18)
(20.5493 -1.5813 -9.47977e-18)
(20.2629 -1.73625 4.7463e-18)
(19.9707 -1.86497 0)
(19.6733 -1.96794 6.86183e-18)
(19.371 -2.04509 2.26727e-18)
(19.0645 -2.09573 -2.17069e-18)
(18.7533 -2.11858 1.29163e-17)
(18.4393 -2.11121 2.08588e-18)
(18.125 -2.07102 4.09962e-18)
(17.814 -1.99373 -4.0257e-18)
(17.5082 -1.87714 -3.92348e-18)
(17.2272 -1.71445 7.26594e-18)
(16.9552 -1.51682 2.31937e-19)
(15.5751 2.82378 0)
(15.8431 3.19034 -1.33055e-19)
(16.1193 3.51285 -2.17187e-18)
(16.4074 3.80312 -9.10202e-18)
(16.7208 4.07362 4.29069e-18)
(17.0637 4.3196 -5.09099e-18)
(17.441 4.53464 -5.34935e-18)
(17.8558 4.71057 2.04932e-17)
(18.3051 4.83623 -5.52235e-18)
(18.7835 4.9015 -1.15536e-17)
(19.2871 4.89924 1.84996e-17)
(19.8051 4.81656 -1.26688e-17)
(20.3131 4.64208 -6.67557e-18)
(20.7866 4.37414 3.67635e-18)
(21.207 4.0223 0)
(21.5596 3.6036 0)
(21.8347 3.13486 1.95717e-17)
(22.027 2.63259 2.14656e-18)
(22.135 2.11308 -1.58452e-17)
(22.1611 1.59119 1.01875e-18)
(22.1085 1.08004 -8.90911e-18)
(22.0006 0.634964 1.64803e-17)
(21.8607 0.263347 -8.1073e-18)
(21.6911 -0.0733699 0)
(21.4976 -0.376447 9.90705e-19)
(21.2846 -0.647384 -7.88549e-18)
(21.0562 -0.887677 9.94447e-18)
(20.8155 -1.09878 -7.73999e-18)
(20.5649 -1.28203 5.88138e-18)
(20.3065 -1.43854 0)
(20.0415 -1.56914 -3.7497e-18)
(19.7711 -1.67428 -7.38378e-18)
(19.4966 -1.75402 3.68772e-18)
(19.2188 -1.80799 -3.54121e-18)
(18.9384 -1.83547 -1.69069e-18)
(18.6574 -1.83496 3.45596e-18)
(18.3789 -1.80494 -5.08366e-18)
(18.1058 -1.74334 3.27016e-18)
(17.8408 -1.64919 2.39236e-18)
(17.5974 -1.52017 4.04455e-19)
(17.3646 -1.36525 -5.75222e-18)
(16.0554 2.61272 2.06211e-18)
(16.2859 2.90302 8.37307e-18)
(16.5203 3.15538 -7.9343e-18)
(16.7607 3.3805 0)
(17.0169 3.58959 6.95033e-20)
(17.2922 3.78048 0)
(17.5908 3.94963 2.60807e-17)
(17.9158 4.09233 -2.19549e-17)
(18.2667 4.20136 -1.88212e-17)
(18.6415 4.26973 2.38673e-17)
(19.0398 4.29233 -1.01624e-17)
(19.4565 4.25859 5.22862e-18)
(19.8768 4.15675 5.69038e-18)
(20.2843 3.98061 1.17055e-17)
(20.664 3.73202 3.16355e-19)
(21.0012 3.41908 -1.22595e-17)
(21.2837 3.05201 9.67068e-18)
(21.5023 2.64259 -1.2758e-17)
(21.6515 2.20396 0)
(21.7291 1.74947 -1.30746e-17)
(21.7342 1.29194 8.75723e-19)
(21.6805 0.884424 1.28208e-17)
(21.5883 0.537495 -1.00752e-19)
(21.464 0.21874 0)
(21.3131 -0.0715783 -8.21112e-19)
(21.1401 -0.333718 -7.97723e-19)
(20.9491 -0.568194 0)
(20.7438 -0.775714 0)
(20.5269 -0.957074 2.18146e-20)
(20.3009 -1.11302 0)
(20.0675 -1.24415 4.5907e-18)
(19.8286 -1.35086 0)
(19.5856 -1.4333 -5.89259e-18)
(19.3401 -1.49141 5.85765e-18)
(19.0932 -1.52499 0)
(18.8471 -1.5333 -2.80344e-18)
(18.6048 -1.51575 2.74435e-18)
(18.369 -1.47177 -1.37293e-18)
(18.1419 -1.40143 -3.98797e-18)
(17.9329 -1.30445 3.20183e-19)
(17.7343 -1.18877 7.18688e-18)
(16.4549 2.41206 -5.58288e-18)
(16.6527 2.64124 -2.2337e-19)
(16.8516 2.8376 3.65754e-18)
(17.0528 3.01089 7.24475e-18)
(17.2635 3.1709 1.83713e-17)
(17.4862 3.31688 -2.19123e-17)
(17.724 3.44697 2.27605e-20)
(17.9797 3.55858 1.55557e-17)
(18.2539 3.64723 -3.16243e-17)
(18.5461 3.70839 -4.52144e-19)
(18.8573 3.73875 2.10081e-17)
(19.1858 3.73051 -8.82449e-18)
(19.523 3.67382 1.84674e-17)
(19.8588 3.56171 -2.78438e-17)
(20.1829 3.39233 4.78746e-18)
(20.4838 3.16791 0)
(20.7499 2.89301 2.34867e-17)
(20.9714 2.57451 -2.0891e-17)
(21.1403 2.22124 -2.13302e-17)
(21.2518 1.84345 4.01412e-17)
(21.3018 1.45181 -2.12972e-17)
(21.2946 1.09402 9.99526e-19)
(21.2465 0.782582 8.4349e-20)
(21.166 0.491678 1.06062e-17)
(21.0579 0.222908 -2.1029e-17)
(20.9263 -0.0228226 1.11678e-17)
(20.7753 -0.245039 -9.65805e-18)
(20.6083 -0.443657 1.16131e-17)
(20.4284 -0.618858 1.13689e-17)
(20.2383 -0.770946 -1.01242e-17)
(20.04 -0.900239 -2.4797e-18)
(19.8358 -1.00701 -3.63195e-18)
(19.6274 -1.09143 1.08542e-17)
(19.4167 -1.15367 -9.49744e-18)
(19.205 -1.19391 4.70732e-18)
(18.9947 -1.21197 2.29344e-18)
(18.7884 -1.20791 0)
(18.5884 -1.18205 2.19845e-18)
(18.3964 -1.1351 2.15357e-18)
(18.2188 -1.06761 2.1395e-18)
(18.0507 -0.986349 -2.05001e-18)
(16.7835 2.22508 -9.17346e-20)
(16.9527 2.40517 -8.27583e-19)
(17.1214 2.5569 -3.20442e-18)
(17.2902 2.68918 6.58465e-18)
(17.4643 2.81034 -2.55232e-17)
(17.6454 2.92037 2.60379e-17)
(17.8362 3.01835 -3.2424e-17)
(18.0386 3.10295 -2.0209e-17)
(18.2536 3.17144 6.19476e-18)
(18.4813 3.22098 -6.02309e-19)
(18.7231 3.24959 2.8257e-17)
(18.9788 3.25188 8.68736e-20)
(19.2435 3.22046 0)
(19.5115 3.14938 7.91183e-18)
(19.7765 3.03572 -8.00575e-18)
(20.0303 2.87884 8.05633e-18)
(20.2639 2.6797 0)
(20.4689 2.44129 -1.72639e-17)
(20.6373 2.16866 3.69017e-17)
(20.7631 1.86849 -1.3073e-17)
(20.8406 1.54843 1.74693e-17)
(20.8675 1.24836 -1.90436e-17)
(20.8551 0.980965 -5.30017e-19)
(20.8126 0.726663 1.95916e-19)
(20.7437 0.487914 -1.70018e-17)
(20.6516 0.266471 1.70202e-17)
(20.5398 0.0635892 -5.32556e-19)
(20.4116 -0.119959 -1.05379e-18)
(20.2698 -0.28378 8.19542e-18)
(20.1172 -0.427727 -9.21758e-18)
(19.9558 -0.551805 1.01418e-18)
(19.7881 -0.656105 -9.99395e-19)
(19.6158 -0.740767 3.89917e-18)
(19.4411 -0.806021 -1.99462e-18)
(19.2652 -0.85227 -7.60684e-18)
(19.0905 -0.879665 1.90154e-18)
(18.9192 -0.888577 -1.82791e-18)
(18.753 -0.879785 3.63761e-18)
(18.5935 -0.854225 -1.78542e-18)
(18.4447 -0.81271 -1.73765e-18)
(18.304 -0.760628 0)
(17.0502 2.05332 9.07936e-18)
(17.1943 2.19395 -1.68862e-17)
(17.3372 2.31023 -1.7556e-17)
(17.4789 2.41035 4.52721e-17)
(17.6231 2.50118 -1.67868e-17)
(17.7711 2.583 3.97109e-17)
(17.925 2.65542 -3.40976e-17)
(18.0862 2.71781 5.16481e-17)
(18.2556 2.76852 -5.24106e-17)
(18.4336 2.80582 -4.00576e-19)
(18.6213 2.82853 2.39547e-17)
(18.8192 2.83308 3.1184e-18)
(19.0244 2.81428 2.53912e-17)
(19.2339 2.76766 -2.544e-17)
(19.4438 2.69051 2.65649e-17)
(19.649 2.58129 -3.0117e-17)
(19.8433 2.43935 0)
(20.02 2.26536 2.45891e-17)
(20.1729 2.06158 -2.99581e-17)
(20.2962 1.83186 2.68933e-17)
(20.3841 1.58102 1.28193e-19)
(20.4306 1.34019 -4.16397e-17)
(20.4429 1.12073 4.60332e-19)
(20.4292 0.908307 1.41681e-17)
(20.3921 0.70563 2.69081e-23)
(20.3339 0.514814 0)
(20.2573 0.337526 1.35979e-17)
(20.165 0.174966 -1.33732e-17)
(20.0596 0.027929 0)
(19.9433 -0.103091 8.36417e-19)
(19.8184 -0.217824 0)
(19.6867 -0.316171 -6.4279e-18)
(19.5504 -0.398165 7.22135e-18)
(19.4111 -0.464007 6.25722e-18)
(19.2703 -0.514144 -1.24126e-17)
(19.1299 -0.548826 6.91723e-18)
(18.9918 -0.568504 7.52699e-19)
(18.8573 -0.574067 -1.47986e-18)
(18.7277 -0.566415 1.45515e-18)
(18.6055 -0.546336 0)
(18.4896 -0.517795 1.40324e-18)
(17.2556 1.90463 0)
(17.3789 2.01488 2.30417e-17)
(17.5005 2.10423 2.02309e-19)
(17.6202 2.18034 -3.13596e-17)
(17.7407 2.24867 -2.10581e-17)
(17.8631 2.30956 2.08997e-17)
(17.9888 2.36293 -2.10995e-17)
(18.1191 2.4085 -2.12909e-17)
(18.2546 2.44528 -4.33914e-17)
(18.3957 2.47216 5.43145e-17)
(18.5434 2.48846 -5.53349e-18)
(18.6981 2.4918 -5.61916e-18)
(18.8581 2.47858 2.31213e-17)
(19.0216 2.44561 -1.73684e-17)
(19.1865 2.39078 -2.67583e-17)
(19.3495 2.31257 2.0905e-17)
(19.5063 2.20986 2.77033e-17)
(19.6525 2.08236 -2.77325e-17)
(19.7833 1.93083 0)
(19.8939 1.75722 -3.14787e-18)
(19.9795 1.56429 -3.14786e-18)
(20.0328 1.37546 -2.54304e-17)
(20.0581 1.20014 5.02488e-17)
(20.0624 1.02791 -2.53943e-17)
(20.047 0.861253 -1.23903e-17)
(20.0138 0.702234 4.29183e-19)
(19.9645 0.552559 1.22431e-17)
(19.9013 0.413548 -1.91556e-19)
(19.8261 0.286162 -1.15921e-20)
(19.7409 0.171067 -1.17197e-17)
(19.6475 0.0686978 1.17763e-17)
(19.5476 -0.0207121 5.76859e-18)
(19.443 -0.0970899 -6.10625e-18)
(19.3351 -0.160555 5.62479e-18)
(19.2254 -0.211491 -4.91009e-18)
(19.1152 -0.250121 -4.11282e-18)
(19.0063 -0.276829 2.04785e-18)
(18.8996 -0.292423 -6.68201e-19)
(18.796 -0.297639 0)
(18.6973 -0.293118 0)
(18.6033 -0.281601 7.04112e-21)
(17.4076 1.78233 1.01902e-17)
(17.5145 1.86996 -1.11027e-17)
(17.6193 1.93955 4.89774e-18)
(17.7217 1.9982 9.72039e-18)
(17.824 2.05021 0)
(17.9269 2.09594 -1.96448e-17)
(18.0317 2.13546 4.97107e-17)
(18.1391 2.16869 -2.97835e-17)
(18.2498 2.195 1.01038e-17)
(18.3642 2.21367 -1.02802e-17)
(18.4828 2.22429 5.22568e-18)
(18.6062 2.22523 4.77757e-17)
(18.7332 2.21399 -8.55608e-17)
(18.8626 2.18833 3.76086e-17)
(18.9932 2.14672 5.5498e-18)
(19.1228 2.08791 2.23889e-17)
(19.2487 2.01085 -7.06512e-17)
(19.3677 1.91499 3.11352e-17)
(19.4762 1.80043 4.9023e-17)
(19.5709 1.66811 -2.02635e-17)
(19.6479 1.51956 5.83374e-18)
(19.7002 1.37215 0)
(19.7304 1.23332 0)
(19.7439 1.09539 2.29065e-17)
(19.7417 0.96045 -2.27894e-17)
(19.7247 0.830283 -3.58332e-19)
(19.6944 0.706425 0)
(19.6522 0.59011 -1.10914e-17)
(19.5998 0.482284 1.10483e-17)
(19.5385 0.383645 -8.59701e-20)
(19.4699 0.294677 8.3616e-20)
(19.3953 0.21568 0)
(19.3162 0.146796 -4.95849e-18)
(19.2339 0.087985 5.22503e-18)
(19.1494 0.0389587 -6.45315e-19)
(19.064 -0.000437839 6.36458e-19)
(18.9789 -0.0304779 0)
(18.8948 -0.0518243 6.18678e-19)
(18.8127 -0.0650356 1.21549e-18)
(18.7336 -0.0705899 -6.08163e-19)
(18.6578 -0.0703045 -1.75091e-18)
(17.5224 1.68095 0)
(17.6159 1.75135 0)
(17.7071 1.80615 1.82561e-17)
(17.7958 1.85181 3.64836e-17)
(17.8837 1.89175 -5.4485e-17)
(17.9715 1.92632 4.60249e-17)
(18.0601 1.95568 1.88493e-17)
(18.1502 1.97983 -3.73063e-17)
(18.2423 1.99838 3.80834e-17)
(18.3366 2.01085 -3.82585e-17)
(18.4337 2.01696 0)
(18.5338 2.0156 0)
(18.6363 2.00499 -4.01186e-17)
(18.7403 1.98355 8.07037e-17)
(18.8449 1.95018 -8.16479e-17)
(18.9487 1.90397 4.10975e-17)
(19.0499 1.84406 5.17706e-18)
(19.1463 1.76993 -5.016e-17)
(19.2352 1.68144 3.43778e-17)
(19.3143 1.57905 0)
(19.3806 1.46359 -2.70278e-18)
(19.4281 1.34804 0)
(19.4584 1.23814 2.24265e-17)
(19.4758 1.12808 -4.33563e-17)
(19.4806 1.01951 2.09325e-17)
(19.4736 0.913907 0)
(19.4559 0.812547 0)
(19.4283 0.716496 -9.58921e-18)
(19.3922 0.62659 1.01685e-17)
(19.3487 0.543469 1.00326e-17)
(19.2988 0.467594 -1.00586e-17)
(19.2437 0.399273 -9.82844e-18)
(19.1845 0.338675 9.80997e-18)
(19.1222 0.285813 0)
(19.0577 0.240484 7.40776e-20)
(18.992 0.202602 0)
(18.926 0.17199 1.80999e-20)
(18.8603 0.148134 7.15413e-20)
(18.7956 0.130627 -2.40081e-18)
(18.7326 0.119127 3.35894e-18)
(18.6718 0.112483 -1.08674e-18)
(17.6106 1.59566 0)
(17.6931 1.65265 2.09516e-18)
(17.7731 1.69617 0)
(17.8506 1.73198 -1.67227e-17)
(17.9268 1.76283 1.68838e-17)
(18.0025 1.78904 0)
(18.0783 1.81081 -1.72977e-17)
(18.1549 1.82821 -1.76585e-17)
(18.2325 1.84097 4.42352e-17)
(18.3114 1.84877 0)
(18.392 1.85142 -3.66216e-17)
(18.4745 1.84814 7.38673e-17)
(18.5584 1.83766 -3.71707e-17)
(18.643 1.81886 0)
(18.7277 1.79096 3.81583e-17)
(18.8117 1.7533 -4.29986e-17)
(18.8934 1.70528 -4.36928e-17)
(18.9714 1.64644 4.8613e-17)
(19.044 1.57664 4.95187e-18)
(19.1092 1.4961 0)
(19.165 1.4053 0)
(19.2064 1.31402 2.43504e-18)
(19.2344 1.22667 -1.22807e-18)
(19.2524 1.13876 -1.93425e-17)
(19.2606 1.05156 -1.19279e-18)
(19.2595 0.966233 1.91493e-17)
(19.2497 0.883802 -1.89952e-17)
(19.2321 0.805126 1.82917e-17)
(19.2075 0.730899 1.05055e-17)
(19.1767 0.661664 -9.29068e-18)
(19.1407 0.597826 9.17565e-18)
(19.1002 0.539661 -9.12365e-18)
(19.0561 0.487343 0)
(19.0093 0.440911 9.45635e-18)
(18.9604 0.400229 -8.91799e-18)
(18.9101 0.365256 0)
(18.8592 0.335892 -1.6929e-20)
(18.8081 0.311748 -2.19772e-18)
(18.7574 0.292533 2.24745e-18)
(18.7077 0.27801 -9.75026e-19)
(18.6593 0.2675 1.01101e-18)
(17.6796 1.523 0)
(17.7528 1.5694 -1.91093e-18)
(17.8234 1.60417 1.54302e-17)
(17.8915 1.6324 -3.10775e-17)
(17.9582 1.65628 6.27182e-17)
(18.024 1.67613 -3.16938e-17)
(18.0895 1.69216 0)
(18.1551 1.70447 -1.63649e-17)
(18.2213 1.7129 -9.98037e-17)
(18.288 1.7172 6.71061e-17)
(18.3557 1.71727 0)
(18.4245 1.71254 8.614e-18)
(18.4939 1.7021 -2.62846e-17)
(18.5635 1.68513 -2.1766e-19)
(18.6329 1.66111 3.53387e-17)
(18.7013 1.62958 -4.02208e-17)
(18.7678 1.59011 3.58541e-17)
(18.8312 1.54238 -3.63132e-17)
(18.8903 1.48626 3.62554e-17)
(18.9438 1.42189 3.65546e-17)
(18.9901 1.34956 -3.17388e-17)
(19.0253 1.27678 1.58723e-17)
(19.0502 1.20688 -2.01785e-17)
(19.0672 1.13636 1.90124e-17)
(19.0765 1.06619 3.33217e-18)
(19.0786 0.997248 -1.76694e-17)
(19.0737 0.930341 0)
(19.0627 0.866138 0)
(19.046 0.805192 1.61601e-17)
(19.0243 0.747939 -1.71359e-17)
(18.9983 0.694711 0)
(18.9687 0.645742 -1.04526e-18)
(18.936 0.601183 -1.03576e-18)
(18.9008 0.561083 -8.75012e-18)
(18.8638 0.525351 8.69273e-18)
(18.8254 0.493975 4.03783e-18)
(18.7863 0.466903 -4.0131e-18)
(18.7468 0.443847 1.48537e-18)
(18.7072 0.424606 -3.92581e-18)
(18.6681 0.409016 1.88465e-18)
(18.6298 0.396718 2.34562e-19)
(17.7343 1.46046 -1.4103e-17)
(17.7995 1.4984 -1.76973e-17)
(17.8622 1.52629 -7.73581e-20)
(17.9224 1.54861 0)
(17.9811 1.56709 0)
(18.0386 1.58204 0)
(18.0956 1.59369 0)
(18.1524 1.60215 6.11662e-17)
(18.2092 1.60731 -1.08459e-16)
(18.2662 1.60901 6.27273e-17)
(18.3236 1.60718 -6.3961e-17)
(18.3815 1.60141 4.0188e-17)
(18.4395 1.59104 -7.34942e-17)
(18.4973 1.57549 9.01907e-17)
(18.5546 1.55439 -3.29826e-17)
(18.6108 1.52744 -2.49992e-17)
(18.6652 1.49435 3.33798e-17)
(18.717 1.4549 -4.22514e-18)
(18.7653 1.40902 4.19612e-18)
(18.8091 1.35681 -4.227e-17)
(18.8472 1.29848 -3.79911e-17)
(18.8768 1.23984 6.29664e-17)
(18.8982 1.18346 2.09471e-18)
(18.9135 1.12655 0)
(18.9228 1.06984 -2.0717e-18)
(18.9264 1.014 2.03185e-18)
(18.9245 0.959642 1.42004e-17)
(18.9177 0.907283 -1.61043e-17)
(18.9064 0.857348 1.59517e-17)
(18.8912 0.810176 -1.58388e-17)
(18.8724 0.766029 -1.56684e-17)
(18.8506 0.725094 1.65341e-17)
(18.8263 0.687495 9.67115e-19)
(18.7999 0.653279 -7.6164e-18)
(18.7719 0.622383 6.15123e-18)
(18.7427 0.594809 0)
(18.7126 0.570535 0)
(18.6821 0.549346 4.60492e-19)
(18.6513 0.531099 -9.07644e-19)
(18.6207 0.515684 -8.99304e-19)
(18.5904 0.502947 -2.18438e-19)
(17.7781 1.40616 0)
(17.8364 1.43725 3.21241e-18)
(17.8923 1.45971 -2.61493e-17)
(17.9458 1.47735 2.63104e-17)
(17.9976 1.4916 5.38598e-17)
(18.0482 1.50276 -5.46278e-17)
(18.0981 1.51104 -2.80383e-17)
(18.1475 1.51656 5.66708e-17)
(18.1967 1.51927 5.79273e-17)
(18.2457 1.51904 -5.85644e-17)
(18.2947 1.51584 0)
(18.3439 1.50937 3.01497e-17)
(18.3928 1.49915 -6.09787e-17)
(18.4412 1.48478 6.88269e-17)
(18.4889 1.466 0)
(18.5354 1.44262 7.73184e-18)
(18.5802 1.41444 -7.76325e-18)
(18.6227 1.38135 0)
(18.6623 1.3433 -3.93615e-18)
(18.6982 1.30041 7.88477e-18)
(18.7295 1.25282 -3.50879e-17)
(18.7541 1.2051 3.50695e-17)
(18.7723 1.15924 -3.84064e-18)
(18.7857 1.11299 -2.87948e-17)
(18.7944 1.06689 2.85975e-17)
(18.7984 1.02147 -1.90467e-18)
(18.7983 0.977176 1.69175e-17)
(18.7942 0.934405 -1.49156e-17)
(18.7866 0.893476 -1.84025e-18)
(18.7757 0.854648 0)
(18.7621 0.81812 0)
(18.746 0.784035 0)
(18.7279 0.752491 7.12272e-18)
(18.708 0.723527 -7.07067e-18)
(18.6868 0.697096 8.784e-19)
(18.6645 0.673205 6.92585e-18)
(18.6414 0.651849 -7.73146e-18)
(18.6177 0.632866 0)
(18.5938 0.616156 4.14203e-21)
(18.5698 0.601641 1.67141e-18)
(18.5459 0.589297 -8.0833e-19)
(17.8135 1.35865 -1.17424e-17)
(17.8658 1.38417 0)
(17.9158 1.40228 5.99674e-17)
(17.9634 1.41621 -4.853e-17)
(18.0095 1.42712 0)
(18.0542 1.43531 -5.08468e-17)
(18.098 1.44099 -1.04397e-19)
(18.1413 1.44427 -5.29401e-17)
(18.1841 1.44512 8.06125e-17)
(18.2265 1.44348 5.48303e-17)
(18.2687 1.43931 -5.5455e-17)
(18.3106 1.43242 -1.40897e-17)
(18.3521 1.42245 0)
(18.393 1.40911 0)
(18.4329 1.39224 1.43537e-17)
(18.4716 1.37173 -6.51735e-17)
(18.5088 1.34745 1.30576e-16)
(18.5439 1.31935 -5.80837e-17)
(18.5764 1.28743 -7.25743e-18)
(18.6059 1.25178 -7.25767e-18)